Protein in INSANE! Membrane UpperLeaflet>POPC=1.0 LowerLeaflet>POPC=1.0
248675
    1AU     AUC    1  38.166   8.358   7.532
    1AU     AUC    2  38.414   8.343   7.362
    1AU     AUC    3  38.423   8.360   7.684
    1AU     AUC    4  37.900   8.347   7.385
    1AU     AUC    5  37.914   8.384   7.701
    1AU     AUC    6  38.020   8.616   7.511
    1AU     AUC    7  38.337   8.610   7.505
    1AU     AUC    8  38.001   8.104   7.562
    1AU     AUC    9  38.317   8.096   7.543
    1AU     AUC   10  38.167   8.222   7.803
    1AU     AUC   11  38.185   8.542   7.776
    1AU     AUC   12  38.153   8.177   7.287
    1AU     AUC   13  38.159   8.493   7.260
    1AU     AUC   14  38.667   8.340   7.194
    1AU     AUC   15  38.673   8.338   7.516
    1AU     AUC   16  38.678   8.345   7.841
    1AU     AUC   17  37.640   8.327   7.237
    1AU     AUC   18  37.644   8.379   7.557
    1AU     AUC   19  37.671   8.423   7.873
    1AU     AUC   20  37.872   8.873   7.478
    1AU     AUC   21  38.209   8.871   7.471
    1AU     AUC   22  38.523   8.864   7.478
    1AU     AUC   23  37.836   7.851   7.594
    1AU     AUC   24  38.164   7.838   7.563
    1AU     AUC   25  38.479   7.834   7.555
    1AU     AUC   26  38.171   8.087   8.075
    1AU     AUC   27  38.180   8.411   8.062
    1AU     AUC   28  38.214   8.730   8.019
    1AU     AUC   29  38.157   8.001   7.041
    1AU     AUC   30  38.140   8.311   7.011
    1AU     AUC   31  38.146   8.623   6.989
    1AU     AUC   32  38.421   8.212   7.962
    1AU     AUC   33  38.454   8.535   7.938
    1AU     AUC   34  38.420   8.178   7.104
    1AU     AUC   35  38.408   8.493   7.085
    1AU     AUC   36  37.919   8.258   7.981
    1AU     AUC   37  37.931   8.582   7.948
    1AU     AUC   38  37.887   8.148   7.142
    1AU     AUC   39  37.882   8.469   7.103
    1AU     AUC   40  38.595   8.596   7.341
    1AU     AUC   41  38.600   8.618   7.665
    1AU     AUC   42  37.744   8.617   7.348
    1AU     AUC   43  37.761   8.662   7.676
    1AU     AUC   44  38.567   8.072   7.368
    1AU     AUC   45  38.578   8.088   7.699
    1AU     AUC   46  37.727   8.086   7.428
    1AU     AUC   47  37.740   8.122   7.742
    1AU     AUC   48  38.040   8.802   7.766
    1AU     AUC   49  38.380   8.797   7.750
    1AU     AUC   50  38.005   7.964   7.837
    1AU     AUC   51  38.323   7.948   7.818
    1AU     AUC   52  38.001   8.758   7.234
    1AU     AUC   53  38.339   8.758   7.230
    1AU     AUC   54  37.991   7.910   7.314
    1AU     AUC   55  38.327   7.919   7.288
    1AU    AUSL   56  38.595   8.319   8.154
    1AU    AUSL   57  38.476   7.975   8.149
    1AU     AUL   58  38.867   8.141   8.274
    1AU    AUSL   59  38.281   8.239   8.294
    1AU    AUSL   60  38.069   8.602   8.276
    1AU     AUL   61  38.335   8.517   8.566
    1AU    AUSL   62  38.405   8.615   8.230
    1AU    AUSL   63  38.762   8.591   8.003
    1AU     AUL   64  38.733   8.524   8.403
    1AU    AUSL   65  38.577   8.389   6.885
    1AU    AUSL   66  38.462   8.738   6.901
    1AU     AUL   67  38.840   8.556   6.746
    1AU    AUSL   68  38.356   8.145   6.802
    1AU    AUSL   69  38.730   8.095   7.027
    1AU     AUL   70  38.710   8.148   6.648
    1AU    AUSL   71  38.230   8.457   6.773
    1AU    AUSL   72  38.010   8.118   6.825
    1AU     AUL   73  38.218   8.006   6.574
    1AU    AUSL   74  37.748   8.537   8.166
    1AU    AUSL   75  37.929   8.867   8.044
    1AU     AUL   76  37.909   8.896   8.375
    1AU    AUSL   77  37.933   8.267   8.268
    1AU    AUSL   78  37.669   8.151   8.055
    1AU     AUL   79  37.478   8.343   8.209
    1AU    AUSL   80  37.695   8.188   6.924
    1AU    AUSL   81  37.849   7.858   7.041
    1AU     AUL   82  37.841   7.841   6.696
    1AU    AUSL   83  37.881   8.450   6.829
    1AU    AUSL   84  37.610   8.591   7.043
    1AU     AUL   85  37.431   8.328   6.921
    1AU    AUSL   86  38.835   8.772   7.419
    1AU    AUSL   87  38.735   8.619   7.097
    1AU     AUL   88  39.074   8.567   7.060
    1AU    AUSL   89  38.929   8.444   7.350
    1AU    AUSL   90  38.912   8.198   7.671
    1AU     AUL   91  39.236   8.265   7.498
    1AU    AUSL   92  38.813   8.531   7.664
    1AU    AUSL   93  38.726   8.881   7.739
    1AU     AUL   94  39.039   8.587   7.766
    1AU    AUSL   95  37.591   8.856   7.501
    1AU    AUSL   96  37.608   8.737   7.923
    1AU     AUL   97  37.290   8.888   7.681
    1AU    AUSL   98  37.441   8.541   7.331
    1AU    AUSL   99  37.717   8.908   7.180
    1AU     AUL  100  37.351   8.849   7.232
    1AU    AUSL  101  37.439   8.549   7.701
    1AU    AUSL  102  37.412   8.231   7.455
    1AU     AUL  103  37.137   8.530   7.497
    1AU    AUSL  104  38.778   7.886   7.602
    1AU    AUSL  105  38.732   8.066   7.938
    1AU     AUL  106  39.071   8.123   7.913
    1AU    AUSL  107  38.789   8.129   7.361
    1AU    AUSL  108  38.660   7.803   7.261
    1AU     AUL  109  39.016   8.032   7.263
    1AU    AUSL  110  37.505   7.922   7.588
    1AU    AUSL  111  37.568   8.033   7.195
    1AU     AUL  112  37.228   8.061   7.259
    1AU    AUSL  113  37.448   8.221   7.801
    1AU    AUSL  114  37.717   7.838   7.895
    1AU     AUL  115  37.417   7.895   7.954
    1AU    AUSL  116  38.233   9.037   7.933
    1AU    AUSL  117  37.773   9.012   7.757
    1AU     AUL  118  37.964   9.236   8.025
    1AU    AUSL  119  38.085   8.977   7.616
    1AU    AUSL  120  38.330   9.110   7.319
    1AU     AUL  121  38.084   9.289   7.621
    1AU    AUSL  122  38.442   9.090   7.638
    1AU    AUSL  123  38.516   8.847   8.016
    1AU     AUL  124  38.577   9.173   7.945
    1AU    AUSL  125  38.202   7.770   8.000
    1AU    AUSL  126  38.542   7.775   7.865
    1AU     AUL  127  38.329   7.703   8.279
    1AU    AUSL  128  37.968   7.657   7.766
    1AU    AUSL  129  37.945   7.941   8.156
    1AU     AUL  130  37.904   7.565   8.091
    1AU    AUSL  131  38.288   7.607   7.692
    1AU    AUSL  132  38.026   7.616   7.425
    1AU     AUL  133  37.840   7.412   7.623
    1AU    AUSL  134  38.182   8.911   7.069
    1AU    AUSL  135  38.590   8.920   7.203
    1AU     AUL  136  38.376   9.089   6.911
    1AU    AUSL  137  37.979   9.091   7.303
    1AU    AUSL  138  37.900   8.771   6.917
    1AU     AUL  139  37.963   9.098   6.913
    1AU    AUSL  140  38.154   7.710   7.112
    1AU    AUSL  141  37.704   7.745   7.356
    1AU     AUL  142  37.881   7.486   7.123
    1AU    AUSL  143  38.384   7.633   7.367
    1AU    AUSL  144  38.445   7.887   6.998
    1AU     AUL  145  38.414   7.584   6.978
    1AU       S  146  38.821   7.609   8.311
    1AU     LIG  147  38.913   7.125   8.337
    1AU     LIG  148  39.005   6.646   8.361
    1AU     LIG  149  39.321   6.445   8.649
    1AU       S  150  38.581   8.055   8.685
    1AU     LIG  151  38.852   8.183   9.051
    1AU     LIG  152  39.001   8.385   9.442
    1AU     LIG  153  38.992   8.361   9.910
    1AU       S  154  38.242   8.028   8.697
    1AU     LIG  155  38.368   8.012   9.164
    1AU     LIG  156  38.701   7.959   9.521
    1AU     LIG  157  39.026   7.847   9.853
    1AU       S  158  37.858   8.534   8.742
    1AU     LIG  159  37.727   8.477   9.161
    1AU     LIG  160  37.414   8.311   9.440
    1AU     LIG  161  37.117   8.394   9.794
    1AU       S  162  38.450   9.018   8.511
    1AU     LIG  163  38.738   9.227   8.798
    1AU     LIG  164  39.108   9.101   9.017
    1AU     LIG  165  39.369   8.729   9.083
    1AU       S  166  39.101   8.844   8.203
    1AU     LIG  167  39.350   8.911   8.575
    1AU     LIG  168  39.554   9.242   8.805
    1AU     LIG  169  39.904   9.505   8.959
    1AU       S  170  38.519   8.602   6.362
    1AU     LIG  171  38.767   8.547   5.970
    1AU     LIG  172  38.944   8.171   5.764
    1AU     LIG  173  38.971   7.705   5.716
    1AU       S  174  38.829   9.073   6.707
    1AU     LIG  175  38.946   9.520   6.632
    1AU     LIG  176  39.294   9.767   6.454
    1AU     LIG  177  39.473   9.811   6.041
    1AU       S  178  39.039   7.767   6.832
    1AU     LIG  179  39.276   7.569   6.486
    1AU     LIG  180  39.313   7.176   6.261
    1AU     LIG  181  39.335   6.700   6.267
    1AU       S  182  38.384   8.368   6.280
    1AU     LIG  183  38.424   8.176   5.876
    1AU     LIG  184  38.548   8.043   5.463
    1AU     LIG  185  38.893   7.835   5.222
    1AU       S  186  37.818   8.244   6.354
    1AU     LIG  187  37.937   8.327   5.956
    1AU     LIG  188  37.997   8.092   5.595
    1AU     LIG  189  37.698   7.782   5.417
    1AU       S  190  38.218   8.592   6.387
    1AU     LIG  191  38.260   8.711   5.915
    1AU     LIG  192  38.478   8.573   5.541
    1AU     LIG  193  38.874   8.451   5.335
    1AU       S  194  37.599   8.570   8.637
    1AU     LIG  195  37.323   8.299   8.853
    1AU     LIG  196  37.174   7.982   9.114
    1AU     LIG  197  37.047   7.945   9.551
    1AU       S  198  37.489   9.164   8.216
    1AU     LIG  199  37.174   9.322   8.514
    1AU     LIG  200  36.979   9.347   8.910
    1AU     LIG  201  37.136   9.395   9.339
    1AU       S  202  37.498   7.924   8.488
    1AU     LIG  203  37.033   7.821   8.500
    1AU     LIG  204  36.695   7.495   8.388
    1AU     LIG  205  36.460   7.298   8.729
    1AU       S  206  37.801   8.285   8.660
    1AU     LIG  207  37.712   7.991   9.013
    1AU     LIG  208  37.559   7.817   9.423
    1AU     LIG  209  37.456   7.969   9.863
    1AU       S  210  37.550   8.205   6.447
    1AU     LIG  211  37.379   7.822   6.231
    1AU     LIG  212  37.339   7.891   5.787
    1AU     LIG  213  37.523   8.289   5.619
    1AU       S  214  37.448   7.533   6.874
    1AU     LIG  215  37.454   7.175   6.551
    1AU     LIG  216  37.326   7.131   6.111
    1AU     LIG  217  37.038   7.440   5.928
    1AU       S  218  37.361   8.774   6.689
    1AU     LIG  219  37.007   9.093   6.727
    1AU     LIG  220  36.797   9.476   6.547
    1AU     LIG  221  36.806   9.669   6.122
    1AU       S  222  37.729   8.491   6.458
    1AU     LIG  223  37.520   8.613   6.093
    1AU     LIG  224  37.746   8.754   5.736
    1AU     LIG  225  37.980   8.567   5.388
    1AU       S  226  39.015   9.050   6.919
    1AU     LIG  227  39.348   9.212   6.647
    1AU     LIG  228  39.470   9.324   6.224
    1AU     LIG  229  39.835   9.440   5.960
    1AU       S  230  39.148   9.022   7.404
    1AU     LIG  231  39.496   9.174   7.135
    1AU     LIG  232  39.895   9.341   7.208
    1AU     LIG  233  40.184   9.192   7.499
    1AU       S  234  39.382   8.763   7.404
    1AU     LIG  235  39.746   8.701   7.147
    1AU     LIG  236  40.178   8.795   7.180
    1AU     LIG  237  40.332   9.151   6.951
    1AU       S  238  39.268   7.732   7.672
    1AU     LIG  239  39.558   7.803   8.035
    1AU     LIG  240  40.022   7.835   7.994
    1AU     LIG  241  40.265   7.536   7.737
    1AU       S  242  39.078   9.076   7.990
    1AU     LIG  243  39.473   9.239   8.181
    1AU     LIG  244  39.656   9.587   8.434
    1AU     LIG  245  39.601   9.875   8.792
    1AU       S  246  39.312   8.941   7.579
    1AU     LIG  247  39.562   8.802   7.928
    1AU     LIG  248  39.970   8.737   8.085
    1AU     LIG  249  40.354   8.816   7.887
    1AU       S  250  37.368   8.912   8.215
    1AU     LIG  251  37.093   8.801   8.513
    1AU     LIG  252  36.732   9.026   8.554
    1AU     LIG  253  36.482   9.264   8.814
    1AU       S  254  37.485   9.334   7.425
    1AU     LIG  255  37.349   9.731   7.259
    1AU     LIG  256  37.006   9.719   6.982
    1AU     LIG  257  36.675   9.380   7.046
    1AU       S  258  36.981   8.567   7.010
    1AU     LIG  259  36.534   8.478   7.119
    1AU     LIG  260  36.136   8.717   7.114
    1AU     LIG  261  36.079   9.192   7.061
    1AU       S  262  37.475   9.219   6.902
    1AU     LIG  263  37.316   9.491   6.578
    1AU     LIG  264  37.112   9.878   6.500
    1AU     LIG  265  36.898  10.163   6.206
    1AU       S  266  36.936   8.071   7.671
    1AU     LIG  267  36.547   8.056   7.465
    1AU     LIG  268  36.167   8.132   7.255
    1AU     LIG  269  35.779   7.941   7.329
    1AU       S  270  37.045   8.583   8.021
    1AU     LIG  271  36.661   8.617   8.246
    1AU     LIG  272  36.323   8.471   8.039
    1AU     LIG  273  36.318   8.525   7.586
    1AU       S  274  39.005   7.536   7.585
    1AU     LIG  275  39.257   7.116   7.516
    1AU     LIG  276  39.604   6.985   7.761
    1AU     LIG  277  39.788   7.388   7.843
    1AU       S  278  39.001   7.648   8.095
    1AU     LIG  279  39.290   7.335   7.996
    1AU     LIG  280  39.416   7.015   8.255
    1AU     LIG  281  39.584   6.881   8.658
    1AU       S  282  39.211   7.628   7.448
    1AU     LIG  283  39.622   7.439   7.360
    1AU     LIG  284  40.058   7.569   7.255
    1AU     LIG  285  40.269   7.234   6.982
    1AU       S  286  38.926   7.531   7.055
    1AU     LIG  287  39.089   7.171   6.807
    1AU     LIG  288  39.061   6.721   6.717
    1AU     LIG  289  38.983   6.333   6.434
    1AU       S  290  37.331   7.728   6.902
    1AU     LIG  291  37.051   7.556   6.555
    1AU     LIG  292  36.661   7.406   6.368
    1AU     LIG  293  36.439   6.997   6.457
    1AU       S  294  37.015   7.819   7.666
    1AU     LIG  295  36.654   7.558   7.601
    1AU     LIG  296  36.425   7.393   7.212
    1AU     LIG  297  36.015   7.333   6.994
    1AU       S  298  37.516   7.677   8.391
    1AU     LIG  299  37.182   7.442   8.191
    1AU     LIG  300  36.980   7.085   8.165
    1AU     LIG  301  36.726   6.905   8.472
    1AU       S  302  36.994   8.127   7.835
    1AU     LIG  303  36.723   8.084   8.150
    1AU     LIG  304  36.392   7.935   7.953
    1AU     LIG  305  36.049   8.121   7.752
    1AU       S  306  37.462   9.321   7.925
    1AU     LIG  307  36.972   9.280   8.059
    1AU     LIG  308  36.671   9.505   8.389
    1AU     LIG  309  36.642   9.748   8.818
    1AU       S  310  38.326   9.604   7.962
    1AU     LIG  311  38.534   9.955   8.157
    1AU     LIG  312  38.373  10.288   8.426
    1AU     LIG  313  38.222  10.730   8.381
    1AU       S  314  38.258   9.789   7.713
    1AU     LIG  315  38.129  10.176   7.911
    1AU     LIG  316  37.999  10.630   7.930
    1AU     LIG  317  38.101  11.089   8.019
    1AU       S  318  38.331   9.527   7.217
    1AU     LIG  319  38.283   9.998   7.259
    1AU     LIG  320  38.387  10.454   7.245
    1AU     LIG  321  38.581  10.757   6.945
    1AU       S  322  38.908   9.031   8.296
    1AU     LIG  323  39.122   9.381   8.506
    1AU     LIG  324  39.174   9.597   8.889
    1AU     LIG  325  39.438   9.518   9.250
    1AU       S  326  38.529   9.598   7.660
    1AU     LIG  327  38.613  10.119   7.672
    1AU     LIG  328  38.528  10.482   7.989
    1AU     LIG  329  38.727  10.671   8.361
    1AU       S  330  38.352   7.244   8.076
    1AU     LIG  331  38.525   6.838   8.147
    1AU     LIG  332  38.428   6.473   8.391
    1AU     LIG  333  38.617   6.219   8.709
    1AU       S  334  38.779   7.500   8.020
    1AU     LIG  335  38.874   7.097   7.835
    1AU     LIG  336  39.157   6.754   7.882
    1AU     LIG  337  39.488   6.530   8.157
    1AU       S  338  38.159   7.145   7.907
    1AU     LIG  339  38.081   6.716   7.855
    1AU     LIG  340  37.990   6.363   8.118
    1AU     LIG  341  37.662   6.134   8.366
    1AU       S  342  37.768   7.801   8.544
    1AU     LIG  343  37.409   7.600   8.860
    1AU     LIG  344  37.036   7.334   8.743
    1AU     LIG  345  36.843   6.973   8.960
    1AU       S  346  38.196   7.129   7.386
    1AU     LIG  347  38.168   6.678   7.312
    1AU     LIG  348  38.244   6.522   6.913
    1AU     LIG  349  38.435   6.192   6.678
    1AU       S  350  38.401   7.240   7.818
    1AU     LIG  351  38.528   6.799   7.637
    1AU     LIG  352  38.494   6.398   7.888
    1AU     LIG  353  38.763   6.125   8.222
    1AU       S  354  38.169   9.540   7.013
    1AU     LIG  355  38.226   9.903   6.758
    1AU     LIG  356  38.380  10.330   6.728
    1AU     LIG  357  38.358  10.736   6.477
    1AU       S  358  38.850   9.229   7.062
    1AU     LIG  359  39.183   9.563   7.086
    1AU     LIG  360  39.578   9.626   6.858
    1AU     LIG  361  39.813   9.627   6.462
    1AU       S  362  37.937   9.531   7.202
    1AU     LIG  363  37.772   9.883   7.005
    1AU     LIG  364  37.936  10.293   7.005
    1AU     LIG  365  38.059  10.706   6.894
    1AU       S  366  37.572   8.951   6.627
    1AU     LIG  367  37.299   9.065   6.269
    1AU     LIG  368  37.241   9.422   5.993
    1AU     LIG  369  37.306   9.875   6.027
    1AU       S  370  37.355   7.527   7.189
    1AU     LIG  371  36.902   7.544   7.075
    1AU     LIG  372  36.759   7.191   6.832
    1AU     LIG  373  36.963   7.011   6.449
    1AU       S  374  38.283   7.139   7.143
    1AU     LIG  375  38.583   7.019   6.796
    1AU     LIG  376  38.582   6.645   6.547
    1AU     LIG  377  38.516   6.338   6.192
    1AU       S  378  38.515   7.242   7.349
    1AU     LIG  379  38.831   7.010   7.258
    1AU     LIG  380  38.700   6.646   7.125
    1AU     LIG  381  38.839   6.314   6.937
    1AU       S  382  38.843   7.633   6.747
    1AU     LIG  383  38.808   7.348   6.412
    1AU     LIG  384  38.869   6.934   6.267
    1AU     LIG  385  38.912   6.591   5.963
    2AU     AUC  386  29.223  31.096   7.529
    2AU     AUC  387  29.471  31.079   7.357
    2AU     AUC  388  29.484  31.091   7.678
    2AU     AUC  389  28.956  31.092   7.386
    2AU     AUC  390  28.974  31.125   7.703
    2AU     AUC  391  29.081  31.355   7.513
    2AU     AUC  392  29.399  31.345   7.503
    2AU     AUC  393  29.053  30.845   7.559
    2AU     AUC  394  29.368  30.831   7.536
    2AU     AUC  395  29.226  30.958   7.799
    2AU     AUC  396  29.249  31.276   7.775
    2AU     AUC  397  29.205  30.920   7.283
    2AU     AUC  398  29.218  31.235   7.259
    2AU     AUC  399  29.723  31.074   7.185
    2AU     AUC  400  29.731  31.066   7.506
    2AU     AUC  401  29.741  31.069   7.831
    2AU     AUC  402  28.696  31.071   7.241
    2AU     AUC  403  28.698  31.119   7.561
    2AU     AUC  404  28.733  31.167   7.880
    2AU     AUC  405  28.936  31.615   7.485
    2AU     AUC  406  29.273  31.608   7.472
    2AU     AUC  407  29.589  31.594   7.475
    2AU     AUC  408  28.888  30.593   7.592
    2AU     AUC  409  29.208  30.576   7.554
    2AU     AUC  410  29.524  30.566   7.540
    2AU     AUC  411  29.229  30.820   8.069
    2AU     AUC  412  29.245  31.144   8.059
    2AU     AUC  413  29.286  31.463   8.019
    2AU     AUC  414  29.205  30.749   7.035
    2AU     AUC  415  29.197  31.060   7.008
    2AU     AUC  416  29.206  31.371   6.988
    2AU     AUC  417  29.481  30.941   7.954
    2AU     AUC  418  29.521  31.264   7.932
    2AU     AUC  419  29.472  30.919   7.097
    2AU     AUC  420  29.467  31.234   7.081
    2AU     AUC  421  28.978  30.995   7.983
    2AU     AUC  422  28.997  31.320   7.953
    2AU     AUC  423  28.938  30.899   7.142
    2AU     AUC  424  28.942  31.219   7.104
    2AU     AUC  425  29.657  31.329   7.336
    2AU     AUC  426  29.666  31.344   7.658
    2AU     AUC  427  28.805  31.361   7.354
    2AU     AUC  428  28.826  31.405   7.683
    2AU     AUC  429  29.617  30.804   7.356
    2AU     AUC  430  29.632  30.816   7.687
    2AU     AUC  431  28.774  30.833   7.425
    2AU     AUC  432  28.800  30.868   7.750
    2AU     AUC  433  29.110  31.538   7.771
    2AU     AUC  434  29.449  31.527   7.749
    2AU     AUC  435  29.058  30.701   7.834
    2AU     AUC  436  29.374  30.681   7.807
    2AU     AUC  437  29.064  31.503   7.237
    2AU     AUC  438  29.400  31.497   7.228
    2AU     AUC  439  29.034  30.657   7.307
    2AU     AUC  440  29.370  30.658   7.277
    2AU    AUSL  441  29.660  31.043   8.144
    2AU    AUSL  442  29.532  30.700   8.137
    2AU     AUL  443  29.930  30.858   8.256
    2AU    AUSL  444  29.346  30.970   8.287
    2AU    AUSL  445  29.141  31.335   8.280
    2AU     AUL  446  29.419  31.247   8.558
    2AU    AUSL  447  29.475  31.344   8.220
    2AU    AUSL  448  29.830  31.315   7.994
    2AU     AUL  449  29.804  31.249   8.392
    2AU    AUSL  450  29.637  31.134   6.879
    2AU    AUSL  451  29.524  31.479   6.901
    2AU     AUL  452  29.891  31.309   6.731
    2AU    AUSL  453  29.414  30.895   6.799
    2AU    AUSL  454  29.775  30.828   7.013
    2AU     AUL  455  29.766  30.905   6.634
    2AU    AUSL  456  29.291  31.208   6.769
    2AU    AUSL  457  29.073  30.874   6.820
    2AU     AUL  458  29.294  30.763   6.565
    2AU    AUSL  459  28.815  31.275   8.174
    2AU    AUSL  460  29.005  31.604   8.049
    2AU     AUL  461  28.965  31.626   8.384
    2AU    AUSL  462  28.996  31.001   8.266
    2AU    AUSL  463  28.719  30.889   8.058
    2AU     AUL  464  28.542  31.095   8.220
    2AU    AUSL  465  28.762  30.937   6.927
    2AU    AUSL  466  28.890  30.620   7.034
    2AU     AUL  467  28.982  30.574   6.714
    2AU    AUSL  468  28.943  31.205   6.826
    2AU    AUSL  469  28.676  31.342   7.052
    2AU     AUL  470  28.506  31.102   6.919
    2AU    AUSL  471  29.902  31.496   7.413
    2AU    AUSL  472  29.798  31.355   7.092
    2AU     AUL  473  30.127  31.276   7.042
    2AU    AUSL  474  29.987  31.169   7.339
    2AU    AUSL  475  29.971  30.916   7.655
    2AU     AUL  476  30.300  31.002   7.487
    2AU    AUSL  477  29.882  31.251   7.656
    2AU    AUSL  478  29.795  31.601   7.731
    2AU     AUL  479  30.109  31.306   7.759
    2AU    AUSL  480  28.652  31.600   7.509
    2AU    AUSL  481  28.680  31.486   7.941
    2AU     AUL  482  28.372  31.660   7.713
    2AU    AUSL  483  28.508  31.270   7.339
    2AU    AUSL  484  28.778  31.654   7.191
    2AU     AUL  485  28.406  31.578   7.233
    2AU    AUSL  486  28.512  31.304   7.713
    2AU    AUSL  487  28.440  30.960   7.450
    2AU     AUL  488  28.226  31.333   7.517
    2AU    AUSL  489  29.825  30.609   7.584
    2AU    AUSL  490  29.788  30.788   7.923
    2AU     AUL  491  30.134  30.826   7.893
    2AU    AUSL  492  29.839  30.857   7.346
    2AU    AUSL  493  29.701  30.535   7.243
    2AU     AUL  494  30.065  30.758   7.248
    2AU    AUSL  495  28.591  30.676   7.622
    2AU    AUSL  496  28.596  30.794   7.185
    2AU     AUL  497  28.367  30.577   7.394
    2AU    AUSL  498  28.501  30.974   7.802
    2AU    AUSL  499  28.772  30.574   7.911
    2AU     AUL  500  28.451  30.634   7.944
    2AU    AUSL  501  29.313  31.769   7.939
    2AU    AUSL  502  28.844  31.754   7.764
    2AU     AUL  503  29.051  31.960   8.038
    2AU    AUSL  504  29.154  31.709   7.624
    2AU    AUSL  505  29.400  31.844   7.316
    2AU     AUL  506  29.153  32.018   7.623
    2AU    AUSL  507  29.505  31.819   7.636
    2AU    AUSL  508  29.593  31.580   8.014
    2AU     AUL  509  29.669  31.906   7.900
    2AU    AUSL  510  29.251  30.507   7.985
    2AU    AUSL  511  29.587  30.502   7.847
    2AU     AUL  512  29.376  30.423   8.260
    2AU    AUSL  513  29.009  30.391   7.759
    2AU    AUSL  514  29.003  30.677   8.159
    2AU     AUL  515  28.969  30.302   8.097
    2AU    AUSL  516  29.327  30.342   7.675
    2AU    AUSL  517  29.058  30.361   7.411
    2AU     AUL  518  28.867  30.163   7.607
    2AU    AUSL  519  29.243  31.661   7.064
    2AU    AUSL  520  29.657  31.655   7.202
    2AU     AUL  521  29.444  31.817   6.902
    2AU    AUSL  522  29.047  31.835   7.315
    2AU    AUSL  523  28.960  31.526   6.919
    2AU     AUL  524  29.005  31.870   6.947
    2AU    AUSL  525  29.187  30.454   7.100
    2AU    AUSL  526  28.740  30.503   7.337
    2AU     AUL  527  28.892  30.244   7.102
    2AU    AUSL  528  29.421  30.372   7.351
    2AU    AUSL  529  29.483  30.625   6.986
    2AU     AUL  530  29.447  30.322   6.964
    2AU       S  531  29.867  30.328   8.292
    2AU     LIG  532  29.936  29.848   8.345
    2AU     LIG  533  29.961  29.538   8.687
    2AU     LIG  534  30.345  29.456   8.919
    2AU       S  535  29.651  30.780   8.674
    2AU     LIG  536  29.860  31.008   9.044
    2AU     LIG  537  30.081  31.116   9.452
    2AU     LIG  538  30.202  31.042   9.911
    2AU       S  539  29.313  30.757   8.678
    2AU     LIG  540  29.384  30.807   9.136
    2AU     LIG  541  29.714  30.740   9.480
    2AU     LIG  542  30.029  30.552   9.786
    2AU       S  543  28.953  31.254   8.753
    2AU     LIG  544  28.804  31.183   9.173
    2AU     LIG  545  28.435  31.144   9.435
    2AU     LIG  546  28.270  31.294   9.837
    2AU       S  547  29.517  31.754   8.503
    2AU     LIG  548  29.657  31.952   8.889
    2AU     LIG  549  29.954  31.790   9.175
    2AU     LIG  550  30.348  31.575   9.160
    2AU       S  551  30.163  31.576   8.194
    2AU     LIG  552  30.332  31.670   8.621
    2AU     LIG  553  30.511  31.991   8.872
    2AU     LIG  554  30.599  32.398   9.074
    2AU       S  555  29.566  31.359   6.352
    2AU     LIG  556  29.764  31.322   5.925
    2AU     LIG  557  29.938  30.976   5.680
    2AU     LIG  558  30.059  30.587   5.446
    2AU       S  559  29.909  31.826   6.729
    2AU     LIG  560  29.838  32.268   6.621
    2AU     LIG  561  30.072  32.564   6.370
    2AU     LIG  562  30.376  32.575   6.013
    2AU       S  563  30.069  30.502   6.807
    2AU     LIG  564  30.302  30.272   6.480
    2AU     LIG  565  30.318  29.863   6.278
    2AU     LIG  566  30.357  29.392   6.295
    2AU       S  567  29.434  31.129   6.269
    2AU     LIG  568  29.461  30.902   5.877
    2AU     LIG  569  29.540  30.725   5.446
    2AU     LIG  570  29.746  30.619   5.040
    2AU       S  571  28.859  30.959   6.372
    2AU     LIG  572  28.958  31.004   5.974
    2AU     LIG  573  29.052  30.886   5.563
    2AU     LIG  574  28.802  30.842   5.195
    2AU       S  575  29.267  31.345   6.379
    2AU     LIG  576  29.252  31.402   5.880
    2AU     LIG  577  29.465  31.247   5.485
    2AU     LIG  578  29.820  31.108   5.199
    2AU       S  579  28.695  31.277   8.660
    2AU     LIG  580  28.350  31.168   8.889
    2AU     LIG  581  28.133  30.856   9.116
    2AU     LIG  582  28.012  30.840   9.560
    2AU       S  583  28.570  31.938   8.205
    2AU     LIG  584  28.363  32.223   8.504
    2AU     LIG  585  28.228  32.102   8.936
    2AU     LIG  586  27.849  32.224   9.190
    2AU       S  587  28.530  30.656   8.470
    2AU     LIG  588  28.052  30.498   8.416
    2AU     LIG  589  27.690  30.164   8.296
    2AU     LIG  590  27.262  29.962   8.449
    2AU       S  591  28.867  31.002   8.662
    2AU     LIG  592  28.635  30.747   8.978
    2AU     LIG  593  28.491  30.629   9.410
    2AU     LIG  594  28.432  30.787   9.850
    2AU       S  595  28.610  30.888   6.480
    2AU     LIG  596  28.490  30.716   6.100
    2AU     LIG  597  28.547  30.841   5.680
    2AU     LIG  598  28.347  31.082   5.369
    2AU       S  599  28.502  30.438   6.771
    2AU     LIG  600  28.445  30.122   6.455
    2AU     LIG  601  28.160  29.940   6.154
    2AU     LIG  602  27.733  29.804   6.031
    2AU       S  603  28.454  31.517   6.656
    2AU     LIG  604  28.118  31.751   6.621
    2AU     LIG  605  28.070  32.146   6.461
    2AU     LIG  606  27.965  32.163   6.008
    2AU       S  607  28.791  31.210   6.450
    2AU     LIG  608  28.534  31.282   6.110
    2AU     LIG  609  28.684  31.343   5.686
    2AU     LIG  610  28.964  31.331   5.324
    2AU       S  611  30.094  31.775   6.943
    2AU     LIG  612  30.400  31.988   6.692
    2AU     LIG  613  30.409  32.137   6.269
    2AU     LIG  614  30.726  32.200   5.940
    2AU       S  615  30.209  31.775   7.428
    2AU     LIG  616  30.441  32.134   7.666
    2AU     LIG  617  30.888  32.274   7.686
    2AU     LIG  618  31.327  32.340   7.762
    2AU       S  619  30.426  31.526   7.351
    2AU     LIG  620  30.726  31.896   7.284
    2AU     LIG  621  31.180  31.949   7.365
    2AU     LIG  622  31.535  31.628   7.287
    2AU       S  623  30.309  30.434   7.638
    2AU     LIG  624  30.699  30.283   7.829
    2AU     LIG  625  31.098  30.391   7.892
    2AU     LIG  626  31.500  30.390   7.749
    2AU       S  627  30.158  31.794   7.976
    2AU     LIG  628  30.440  32.044   8.241
    2AU     LIG  629  30.454  32.404   8.555
    2AU     LIG  630  30.245  32.725   8.840
    2AU       S  631  30.393  31.642   7.569
    2AU     LIG  632  30.792  31.759   7.778
    2AU     LIG  633  31.268  31.744   7.829
    2AU     LIG  634  31.719  31.551   7.896
    2AU       S  635  28.439  31.678   8.243
    2AU     LIG  636  28.078  31.791   8.506
    2AU     LIG  637  27.805  32.154   8.647
    2AU     LIG  638  27.502  32.455   8.866
    2AU       S  639  28.557  32.080   7.423
    2AU     LIG  640  28.336  32.455   7.416
    2AU     LIG  641  28.154  32.360   7.029
    2AU     LIG  642  27.829  32.036   6.913
    2AU       S  643  28.037  31.211   7.067
    2AU     LIG  644  27.624  31.205   6.922
    2AU     LIG  645  27.318  31.434   7.115
    2AU     LIG  646  27.016  31.676   6.911
    2AU       S  647  28.510  31.944   6.899
    2AU     LIG  648  28.579  32.268   6.650
    2AU     LIG  649  28.322  32.568   6.577
    2AU     LIG  650  28.016  32.622   6.229
    2AU       S  651  27.994  30.880   7.585
    2AU     LIG  652  27.639  31.068   7.409
    2AU     LIG  653  27.254  30.929   7.215
    2AU     LIG  654  27.062  30.525   7.255
    2AU       S  655  28.120  31.351   8.038
    2AU     LIG  656  27.810  31.268   8.338
    2AU     LIG  657  27.401  31.387   8.212
    2AU     LIG  658  27.330  31.696   7.882
    2AU       S  659  30.034  30.252   7.565
    2AU     LIG  660  30.273  29.840   7.533
    2AU     LIG  661  30.676  29.761   7.724
    2AU     LIG  662  31.137  29.883   7.666
    2AU       S  663  30.035  30.358   8.074
    2AU     LIG  664  30.306  30.045   8.014
    2AU     LIG  665  30.654  29.842   8.231
    2AU     LIG  666  30.777  29.601   8.638
    2AU       S  667  30.237  30.334   7.411
    2AU     LIG  668  30.658  30.138   7.353
    2AU     LIG  669  31.095  30.293   7.365
    2AU     LIG  670  31.333  30.388   6.988
    2AU       S  671  29.958  30.267   7.013
    2AU     LIG  672  30.097  29.892   6.781
    2AU     LIG  673  30.102  29.433   6.756
    2AU     LIG  674  30.058  29.023   6.534
    2AU       S  675  28.316  30.595   6.875
    2AU     LIG  676  28.088  30.493   6.470
    2AU     LIG  677  27.731  30.193   6.369
    2AU     LIG  678  27.276  30.009   6.367
    2AU       S  679  27.999  30.673   7.730
    2AU     LIG  680  27.655  30.347   7.750
    2AU     LIG  681  27.392  30.126   7.422
    2AU     LIG  682  27.170  29.987   7.020
    2AU       S  683  28.561  30.402   8.373
    2AU     LIG  684  28.267  30.056   8.269
    2AU     LIG  685  27.963  29.710   8.242
    2AU     LIG  686  27.531  29.582   8.217
    2AU       S  687  28.041  30.919   7.834
    2AU     LIG  688  27.611  31.002   7.918
    2AU     LIG  689  27.324  30.749   7.700
    2AU     LIG  690  27.128  30.391   7.786
    2AU       S  691  28.579  32.106   7.915
    2AU     LIG  692  28.191  32.343   7.998
    2AU     LIG  693  27.982  32.554   8.354
    2AU     LIG  694  28.077  32.564   8.819
    2AU       S  695  29.425  32.313   8.043
    2AU     LIG  696  29.541  32.791   8.115
    2AU     LIG  697  29.264  33.060   8.361
    2AU     LIG  698  28.881  33.201   8.626
    2AU       S  699  29.320  32.469   7.816
    2AU     LIG  700  29.048  32.661   8.053
    2AU     LIG  701  28.951  33.025   7.928
    2AU     LIG  702  28.942  33.376   8.143
    2AU       S  703  29.459  32.234   7.225
    2AU     LIG  704  29.523  32.669   7.224
    2AU     LIG  705  29.304  33.041   7.119
    2AU     LIG  706  29.448  33.281   6.808
    2AU       S  707  29.966  31.764   8.278
    2AU     LIG  708  30.040  32.097   8.578
    2AU     LIG  709  30.099  32.253   9.003
    2AU     LIG  710  30.333  32.083   9.380
    2AU       S  711  29.541  32.361   7.689
    2AU     LIG  712  29.357  32.903   7.629
    2AU     LIG  713  29.412  33.273   7.877
    2AU     LIG  714  29.578  33.481   8.265
    2AU       S  715  29.387  29.965   8.044
    2AU     LIG  716  29.505  29.570   8.204
    2AU     LIG  717  29.296  29.291   8.523
    2AU     LIG  718  29.132  28.843   8.555
    2AU       S  719  29.812  30.216   7.999
    2AU     LIG  720  29.880  29.799   7.845
    2AU     LIG  721  30.228  29.559   7.977
    2AU     LIG  722  30.361  29.452   8.377
    2AU       S  723  29.172  29.867   7.879
    2AU     LIG  724  29.087  29.400   7.893
    2AU     LIG  725  28.961  29.018   8.103
    2AU     LIG  726  28.708  28.690   8.283
    2AU       S  727  28.794  30.528   8.541
    2AU     LIG  728  28.376  30.327   8.818
    2AU     LIG  729  27.996  30.047   8.709
    2AU     LIG  730  27.712  29.662   8.701
    2AU       S  731  29.211  29.881   7.352
    2AU     LIG  732  29.043  29.443   7.346
    2AU     LIG  733  29.005  29.047   7.079
    2AU     LIG  734  29.237  28.639   6.981
    2AU       S  735  29.419  29.978   7.791
    2AU     LIG  736  29.494  29.555   7.613
    2AU     LIG  737  29.578  29.217   7.848
    2AU     LIG  738  29.476  28.979   8.188
    2AU       S  739  29.287  32.282   7.003
    2AU     LIG  740  29.182  32.670   6.792
    2AU     LIG  741  29.400  32.908   6.456
    2AU     LIG  742  29.443  33.349   6.302
    2AU       S  743  29.921  31.982   7.065
    2AU     LIG  744  30.213  32.385   6.935
    2AU     LIG  745  30.550  32.510   6.593
    2AU     LIG  746  30.805  32.684   6.227
    2AU       S  747  29.083  32.313   7.214
    2AU     LIG  748  28.708  32.576   7.066
    2AU     LIG  749  28.679  32.917   6.750
    2AU     LIG  750  28.991  33.199   6.576
    2AU       S  751  28.663  31.690   6.621
    2AU     LIG  752  28.477  31.899   6.269
    2AU     LIG  753  28.442  32.339   6.126
    2AU     LIG  754  28.515  32.807   6.170
    2AU       S  755  28.398  30.292   6.980
    2AU     LIG  756  28.047  30.075   6.779
    2AU     LIG  757  27.903  29.723   6.531
    2AU     LIG  758  27.832  29.281   6.536
    2AU       S  759  29.292  29.881   7.120
    2AU     LIG  760  29.594  29.704   6.783
    2AU     LIG  761  29.617  29.278   6.606
    2AU     LIG  762  29.362  28.896   6.565
    2AU       S  763  29.544  29.972   7.323
    2AU     LIG  764  29.859  29.704   7.210
    2AU     LIG  765  29.759  29.250   7.105
    2AU     LIG  766  29.769  28.803   6.925
    2AU       S  767  29.860  30.379   6.706
    2AU     LIG  768  29.821  30.067   6.392
    2AU     LIG  769  29.871  29.627   6.332
    2AU     LIG  770  29.897  29.247   6.079
    3AU     AUC  771  13.252  29.024   7.536
    3AU     AUC  772  13.503  29.011   7.369
    3AU     AUC  773  13.509  29.024   7.691
    3AU     AUC  774  12.986  29.014   7.386
    3AU     AUC  775  12.999  29.049   7.704
    3AU     AUC  776  13.104  29.280   7.516
    3AU     AUC  777  13.423  29.276   7.513
    3AU     AUC  778  13.087  28.770   7.562
    3AU     AUC  779  13.403  28.762   7.546
    3AU     AUC  780  13.252  28.887   7.806
    3AU     AUC  781  13.269  29.205   7.782
    3AU     AUC  782  13.242  28.847   7.288
    3AU     AUC  783  13.248  29.162   7.265
    3AU     AUC  784  13.759  29.013   7.204
    3AU     AUC  785  13.760  29.004   7.525
    3AU     AUC  786  13.763  29.007   7.850
    3AU     AUC  787  12.727  28.989   7.231
    3AU     AUC  788  12.727  29.038   7.557
    3AU     AUC  789  12.755  29.089   7.876
    3AU     AUC  790  12.954  29.538   7.483
    3AU     AUC  791  13.294  29.536   7.477
    3AU     AUC  792  13.609  29.528   7.489
    3AU     AUC  793  12.928  28.516   7.593
    3AU     AUC  794  13.250  28.504   7.562
    3AU     AUC  795  13.565  28.499   7.556
    3AU     AUC  796  13.253  28.750   8.076
    3AU     AUC  797  13.262  29.074   8.066
    3AU     AUC  798  13.296  29.393   8.025
    3AU     AUC  799  13.253  28.675   7.040
    3AU     AUC  800  13.235  28.987   7.015
    3AU     AUC  801  13.237  29.297   6.996
    3AU     AUC  802  13.504  28.874   7.967
    3AU     AUC  803  13.537  29.197   7.945
    3AU     AUC  804  13.514  28.852   7.110
    3AU     AUC  805  13.501  29.167   7.095
    3AU     AUC  806  13.000  28.921   7.984
    3AU     AUC  807  13.014  29.247   7.954
    3AU     AUC  808  12.977  28.821   7.140
    3AU     AUC  809  12.973  29.140   7.103
    3AU     AUC  810  13.684  29.265   7.352
    3AU     AUC  811  13.687  29.281   7.675
    3AU     AUC  812  12.830  29.282   7.351
    3AU     AUC  813  12.846  29.329   7.680
    3AU     AUC  814  13.655  28.740   7.372
    3AU     AUC  815  13.663  28.752   7.705
    3AU     AUC  816  12.812  28.753   7.422
    3AU     AUC  817  12.831  28.789   7.748
    3AU     AUC  818  13.125  29.465   7.772
    3AU     AUC  819  13.465  29.459   7.757
    3AU     AUC  820  13.089  28.627   7.837
    3AU     AUC  821  13.406  28.612   7.818
    3AU     AUC  822  13.087  29.426   7.240
    3AU     AUC  823  13.426  29.427   7.240
    3AU     AUC  824  13.080  28.581   7.309
    3AU     AUC  825  13.417  28.588   7.288
    3AU    AUSL  826  13.677  28.981   8.162
    3AU    AUSL  827  13.556  28.635   8.152
    3AU     AUL  828  13.949  28.803   8.280
    3AU    AUSL  829  13.360  28.901   8.296
    3AU    AUSL  830  13.149  29.263   8.282
    3AU     AUL  831  13.416  29.178   8.571
    3AU    AUSL  832  13.485  29.275   8.236
    3AU    AUSL  833  13.843  29.255   8.013
    3AU     AUL  834  13.816  29.190   8.410
    3AU    AUSL  835  13.677  29.071   6.897
    3AU    AUSL  836  13.555  29.415   6.917
    3AU     AUL  837  13.927  29.256   6.751
    3AU    AUSL  838  13.461  28.826   6.811
    3AU    AUSL  839  13.825  28.772   7.035
    3AU     AUL  840  13.815  28.852   6.655
    3AU    AUSL  841  13.332  29.136   6.782
    3AU    AUSL  842  13.118  28.802   6.824
    3AU     AUL  843  13.343  28.679   6.587
    3AU    AUSL  844  12.826  29.198   8.171
    3AU    AUSL  845  13.017  29.536   8.053
    3AU     AUL  846  12.973  29.548   8.389
    3AU    AUSL  847  13.011  28.928   8.268
    3AU    AUSL  848  12.745  28.810   8.054
    3AU     AUL  849  12.554  29.009   8.209
    3AU    AUSL  850  12.799  28.861   6.917
    3AU    AUSL  851  12.943  28.538   7.032
    3AU     AUL  852  12.994  28.520   6.690
    3AU    AUSL  853  12.981  29.129   6.821
    3AU    AUSL  854  12.702  29.258   7.045
    3AU     AUL  855  12.541  29.023   6.879
    3AU    AUSL  856  13.925  29.437   7.436
    3AU    AUSL  857  13.828  29.296   7.113
    3AU     AUL  858  14.158  29.227   7.066
    3AU    AUSL  859  14.020  29.111   7.362
    3AU    AUSL  860  14.000  28.858   7.681
    3AU     AUL  861  14.330  28.944   7.524
    3AU    AUSL  862  13.902  29.191   7.676
    3AU    AUSL  863  13.809  29.544   7.753
    3AU     AUL  864  14.123  29.246   7.785
    3AU    AUSL  865  12.669  29.522   7.504
    3AU    AUSL  866  12.697  29.410   7.934
    3AU     AUL  867  12.385  29.574   7.707
    3AU    AUSL  868  12.539  29.185   7.334
    3AU    AUSL  869  12.798  29.574   7.186
    3AU     AUL  870  12.426  29.489   7.215
    3AU    AUSL  871  12.532  29.222   7.708
    3AU    AUSL  872  12.479  28.875   7.441
    3AU     AUL  873  12.256  29.257   7.501
    3AU    AUSL  874  13.860  28.549   7.609
    3AU    AUSL  875  13.816  28.727   7.945
    3AU     AUL  876  14.163  28.767   7.918
    3AU    AUSL  877  13.873  28.797   7.370
    3AU    AUSL  878  13.754  28.474   7.263
    3AU     AUL  879  14.110  28.702   7.286
    3AU    AUSL  880  12.628  28.594   7.620
    3AU    AUSL  881  12.641  28.708   7.176
    3AU     AUL  882  12.411  28.497   7.388
    3AU    AUSL  883  12.529  28.892   7.795
    3AU    AUSL  884  12.805  28.494   7.909
    3AU     AUL  885  12.479  28.556   7.946
    3AU    AUSL  886  13.318  29.698   7.929
    3AU    AUSL  887  12.866  29.680   7.762
    3AU     AUL  888  13.082  29.900   8.050
    3AU    AUSL  889  13.173  29.636   7.615
    3AU    AUSL  890  13.410  29.776   7.328
    3AU     AUL  891  13.162  29.947   7.635
    3AU    AUSL  892  13.533  29.752   7.643
    3AU    AUSL  893  13.596  29.509   8.025
    3AU     AUL  894  13.645  29.839   7.964
    3AU    AUSL  895  13.283  28.435   7.993
    3AU    AUSL  896  13.622  28.437   7.866
    3AU     AUL  897  13.400  28.356   8.271
    3AU    AUSL  898  13.047  28.314   7.760
    3AU    AUSL  899  13.030  28.604   8.161
    3AU     AUL  900  13.002  28.226   8.096
    3AU    AUSL  901  13.371  28.268   7.687
    3AU    AUSL  902  13.113  28.290   7.415
    3AU     AUL  903  12.931  28.072   7.594
    3AU    AUSL  904  13.268  29.583   7.076
    3AU    AUSL  905  13.677  29.592   7.221
    3AU     AUL  906  13.463  29.755   6.915
    3AU    AUSL  907  13.058  29.758   7.312
    3AU    AUSL  908  12.987  29.445   6.923
    3AU     AUL  909  13.048  29.773   6.928
    3AU    AUSL  910  13.246  28.378   7.102
    3AU    AUSL  911  12.788  28.422   7.338
    3AU     AUL  912  12.955  28.164   7.115
    3AU    AUSL  913  13.475  28.303   7.366
    3AU    AUSL  914  13.539  28.559   6.998
    3AU     AUL  915  13.535  28.251   6.990
    3AU       S  916  13.892  28.276   8.325
    3AU     LIG  917  13.952  27.800   8.380
    3AU     LIG  918  14.036  27.328   8.460
    3AU     LIG  919  14.428  27.150   8.689
    3AU       S  920  13.658  28.714   8.689
    3AU     LIG  921  13.849  28.897   9.085
    3AU     LIG  922  14.080  29.008   9.484
    3AU     LIG  923  14.330  28.995   9.894
    3AU       S  924  13.319  28.684   8.689
    3AU     LIG  925  13.371  28.676   9.153
    3AU     LIG  926  13.697  28.607   9.503
    3AU     LIG  927  14.130  28.517   9.671
    3AU       S  928  12.943  29.178   8.757
    3AU     LIG  929  12.752  29.104   9.172
    3AU     LIG  930  12.382  29.054   9.435
    3AU     LIG  931  12.135  29.082   9.848
    3AU       S  932  13.518  29.683   8.512
    3AU     LIG  933  13.650  29.932   8.848
    3AU     LIG  934  13.947  29.727   9.072
    3AU     LIG  935  14.294  29.438   9.048
    3AU       S  936  14.169  29.533   8.200
    3AU     LIG  937  14.428  29.589   8.548
    3AU     LIG  938  14.562  29.861   8.857
    3AU     LIG  939  14.725  30.218   9.111
    3AU       S  940  13.611  29.283   6.361
    3AU     LIG  941  13.742  29.235   5.903
    3AU     LIG  942  13.988  28.877   5.729
    3AU     LIG  943  14.044  28.485   5.483
    3AU       S  944  13.934  29.773   6.763
    3AU     LIG  945  13.978  30.088   6.445
    3AU     LIG  946  14.208  30.224   6.070
    3AU     LIG  947  14.581  30.437   5.896
    3AU       S  948  14.147  28.481   6.827
    3AU     LIG  949  14.384  28.298   6.477
    3AU     LIG  950  14.415  27.922   6.237
    3AU     LIG  951  14.366  27.501   6.352
    3AU       S  952  13.478  29.050   6.291
    3AU     LIG  953  13.524  28.775   5.948
    3AU     LIG  954  13.509  28.611   5.536
    3AU     LIG  955  13.682  28.565   5.113
    3AU       S  956  12.962  28.922   6.336
    3AU     LIG  957  13.016  28.792   5.892
    3AU     LIG  958  13.005  28.734   5.429
    3AU     LIG  959  12.681  28.690   5.111
    3AU       S  960  13.331  29.287   6.411
    3AU     LIG  961  13.160  29.275   5.978
    3AU     LIG  962  13.322  29.108   5.589
    3AU     LIG  963  13.710  29.043   5.334
    3AU       S  964  12.684  29.203   8.651
    3AU     LIG  965  12.388  28.921   8.833
    3AU     LIG  966  12.245  28.634   9.130
    3AU     LIG  967  12.111  28.641   9.579
    3AU       S  968  12.590  29.862   8.202
    3AU     LIG  969  12.352  30.215   8.407
    3AU     LIG  970  11.979  30.235   8.680
    3AU     LIG  971  11.672  30.079   8.999
    3AU       S  972  12.570  28.577   8.476
    3AU     LIG  973  12.110  28.425   8.501
    3AU     LIG  974  11.792  28.074   8.418
    3AU     LIG  975  11.661  27.674   8.619
    3AU       S  976  12.879  28.933   8.658
    3AU     LIG  977  12.789  28.633   8.995
    3AU     LIG  978  12.659  28.593   9.424
    3AU     LIG  979  12.597  28.775   9.826
    3AU       S  980  12.691  28.861   6.428
    3AU     LIG  981  12.578  28.593   6.080
    3AU     LIG  982  12.524  28.668   5.626
    3AU     LIG  983  12.335  28.987   5.337
    3AU       S  984  12.557  28.299   6.798
    3AU     LIG  985  12.478  27.920   6.544
    3AU     LIG  986  12.268  27.910   6.156
    3AU     LIG  987  11.909  27.942   5.850
    3AU       S  988  12.455  29.467   6.670
    3AU     LIG  989  12.102  29.788   6.709
    3AU     LIG  990  11.876  30.138   6.523
    3AU     LIG  991  11.886  30.440   6.175
    3AU       S  992  12.846  29.173   6.441
    3AU     LIG  993  12.642  29.208   6.043
    3AU     LIG  994  12.759  29.148   5.619
    3AU     LIG  995  12.830  29.191   5.173
    3AU       S  996  14.118  29.725   6.962
    3AU     LIG  997  14.423  29.897   6.639
    3AU     LIG  998  14.661  30.052   6.261
    3AU     LIG  999  15.062  30.184   6.045
    3AU       S 1000  14.236  29.702   7.449
    3AU     LIG 1001  14.515  30.039   7.661
    3AU     LIG 1002  14.964  30.064   7.742
    3AU     LIG 1003  15.373  29.975   7.587
    3AU       S 1004  14.465  29.456   7.386
    3AU     LIG 1005  14.927  29.636   7.427
    3AU     LIG 1006  15.405  29.507   7.346
    3AU     LIG 1007  15.832  29.430   7.106
    3AU       S 1008  14.341  28.373   7.665
    3AU     LIG 1009  14.699  28.121   7.740
    3AU     LIG 1010  15.084  28.217   7.908
    3AU     LIG 1011  15.401  28.404   7.716
    3AU       S 1012  14.153  29.753   7.974
    3AU     LIG 1013  14.451  30.010   8.234
    3AU     LIG 1014  14.537  30.312   8.601
    3AU     LIG 1015  14.537  30.656   8.921
    3AU       S 1016  14.422  29.564   7.593
    3AU     LIG 1017  14.686  29.642   7.955
    3AU     LIG 1018  15.141  29.691   8.050
    3AU     LIG 1019  15.536  29.554   7.857
    3AU       S 1020  12.452  29.597   8.228
    3AU     LIG 1021  12.110  29.759   8.458
    3AU     LIG 1022  11.685  29.811   8.552
    3AU     LIG 1023  11.276  29.800   8.756
    3AU       S 1024  12.553  29.994   7.414
    3AU     LIG 1025  12.326  30.390   7.358
    3AU     LIG 1026  11.951  30.438   7.100
    3AU     LIG 1027  11.675  30.091   7.013
    3AU       S 1028  12.071  29.024   7.094
    3AU     LIG 1029  11.611  29.154   7.010
    3AU     LIG 1030  11.287  29.477   7.176
    3AU     LIG 1031  11.342  29.893   7.405
    3AU       S 1032  12.560  29.889   6.909
    3AU     LIG 1033  12.394  30.232   6.640
    3AU     LIG 1034  12.098  30.588   6.626
    3AU     LIG 1035  11.622  30.600   6.625
    3AU       S 1036  12.027  28.803   7.566
    3AU     LIG 1037  11.705  28.707   7.296
    3AU     LIG 1038  11.303  28.758   7.155
    3AU     LIG 1039  10.926  28.570   7.275
    3AU       S 1040  12.122  29.264   8.027
    3AU     LIG 1041  11.714  29.294   8.283
    3AU     LIG 1042  11.347  29.552   8.274
    3AU     LIG 1043  11.335  29.812   7.927
    3AU       S 1044  14.075  28.179   7.595
    3AU     LIG 1045  14.349  27.756   7.591
    3AU     LIG 1046  14.707  27.633   7.889
    3AU     LIG 1047  15.145  27.740   7.781
    3AU       S 1048  14.072  28.300   8.104
    3AU     LIG 1049  14.342  27.960   8.063
    3AU     LIG 1050  14.430  27.606   8.318
    3AU     LIG 1051  14.308  27.647   8.765
    3AU       S 1052  14.258  28.262   7.443
    3AU     LIG 1053  14.599  28.054   7.249
    3AU     LIG 1054  15.055  28.060   7.353
    3AU     LIG 1055  15.418  28.320   7.194
    3AU       S 1056  14.051  28.241   7.005
    3AU     LIG 1057  14.322  27.910   6.837
    3AU     LIG 1058  14.147  27.505   6.804
    3AU     LIG 1059  14.112  27.097   6.578
    3AU       S 1060  12.378  28.491   6.870
    3AU     LIG 1061  12.210  28.364   6.441
    3AU     LIG 1062  11.833  28.127   6.332
    3AU     LIG 1063  11.542  27.777   6.231
    3AU       S 1064  12.038  28.595   7.711
    3AU     LIG 1065  11.662  28.360   7.679
    3AU     LIG 1066  11.366  28.276   7.328
    3AU     LIG 1067  11.153  27.954   7.034
    3AU       S 1068  12.594  28.321   8.374
    3AU     LIG 1069  12.280  27.996   8.248
    3AU     LIG 1070  11.981  27.626   8.214
    3AU     LIG 1071  11.669  27.276   8.299
    3AU       S 1072  12.072  28.835   7.805
    3AU     LIG 1073  11.659  28.891   7.932
    3AU     LIG 1074  11.343  28.747   7.678
    3AU     LIG 1075  11.108  28.408   7.785
    3AU       S 1076  12.611  30.014   7.904
    3AU     LIG 1077  12.242  30.233   7.900
    3AU     LIG 1078  11.887  30.141   8.164
    3AU     LIG 1079  11.533  30.267   8.369
    3AU       S 1080  13.431  30.286   7.901
    3AU     LIG 1081  13.433  30.625   8.182
    3AU     LIG 1082  13.070  30.750   8.438
    3AU     LIG 1083  12.667  30.994   8.446
    3AU       S 1084  13.349  30.467   7.638
    3AU     LIG 1085  13.015  30.697   7.885
    3AU     LIG 1086  12.778  31.083   7.957
    3AU     LIG 1087  12.880  31.494   8.179
    3AU       S 1088  13.414  30.169   7.221
    3AU     LIG 1089  13.689  30.472   7.121
    3AU     LIG 1090  13.433  30.819   7.104
    3AU     LIG 1091  13.346  31.188   6.869
    3AU       S 1092  13.985  29.700   8.300
    3AU     LIG 1093  14.099  30.008   8.606
    3AU     LIG 1094  14.195  30.180   9.005
    3AU     LIG 1095  14.345  29.890   9.329
    3AU       S 1096  13.650  30.232   7.632
    3AU     LIG 1097  13.757  30.716   7.570
    3AU     LIG 1098  13.472  30.979   7.802
    3AU     LIG 1099  13.249  31.123   8.149
    3AU       S 1100  13.433  27.893   8.070
    3AU     LIG 1101  13.626  27.472   8.170
    3AU     LIG 1102  13.549  27.016   8.190
    3AU     LIG 1103  13.359  26.595   8.286
    3AU       S 1104  13.853  28.159   8.030
    3AU     LIG 1105  13.934  27.742   7.862
    3AU     LIG 1106  14.096  27.322   7.933
    3AU     LIG 1107  14.416  27.079   8.176
    3AU       S 1108  13.223  27.796   7.898
    3AU     LIG 1109  13.169  27.342   7.997
    3AU     LIG 1110  13.047  26.894   7.943
    3AU     LIG 1111  12.946  26.436   7.953
    3AU       S 1112  12.833  28.454   8.535
    3AU     LIG 1113  12.465  28.234   8.838
    3AU     LIG 1114  12.156  27.858   8.732
    3AU     LIG 1115  12.074  27.376   8.660
    3AU       S 1116  13.299  27.794   7.363
    3AU     LIG 1117  13.460  27.332   7.204
    3AU     LIG 1118  13.307  26.922   7.096
    3AU     LIG 1119  13.348  26.452   7.046
    3AU       S 1120  13.470  27.909   7.814
    3AU     LIG 1121  13.554  27.473   7.671
    3AU     LIG 1122  13.690  27.052   7.692
    3AU     LIG 1123  13.478  26.647   7.793
    3AU       S 1124  13.259  30.214   7.024
    3AU     LIG 1125  13.146  30.570   6.764
    3AU     LIG 1126  13.175  30.928   6.467
    3AU     LIG 1127  13.252  31.267   6.156
    3AU       S 1128  13.926  29.909   7.108
    3AU     LIG 1129  14.146  30.256   6.906
    3AU     LIG 1130  14.391  30.413   6.532
    3AU     LIG 1131  14.792  30.564   6.347
    3AU       S 1132  13.033  30.205   7.219
    3AU     LIG 1133  12.786  30.549   7.136
    3AU     LIG 1134  12.872  30.965   6.984
    3AU     LIG 1135  12.833  31.262   6.671
    3AU       S 1136  12.673  29.625   6.628
    3AU     LIG 1137  12.424  29.808   6.292
    3AU     LIG 1138  12.351  30.207   6.113
    3AU     LIG 1139  12.403  30.651   6.205
    3AU       S 1140  12.452  28.183   7.004
    3AU     LIG 1141  12.055  28.031   6.817
    3AU     LIG 1142  11.950  27.675   6.545
    3AU     LIG 1143  11.960  27.496   6.115
    3AU       S 1144  13.352  27.820   7.128
    3AU     LIG 1145  13.628  27.609   6.828
    3AU     LIG 1146  13.513  27.178   6.682
    3AU     LIG 1147  13.273  26.748   6.615
    3AU       S 1148  13.612  27.885   7.347
    3AU     LIG 1149  13.926  27.536   7.300
    3AU     LIG 1150  13.898  27.130   7.052
    3AU     LIG 1151  13.771  26.743   6.827
    3AU       S 1152  13.935  28.338   6.715
    3AU     LIG 1153  13.952  27.955   6.493
    3AU     LIG 1154  13.856  27.537   6.367
    3AU     LIG 1155  14.031  27.263   6.049
    4AU     AUC 1156  25.609  40.604   7.528
    4AU     AUC 1157  25.860  40.591   7.363
    4AU     AUC 1158  25.865  40.605   7.685
    4AU     AUC 1159  25.346  40.594   7.377
    4AU     AUC 1160  25.355  40.629   7.695
    4AU     AUC 1161  25.462  40.861   7.507
    4AU     AUC 1162  25.779  40.856   7.505
    4AU     AUC 1163  25.445  40.349   7.554
    4AU     AUC 1164  25.761  40.342   7.540
    4AU     AUC 1165  25.607  40.466   7.798
    4AU     AUC 1166  25.624  40.785   7.774
    4AU     AUC 1167  25.601  40.425   7.281
    4AU     AUC 1168  25.606  40.741   7.257
    4AU     AUC 1169  26.114  40.594   7.198
    4AU     AUC 1170  26.117  40.589   7.521
    4AU     AUC 1171  26.120  40.591   7.844
    4AU     AUC 1172  25.090  40.577   7.225
    4AU     AUC 1173  25.089  40.626   7.548
    4AU     AUC 1174  25.109  40.667   7.864
    4AU     AUC 1175  25.314  41.120   7.474
    4AU     AUC 1176  25.650  41.116   7.469
    4AU     AUC 1177  25.963  41.110   7.480
    4AU     AUC 1178  25.279  40.097   7.580
    4AU     AUC 1179  25.608  40.084   7.556
    4AU     AUC 1180  25.924  40.080   7.552
    4AU     AUC 1181  25.606  40.326   8.068
    4AU     AUC 1182  25.616  40.652   8.059
    4AU     AUC 1183  25.649  40.971   8.018
    4AU     AUC 1184  25.611  40.248   7.034
    4AU     AUC 1185  25.593  40.560   7.007
    4AU     AUC 1186  25.595  40.872   6.986
    4AU     AUC 1187  25.859  40.454   7.961
    4AU     AUC 1188  25.891  40.776   7.939
    4AU     AUC 1189  25.871  40.428   7.103
    4AU     AUC 1190  25.857  40.743   7.085
    4AU     AUC 1191  25.353  40.499   7.973
    4AU     AUC 1192  25.368  40.826   7.945
    4AU     AUC 1193  25.338  40.397   7.132
    4AU     AUC 1194  25.331  40.718   7.096
    4AU     AUC 1195  26.039  40.847   7.345
    4AU     AUC 1196  26.041  40.864   7.669
    4AU     AUC 1197  25.189  40.866   7.341
    4AU     AUC 1198  25.202  40.909   7.671
    4AU     AUC 1199  26.013  40.322   7.369
    4AU     AUC 1200  26.021  40.335   7.699
    4AU     AUC 1201  25.176  40.334   7.415
    4AU     AUC 1202  25.179  40.367   7.730
    4AU     AUC 1203  25.479  41.046   7.763
    4AU     AUC 1204  25.818  41.040   7.750
    4AU     AUC 1205  25.443  40.207   7.827
    4AU     AUC 1206  25.762  40.191   7.813
    4AU     AUC 1207  25.446  41.006   7.231
    4AU     AUC 1208  25.783  41.006   7.231
    4AU     AUC 1209  25.440  40.157   7.303
    4AU     AUC 1210  25.776  40.166   7.284
    4AU    AUSL 1211  26.033  40.560   8.156
    4AU    AUSL 1212  25.911  40.214   8.144
    4AU     AUL 1213  26.296  40.370   8.283
    4AU    AUSL 1214  25.715  40.478   8.288
    4AU    AUSL 1215  25.504  40.842   8.276
    4AU     AUL 1216  25.780  40.754   8.562
    4AU    AUSL 1217  25.839  40.852   8.228
    4AU    AUSL 1218  26.199  40.837   8.009
    4AU     AUL 1219  26.173  40.768   8.404
    4AU    AUSL 1220  26.031  40.642   6.887
    4AU    AUSL 1221  25.911  40.989   6.904
    4AU     AUL 1222  26.290  40.820   6.751
    4AU    AUSL 1223  25.815  40.394   6.800
    4AU    AUSL 1224  26.182  40.349   7.034
    4AU     AUL 1225  26.176  40.401   6.657
    4AU    AUSL 1226  25.686  40.706   6.771
    4AU    AUSL 1227  25.468  40.371   6.818
    4AU     AUL 1228  25.674  40.260   6.567
    4AU    AUSL 1229  25.184  40.777   8.160
    4AU    AUSL 1230  25.367  41.115   8.046
    4AU     AUL 1231  25.318  41.125   8.381
    4AU    AUSL 1232  25.367  40.505   8.257
    4AU    AUSL 1233  25.098  40.392   8.044
    4AU     AUL 1234  24.914  40.598   8.199
    4AU    AUSL 1235  25.149  40.438   6.911
    4AU    AUSL 1236  25.304  40.106   7.027
    4AU     AUL 1237  25.300  40.101   6.678
    4AU    AUSL 1238  25.335  40.701   6.822
    4AU    AUSL 1239  25.059  40.840   7.033
    4AU     AUL 1240  24.885  40.578   6.903
    4AU    AUSL 1241  26.275  41.025   7.428
    4AU    AUSL 1242  26.182  40.874   7.103
    4AU     AUL 1243  26.518  40.815   7.065
    4AU    AUSL 1244  26.373  40.701   7.357
    4AU    AUSL 1245  26.361  40.449   7.678
    4AU     AUL 1246  26.688  40.550   7.518
    4AU    AUSL 1247  26.258  40.781   7.671
    4AU    AUSL 1248  26.162  41.129   7.749
    4AU     AUL 1249  26.482  40.843   7.779
    4AU    AUSL 1250  25.034  41.108   7.497
    4AU    AUSL 1251  25.047  40.983   7.919
    4AU     AUL 1252  24.731  41.138   7.682
    4AU    AUSL 1253  24.891  40.794   7.320
    4AU    AUSL 1254  25.162  41.155   7.174
    4AU     AUL 1255  24.798  41.100   7.222
    4AU    AUSL 1256  24.881  40.795   7.692
    4AU    AUSL 1257  24.864  40.483   7.440
    4AU     AUL 1258  24.586  40.779   7.480
    4AU    AUSL 1259  26.226  40.139   7.605
    4AU    AUSL 1260  26.171  40.310   7.938
    4AU     AUL 1261  26.507  40.371   7.933
    4AU    AUSL 1262  26.230  40.387   7.369
    4AU    AUSL 1263  26.113  40.057   7.265
    4AU     AUL 1264  26.462  40.307   7.275
    4AU    AUSL 1265  24.949  40.172   7.563
    4AU    AUSL 1266  25.023  40.282   7.182
    4AU     AUL 1267  24.693  40.363   7.218
    4AU    AUSL 1268  24.884  40.464   7.785
    4AU    AUSL 1269  25.149  40.082   7.877
    4AU     AUL 1270  24.843  40.137   7.928
    4AU    AUSL 1271  25.667  41.277   7.923
    4AU    AUSL 1272  25.219  41.259   7.756
    4AU     AUL 1273  25.424  41.488   8.030
    4AU    AUSL 1274  25.527  41.223   7.607
    4AU    AUSL 1275  25.769  41.357   7.320
    4AU     AUL 1276  25.520  41.538   7.620
    4AU    AUSL 1277  25.887  41.331   7.637
    4AU    AUSL 1278  25.948  41.087   8.018
    4AU     AUL 1279  25.985  41.412   7.968
    4AU    AUSL 1280  25.637  40.010   7.994
    4AU    AUSL 1281  25.981  40.018   7.858
    4AU     AUL 1282  25.770  39.939   8.271
    4AU    AUSL 1283  25.406  39.901   7.754
    4AU    AUSL 1284  25.373  40.180   8.144
    4AU     AUL 1285  25.331  39.809   8.078
    4AU    AUSL 1286  25.729  39.849   7.684
    4AU    AUSL 1287  25.474  39.863   7.412
    4AU     AUL 1288  25.289  39.652   7.601
    4AU    AUSL 1289  25.627  41.159   7.069
    4AU    AUSL 1290  26.032  41.172   7.207
    4AU     AUL 1291  25.816  41.335   6.907
    4AU    AUSL 1292  25.419  41.340   7.300
    4AU    AUSL 1293  25.349  41.021   6.911
    4AU     AUL 1294  25.410  41.349   6.913
    4AU    AUSL 1295  25.607  39.953   7.101
    4AU    AUSL 1296  25.153  39.991   7.341
    4AU     AUL 1297  25.322  39.732   7.111
    4AU    AUSL 1298  25.836  39.881   7.363
    4AU    AUSL 1299  25.901  40.136   6.998
    4AU     AUL 1300  25.887  39.831   6.977
    4AU       S 1301  26.261  39.835   8.290
    4AU     LIG 1302  26.330  39.354   8.293
    4AU     LIG 1303  26.308  38.922   8.460
    4AU     LIG 1304  26.192  38.755   8.878
    4AU       S 1305  26.004  40.295   8.691
    4AU     LIG 1306  26.166  40.501   9.090
    4AU     LIG 1307  26.376  40.593   9.508
    4AU     LIG 1308  26.597  40.574   9.926
    4AU       S 1309  25.668  40.265   8.680
    4AU     LIG 1310  25.658  40.358   9.133
    4AU     LIG 1311  25.947  40.288   9.519
    4AU     LIG 1312  26.302  40.148   9.810
    4AU       S 1313  25.312  40.753   8.746
    4AU     LIG 1314  25.198  40.679   9.162
    4AU     LIG 1315  24.788  40.582   9.319
    4AU     LIG 1316  24.496  40.683   9.671
    4AU       S 1317  25.875  41.257   8.512
    4AU     LIG 1318  26.081  41.532   8.803
    4AU     LIG 1319  26.350  41.442   9.145
    4AU     LIG 1320  26.764  41.254   9.160
    4AU       S 1321  26.527  41.115   8.210
    4AU     LIG 1322  26.721  41.264   8.618
    4AU     LIG 1323  26.933  41.610   8.808
    4AU     LIG 1324  27.204  41.842   9.123
    4AU       S 1325  25.975  40.857   6.363
    4AU     LIG 1326  26.155  40.922   5.942
    4AU     LIG 1327  26.376  40.683   5.617
    4AU     LIG 1328  26.401  40.246   5.459
    4AU       S 1329  26.279  41.340   6.734
    4AU     LIG 1330  26.327  41.748   6.525
    4AU     LIG 1331  26.577  41.794   6.146
    4AU     LIG 1332  26.904  42.051   5.980
    4AU       S 1333  26.519  40.031   6.857
    4AU     LIG 1334  26.810  39.772   6.606
    4AU     LIG 1335  26.780  39.382   6.361
    4AU     LIG 1336  26.840  38.923   6.452
    4AU       S 1337  25.868  40.619   6.285
    4AU     LIG 1338  26.020  40.416   5.914
    4AU     LIG 1339  25.894  40.201   5.535
    4AU     LIG 1340  25.936  40.093   5.097
    4AU       S 1341  25.288  40.508   6.337
    4AU     LIG 1342  25.258  40.558   5.902
    4AU     LIG 1343  25.434  40.423   5.508
    4AU     LIG 1344  25.309  40.390   5.076
    4AU       S 1345  25.685  40.843   6.395
    4AU     LIG 1346  25.633  40.895   5.932
    4AU     LIG 1347  25.850  40.737   5.556
    4AU     LIG 1348  26.082  40.580   5.210
    4AU       S 1349  25.049  40.767   8.651
    4AU     LIG 1350  24.702  40.530   8.788
    4AU     LIG 1351  24.511  40.230   9.054
    4AU     LIG 1352  24.418  40.190   9.495
    4AU       S 1353  24.933  41.424   8.190
    4AU     LIG 1354  24.783  41.787   8.407
    4AU     LIG 1355  24.538  41.775   8.772
    4AU     LIG 1356  24.259  41.853   9.132
    4AU       S 1357  24.904  40.167   8.461
    4AU     LIG 1358  24.413  40.173   8.541
    4AU     LIG 1359  24.006  39.904   8.487
    4AU     LIG 1360  23.700  39.552   8.563
    4AU       S 1361  25.232  40.509   8.648
    4AU     LIG 1362  25.078  40.232   8.973
    4AU     LIG 1363  24.914  40.081   9.361
    4AU     LIG 1364  24.855  40.314   9.754
    4AU       S 1365  25.014  40.469   6.429
    4AU     LIG 1366  24.905  40.190   6.083
    4AU     LIG 1367  24.957  40.252   5.627
    4AU     LIG 1368  24.968  40.631   5.396
    4AU       S 1369  24.901  39.820   6.847
    4AU     LIG 1370  24.775  39.567   6.484
    4AU     LIG 1371  24.560  39.571   6.087
    4AU     LIG 1372  24.137  39.432   5.963
    4AU       S 1373  24.817  41.025   6.675
    4AU     LIG 1374  24.453  41.323   6.751
    4AU     LIG 1375  24.206  41.566   6.467
    4AU     LIG 1376  24.105  41.595   6.007
    4AU       S 1377  25.195  40.746   6.449
    4AU     LIG 1378  24.930  40.907   6.150
    4AU     LIG 1379  25.068  41.016   5.746
    4AU     LIG 1380  25.396  40.935   5.459
    4AU       S 1381  26.468  41.306   6.941
    4AU     LIG 1382  26.763  41.484   6.602
    4AU     LIG 1383  27.071  41.665   6.281
    4AU     LIG 1384  27.390  41.897   5.998
    4AU       S 1385  26.571  41.316   7.441
    4AU     LIG 1386  26.857  41.654   7.673
    4AU     LIG 1387  27.328  41.658   7.626
    4AU     LIG 1388  27.592  41.622   7.238
    4AU       S 1389  26.806  41.064   7.385
    4AU     LIG 1390  27.254  41.201   7.375
    4AU     LIG 1391  27.693  41.125   7.250
    4AU     LIG 1392  28.069  41.375   7.136
    4AU       S 1393  26.728  40.009   7.670
    4AU     LIG 1394  27.071  39.899   7.944
    4AU     LIG 1395  27.450  39.674   7.868
    4AU     LIG 1396  27.647  39.786   7.480
    4AU       S 1397  26.495  41.345   7.978
    4AU     LIG 1398  26.853  41.549   8.184
    4AU     LIG 1399  27.003  41.926   8.392
    4AU     LIG 1400  26.916  42.119   8.797
    4AU       S 1401  26.752  41.186   7.581
    4AU     LIG 1402  27.098  41.222   7.861
    4AU     LIG 1403  27.570  41.208   7.836
    4AU     LIG 1404  27.994  41.213   8.076
    4AU       S 1405  24.781  41.161   8.209
    4AU     LIG 1406  24.422  41.408   8.382
    4AU     LIG 1407  24.074  41.576   8.663
    4AU     LIG 1408  23.783  41.840   8.917
    4AU       S 1409  24.928  41.587   7.410
    4AU     LIG 1410  24.640  41.829   7.164
    4AU     LIG 1411  24.203  41.728   7.065
    4AU     LIG 1412  23.987  41.301   7.002
    4AU       S 1413  24.434  40.819   6.991
    4AU     LIG 1414  24.080  40.574   7.198
    4AU     LIG 1415  23.707  40.784   7.116
    4AU     LIG 1416  23.471  41.175   7.117
    4AU       S 1417  24.924  41.469   6.887
    4AU     LIG 1418  24.689  41.786   6.663
    4AU     LIG 1419  24.314  42.033   6.640
    4AU     LIG 1420  24.070  42.037   6.257
    4AU       S 1421  24.381  40.298   7.605
    4AU     LIG 1422  23.950  40.171   7.572
    4AU     LIG 1423  23.627  40.247   7.271
    4AU     LIG 1424  23.271  40.245   6.983
    4AU       S 1425  24.475  40.795   7.991
    4AU     LIG 1426  24.206  40.724   8.352
    4AU     LIG 1427  23.978  41.114   8.411
    4AU     LIG 1428  23.958  41.523   8.151
    4AU       S 1429  26.470  39.814   7.581
    4AU     LIG 1430  26.669  39.413   7.432
    4AU     LIG 1431  26.858  39.129   7.703
    4AU     LIG 1432  27.266  39.114   7.917
    4AU       S 1433  26.443  39.885   8.082
    4AU     LIG 1434  26.717  39.551   7.970
    4AU     LIG 1435  26.844  39.233   8.235
    4AU     LIG 1436  26.790  38.991   8.649
    4AU       S 1437  26.678  39.913   7.456
    4AU     LIG 1438  26.943  39.748   7.131
    4AU     LIG 1439  27.393  39.647   7.041
    4AU     LIG 1440  27.837  39.804   6.973
    4AU       S 1441  26.398  39.800   7.067
    4AU     LIG 1442  26.592  39.429   6.912
    4AU     LIG 1443  26.587  38.999   6.893
    4AU     LIG 1444  26.401  38.669   6.643
    4AU       S 1445  24.767  39.980   6.914
    4AU     LIG 1446  24.534  40.013   6.519
    4AU     LIG 1447  24.187  39.744   6.391
    4AU     LIG 1448  23.839  39.435   6.423
    4AU       S 1449  24.487  40.053   7.584
    4AU     LIG 1450  24.253  39.855   7.271
    4AU     LIG 1451  23.823  39.767   7.242
    4AU     LIG 1452  23.613  39.759   7.645
    4AU       S 1453  24.924  39.913   8.363
    4AU     LIG 1454  24.487  39.748   8.288
    4AU     LIG 1455  24.167  39.421   8.340
    4AU     LIG 1456  24.093  38.953   8.387
    4AU       S 1457  24.418  40.350   7.775
    4AU     LIG 1458  24.146  40.178   8.073
    4AU     LIG 1459  23.707  40.089   8.026
    4AU     LIG 1460  23.418  40.296   7.737
    4AU       S 1461  24.933  41.580   7.905
    4AU     LIG 1462  24.512  41.772   7.969
    4AU     LIG 1463  24.271  41.899   8.316
    4AU     LIG 1464  24.176  42.122   8.704
    4AU       S 1465  25.800  41.865   7.888
    4AU     LIG 1466  26.155  42.013   8.127
    4AU     LIG 1467  26.069  42.355   8.416
    4AU     LIG 1468  25.721  42.667   8.335
    4AU       S 1469  25.793  42.048   7.623
    4AU     LIG 1470  25.349  42.151   7.767
    4AU     LIG 1471  25.266  42.530   8.001
    4AU     LIG 1472  25.544  42.878   7.894
    4AU       S 1473  25.767  41.761   7.210
    4AU     LIG 1474  26.070  42.077   7.161
    4AU     LIG 1475  26.065  42.504   7.020
    4AU     LIG 1476  26.186  42.739   6.614
    4AU       S 1477  26.335  41.282   8.293
    4AU     LIG 1478  26.448  41.679   8.467
    4AU     LIG 1479  26.486  41.869   8.877
    4AU     LIG 1480  26.728  41.768   9.264
    4AU       S 1481  26.038  41.779   7.614
    4AU     LIG 1482  26.264  42.199   7.632
    4AU     LIG 1483  26.127  42.510   7.924
    4AU     LIG 1484  26.206  42.834   8.267
    4AU       S 1485  25.792  39.479   8.072
    4AU     LIG 1486  25.920  39.022   8.127
    4AU     LIG 1487  25.887  38.597   8.357
    4AU     LIG 1488  25.889  38.106   8.477
    4AU       S 1489  26.216  39.740   7.994
    4AU     LIG 1490  26.310  39.351   7.779
    4AU     LIG 1491  26.427  38.968   7.960
    4AU     LIG 1492  26.743  38.750   8.199
    4AU       S 1493  25.591  39.392   7.909
    4AU     LIG 1494  25.502  38.988   7.782
    4AU     LIG 1495  25.567  38.564   7.920
    4AU     LIG 1496  25.442  38.299   8.247
    4AU       S 1497  25.169  40.034   8.522
    4AU     LIG 1498  24.774  39.851   8.826
    4AU     LIG 1499  24.345  39.656   8.792
    4AU     LIG 1500  24.089  39.243   8.811
    4AU       S 1501  25.651  39.369   7.367
    4AU     LIG 1502  25.687  38.899   7.222
    4AU     LIG 1503  25.646  38.488   6.994
    4AU     LIG 1504  25.676  38.154   6.651
    4AU       S 1505  25.832  39.476   7.813
    4AU     LIG 1506  25.968  39.039   7.624
    4AU     LIG 1507  26.054  38.636   7.775
    4AU     LIG 1508  25.972  38.245   8.000
    4AU       S 1509  25.614  41.792   7.018
    4AU     LIG 1510  25.602  42.243   6.992
    4AU     LIG 1511  25.728  42.498   6.634
    4AU     LIG 1512  25.735  42.715   6.226
    4AU       S 1513  26.280  41.494   7.076
    4AU     LIG 1514  26.584  41.830   6.965
    4AU     LIG 1515  26.793  42.002   6.571
    4AU     LIG 1516  27.170  42.178   6.406
    4AU       S 1517  25.374  41.785   7.200
    4AU     LIG 1518  25.100  42.036   6.931
    4AU     LIG 1519  25.155  42.504   6.872
    4AU     LIG 1520  25.498  42.780   7.016
    4AU       S 1521  25.028  41.202   6.614
    4AU     LIG 1522  24.722  41.398   6.311
    4AU     LIG 1523  24.551  41.816   6.160
    4AU     LIG 1524  24.517  42.279   6.206
    4AU       S 1525  24.787  39.790   7.162
    4AU     LIG 1526  24.425  39.606   6.861
    4AU     LIG 1527  24.312  39.270   6.562
    4AU     LIG 1528  24.101  39.000   6.244
    4AU       S 1529  25.728  39.391   7.130
    4AU     LIG 1530  25.960  39.116   6.819
    4AU     LIG 1531  25.901  38.717   6.590
    4AU     LIG 1532  26.082  38.356   6.362
    4AU       S 1533  25.970  39.482   7.347
    4AU     LIG 1534  26.249  39.173   7.232
    4AU     LIG 1535  26.167  38.729   7.103
    4AU     LIG 1536  26.114  38.321   6.886
    4AU       S 1537  26.326  39.896   6.763
    4AU     LIG 1538  26.316  39.561   6.500
    4AU     LIG 1539  26.336  39.125   6.443
    4AU     LIG 1540  26.281  38.781   6.137
    5AU     AUC 1541  18.641   6.772   7.523
    5AU     AUC 1542  18.892   6.758   7.359
    5AU     AUC 1543  18.895   6.767   7.682
    5AU     AUC 1544  18.378   6.769   7.370
    5AU     AUC 1545  18.386   6.800   7.688
    5AU     AUC 1546  18.497   7.033   7.505
    5AU     AUC 1547  18.814   7.023   7.506
    5AU     AUC 1548  18.475   6.521   7.544
    5AU     AUC 1549  18.790   6.508   7.532
    5AU     AUC 1550  18.635   6.631   7.792
    5AU     AUC 1551  18.656   6.950   7.772
    5AU     AUC 1552  18.633   6.597   7.273
    5AU     AUC 1553  18.640   6.914   7.254
    5AU     AUC 1554  19.146   6.758   7.196
    5AU     AUC 1555  19.148   6.747   7.519
    5AU     AUC 1556  19.148   6.744   7.843
    5AU     AUC 1557  18.119   6.756   7.217
    5AU     AUC 1558  18.119   6.801   7.539
    5AU     AUC 1559  18.137   6.838   7.856
    5AU     AUC 1560  18.350   7.293   7.476
    5AU     AUC 1561  18.688   7.286   7.473
    5AU     AUC 1562  19.002   7.274   7.488
    5AU     AUC 1563  18.309   6.273   7.566
    5AU     AUC 1564  18.635   6.252   7.545
    5AU     AUC 1565  18.948   6.242   7.542
    5AU     AUC 1566  18.629   6.489   8.060
    5AU     AUC 1567  18.644   6.813   8.055
    5AU     AUC 1568  18.681   7.132   8.019
    5AU     AUC 1569  18.642   6.424   7.022
    5AU     AUC 1570  18.624   6.737   7.000
    5AU     AUC 1571  18.632   7.051   6.986
    5AU     AUC 1572  18.885   6.611   7.955
    5AU     AUC 1573  18.922   6.935   7.939
    5AU     AUC 1574  18.901   6.598   7.095
    5AU     AUC 1575  18.890   6.917   7.086
    5AU     AUC 1576  18.380   6.667   7.965
    5AU     AUC 1577  18.398   6.991   7.940
    5AU     AUC 1578  18.369   6.575   7.124
    5AU     AUC 1579  18.366   6.899   7.092
    5AU     AUC 1580  19.075   7.011   7.348
    5AU     AUC 1581  19.076   7.022   7.672
    5AU     AUC 1582  18.223   7.042   7.337
    5AU     AUC 1583  18.234   7.080   7.667
    5AU     AUC 1584  19.042   6.486   7.361
    5AU     AUC 1585  19.046   6.492   7.693
    5AU     AUC 1586  18.206   6.511   7.403
    5AU     AUC 1587  18.208   6.542   7.718
    5AU     AUC 1588  18.514   7.212   7.764
    5AU     AUC 1589  18.854   7.202   7.755
    5AU     AUC 1590  18.469   6.376   7.816
    5AU     AUC 1591  18.785   6.352   7.804
    5AU     AUC 1592  18.485   7.182   7.232
    5AU     AUC 1593  18.821   7.180   7.235
    5AU     AUC 1594  18.473   6.331   7.291
    5AU     AUC 1595  18.807   6.334   7.271
    5AU    AUSL 1596  19.059   6.710   8.152
    5AU    AUSL 1597  18.931   6.367   8.135
    5AU     AUL 1598  19.322   6.514   8.274
    5AU    AUSL 1599  18.738   6.633   8.282
    5AU    AUSL 1600  18.531   7.005   8.273
    5AU     AUL 1601  18.796   6.902   8.561
    5AU    AUSL 1602  18.868   7.006   8.229
    5AU    AUSL 1603  19.228   6.989   8.013
    5AU     AUL 1604  19.193   6.910   8.408
    5AU    AUSL 1605  19.058   6.818   6.890
    5AU    AUSL 1606  18.949   7.170   6.909
    5AU     AUL 1607  19.312   6.997   6.744
    5AU    AUSL 1608  18.842   6.573   6.790
    5AU    AUSL 1609  19.209   6.519   7.024
    5AU     AUL 1610  19.204   6.611   6.649
    5AU    AUSL 1611  18.720   6.885   6.770
    5AU    AUSL 1612  18.491   6.550   6.809
    5AU     AUL 1613  18.694   6.418   6.581
    5AU    AUSL 1614  18.211   6.945   8.153
    5AU    AUSL 1615  18.398   7.273   8.043
    5AU     AUL 1616  18.354   7.294   8.375
    5AU    AUSL 1617  18.391   6.672   8.252
    5AU    AUSL 1618  18.124   6.564   8.034
    5AU     AUL 1619  17.937   6.766   8.190
    5AU    AUSL 1620  18.175   6.633   6.909
    5AU    AUSL 1621  18.338   6.284   7.017
    5AU     AUL 1622  18.274   6.297   6.675
    5AU    AUSL 1623  18.371   6.886   6.814
    5AU    AUSL 1624  18.094   7.021   7.028
    5AU     AUL 1625  17.914   6.765   6.883
    5AU    AUSL 1626  19.317   7.178   7.435
    5AU    AUSL 1627  19.217   7.040   7.107
    5AU     AUL 1628  19.547   6.964   7.064
    5AU    AUSL 1629  19.408   6.853   7.360
    5AU    AUSL 1630  19.384   6.598   7.676
    5AU     AUL 1631  19.714   6.676   7.521
    5AU    AUSL 1632  19.294   6.933   7.676
    5AU    AUSL 1633  19.200   7.284   7.755
    5AU     AUL 1634  19.516   6.994   7.789
    5AU    AUSL 1635  18.067   7.283   7.495
    5AU    AUSL 1636  18.077   7.152   7.912
    5AU     AUL 1637  17.761   7.311   7.675
    5AU    AUSL 1638  17.921   6.974   7.314
    5AU    AUSL 1639  18.200   7.334   7.176
    5AU     AUL 1640  17.835   7.281   7.215
    5AU    AUSL 1641  17.910   6.968   7.684
    5AU    AUSL 1642  17.892   6.660   7.426
    5AU     AUL 1643  17.613   6.951   7.472
    5AU    AUSL 1644  19.246   6.290   7.594
    5AU    AUSL 1645  19.194   6.457   7.932
    5AU     AUL 1646  19.537   6.491   7.922
    5AU    AUSL 1647  19.262   6.541   7.360
    5AU    AUSL 1648  19.140   6.223   7.247
    5AU     AUL 1649  19.495   6.452   7.265
    5AU    AUSL 1650  17.980   6.351   7.545
    5AU    AUSL 1651  18.055   6.455   7.169
    5AU     AUL 1652  17.727   6.540   7.192
    5AU    AUSL 1653  17.914   6.637   7.772
    5AU    AUSL 1654  18.178   6.262   7.862
    5AU     AUL 1655  17.882   6.303   7.903
    5AU    AUSL 1656  18.704   7.440   7.935
    5AU    AUSL 1657  18.253   7.429   7.757
    5AU     AUL 1658  18.448   7.639   8.049
    5AU    AUSL 1659  18.565   7.390   7.615
    5AU    AUSL 1660  18.811   7.531   7.331
    5AU     AUL 1661  18.554   7.702   7.630
    5AU    AUSL 1662  18.923   7.495   7.648
    5AU    AUSL 1663  18.982   7.245   8.026
    5AU     AUL 1664  19.040   7.569   7.966
    5AU    AUSL 1665  18.652   6.174   7.979
    5AU    AUSL 1666  18.999   6.171   7.848
    5AU     AUL 1667  18.781   6.095   8.256
    5AU    AUSL 1668  18.420   6.067   7.736
    5AU    AUSL 1669  18.396   6.349   8.135
    5AU     AUL 1670  18.341   5.985   8.062
    5AU    AUSL 1671  18.743   6.011   7.673
    5AU    AUSL 1672  18.507   6.039   7.396
    5AU     AUL 1673  18.297   5.838   7.562
    5AU    AUSL 1674  18.669   7.341   7.071
    5AU    AUSL 1675  19.076   7.340   7.221
    5AU     AUL 1676  18.875   7.528   6.932
    5AU    AUSL 1677  18.460   7.513   7.306
    5AU    AUSL 1678  18.389   7.202   6.915
    5AU     AUL 1679  18.453   7.527   6.918
    5AU    AUSL 1680  18.646   6.126   7.086
    5AU    AUSL 1681  18.188   6.168   7.331
    5AU     AUL 1682  18.365   5.923   7.089
    5AU    AUSL 1683  18.868   6.043   7.360
    5AU    AUSL 1684  18.929   6.303   6.971
    5AU     AUL 1685  18.944   5.982   7.001
    5AU       S 1686  19.268   5.986   8.288
    5AU     LIG 1687  19.177   5.529   8.377
    5AU     LIG 1688  19.339   5.082   8.331
    5AU     LIG 1689  19.687   4.948   8.631
    5AU       S 1690  19.023   6.435   8.678
    5AU     LIG 1691  19.246   6.647   9.032
    5AU     LIG 1692  19.529   6.808   9.369
    5AU     LIG 1693  19.824   6.800   9.724
    5AU       S 1694  18.682   6.413   8.674
    5AU     LIG 1695  18.730   6.513   9.129
    5AU     LIG 1696  19.053   6.520   9.493
    5AU     LIG 1697  19.477   6.373   9.637
    5AU       S 1698  18.324   6.926   8.742
    5AU     LIG 1699  18.296   6.822   9.181
    5AU     LIG 1700  17.958   6.659   9.450
    5AU     LIG 1701  17.501   6.769   9.469
    5AU       S 1702  18.901   7.404   8.524
    5AU     LIG 1703  19.147   7.601   8.854
    5AU     LIG 1704  19.532   7.542   9.080
    5AU     LIG 1705  19.842   7.210   9.159
    5AU       S 1706  19.549   7.253   8.229
    5AU     LIG 1707  19.735   7.335   8.642
    5AU     LIG 1708  19.965   7.657   8.825
    5AU     LIG 1709  20.213   8.002   8.936
    5AU       S 1710  19.004   7.007   6.343
    5AU     LIG 1711  19.192   6.885   5.910
    5AU     LIG 1712  19.420   6.511   5.721
    5AU     LIG 1713  19.497   6.074   5.539
    5AU       S 1714  19.338   7.510   6.752
    5AU     LIG 1715  19.508   7.812   6.477
    5AU     LIG 1716  19.736   7.968   6.110
    5AU     LIG 1717  20.131   7.957   5.919
    5AU       S 1718  19.515   6.227   6.803
    5AU     LIG 1719  19.784   6.041   6.499
    5AU     LIG 1720  19.831   5.778   6.147
    5AU     LIG 1721  20.192   5.565   5.958
    5AU       S 1722  18.859   6.769   6.273
    5AU     LIG 1723  18.936   6.436   5.949
    5AU     LIG 1724  19.002   6.297   5.511
    5AU     LIG 1725  19.271   6.323   5.134
    5AU       S 1726  18.339   6.693   6.323
    5AU     LIG 1727  18.422   6.529   5.903
    5AU     LIG 1728  18.485   6.347   5.497
    5AU     LIG 1729  18.226   6.335   5.122
    5AU       S 1730  18.730   7.030   6.398
    5AU     LIG 1731  18.553   7.015   5.961
    5AU     LIG 1732  18.769   6.791   5.613
    5AU     LIG 1733  19.160   6.783   5.364
    5AU       S 1734  18.065   6.948   8.636
    5AU     LIG 1735  17.820   6.756   8.949
    5AU     LIG 1736  17.650   6.387   9.133
    5AU     LIG 1737  17.581   6.266   9.574
    5AU       S 1738  17.954   7.583   8.197
    5AU     LIG 1739  17.610   7.854   8.373
    5AU     LIG 1740  17.380   7.927   8.782
    5AU     LIG 1741  17.084   8.166   9.077
    5AU       S 1742  17.930   6.332   8.444
    5AU     LIG 1743  17.463   6.296   8.273
    5AU     LIG 1744  17.137   6.008   8.161
    5AU     LIG 1745  16.964   5.907   8.552
    5AU       S 1746  18.251   6.678   8.644
    5AU     LIG 1747  18.172   6.378   8.982
    5AU     LIG 1748  18.054   6.156   9.361
    5AU     LIG 1749  18.038   6.248   9.822
    5AU       S 1750  18.058   6.688   6.404
    5AU     LIG 1751  17.956   6.384   6.057
    5AU     LIG 1752  17.974   6.418   5.584
    5AU     LIG 1753  17.846   6.724   5.239
    5AU       S 1754  17.918   5.947   6.882
    5AU     LIG 1755  18.116   5.729   6.512
    5AU     LIG 1756  17.957   5.789   6.098
    5AU     LIG 1757  17.524   5.732   6.029
    5AU       S 1758  17.857   7.218   6.667
    5AU     LIG 1759  17.494   7.515   6.750
    5AU     LIG 1760  17.344   7.899   6.546
    5AU     LIG 1761  17.153   8.161   6.217
    5AU       S 1762  18.244   6.944   6.443
    5AU     LIG 1763  18.041   7.111   6.108
    5AU     LIG 1764  18.078   6.912   5.705
    5AU     LIG 1765  18.336   6.819   5.340
    5AU       S 1766  19.516   7.456   6.951
    5AU     LIG 1767  19.895   7.532   6.709
    5AU     LIG 1768  20.103   7.607   6.297
    5AU     LIG 1769  20.476   7.555   5.988
    5AU       S 1770  19.633   7.419   7.432
    5AU     LIG 1771  20.012   7.625   7.239
    5AU     LIG 1772  20.406   7.626   7.469
    5AU     LIG 1773  20.688   7.795   7.788
    5AU       S 1774  19.859   7.169   7.399
    5AU     LIG 1775  20.327   7.149   7.301
    5AU     LIG 1776  20.771   7.301   7.253
    5AU     LIG 1777  21.143   7.141   7.024
    5AU       S 1778  19.735   6.129   7.641
    5AU     LIG 1779  19.982   5.892   7.935
    5AU     LIG 1780  20.427   5.972   8.028
    5AU     LIG 1781  20.819   5.797   7.885
    5AU       S 1782  19.543   7.482   8.013
    5AU     LIG 1783  19.893   7.688   8.268
    5AU     LIG 1784  19.953   8.113   8.515
    5AU     LIG 1785  19.871   8.476   8.835
    5AU       S 1786  19.801   7.338   7.610
    5AU     LIG 1787  20.223   7.253   7.791
    5AU     LIG 1788  20.688   7.268   7.776
    5AU     LIG 1789  20.986   7.477   8.068
    5AU       S 1790  17.818   7.322   8.202
    5AU     LIG 1791  17.487   7.378   8.490
    5AU     LIG 1792  17.096   7.617   8.490
    5AU     LIG 1793  16.874   7.748   8.857
    5AU       S 1794  17.959   7.762   7.414
    5AU     LIG 1795  17.686   8.098   7.259
    5AU     LIG 1796  17.310   8.101   7.009
    5AU     LIG 1797  17.043   7.715   6.950
    5AU       S 1798  17.457   7.014   6.987
    5AU     LIG 1799  16.974   7.009   7.108
    5AU     LIG 1800  16.567   7.259   7.054
    5AU     LIG 1801  16.531   7.688   6.868
    5AU       S 1802  17.966   7.658   6.890
    5AU     LIG 1803  17.810   8.080   6.754
    5AU     LIG 1804  17.534   8.387   6.571
    5AU     LIG 1805  17.447   8.566   6.133
    5AU       S 1806  17.426   6.470   7.590
    5AU     LIG 1807  17.031   6.547   7.379
    5AU     LIG 1808  16.606   6.593   7.190
    5AU     LIG 1809  16.298   6.277   7.021
    5AU       S 1810  17.498   6.972   7.983
    5AU     LIG 1811  17.130   7.211   8.165
    5AU     LIG 1812  16.730   7.452   8.115
    5AU     LIG 1813  16.443   7.283   7.787
    5AU       S 1814  19.470   5.965   7.578
    5AU     LIG 1815  19.624   5.568   7.641
    5AU     LIG 1816  19.981   5.356   7.768
    5AU     LIG 1817  20.357   5.522   7.817
    5AU       S 1818  19.448   6.006   8.076
    5AU     LIG 1819  19.637   5.575   8.145
    5AU     LIG 1820  20.061   5.460   8.255
    5AU     LIG 1821  20.186   5.157   8.542
    5AU       S 1822  19.650   6.010   7.398
    5AU     LIG 1823  20.053   5.784   7.447
    5AU     LIG 1824  20.498   5.869   7.444
    5AU     LIG 1825  20.671   5.655   7.072
    5AU       S 1826  19.449   5.999   6.952
    5AU     LIG 1827  19.530   5.626   6.653
    5AU     LIG 1828  19.582   5.184   6.646
    5AU     LIG 1829  19.656   4.714   6.643
    5AU       S 1830  17.804   6.125   6.924
    5AU     LIG 1831  17.674   6.076   6.465
    5AU     LIG 1832  17.264   6.080   6.285
    5AU     LIG 1833  17.012   5.711   6.163
    5AU       S 1834  17.521   6.227   7.562
    5AU     LIG 1835  17.100   6.093   7.614
    5AU     LIG 1836  16.742   6.095   7.324
    5AU     LIG 1837  16.578   5.726   7.084
    5AU       S 1838  17.938   6.087   8.346
    5AU     LIG 1839  17.630   5.824   8.107
    5AU     LIG 1840  17.424   5.453   8.137
    5AU     LIG 1841  17.120   5.422   8.380
    5AU       S 1842  17.449   6.510   7.773
    5AU     LIG 1843  17.038   6.482   7.947
    5AU     LIG 1844  16.652   6.574   7.744
    5AU     LIG 1845  16.354   6.340   7.551
    5AU       S 1846  17.965   7.746   7.909
    5AU     LIG 1847  17.571   8.010   7.867
    5AU     LIG 1848  17.164   7.983   8.117
    5AU     LIG 1849  16.975   8.134   8.531
    5AU       S 1850  18.812   8.009   7.954
    5AU     LIG 1851  19.104   8.332   8.076
    5AU     LIG 1852  18.947   8.671   8.304
    5AU     LIG 1853  18.539   8.857   8.222
    5AU       S 1854  18.771   8.192   7.710
    5AU     LIG 1855  18.381   8.408   7.720
    5AU     LIG 1856  18.258   8.830   7.750
    5AU     LIG 1857  18.560   9.142   7.807
    5AU       S 1858  18.786   7.968   7.236
    5AU     LIG 1859  18.674   8.446   7.275
    5AU     LIG 1860  18.799   8.900   7.199
    5AU     LIG 1861  18.986   9.332   7.041
    5AU       S 1862  19.359   7.431   8.321
    5AU     LIG 1863  19.505   7.805   8.561
    5AU     LIG 1864  19.633   8.028   8.935
    5AU     LIG 1865  19.872   7.947   9.320
    5AU       S 1866  19.038   7.971   7.653
    5AU     LIG 1867  19.149   8.449   7.557
    5AU     LIG 1868  18.898   8.755   7.790
    5AU     LIG 1869  19.005   9.129   8.082
    5AU       S 1870  18.761   5.634   8.056
    5AU     LIG 1871  18.842   5.200   8.181
    5AU     LIG 1872  18.782   4.895   8.499
    5AU     LIG 1873  18.884   4.478   8.684
    5AU       S 1874  19.213   5.862   7.986
    5AU     LIG 1875  19.218   5.400   7.887
    5AU     LIG 1876  19.534   5.113   7.852
    5AU     LIG 1877  19.831   5.011   8.147
    5AU       S 1878  18.551   5.552   7.886
    5AU     LIG 1879  18.355   5.183   8.022
    5AU     LIG 1880  18.535   4.805   8.015
    5AU     LIG 1881  18.556   4.478   8.291
    5AU       S 1882  18.201   6.203   8.512
    5AU     LIG 1883  17.852   6.002   8.819
    5AU     LIG 1884  17.482   5.767   8.624
    5AU     LIG 1885  17.169   5.549   8.869
    5AU       S 1886  18.657   5.542   7.342
    5AU     LIG 1887  18.632   5.090   7.165
    5AU     LIG 1888  18.606   4.770   6.866
    5AU     LIG 1889  18.827   4.391   6.863
    5AU       S 1890  18.797   5.638   7.804
    5AU     LIG 1891  18.792   5.167   7.675
    5AU     LIG 1892  19.077   4.873   7.850
    5AU     LIG 1893  19.059   4.599   8.197
    5AU       S 1894  18.640   7.975   7.018
    5AU     LIG 1895  18.440   8.350   6.817
    5AU     LIG 1896  18.587   8.787   6.738
    5AU     LIG 1897  19.005   9.018   6.647
    5AU       S 1898  19.352   7.648   7.095
    5AU     LIG 1899  19.700   7.939   6.949
    5AU     LIG 1900  19.966   8.036   6.569
    5AU     LIG 1901  20.138   8.356   6.273
    5AU       S 1902  18.410   7.958   7.212
    5AU     LIG 1903  18.157   8.320   7.238
    5AU     LIG 1904  18.240   8.749   7.127
    5AU     LIG 1905  18.247   9.183   6.948
    5AU       S 1906  18.071   7.390   6.618
    5AU     LIG 1907  17.794   7.654   6.361
    5AU     LIG 1908  17.702   8.072   6.205
    5AU     LIG 1909  17.947   8.450   6.268
    5AU       S 1910  17.831   5.957   7.201
    5AU     LIG 1911  17.360   6.021   7.110
    5AU     LIG 1912  17.277   5.775   6.717
    5AU     LIG 1913  17.342   5.408   6.425
    5AU       S 1914  18.729   5.557   7.103
    5AU     LIG 1915  18.970   5.257   6.812
    5AU     LIG 1916  18.835   4.979   6.436
    5AU     LIG 1917  18.531   4.648   6.329
    5AU       S 1918  18.973   5.606   7.353
    5AU     LIG 1919  19.220   5.206   7.414
    5AU     LIG 1920  19.374   4.971   7.069
    5AU     LIG 1921  19.157   4.775   6.763
    5AU       S 1922  19.287   6.093   6.659
    5AU     LIG 1923  19.331   5.863   6.253
    5AU     LIG 1924  19.377   5.396   6.178
    5AU     LIG 1925  19.344   4.923   6.269
    6AU     AUC 1926  34.944  19.582   7.524
    6AU     AUC 1927  35.195  19.571   7.358
    6AU     AUC 1928  35.200  19.580   7.680
    6AU     AUC 1929  34.680  19.576   7.373
    6AU     AUC 1930  34.689  19.606   7.691
    6AU     AUC 1931  34.797  19.839   7.508
    6AU     AUC 1932  35.115  19.834   7.506
    6AU     AUC 1933  34.778  19.329   7.546
    6AU     AUC 1934  35.094  19.320   7.532
    6AU     AUC 1935  34.941  19.441   7.793
    6AU     AUC 1936  34.959  19.760   7.773
    6AU     AUC 1937  34.935  19.408   7.275
    6AU     AUC 1938  34.940  19.724   7.255
    6AU     AUC 1939  35.450  19.573   7.192
    6AU     AUC 1940  35.453  19.562   7.514
    6AU     AUC 1941  35.455  19.561   7.839
    6AU     AUC 1942  34.423  19.561   7.220
    6AU     AUC 1943  34.422  19.604   7.544
    6AU     AUC 1944  34.442  19.641   7.861
    6AU     AUC 1945  34.648  20.098   7.480
    6AU     AUC 1946  34.986  20.096   7.474
    6AU     AUC 1947  35.299  20.087   7.487
    6AU     AUC 1948  34.611  19.076   7.568
    6AU     AUC 1949  34.939  19.063   7.545
    6AU     AUC 1950  35.255  19.059   7.541
    6AU     AUC 1951  34.940  19.300   8.063
    6AU     AUC 1952  34.950  19.624   8.056
    6AU     AUC 1953  34.984  19.943   8.020
    6AU     AUC 1954  34.945  19.236   7.024
    6AU     AUC 1955  34.929  19.549   7.002
    6AU     AUC 1956  34.930  19.862   6.988
    6AU     AUC 1957  35.194  19.427   7.955
    6AU     AUC 1958  35.226  19.749   7.937
    6AU     AUC 1959  35.204  19.412   7.094
    6AU     AUC 1960  35.192  19.729   7.085
    6AU     AUC 1961  34.687  19.473   7.969
    6AU     AUC 1962  34.702  19.798   7.944
    6AU     AUC 1963  34.672  19.383   7.125
    6AU     AUC 1964  34.666  19.706   7.094
    6AU     AUC 1965  35.375  19.825   7.346
    6AU     AUC 1966  35.378  19.837   7.669
    6AU     AUC 1967  34.523  19.847   7.342
    6AU     AUC 1968  34.536  19.885   7.671
    6AU     AUC 1969  35.347  19.300   7.358
    6AU     AUC 1970  35.354  19.308   7.690
    6AU     AUC 1971  34.510  19.314   7.406
    6AU     AUC 1972  34.513  19.344   7.722
    6AU     AUC 1973  34.815  20.020   7.767
    6AU     AUC 1974  35.154  20.014   7.755
    6AU     AUC 1975  34.776  19.184   7.819
    6AU     AUC 1976  35.094  19.167   7.804
    6AU     AUC 1977  34.781  19.990   7.235
    6AU     AUC 1978  35.117  19.990   7.235
    6AU     AUC 1979  34.772  19.140   7.294
    6AU     AUC 1980  35.108  19.149   7.273
    6AU    AUSL 1981  35.368  19.530   8.151
    6AU    AUSL 1982  35.246  19.187   8.137
    6AU     AUL 1983  35.639  19.348   8.266
    6AU    AUSL 1984  35.050  19.449   8.285
    6AU    AUSL 1985  34.838  19.810   8.275
    6AU     AUL 1986  35.107  19.722   8.563
    6AU    AUSL 1987  35.173  19.822   8.229
    6AU    AUSL 1988  35.532  19.808   8.007
    6AU     AUL 1989  35.506  19.737   8.402
    6AU    AUSL 1990  35.367  19.634   6.885
    6AU    AUSL 1991  35.243  19.983   6.911
    6AU     AUL 1992  35.611  19.838   6.742
    6AU    AUSL 1993  35.155  19.385   6.789
    6AU    AUSL 1994  35.508  19.329   7.020
    6AU     AUL 1995  35.525  19.419   6.651
    6AU    AUSL 1996  35.022  19.694   6.771
    6AU    AUSL 1997  34.805  19.365   6.812
    6AU     AUL 1998  35.005  19.230   6.581
    6AU    AUSL 1999  34.518  19.748   8.158
    6AU    AUSL 2000  34.701  20.081   8.047
    6AU     AUL 2001  34.662  20.098   8.381
    6AU    AUSL 2002  34.700  19.475   8.256
    6AU    AUSL 2003  34.433  19.366   8.038
    6AU     AUL 2004  34.248  19.562   8.199
    6AU    AUSL 2005  34.485  19.432   6.906
    6AU    AUSL 2006  34.638  19.096   7.012
    6AU     AUL 2007  34.624  19.101   6.665
    6AU    AUSL 2008  34.672  19.695   6.818
    6AU    AUSL 2009  34.393  19.825   7.033
    6AU     AUL 2010  34.221  19.563   6.892
    6AU    AUSL 2011  35.615  19.998   7.433
    6AU    AUSL 2012  35.515  19.859   7.106
    6AU     AUL 2013  35.846  19.799   7.057
    6AU    AUSL 2014  35.710  19.674   7.351
    6AU    AUSL 2015  35.691  19.414   7.668
    6AU     AUL 2016  36.018  19.497   7.502
    6AU    AUSL 2017  35.597  19.747   7.668
    6AU    AUSL 2018  35.499  20.099   7.752
    6AU     AUL 2019  35.814  19.808   7.786
    6AU    AUSL 2020  34.367  20.086   7.502
    6AU    AUSL 2021  34.381  19.956   7.918
    6AU     AUL 2022  34.063  20.114   7.682
    6AU    AUSL 2023  34.222  19.774   7.319
    6AU    AUSL 2024  34.495  20.138   7.182
    6AU     AUL 2025  34.131  20.080   7.226
    6AU    AUSL 2026  34.213  19.769   7.691
    6AU    AUSL 2027  34.200  19.460   7.435
    6AU     AUL 2028  33.914  19.742   7.479
    6AU    AUSL 2029  35.554  19.106   7.588
    6AU    AUSL 2030  35.505  19.279   7.929
    6AU     AUL 2031  35.849  19.320   7.909
    6AU    AUSL 2032  35.573  19.357   7.354
    6AU    AUSL 2033  35.440  19.034   7.243
    6AU     AUL 2034  35.797  19.260   7.251
    6AU    AUSL 2035  34.284  19.148   7.551
    6AU    AUSL 2036  34.355  19.266   7.170
    6AU     AUL 2037  34.023  19.348   7.214
    6AU    AUSL 2038  34.218  19.438   7.779
    6AU    AUSL 2039  34.483  19.060   7.868
    6AU     AUL 2040  34.183  19.105   7.916
    6AU    AUSL 2041  35.003  20.250   7.935
    6AU    AUSL 2042  34.554  20.235   7.762
    6AU     AUL 2043  34.755  20.447   8.054
    6AU    AUSL 2044  34.863  20.194   7.617
    6AU    AUSL 2045  35.104  20.340   7.331
    6AU     AUL 2046  34.859  20.505   7.640
    6AU    AUSL 2047  35.220  20.307   7.647
    6AU    AUSL 2048  35.284  20.060   8.023
    6AU     AUL 2049  35.335  20.385   7.964
    6AU    AUSL 2050  34.968  18.988   7.982
    6AU    AUSL 2051  35.311  18.992   7.848
    6AU     AUL 2052  35.092  18.914   8.259
    6AU    AUSL 2053  34.736  18.881   7.742
    6AU    AUSL 2054  34.706  19.153   8.137
    6AU     AUL 2055  34.666  18.783   8.064
    6AU    AUSL 2056  35.056  18.827   7.674
    6AU    AUSL 2057  34.802  18.840   7.401
    6AU     AUL 2058  34.599  18.647   7.595
    6AU    AUSL 2059  34.960  20.150   7.075
    6AU    AUSL 2060  35.368  20.154   7.221
    6AU     AUL 2061  35.157  20.328   6.924
    6AU    AUSL 2062  34.753  20.322   7.313
    6AU    AUSL 2063  34.683  20.012   6.917
    6AU     AUL 2064  34.735  20.344   6.929
    6AU    AUSL 2065  34.939  18.943   7.098
    6AU    AUSL 2066  34.488  18.974   7.323
    6AU     AUL 2067  34.661  18.722   7.081
    6AU    AUSL 2068  35.167  18.865   7.357
    6AU    AUSL 2069  35.226  19.116   6.977
    6AU     AUL 2070  35.201  18.801   6.975
    6AU       S 2071  35.584  18.825   8.295
    6AU     LIG 2072  35.540  18.368   8.357
    6AU     LIG 2073  35.779  17.984   8.361
    6AU     LIG 2074  36.130  17.713   8.484
    6AU       S 2075  35.351  19.262   8.678
    6AU     LIG 2076  35.560  19.415   9.084
    6AU     LIG 2077  35.750  19.577   9.495
    6AU     LIG 2078  35.932  19.578   9.945
    6AU       S 2079  35.008  19.232   8.681
    6AU     LIG 2080  35.068  19.247   9.152
    6AU     LIG 2081  35.382  19.188   9.526
    6AU     LIG 2082  35.815  19.116   9.718
    6AU       S 2083  34.634  19.725   8.742
    6AU     LIG 2084  34.658  19.590   9.165
    6AU     LIG 2085  34.335  19.505   9.472
    6AU     LIG 2086  33.900  19.600   9.589
    6AU       S 2087  35.206  20.226   8.517
    6AU     LIG 2088  35.418  20.501   8.802
    6AU     LIG 2089  35.757  20.390   9.060
    6AU     LIG 2090  36.167  20.208   9.082
    6AU       S 2091  35.857  20.087   8.210
    6AU     LIG 2092  36.096  20.247   8.563
    6AU     LIG 2093  36.279  20.602   8.732
    6AU     LIG 2094  36.440  20.986   8.915
    6AU       S 2095  35.302  19.816   6.346
    6AU     LIG 2096  35.497  19.773   5.927
    6AU     LIG 2097  35.790  19.459   5.753
    6AU     LIG 2098  35.818  19.115   5.465
    6AU       S 2099  35.625  20.355   6.771
    6AU     LIG 2100  35.628  20.755   6.556
    6AU     LIG 2101  35.762  20.856   6.138
    6AU     LIG 2102  36.109  20.847   5.857
    6AU       S 2103  35.811  19.005   6.807
    6AU     LIG 2104  36.022  18.783   6.451
    6AU     LIG 2105  36.075  18.367   6.277
    6AU     LIG 2106  36.146  17.928   6.422
    6AU       S 2107  35.179  19.574   6.270
    6AU     LIG 2108  35.295  19.293   5.889
    6AU     LIG 2109  35.301  19.200   5.420
    6AU     LIG 2110  35.600  19.311   5.046
    6AU       S 2111  34.649  19.508   6.327
    6AU     LIG 2112  34.587  19.461   5.886
    6AU     LIG 2113  34.705  19.244   5.513
    6AU     LIG 2114  34.436  19.216   5.133
    6AU       S 2115  35.035  19.836   6.405
    6AU     LIG 2116  34.881  19.861   5.980
    6AU     LIG 2117  35.071  19.661   5.618
    6AU     LIG 2118  35.490  19.676   5.402
    6AU       S 2119  34.377  19.749   8.642
    6AU     LIG 2120  34.154  19.599   8.993
    6AU     LIG 2121  33.959  19.247   9.201
    6AU     LIG 2122  33.848  19.079   9.622
    6AU       S 2123  34.264  20.391   8.203
    6AU     LIG 2124  34.011  20.698   8.445
    6AU     LIG 2125  33.672  20.725   8.749
    6AU     LIG 2126  33.374  20.923   9.025
    6AU       S 2127  34.243  19.127   8.450
    6AU     LIG 2128  33.762  19.062   8.345
    6AU     LIG 2129  33.419  18.728   8.379
    6AU     LIG 2130  33.189  18.520   8.737
    6AU       S 2131  34.562  19.473   8.650
    6AU     LIG 2132  34.437  19.166   8.990
    6AU     LIG 2133  34.352  18.998   9.427
    6AU     LIG 2134  34.288  19.164   9.868
    6AU       S 2135  34.365  19.485   6.413
    6AU     LIG 2136  34.241  19.134   6.143
    6AU     LIG 2137  34.201  19.170   5.686
    6AU     LIG 2138  34.181  19.542   5.436
    6AU       S 2139  34.232  18.805   6.820
    6AU     LIG 2140  34.070  18.600   6.422
    6AU     LIG 2141  33.803  18.349   6.118
    6AU     LIG 2142  33.432  18.076   6.002
    6AU       S 2143  34.157  20.011   6.667
    6AU     LIG 2144  33.797  20.311   6.643
    6AU     LIG 2145  33.526  20.694   6.561
    6AU     LIG 2146  33.464  20.927   6.163
    6AU       S 2147  34.546  19.748   6.443
    6AU     LIG 2148  34.352  19.903   6.093
    6AU     LIG 2149  34.463  19.924   5.658
    6AU     LIG 2150  34.661  19.706   5.317
    6AU       S 2151  35.803  20.299   6.973
    6AU     LIG 2152  36.117  20.455   6.694
    6AU     LIG 2153  36.163  20.533   6.263
    6AU     LIG 2154  36.493  20.524   5.963
    6AU       S 2155  35.923  20.260   7.453
    6AU     LIG 2156  36.169  20.612   7.651
    6AU     LIG 2157  36.637  20.642   7.619
    6AU     LIG 2158  36.959  20.508   7.309
    6AU       S 2159  36.153  20.010   7.390
    6AU     LIG 2160  36.627  20.095   7.418
    6AU     LIG 2161  37.047  20.017   7.206
    6AU     LIG 2162  37.305  20.338   6.948
    6AU       S 2163  36.036  18.941   7.645
    6AU     LIG 2164  36.329  18.763   7.911
    6AU     LIG 2165  36.781  18.800   7.806
    6AU     LIG 2166  37.207  18.993   7.759
    6AU       S 2167  35.846  20.314   7.985
    6AU     LIG 2168  36.179  20.617   8.180
    6AU     LIG 2169  36.182  21.035   8.456
    6AU     LIG 2170  36.068  21.317   8.843
    6AU       S 2171  36.114  20.128   7.599
    6AU     LIG 2172  36.462  20.239   7.884
    6AU     LIG 2173  36.954  20.275   7.819
    6AU     LIG 2174  37.390  20.253   8.034
    6AU       S 2175  34.134  20.128   8.205
    6AU     LIG 2176  33.789  20.228   8.426
    6AU     LIG 2177  33.401  20.395   8.467
    6AU     LIG 2178  33.225  20.467   8.860
    6AU       S 2179  34.259  20.566   7.420
    6AU     LIG 2180  34.148  20.924   7.145
    6AU     LIG 2181  33.707  20.884   7.007
    6AU     LIG 2182  33.547  20.435   7.061
    6AU       S 2183  33.769  19.806   6.988
    6AU     LIG 2184  33.356  19.597   7.107
    6AU     LIG 2185  32.989  19.843   7.007
    6AU     LIG 2186  33.026  20.293   6.812
    6AU       S 2187  34.243  20.450   6.891
    6AU     LIG 2188  34.045  20.770   6.631
    6AU     LIG 2189  33.803  21.147   6.487
    6AU     LIG 2190  33.534  21.439   6.208
    6AU       S 2191  33.725  19.252   7.606
    6AU     LIG 2192  33.281  19.234   7.521
    6AU     LIG 2193  32.902  19.375   7.295
    6AU     LIG 2194  32.736  19.172   6.905
    6AU       S 2195  33.814  19.774   7.997
    6AU     LIG 2196  33.430  19.891   8.215
    6AU     LIG 2197  33.060  19.850   7.973
    6AU     LIG 2198  33.123  19.791   7.525
    6AU       S 2199  35.775  18.762   7.567
    6AU     LIG 2200  36.040  18.371   7.597
    6AU     LIG 2201  36.391  18.258   7.849
    6AU     LIG 2202  36.788  18.330   8.000
    6AU       S 2203  35.767  18.840   8.075
    6AU     LIG 2204  35.981  18.429   8.108
    6AU     LIG 2205  36.281  18.187   8.346
    6AU     LIG 2206  36.320  18.075   8.788
    6AU       S 2207  35.990  18.845   7.414
    6AU     LIG 2208  36.443  18.635   7.429
    6AU     LIG 2209  36.912  18.645   7.314
    6AU     LIG 2210  37.226  18.672   6.941
    6AU       S 2211  35.714  18.777   7.008
    6AU     LIG 2212  35.815  18.369   6.798
    6AU     LIG 2213  35.756  17.906   6.783
    6AU     LIG 2214  35.756  17.588   6.450
    6AU       S 2215  34.101  18.962   6.913
    6AU     LIG 2216  33.850  19.041   6.543
    6AU     LIG 2217  33.560  18.755   6.331
    6AU     LIG 2218  33.179  18.498   6.212
    6AU       S 2219  33.832  19.010   7.566
    6AU     LIG 2220  33.535  18.840   7.883
    6AU     LIG 2221  33.084  18.789   7.858
    6AU     LIG 2222  32.799  18.929   7.533
    6AU       S 2223  34.262  18.877   8.350
    6AU     LIG 2224  33.919  18.600   8.205
    6AU     LIG 2225  33.604  18.288   8.156
    6AU     LIG 2226  33.320  18.133   8.439
    6AU       S 2227  33.757  19.315   7.775
    6AU     LIG 2228  33.409  19.372   8.020
    6AU     LIG 2229  32.986  19.336   7.915
    6AU     LIG 2230  32.585  19.195   7.900
    6AU       S 2231  34.274  20.552   7.914
    6AU     LIG 2232  33.930  20.859   7.963
    6AU     LIG 2233  33.557  20.901   8.247
    6AU     LIG 2234  33.196  20.885   8.532
    6AU       S 2235  35.112  20.832   7.954
    6AU     LIG 2236  35.450  21.016   8.259
    6AU     LIG 2237  35.419  21.409   8.536
    6AU     LIG 2238  35.022  21.688   8.484
    6AU       S 2239  35.019  21.013   7.682
    6AU     LIG 2240  34.547  21.099   7.754
    6AU     LIG 2241  34.476  21.501   7.968
    6AU     LIG 2242  34.852  21.715   7.979
    6AU       S 2243  35.102  20.766   7.231
    6AU     LIG 2244  35.209  21.247   7.279
    6AU     LIG 2245  35.353  21.693   7.149
    6AU     LIG 2246  35.298  21.964   6.755
    6AU       S 2247  35.666  20.254   8.306
    6AU     LIG 2248  35.780  20.663   8.484
    6AU     LIG 2249  35.862  20.856   8.878
    6AU     LIG 2250  36.127  20.711   9.230
    6AU       S 2251  35.322  20.788   7.657
    6AU     LIG 2252  35.467  21.199   7.770
    6AU     LIG 2253  35.289  21.466   8.058
    6AU     LIG 2254  35.415  21.881   8.218
    6AU       S 2255  35.106  18.454   8.055
    6AU     LIG 2256  35.273  18.019   8.097
    6AU     LIG 2257  35.243  17.593   8.281
    6AU     LIG 2258  35.025  17.162   8.351
    6AU       S 2259  35.535  18.714   7.995
    6AU     LIG 2260  35.586  18.337   7.806
    6AU     LIG 2261  35.761  17.997   7.853
    6AU     LIG 2262  36.137  17.834   7.990
    6AU       S 2263  34.902  18.357   7.875
    6AU     LIG 2264  34.737  17.974   7.690
    6AU     LIG 2265  34.711  17.586   7.902
    6AU     LIG 2266  34.550  17.243   8.149
    6AU       S 2267  34.506  18.999   8.516
    6AU     LIG 2268  34.100  18.796   8.804
    6AU     LIG 2269  33.733  18.470   8.709
    6AU     LIG 2270  33.465  18.117   8.927
    6AU       S 2271  34.953  18.366   7.353
    6AU     LIG 2272  34.818  17.955   7.164
    6AU     LIG 2273  35.016  17.638   6.929
    6AU     LIG 2274  35.066  17.193   7.032
    6AU       S 2275  35.127  18.463   7.799
    6AU     LIG 2276  35.230  18.030   7.594
    6AU     LIG 2277  35.383  17.658   7.731
    6AU     LIG 2278  35.143  17.333   7.863
    6AU       S 2279  34.953  20.777   7.041
    6AU     LIG 2280  35.079  21.113   6.796
    6AU     LIG 2281  35.280  21.478   6.655
    6AU     LIG 2282  35.596  21.737   6.391
    6AU       S 2283  35.620  20.486   7.118
    6AU     LIG 2284  35.911  20.831   6.969
    6AU     LIG 2285  36.109  20.954   6.541
    6AU     LIG 2286  36.419  21.042   6.217
    6AU       S 2287  34.715  20.769   7.233
    6AU     LIG 2288  34.665  21.183   7.127
    6AU     LIG 2289  34.872  21.556   7.003
    6AU     LIG 2290  34.790  21.867   6.696
    6AU       S 2291  34.367  20.189   6.622
    6AU     LIG 2292  34.153  20.370   6.274
    6AU     LIG 2293  33.933  20.735   6.122
    6AU     LIG 2294  33.889  21.157   5.949
    6AU       S 2295  34.126  18.766   7.143
    6AU     LIG 2296  33.750  18.592   6.843
    6AU     LIG 2297  33.515  18.279   6.555
    6AU     LIG 2298  33.233  17.909   6.447
    6AU       S 2299  35.076  18.373   7.177
    6AU     LIG 2300  35.299  18.104   6.904
    6AU     LIG 2301  35.289  17.811   6.543
    6AU     LIG 2302  35.076  17.393   6.476
    6AU       S 2303  35.325  18.466   7.352
    6AU     LIG 2304  35.636  18.118   7.313
    6AU     LIG 2305  35.447  17.708   7.204
    6AU     LIG 2306  35.473  17.434   6.844
    6AU       S 2307  35.593  18.886   6.692
    6AU     LIG 2308  35.560  18.541   6.387
    6AU     LIG 2309  35.647  18.094   6.303
    6AU     LIG 2310  35.873  17.818   5.984
    7AU     AUC 2311  21.897  19.920   7.534
    7AU     AUC 2312  22.149  19.900   7.371
    7AU     AUC 2313  22.150  19.914   7.693
    7AU     AUC 2314  21.635  19.916   7.381
    7AU     AUC 2315  21.642  19.951   7.698
    7AU     AUC 2316  21.756  20.182   7.512
    7AU     AUC 2317  22.073  20.168   7.513
    7AU     AUC 2318  21.727  19.669   7.559
    7AU     AUC 2319  22.042  19.654   7.548
    7AU     AUC 2320  21.889  19.783   7.805
    7AU     AUC 2321  21.913  20.102   7.780
    7AU     AUC 2322  21.887  19.741   7.287
    7AU     AUC 2323  21.900  20.057   7.263
    7AU     AUC 2324  22.406  19.892   7.209
    7AU     AUC 2325  22.403  19.888   7.532
    7AU     AUC 2326  22.401  19.892   7.856
    7AU     AUC 2327  21.378  19.903   7.227
    7AU     AUC 2328  21.376  19.951   7.548
    7AU     AUC 2329  21.393  19.992   7.865
    7AU     AUC 2330  21.612  20.441   7.478
    7AU     AUC 2331  21.950  20.433   7.478
    7AU     AUC 2332  22.265  20.417   7.491
    7AU     AUC 2333  21.558  19.420   7.586
    7AU     AUC 2334  21.884  19.399   7.562
    7AU     AUC 2335  22.198  19.387   7.561
    7AU     AUC 2336  21.884  19.645   8.076
    7AU     AUC 2337  21.900  19.970   8.065
    7AU     AUC 2338  21.939  20.288   8.023
    7AU     AUC 2339  21.892  19.565   7.041
    7AU     AUC 2340  21.882  19.876   7.012
    7AU     AUC 2341  21.898  20.189   6.993
    7AU     AUC 2342  22.139  19.765   7.970
    7AU     AUC 2343  22.178  20.087   7.947
    7AU     AUC 2344  22.159  19.736   7.112
    7AU     AUC 2345  22.153  20.051   7.094
    7AU     AUC 2346  21.637  19.823   7.978
    7AU     AUC 2347  21.654  20.146   7.947
    7AU     AUC 2348  21.623  19.719   7.137
    7AU     AUC 2349  21.627  20.042   7.101
    7AU     AUC 2350  22.336  20.148   7.355
    7AU     AUC 2351  22.333  20.168   7.678
    7AU     AUC 2352  21.483  20.189   7.342
    7AU     AUC 2353  21.491  20.230   7.671
    7AU     AUC 2354  22.295  19.624   7.379
    7AU     AUC 2355  22.298  19.638   7.711
    7AU     AUC 2356  21.459  19.657   7.418
    7AU     AUC 2357  21.462  19.692   7.734
    7AU     AUC 2358  21.772  20.365   7.768
    7AU     AUC 2359  22.112  20.352   7.759
    7AU     AUC 2360  21.720  19.527   7.832
    7AU     AUC 2361  22.037  19.504   7.821
    7AU     AUC 2362  21.749  20.326   7.236
    7AU     AUC 2363  22.086  20.319   7.240
    7AU     AUC 2364  21.720  19.477   7.309
    7AU     AUC 2365  22.055  19.478   7.292
    7AU    AUSL 2366  22.312  19.869   8.166
    7AU    AUSL 2367  22.182  19.526   8.158
    7AU     AUL 2368  22.578  19.685   8.289
    7AU    AUSL 2369  21.994  19.796   8.298
    7AU    AUSL 2370  21.788  20.165   8.277
    7AU     AUL 2371  22.050  20.075   8.571
    7AU    AUSL 2372  22.125  20.167   8.237
    7AU    AUSL 2373  22.487  20.138   8.019
    7AU     AUL 2374  22.452  20.075   8.415
    7AU    AUSL 2375  22.326  19.941   6.897
    7AU    AUSL 2376  22.218  20.299   6.914
    7AU     AUL 2377  22.587  20.115   6.760
    7AU    AUSL 2378  22.096  19.703   6.809
    7AU    AUSL 2379  22.472  19.646   7.046
    7AU     AUL 2380  22.455  19.687   6.668
    7AU    AUSL 2381  21.985  20.019   6.780
    7AU    AUSL 2382  21.746  19.685   6.821
    7AU     AUL 2383  21.956  19.553   6.594
    7AU    AUSL 2384  21.467  20.104   8.162
    7AU    AUSL 2385  21.654  20.432   8.043
    7AU     AUL 2386  21.622  20.460   8.374
    7AU    AUSL 2387  21.648  19.831   8.265
    7AU    AUSL 2388  21.386  19.723   8.046
    7AU     AUL 2389  21.196  19.910   8.208
    7AU    AUSL 2390  21.433  19.778   6.922
    7AU    AUSL 2391  21.581  19.429   7.033
    7AU     AUL 2392  21.522  19.439   6.687
    7AU    AUSL 2393  21.635  20.025   6.822
    7AU    AUSL 2394  21.359  20.167   7.034
    7AU     AUL 2395  21.175  19.913   6.891
    7AU    AUSL 2396  22.577  20.313   7.439
    7AU    AUSL 2397  22.481  20.169   7.114
    7AU     AUL 2398  22.812  20.091   7.077
    7AU    AUSL 2399  22.667  19.985   7.373
    7AU    AUSL 2400  22.637  19.738   7.694
    7AU     AUL 2401  22.968  19.803   7.539
    7AU    AUSL 2402  22.543  20.073   7.682
    7AU    AUSL 2403  22.462  20.427   7.755
    7AU     AUL 2404  22.768  20.118   7.790
    7AU    AUSL 2405  21.325  20.428   7.493
    7AU    AUSL 2406  21.331  20.303   7.917
    7AU     AUL 2407  21.016  20.456   7.674
    7AU    AUSL 2408  21.176  20.118   7.315
    7AU    AUSL 2409  21.468  20.482   7.177
    7AU     AUL 2410  21.100  20.428   7.210
    7AU    AUSL 2411  21.167  20.119   7.685
    7AU    AUSL 2412  21.155  19.807   7.442
    7AU     AUL 2413  20.867  20.083   7.472
    7AU    AUSL 2414  22.496  19.431   7.619
    7AU    AUSL 2415  22.446  19.610   7.954
    7AU     AUL 2416  22.793  19.647   7.936
    7AU    AUSL 2417  22.514  19.677   7.382
    7AU    AUSL 2418  22.389  19.355   7.275
    7AU     AUL 2419  22.747  19.582   7.294
    7AU    AUSL 2420  21.231  19.499   7.572
    7AU    AUSL 2421  21.304  19.605   7.183
    7AU     AUL 2422  20.977  19.705   7.222
    7AU    AUSL 2423  21.168  19.792   7.787
    7AU    AUSL 2424  21.425  19.408   7.884
    7AU     AUL 2425  21.121  19.483   7.952
    7AU    AUSL 2426  21.965  20.594   7.941
    7AU    AUSL 2427  21.505  20.576   7.754
    7AU     AUL 2428  21.695  20.802   8.019
    7AU    AUSL 2429  21.822  20.545   7.621
    7AU    AUSL 2430  22.082  20.672   7.330
    7AU     AUL 2431  21.830  20.858   7.622
    7AU    AUSL 2432  22.185  20.641   7.651
    7AU    AUSL 2433  22.243  20.396   8.025
    7AU     AUL 2434  22.309  20.716   7.966
    7AU    AUSL 2435  21.906  19.327   7.996
    7AU    AUSL 2436  22.248  19.326   7.873
    7AU     AUL 2437  22.020  19.254   8.278
    7AU    AUSL 2438  21.674  19.219   7.756
    7AU    AUSL 2439  21.653  19.505   8.150
    7AU     AUL 2440  21.600  19.129   8.078
    7AU    AUSL 2441  21.998  19.163   7.689
    7AU    AUSL 2442  21.749  19.183   7.416
    7AU     AUL 2443  21.561  18.970   7.594
    7AU    AUSL 2444  21.940  20.478   7.074
    7AU    AUSL 2445  22.343  20.475   7.221
    7AU     AUL 2446  22.147  20.660   6.929
    7AU    AUSL 2447  21.731  20.659   7.305
    7AU    AUSL 2448  21.656  20.342   6.920
    7AU     AUL 2449  21.732  20.665   6.917
    7AU    AUSL 2450  21.883  19.275   7.105
    7AU    AUSL 2451  21.432  19.317   7.349
    7AU     AUL 2452  21.602  19.059   7.113
    7AU    AUSL 2453  22.106  19.189   7.367
    7AU    AUSL 2454  22.184  19.447   7.008
    7AU     AUL 2455  22.153  19.150   6.979
    7AU       S 2456  22.509  19.160   8.334
    7AU     LIG 2457  22.542  18.685   8.371
    7AU     LIG 2458  22.730  18.280   8.417
    7AU     LIG 2459  23.119  18.216   8.607
    7AU       S 2460  22.286  19.613   8.699
    7AU     LIG 2461  22.480  19.884   9.047
    7AU     LIG 2462  22.676  20.070   9.431
    7AU     LIG 2463  22.661  19.943   9.886
    7AU       S 2464  21.951  19.585   8.696
    7AU     LIG 2465  22.003  19.692   9.155
    7AU     LIG 2466  22.336  19.668   9.519
    7AU     LIG 2467  22.559  19.416   9.868
    7AU       S 2468  21.576  20.099   8.744
    7AU     LIG 2469  21.451  20.033   9.163
    7AU     LIG 2470  21.115  19.854   9.407
    7AU     LIG 2471  20.803  19.944   9.742
    7AU       S 2472  22.181  20.572   8.519
    7AU     LIG 2473  22.406  20.767   8.870
    7AU     LIG 2474  22.680  20.627   9.207
    7AU     LIG 2475  23.101  20.487   9.108
    7AU       S 2476  22.828  20.394   8.213
    7AU     LIG 2477  23.202  20.503   8.446
    7AU     LIG 2478  23.323  20.809   8.748
    7AU     LIG 2479  23.544  20.991   9.079
    7AU       S 2480  22.281  20.135   6.364
    7AU     LIG 2481  22.454  20.073   5.938
    7AU     LIG 2482  22.611  19.691   5.774
    7AU     LIG 2483  22.723  19.377   5.466
    7AU       S 2484  22.610  20.629   6.751
    7AU     LIG 2485  22.885  20.867   6.489
    7AU     LIG 2486  23.064  21.126   6.170
    7AU     LIG 2487  23.422  21.370   6.133
    7AU       S 2488  22.788  19.313   6.869
    7AU     LIG 2489  23.105  19.069   6.641
    7AU     LIG 2490  23.130  18.709   6.332
    7AU     LIG 2491  23.087  18.336   6.037
    7AU       S 2492  22.135  19.903   6.292
    7AU     LIG 2493  22.075  19.692   5.885
    7AU     LIG 2494  22.204  19.534   5.456
    7AU     LIG 2495  22.436  19.497   5.046
    7AU       S 2496  21.609  19.830   6.334
    7AU     LIG 2497  21.553  19.870   5.893
    7AU     LIG 2498  21.679  19.739   5.482
    7AU     LIG 2499  21.434  19.763   5.087
    7AU       S 2500  22.002  20.159   6.401
    7AU     LIG 2501  21.937  20.197   5.926
    7AU     LIG 2502  22.141  20.047   5.525
    7AU     LIG 2503  22.542  19.928   5.326
    7AU       S 2504  21.322  20.128   8.639
    7AU     LIG 2505  21.052  19.843   8.850
    7AU     LIG 2506  20.909  19.505   9.066
    7AU     LIG 2507  20.736  19.490   9.473
    7AU       S 2508  21.211  20.732   8.204
    7AU     LIG 2509  20.842  20.959   8.407
    7AU     LIG 2510  20.610  21.007   8.811
    7AU     LIG 2511  20.349  21.219   9.140
    7AU       S 2512  21.216  19.489   8.488
    7AU     LIG 2513  20.760  19.410   8.581
    7AU     LIG 2514  20.386  19.103   8.523
    7AU     LIG 2515  20.298  18.694   8.762
    7AU       S 2516  21.521  19.849   8.658
    7AU     LIG 2517  21.457  19.552   9.009
    7AU     LIG 2518  21.270  19.365   9.401
    7AU     LIG 2519  21.108  19.497   9.832
    7AU       S 2520  21.322  19.842   6.412
    7AU     LIG 2521  21.201  19.531   6.088
    7AU     LIG 2522  21.183  19.605   5.626
    7AU     LIG 2523  21.198  20.027   5.447
    7AU       S 2524  21.156  19.123   6.905
    7AU     LIG 2525  21.082  18.774   6.658
    7AU     LIG 2526  20.946  18.752   6.251
    7AU     LIG 2527  20.575  18.738   6.039
    7AU       S 2528  21.135  20.364   6.665
    7AU     LIG 2529  20.794  20.680   6.714
    7AU     LIG 2530  20.647  21.021   6.462
    7AU     LIG 2531  20.605  21.107   6.003
    7AU       S 2532  21.515  20.079   6.448
    7AU     LIG 2533  21.333  20.297   6.130
    7AU     LIG 2534  21.480  20.367   5.713
    7AU     LIG 2535  21.704  20.230   5.346
    7AU       S 2536  22.797  20.583   6.956
    7AU     LIG 2537  23.245  20.692   6.818
    7AU     LIG 2538  23.385  20.765   6.357
    7AU     LIG 2539  23.466  20.910   5.893
    7AU       S 2540  22.894  20.539   7.440
    7AU     LIG 2541  23.119  20.905   7.393
    7AU     LIG 2542  23.477  20.969   7.623
    7AU     LIG 2543  23.875  20.819   7.513
    7AU       S 2544  23.121  20.298   7.413
    7AU     LIG 2545  23.501  20.527   7.324
    7AU     LIG 2546  23.874  20.586   7.048
    7AU     LIG 2547  24.268  20.453   6.842
    7AU       S 2548  22.976  19.243   7.711
    7AU     LIG 2549  23.381  19.064   7.923
    7AU     LIG 2550  23.852  19.097   7.955
    7AU     LIG 2551  24.106  19.268   7.620
    7AU       S 2552  22.812  20.620   7.994
    7AU     LIG 2553  23.216  20.843   8.065
    7AU     LIG 2554  23.350  21.156   8.373
    7AU     LIG 2555  23.255  21.334   8.812
    7AU       S 2556  23.059  20.454   7.605
    7AU     LIG 2557  23.305  20.345   7.931
    7AU     LIG 2558  23.634  20.556   7.901
    7AU     LIG 2559  24.011  20.535   8.008
    7AU       S 2560  21.061  20.470   8.209
    7AU     LIG 2561  20.599  20.527   8.303
    7AU     LIG 2562  20.276  20.826   8.474
    7AU     LIG 2563  20.047  20.891   8.873
    7AU       S 2564  21.229  20.902   7.421
    7AU     LIG 2565  21.071  21.272   7.240
    7AU     LIG 2566  20.670  21.301   7.039
    7AU     LIG 2567  20.278  21.268   6.822
    7AU       S 2568  20.721  20.164   6.983
    7AU     LIG 2569  20.259  20.037   7.111
    7AU     LIG 2570  19.806  20.188   7.175
    7AU     LIG 2571  19.641  20.619   7.092
    7AU       S 2572  21.250  20.806   6.893
    7AU     LIG 2573  21.075  21.201   6.724
    7AU     LIG 2574  20.734  21.507   6.571
    7AU     LIG 2575  20.344  21.437   6.319
    7AU       S 2576  20.668  19.583   7.595
    7AU     LIG 2577  20.284  19.553   7.311
    7AU     LIG 2578  19.793  19.605   7.216
    7AU     LIG 2579  19.347  19.463   7.011
    7AU       S 2580  20.763  20.110   7.985
    7AU     LIG 2581  20.345  20.085   8.161
    7AU     LIG 2582  20.100  20.476   8.143
    7AU     LIG 2583  20.224  20.900   7.964
    7AU       S 2584  22.707  19.075   7.609
    7AU     LIG 2585  22.964  18.691   7.576
    7AU     LIG 2586  23.343  18.623   7.635
    7AU     LIG 2587  23.683  18.906   7.519
    7AU       S 2588  22.686  19.178   8.119
    7AU     LIG 2589  22.955  18.831   8.073
    7AU     LIG 2590  23.162  18.674   8.411
    7AU     LIG 2591  23.210  18.632   8.879
    7AU       S 2592  22.923  19.173   7.481
    7AU     LIG 2593  23.190  18.976   7.187
    7AU     LIG 2594  23.615  19.112   7.051
    7AU     LIG 2595  24.038  18.948   7.119
    7AU       S 2596  22.659  19.072   7.080
    7AU     LIG 2597  22.859  18.696   6.882
    7AU     LIG 2598  22.825  18.359   6.553
    7AU     LIG 2599  23.066  17.973   6.392
    7AU       S 2600  21.035  19.295   6.947
    7AU     LIG 2601  20.877  19.229   6.503
    7AU     LIG 2602  20.522  19.200   6.244
    7AU     LIG 2603  20.133  18.952   6.212
    7AU       S 2604  20.800  19.355   7.584
    7AU     LIG 2605  20.468  19.142   7.802
    7AU     LIG 2606  20.335  19.046   7.408
    7AU     LIG 2607  19.984  19.107   7.133
    7AU       S 2608  21.215  19.249   8.381
    7AU     LIG 2609  20.830  19.040   8.234
    7AU     LIG 2610  20.604  18.678   8.312
    7AU     LIG 2611  20.194  18.638   8.273
    7AU       S 2612  20.697  19.658   7.760
    7AU     LIG 2613  20.502  19.541   8.145
    7AU     LIG 2614  20.087  19.438   8.095
    7AU     LIG 2615  19.987  19.350   7.662
    7AU       S 2616  21.194  20.890   7.918
    7AU     LIG 2617  20.748  21.110   7.922
    7AU     LIG 2618  20.423  21.313   8.209
    7AU     LIG 2619  20.240  21.333   8.627
    7AU       S 2620  22.082  21.156   7.963
    7AU     LIG 2621  22.367  21.464   8.124
    7AU     LIG 2622  22.265  21.812   8.371
    7AU     LIG 2623  21.865  22.029   8.342
    7AU       S 2624  22.070  21.334   7.703
    7AU     LIG 2625  21.889  21.639   7.960
    7AU     LIG 2626  21.738  22.043   7.836
    7AU     LIG 2627  21.827  22.437   8.005
    7AU       S 2628  22.076  21.104   7.228
    7AU     LIG 2629  22.045  21.590   7.263
    7AU     LIG 2630  22.142  22.049   7.190
    7AU     LIG 2631  22.350  22.439   7.065
    7AU       S 2632  22.645  20.572   8.305
    7AU     LIG 2633  22.867  20.904   8.494
    7AU     LIG 2634  22.872  21.017   8.926
    7AU     LIG 2635  23.084  20.970   9.324
    7AU       S 2636  22.314  21.126   7.660
    7AU     LIG 2637  22.443  21.639   7.645
    7AU     LIG 2638  22.244  21.997   7.895
    7AU     LIG 2639  22.281  22.315   8.235
    7AU       S 2640  22.040  18.793   8.073
    7AU     LIG 2641  22.200  18.366   8.151
    7AU     LIG 2642  22.240  18.113   8.513
    7AU     LIG 2643  22.012  17.787   8.729
    7AU       S 2644  22.469  19.043   8.032
    7AU     LIG 2645  22.548  18.622   7.855
    7AU     LIG 2646  22.870  18.329   7.935
    7AU     LIG 2647  23.315  18.286   8.108
    7AU       S 2648  21.847  18.700   7.905
    7AU     LIG 2649  21.707  18.270   7.910
    7AU     LIG 2650  21.551  17.855   8.055
    7AU     LIG 2651  21.595  17.508   8.385
    7AU       S 2652  21.484  19.367   8.533
    7AU     LIG 2653  21.198  19.134   8.857
    7AU     LIG 2654  20.785  18.936   8.824
    7AU     LIG 2655  20.519  18.852   9.191
    7AU       S 2656  21.918  18.680   7.354
    7AU     LIG 2657  22.163  18.248   7.146
    7AU     LIG 2658  21.931  17.931   6.889
    7AU     LIG 2659  21.484  17.826   6.976
    7AU       S 2660  22.090  18.798   7.809
    7AU     LIG 2661  22.162  18.364   7.646
    7AU     LIG 2662  22.105  17.963   7.815
    7AU     LIG 2663  22.030  17.750   8.201
    7AU       S 2664  21.923  21.113   7.016
    7AU     LIG 2665  21.932  21.508   6.769
    7AU     LIG 2666  22.140  21.924   6.685
    7AU     LIG 2667  22.320  22.352   6.550
    7AU       S 2668  22.627  20.774   7.094
    7AU     LIG 2669  22.947  21.091   6.952
    7AU     LIG 2670  23.280  21.210   6.661
    7AU     LIG 2671  23.492  21.597   6.578
    7AU       S 2672  21.684  21.101   7.199
    7AU     LIG 2673  21.538  21.515   7.106
    7AU     LIG 2674  21.693  21.938   6.975
    7AU     LIG 2675  21.864  22.348   6.798
    7AU       S 2676  21.348  20.531   6.620
    7AU     LIG 2677  21.128  20.808   6.342
    7AU     LIG 2678  21.058  21.243   6.209
    7AU     LIG 2679  20.795  21.587   6.061
    7AU       S 2680  21.065  19.108   7.206
    7AU     LIG 2681  20.635  19.005   6.974
    7AU     LIG 2682  20.534  18.790   6.575
    7AU     LIG 2683  20.270  18.474   6.350
    7AU       S 2684  21.989  18.709   7.123
    7AU     LIG 2685  22.355  18.607   6.835
    7AU     LIG 2686  22.281  18.433   6.429
    7AU     LIG 2687  22.112  18.013   6.318
    7AU       S 2688  22.224  18.786   7.341
    7AU     LIG 2689  22.569  18.536   7.319
    7AU     LIG 2690  22.719  18.229   7.046
    7AU     LIG 2691  22.438  18.074   6.733
    7AU       S 2692  22.599  19.171   6.775
    7AU     LIG 2693  22.642  18.873   6.447
    7AU     LIG 2694  22.649  18.578   6.110
    7AU     LIG 2695  22.612  18.112   6.145
    8AU     AUC 2696  14.863  15.828   7.539
    8AU     AUC 2697  15.113  15.812   7.373
    8AU     AUC 2698  15.120  15.824   7.694
    8AU     AUC 2699  14.597  15.821   7.389
    8AU     AUC 2700  14.611  15.855   7.706
    8AU     AUC 2701  14.719  16.086   7.519
    8AU     AUC 2702  15.038  16.078   7.517
    8AU     AUC 2703  14.694  15.576   7.565
    8AU     AUC 2704  15.009  15.563   7.548
    8AU     AUC 2705  14.862  15.689   7.809
    8AU     AUC 2706  14.883  16.008   7.785
    8AU     AUC 2707  14.850  15.652   7.291
    8AU     AUC 2708  14.861  15.967   7.269
    8AU     AUC 2709  15.367  15.811   7.208
    8AU     AUC 2710  15.371  15.801   7.530
    8AU     AUC 2711  15.376  15.801   7.853
    8AU     AUC 2712  14.338  15.799   7.235
    8AU     AUC 2713  14.338  15.847   7.559
    8AU     AUC 2714  14.369  15.898   7.879
    8AU     AUC 2715  14.571  16.344   7.485
    8AU     AUC 2716  14.911  16.340   7.482
    8AU     AUC 2717  15.227  16.329   7.494
    8AU     AUC 2718  14.531  15.324   7.595
    8AU     AUC 2719  14.850  15.307   7.564
    8AU     AUC 2720  15.165  15.297   7.557
    8AU     AUC 2721  14.860  15.552   8.078
    8AU     AUC 2722  14.875  15.876   8.070
    8AU     AUC 2723  14.914  16.194   8.028
    8AU     AUC 2724  14.857  15.481   7.043
    8AU     AUC 2725  14.845  15.793   7.017
    8AU     AUC 2726  14.853  16.102   6.999
    8AU     AUC 2727  15.113  15.671   7.969
    8AU     AUC 2728  15.151  15.994   7.949
    8AU     AUC 2729  15.120  15.653   7.113
    8AU     AUC 2730  15.112  15.970   7.099
    8AU     AUC 2731  14.612  15.728   7.988
    8AU     AUC 2732  14.629  16.053   7.955
    8AU     AUC 2733  14.584  15.630   7.143
    8AU     AUC 2734  14.587  15.947   7.106
    8AU     AUC 2735  15.298  16.064   7.357
    8AU     AUC 2736  15.303  16.078   7.680
    8AU     AUC 2737  14.443  16.090   7.353
    8AU     AUC 2738  14.460  16.135   7.681
    8AU     AUC 2739  15.260  15.539   7.375
    8AU     AUC 2740  15.269  15.548   7.706
    8AU     AUC 2741  14.418  15.563   7.425
    8AU     AUC 2742  14.440  15.598   7.751
    8AU     AUC 2743  14.741  16.270   7.773
    8AU     AUC 2744  15.081  16.259   7.762
    8AU     AUC 2745  14.695  15.432   7.841
    8AU     AUC 2746  15.010  15.411   7.820
    8AU     AUC 2747  14.704  16.232   7.244
    8AU     AUC 2748  15.044  16.232   7.245
    8AU     AUC 2749  14.683  15.388   7.310
    8AU     AUC 2750  15.019  15.389   7.289
    8AU    AUSL 2751  15.289  15.772   8.163
    8AU    AUSL 2752  15.160  15.429   8.153
    8AU     AUL 2753  15.556  15.583   8.281
    8AU    AUSL 2754  14.971  15.698   8.299
    8AU    AUSL 2755  14.768  16.071   8.284
    8AU     AUL 2756  15.028  15.973   8.574
    8AU    AUSL 2757  15.104  16.070   8.241
    8AU    AUSL 2758  15.459  16.047   8.020
    8AU     AUL 2759  15.429  15.971   8.416
    8AU    AUSL 2760  15.282  15.872   6.904
    8AU    AUSL 2761  15.172  16.219   6.919
    8AU     AUL 2762  15.542  16.025   6.759
    8AU    AUSL 2763  15.066  15.630   6.813
    8AU    AUSL 2764  15.428  15.570   7.037
    8AU     AUL 2765  15.415  15.652   6.656
    8AU    AUSL 2766  14.944  15.944   6.783
    8AU    AUSL 2767  14.725  15.609   6.825
    8AU     AUL 2768  14.950  15.507   6.570
    8AU    AUSL 2769  14.447  16.012   8.173
    8AU    AUSL 2770  14.631  16.340   8.049
    8AU     AUL 2771  14.614  16.370   8.381
    8AU    AUSL 2772  14.624  15.738   8.273
    8AU    AUSL 2773  14.356  15.624   8.060
    8AU     AUL 2774  14.171  15.828   8.211
    8AU    AUSL 2775  14.408  15.669   6.921
    8AU    AUSL 2776  14.544  15.353   7.033
    8AU     AUL 2777  14.637  15.315   6.708
    8AU    AUSL 2778  14.592  15.936   6.823
    8AU    AUSL 2779  14.321  16.070   7.048
    8AU     AUL 2780  14.149  15.852   6.891
    8AU    AUSL 2781  15.539  16.231   7.440
    8AU    AUSL 2782  15.442  16.094   7.116
    8AU     AUL 2783  15.769  16.004   7.071
    8AU    AUSL 2784  15.627  15.904   7.368
    8AU    AUSL 2785  15.608  15.650   7.683
    8AU     AUL 2786  15.938  15.734   7.526
    8AU    AUSL 2787  15.523  15.988   7.684
    8AU    AUSL 2788  15.428  16.341   7.759
    8AU     AUL 2789  15.745  16.056   7.794
    8AU    AUSL 2790  14.281  16.327   7.501
    8AU    AUSL 2791  14.309  16.215   7.935
    8AU     AUL 2792  13.995  16.374   7.709
    8AU    AUSL 2793  14.147  15.991   7.331
    8AU    AUSL 2794  14.418  16.383   7.186
    8AU     AUL 2795  14.040  16.295   7.208
    8AU    AUSL 2796  14.145  16.029   7.707
    8AU    AUSL 2797  14.085  15.683   7.448
    8AU     AUL 2798  13.863  16.060   7.504
    8AU    AUSL 2799  15.463  15.343   7.609
    8AU    AUSL 2800  15.420  15.517   7.944
    8AU     AUL 2801  15.766  15.550   7.925
    8AU    AUSL 2802  15.480  15.591   7.372
    8AU    AUSL 2803  15.353  15.272   7.264
    8AU     AUL 2804  15.714  15.494   7.285
    8AU    AUSL 2805  14.235  15.402   7.622
    8AU    AUSL 2806  14.243  15.525   7.180
    8AU     AUL 2807  14.016  15.300   7.388
    8AU    AUSL 2808  14.141  15.702   7.800
    8AU    AUSL 2809  14.413  15.308   7.915
    8AU     AUL 2810  14.100  15.366   7.948
    8AU    AUSL 2811  14.938  16.499   7.939
    8AU    AUSL 2812  14.476  16.483   7.759
    8AU     AUL 2813  14.691  16.706   8.034
    8AU    AUSL 2814  14.790  16.449   7.623
    8AU    AUSL 2815  15.032  16.584   7.336
    8AU     AUL 2816  14.789  16.763   7.640
    8AU    AUSL 2817  15.153  16.551   7.650
    8AU    AUSL 2818  15.214  16.305   8.031
    8AU     AUL 2819  15.267  16.631   7.969
    8AU    AUSL 2820  14.881  15.236   7.995
    8AU    AUSL 2821  15.221  15.231   7.865
    8AU     AUL 2822  15.001  15.153   8.273
    8AU    AUSL 2823  14.643  15.117   7.763
    8AU    AUSL 2824  14.637  15.412   8.169
    8AU     AUL 2825  14.595  15.035   8.106
    8AU    AUSL 2826  14.964  15.069   7.688
    8AU    AUSL 2827  14.707  15.096   7.415
    8AU     AUL 2828  14.513  14.890   7.593
    8AU    AUSL 2829  14.891  16.386   7.083
    8AU    AUSL 2830  15.298  16.394   7.226
    8AU     AUL 2831  15.090  16.579   6.939
    8AU    AUSL 2832  14.680  16.562   7.314
    8AU    AUSL 2833  14.609  16.250   6.927
    8AU     AUL 2834  14.683  16.564   6.922
    8AU    AUSL 2835  14.842  15.182   7.102
    8AU    AUSL 2836  14.388  15.237   7.336
    8AU     AUL 2837  14.535  14.982   7.109
    8AU    AUSL 2838  15.071  15.104   7.367
    8AU    AUSL 2839  15.139  15.360   6.999
    8AU     AUL 2840  15.132  15.050   6.995
    8AU       S 2841  15.493  15.060   8.314
    8AU     LIG 2842  15.566  14.596   8.368
    8AU     LIG 2843  15.754  14.190   8.488
    8AU     LIG 2844  16.127  13.898   8.600
    8AU       S 2845  15.267  15.512   8.696
    8AU     LIG 2846  15.446  15.757   9.080
    8AU     LIG 2847  15.689  15.842   9.484
    8AU     LIG 2848  15.986  15.633   9.798
    8AU       S 2849  14.925  15.483   8.694
    8AU     LIG 2850  14.997  15.506   9.162
    8AU     LIG 2851  15.350  15.429   9.498
    8AU     LIG 2852  15.675  15.199   9.776
    8AU       S 2853  14.554  16.010   8.752
    8AU     LIG 2854  14.528  15.902   9.187
    8AU     LIG 2855  14.177  15.795   9.471
    8AU     LIG 2856  13.849  15.942   9.775
    8AU       S 2857  15.163  16.469   8.534
    8AU     LIG 2858  15.292  16.646   8.945
    8AU     LIG 2859  15.575  16.542   9.285
    8AU     LIG 2860  15.982  16.357   9.254
    8AU       S 2861  15.787  16.310   8.241
    8AU     LIG 2862  15.884  16.422   8.713
    8AU     LIG 2863  16.191  16.689   8.897
    8AU     LIG 2864  16.449  17.051   9.036
    8AU       S 2865  15.230  16.116   6.376
    8AU     LIG 2866  15.392  16.047   5.922
    8AU     LIG 2867  15.603  15.691   5.714
    8AU     LIG 2868  15.696  15.314   5.454
    8AU       S 2869  15.538  16.537   6.730
    8AU     LIG 2870  15.610  16.902   6.479
    8AU     LIG 2871  15.761  17.115   6.108
    8AU     LIG 2872  16.147  17.307   5.991
    8AU       S 2873  15.745  15.276   6.824
    8AU     LIG 2874  15.959  15.045   6.478
    8AU     LIG 2875  15.892  14.648   6.252
    8AU     LIG 2876  15.771  14.216   6.170
    8AU       S 2877  15.103  15.882   6.292
    8AU     LIG 2878  15.150  15.578   5.961
    8AU     LIG 2879  15.175  15.429   5.529
    8AU     LIG 2880  15.331  15.407   5.091
    8AU       S 2881  14.533  15.710   6.347
    8AU     LIG 2882  14.411  15.701   5.895
    8AU     LIG 2883  14.646  15.538   5.537
    8AU     LIG 2884  14.881  15.671   5.162
    8AU       S 2885  14.933  16.098   6.412
    8AU     LIG 2886  14.755  16.064   5.981
    8AU     LIG 2887  14.989  15.918   5.617
    8AU     LIG 2888  15.336  15.885   5.319
    8AU       S 2889  14.303  16.044   8.640
    8AU     LIG 2890  14.063  15.860   8.944
    8AU     LIG 2891  13.869  15.523   9.123
    8AU     LIG 2892  13.729  15.491   9.544
    8AU       S 2893  14.208  16.657   8.211
    8AU     LIG 2894  13.827  16.841   8.406
    8AU     LIG 2895  13.609  16.817   8.804
    8AU     LIG 2896  13.377  17.093   9.084
    8AU       S 2897  14.173  15.402   8.480
    8AU     LIG 2898  13.694  15.427   8.403
    8AU     LIG 2899  13.296  15.172   8.307
    8AU     LIG 2900  13.098  14.793   8.520
    8AU       S 2901  14.490  15.752   8.667
    8AU     LIG 2902  14.379  15.450   9.017
    8AU     LIG 2903  14.209  15.286   9.431
    8AU     LIG 2904  14.118  15.444   9.881
    8AU       S 2905  14.285  15.629   6.462
    8AU     LIG 2906  14.073  15.397   6.164
    8AU     LIG 2907  13.907  15.588   5.789
    8AU     LIG 2908  14.030  15.875   5.451
    8AU       S 2909  14.160  15.174   6.760
    8AU     LIG 2910  14.178  14.910   6.386
    8AU     LIG 2911  14.026  14.525   6.198
    8AU     LIG 2912  13.678  14.275   6.029
    8AU       S 2913  14.094  16.287   6.653
    8AU     LIG 2914  13.802  16.647   6.603
    8AU     LIG 2915  13.738  17.022   6.350
    8AU     LIG 2916  13.622  17.304   6.013
    8AU       S 2917  14.454  15.958   6.448
    8AU     LIG 2918  14.168  16.084   6.164
    8AU     LIG 2919  14.272  16.220   5.766
    8AU     LIG 2920  14.521  16.030   5.439
    8AU       S 2921  15.737  16.494   6.940
    8AU     LIG 2922  16.026  16.612   6.593
    8AU     LIG 2923  16.155  16.784   6.189
    8AU     LIG 2924  16.549  16.980   6.123
    8AU       S 2925  15.848  16.484   7.430
    8AU     LIG 2926  16.205  16.734   7.253
    8AU     LIG 2927  16.648  16.732   7.428
    8AU     LIG 2928  16.843  16.671   7.870
    8AU       S 2929  16.066  16.242   7.390
    8AU     LIG 2930  16.459  16.292   7.196
    8AU     LIG 2931  16.888  16.271   7.333
    8AU     LIG 2932  17.254  16.243   7.077
    8AU       S 2933  15.948  15.166   7.663
    8AU     LIG 2934  16.304  14.979   7.885
    8AU     LIG 2935  16.702  15.089   8.039
    8AU     LIG 2936  16.952  15.276   7.757
    8AU       S 2937  15.773  16.545   8.007
    8AU     LIG 2938  16.052  16.761   8.344
    8AU     LIG 2939  16.085  17.130   8.651
    8AU     LIG 2940  16.047  17.361   9.067
    8AU       S 2941  16.028  16.397   7.602
    8AU     LIG 2942  16.481  16.317   7.704
    8AU     LIG 2943  16.898  16.159   7.844
    8AU     LIG 2944  17.230  16.356   8.105
    8AU       S 2945  14.066  16.397   8.240
    8AU     LIG 2946  13.671  16.359   8.487
    8AU     LIG 2947  13.240  16.544   8.548
    8AU     LIG 2948  12.997  16.862   8.807
    8AU       S 2949  14.160  16.795   7.420
    8AU     LIG 2950  14.017  17.238   7.469
    8AU     LIG 2951  13.810  17.393   7.082
    8AU     LIG 2952  13.591  17.094   6.827
    8AU       S 2953  13.674  15.826   7.100
    8AU     LIG 2954  13.255  16.074   7.025
    8AU     LIG 2955  12.791  16.244   6.979
    8AU     LIG 2956  12.580  16.571   7.257
    8AU       S 2957  14.199  16.696   6.917
    8AU     LIG 2958  14.208  16.993   6.582
    8AU     LIG 2959  14.027  17.393   6.593
    8AU     LIG 2960  13.603  17.529   6.527
    8AU       S 2961  13.634  15.601   7.579
    8AU     LIG 2962  13.220  15.693   7.424
    8AU     LIG 2963  12.900  15.719   7.079
    8AU     LIG 2964  12.530  15.485   6.991
    8AU       S 2965  13.734  16.070   8.033
    8AU     LIG 2966  13.294  16.136   8.202
    8AU     LIG 2967  12.922  16.371   8.099
    8AU     LIG 2968  12.635  16.556   7.781
    8AU       S 2969  15.671  14.975   7.589
    8AU     LIG 2970  15.875  14.528   7.538
    8AU     LIG 2971  16.297  14.447   7.726
    8AU     LIG 2972  16.698  14.620   7.861
    8AU       S 2973  15.672  15.074   8.091
    8AU     LIG 2974  15.927  14.697   8.023
    8AU     LIG 2975  16.283  14.560   8.231
    8AU     LIG 2976  16.265  14.403   8.658
    8AU       S 2977  15.858  15.053   7.443
    8AU     LIG 2978  16.242  14.839   7.386
    8AU     LIG 2979  16.618  14.994   7.477
    8AU     LIG 2980  16.933  15.142   7.192
    8AU       S 2981  15.643  15.035   7.008
    8AU     LIG 2982  15.740  14.666   6.771
    8AU     LIG 2983  15.672  14.244   6.676
    8AU     LIG 2984  15.390  13.958   6.478
    8AU       S 2985  13.965  15.337   6.871
    8AU     LIG 2986  13.735  15.163   6.497
    8AU     LIG 2987  13.595  14.782   6.285
    8AU     LIG 2988  13.306  14.432   6.364
    8AU       S 2989  13.655  15.400   7.731
    8AU     LIG 2990  13.389  15.075   7.785
    8AU     LIG 2991  13.104  15.141   7.447
    8AU     LIG 2992  12.709  15.081   7.262
    8AU       S 2993  14.184  15.142   8.384
    8AU     LIG 2994  13.770  14.962   8.214
    8AU     LIG 2995  13.425  14.682   8.143
    8AU     LIG 2996  13.317  14.325   8.389
    8AU       S 2997  13.688  15.640   7.818
    8AU     LIG 2998  13.343  15.643   8.063
    8AU     LIG 2999  13.055  15.434   7.884
    8AU     LIG 3000  12.783  15.086   7.837
    8AU       S 3001  14.209  16.805   7.912
    8AU     LIG 3002  14.027  17.171   8.055
    8AU     LIG 3003  13.606  17.261   8.184
    8AU     LIG 3004  13.324  17.099   8.485
    8AU       S 3005  15.060  17.080   7.938
    8AU     LIG 3006  15.324  17.381   8.138
    8AU     LIG 3007  15.163  17.704   8.410
    8AU     LIG 3008  14.739  17.891   8.450
    8AU       S 3009  15.046  17.268   7.688
    8AU     LIG 3010  14.896  17.618   7.947
    8AU     LIG 3011  14.515  17.860   7.970
    8AU     LIG 3012  14.090  17.998   7.882
    8AU       S 3013  14.996  17.014   7.234
    8AU     LIG 3014  14.843  17.462   7.260
    8AU     LIG 3015  15.114  17.801   7.208
    8AU     LIG 3016  15.092  18.036   6.814
    8AU       S 3017  15.603  16.487   8.303
    8AU     LIG 3018  15.607  16.842   8.582
    8AU     LIG 3019  15.748  16.932   8.998
    8AU     LIG 3020  16.040  16.886   9.354
    8AU       S 3021  15.282  17.023   7.638
    8AU     LIG 3022  15.476  17.495   7.649
    8AU     LIG 3023  15.353  17.863   7.907
    8AU     LIG 3024  15.084  18.129   8.149
    8AU       S 3025  15.012  14.688   8.068
    8AU     LIG 3026  15.217  14.268   8.194
    8AU     LIG 3027  15.230  13.826   8.388
    8AU     LIG 3028  15.091  13.378   8.482
    8AU       S 3029  15.439  14.947   8.020
    8AU     LIG 3030  15.490  14.554   7.850
    8AU     LIG 3031  15.691  14.200   7.965
    8AU     LIG 3032  16.104  14.084   8.119
    8AU       S 3033  14.790  14.591   7.893
    8AU     LIG 3034  14.771  14.106   7.991
    8AU     LIG 3035  14.809  13.620   8.013
    8AU     LIG 3036  14.443  13.327   8.019
    8AU       S 3037  14.431  15.272   8.547
    8AU     LIG 3038  14.026  15.097   8.845
    8AU     LIG 3039  13.625  14.834   8.714
    8AU     LIG 3040  13.335  14.471   8.880
    8AU       S 3041  14.874  14.608   7.357
    8AU     LIG 3042  15.014  14.172   7.215
    8AU     LIG 3043  14.928  13.915   6.923
    8AU     LIG 3044  14.909  13.526   7.139
    8AU       S 3045  15.034  14.706   7.814
    8AU     LIG 3046  15.133  14.260   7.685
    8AU     LIG 3047  15.261  13.848   7.883
    8AU     LIG 3048  15.372  13.412   8.050
    8AU       S 3049  14.838  17.019   7.021
    8AU     LIG 3050  14.658  17.266   6.675
    8AU     LIG 3051  14.848  17.523   6.314
    8AU     LIG 3052  15.009  17.972   6.308
    8AU       S 3053  15.574  16.685   7.074
    8AU     LIG 3054  15.880  16.989   6.915
    8AU     LIG 3055  16.085  17.156   6.532
    8AU     LIG 3056  16.443  17.413   6.394
    8AU       S 3057  14.613  16.987   7.218
    8AU     LIG 3058  14.295  17.208   7.046
    8AU     LIG 3059  14.332  17.616   6.952
    8AU     LIG 3060  14.639  17.785   6.681
    8AU       S 3061  14.307  16.439   6.616
    8AU     LIG 3062  14.141  16.622   6.212
    8AU     LIG 3063  14.100  17.048   5.995
    8AU     LIG 3064  14.090  17.517   6.089
    8AU       S 3065  14.046  15.034   6.961
    8AU     LIG 3066  13.867  14.680   6.718
    8AU     LIG 3067  13.768  14.256   6.567
    8AU     LIG 3068  13.484  13.945   6.373
    8AU       S 3069  14.914  14.631   7.118
    8AU     LIG 3070  15.137  14.400   6.780
    8AU     LIG 3071  14.932  14.164   6.459
    8AU     LIG 3072  14.902  13.714   6.386
    8AU       S 3073  15.183  14.679   7.348
    8AU     LIG 3074  15.483  14.383   7.164
    8AU     LIG 3075  15.425  13.934   6.994
    8AU     LIG 3076  15.257  13.544   6.764
    8AU       S 3077  15.529  15.142   6.720
    8AU     LIG 3078  15.456  14.884   6.390
    8AU     LIG 3079  15.356  14.465   6.317
    8AU     LIG 3080  15.272  14.145   6.003
    9AU     AUC 3081   5.951  26.868   7.527
    9AU     AUC 3082   6.204  26.852   7.365
    9AU     AUC 3083   6.206  26.864   7.686
    9AU     AUC 3084   5.688  26.863   7.374
    9AU     AUC 3085   5.697  26.896   7.691
    9AU     AUC 3086   5.809  27.128   7.504
    9AU     AUC 3087   6.127  27.119   7.507
    9AU     AUC 3088   5.781  26.616   7.552
    9AU     AUC 3089   6.097  26.603   7.540
    9AU     AUC 3090   5.946  26.729   7.797
    9AU     AUC 3091   5.968  27.048   7.773
    9AU     AUC 3092   5.940  26.692   7.281
    9AU     AUC 3093   5.954  27.007   7.256
    9AU     AUC 3094   6.460  26.848   7.202
    9AU     AUC 3095   6.459  26.844   7.526
    9AU     AUC 3096   6.458  26.844   7.849
    9AU     AUC 3097   5.430  26.841   7.216
    9AU     AUC 3098   5.426  26.889   7.539
    9AU     AUC 3099   5.451  26.939   7.858
    9AU     AUC 3100   5.663  27.387   7.468
    9AU     AUC 3101   6.002  27.381   7.470
    9AU     AUC 3102   6.317  27.370   7.485
    9AU     AUC 3103   5.617  26.364   7.581
    9AU     AUC 3104   5.937  26.348   7.551
    9AU     AUC 3105   6.255  26.338   7.550
    9AU     AUC 3106   5.941  26.590   8.065
    9AU     AUC 3107   5.955  26.914   8.058
    9AU     AUC 3108   5.993  27.232   8.017
    9AU     AUC 3109   5.945  26.519   7.034
    9AU     AUC 3110   5.940  26.829   7.006
    9AU     AUC 3111   5.952  27.139   6.985
    9AU     AUC 3112   6.195  26.711   7.961
    9AU     AUC 3113   6.233  27.034   7.942
    9AU     AUC 3114   6.213  26.690   7.106
    9AU     AUC 3115   6.208  27.004   7.088
    9AU     AUC 3116   5.694  26.767   7.972
    9AU     AUC 3117   5.710  27.091   7.939
    9AU     AUC 3118   5.675  26.671   7.130
    9AU     AUC 3119   5.682  26.989   7.090
    9AU     AUC 3120   6.390  27.104   7.350
    9AU     AUC 3121   6.388  27.120   7.674
    9AU     AUC 3122   5.536  27.132   7.334
    9AU     AUC 3123   5.547  27.177   7.662
    9AU     AUC 3124   6.351  26.578   7.372
    9AU     AUC 3125   6.356  26.590   7.701
    9AU     AUC 3126   5.508  26.605   7.410
    9AU     AUC 3127   5.525  26.639   7.735
    9AU     AUC 3128   5.826  27.311   7.760
    9AU     AUC 3129   6.166  27.300   7.753
    9AU     AUC 3130   5.778  26.471   7.826
    9AU     AUC 3131   6.096  26.451   7.810
    9AU     AUC 3132   5.800  27.273   7.228
    9AU     AUC 3133   6.139  27.270   7.233
    9AU     AUC 3134   5.769  26.428   7.299
    9AU     AUC 3135   6.105  26.431   7.283
    9AU    AUSL 3136   6.365  26.813   8.158
    9AU    AUSL 3137   6.241  26.467   8.145
    9AU     AUL 3138   6.627  26.625   8.287
    9AU    AUSL 3139   6.045  26.735   8.287
    9AU    AUSL 3140   5.841  27.104   8.269
    9AU     AUL 3141   6.089  27.008   8.566
    9AU    AUSL 3142   6.178  27.110   8.235
    9AU    AUSL 3143   6.541  27.087   8.018
    9AU     AUL 3144   6.501  27.011   8.414
    9AU    AUSL 3145   6.383  26.897   6.892
    9AU    AUSL 3146   6.271  27.250   6.906
    9AU     AUL 3147   6.649  27.049   6.761
    9AU    AUSL 3148   6.161  26.657   6.806
    9AU    AUSL 3149   6.520  26.597   7.037
    9AU     AUL 3150   6.519  26.639   6.662
    9AU    AUSL 3151   6.044  26.971   6.773
    9AU    AUSL 3152   5.816  26.645   6.815
    9AU     AUL 3153   6.038  26.513   6.581
    9AU    AUSL 3154   5.521  27.048   8.153
    9AU    AUSL 3155   5.710  27.377   8.034
    9AU     AUL 3156   5.697  27.402   8.365
    9AU    AUSL 3157   5.698  26.772   8.256
    9AU    AUSL 3158   5.440  26.659   8.034
    9AU     AUL 3159   5.246  26.848   8.191
    9AU    AUSL 3160   5.498  26.714   6.905
    9AU    AUSL 3161   5.627  26.395   7.020
    9AU     AUL 3162   5.691  26.356   6.689
    9AU    AUSL 3163   5.693  26.976   6.810
    9AU    AUSL 3164   5.420  27.115   7.028
    9AU     AUL 3165   5.251  26.899   6.864
    9AU    AUSL 3166   6.631  27.275   7.435
    9AU    AUSL 3167   6.536  27.127   7.108
    9AU     AUL 3168   6.872  27.057   7.077
    9AU    AUSL 3169   6.719  26.948   7.367
    9AU    AUSL 3170   6.696  26.698   7.685
    9AU     AUL 3171   7.026  26.777   7.526
    9AU    AUSL 3172   6.604  27.034   7.680
    9AU    AUSL 3173   6.514  27.383   7.754
    9AU     AUL 3174   6.828  27.093   7.789
    9AU    AUSL 3175   5.376  27.370   7.477
    9AU    AUSL 3176   5.391  27.254   7.911
    9AU     AUL 3177   5.086  27.421   7.670
    9AU    AUSL 3178   5.241  27.029   7.304
    9AU    AUSL 3179   5.517  27.428   7.167
    9AU     AUL 3180   5.139  27.340   7.188
    9AU    AUSL 3181   5.231  27.075   7.674
    9AU    AUSL 3182   5.175  26.727   7.431
    9AU     AUL 3183   4.950  27.107   7.459
    9AU    AUSL 3184   6.559  26.390   7.608
    9AU    AUSL 3185   6.504  26.560   7.943
    9AU     AUL 3186   6.844  26.614   7.936
    9AU    AUSL 3187   6.570  26.638   7.373
    9AU    AUSL 3188   6.441  26.310   7.268
    9AU     AUL 3189   6.796  26.555   7.271
    9AU    AUSL 3190   5.325  26.454   7.610
    9AU    AUSL 3191   5.334  26.566   7.167
    9AU     AUL 3192   5.118  26.337   7.401
    9AU    AUSL 3193   5.222  26.753   7.781
    9AU    AUSL 3194   5.488  26.335   7.897
    9AU     AUL 3195   5.165  26.427   7.930
    9AU    AUSL 3196   6.018  27.538   7.932
    9AU    AUSL 3197   5.559  27.524   7.742
    9AU     AUL 3198   5.759  27.744   8.015
    9AU    AUSL 3199   5.877  27.490   7.612
    9AU    AUSL 3200   6.129  27.623   7.325
    9AU     AUL 3201   5.867  27.804   7.613
    9AU    AUSL 3202   6.237  27.591   7.645
    9AU    AUSL 3203   6.295  27.341   8.023
    9AU     AUL 3204   6.352  27.664   7.968
    9AU    AUSL 3205   5.971  26.275   7.984
    9AU    AUSL 3206   6.312  26.271   7.857
    9AU     AUL 3207   6.094  26.182   8.260
    9AU    AUSL 3208   5.737  26.166   7.747
    9AU    AUSL 3209   5.716  26.447   8.146
    9AU     AUL 3210   5.690  26.065   8.080
    9AU    AUSL 3211   6.057  26.112   7.674
    9AU    AUSL 3212   5.789  26.130   7.401
    9AU     AUL 3213   5.598  25.934   7.606
    9AU    AUSL 3214   5.991  27.425   7.070
    9AU    AUSL 3215   6.394  27.431   7.214
    9AU     AUL 3216   6.190  27.613   6.926
    9AU    AUSL 3217   5.778  27.605   7.297
    9AU    AUSL 3218   5.710  27.293   6.909
    9AU     AUL 3219   5.785  27.614   6.910
    9AU    AUSL 3220   5.923  26.226   7.091
    9AU    AUSL 3221   5.475  26.276   7.324
    9AU     AUL 3222   5.621  26.021   7.084
    9AU    AUSL 3223   6.152  26.148   7.348
    9AU    AUSL 3224   6.230  26.399   7.008
    9AU     AUL 3225   6.196  26.113   6.956
    9AU       S 3226   6.584  26.091   8.306
    9AU     LIG 3227   6.705  25.617   8.375
    9AU     LIG 3228   6.660  25.194   8.598
    9AU     LIG 3229   6.983  24.887   8.732
    9AU       S 3230   6.325  26.542   8.687
    9AU     LIG 3231   6.514  26.776   9.047
    9AU     LIG 3232   6.772  26.875   9.419
    9AU     LIG 3233   7.036  26.743   9.773
    9AU       S 3234   5.987  26.515   8.675
    9AU     LIG 3235   6.035  26.564   9.143
    9AU     LIG 3236   6.374  26.519   9.485
    9AU     LIG 3237   6.719  26.331   9.756
    9AU       S 3238   5.609  27.039   8.733
    9AU     LIG 3239   5.483  26.933   9.165
    9AU     LIG 3240   5.129  27.008   9.443
    9AU     LIG 3241   5.035  26.926   9.899
    9AU       S 3242   6.226  27.504   8.524
    9AU     LIG 3243   6.438  27.738   8.847
    9AU     LIG 3244   6.806  27.660   9.079
    9AU     LIG 3245   7.067  27.301   9.183
    9AU       S 3246   6.865  27.345   8.234
    9AU     LIG 3247   7.041  27.435   8.661
    9AU     LIG 3248   7.279  27.748   8.885
    9AU     LIG 3249   7.484  28.148   9.016
    9AU       S 3250   6.347  27.102   6.362
    9AU     LIG 3251   6.478  27.020   5.902
    9AU     LIG 3252   6.667  26.641   5.718
    9AU     LIG 3253   6.701  26.233   5.498
    9AU       S 3254   6.635  27.560   6.708
    9AU     LIG 3255   6.710  27.993   6.599
    9AU     LIG 3256   6.938  28.193   6.263
    9AU     LIG 3257   7.168  28.326   5.897
    9AU       S 3258   6.842  26.250   6.872
    9AU     LIG 3259   7.053  26.056   6.501
    9AU     LIG 3260   7.058  25.685   6.250
    9AU     LIG 3261   7.195  25.287   6.374
    9AU       S 3262   6.210  26.872   6.291
    9AU     LIG 3263   6.188  26.582   5.941
    9AU     LIG 3264   6.200  26.404   5.515
    9AU     LIG 3265   6.384  26.314   5.098
    9AU       S 3266   5.659  26.761   6.333
    9AU     LIG 3267   5.504  26.731   5.914
    9AU     LIG 3268   5.652  26.534   5.539
    9AU     LIG 3269   5.543  26.675   5.114
    9AU       S 3270   6.054  27.108   6.395
    9AU     LIG 3271   5.893  27.059   5.950
    9AU     LIG 3272   6.089  26.905   5.558
    9AU     LIG 3273   6.449  26.802   5.282
    9AU       S 3274   5.361  27.098   8.608
    9AU     LIG 3275   5.059  26.985   8.879
    9AU     LIG 3276   5.064  26.604   9.120
    9AU     LIG 3277   5.019  26.510   9.571
    9AU       S 3278   5.282  27.681   8.213
    9AU     LIG 3279   5.126  27.571   8.674
    9AU     LIG 3280   4.788  27.609   8.981
    9AU     LIG 3281   4.630  28.018   9.169
    9AU       S 3282   5.251  26.412   8.450
    9AU     LIG 3283   4.776  26.301   8.417
    9AU     LIG 3284   4.498  25.917   8.478
    9AU     LIG 3285   4.472  25.633   8.860
    9AU       S 3286   5.543  26.788   8.642
    9AU     LIG 3287   5.545  26.472   8.959
    9AU     LIG 3288   5.492  26.423   9.376
    9AU     LIG 3289   5.482  26.733   9.691
    9AU       S 3290   5.387  26.700   6.426
    9AU     LIG 3291   5.153  26.359   6.238
    9AU     LIG 3292   5.122  26.401   5.787
    9AU     LIG 3293   5.172  26.739   5.474
    9AU       S 3294   5.212  26.216   6.762
    9AU     LIG 3295   4.981  25.898   6.502
    9AU     LIG 3296   4.855  25.826   6.059
    9AU     LIG 3297   4.532  25.602   5.801
    9AU       S 3298   5.188  27.337   6.641
    9AU     LIG 3299   4.835  27.638   6.744
    9AU     LIG 3300   4.606  27.921   6.495
    9AU     LIG 3301   4.375  27.995   6.097
    9AU       S 3302   5.566  27.011   6.430
    9AU     LIG 3303   5.286  27.174   6.150
    9AU     LIG 3304   5.305  27.200   5.714
    9AU     LIG 3305   5.612  27.044   5.457
    9AU       S 3306   6.830  27.536   6.917
    9AU     LIG 3307   7.145  27.727   6.596
    9AU     LIG 3308   7.398  27.956   6.257
    9AU     LIG 3309   7.654  28.146   5.909
    9AU       S 3310   6.954  27.524   7.416
    9AU     LIG 3311   7.392  27.705   7.258
    9AU     LIG 3312   7.819  27.873   7.405
    9AU     LIG 3313   7.952  28.027   7.813
    9AU       S 3314   7.162  27.279   7.416
    9AU     LIG 3315   7.566  27.143   7.399
    9AU     LIG 3316   7.880  27.342   7.208
    9AU     LIG 3317   8.204  27.580   7.222
    9AU       S 3318   7.054  26.238   7.685
    9AU     LIG 3319   7.427  26.112   7.903
    9AU     LIG 3320   7.840  25.975   8.003
    9AU     LIG 3321   8.178  25.881   7.742
    9AU       S 3322   6.854  27.579   8.015
    9AU     LIG 3323   7.210  27.753   8.268
    9AU     LIG 3324   7.307  28.144   8.527
    9AU     LIG 3325   7.244  28.540   8.776
    9AU       S 3326   7.115  27.443   7.618
    9AU     LIG 3327   7.579  27.539   7.720
    9AU     LIG 3328   8.066  27.514   7.725
    9AU     LIG 3329   8.435  27.659   8.010
    9AU       S 3330   5.147  27.434   8.198
    9AU     LIG 3331   4.716  27.446   8.364
    9AU     LIG 3332   4.325  27.559   8.527
    9AU     LIG 3333   4.263  27.754   8.916
    9AU       S 3334   5.264  27.846   7.397
    9AU     LIG 3335   4.964  28.107   7.163
    9AU     LIG 3336   4.555  28.012   7.011
    9AU     LIG 3337   4.108  27.836   7.091
    9AU       S 3338   4.790  26.821   7.066
    9AU     LIG 3339   4.430  26.691   6.818
    9AU     LIG 3340   4.104  26.964   6.932
    9AU     LIG 3341   4.099  27.208   7.343
    9AU       S 3342   5.302  27.743   6.900
    9AU     LIG 3343   5.300  28.167   6.777
    9AU     LIG 3344   4.904  28.341   6.631
    9AU     LIG 3345   4.559  28.404   6.349
    9AU       S 3346   4.724  26.649   7.536
    9AU     LIG 3347   4.332  26.670   7.319
    9AU     LIG 3348   3.995  26.487   7.097
    9AU     LIG 3349   3.881  26.077   6.989
    9AU       S 3350   4.832  27.114   7.990
    9AU     LIG 3351   4.521  26.926   8.253
    9AU     LIG 3352   4.149  27.160   8.193
    9AU     LIG 3353   4.250  27.559   8.006
    9AU       S 3354   6.792  26.087   7.603
    9AU     LIG 3355   6.915  25.704   7.542
    9AU     LIG 3356   7.347  25.697   7.611
    9AU     LIG 3357   7.722  25.891   7.500
    9AU       S 3358   6.761  26.133   8.102
    9AU     LIG 3359   7.042  25.796   8.022
    9AU     LIG 3360   7.340  25.565   8.273
    9AU     LIG 3361   7.172  25.422   8.715
    9AU       S 3362   7.020  26.172   7.456
    9AU     LIG 3363   7.258  25.936   7.166
    9AU     LIG 3364   7.697  25.961   7.002
    9AU     LIG 3365   8.138  26.001   7.186
    9AU       S 3366   6.701  26.031   7.098
    9AU     LIG 3367   6.907  25.678   6.897
    9AU     LIG 3368   6.850  25.246   6.819
    9AU     LIG 3369   6.884  24.915   6.524
    9AU       S 3370   5.038  26.386   6.893
    9AU     LIG 3371   4.730  26.339   6.572
    9AU     LIG 3372   4.484  26.014   6.370
    9AU     LIG 3373   4.202  25.710   6.200
    9AU       S 3374   4.727  26.465   7.697
    9AU     LIG 3375   4.560  26.158   7.459
    9AU     LIG 3376   4.169  26.110   7.412
    9AU     LIG 3377   4.083  25.779   7.657
    9AU       S 3378   5.254  26.137   8.330
    9AU     LIG 3379   4.864  25.920   8.087
    9AU     LIG 3380   4.511  25.599   8.067
    9AU     LIG 3381   4.375  25.314   8.403
    9AU       S 3382   4.752  26.699   7.773
    9AU     LIG 3383   4.328  26.873   7.780
    9AU     LIG 3384   4.207  26.466   7.779
    9AU     LIG 3385   4.354  26.084   7.969
    9AU       S 3386   5.274  27.851   7.899
    9AU     LIG 3387   4.815  27.974   7.853
    9AU     LIG 3388   4.527  27.936   8.212
    9AU     LIG 3389   4.652  27.951   8.633
    9AU       S 3390   6.134  28.107   7.947
    9AU     LIG 3391   6.323  28.492   8.093
    9AU     LIG 3392   6.076  28.826   8.260
    9AU     LIG 3393   5.696  29.096   8.181
    9AU       S 3394   6.106  28.271   7.698
    9AU     LIG 3395   5.871  28.615   7.822
    9AU     LIG 3396   5.808  29.035   7.677
    9AU     LIG 3397   5.791  29.470   7.780
    9AU       S 3398   6.109  28.058   7.223
    9AU     LIG 3399   6.011  28.536   7.286
    9AU     LIG 3400   6.123  28.991   7.250
    9AU     LIG 3401   6.128  29.333   6.912
    9AU       S 3402   6.680  27.529   8.318
    9AU     LIG 3403   6.829  27.900   8.565
    9AU     LIG 3404   6.949  28.135   8.935
    9AU     LIG 3405   7.116  28.005   9.348
    9AU       S 3406   6.359  28.060   7.646
    9AU     LIG 3407   6.488  28.539   7.570
    9AU     LIG 3408   6.297  28.899   7.765
    9AU     LIG 3409   6.177  29.267   8.031
    9AU       S 3410   6.108  25.727   8.036
    9AU     LIG 3411   6.252  25.362   8.270
    9AU     LIG 3412   6.143  25.047   8.596
    9AU     LIG 3413   6.007  24.595   8.602
    9AU       S 3414   6.544  25.972   8.008
    9AU     LIG 3415   6.588  25.520   7.882
    9AU     LIG 3416   6.694  25.159   8.091
    9AU     LIG 3417   7.077  25.144   8.312
    9AU       S 3418   5.905  25.628   7.862
    9AU     LIG 3419   5.722  25.175   7.777
    9AU     LIG 3420   5.441  24.824   7.990
    9AU     LIG 3421   5.566  24.487   8.298
    9AU       S 3422   5.510  26.302   8.503
    9AU     LIG 3423   5.207  26.084   8.825
    9AU     LIG 3424   4.944  25.724   8.665
    9AU     LIG 3425   4.795  25.263   8.718
    9AU       S 3426   5.942  25.664   7.338
    9AU     LIG 3427   5.775  25.269   7.246
    9AU     LIG 3428   5.971  25.037   6.926
    9AU     LIG 3429   6.170  24.641   6.965
    9AU       S 3430   6.156  25.748   7.777
    9AU     LIG 3431   6.216  25.322   7.590
    9AU     LIG 3432   6.208  25.042   7.875
    9AU     LIG 3433   5.923  24.857   8.167
    9AU       S 3434   5.963  28.064   7.013
    9AU     LIG 3435   5.822  28.454   6.806
    9AU     LIG 3436   5.978  28.876   6.675
    9AU     LIG 3437   6.291  29.125   6.428
    9AU       S 3438   6.673  27.718   7.059
    9AU     LIG 3439   7.033  28.013   7.008
    9AU     LIG 3440   7.253  28.262   6.669
    9AU     LIG 3441   7.455  28.466   6.296
    9AU       S 3442   5.717  28.055   7.191
    9AU     LIG 3443   5.491  28.479   7.190
    9AU     LIG 3444   5.599  28.925   7.027
    9AU     LIG 3445   5.664  29.303   6.700
    9AU       S 3446   5.407  27.486   6.604
    9AU     LIG 3447   5.108  27.736   6.321
    9AU     LIG 3448   4.931  28.128   6.131
    9AU     LIG 3449   4.976  28.606   6.110
    9AU       S 3450   5.115  26.075   6.978
    9AU     LIG 3451   4.664  25.967   6.929
    9AU     LIG 3452   4.489  25.614   6.691
    9AU     LIG 3453   4.613  25.412   6.300
    9AU       S 3454   6.036  25.668   7.096
    9AU     LIG 3455   6.343  25.429   6.810
    9AU     LIG 3456   6.384  24.997   6.628
    9AU     LIG 3457   6.047  24.675   6.486
    9AU       S 3458   6.273  25.748   7.307
    9AU     LIG 3459   6.581  25.454   7.257
    9AU     LIG 3460   6.442  25.059   7.157
    9AU     LIG 3461   6.712  24.778   6.997
    9AU       S 3462   6.651  26.119   6.786
    9AU     LIG 3463   6.601  25.766   6.501
    9AU     LIG 3464   6.667  25.341   6.337
    9AU     LIG 3465   6.890  25.060   6.018
   10AU     AUC 3466  22.389  27.122   7.537
   10AU     AUC 3467  22.640  27.103   7.371
   10AU     AUC 3468  22.645  27.122   7.692
   10AU     AUC 3469  22.125  27.114   7.389
   10AU     AUC 3470  22.135  27.153   7.704
   10AU     AUC 3471  22.247  27.381   7.512
   10AU     AUC 3472  22.564  27.372   7.509
   10AU     AUC 3473  22.219  26.871   7.568
   10AU     AUC 3474  22.535  26.859   7.553
   10AU     AUC 3475  22.385  26.988   7.810
   10AU     AUC 3476  22.408  27.307   7.779
   10AU     AUC 3477  22.376  26.941   7.294
   10AU     AUC 3478  22.387  27.255   7.263
   10AU     AUC 3479  22.894  27.096   7.206
   10AU     AUC 3480  22.897  27.096   7.528
   10AU     AUC 3481  22.899  27.105   7.852
   10AU     AUC 3482  21.868  27.096   7.241
   10AU     AUC 3483  21.867  27.151   7.559
   10AU     AUC 3484  21.890  27.197   7.874
   10AU     AUC 3485  22.103  27.641   7.475
   10AU     AUC 3486  22.440  27.633   7.467
   10AU     AUC 3487  22.754  27.622   7.480
   10AU     AUC 3488  22.049  26.620   7.599
   10AU     AUC 3489  22.377  26.603   7.572
   10AU     AUC 3490  22.693  26.595   7.567
   10AU     AUC 3491  22.382  26.853   8.083
   10AU     AUC 3492  22.397  27.178   8.067
   10AU     AUC 3493  22.436  27.496   8.020
   10AU     AUC 3494  22.381  26.763   7.049
   10AU     AUC 3495  22.369  27.072   7.016
   10AU     AUC 3496  22.378  27.382   6.991
   10AU     AUC 3497  22.637  26.975   7.971
   10AU     AUC 3498  22.674  27.298   7.943
   10AU     AUC 3499  22.645  26.937   7.113
   10AU     AUC 3500  22.637  27.251   7.092
   10AU     AUC 3501  22.133  27.026   7.985
   10AU     AUC 3502  22.151  27.350   7.950
   10AU     AUC 3503  22.111  26.915   7.148
   10AU     AUC 3504  22.111  27.233   7.104
   10AU     AUC 3505  22.825  27.353   7.349
   10AU     AUC 3506  22.827  27.377   7.672
   10AU     AUC 3507  21.973  27.386   7.348
   10AU     AUC 3508  21.987  27.435   7.676
   10AU     AUC 3509  22.788  26.830   7.380
   10AU     AUC 3510  22.795  26.848   7.710
   10AU     AUC 3511  21.946  26.856   7.432
   10AU     AUC 3512  21.955  26.894   7.745
   10AU     AUC 3513  22.268  27.568   7.765
   10AU     AUC 3514  22.607  27.559   7.751
   10AU     AUC 3515  22.217  26.732   7.843
   10AU     AUC 3516  22.535  26.713   7.827
   10AU     AUC 3517  22.233  27.521   7.232
   10AU     AUC 3518  22.570  27.518   7.231
   10AU     AUC 3519  22.209  26.677   7.321
   10AU     AUC 3520  22.545  26.681   7.298
   10AU    AUSL 3521  22.812  27.083   8.163
   10AU    AUSL 3522  22.686  26.739   8.160
   10AU     AUL 3523  23.080  26.898   8.286
   10AU    AUSL 3524  22.495  27.008   8.300
   10AU    AUSL 3525  22.284  27.370   8.281
   10AU     AUL 3526  22.554  27.291   8.568
   10AU    AUSL 3527  22.619  27.381   8.231
   10AU    AUSL 3528  22.982  27.354   8.013
   10AU     AUL 3529  22.942  27.289   8.413
   10AU    AUSL 3530  22.804  27.145   6.898
   10AU    AUSL 3531  22.699  27.491   6.907
   10AU     AUL 3532  23.074  27.290   6.758
   10AU    AUSL 3533  22.586  26.902   6.808
   10AU    AUSL 3534  22.955  26.850   7.041
   10AU     AUL 3535  22.944  26.906   6.663
   10AU    AUSL 3536  22.462  27.217   6.776
   10AU    AUSL 3537  22.241  26.879   6.832
   10AU     AUL 3538  22.444  26.781   6.567
   10AU    AUSL 3539  21.961  27.304   8.168
   10AU    AUSL 3540  22.156  27.632   8.045
   10AU     AUL 3541  22.097  27.658   8.378
   10AU    AUSL 3542  22.146  27.034   8.272
   10AU    AUSL 3543  21.881  26.923   8.057
   10AU     AUL 3544  21.690  27.116   8.217
   10AU    AUSL 3545  21.924  26.948   6.927
   10AU    AUSL 3546  22.069  26.627   7.049
   10AU     AUL 3547  22.099  26.597   6.706
   10AU    AUSL 3548  22.112  27.210   6.832
   10AU    AUSL 3549  21.842  27.355   7.042
   10AU     AUL 3550  21.660  27.092   6.933
   10AU    AUSL 3551  23.068  27.525   7.428
   10AU    AUSL 3552  22.969  27.371   7.106
   10AU     AUL 3553  23.308  27.310   7.075
   10AU    AUSL 3554  23.157  27.195   7.365
   10AU    AUSL 3555  23.133  26.952   7.687
   10AU     AUL 3556  23.462  27.014   7.523
   10AU    AUSL 3557  23.044  27.288   7.677
   10AU    AUSL 3558  22.953  27.641   7.745
   10AU     AUL 3559  23.269  27.352   7.784
   10AU    AUSL 3560  21.824  27.634   7.499
   10AU    AUSL 3561  21.836  27.514   7.923
   10AU     AUL 3562  21.526  27.677   7.683
   10AU    AUSL 3563  21.672  27.315   7.330
   10AU    AUSL 3564  21.949  27.671   7.175
   10AU     AUL 3565  21.584  27.617   7.225
   10AU    AUSL 3566  21.664  27.329   7.699
   10AU    AUSL 3567  21.630  27.007   7.457
   10AU     AUL 3568  21.364  27.312   7.491
   10AU    AUSL 3569  22.994  26.640   7.616
   10AU    AUSL 3570  22.946  26.824   7.951
   10AU     AUL 3571  23.292  26.861   7.929
   10AU    AUSL 3572  23.010  26.883   7.375
   10AU    AUSL 3573  22.877  26.561   7.274
   10AU     AUL 3574  23.238  26.784   7.282
   10AU    AUSL 3575  21.719  26.696   7.591
   10AU    AUSL 3576  21.786  26.808   7.200
   10AU     AUL 3577  21.442  26.822   7.276
   10AU    AUSL 3578  21.664  27.002   7.802
   10AU    AUSL 3579  21.923  26.607   7.898
   10AU     AUL 3580  21.627  26.678   7.945
   10AU    AUSL 3581  22.458  27.802   7.923
   10AU    AUSL 3582  22.015  27.787   7.757
   10AU     AUL 3583  22.212  27.986   8.070
   10AU    AUSL 3584  22.319  27.739   7.605
   10AU    AUSL 3585  22.564  27.870   7.313
   10AU     AUL 3586  22.304  28.050   7.605
   10AU    AUSL 3587  22.673  27.850   7.633
   10AU    AUSL 3588  22.737  27.612   8.019
   10AU     AUL 3589  22.799  27.938   7.940
   10AU    AUSL 3590  22.409  26.539   8.008
   10AU    AUSL 3591  22.750  26.537   7.877
   10AU     AUL 3592  22.529  26.469   8.288
   10AU    AUSL 3593  22.175  26.425   7.773
   10AU    AUSL 3594  22.148  26.708   8.162
   10AU     AUL 3595  22.112  26.336   8.099
   10AU    AUSL 3596  22.496  26.370   7.704
   10AU    AUSL 3597  22.237  26.382   7.432
   10AU     AUL 3598  22.043  26.184   7.628
   10AU    AUSL 3599  22.416  27.672   7.062
   10AU    AUSL 3600  22.826  27.676   7.206
   10AU     AUL 3601  22.617  27.842   6.908
   10AU    AUSL 3602  22.212  27.855   7.294
   10AU    AUSL 3603  22.134  27.531   6.913
   10AU     AUL 3604  22.191  27.860   6.911
   10AU    AUSL 3605  22.371  26.474   7.122
   10AU    AUSL 3606  21.918  26.516   7.359
   10AU     AUL 3607  22.093  26.253   7.125
   10AU    AUSL 3608  22.598  26.397   7.381
   10AU    AUSL 3609  22.666  26.646   7.009
   10AU     AUL 3610  22.630  26.344   6.992
   10AU       S 3611  23.019  26.371   8.329
   10AU     LIG 3612  22.999  25.895   8.381
   10AU     LIG 3613  23.245  25.528   8.517
   10AU     LIG 3614  23.595  25.460   8.790
   10AU       S 3615  22.793  26.831   8.701
   10AU     LIG 3616  22.982  27.040   9.099
   10AU     LIG 3617  23.220  27.099   9.510
   10AU     LIG 3618  23.570  27.004   9.818
   10AU       S 3619  22.456  26.803   8.699
   10AU     LIG 3620  22.516  26.805   9.162
   10AU     LIG 3621  22.827  26.741   9.522
   10AU     LIG 3622  23.131  26.718   9.891
   10AU       S 3623  22.084  27.293   8.753
   10AU     LIG 3624  22.089  27.125   9.172
   10AU     LIG 3625  21.761  27.047   9.485
   10AU     LIG 3626  21.337  27.128   9.670
   10AU       S 3627  22.651  27.794   8.509
   10AU     LIG 3628  22.797  27.980   8.902
   10AU     LIG 3629  23.176  27.883   9.115
   10AU     LIG 3630  23.422  27.501   9.181
   10AU       S 3631  23.305  27.612   8.225
   10AU     LIG 3632  23.427  27.678   8.676
   10AU     LIG 3633  23.628  28.001   8.899
   10AU     LIG 3634  23.824  28.391   9.026
   10AU       S 3635  22.757  27.384   6.377
   10AU     LIG 3636  22.925  27.365   5.935
   10AU     LIG 3637  23.130  27.022   5.721
   10AU     LIG 3638  23.145  26.623   5.474
   10AU       S 3639  23.067  27.802   6.699
   10AU     LIG 3640  23.216  28.174   6.490
   10AU     LIG 3641  23.399  28.374   6.126
   10AU     LIG 3642  23.773  28.568   5.959
   10AU       S 3643  23.263  26.521   6.847
   10AU     LIG 3644  23.444  26.377   6.439
   10AU     LIG 3645  23.437  26.015   6.167
   10AU     LIG 3646  23.566  25.594   6.223
   10AU       S 3647  22.651  27.137   6.292
   10AU     LIG 3648  22.639  26.914   5.894
   10AU     LIG 3649  22.638  26.749   5.464
   10AU     LIG 3650  22.805  26.624   5.064
   10AU       S 3651  22.023  26.990   6.365
   10AU     LIG 3652  22.011  27.065   5.959
   10AU     LIG 3653  22.184  26.915   5.608
   10AU     LIG 3654  21.988  26.683   5.295
   10AU       S 3655  22.452  27.345   6.392
   10AU     LIG 3656  22.400  27.384   5.917
   10AU     LIG 3657  22.613  27.259   5.517
   10AU     LIG 3658  22.971  27.085   5.245
   10AU       S 3659  21.829  27.307   8.656
   10AU     LIG 3660  21.594  27.207   9.015
   10AU     LIG 3661  21.338  26.882   9.203
   10AU     LIG 3662  21.163  26.637   9.560
   10AU       S 3663  21.711  27.961   8.166
   10AU     LIG 3664  21.547  28.183   8.482
   10AU     LIG 3665  21.269  28.239   8.814
   10AU     LIG 3666  21.139  28.535   9.118
   10AU       S 3667  21.689  26.677   8.474
   10AU     LIG 3668  21.235  26.577   8.558
   10AU     LIG 3669  20.986  26.186   8.624
   10AU     LIG 3670  20.789  25.838   8.854
   10AU       S 3671  22.007  27.031   8.664
   10AU     LIG 3672  21.803  26.739   8.988
   10AU     LIG 3673  21.676  26.549   9.399
   10AU     LIG 3674  21.584  26.695   9.843
   10AU       S 3675  21.767  26.942   6.467
   10AU     LIG 3676  21.682  26.597   6.184
   10AU     LIG 3677  21.722  26.674   5.745
   10AU     LIG 3678  21.688  27.087   5.558
   10AU       S 3679  21.671  26.355   6.863
   10AU     LIG 3680  21.531  26.085   6.543
   10AU     LIG 3681  21.342  25.919   6.184
   10AU     LIG 3682  21.041  25.895   5.851
   10AU       S 3683  21.604  27.521   6.675
   10AU     LIG 3684  21.228  27.761   6.632
   10AU     LIG 3685  21.096  28.118   6.355
   10AU     LIG 3686  21.027  28.243   5.915
   10AU       S 3687  21.964  27.233   6.459
   10AU     LIG 3688  21.676  27.395   6.174
   10AU     LIG 3689  21.817  27.536   5.785
   10AU     LIG 3690  22.110  27.397   5.469
   10AU       S 3691  23.251  27.785   6.909
   10AU     LIG 3692  23.620  27.904   6.661
   10AU     LIG 3693  23.786  28.059   6.256
   10AU     LIG 3694  24.132  28.186   6.001
   10AU       S 3695  23.381  27.765   7.398
   10AU     LIG 3696  23.759  27.940   7.186
   10AU     LIG 3697  24.192  27.901   7.360
   10AU     LIG 3698  24.581  28.029   7.573
   10AU       S 3699  23.625  27.506   7.413
   10AU     LIG 3700  24.112  27.391   7.423
   10AU     LIG 3701  24.561  27.525   7.300
   10AU     LIG 3702  24.686  27.697   6.877
   10AU       S 3703  23.480  26.469   7.684
   10AU     LIG 3704  23.863  26.350   7.926
   10AU     LIG 3705  24.307  26.515   7.974
   10AU     LIG 3706  24.692  26.740   8.113
   10AU       S 3707  23.298  27.839   8.005
   10AU     LIG 3708  23.588  28.041   8.320
   10AU     LIG 3709  23.601  28.440   8.567
   10AU     LIG 3710  23.617  28.842   8.828
   10AU       S 3711  23.537  27.706   7.591
   10AU     LIG 3712  23.949  27.716   7.788
   10AU     LIG 3713  24.413  27.607   7.806
   10AU     LIG 3714  24.784  27.747   8.074
   10AU       S 3715  21.580  27.707   8.210
   10AU     LIG 3716  21.152  27.850   8.296
   10AU     LIG 3717  20.853  27.985   8.618
   10AU     LIG 3718  20.818  28.135   9.059
   10AU       S 3719  21.713  28.106   7.390
   10AU     LIG 3720  21.443  28.463   7.385
   10AU     LIG 3721  21.164  28.580   7.067
   10AU     LIG 3722  21.233  28.204   6.867
   10AU       S 3723  21.213  27.338   7.001
   10AU     LIG 3724  20.776  27.297   7.168
   10AU     LIG 3725  20.430  27.572   7.123
   10AU     LIG 3726  20.213  27.914   7.342
   10AU       S 3727  21.701  27.967   6.870
   10AU     LIG 3728  21.686  28.369   6.667
   10AU     LIG 3729  21.330  28.551   6.495
   10AU     LIG 3730  21.155  28.701   6.119
   10AU       S 3731  21.150  26.873   7.682
   10AU     LIG 3732  20.747  26.856   7.514
   10AU     LIG 3733  20.347  27.046   7.386
   10AU     LIG 3734  20.103  26.882   7.049
   10AU       S 3735  21.270  27.364   8.009
   10AU     LIG 3736  20.848  27.394   8.166
   10AU     LIG 3737  20.642  27.790   8.131
   10AU     LIG 3738  20.713  28.055   7.771
   10AU       S 3739  23.210  26.291   7.604
   10AU     LIG 3740  23.494  25.935   7.717
   10AU     LIG 3741  23.881  25.854   7.858
   10AU     LIG 3742  24.151  25.770   7.542
   10AU       S 3743  23.203  26.389   8.111
   10AU     LIG 3744  23.474  26.033   8.207
   10AU     LIG 3745  23.847  25.800   8.397
   10AU     LIG 3746  24.083  25.602   8.770
   10AU       S 3747  23.418  26.367   7.453
   10AU     LIG 3748  23.852  26.183   7.424
   10AU     LIG 3749  24.260  26.180   7.165
   10AU     LIG 3750  24.707  26.031   7.064
   10AU       S 3751  23.140  26.291   7.058
   10AU     LIG 3752  23.340  25.960   6.804
   10AU     LIG 3753  23.340  25.521   6.689
   10AU     LIG 3754  23.311  25.168   6.370
   10AU       S 3755  21.542  26.516   6.900
   10AU     LIG 3756  21.288  26.534   6.529
   10AU     LIG 3757  21.093  26.366   6.154
   10AU     LIG 3758  20.679  26.166   6.115
   10AU       S 3759  21.207  26.616   7.690
   10AU     LIG 3760  21.036  26.348   7.383
   10AU     LIG 3761  20.708  26.289   7.054
   10AU     LIG 3762  20.229  26.273   7.115
   10AU       S 3763  21.680  26.412   8.356
   10AU     LIG 3764  21.237  26.243   8.168
   10AU     LIG 3765  21.049  25.818   8.247
   10AU     LIG 3766  21.349  25.492   8.409
   10AU       S 3767  21.193  26.904   7.856
   10AU     LIG 3768  20.796  26.840   8.062
   10AU     LIG 3769  20.392  26.899   7.884
   10AU     LIG 3770  20.110  27.251   7.827
   10AU       S 3771  21.753  28.124   7.882
   10AU     LIG 3772  21.361  28.347   7.986
   10AU     LIG 3773  21.096  28.370   8.350
   10AU     LIG 3774  20.882  28.558   8.670
   10AU       S 3775  22.542  28.367   7.932
   10AU     LIG 3776  22.715  28.731   8.088
   10AU     LIG 3777  22.421  29.028   8.207
   10AU     LIG 3778  22.275  29.363   8.496
   10AU       S 3779  22.464  28.566   7.681
   10AU     LIG 3780  22.076  28.709   7.923
   10AU     LIG 3781  21.932  29.128   8.073
   10AU     LIG 3782  22.227  29.457   7.985
   10AU       S 3783  22.567  28.282   7.201
   10AU     LIG 3784  22.516  28.741   7.216
   10AU     LIG 3785  22.343  29.126   7.355
   10AU     LIG 3786  22.411  29.507   7.109
   10AU       S 3787  23.111  27.800   8.304
   10AU     LIG 3788  23.181  28.136   8.612
   10AU     LIG 3789  23.291  28.377   8.989
   10AU     LIG 3790  23.482  28.240   9.390
   10AU       S 3791  22.749  28.349   7.645
   10AU     LIG 3792  22.896  28.806   7.593
   10AU     LIG 3793  22.814  29.174   7.845
   10AU     LIG 3794  22.701  29.447   8.194
   10AU       S 3795  22.548  26.004   8.094
   10AU     LIG 3796  22.674  25.555   8.146
   10AU     LIG 3797  22.870  25.150   8.322
   10AU     LIG 3798  22.648  24.757   8.506
   10AU       S 3799  22.975  26.261   8.034
   10AU     LIG 3800  23.036  25.872   7.871
   10AU     LIG 3801  23.158  25.537   8.026
   10AU     LIG 3802  23.544  25.545   8.071
   10AU       S 3803  22.346  25.903   7.916
   10AU     LIG 3804  22.264  25.459   7.834
   10AU     LIG 3805  22.096  25.067   7.968
   10AU     LIG 3806  21.691  24.820   8.008
   10AU       S 3807  21.937  26.552   8.536
   10AU     LIG 3808  21.583  26.276   8.818
   10AU     LIG 3809  21.324  25.840   8.794
   10AU     LIG 3810  21.107  25.400   8.854
   10AU       S 3811  22.399  25.901   7.389
   10AU     LIG 3812  22.289  25.467   7.318
   10AU     LIG 3813  22.507  25.184   7.048
   10AU     LIG 3814  22.818  24.905   7.099
   10AU       S 3815  22.577  26.005   7.834
   10AU     LIG 3816  22.721  25.573   7.623
   10AU     LIG 3817  22.845  25.189   7.810
   10AU     LIG 3818  22.569  24.850   8.011
   10AU       S 3819  22.411  28.299   6.980
   10AU     LIG 3820  22.219  28.683   6.794
   10AU     LIG 3821  22.324  29.135   6.753
   10AU     LIG 3822  22.629  29.470   6.623
   10AU       S 3823  23.095  27.970   7.047
   10AU     LIG 3824  23.428  28.283   6.948
   10AU     LIG 3825  23.689  28.442   6.582
   10AU     LIG 3826  24.087  28.558   6.353
   10AU       S 3827  22.183  28.307   7.184
   10AU     LIG 3828  21.853  28.623   7.139
   10AU     LIG 3829  21.920  29.053   7.059
   10AU     LIG 3830  21.882  29.436   6.805
   10AU       S 3831  21.818  27.697   6.611
   10AU     LIG 3832  21.582  27.906   6.285
   10AU     LIG 3833  21.523  28.300   6.084
   10AU     LIG 3834  21.689  28.716   6.152
   10AU       S 3835  21.571  26.303   7.170
   10AU     LIG 3836  21.207  26.126   6.949
   10AU     LIG 3837  20.993  26.082   6.572
   10AU     LIG 3838  20.868  25.739   6.323
   10AU       S 3839  22.503  25.900   7.155
   10AU     LIG 3840  22.794  25.733   6.794
   10AU     LIG 3841  22.854  25.305   6.611
   10AU     LIG 3842  22.775  24.844   6.585
   10AU       S 3843  22.725  26.007   7.371
   10AU     LIG 3844  23.049  25.803   7.226
   10AU     LIG 3845  23.034  25.377   7.087
   10AU     LIG 3846  23.236  25.036   6.844
   10AU       S 3847  23.056  26.392   6.756
   10AU     LIG 3848  22.996  26.089   6.448
   10AU     LIG 3849  23.052  25.678   6.303
   10AU     LIG 3850  23.146  25.414   5.954
   11POPC   NC3 3851  21.315  12.357   9.299
   11POPC   PO4 3852  21.475  11.812   9.673
   11POPC   GL1 3853  21.635  11.831   9.240
   11POPC   GL2 3854  21.386  11.629   9.066
   11POPC   C1A 3855  21.627  12.088   8.840
   11POPC   D2A 3856  21.354  12.262   8.501
   11POPC   C3A 3857  21.198  11.988   8.180
   11POPC   C4A 3858  21.455  12.144   7.862
   11POPC   C1B 3859  21.314  11.753   8.653
   11POPC   C2B 3860  21.610  11.690   8.316
   11POPC   C3B 3861  21.650  11.690   7.879
   11POPC   C4B 3862  21.206  11.718   7.713
   12POPC   NC3 3863  22.355  44.680   9.737
   12POPC   PO4 3864  21.886  44.391   9.389
   12POPC   GL1 3865  22.071  44.736   9.136
   12POPC   GL2 3866  22.428  44.845   9.237
   12POPC   C1A 3867  21.880  44.864   8.750
   12POPC   D2A 3868  21.784  44.690   8.332
   12POPC   C3A 3869  21.943  44.866   7.956
   12POPC   C4A 3870  21.900  44.623   7.586
   12POPC   C1B 3871  22.540  44.656   8.865
   12POPC   C2B 3872  22.474  44.806   8.454
   12POPC   C3B 3873  22.514  44.971   8.076
   12POPC   C4B 3874  22.414  44.707   7.762
   13POPC   NC3 3875   8.667  10.679   9.650
   13POPC   PO4 3876   9.058  10.287   9.372
   13POPC   GL1 3877   8.977  10.665   9.132
   13POPC   GL2 3878   8.816  10.963   9.224
   13POPC   C1A 3879   8.948  10.644   8.684
   13POPC   D2A 3880   9.102  10.329   8.399
   13POPC   C3A 3881   9.242  10.391   7.975
   13POPC   C4A 3882   9.252  10.557   7.539
   13POPC   C1B 3883   8.628  11.107   8.836
   13POPC   C2B 3884   8.640  10.939   8.406
   13POPC   C3B 3885   8.908  10.752   8.120
   13POPC   C4B 3886   8.814  10.827   7.702
   14POPC   NC3 3887  19.478  36.148   9.862
   14POPC   PO4 3888  18.867  36.101   9.733
   14POPC   GL1 3889  18.962  36.041   9.275
   14POPC   GL2 3890  19.292  35.978   9.088
   14POPC   C1A 3891  18.869  35.886   8.851
   14POPC   D2A 3892  18.735  36.066   8.463
   14POPC   C3A 3893  18.937  36.093   8.071
   14POPC   C4A 3894  18.805  35.875   7.752
   14POPC   C1B 3895  19.347  36.158   8.748
   14POPC   C2B 3896  19.257  36.304   8.398
   14POPC   C3B 3897  19.448  36.308   8.005
   14POPC   C4B 3898  19.311  36.071   7.624
   15POPC   NC3 3899  23.364   0.503   9.574
   15POPC   PO4 3900  24.027   0.710   9.588
   15POPC   GL1 3901  24.085   0.503   9.181
   15POPC   GL2 3902  23.976   0.165   9.311
   15POPC   C1A 3903  23.981   0.597   8.710
   15POPC   D2A 3904  23.634   0.689   8.390
   15POPC   C3A 3905  23.667   0.615   7.928
   15POPC   C4A 3906  23.948   0.700   7.588
   15POPC   C1B 3907  23.875   0.136   8.883
   15POPC   C2B 3908  23.810   0.191   8.444
   15POPC   C3B 3909  23.470   0.217   8.168
   15POPC   C4B 3910  23.431   0.184   7.744
   16POPC   NC3 3911  26.668   6.865   9.392
   16POPC   PO4 3912  26.515   6.242   9.666
   16POPC   GL1 3913  26.739   6.367   9.227
   16POPC   GL2 3914  27.116   6.271   9.148
   16POPC   C1A 3915  26.692   6.578   8.783
   16POPC   D2A 3916  26.579   6.605   8.324
   16POPC   C3A 3917  26.720   6.879   7.973
   16POPC   C4A 3918  26.995   6.777   7.648
   16POPC   C1B 3919  27.334   6.416   8.755
   16POPC   C2B 3920  27.234   6.588   8.340
   16POPC   C3B 3921  27.021   6.386   8.002
   16POPC   C4B 3922  27.118   6.294   7.571
   17POPC   NC3 3923   6.871  23.706   9.525
   17POPC   PO4 3924   6.216  24.060   9.433
   17POPC   GL1 3925   6.522  23.825   9.147
   17POPC   GL2 3926   6.877  23.870   9.063
   17POPC   C1A 3927   6.574  23.837   8.687
   17POPC   D2A 3928   6.847  23.897   8.391
   17POPC   C3A 3929   6.587  23.858   8.082
   17POPC   C4A 3930   6.545  23.609   7.731
   17POPC   C1B 3931   6.938  23.511   8.800
   17POPC   C2B 3932   6.907  23.367   8.368
   17POPC   C3B 3933   7.011  23.584   7.971
   17POPC   C4B 3934   6.935  23.936   7.705
   18POPC   NC3 3935  15.079   2.677   9.604
   18POPC   PO4 3936  15.633   2.812   9.613
   18POPC   GL1 3937  15.363   2.965   9.244
   18POPC   GL2 3938  15.079   2.732   9.108
   18POPC   C1A 3939  15.411   2.925   8.783
   18POPC   D2A 3940  15.133   2.768   8.460
   18POPC   C3A 3941  15.209   2.869   8.041
   18POPC   C4A 3942  15.109   3.121   7.687
   18POPC   C1B 3943  14.950   2.403   8.806
   18POPC   C2B 3944  15.074   2.258   8.400
   18POPC   C3B 3945  14.872   2.442   8.041
   18POPC   C4B 3946  14.948   2.656   7.648
   19POPC   NC3 3947  31.316  13.941   9.581
   19POPC   PO4 3948  31.801  13.535   9.524
   19POPC   GL1 3949  31.590  13.718   9.164
   19POPC   GL2 3950  31.207  13.815   9.113
   19POPC   C1A 3951  31.476  13.524   8.745
   19POPC   D2A 3952  31.295  13.544   8.326
   19POPC   C3A 3953  31.529  13.499   7.952
   19POPC   C4A 3954  31.335  13.435   7.524
   19POPC   C1B 3955  31.462  14.036   8.806
   19POPC   C2B 3956  31.597  13.944   8.419
   19POPC   C3B 3957  31.385  14.006   8.049
   19POPC   C4B 3958  31.468  13.902   7.646
   20POPC   NC3 3959  44.733   3.974   9.412
   20POPC   PO4 3960  44.588   4.646   9.577
   20POPC   GL1 3961  44.794   4.477   9.200
   20POPC   GL2 3962  44.454   4.394   9.123
   20POPC   C1A 3963  44.845   4.212   8.796
   20POPC   D2A 3964  44.573   3.882   8.582
   20POPC   C3A 3965  44.557   3.898   8.136
   20POPC   C4A 3966  44.587   4.103   7.757
   20POPC   C1B 3967  44.337   4.339   8.694
   20POPC   C2B 3968  44.636   4.350   8.360
   20POPC   C3B 3969  44.954   4.299   8.041
   20POPC   C4B 3970  44.953   4.494   7.608
   21POPC   NC3 3971  24.866  20.061   9.541
   21POPC   PO4 3972  25.172  19.495   9.558
   21POPC   GL1 3973  25.168  19.780   9.229
   21POPC   GL2 3974  24.840  19.821   9.091
   21POPC   C1A 3975  25.443  19.898   8.908
   21POPC   D2A 3976  25.461  19.760   8.491
   21POPC   C3A 3977  25.529  20.036   8.174
   21POPC   C4A 3978  25.355  19.939   7.791
   21POPC   C1B 3979  25.051  19.604   8.765
   21POPC   C2B 3980  25.019  19.481   8.359
   21POPC   C3B 3981  24.967  19.714   8.028
   21POPC   C4B 3982  25.046  19.557   7.649
   22POPC   NC3 3983   5.009   9.621   9.474
   22POPC   PO4 3984   5.630   9.549   9.741
   22POPC   GL1 3985   5.472   9.575   9.266
   22POPC   GL2 3986   5.206   9.817   9.057
   22POPC   C1A 3987   5.399   9.447   8.795
   22POPC   D2A 3988   5.208   9.675   8.430
   22POPC   C3A 3989   5.323   9.611   8.013
   22POPC   C4A 3990   5.431   9.948   7.766
   22POPC   C1B 3991   4.882   9.628   8.821
   22POPC   C2B 3992   4.668   9.681   8.465
   22POPC   C3B 3993   4.807   9.635   8.078
   22POPC   C4B 3994   4.596   9.510   7.751
   23POPC   NC3 3995  33.803  35.572   9.471
   23POPC   PO4 3996  33.970  34.895   9.624
   23POPC   GL1 3997  34.036  35.153   9.245
   23POPC   GL2 3998  33.688  35.298   9.054
   23POPC   C1A 3999  34.099  35.095   8.813
   23POPC   D2A 4000  33.898  35.408   8.562
   23POPC   C3A 4001  33.892  35.387   8.116
   23POPC   C4A 4002  33.991  35.549   7.710
   23POPC   C1B 4003  33.390  35.332   8.662
   23POPC   C2B 4004  33.422  35.221   8.243
   23POPC   C3B 4005  33.527  35.210   7.796
   23POPC   C4B 4006  33.490  35.542   7.511
   24POPC   NC3 4007  12.406  35.913   9.319
   24POPC   PO4 4008  11.935  36.303   9.580
   24POPC   GL1 4009  11.973  36.249   9.142
   24POPC   GL2 4010  11.784  35.935   9.038
   24POPC   C1A 4011  11.990  36.261   8.686
   24POPC   D2A 4012  11.923  36.076   8.289
   24POPC   C3A 4013  12.203  36.276   7.994
   24POPC   C4A 4014  12.110  36.601   7.711
   24POPC   C1B 4015  12.126  35.765   8.747
   24POPC   C2B 4016  12.414  35.868   8.410
   24POPC   C3B 4017  12.233  35.735   8.019
   24POPC   C4B 4018  11.877  35.952   7.774
   25POPC   NC3 4019  28.920  12.969   9.561
   25POPC   PO4 4020  28.407  13.355   9.672
   25POPC   GL1 4021  28.411  13.100   9.270
   25POPC   GL2 4022  28.733  13.029   9.098
   25POPC   C1A 4023  28.286  13.040   8.831
   25POPC   D2A 4024  28.317  13.319   8.504
   25POPC   C3A 4025  28.259  13.171   8.101
   25POPC   C4A 4026  28.567  13.115   7.784
   25POPC   C1B 4027  28.699  12.749   8.776
   25POPC   C2B 4028  28.521  12.830   8.384
   25POPC   C3B 4029  28.626  12.647   7.999
   25POPC   C4B 4030  28.351  12.412   7.751
   26POPC   NC3 4031  26.961  25.445   9.532
   26POPC   PO4 4032  27.324  24.892   9.231
   26POPC   GL1 4033  26.873  25.093   9.135
   26POPC   GL2 4034  26.616  24.822   9.144
   26POPC   C1A 4035  26.648  25.478   8.884
   26POPC   D2A 4036  26.855  25.708   8.548
   26POPC   C3A 4037  26.862  25.467   8.170
   26POPC   C4A 4038  26.851  25.554   7.742
   26POPC   C1B 4039  26.433  25.013   8.781
   26POPC   C2B 4040  26.465  25.248   8.404
   26POPC   C3B 4041  26.421  25.310   7.949
   26POPC   C4B 4042  26.737  25.045   7.722
   27POPC   NC3 4043  42.793   4.173   9.566
   27POPC   PO4 4044  42.113   4.321   9.608
   27POPC   GL1 4045  42.059   4.441   9.202
   27POPC   GL2 4046  42.428   4.424   9.172
   27POPC   C1A 4047  42.145   4.555   8.762
   27POPC   D2A 4048  42.357   4.460   8.328
   27POPC   C3A 4049  42.094   4.459   7.927
   27POPC   C4A 4050  42.122   4.306   7.463
   27POPC   C1B 4051  42.692   4.108   8.918
   27POPC   C2B 4052  42.827   4.212   8.535
   27POPC   C3B 4053  42.767   4.242   8.110
   27POPC   C4B 4054  42.532   4.207   7.748
   28POPC   NC3 4055  28.510  44.846   9.764
   28POPC   PO4 4056  28.498   0.432   9.473
   28POPC   GL1 4057  28.271   0.538   9.133
   28POPC   GL2 4058  28.193   0.177   9.134
   28POPC   C1A 4059  28.295   0.780   8.769
   28POPC   D2A 4060  28.392   0.665   8.352
   28POPC   C3A 4061  28.523   0.266   8.152
   28POPC   C4A 4062  28.713   0.277   7.729
   28POPC   C1B 4063  28.356   0.257   8.715
   28POPC   C2B 4064  28.076   0.182   8.400
   28POPC   C3B 4065  28.013   0.374   8.081
   28POPC   C4B 4066  28.022   0.792   8.031
   29POPC   NC3 4067   5.563  10.852   9.484
   29POPC   PO4 4068   5.838  11.454   9.537
   29POPC   GL1 4069   5.869  11.360   9.101
   29POPC   GL2 4070   5.797  11.025   9.067
   29POPC   C1A 4071   5.822  11.399   8.655
   29POPC   D2A 4072   5.579  11.625   8.363
   29POPC   C3A 4073   5.808  11.708   7.992
   29POPC   C4A 4074   5.810  11.576   7.554
   29POPC   C1B 4075   5.972  10.810   8.748
   29POPC   C2B 4076   6.079  10.985   8.411
   29POPC   C3B 4077   5.869  11.237   8.122
   29POPC   C4B 4078   6.057  11.171   7.714
   30POPC   NC3 4079  43.472  15.536   9.242
   30POPC   PO4 4080  43.144  14.951   9.546
   30POPC   GL1 4081  43.126  15.160   9.147
   30POPC   GL2 4082  42.893  15.430   9.092
   30POPC   C1A 4083  43.066  15.135   8.709
   30POPC   D2A 4084  43.248  15.033   8.319
   30POPC   C3A 4085  42.979  15.071   7.968
   30POPC   C4A 4086  43.180  15.063   7.582
   30POPC   C1B 4087  43.079  15.651   8.731
   30POPC   C2B 4088  43.099  15.544   8.308
   30POPC   C3B 4089  43.039  15.569   7.893
   30POPC   C4B 4090  42.805  15.405   7.557
   31POPC   NC3 4091  26.597   3.608   9.344
   31POPC   PO4 4092  27.186   3.383   9.556
   31POPC   GL1 4093  27.014   3.344   9.169
   31POPC   GL2 4094  27.067   3.717   9.164
   31POPC   C1A 4095  26.794   3.432   8.764
   31POPC   D2A 4096  26.410   3.401   8.503
   31POPC   C3A 4097  26.622   3.454   8.135
   31POPC   C4A 4098  26.655   3.271   7.762
   31POPC   C1B 4099  27.137   3.873   8.779
   31POPC   C2B 4100  26.968   3.756   8.385
   31POPC   C3B 4101  27.058   3.876   7.982
   31POPC   C4B 4102  27.068   3.745   7.516
   32POPC   NC3 4103  19.719  33.962   9.336
   32POPC   PO4 4104  20.228  33.652   9.529
   32POPC   GL1 4105  20.135  33.778   9.102
   32POPC   GL2 4106  20.322  33.998   8.904
   32POPC   C1A 4107  19.898  33.743   8.695
   32POPC   D2A 4108  19.889  33.842   8.233
   32POPC   C3A 4109  19.582  33.598   7.963
   32POPC   C4A 4110  19.613  33.503   7.534
   32POPC   C1B 4111  20.035  34.226   8.660
   32POPC   C2B 4112  19.719  34.352   8.408
   32POPC   C3B 4113  19.848  34.338   8.026
   32POPC   C4B 4114  19.701  34.050   7.789
   33POPC   NC3 4115  11.086  20.936   9.536
   33POPC   PO4 4116  10.470  21.332   9.387
   33POPC   GL1 4117  10.740  21.326   9.087
   33POPC   GL2 4118  10.771  20.978   9.118
   33POPC   C1A 4119  10.760  21.522   8.686
   33POPC   D2A 4120  10.504  21.271   8.398
   33POPC   C3A 4121  10.446  21.353   7.984
   33POPC   C4A 4122  10.704  21.654   7.787
   33POPC   C1B 4123  10.941  21.045   8.682
   33POPC   C2B 4124  10.997  21.260   8.255
   33POPC   C3B 4125  10.876  21.164   7.808
   33POPC   C4B 4126  10.951  20.950   7.383
   34POPC   NC3 4127  44.164  16.079   9.565
   34POPC   PO4 4128  43.604  15.819   9.580
   34POPC   GL1 4129  43.868  15.891   9.203
   34POPC   GL2 4130  43.865  16.228   9.145
   34POPC   C1A 4131  44.077  15.838   8.831
   34POPC   D2A 4132  43.909  15.692   8.495
   34POPC   C3A 4133  43.912  15.887   8.113
   34POPC   C4A 4134  43.775  15.688   7.738
   34POPC   C1B 4135  44.023  16.324   8.715
   34POPC   C2B 4136  44.162  16.512   8.291
   34POPC   C3B 4137  44.123  16.295   7.885
   34POPC   C4B 4138  43.992  16.110   7.504
   35POPC   NC3 4139  42.746  29.000   9.578
   35POPC   PO4 4140  43.249  29.431   9.533
   35POPC   GL1 4141  43.291  29.210   9.151
   35POPC   GL2 4142  42.992  29.020   9.139
   35POPC   C1A 4143  43.173  29.200   8.708
   35POPC   D2A 4144  43.361  29.031   8.375
   35POPC   C3A 4145  43.203  29.197   8.020
   35POPC   C4A 4146  43.145  29.061   7.642
   35POPC   C1B 4147  42.856  28.772   8.805
   35POPC   C2B 4148  42.933  28.696   8.376
   35POPC   C3B 4149  42.787  28.814   7.934
   35POPC   C4B 4150  42.751  28.809   7.412
   36POPC   NC3 4151  34.569  29.712   9.550
   36POPC   PO4 4152  34.807  30.357   9.515
   36POPC   GL1 4153  34.838  30.063   9.159
   36POPC   GL2 4154  34.726  29.730   9.076
   36POPC   C1A 4155  34.739  30.094   8.688
   36POPC   D2A 4156  34.316  30.150   8.437
   36POPC   C3A 4157  34.355  30.068   7.989
   36POPC   C4A 4158  34.749  30.056   7.748
   36POPC   C1B 4159  34.460  29.649   8.730
   36POPC   C2B 4160  34.591  29.672   8.294
   36POPC   C3B 4161  34.528  29.617   7.852
   36POPC   C4B 4162  34.742  29.642   7.433
   37POPC   NC3 4163   9.383  32.096   9.479
   37POPC   PO4 4164  10.041  32.261   9.361
   37POPC   GL1 4165   9.689  32.292   9.097
   37POPC   GL2 4166   9.474  32.017   8.983
   37POPC   C1A 4167   9.672  32.373   8.675
   37POPC   D2A 4168   9.442  32.158   8.385
   37POPC   C3A 4169   9.547  32.386   8.028
   37POPC   C4A 4170   9.969  32.423   7.840
   37POPC   C1B 4171   9.900  31.934   8.760
   37POPC   C2B 4172   9.874  31.786   8.338
   37POPC   C3B 4173   9.967  31.903   7.933
   37POPC   C4B 4174   9.661  32.078   7.639
   38POPC   NC3 4175  14.048  22.008   9.673
   38POPC   PO4 4176  13.562  22.270   9.297
   38POPC   GL1 4177  13.405  21.996   9.098
   38POPC   GL2 4178  13.690  21.963   8.888
   38POPC   C1A 4179  13.234  22.076   8.688
   38POPC   D2A 4180  13.557  22.032   8.381
   38POPC   C3A 4181  13.456  22.210   8.051
   38POPC   C4A 4182  13.462  22.460   7.704
   38POPC   C1B 4183  13.941  22.276   8.664
   38POPC   C2B 4184  13.970  22.447   8.249
   38POPC   C3B 4185  13.924  22.286   7.826
   38POPC   C4B 4186  13.639  21.966   7.632
   39POPC   NC3 4187  25.529  23.395   9.362
   39POPC   PO4 4188  25.286  22.772   9.603
   39POPC   GL1 4189  25.236  22.799   9.169
   39POPC   GL2 4190  25.163  23.149   9.124
   39POPC   C1A 4191  25.256  22.825   8.711
   39POPC   D2A 4192  25.044  22.779   8.325
   39POPC   C3A 4193  25.235  22.750   7.943
   39POPC   C4A 4194  25.504  23.022   7.729
   39POPC   C1B 4195  25.294  23.340   8.747
   39POPC   C2B 4196  25.362  23.180   8.332
   39POPC   C3B 4197  25.142  23.259   7.986
   39POPC   C4B 4198  25.009  23.146   7.592
   40POPC   NC3 4199  39.287  41.454   9.472
   40POPC   PO4 4200  38.638  41.678   9.616
   40POPC   GL1 4201  38.912  41.678   9.194
   40POPC   GL2 4202  39.269  41.507   8.996
   40POPC   C1A 4203  39.003  41.873   8.801
   40POPC   D2A 4204  39.392  41.759   8.577
   40POPC   C3A 4205  39.295  41.708   8.168
   40POPC   C4A 4206  39.196  41.746   7.763
   40POPC   C1B 4207  39.337  41.167   8.701
   40POPC   C2B 4208  39.206  41.091   8.286
   40POPC   C3B 4209  39.341  41.247   7.886
   40POPC   C4B 4210  39.280  41.355   7.439
   41POPC   NC3 4211  10.342  43.025   9.490
   41POPC   PO4 4212  11.021  43.313   9.494
   41POPC   GL1 4213  10.898  43.084   9.134
   41POPC   GL2 4214  10.587  43.185   9.098
   41POPC   C1A 4215  10.866  43.121   8.692
   41POPC   D2A 4216  10.731  43.106   8.283
   41POPC   C3A 4217  10.684  43.395   7.974
   41POPC   C4A 4218  10.495  43.258   7.561
   41POPC   C1B 4219  10.321  43.052   8.792
   41POPC   C2B 4220  10.295  42.860   8.411
   41POPC   C3B 4221  10.280  43.051   7.999
   41POPC   C4B 4222  10.378  42.781   7.681
   42POPC   NC3 4223   1.626   2.528   9.374
   42POPC   PO4 4224   1.153   2.971   9.453
   42POPC   GL1 4225   1.328   2.817   9.082
   42POPC   GL2 4226   1.684   2.931   9.023
   42POPC   C1A 4227   1.258   2.651   8.679
   42POPC   D2A 4228   1.155   2.895   8.314
   42POPC   C3A 4229   1.324   2.701   7.953
   42POPC   C4A 4230   1.673   2.388   7.909
   42POPC   C1B 4231   1.430   3.135   8.692
   42POPC   C2B 4232   1.430   3.341   8.294
   42POPC   C3B 4233   1.584   3.154   7.926
   42POPC   C4B 4234   1.518   2.979   7.534
   43POPC   NC3 4235  26.686  34.945   9.644
   43POPC   PO4 4236  26.714  35.585   9.484
   43POPC   GL1 4237  26.780  35.419   9.109
   43POPC   GL2 4238  26.845  35.108   9.192
   43POPC   C1A 4239  27.070  35.542   8.780
   43POPC   D2A 4240  27.019  35.807   8.384
   43POPC   C3A 4241  27.160  35.586   8.008
   43POPC   C4A 4242  27.026  35.471   7.596
   43POPC   C1B 4243  26.888  35.064   8.755
   43POPC   C2B 4244  26.950  35.283   8.364
   43POPC   C3B 4245  26.887  35.147   7.953
   43POPC   C4B 4246  26.773  34.837   7.670
   44POPC   NC3 4247   9.872  26.972   9.530
   44POPC   PO4 4248   9.387  26.541   9.694
   44POPC   GL1 4249   9.672  26.602   9.213
   44POPC   GL2 4250   9.974  26.795   9.093
   44POPC   C1A 4251   9.838  26.515   8.722
   44POPC   D2A 4252  10.048  26.833   8.426
   44POPC   C3A 4253   9.796  26.953   8.075
   44POPC   C4A 4254   9.659  26.724   7.706
   44POPC   C1B 4255   9.738  27.052   8.781
   44POPC   C2B 4256   9.846  27.354   8.425
   44POPC   C3B 4257   9.645  27.462   8.042
   44POPC   C4B 4258   9.391  27.170   7.808
   45POPC   NC3 4259   8.179  20.177   9.472
   45POPC   PO4 4260   8.100  19.537   9.589
   45POPC   GL1 4261   8.262  19.761   9.202
   45POPC   GL2 4262   8.647  19.714   9.223
   45POPC   C1A 4263   8.183  20.055   8.804
   45POPC   D2A 4264   8.041  19.996   8.391
   45POPC   C3A 4265   8.087  20.063   7.966
   45POPC   C4A 4266   7.788  19.833   7.692
   45POPC   C1B 4267   8.509  19.677   8.774
   45POPC   C2B 4268   8.391  19.603   8.324
   45POPC   C3B 4269   8.506  19.792   7.916
   45POPC   C4B 4270   8.480  19.781   7.466
   46POPC   NC3 4271   4.473  33.564   9.532
   46POPC   PO4 4272   3.951  33.981   9.510
   46POPC   GL1 4273   4.191  33.823   9.169
   46POPC   GL2 4274   4.539  33.947   9.184
   46POPC   C1A 4275   4.249  33.884   8.711
   46POPC   D2A 4276   4.529  33.838   8.319
   46POPC   C3A 4277   4.251  33.915   7.967
   46POPC   C4A 4278   3.904  33.634   7.867
   46POPC   C1B 4279   4.736  33.783   8.803
   46POPC   C2B 4280   4.985  34.028   8.532
   46POPC   C3B 4281   4.916  34.268   8.170
   46POPC   C4B 4282   4.712  34.088   7.808
   47POPC   NC3 4283  15.592   6.351   9.490
   47POPC   PO4 4284  16.115   6.757   9.702
   47POPC   GL1 4285  15.967   6.622   9.258
   47POPC   GL2 4286  16.144   6.307   9.339
   47POPC   C1A 4287  15.732   6.532   8.814
   47POPC   D2A 4288  15.674   6.735   8.391
   47POPC   C3A 4289  15.741   6.652   7.926
   47POPC   C4A 4290  16.069   6.770   7.620
   47POPC   C1B 4291  16.075   6.175   8.917
   47POPC   C2B 4292  16.000   6.206   8.470
   47POPC   C3B 4293  16.159   6.337   8.075
   47POPC   C4B 4294  15.974   6.119   7.783
   48POPC   NC3 4295  37.681  37.562   9.584
   48POPC   PO4 4296  38.128  38.054   9.382
   48POPC   GL1 4297  37.825  37.803   9.145
   48POPC   GL2 4298  37.821  37.409   9.126
   48POPC   C1A 4299  37.458  37.765   8.849
   48POPC   D2A 4300  37.261  37.664   8.431
   48POPC   C3A 4301  37.560  37.640   8.056
   48POPC   C4A 4302  37.534  37.407   7.674
   48POPC   C1B 4303  38.016  37.564   8.749
   48POPC   C2B 4304  37.948  37.783   8.364
   48POPC   C3B 4305  38.127  37.961   7.995
   48POPC   C4B 4306  37.939  37.746   7.658
   49POPC   NC3 4307   0.788  35.968   9.613
   49POPC   PO4 4308   0.319  36.433   9.585
   49POPC   GL1 4309   0.424  36.264   9.210
   49POPC   GL2 4310   0.147  36.063   9.121
   49POPC   C1A 4311   0.561  36.250   8.783
   49POPC   D2A 4312   0.634  36.032   8.408
   49POPC   C3A 4313   0.652  36.141   7.978
   49POPC   C4A 4314   0.375  36.423   7.836
   49POPC   C1B 4315   0.321  35.809   8.801
   49POPC   C2B 4316   0.183  35.745   8.401
   49POPC   C3B 4317   0.172  35.982   8.037
   49POPC   C4B 4318   0.262  35.922   7.607
   50POPC   NC3 4319  40.519  21.282   9.385
   50POPC   PO4 4320  41.074  21.473   9.682
   50POPC   GL1 4321  40.953  21.493   9.218
   50POPC   GL2 4322  40.842  21.232   9.026
   50POPC   C1A 4323  41.017  21.620   8.786
   50POPC   D2A 4324  40.991  21.480   8.361
   50POPC   C3A 4325  40.826  21.599   7.960
   50POPC   C4A 4326  40.896  21.360   7.598
   50POPC   C1B 4327  40.640  21.233   8.650
   50POPC   C2B 4328  40.569  21.194   8.201
   50POPC   C3B 4329  40.415  21.305   7.788
   50POPC   C4B 4330  40.458  21.087   7.383
   51POPC   NC3 4331   3.755   7.757   9.890
   51POPC   PO4 4332   3.482   7.308   9.494
   51POPC   GL1 4333   3.481   7.298   9.100
   51POPC   GL2 4334   3.277   7.003   9.111
   51POPC   C1A 4335   3.572   7.536   8.726
   51POPC   D2A 4336   3.325   7.589   8.384
   51POPC   C3A 4337   3.496   7.452   8.023
   51POPC   C4A 4338   3.874   7.508   7.764
   51POPC   C1B 4339   3.267   7.103   8.676
   51POPC   C2B 4340   3.538   7.050   8.373
   51POPC   C3B 4341   3.787   7.051   8.046
   51POPC   C4B 4342   3.701   7.026   7.656
   52POPC   NC3 4343   8.925  29.839   9.628
   52POPC   PO4 4344   8.953  30.511   9.608
   52POPC   GL1 4345   8.991  30.184   9.266
   52POPC   GL2 4346   8.742  29.903   9.167
   52POPC   C1A 4347   9.172  29.994   8.913
   52POPC   D2A 4348   9.307  30.021   8.508
   52POPC   C3A 4349   9.122  29.909   8.134
   52POPC   C4A 4350   9.305  30.107   7.769
   52POPC   C1B 4351   8.570  29.869   8.777
   52POPC   C2B 4352   8.522  29.650   8.431
   52POPC   C3B 4353   8.625  29.841   8.067
   52POPC   C4B 4354   8.650  30.072   7.664
   53POPC   NC3 4355  33.237   8.104   9.477
   53POPC   PO4 4356  32.583   8.295   9.585
   53POPC   GL1 4357  32.833   8.527   9.223
   53POPC   GL2 4358  33.218   8.565   9.206
   53POPC   C1A 4359  32.770   8.592   8.778
   53POPC   D2A 4360  32.820   8.216   8.502
   53POPC   C3A 4361  32.934   8.336   8.088
   53POPC   C4A 4362  32.931   7.994   7.822
   53POPC   C1B 4363  33.165   8.255   8.868
   53POPC   C2B 4364  33.316   8.103   8.484
   53POPC   C3B 4365  33.388   8.092   8.060
   53POPC   C4B 4366  33.321   8.323   7.699
   54POPC   NC3 4367  41.681  28.990   9.540
   54POPC   PO4 4368  41.189  29.388   9.587
   54POPC   GL1 4369  41.456  29.315   9.177
   54POPC   GL2 4370  41.789  29.343   9.175
   54POPC   C1A 4371  41.609  29.061   8.779
   54POPC   D2A 4372  41.417  29.157   8.420
   54POPC   C3A 4373  41.470  28.963   8.069
   54POPC   C4A 4374  41.416  29.138   7.697
   54POPC   C1B 4375  41.716  29.541   8.746
   54POPC   C2B 4376  41.825  29.495   8.341
   54POPC   C3B 4377  41.911  29.701   7.991
   54POPC   C4B 4378  41.807  29.706   7.564
   55POPC   NC3 4379  19.305  28.884   9.345
   55POPC   PO4 4380  19.016  29.480   9.491
   55POPC   GL1 4381  18.869  29.334   9.086
   55POPC   GL2 4382  19.148  29.214   9.014
   55POPC   C1A 4383  18.791  29.003   8.749
   55POPC   D2A 4384  18.755  29.191   8.373
   55POPC   C3A 4385  18.652  28.942   8.035
   55POPC   C4A 4386  18.869  29.025   7.707
   55POPC   C1B 4387  19.182  29.432   8.636
   55POPC   C2B 4388  19.377  29.565   8.247
   55POPC   C3B 4389  19.134  29.464   7.888
   55POPC   C4B 4390  19.170  29.343   7.469
   56POPC   NC3 4391  10.336   1.983   9.633
   56POPC   PO4 4392  10.940   1.764   9.405
   56POPC   GL1 4393  10.616   1.800   9.058
   56POPC   GL2 4394  10.887   1.903   8.879
   56POPC   C1A 4395  10.479   2.151   8.695
   56POPC   D2A 4396  10.273   2.460   8.425
   56POPC   C3A 4397  10.148   2.232   8.073
   56POPC   C4A 4398  10.227   1.876   7.770
   56POPC   C1B 4399  10.664   1.712   8.550
   56POPC   C2B 4400  10.585   1.977   8.217
   56POPC   C3B 4401  10.889   2.109   7.956
   56POPC   C4B 4402  10.750   1.821   7.682
   57POPC   NC3 4403  36.783  27.248   9.478
   57POPC   PO4 4404  36.571  27.847   9.210
   57POPC   GL1 4405  36.789  27.617   8.972
   57POPC   GL2 4406  37.076  27.551   9.135
   57POPC   C1A 4407  36.852  27.637   8.545
   57POPC   D2A 4408  36.611  27.707   8.230
   57POPC   C3A 4409  36.742  27.368   8.032
   57POPC   C4A 4410  37.110  27.397   7.713
   57POPC   C1B 4411  37.219  27.881   8.787
   57POPC   C2B 4412  37.347  27.820   8.361
   57POPC   C3B 4413  37.088  27.748   8.049
   57POPC   C4B 4414  36.736  27.755   7.712
   58POPC   NC3 4415   3.054  20.367   9.381
   58POPC   PO4 4416   3.782  20.310   9.562
   58POPC   GL1 4417   3.530  20.417   9.196
   58POPC   GL2 4418   3.565  20.730   9.174
   58POPC   C1A 4419   3.345  20.455   8.769
   58POPC   D2A 4420   3.251  20.222   8.386
   58POPC   C3A 4421   3.517  20.284   7.992
   58POPC   C4A 4422   3.611  20.543   7.593
   58POPC   C1B 4423   3.406  20.979   8.842
   58POPC   C2B 4424   3.171  20.871   8.464
   58POPC   C3B 4425   3.447  20.780   8.132
   58POPC   C4B 4426   3.628  21.003   7.803
   59POPC   NC3 4427  39.581  33.346   9.440
   59POPC   PO4 4428  39.520  32.646   9.678
   59POPC   GL1 4429  39.716  32.867   9.301
   59POPC   GL2 4430  40.061  32.923   9.140
   59POPC   C1A 4431  39.697  32.887   8.811
   59POPC   D2A 4432  40.057  32.977   8.477
   59POPC   C3A 4433  39.854  32.991   8.072
   59POPC   C4A 4434  39.723  33.046   7.643
   59POPC   C1B 4435  40.384  33.113   8.879
   59POPC   C2B 4436  40.478  33.316   8.490
   59POPC   C3B 4437  40.305  33.264   8.080
   59POPC   C4B 4438  40.212  33.015   7.704
   60POPC   NC3 4439  16.540  10.233   9.532
   60POPC   PO4 4440  16.507   9.558   9.514
   60POPC   GL1 4441  16.777   9.645   9.160
   60POPC   GL2 4442  16.657   9.963   9.127
   60POPC   C1A 4443  16.757   9.706   8.715
   60POPC   D2A 4444  16.697  10.056   8.442
   60POPC   C3A 4445  16.678   9.871   8.045
   60POPC   C4A 4446  16.553   9.783   7.641
   60POPC   C1B 4447  17.024  10.080   8.940
   60POPC   C2B 4448  17.190  10.096   8.550
   60POPC   C3B 4449  17.149  10.073   8.118
   60POPC   C4B 4450  16.991  10.066   7.695
   61POPC   NC3 4451  15.647  25.939   9.439
   61POPC   PO4 4452  16.336  26.238   9.409
   61POPC   GL1 4453  16.082  26.007   9.178
   61POPC   GL2 4454  15.835  26.289   9.132
   61POPC   C1A 4455  16.077  25.778   8.804
   61POPC   D2A 4456  15.811  25.938   8.454
   61POPC   C3A 4457  15.971  25.819   8.049
   61POPC   C4A 4458  15.817  25.916   7.645
   61POPC   C1B 4459  16.074  26.278   8.747
   61POPC   C2B 4460  16.193  26.262   8.322
   61POPC   C3B 4461  15.856  26.311   8.047
   61POPC   C4B 4462  15.743  26.471   7.679
   62POPC   NC3 4463   3.770  22.664   9.565
   62POPC   PO4 4464   3.448  23.296   9.574
   62POPC   GL1 4465   3.646  23.170   9.176
   62POPC   GL2 4466   3.569  22.806   9.133
   62POPC   C1A 4467   3.536  23.092   8.718
   62POPC   D2A 4468   3.202  22.954   8.426
   62POPC   C3A 4469   3.377  22.902   8.009
   62POPC   C4A 4470   3.677  23.170   7.782
   62POPC   C1B 4471   3.798  22.634   8.793
   62POPC   C2B 4472   3.832  22.775   8.384
   62POPC   C3B 4473   4.017  22.814   7.993
   62POPC   C4B 4474   3.788  22.691   7.668
   63POPC   NC3 4475  13.017  14.002   9.467
   63POPC   PO4 4476  12.673  14.563   9.391
   63POPC   GL1 4477  12.425  14.263   9.130
   63POPC   GL2 4478  12.682  14.000   9.079
   63POPC   C1A 4479  12.456  14.238   8.670
   63POPC   D2A 4480  12.796  14.366   8.393
   63POPC   C3A 4481  12.686  14.632   8.074
   63POPC   C4A 4482  12.544  14.374   7.795
   63POPC   C1B 4483  12.989  14.042   8.752
   63POPC   C2B 4484  13.048  13.913   8.320
   63POPC   C3B 4485  12.996  14.130   7.911
   63POPC   C4B 4486  13.290  14.214   7.549
   64POPC   NC3 4487  44.941  42.725   9.367
   64POPC   PO4 4488  44.792  42.034   9.523
   64POPC   GL1 4489  44.608  42.284   9.144
   64POPC   GL2 4490  44.258  42.429   9.068
   64POPC   C1A 4491  44.465  42.135   8.724
   64POPC   D2A 4492  44.579  42.308   8.332
   64POPC   C3A 4493  44.436  42.160   7.951
   64POPC   C4A 4494  44.610  42.310   7.592
   64POPC   C1B 4495  44.570  42.661   8.769
   64POPC   C2B 4496  44.481  42.817   8.356
   64POPC   C3B 4497  44.613  42.714   7.952
   64POPC   C4B 4498  44.496  42.829   7.556
   65POPC   NC3 4499  31.345  39.008   9.612
   65POPC   PO4 4500  31.929  39.429   9.591
   65POPC   GL1 4501  31.799  39.176   9.243
   65POPC   GL2 4502  31.433  39.273   9.188
   65POPC   C1A 4503  31.700  39.137   8.786
   65POPC   D2A 4504  31.714  39.340   8.401
   65POPC   C3A 4505  31.657  39.048   8.106
   65POPC   C4A 4506  31.402  39.089   7.775
   65POPC   C1B 4507  31.269  39.589   8.876
   65POPC   C2B 4508  31.043  39.567   8.499
   65POPC   C3B 4509  31.149  39.341   8.149
   65POPC   C4B 4510  31.020  39.449   7.728
   66POPC   NC3 4511   1.262  10.153   9.564
   66POPC   PO4 4512   1.164   9.556   9.464
   66POPC   GL1 4513   1.012   9.706   9.082
   66POPC   GL2 4514   0.908  10.041   9.167
   66POPC   C1A 4515   1.075   9.587   8.655
   66POPC   D2A 4516   1.450   9.653   8.344
   66POPC   C3A 4517   1.326   9.692   7.924
   66POPC   C4A 4518   1.148   9.595   7.539
   66POPC   C1B 4519   0.885  10.110   8.740
   66POPC   C2B 4520   1.020   9.947   8.322
   66POPC   C3B 4521   1.046  10.117   7.936
   66POPC   C4B 4522   0.944  10.049   7.522
   67POPC   NC3 4523  24.976  14.130   9.857
   67POPC   PO4 4524  24.603  14.535   9.414
   67POPC   GL1 4525  24.426  14.386   9.050
   67POPC   GL2 4526  24.706  14.270   8.873
   67POPC   C1A 4527  24.195  14.436   8.683
   67POPC   D2A 4528  24.378  14.424   8.308
   67POPC   C3A 4529  24.229  14.521   7.912
   67POPC   C4A 4530  24.399  14.227   7.615
   67POPC   C1B 4531  24.697  14.690   8.720
   67POPC   C2B 4532  24.795  14.744   8.343
   67POPC   C3B 4533  24.860  14.346   8.163
   67POPC   C4B 4534  24.730  14.534   7.842
   68POPC   NC3 4535   3.099  18.820   9.472
   68POPC   PO4 4536   2.481  19.099   9.364
   68POPC   GL1 4537   2.863  19.139   9.137
   68POPC   GL2 4538   2.964  18.845   8.967
   68POPC   C1A 4539   3.049  19.356   8.796
   68POPC   D2A 4540   3.007  19.163   8.382
   68POPC   C3A 4541   2.729  19.347   8.073
   68POPC   C4A 4542   2.630  19.211   7.640
   68POPC   C1B 4543   2.587  18.799   8.711
   68POPC   C2B 4544   2.392  18.973   8.326
   68POPC   C3B 4545   2.676  18.841   7.992
   68POPC   C4B 4546   2.804  18.705   7.583
   69POPC   NC3 4547  30.886  41.844   9.541
   69POPC   PO4 4548  30.427  41.426   9.652
   69POPC   GL1 4549  30.500  41.580   9.202
   69POPC   GL2 4550  30.853  41.485   9.149
   69POPC   C1A 4551  30.568  41.724   8.739
   69POPC   D2A 4552  30.306  41.615   8.365
   69POPC   C3A 4553  30.479  41.652   7.953
   69POPC   C4A 4554  30.858  41.869   7.912
   69POPC   C1B 4555  30.862  41.289   8.739
   69POPC   C2B 4556  30.774  41.393   8.331
   69POPC   C3B 4557  30.867  41.334   7.921
   69POPC   C4B 4558  30.874  41.050   7.625
   70POPC   NC3 4559  11.258  23.958   9.530
   70POPC   PO4 4560  11.090  23.310   9.444
   70POPC   GL1 4561  11.193  23.493   9.055
   70POPC   GL2 4562  11.380  23.651   9.158
   70POPC   C1A 4563  11.291  23.544   8.601
   70POPC   D2A 4564  11.099  23.351   8.247
   70POPC   C3A 4565  11.151  23.510   7.852
   70POPC   C4A 4566  11.152  23.969   7.823
   70POPC   C1B 4567  11.580  23.902   8.897
   70POPC   C2B 4568  11.720  23.834   8.513
   70POPC   C3B 4569  11.505  23.748   8.147
   70POPC   C4B 4570  11.626  23.815   7.727
   71POPC   NC3 4571  31.985  27.299   9.545
   71POPC   PO4 4572  32.415  27.761   9.425
   71POPC   GL1 4573  32.082  27.635   9.177
   71POPC   GL2 4574  31.807  27.816   9.204
   71POPC   C1A 4575  31.940  27.510   8.798
   71POPC   D2A 4576  32.183  27.628   8.461
   71POPC   C3A 4577  32.023  27.694   8.065
   71POPC   C4A 4578  32.281  27.548   7.730
   71POPC   C1B 4579  31.983  27.997   8.791
   71POPC   C2B 4580  32.084  28.132   8.403
   71POPC   C3B 4581  32.295  28.136   8.028
   71POPC   C4B 4582  32.024  28.093   7.714
   72POPC   NC3 4583  16.030  33.410   9.488
   72POPC   PO4 4584  16.220  34.123   9.455
   72POPC   GL1 4585  15.940  33.874   9.149
   72POPC   GL2 4586  15.786  33.523   9.051
   72POPC   C1A 4587  15.928  33.919   8.706
   72POPC   D2A 4588  15.714  33.768   8.343
   72POPC   C3A 4589  15.897  33.970   7.992
   72POPC   C4A 4590  15.668  33.999   7.635
   72POPC   C1B 4591  16.083  33.401   8.738
   72POPC   C2B 4592  16.199  33.576   8.329
   72POPC   C3B 4593  16.226  33.589   7.905
   72POPC   C4B 4594  15.793  33.489   7.756
   73POPC   NC3 4595   7.210  33.776   9.577
   73POPC   PO4 4596   7.871  33.567   9.654
   73POPC   GL1 4597   7.574  33.531   9.262
   73POPC   GL2 4598   7.409  33.857   9.127
   73POPC   C1A 4599   7.413  33.450   8.824
   73POPC   D2A 4600   7.200  33.617   8.471
   73POPC   C3A 4601   7.370  33.445   8.065
   73POPC   C4A 4602   7.544  33.290   7.635
   73POPC   C1B 4603   7.024  33.925   8.868
   73POPC   C2B 4604   6.830  33.988   8.465
   73POPC   C3B 4605   6.970  33.827   8.068
   73POPC   C4B 4606   7.027  34.040   7.666
   74POPC   NC3 4607   4.756   4.606   9.928
   74POPC   PO4 4608   5.038   4.100   9.476
   74POPC   GL1 4609   4.948   4.391   9.082
   74POPC   GL2 4610   4.824   4.705   9.131
   74POPC   C1A 4611   5.006   4.446   8.660
   74POPC   D2A 4612   4.917   4.053   8.471
   74POPC   C3A 4613   4.930   3.973   8.061
   74POPC   C4A 4614   5.055   4.172   7.742
   74POPC   C1B 4615   4.642   4.810   8.747
   74POPC   C2B 4616   4.701   4.707   8.306
   74POPC   C3B 4617   5.021   4.623   7.980
   74POPC   C4B 4618   5.019   4.604   7.502
   75POPC   NC3 4619  12.073  32.575   9.511
   75POPC   PO4 4620  12.067  31.913   9.650
   75POPC   GL1 4621  12.089  32.144   9.207
   75POPC   GL2 4622  11.742  32.287   9.170
   75POPC   C1A 4623  12.324  32.266   8.783
   75POPC   D2A 4624  12.237  32.284   8.301
   75POPC   C3A 4625  12.326  32.073   7.882
   75POPC   C4A 4626  12.325  32.200   7.437
   75POPC   C1B 4627  11.819  32.307   8.734
   75POPC   C2B 4628  11.734  32.168   8.315
   75POPC   C3B 4629  11.851  32.291   7.916
   75POPC   C4B 4630  11.878  32.000   7.585
   76POPC   NC3 4631   0.032  29.720   9.467
   76POPC   PO4 4632   0.729  29.583   9.541
   76POPC   GL1 4633   0.524  29.784   9.156
   76POPC   GL2 4634   0.239  30.034   9.130
   76POPC   C1A 4635   0.573  29.920   8.705
   76POPC   D2A 4636   0.577  29.687   8.286
   76POPC   C3A 4637   0.698  29.893   7.867
   76POPC   C4A 4638   0.720  30.366   7.805
   76POPC   C1B 4639   0.053  29.833   8.732
   76POPC   C2B 4640   0.040  29.932   8.268
   76POPC   C3B 4641   0.250  30.108   7.880
   76POPC   C4B 4642   0.136  30.191   7.418
   77POPC   NC3 4643  38.295  41.366   9.561
   77POPC   PO4 4644  38.303  41.953   9.219
   77POPC   GL1 4645  38.392  41.550   9.079
   77POPC   GL2 4646  38.594  41.263   9.177
   77POPC   C1A 4647  38.378  41.491   8.659
   77POPC   D2A 4648  38.261  41.264   8.312
   77POPC   C3A 4649  38.365  41.531   7.959
   77POPC   C4A 4650  38.308  41.702   7.576
   77POPC   C1B 4651  38.846  41.308   8.809
   77POPC   C2B 4652  38.901  41.505   8.430
   77POPC   C3B 4653  38.877  41.418   7.994
   77POPC   C4B 4654  38.782  41.507   7.558
   78POPC   NC3 4655   2.961  34.614   9.539
   78POPC   PO4 4656   2.381  34.849   9.500
   78POPC   GL1 4657   2.651  34.665   9.147
   78POPC   GL2 4658   2.779  34.281   9.207
   78POPC   C1A 4659   2.992  34.694   8.862
   78POPC   D2A 4660   3.159  34.956   8.509
   78POPC   C3A 4661   3.091  34.832   8.066
   78POPC   C4A 4662   2.781  34.767   7.728
   78POPC   C1B 4663   2.547  34.268   8.859
   78POPC   C2B 4664   2.645  34.481   8.505
   78POPC   C3B 4665   2.808  34.399   8.092
   78POPC   C4B 4666   2.949  34.056   7.827
   79POPC   NC3 4667   2.557  25.013   9.573
   79POPC   PO4 4668   3.065  25.498   9.623
   79POPC   GL1 4669   2.860  25.281   9.232
   79POPC   GL2 4670   2.898  24.939   9.189
   79POPC   C1A 4671   2.658  25.245   8.798
   79POPC   D2A 4672   2.855  25.171   8.415
   79POPC   C3A 4673   2.714  25.268   8.027
   79POPC   C4A 4674   2.576  25.579   7.773
   79POPC   C1B 4675   2.772  24.737   8.773
   79POPC   C2B 4676   2.686  24.679   8.344
   79POPC   C3B 4677   2.573  24.755   7.928
   79POPC   C4B 4678   2.553  25.069   7.586
   80POPC   NC3 4679   4.198  35.939   9.507
   80POPC   PO4 4680   4.071  36.590   9.648
   80POPC   GL1 4681   4.290  36.382   9.279
   80POPC   GL2 4682   4.058  36.183   9.034
   80POPC   C1A 4683   4.549  36.302   8.912
   80POPC   D2A 4684   4.430  36.027   8.579
   80POPC   C3A 4685   4.389  36.138   8.153
   80POPC   C4A 4686   4.401  36.100   7.739
   80POPC   C1B 4687   3.905  35.940   8.624
   80POPC   C2B 4688   4.044  35.754   8.261
   80POPC   C3B 4689   3.995  35.797   7.834
   80POPC   C4B 4690   4.154  35.786   7.427
   81POPC   NC3 4691  40.384  34.062   9.786
   81POPC   PO4 4692  40.401  34.737   9.521
   81POPC   GL1 4693  40.073  34.767   9.164
   81POPC   GL2 4694  40.156  34.477   9.033
   81POPC   C1A 4695  40.100  34.851   8.683
   81POPC   D2A 4696  39.955  34.659   8.367
   81POPC   C3A 4697  40.201  34.508   8.122
   81POPC   C4A 4698  40.080  34.641   7.655
   81POPC   C1B 4699  40.085  34.246   8.678
   81POPC   C2B 4700  39.853  34.167   8.310
   81POPC   C3B 4701  39.800  34.310   7.901
   81POPC   C4B 4702  39.977  34.184   7.474
   82POPC   NC3 4703  39.013  30.705   9.692
   82POPC   PO4 4704  39.610  30.691   9.412
   82POPC   GL1 4705  39.246  30.564   9.197
   82POPC   GL2 4706  39.028  30.866   9.186
   82POPC   C1A 4707  39.278  30.500   8.762
   82POPC   D2A 4708  38.997  30.602   8.449
   82POPC   C3A 4709  39.121  30.684   8.046
   82POPC   C4A 4710  38.915  30.868   7.724
   82POPC   C1B 4711  39.320  30.999   8.872
   82POPC   C2B 4712  39.425  30.892   8.437
   82POPC   C3B 4713  39.627  30.802   8.057
   82POPC   C4B 4714  39.448  30.958   7.676
   83POPC   NC3 4715  18.488  25.193   9.519
   83POPC   PO4 4716  17.852  25.565   9.597
   83POPC   GL1 4717  18.094  25.563   9.214
   83POPC   GL2 4718  18.164  25.194   9.136
   83POPC   C1A 4719  18.006  25.479   8.772
   83POPC   D2A 4720  18.166  25.114   8.547
   83POPC   C3A 4721  18.029  25.160   8.146
   83POPC   C4A 4722  18.138  25.503   7.874
   83POPC   C1B 4723  18.513  25.369   8.878
   83POPC   C2B 4724  18.664  25.240   8.490
   83POPC   C3B 4725  18.529  25.189   8.122
   83POPC   C4B 4726  18.642  25.463   7.880
   84POPC   NC3 4727  31.009  10.517   9.337
   84POPC   PO4 4728  30.544  11.012   9.319
   84POPC   GL1 4729  30.554  10.687   9.057
   84POPC   GL2 4730  30.732  10.417   8.944
   84POPC   C1A 4731  30.554  10.744   8.588
   84POPC   D2A 4732  30.344  10.820   8.201
   84POPC   C3A 4733  30.707  10.886   7.956
   84POPC   C4A 4734  30.923  10.732   7.603
   84POPC   C1B 4735  30.965  10.136   8.728
   84POPC   C2B 4736  30.909  10.410   8.365
   84POPC   C3B 4737  30.777  10.339   7.966
   84POPC   C4B 4738  30.997   9.932   7.921
   85POPC   NC3 4739  31.704  13.034   9.421
   85POPC   PO4 4740  31.219  12.593   9.699
   85POPC   GL1 4741  31.459  12.655   9.187
   85POPC   GL2 4742  31.742  12.563   8.981
   85POPC   C1A 4743  31.439  12.941   8.781
   85POPC   D2A 4744  31.126  13.099   8.469
   85POPC   C3A 4745  31.211  13.090   7.997
   85POPC   C4A 4746  30.997  13.055   7.582
   85POPC   C1B 4747  31.672  12.579   8.522
   85POPC   C2B 4748  31.648  13.009   8.310
   85POPC   C3B 4749  31.768  13.042   7.886
   85POPC   C4B 4750  31.927  12.687   7.658
   86POPC   NC3 4751  44.228  12.489   9.445
   86POPC   PO4 4752  44.281  11.763   9.429
   86POPC   GL1 4753  44.027  11.816   9.055
   86POPC   GL2 4754  43.660  11.870   9.137
   86POPC   C1A 4755  44.163  12.010   8.652
   86POPC   D2A 4756  44.396  12.130   8.267
   86POPC   C3A 4757  44.126  12.083   7.910
   86POPC   C4A 4758  43.719  11.833   7.810
   86POPC   C1B 4759  43.625  12.044   8.715
   86POPC   C2B 4760  43.762  12.013   8.285
   86POPC   C3B 4761  43.692  12.317   7.926
   86POPC   C4B 4762  43.570  12.331   7.481
   87POPC   NC3 4763  10.392  11.719   9.550
   87POPC   PO4 4764  10.891  12.099   9.487
   87POPC   GL1 4765  10.711  11.803   9.157
   87POPC   GL2 4766  10.315  11.839   9.060
   87POPC   C1A 4767  10.697  11.906   8.730
   87POPC   D2A 4768  10.517  12.203   8.460
   87POPC   C3A 4769  10.534  12.015   8.091
   87POPC   C4A 4770  10.440  12.242   7.741
   87POPC   C1B 4771  10.131  12.187   8.796
   87POPC   C2B 4772  10.007  12.212   8.349
   87POPC   C3B 4773  10.052  11.991   7.970
   87POPC   C4B 4774  10.320  11.752   7.681
   88POPC   NC3 4775  24.694  18.425   9.478
   88POPC   PO4 4776  24.120  18.496   9.736
   88POPC   GL1 4777  24.242  18.417   9.223
   88POPC   GL2 4778  24.460  18.652   9.061
   88POPC   C1A 4779  24.416  18.209   8.810
   88POPC   D2A 4780  24.408  17.869   8.483
   88POPC   C3A 4781  24.550  18.023   8.082
   88POPC   C4A 4782  24.422  18.352   7.798
   88POPC   C1B 4783  24.680  18.659   8.692
   88POPC   C2B 4784  24.567  18.523   8.283
   88POPC   C3B 4785  24.822  18.627   7.940
   88POPC   C4B 4786  24.771  18.597   7.493
   89POPC   NC3 4787  38.037  33.816   9.570
   89POPC   PO4 4788  38.676  34.044   9.451
   89POPC   GL1 4789  38.580  33.874   9.058
   89POPC   GL2 4790  38.247  33.704   9.109
   89POPC   C1A 4791  38.831  33.754   8.674
   89POPC   D2A 4792  38.754  33.567   8.267
   89POPC   C3A 4793  38.658  33.765   7.874
   89POPC   C4A 4794  38.613  33.672   7.432
   89POPC   C1B 4795  38.340  33.605   8.694
   89POPC   C2B 4796  38.159  33.617   8.298
   89POPC   C3B 4797  38.158  33.749   7.888
   89POPC   C4B 4798  38.307  34.175   7.807
   90POPC   NC3 4799  39.021  25.634   9.515
   90POPC   PO4 4800  39.456  25.190   9.476
   90POPC   GL1 4801  39.324  25.444   9.148
   90POPC   GL2 4802  39.479  25.728   9.063
   90POPC   C1A 4803  39.099  25.331   8.811
   90POPC   D2A 4804  38.931  25.050   8.476
   90POPC   C3A 4805  38.815  25.188   8.069
   90POPC   C4A 4806  38.903  25.366   7.688
   90POPC   C1B 4807  39.349  25.762   8.654
   90POPC   C2B 4808  39.147  25.518   8.348
   90POPC   C3B 4809  39.308  25.326   8.012
   90POPC   C4B 4810  39.421  25.404   7.609
   91POPC   NC3 4811  20.509  23.365   9.585
   91POPC   PO4 4812  20.877  23.879   9.600
   91POPC   GL1 4813  20.836  23.586   9.245
   91POPC   GL2 4814  20.492  23.668   9.109
   91POPC   C1A 4815  20.908  23.559   8.810
   91POPC   D2A 4816  20.783  23.415   8.396
   91POPC   C3A 4817  20.541  23.708   8.166
   91POPC   C4A 4818  20.553  23.720   7.744
   91POPC   C1B 4819  20.328  23.748   8.663
   91POPC   C2B 4820  20.040  23.686   8.302
   91POPC   C3B 4821  20.064  23.779   7.841
   91POPC   C4B 4822  20.097  23.640   7.399
   92POPC   NC3 4823   9.139  33.917   9.625
   92POPC   PO4 4824   8.848  33.362   9.705
   92POPC   GL1 4825   9.030  33.768   9.185
   92POPC   GL2 4826   8.758  33.979   9.037
   92POPC   C1A 4827   9.187  33.874   8.738
   92POPC   D2A 4828   9.342  34.009   8.299
   92POPC   C3A 4829   9.187  33.768   7.931
   92POPC   C4A 4830   9.324  33.371   7.685
   92POPC   C1B 4831   8.811  34.212   8.669
   92POPC   C2B 4832   8.835  34.106   8.229
   92POPC   C3B 4833   8.673  33.919   7.859
   92POPC   C4B 4834   8.646  33.858   7.400
   93POPC   NC3 4835  19.063  10.996   9.560
   93POPC   PO4 4836  18.933  11.602   9.464
   93POPC   GL1 4837  19.102  11.400   9.129
   93POPC   GL2 4838  19.281  11.075   9.112
   93POPC   C1A 4839  18.819  11.218   8.845
   93POPC   D2A 4840  18.844  11.074   8.435
   93POPC   C3A 4841  19.146  11.225   8.095
   93POPC   C4A 4842  18.892  11.203   7.749
   93POPC   C1B 4843  19.303  11.167   8.680
   93POPC   C2B 4844  19.304  10.849   8.383
   93POPC   C3B 4845  19.404  10.813   7.940
   93POPC   C4B 4846  19.366  11.094   7.574
   94POPC   NC3 4847  10.734  34.401   9.469
   94POPC   PO4 4848  10.193  34.672   9.640
   94POPC   GL1 4849  10.300  34.513   9.210
   94POPC   GL2 4850  10.268  34.167   9.186
   94POPC   C1A 4851  10.595  34.670   8.876
   94POPC   D2A 4852  10.720  34.816   8.474
   94POPC   C3A 4853  10.809  34.451   8.208
   94POPC   C4A 4854  10.839  34.469   7.781
   94POPC   C1B 4855  10.540  34.174   8.841
   94POPC   C2B 4856  10.393  34.399   8.488
   94POPC   C3B 4857  10.290  34.375   8.051
   94POPC   C4B 4858  10.441  34.157   7.714
   95POPC   NC3 4859  38.535  13.219   9.389
   95POPC   PO4 4860  38.300  13.819   9.453
   95POPC   GL1 4861  38.319  13.697   9.048
   95POPC   GL2 4862  38.003  13.892   8.933
   95POPC   C1A 4863  38.538  13.348   8.774
   95POPC   D2A 4864  38.509  13.171   8.372
   95POPC   C3A 4865  38.281  13.477   8.146
   95POPC   C4A 4866  38.411  13.636   7.761
   95POPC   C1B 4867  38.270  13.909   8.585
   95POPC   C2B 4868  38.430  14.037   8.201
   95POPC   C3B 4869  38.751  13.961   7.922
   95POPC   C4B 4870  38.682  13.960   7.454
   96POPC   NC3 4871  23.126  36.842   9.436
   96POPC   PO4 4872  22.510  37.020   9.712
   96POPC   GL1 4873  22.623  36.788   9.244
   96POPC   GL2 4874  22.850  36.499   9.180
   96POPC   C1A 4875  22.872  36.874   8.780
   96POPC   D2A 4876  23.041  36.958   8.346
   96POPC   C3A 4877  22.711  36.979   8.039
   96POPC   C4A 4878  22.775  37.010   7.624
   96POPC   C1B 4879  23.142  36.464   8.860
   96POPC   C2B 4880  23.217  36.492   8.452
   96POPC   C3B 4881  23.012  36.443   8.076
   96POPC   C4B 4882  23.052  36.608   7.700
   97POPC   NC3 4883  10.408  38.914   9.469
   97POPC   PO4 4884  10.752  39.463   9.527
   97POPC   GL1 4885  10.520  39.459   9.144
   97POPC   GL2 4886  10.155  39.443   9.248
   97POPC   C1A 4887  10.669  39.361   8.700
   97POPC   D2A 4888  10.726  39.557   8.273
   97POPC   C3A 4889  10.590  39.294   7.944
   97POPC   C4A 4890  10.466  38.879   7.833
   97POPC   C1B 4891  10.121  39.281   8.817
   97POPC   C2B 4892  10.241  39.378   8.398
   97POPC   C3B 4893  10.120  39.455   7.996
   97POPC   C4B 4894  10.135  39.208   7.619
   98POPC   NC3 4895   3.021   7.161   9.539
   98POPC   PO4 4896   2.564   7.649   9.698
   98POPC   GL1 4897   2.688   7.378   9.233
   98POPC   GL2 4898   2.747   7.104   9.080
   98POPC   C1A 4899   2.970   7.509   8.805
   98POPC   D2A 4900   2.876   7.823   8.431
   98POPC   C3A 4901   2.985   7.686   7.994
   98POPC   C4A 4902   2.686   7.623   7.626
   98POPC   C1B 4903   2.762   7.074   8.647
   98POPC   C2B 4904   2.869   7.294   8.322
   98POPC   C3B 4905   2.736   7.220   7.914
   98POPC   C4B 4906   3.144   7.271   7.703
   99POPC   NC3 4907  23.862  30.214   9.566
   99POPC   PO4 4908  23.427  29.661   9.763
   99POPC   GL1 4909  23.661  29.750   9.276
   99POPC   GL2 4910  23.695  30.068   9.118
   99POPC   C1A 4911  23.770  29.738   8.776
   99POPC   D2A 4912  23.419  29.868   8.504
   99POPC   C3A 4913  23.431  29.801   8.063
   99POPC   C4A 4914  23.782  29.557   7.874
   99POPC   C1B 4915  23.717  30.308   8.731
   99POPC   C2B 4916  24.028  30.436   8.447
   99POPC   C3B 4917  23.833  30.084   8.232
   99POPC   C4B 4918  23.780  30.049   7.790
  100POPC   NC3 4919   9.581  44.586   9.968
  100POPC   PO4 4920   9.960   0.052   9.557
  100POPC   GL1 4921   9.713  44.895   9.188
  100POPC   GL2 4922   9.533  44.563   9.157
  100POPC   C1A 4923   9.885  44.753   8.797
  100POPC   D2A 4924   9.780  44.496   8.468
  100POPC   C3A 4925   9.666  44.699   8.104
  100POPC   C4A 4926   9.815  44.652   7.741
  100POPC   C1B 4927   9.365  44.717   8.715
  100POPC   C2B 4928   9.284  44.453   8.316
  100POPC   C3B 4929   9.393  44.328   7.868
  100POPC   C4B 4930   9.648  44.234   7.485
  101POPC   NC3 4931  36.586   3.592   9.251
  101POPC   PO4 4932  37.183   3.284   9.466
  101POPC   GL1 4933  37.064   3.485   9.102
  101POPC   GL2 4934  37.231   3.771   9.174
  101POPC   C1A 4935  36.881   3.577   8.667
  101POPC   D2A 4936  36.568   3.350   8.408
  101POPC   C3A 4937  36.713   3.434   7.990
  101POPC   C4A 4938  36.744   3.310   7.567
  101POPC   C1B 4939  37.274   3.875   8.772
  101POPC   C2B 4940  37.137   3.987   8.360
  101POPC   C3B 4941  37.351   4.014   7.966
  101POPC   C4B 4942  37.331   3.940   7.483
  102POPC   NC3 4943  27.715   1.368   9.559
  102POPC   PO4 4944  27.612   0.765   9.227
  102POPC   GL1 4945  27.673   1.009   8.955
  102POPC   GL2 4946  27.514   1.258   9.103
  102POPC   C1A 4947  27.751   1.051   8.559
  102POPC   D2A 4948  27.703   1.306   8.256
  102POPC   C3A 4949  27.604   1.059   7.959
  102POPC   C4A 4950  27.770   1.026   7.615
  102POPC   C1B 4951  27.278   1.262   8.733
  102POPC   C2B 4952  27.217   1.074   8.345
  102POPC   C3B 4953  27.208   1.342   8.001
  102POPC   C4B 4954  27.305   1.267   7.559
  103POPC   NC3 4955   5.244  43.818   9.634
  103POPC   PO4 4956   5.729  44.200   9.536
  103POPC   GL1 4957   5.380  44.029   9.207
  103POPC   GL2 4958   5.186  43.709   9.141
  103POPC   C1A 4959   5.192  44.148   8.817
  103POPC   D2A 4960   5.218  44.339   8.415
  103POPC   C3A 4961   5.059  44.067   8.095
  103POPC   C4A 4962   5.069  44.033   7.682
  103POPC   C1B 4963   4.948  43.701   8.746
  103POPC   C2B 4964   4.840  43.616   8.318
  103POPC   C3B 4965   4.725  43.726   7.878
  103POPC   C4B 4966   4.664  43.887   7.397
  104POPC   NC3 4967  35.514  34.242   9.566
  104POPC   PO4 4968  35.726  34.838   9.425
  104POPC   GL1 4969  35.559  34.859   9.027
  104POPC   GL2 4970  35.392  34.537   9.104
  104POPC   C1A 4971  35.346  34.790   8.655
  104POPC   D2A 4972  35.265  34.518   8.332
  104POPC   C3A 4973  35.340  34.815   8.057
  104POPC   C4A 4974  35.286  35.031   7.718
  104POPC   C1B 4975  35.383  34.269   8.774
  104POPC   C2B 4976  35.595  34.069   8.461
  104POPC   C3B 4977  35.654  34.307   8.094
  104POPC   C4B 4978  35.341  34.392   7.773
  105POPC   NC3 4979   0.373  41.101   9.554
  105POPC   PO4 4980   0.536  40.460   9.580
  105POPC   GL1 4981   0.396  40.528   9.166
  105POPC   GL2 4982   0.163  40.781   9.144
  105POPC   C1A 4983   0.408  40.538   8.729
  105POPC   D2A 4984   0.245  40.477   8.320
  105POPC   C3A 4985   0.406  40.707   7.981
  105POPC   C4A 4986   0.320  41.120   8.031
  105POPC   C1B 4987   0.383  41.036   8.802
  105POPC   C2B 4988   0.614  40.908   8.430
  105POPC   C3B 4989   0.864  40.946   8.057
  105POPC   C4B 4990   0.720  41.141   7.690
  106POPC   NC3 4991  34.848   8.479   9.864
  106POPC   PO4 4992  34.418   8.027   9.501
  106POPC   GL1 4993  34.600   8.280   9.193
  106POPC   GL2 4994  34.483   8.596   9.177
  106POPC   C1A 4995  34.501   8.222   8.759
  106POPC   D2A 4996  34.367   8.031   8.378
  106POPC   C3A 4997  34.637   8.073   8.027
  106POPC   C4A 4998  34.535   7.891   7.638
  106POPC   C1B 4999  34.694   8.686   8.770
  106POPC   C2B 5000  34.734   8.478   8.364
  106POPC   C3B 5001  34.577   8.590   7.970
  106POPC   C4B 5002  34.542   8.411   7.546
  107POPC   NC3 5003   6.992  13.147   9.599
  107POPC   PO4 5004   6.357  12.811   9.498
  107POPC   GL1 5005   6.520  12.969   9.169
  107POPC   GL2 5006   6.554  12.617   9.031
  107POPC   C1A 5007   6.833  12.990   8.858
  107POPC   D2A 5008   6.793  12.729   8.496
  107POPC   C3A 5009   6.866  12.870   8.093
  107POPC   C4A 5010   6.858  12.571   7.833
  107POPC   C1B 5011   6.335  12.817   8.720
  107POPC   C2B 5012   6.339  12.961   8.336
  107POPC   C3B 5013   6.384  12.820   7.972
  107POPC   C4B 5014   6.363  12.952   7.598
  108POPC   NC3 5015  17.740  41.842   9.784
  108POPC   PO4 5016  17.721  42.471   9.456
  108POPC   GL1 5017  17.491  42.413   9.110
  108POPC   GL2 5018  17.809  42.473   8.946
  108POPC   C1A 5019  17.483  42.190   8.701
  108POPC   D2A 5020  17.810  42.019   8.456
  108POPC   C3A 5021  17.635  42.110   8.061
  108POPC   C4A 5022  17.363  42.356   7.830
  108POPC   C1B 5023  17.478  42.712   8.706
  108POPC   C2B 5024  17.418  42.606   8.294
  108POPC   C3B 5025  17.581  42.810   7.947
  108POPC   C4B 5026  17.838  42.504   7.750
  109POPC   NC3 5027  34.289   6.902   9.371
  109POPC   PO4 5028  34.800   6.497   9.520
  109POPC   GL1 5029  34.658   6.583   9.143
  109POPC   GL2 5030  34.782   6.910   9.108
  109POPC   C1A 5031  34.560   6.488   8.710
  109POPC   D2A 5032  34.679   6.330   8.286
  109POPC   C3A 5033  34.456   6.482   7.928
  109POPC   C4A 5034  34.520   6.356   7.456
  109POPC   C1B 5035  34.958   6.815   8.744
  109POPC   C2B 5036  34.787   6.838   8.325
  109POPC   C3B 5037  34.631   6.988   7.948
  109POPC   C4B 5038  34.422   6.836   7.567
  110POPC   NC3 5039   7.130  38.953   9.725
  110POPC   PO4 5040   7.465  39.547   9.556
  110POPC   GL1 5041   7.449  39.539   9.108
  110POPC   GL2 5042   7.709  39.328   8.974
  110POPC   C1A 5043   7.386  39.656   8.675
  110POPC   D2A 5044   7.420  39.372   8.355
  110POPC   C3A 5045   7.566  39.457   7.973
  110POPC   C4A 5046   7.396  39.347   7.592
  110POPC   C1B 5047   7.581  38.999   8.664
  110POPC   C2B 5048   7.335  38.699   8.413
  110POPC   C3B 5049   7.429  38.824   8.001
  110POPC   C4B 5050   7.809  39.006   7.860
  111POPC   NC3 5051  27.222  28.275   9.567
  111POPC   PO4 5052  27.830  28.233   9.489
  111POPC   GL1 5053  27.515  28.160   9.148
  111POPC   GL2 5054  27.406  28.534   9.131
  111POPC   C1A 5055  27.417  28.259   8.705
  111POPC   D2A 5056  27.433  28.450   8.285
  111POPC   C3A 5057  27.364  28.200   7.914
  111POPC   C4A 5058  27.568  28.248   7.531
  111POPC   C1B 5059  27.742  28.643   8.809
  111POPC   C2B 5060  27.885  28.684   8.371
  111POPC   C3B 5061  27.717  28.764   7.970
  111POPC   C4B 5062  27.860  28.668   7.582
  112POPC   NC3 5063  29.065  35.208   9.538
  112POPC   PO4 5064  29.062  35.820   9.568
  112POPC   GL1 5065  29.320  35.597   9.240
  112POPC   GL2 5066  29.147  35.309   9.067
  112POPC   C1A 5067  29.482  35.543   8.793
  112POPC   D2A 5068  29.221  35.388   8.471
  112POPC   C3A 5069  29.271  35.559   8.086
  112POPC   C4A 5070  29.377  35.371   7.710
  112POPC   C1B 5071  29.218  34.981   8.789
  112POPC   C2B 5072  29.112  34.846   8.389
  112POPC   C3B 5073  29.098  35.071   8.032
  112POPC   C4B 5074  28.906  35.131   7.645
  113POPC   NC3 5075  18.162   9.837   9.885
  113POPC   PO4 5076  18.131   9.297   9.480
  113POPC   GL1 5077  18.209   9.646   9.172
  113POPC   GL2 5078  18.120   9.972   9.313
  113POPC   C1A 5079  18.484   9.690   8.782
  113POPC   D2A 5080  18.615   9.726   8.337
  113POPC   C3A 5081  18.375   9.551   8.018
  113POPC   C4A 5082  18.154   9.462   7.624
  113POPC   C1B 5083  18.176  10.077   8.854
  113POPC   C2B 5084  18.058   9.971   8.406
  113POPC   C3B 5085  18.130   9.971   7.939
  113POPC   C4B 5086  17.903  10.145   7.553
  114POPC   NC3 5087  26.992  29.500   9.421
  114POPC   PO4 5088  26.520  30.160   9.466
  114POPC   GL1 5089  26.725  29.964   9.142
  114POPC   GL2 5090  26.667  29.649   9.050
  114POPC   C1A 5091  26.763  30.041   8.710
  114POPC   D2A 5092  26.606  30.146   8.315
  114POPC   C3A 5093  26.877  29.966   8.011
  114POPC   C4A 5094  27.321  29.937   7.912
  114POPC   C1B 5095  27.025  29.561   8.756
  114POPC   C2B 5096  27.073  29.392   8.317
  114POPC   C3B 5097  27.028  29.494   7.901
  114POPC   C4B 5098  26.671  29.652   7.612
  115POPC   NC3 5099   5.562  13.704   9.351
  115POPC   PO4 5100   6.131  13.749   9.239
  115POPC   GL1 5101   6.051  13.570   8.929
  115POPC   GL2 5102   5.738  13.461   8.958
  115POPC   C1A 5103   6.165  13.689   8.564
  115POPC   D2A 5104   6.245  13.456   8.281
  115POPC   C3A 5105   6.247  13.667   7.938
  115POPC   C4A 5106   6.287  13.452   7.565
  115POPC   C1B 5107   5.596  13.531   8.586
  115POPC   C2B 5108   5.765  13.716   8.239
  115POPC   C3B 5109   5.752  13.558   7.833
  115POPC   C4B 5110   5.815  13.562   7.420
  116POPC   NC3 5111  16.967  24.894   9.700
  116POPC   PO4 5112  16.843  25.533   9.557
  116POPC   GL1 5113  16.691  25.364   9.178
  116POPC   GL2 5114  16.527  25.019   9.128
  116POPC   C1A 5115  16.613  25.504   8.770
  116POPC   D2A 5116  16.546  25.292   8.399
  116POPC   C3A 5117  16.784  25.421   8.044
  116POPC   C4A 5118  16.536  25.318   7.712
  116POPC   C1B 5119  16.824  25.032   8.806
  116POPC   C2B 5120  16.891  24.889   8.423
  116POPC   C3B 5121  16.676  24.926   8.047
  116POPC   C4B 5122  16.717  24.814   7.649
  117POPC   NC3 5123  20.218  25.049   9.457
  117POPC   PO4 5124  19.542  25.068   9.412
  117POPC   GL1 5125  19.812  25.194   9.079
  117POPC   GL2 5126  20.135  25.338   9.035
  117POPC   C1A 5127  19.759  25.313   8.660
  117POPC   D2A 5128  19.907  25.392   8.223
  117POPC   C3A 5129  19.623  25.198   7.910
  117POPC   C4A 5130  19.595  25.235   7.406
  117POPC   C1B 5131  20.214  25.065   8.687
  117POPC   C2B 5132  20.404  25.115   8.288
  117POPC   C3B 5133  20.367  25.054   7.857
  117POPC   C4B 5134  20.040  25.161   7.639
  118POPC   NC3 5135   7.719  15.250   9.387
  118POPC   PO4 5136   7.115  14.986   9.456
  118POPC   GL1 5137   7.250  15.210   9.143
  118POPC   GL2 5138   6.954  15.310   8.982
  118POPC   C1A 5139   7.428  15.297   8.740
  118POPC   D2A 5140   7.677  15.173   8.375
  118POPC   C3A 5141   7.500  15.115   7.929
  118POPC   C4A 5142   7.415  15.511   7.690
  118POPC   C1B 5143   7.086  14.904   8.772
  118POPC   C2B 5144   7.187  15.003   8.337
  118POPC   C3B 5145   7.036  14.802   7.984
  118POPC   C4B 5146   7.091  14.877   7.579
  119POPC   NC3 5147   8.389  15.490   9.210
  119POPC   PO4 5148   8.359  15.003   9.613
  119POPC   GL1 5149   8.220  14.977   9.182
  119POPC   GL2 5150   8.482  15.034   8.987
  119POPC   C1A 5151   8.014  15.152   8.783
  119POPC   D2A 5152   8.229  15.259   8.412
  119POPC   C3A 5153   8.027  15.116   8.022
  119POPC   C4A 5154   7.908  15.375   7.709
  119POPC   C1B 5155   8.303  14.759   8.664
  119POPC   C2B 5156   8.377  14.789   8.234
  119POPC   C3B 5157   8.517  15.154   7.997
  119POPC   C4B 5158   8.390  15.213   7.565
  120POPC   NC3 5159   9.307  34.887   9.449
  120POPC   PO4 5160   9.051  34.272   9.343
  120POPC   GL1 5161   8.979  34.608   9.076
  120POPC   GL2 5162   9.323  34.669   9.005
  120POPC   C1A 5163   8.976  34.830   8.674
  120POPC   D2A 5164   8.843  34.604   8.337
  120POPC   C3A 5165   8.739  34.656   7.922
  120POPC   C4A 5166   9.070  34.798   7.673
  120POPC   C1B 5167   9.313  34.402   8.668
  120POPC   C2B 5168   9.393  34.566   8.278
  120POPC   C3B 5169   9.177  34.392   7.972
  120POPC   C4B 5170   9.352  34.199   7.685
  121POPC   NC3 5171   7.219  39.753   9.925
  121POPC   PO4 5172   6.660  40.124   9.693
  121POPC   GL1 5173   6.764  40.093   9.196
  121POPC   GL2 5174   7.044  39.935   8.979
  121POPC   C1A 5175   6.613  40.161   8.750
  121POPC   D2A 5176   6.339  39.859   8.499
  121POPC   C3A 5177   6.470  39.713   8.071
  121POPC   C4A 5178   6.443  39.995   7.745
  121POPC   C1B 5179   6.865  39.681   8.668
  121POPC   C2B 5180   6.847  39.940   8.335
  121POPC   C3B 5181   6.586  40.257   8.195
  121POPC   C4B 5182   6.693  40.425   7.807
  122POPC   NC3 5183  15.204  31.099   9.472
  122POPC   PO4 5184  15.074  31.704   9.705
  122POPC   GL1 5185  15.093  31.685   9.252
  122POPC   GL2 5186  15.335  31.860   9.072
  122POPC   C1A 5187  15.081  31.510   8.820
  122POPC   D2A 5188  14.956  31.292   8.434
  122POPC   C3A 5189  15.305  31.129   8.174
  122POPC   C4A 5190  15.436  31.208   7.755
  122POPC   C1B 5191  15.200  32.054   8.680
  122POPC   C2B 5192  15.058  31.784   8.371
  122POPC   C3B 5193  15.226  31.616   8.008
  122POPC   C4B 5194  15.329  31.845   7.662
  123POPC   NC3 5195  40.553  25.559   9.388
  123POPC   PO4 5196  41.094  25.188   9.361
  123POPC   GL1 5197  40.873  25.293   9.060
  123POPC   GL2 5198  40.571  25.072   9.068
  123POPC   C1A 5199  41.043  25.476   8.707
  123POPC   D2A 5200  41.179  25.334   8.326
  123POPC   C3A 5201  40.994  25.540   8.003
  123POPC   C4A 5202  40.985  25.209   7.787
  123POPC   C1B 5203  40.597  25.229   8.644
  123POPC   C2B 5204  40.649  25.227   8.207
  123POPC   C3B 5205  40.490  25.280   7.790
  123POPC   C4B 5206  40.488  24.959   7.456
  124POPC   NC3 5207  36.744   6.978   9.625
  124POPC   PO4 5208  37.011   6.370   9.598
  124POPC   GL1 5209  36.817   6.428   9.191
  124POPC   GL2 5210  36.556   6.657   9.247
  124POPC   C1A 5211  36.763   6.483   8.774
  124POPC   D2A 5212  37.050   6.467   8.456
  124POPC   C3A 5213  36.877   6.595   8.095
  124POPC   C4A 5214  37.140   6.580   7.742
  124POPC   C1B 5215  36.367   6.815   8.831
  124POPC   C2B 5216  36.224   6.963   8.408
  124POPC   C3B 5217  36.490   7.060   8.042
  124POPC   C4B 5218  36.668   6.817   7.692
  125POPC   NC3 5219   5.283  37.433   9.546
  125POPC   PO4 5220   4.826  37.878   9.604
  125POPC   GL1 5221   4.854  37.660   9.232
  125POPC   GL2 5222   5.158  37.568   9.055
  125POPC   C1A 5223   4.725  37.790   8.824
  125POPC   D2A 5224   4.853  37.542   8.461
  125POPC   C3A 5225   4.711  37.642   8.051
  125POPC   C4A 5226   5.047  37.630   7.745
  125POPC   C1B 5227   5.475  37.251   8.905
  125POPC   C2B 5228   5.571  37.270   8.496
  125POPC   C3B 5229   5.302  37.300   8.135
  125POPC   C4B 5230   5.484  37.354   7.711
  126POPC   NC3 5231   4.076   9.979   9.431
  126POPC   PO4 5232   4.435  10.534   9.629
  126POPC   GL1 5233   4.338  10.420   9.225
  126POPC   GL2 5234   4.673  10.481   9.029
  126POPC   C1A 5235   4.178  10.396   8.823
  126POPC   D2A 5236   4.518  10.454   8.530
  126POPC   C3A 5237   4.373  10.593   8.160
  126POPC   C4A 5238   4.274  10.368   7.782
  126POPC   C1B 5239   4.421  10.843   8.874
  126POPC   C2B 5240   4.090  10.846   8.519
  126POPC   C3B 5241   3.931  10.840   8.064
  126POPC   C4B 5242   4.288  10.935   7.779
  127POPC   NC3 5243  18.722  38.044   9.770
  127POPC   PO4 5244  19.287  37.624   9.664
  127POPC   GL1 5245  19.096  37.613   9.239
  127POPC   GL2 5246  18.789  37.832   9.169
  127POPC   C1A 5247  18.856  37.376   8.915
  127POPC   D2A 5248  18.796  37.470   8.480
  127POPC   C3A 5249  19.094  37.470   8.124
  127POPC   C4A 5250  18.963  37.569   7.697
  127POPC   C1B 5251  19.053  37.835   8.764
  127POPC   C2B 5252  19.180  37.960   8.326
  127POPC   C3B 5253  19.087  38.049   7.872
  127POPC   C4B 5254  19.222  37.902   7.402
  128POPC   NC3 5255  23.441  15.265   9.409
  128POPC   PO4 5256  24.136  15.288   9.533
  128POPC   GL1 5257  23.862  15.050   9.150
  128POPC   GL2 5258  23.498  14.943   9.023
  128POPC   C1A 5259  23.871  15.055   8.671
  128POPC   D2A 5260  24.121  15.424   8.534
  128POPC   C3A 5261  24.018  15.673   8.153
  128POPC   C4A 5262  23.705  15.542   7.832
  128POPC   C1B 5263  23.481  15.359   8.752
  128POPC   C2B 5264  23.621  15.346   8.320
  128POPC   C3B 5265  23.578  15.051   7.987
  128POPC   C4B 5266  23.405  15.143   7.607
  129POPC   NC3 5267   4.456  40.601   9.474
  129POPC   PO4 5268   4.051  41.164   9.320
  129POPC   GL1 5269   4.361  40.942   9.113
  129POPC   GL2 5270   4.102  40.677   9.066
  129POPC   C1A 5271   4.551  40.645   8.815
  129POPC   D2A 5272   4.429  40.697   8.403
  129POPC   C3A 5273   4.536  40.465   8.059
  129POPC   C4A 5274   4.563  40.678   7.663
  129POPC   C1B 5275   4.029  40.941   8.704
  129POPC   C2B 5276   3.975  40.913   8.282
  129POPC   C3B 5277   4.162  40.824   7.921
  129POPC   C4B 5278   4.131  40.913   7.475
  130POPC   NC3 5279   6.090   8.255   9.532
  130POPC   PO4 5280   5.518   8.433   9.204
  130POPC   GL1 5281   5.930   8.260   9.027
  130POPC   GL2 5282   5.966   7.920   9.062
  130POPC   C1A 5283   5.979   8.138   8.570
  130POPC   D2A 5284   5.723   8.385   8.279
  130POPC   C3A 5285   5.831   8.401   7.877
  130POPC   C4A 5286   5.964   8.036   7.664
  130POPC   C1B 5287   5.555   7.956   8.803
  130POPC   C2B 5288   5.422   7.784   8.428
  130POPC   C3B 5289   5.655   7.867   8.069
  130POPC   C4B 5290   5.456   8.082   7.773
  131POPC   NC3 5291  44.732  37.106   9.548
  131POPC   PO4 5292  44.599  36.481   9.589
  131POPC   GL1 5293  44.498  36.743   9.221
  131POPC   GL2 5294  44.491  37.109   9.115
  131POPC   C1A 5295  44.745  36.815   8.818
  131POPC   D2A 5296  44.912  36.843   8.407
  131POPC   C3A 5297  44.649  36.985   8.047
  131POPC   C4A 5298  44.620  37.091   7.550
  131POPC   C1B 5299  44.396  37.311   8.711
  131POPC   C2B 5300  44.243  37.266   8.294
  131POPC   C3B 5301  44.332  37.359   7.870
  131POPC   C4B 5302  44.118  37.368   7.440
  132POPC   NC3 5303   4.485  44.320   9.613
  132POPC   PO4 5304   4.105  44.725   9.237
  132POPC   GL1 5305   4.430  44.705   8.970
  132POPC   GL2 5306   4.543  44.440   9.128
  132POPC   C1A 5307   4.387  44.524   8.567
  132POPC   D2A 5308   4.011  44.537   8.312
  132POPC   C3A 5309   4.202  44.649   7.918
  132POPC   C4A 5310   4.597  44.879   7.827
  132POPC   C1B 5311   4.645  44.091   8.908
  132POPC   C2B 5312   4.751  44.112   8.487
  132POPC   C3B 5313   4.597  44.317   8.091
  132POPC   C4B 5314   4.682  44.400   7.636
  133POPC   NC3 5315  39.011  43.759   9.542
  133POPC   PO4 5316  39.641  43.822   9.651
  133POPC   GL1 5317  39.413  43.950   9.284
  133POPC   GL2 5318  39.143  44.160   9.180
  133POPC   C1A 5319  39.390  43.833   8.855
  133POPC   D2A 5320  39.424  43.711   8.437
  133POPC   C3A 5321  39.268  44.006   8.190
  133POPC   C4A 5322  39.265  44.001   7.774
  133POPC   C1B 5323  38.941  44.042   8.786
  133POPC   C2B 5324  38.837  43.848   8.421
  133POPC   C3B 5325  38.805  43.980   7.994
  133POPC   C4B 5326  38.843  43.861   7.539
  134POPC   NC3 5327  34.801  41.697   9.511
  134POPC   PO4 5328  34.236  41.312   9.458
  134POPC   GL1 5329  34.469  41.501   9.142
  134POPC   GL2 5330  34.582  41.857   9.096
  134POPC   C1A 5331  34.466  41.554   8.723
  134POPC   D2A 5332  34.590  41.682   8.332
  134POPC   C3A 5333  34.438  41.452   7.998
  134POPC   C4A 5334  34.079  41.528   7.759
  134POPC   C1B 5335  34.848  41.941   8.706
  134POPC   C2B 5336  35.060  41.869   8.270
  134POPC   C3B 5337  34.809  41.771   7.880
  134POPC   C4B 5338  34.468  41.769   7.561
  135POPC   NC3 5339  39.990  21.679   9.674
  135POPC   PO4 5340  40.116  21.195   9.215
  135POPC   GL1 5341  40.068  21.644   9.157
  135POPC   GL2 5342  39.820  21.908   9.235
  135POPC   C1A 5343  39.980  21.602   8.744
  135POPC   D2A 5344  40.038  21.203   8.535
  135POPC   C3A 5345  40.038  21.346   8.150
  135POPC   C4A 5346  39.880  21.267   7.795
  135POPC   C1B 5347  39.600  21.916   8.839
  135POPC   C2B 5348  39.547  21.636   8.453
  135POPC   C3B 5349  39.576  21.640   7.999
  135POPC   C4B 5350  39.953  21.771   7.842
  136POPC   NC3 5351   0.375  38.227   9.480
  136POPC   PO4 5352   0.409  38.910   9.646
  136POPC   GL1 5353   0.547  38.762   9.226
  136POPC   GL2 5354   0.721  39.022   9.032
  136POPC   C1A 5355   0.377  38.586   8.836
  136POPC   D2A 5356   0.193  38.225   8.586
  136POPC   C3A 5357   0.296  38.286   8.145
  136POPC   C4A 5358   0.476  38.255   7.726
  136POPC   C1B 5359   0.601  39.040   8.629
  136POPC   C2B 5360   0.557  38.722   8.350
  136POPC   C3B 5361   0.466  38.725   7.955
  136POPC   C4B 5362   0.162  38.693   7.659
  137POPC   NC3 5363  31.811   5.689   9.417
  137POPC   PO4 5364  31.560   6.246   9.346
  137POPC   GL1 5365  31.392   5.883   9.101
  137POPC   GL2 5366  31.367   5.498   9.215
  137POPC   C1A 5367  31.194   5.850   8.682
  137POPC   D2A 5368  31.143   5.924   8.226
  137POPC   C3A 5369  31.484   6.118   7.991
  137POPC   C4A 5370  31.626   6.041   7.570
  137POPC   C1B 5371  31.581   5.501   8.800
  137POPC   C2B 5372  31.547   5.602   8.338
  137POPC   C3B 5373  31.409   5.626   7.889
  137POPC   C4B 5374  31.352   5.628   7.405
  138POPC   NC3 5375  35.415  23.466   9.368
  138POPC   PO4 5376  35.071  23.922   9.597
  138POPC   GL1 5377  35.129  23.849   9.162
  138POPC   GL2 5378  35.521  23.894   9.107
  138POPC   C1A 5379  35.248  23.635   8.774
  138POPC   D2A 5380  35.617  23.632   8.550
  138POPC   C3A 5381  35.397  23.685   8.166
  138POPC   C4A 5382  35.369  23.739   7.748
  138POPC   C1B 5383  35.717  24.129   8.797
  138POPC   C2B 5384  35.512  24.105   8.425
  138POPC   C3B 5385  35.360  24.183   8.026
  138POPC   C4B 5386  35.573  24.213   7.660
  139POPC   NC3 5387   5.091  32.231   9.477
  139POPC   PO4 5388   5.652  32.359   9.627
  139POPC   GL1 5389   5.549  32.190   9.222
  139POPC   GL2 5390   5.345  32.449   9.053
  139POPC   C1A 5391   5.298  31.981   8.883
  139POPC   D2A 5392   4.990  32.036   8.526
  139POPC   C3A 5393   5.177  32.171   8.136
  139POPC   C4A 5394   5.208  32.357   7.757
  139POPC   C1B 5395   4.934  32.526   8.824
  139POPC   C2B 5396   4.807  32.543   8.375
  139POPC   C3B 5397   4.736  32.380   7.963
  139POPC   C4B 5398   4.700  32.557   7.550
  140POPC   NC3 5399  11.703  43.499   9.556
  140POPC   PO4 5400  11.252  43.978   9.726
  140POPC   GL1 5401  11.314  43.820   9.318
  140POPC   GL2 5402  11.105  44.090   9.240
  140POPC   C1A 5403  11.598  43.751   8.927
  140POPC   D2A 5404  11.532  43.855   8.489
  140POPC   C3A 5405  11.635  43.586   8.144
  140POPC   C4A 5406  11.672  43.828   7.767
  140POPC   C1B 5407  11.249  44.109   8.838
  140POPC   C2B 5408  11.106  44.211   8.441
  140POPC   C3B 5409  11.306  44.137   8.062
  140POPC   C4B 5410  11.169  43.893   7.745
  141POPC   NC3 5411  39.516  40.744   9.517
  141POPC   PO4 5412  39.002  41.057   9.398
  141POPC   GL1 5413  39.264  40.851   9.094
  141POPC   GL2 5414  39.174  40.496   9.115
  141POPC   C1A 5415  39.462  40.633   8.725
  141POPC   D2A 5416  39.297  40.445   8.318
  141POPC   C3A 5417  39.315  40.724   7.945
  141POPC   C4A 5418  39.457  40.886   7.543
  141POPC   C1B 5419  38.948  40.690   8.722
  141POPC   C2B 5420  38.782  40.529   8.325
  141POPC   C3B 5421  38.828  40.660   7.902
  141POPC   C4B 5422  38.941  41.012   7.625
  142POPC   NC3 5423  40.675  31.697   9.364
  142POPC   PO4 5424  41.024  31.237   9.567
  142POPC   GL1 5425  40.946  31.318   9.132
  142POPC   GL2 5426  40.594  31.212   9.027
  142POPC   C1A 5427  40.923  31.402   8.685
  142POPC   D2A 5428  40.563  31.206   8.431
  142POPC   C3A 5429  40.748  31.110   8.047
  142POPC   C4A 5430  40.695  31.182   7.600
  142POPC   C1B 5431  40.466  31.591   8.763
  142POPC   C2B 5432  40.671  31.693   8.330
  142POPC   C3B 5433  40.604  31.593   7.908
  142POPC   C4B 5434  40.353  31.857   7.619
  143POPC   NC3 5435  12.114  25.698   9.286
  143POPC   PO4 5436  12.017  25.027   9.536
  143POPC   GL1 5437  12.032  25.105   9.092
  143POPC   GL2 5438  12.224  25.356   8.945
  143POPC   C1A 5439  11.913  25.110   8.625
  143POPC   D2A 5440  11.918  25.312   8.224
  143POPC   C3A 5441  12.033  25.052   7.896
  143POPC   C4A 5442  12.011  25.037   7.461
  143POPC   C1B 5443  12.513  25.615   8.712
  143POPC   C2B 5444  12.498  25.687   8.258
  143POPC   C3B 5445  12.311  25.483   7.904
  143POPC   C4B 5446  12.390  25.356   7.442
  144POPC   NC3 5447  43.035  13.111   9.461
  144POPC   PO4 5448  43.610  12.688   9.498
  144POPC   GL1 5449  43.512  12.808   9.084
  144POPC   GL2 5450  43.152  12.797   9.073
  144POPC   C1A 5451  43.533  12.756   8.642
  144POPC   D2A 5452  43.167  12.739   8.348
  144POPC   C3A 5453  43.233  12.592   7.923
  144POPC   C4A 5454  43.227  12.739   7.521
  144POPC   C1B 5455  42.878  12.960   8.762
  144POPC   C2B 5456  42.898  13.157   8.358
  144POPC   C3B 5457  42.800  12.938   7.994
  144POPC   C4B 5458  42.845  13.046   7.594
  145POPC   NC3 5459  40.171   0.022   9.496
  145POPC   PO4 5460  39.784   0.528   9.547
  145POPC   GL1 5461  39.969   0.484   9.147
  145POPC   GL2 5462  39.809   0.177   9.143
  145POPC   C1A 5463  40.066   0.568   8.678
  145POPC   D2A 5464  40.282   0.463   8.258
  145POPC   C3A 5465  40.093   0.588   7.869
  145POPC   C4A 5466  40.307   0.774   7.519
  145POPC   C1B 5467  39.655   0.250   8.741
  145POPC   C2B 5468  39.803   0.277   8.314
  145POPC   C3B 5469  39.640   0.186   7.904
  145POPC   C4B 5470  39.638   0.159   7.429
  146POPC   NC3 5471   1.197  21.575   9.516
  146POPC   PO4 5472   1.061  20.893   9.521
  146POPC   GL1 5473   1.227  21.124   9.145
  146POPC   GL2 5474   1.091  21.442   9.042
  146POPC   C1A 5475   1.357  21.153   8.704
  146POPC   D2A 5476   1.177  21.232   8.298
  146POPC   C3A 5477   1.358  21.215   7.917
  146POPC   C4A 5478   1.313  21.597   7.675
  146POPC   C1B 5479   1.386  21.682   8.819
  146POPC   C2B 5480   1.495  21.701   8.379
  146POPC   C3B 5481   1.581  21.916   7.988
  146POPC   C4B 5482   1.675  21.918   7.530
  147POPC   NC3 5483  44.231   1.591   9.638
  147POPC   PO4 5484  44.050   2.208   9.403
  147POPC   GL1 5485  44.157   2.055   9.050
  147POPC   GL2 5486  44.143   1.680   9.126
  147POPC   C1A 5487  44.023   2.276   8.709
  147POPC   D2A 5488  44.061   2.503   8.356
  147POPC   C3A 5489  44.034   2.125   8.070
  147POPC   C4A 5490  43.764   1.974   7.674
  147POPC   C1B 5491  44.056   1.717   8.666
  147POPC   C2B 5492  44.172   1.578   8.240
  147POPC   C3B 5493  44.164   1.713   7.808
  147POPC   C4B 5494  44.060   1.701   7.337
  148POPC   NC3 5495  34.106   5.402   9.534
  148POPC   PO4 5496  34.640   5.023   9.495
  148POPC   GL1 5497  34.592   5.218   9.126
  148POPC   GL2 5498  34.256   5.149   9.100
  148POPC   C1A 5499  34.756   5.278   8.719
  148POPC   D2A 5500  34.544   5.207   8.313
  148POPC   C3A 5501  34.833   5.273   7.999
  148POPC   C4A 5502  34.879   5.103   7.610
  148POPC   C1B 5503  34.441   4.880   8.774
  148POPC   C2B 5504  34.461   4.713   8.367
  148POPC   C3B 5505  34.611   4.798   7.945
  148POPC   C4B 5506  34.459   4.835   7.502
  149POPC   NC3 5507  16.025  30.691   9.526
  149POPC   PO4 5508  15.380  30.670   9.560
  149POPC   GL1 5509  15.667  30.535   9.175
  149POPC   GL2 5510  16.055  30.470   9.061
  149POPC   C1A 5511  15.736  30.716   8.752
  149POPC   D2A 5512  15.886  30.645   8.337
  149POPC   C3A 5513  15.785  30.917   8.012
  149POPC   C4A 5514  15.661  30.760   7.649
  149POPC   C1B 5515  16.296  30.570   8.646
  149POPC   C2B 5516  16.346  30.492   8.179
  149POPC   C3B 5517  16.173  30.676   7.775
  149POPC   C4B 5518  16.363  30.944   7.425
  150POPC   NC3 5519  10.199  35.007   9.308
  150POPC   PO4 5520  10.061  35.572   9.717
  150POPC   GL1 5521  10.096  35.527   9.263
  150POPC   GL2 5522   9.780  35.363   9.172
  150POPC   C1A 5523  10.134  35.466   8.795
  150POPC   D2A 5524   9.786  35.515   8.505
  150POPC   C3A 5525   9.837  35.517   8.080
  150POPC   C4A 5526   9.872  35.276   7.733
  150POPC   C1B 5527   9.564  35.136   8.826
  150POPC   C2B 5528   9.624  35.038   8.374
  150POPC   C3B 5529   9.450  35.066   7.974
  150POPC   C4B 5530   9.472  35.060   7.515
  151POPC   NC3 5531  41.316  26.409  10.011
  151POPC   PO4 5532  41.581  26.824   9.589
  151POPC   GL1 5533  41.667  26.996   9.185
  151POPC   GL2 5534  41.562  26.653   9.105
  151POPC   C1A 5535  41.507  27.094   8.785
  151POPC   D2A 5536  41.583  26.853   8.424
  151POPC   C3A 5537  41.620  27.048   8.016
  151POPC   C4A 5538  41.568  26.655   7.820
  151POPC   C1B 5539  41.236  26.649   8.829
  151POPC   C2B 5540  41.054  26.903   8.527
  151POPC   C3B 5541  41.147  26.851   8.095
  151POPC   C4B 5542  41.195  27.016   7.692
  152POPC   NC3 5543  13.074  23.203   9.433
  152POPC   PO4 5544  12.849  22.552   9.606
  152POPC   GL1 5545  12.814  22.820   9.252
  152POPC   GL2 5546  12.570  23.122   9.254
  152POPC   C1A 5547  12.880  22.993   8.834
  152POPC   D2A 5548  13.141  23.015   8.486
  152POPC   C3A 5549  12.869  22.942   8.174
  152POPC   C4A 5550  12.833  23.068   7.790
  152POPC   C1B 5551  12.426  22.783   8.960
  152POPC   C2B 5552  12.444  22.628   8.531
  152POPC   C3B 5553  12.404  22.708   8.094
  152POPC   C4B 5554  12.465  22.500   7.708
  153POPC   NC3 5555  24.750  17.428   9.423
  153POPC   PO4 5556  24.349  17.979   9.442
  153POPC   GL1 5557  24.480  17.714   9.089
  153POPC   GL2 5558  24.379  17.349   9.074
  153POPC   C1A 5559  24.675  17.507   8.727
  153POPC   D2A 5560  24.520  17.343   8.369
  153POPC   C3A 5561  24.688  17.503   7.978
  153POPC   C4A 5562  24.657  17.357   7.528
  153POPC   C1B 5563  24.099  17.535   8.792
  153POPC   C2B 5564  23.951  17.632   8.386
  153POPC   C3B 5565  24.199  17.608   8.059
  153POPC   C4B 5566  24.377  17.772   7.665
  154POPC   NC3 5567  13.027   8.928   9.856
  154POPC   PO4 5568  12.676   8.701   9.324
  154POPC   GL1 5569  12.885   8.816   8.989
  154POPC   GL2 5570  12.856   9.150   9.102
  154POPC   C1A 5571  13.146   8.695   8.645
  154POPC   D2A 5572  13.205   8.809   8.206
  154POPC   C3A 5573  12.782   8.751   8.015
  154POPC   C4A 5574  12.562   8.898   7.656
  154POPC   C1B 5575  12.977   9.197   8.668
  154POPC   C2B 5576  12.814   9.200   8.267
  154POPC   C3B 5577  12.892   9.257   7.846
  154POPC   C4B 5578  13.081   9.007   7.515
  155POPC   NC3 5579  25.185  29.561   9.526
  155POPC   PO4 5580  25.437  28.906   9.371
  155POPC   GL1 5581  25.179  29.237   9.115
  155POPC   GL2 5582  24.896  29.526   9.128
  155POPC   C1A 5583  25.202  29.224   8.689
  155POPC   D2A 5584  25.418  29.314   8.351
  155POPC   C3A 5585  25.231  29.099   8.056
  155POPC   C4A 5586  25.264  29.134   7.660
  155POPC   C1B 5587  24.765  29.469   8.750
  155POPC   C2B 5588  24.844  29.334   8.307
  155POPC   C3B 5589  24.818  29.333   7.847
  155POPC   C4B 5590  24.719  29.432   7.420
  156POPC   NC3 5591  40.839  39.798   9.547
  156POPC   PO4 5592  40.504  40.392   9.489
  156POPC   GL1 5593  40.648  40.139   9.178
  156POPC   GL2 5594  40.961  40.098   9.126
  156POPC   C1A 5595  40.512  40.030   8.774
  156POPC   D2A 5596  40.248  39.971   8.480
  156POPC   C3A 5597  40.426  39.918   8.147
  156POPC   C4A 5598  40.635  39.955   7.824
  156POPC   C1B 5599  40.932  40.327   8.771
  156POPC   C2B 5600  40.932  40.121   8.402
  156POPC   C3B 5601  41.090  39.954   8.054
  156POPC   C4B 5602  41.276  40.193   7.750
  157POPC   NC3 5603  34.190   9.782   9.433
  157POPC   PO4 5604  34.865   9.772   9.438
  157POPC   GL1 5605  34.763   9.576   9.097
  157POPC   GL2 5606  34.393   9.565   9.026
  157POPC   C1A 5607  34.754   9.724   8.717
  157POPC   D2A 5608  34.487   9.579   8.439
  157POPC   C3A 5609  34.569   9.832   8.095
  157POPC   C4A 5610  34.508   9.576   7.755
  157POPC   C1B 5611  34.286   9.957   8.768
  157POPC   C2B 5612  34.105   9.916   8.346
  157POPC   C3B 5613  34.069   9.731   7.973
  157POPC   C4B 5614  34.234   9.975   7.652
  158POPC   NC3 5615  22.851   0.181   9.397
  158POPC   PO4 5616  23.035   0.822   9.520
  158POPC   GL1 5617  23.103   0.555   9.123
  158POPC   GL2 5618  23.452   0.381   9.072
  158POPC   C1A 5619  22.810   0.544   8.777
  158POPC   D2A 5620  22.562   0.384   8.436
  158POPC   C3A 5621  22.709   0.491   8.066
  158POPC   C4A 5622  22.634   0.515   7.675
  158POPC   C1B 5623  23.305   0.307   8.658
  158POPC   C2B 5624  23.116   0.595   8.376
  158POPC   C3B 5625  23.218   0.886   8.084
  158POPC   C4B 5626  23.141   0.624   7.751
  159POPC   NC3 5627   3.178  22.963   9.438
  159POPC   PO4 5628   2.506  22.959   9.580
  159POPC   GL1 5629   2.408  22.974   9.166
  159POPC   GL2 5630   2.302  23.301   9.195
  159POPC   C1A 5631   2.619  22.855   8.776
  159POPC   D2A 5632   2.660  22.723   8.345
  159POPC   C3A 5633   2.540  22.836   7.925
  159POPC   C4A 5634   2.927  22.736   7.730
  159POPC   C1B 5635   2.430  23.323   8.789
  159POPC   C2B 5636   2.770  23.278   8.499
  159POPC   C3B 5637   2.874  23.166   8.082
  159POPC   C4B 5638   2.597  23.348   7.733
  160POPC   NC3 5639  12.298  43.203   9.375
  160POPC   PO4 5640  11.795  42.716   9.283
  160POPC   GL1 5641  12.028  43.021   9.005
  160POPC   GL2 5642  11.986  43.422   9.036
  160POPC   C1A 5643  12.199  43.194   8.635
  160POPC   D2A 5644  12.050  43.245   8.196
  160POPC   C3A 5645  12.289  43.207   7.868
  160POPC   C4A 5646  12.362  43.539   7.612
  160POPC   C1B 5647  11.699  43.305   8.686
  160POPC   C2B 5648  11.702  42.950   8.392
  160POPC   C3B 5649  11.662  43.016   7.949
  160POPC   C4B 5650  11.789  42.769   7.546
  161POPC   NC3 5651  23.890  21.330   9.610
  161POPC   PO4 5652  23.591  21.794   9.417
  161POPC   GL1 5653  23.768  21.458   9.108
  161POPC   GL2 5654  24.008  21.153   9.166
  161POPC   C1A 5655  23.741  21.305   8.678
  161POPC   D2A 5656  23.756  21.502   8.284
  161POPC   C3A 5657  23.633  21.426   7.836
  161POPC   C4A 5658  23.820  21.301   7.430
  161POPC   C1B 5659  23.999  20.897   8.805
  161POPC   C2B 5660  23.764  20.832   8.407
  161POPC   C3B 5661  23.859  21.015   8.010
  161POPC   C4B 5662  24.259  20.978   7.782
  162POPC   NC3 5663   4.692  11.636   9.499
  162POPC   PO4 5664   5.135  11.051   9.447
  162POPC   GL1 5665   5.358  11.265   9.178
  162POPC   GL2 5666   5.101  11.465   9.133
  162POPC   C1A 5667   5.344  11.236   8.732
  162POPC   D2A 5668   5.095  11.380   8.385
  162POPC   C3A 5669   5.295  11.211   8.036
  162POPC   C4A 5670   5.030  11.005   7.690
  162POPC   C1B 5671   5.335  11.743   8.853
  162POPC   C2B 5672   5.229  11.979   8.474
  162POPC   C3B 5673   5.166  11.818   8.056
  162POPC   C4B 5674   4.990  11.523   7.790
  163POPC   NC3 5675  26.171  24.804   9.433
  163POPC   PO4 5676  25.885  24.167   9.406
  163POPC   GL1 5677  25.795  24.184   9.029
  163POPC   GL2 5678  25.840  24.538   9.015
  163POPC   C1A 5679  25.788  24.228   8.600
  163POPC   D2A 5680  25.937  24.561   8.397
  163POPC   C3A 5681  26.065  24.421   8.028
  163POPC   C4A 5682  25.900  24.300   7.632
  163POPC   C1B 5683  26.252  24.511   8.809
  163POPC   C2B 5684  26.460  24.644   8.416
  163POPC   C3B 5685  26.398  24.814   8.029
  163POPC   C4B 5686  26.248  24.934   7.600
  164POPC   NC3 5687  25.163   0.893   9.209
  164POPC   PO4 5688  25.403   1.372   9.663
  164POPC   GL1 5689  25.356   1.385   9.204
  164POPC   GL2 5690  25.044   1.413   8.970
  164POPC   C1A 5691  25.478   1.501   8.746
  164POPC   D2A 5692  25.218   1.579   8.364
  164POPC   C3A 5693  25.247   1.249   8.079
  164POPC   C4A 5694  25.615   1.218   7.793
  164POPC   C1B 5695  25.165   1.124   8.605
  164POPC   C2B 5696  25.468   0.877   8.391
  164POPC   C3B 5697  25.438   0.779   7.965
  164POPC   C4B 5698  25.669   0.667   7.622
  165POPC   NC3 5699   6.957  37.358   9.341
  165POPC   PO4 5700   6.455  37.911   9.425
  165POPC   GL1 5701   6.538  37.592   9.163
  165POPC   GL2 5702   6.326  37.330   9.192
  165POPC   C1A 5703   6.579  37.652   8.733
  165POPC   D2A 5704   6.545  37.651   8.310
  165POPC   C3A 5705   6.940  37.774   8.113
  165POPC   C4A 5706   6.973  37.871   7.670
  165POPC   C1B 5707   6.492  37.159   8.809
  165POPC   C2B 5708   6.709  37.173   8.434
  165POPC   C3B 5709   6.757  37.322   7.978
  165POPC   C4B 5710   6.427  37.573   7.814
  166POPC   NC3 5711  24.011  19.858   9.653
  166POPC   PO4 5712  23.444  19.985   9.493
  166POPC   GL1 5713  23.810  19.895   9.186
  166POPC   GL2 5714  23.871  19.539   9.235
  166POPC   C1A 5715  23.887  20.051   8.752
  166POPC   D2A 5716  23.746  20.265   8.359
  166POPC   C3A 5717  23.805  20.060   7.949
  166POPC   C4A 5718  23.566  20.024   7.557
  166POPC   C1B 5719  23.648  19.593   8.789
  166POPC   C2B 5720  23.675  19.695   8.307
  166POPC   C3B 5721  23.631  19.561   7.842
  166POPC   C4B 5722  23.418  19.340   7.484
  167POPC   NC3 5723  15.702  43.079   9.484
  167POPC   PO4 5724  16.299  43.511   9.494
  167POPC   GL1 5725  16.090  43.223   9.151
  167POPC   GL2 5726  15.904  42.882   9.068
  167POPC   C1A 5727  15.903  43.247   8.724
  167POPC   D2A 5728  15.803  43.340   8.301
  167POPC   C3A 5729  15.998  43.057   8.072
  167POPC   C4A 5730  16.179  43.097   7.710
  167POPC   C1B 5731  15.934  42.673   8.685
  167POPC   C2B 5732  15.678  42.796   8.365
  167POPC   C3B 5733  15.488  42.961   7.999
  167POPC   C4B 5734  15.612  42.792   7.608
  168POPC   NC3 5735  41.776  12.864   9.453
  168POPC   PO4 5736  41.184  12.696   9.534
  168POPC   GL1 5737  41.382  12.674   9.157
  168POPC   GL2 5738  41.669  12.481   9.121
  168POPC   C1A 5739  41.471  12.875   8.782
  168POPC   D2A 5740  41.552  12.996   8.372
  168POPC   C3A 5741  41.336  12.855   8.043
  168POPC   C4A 5742  41.442  12.688   7.680
  168POPC   C1B 5743  41.930  12.626   8.802
  168POPC   C2B 5744  42.004  12.796   8.407
  168POPC   C3B 5745  41.864  12.742   7.984
  168POPC   C4B 5746  41.911  12.683   7.537
  169POPC   NC3 5747  30.743   3.930   9.400
  169POPC   PO4 5748  31.034   4.629   9.507
  169POPC   GL1 5749  30.859   4.515   9.098
  169POPC   GL2 5750  30.862   4.150   8.981
  169POPC   C1A 5751  30.570   4.608   8.749
  169POPC   D2A 5752  30.382   4.401   8.448
  169POPC   C3A 5753  30.405   4.579   8.057
  169POPC   C4A 5754  30.399   4.192   7.889
  169POPC   C1B 5755  31.004   4.330   8.651
  169POPC   C2B 5756  30.870   4.448   8.282
  169POPC   C3B 5757  30.893   4.297   7.911
  169POPC   C4B 5758  30.809   4.621   7.715
  170POPC   NC3 5759  11.800   5.050   9.756
  170POPC   PO4 5760  11.997   5.355   9.176
  170POPC   GL1 5761  11.887   5.267   8.829
  170POPC   GL2 5762  12.007   4.920   8.861
  170POPC   C1A 5763  12.056   5.494   8.516
  170POPC   D2A 5764  12.187   5.240   8.244
  170POPC   C3A 5765  11.973   5.005   7.963
  170POPC   C4A 5766  12.205   4.635   7.974
  170POPC   C1B 5767  11.623   4.775   8.658
  170POPC   C2B 5768  11.577   4.713   8.237
  170POPC   C3B 5769  11.729   4.553   7.874
  170POPC   C4B 5770  11.680   4.837   7.550
  171POPC   NC3 5771  41.806  33.369   9.339
  171POPC   PO4 5772  41.256  32.998   9.560
  171POPC   GL1 5773  41.354  33.131   9.161
  171POPC   GL2 5774  41.656  32.930   9.142
  171POPC   C1A 5775  41.332  32.941   8.743
  171POPC   D2A 5776  41.477  33.029   8.328
  171POPC   C3A 5777  41.194  32.992   7.987
  171POPC   C4A 5778  41.234  32.669   7.695
  171POPC   C1B 5779  41.827  33.100   8.723
  171POPC   C2B 5780  41.990  33.086   8.286
  171POPC   C3B 5781  41.910  33.252   7.850
  171POPC   C4B 5782  41.867  33.251   7.375
  172POPC   NC3 5783  28.426  33.906   9.791
  172POPC   PO4 5784  28.675  33.362   9.464
  172POPC   GL1 5785  28.481  33.733   9.230
  172POPC   GL2 5786  28.466  34.101   9.306
  172POPC   C1A 5787  28.186  33.696   8.855
  172POPC   D2A 5788  28.097  33.509   8.459
  172POPC   C3A 5789  28.414  33.557   8.182
  172POPC   C4A 5790  28.213  33.599   7.788
  172POPC   C1B 5791  28.284  34.174   8.913
  172POPC   C2B 5792  28.436  34.005   8.527
  172POPC   C3B 5793  28.557  34.176   8.156
  172POPC   C4B 5794  28.411  34.100   7.778
  173POPC   NC3 5795  34.974  30.776   9.575
  173POPC   PO4 5796  35.540  30.622   9.512
  173POPC   GL1 5797  35.393  30.614   9.121
  173POPC   GL2 5798  35.039  30.567   9.108
  173POPC   C1A 5799  35.352  30.594   8.693
  173POPC   D2A 5800  35.065  30.584   8.406
  173POPC   C3A 5801  35.287  30.770   8.089
  173POPC   C4A 5802  35.419  30.655   7.689
  173POPC   C1B 5803  34.974  30.930   8.843
  173POPC   C2B 5804  34.996  31.098   8.435
  173POPC   C3B 5805  34.818  30.929   8.070
  173POPC   C4B 5806  34.943  30.885   7.686
  174POPC   NC3 5807  36.358   1.124   9.480
  174POPC   PO4 5808  35.800   1.477   9.583
  174POPC   GL1 5809  35.972   1.330   9.214
  174POPC   GL2 5810  35.876   0.983   9.236
  174POPC   C1A 5811  36.229   1.277   8.827
  174POPC   D2A 5812  36.087   1.329   8.378
  174POPC   C3A 5813  36.314   1.286   7.960
  174POPC   C4A 5814  36.536   1.247   7.532
  174POPC   C1B 5815  35.743   1.107   8.810
  174POPC   C2B 5816  35.808   0.879   8.422
  174POPC   C3B 5817  35.919   0.984   8.021
  174POPC   C4B 5818  35.877   1.262   7.642
  175POPC   NC3 5819  31.724   7.453   9.587
  175POPC   PO4 5820  31.193   7.679   9.319
  175POPC   GL1 5821  31.529   7.463   9.091
  175POPC   GL2 5822  31.885   7.542   9.124
  175POPC   C1A 5823  31.707   7.537   8.666
  175POPC   D2A 5824  31.726   7.811   8.344
  175POPC   C3A 5825  31.466   7.647   8.054
  175POPC   C4A 5826  31.646   7.585   7.680
  175POPC   C1B 5827  31.855   7.110   8.878
  175POPC   C2B 5828  31.801   6.937   8.430
  175POPC   C3B 5829  31.729   7.153   8.006
  175POPC   C4B 5830  31.922   7.161   7.576
  176POPC   NC3 5831   4.854  42.120   9.469
  176POPC   PO4 5832   5.153  42.643   9.520
  176POPC   GL1 5833   5.077  42.463   9.156
  176POPC   GL2 5834   4.728  42.466   9.101
  176POPC   C1A 5835   5.265  42.342   8.765
  176POPC   D2A 5836   5.117  42.406   8.332
  176POPC   C3A 5837   5.364  42.633   8.034
  176POPC   C4A 5838   5.170  42.500   7.652
  176POPC   C1B 5839   4.763  42.340   8.699
  176POPC   C2B 5840   4.658  42.131   8.302
  176POPC   C3B 5841   4.768  42.102   7.874
  176POPC   C4B 5842   4.929  42.062   7.447
  177POPC   NC3 5843  36.344   1.894   9.797
  177POPC   PO4 5844  35.987   2.267   9.435
  177POPC   GL1 5845  36.284   2.062   9.183
  177POPC   GL2 5846  36.255   1.734   9.088
  177POPC   C1A 5847  36.431   2.099   8.768
  177POPC   D2A 5848  36.578   2.242   8.395
  177POPC   C3A 5849  36.352   2.097   8.051
  177POPC   C4A 5850  36.284   2.408   7.763
  177POPC   C1B 5851  36.036   1.747   8.722
  177POPC   C2B 5852  35.954   1.861   8.343
  177POPC   C3B 5853  35.938   1.664   7.973
  177POPC   C4B 5854  35.853   1.817   7.560
  178POPC   NC3 5855  25.985  21.946   9.531
  178POPC   PO4 5856  26.274  22.524   9.503
  178POPC   GL1 5857  26.225  22.282   9.158
  178POPC   GL2 5858  26.376  21.935   9.169
  178POPC   C1A 5859  25.948  22.166   8.847
  178POPC   D2A 5860  25.791  22.064   8.438
  178POPC   C3A 5861  25.953  22.267   8.091
  178POPC   C4A 5862  25.866  22.013   7.717
  178POPC   C1B 5863  26.493  22.101   8.747
  178POPC   C2B 5864  26.382  22.015   8.328
  178POPC   C3B 5865  26.358  22.022   7.892
  178POPC   C4B 5866  26.329  22.033   7.426
  179POPC   NC3 5867  14.998  38.051   9.507
  179POPC   PO4 5868  14.987  38.717   9.740
  179POPC   GL1 5869  15.235  38.680   9.299
  179POPC   GL2 5870  15.289  38.363   9.219
  179POPC   C1A 5871  15.246  38.693   8.830
  179POPC   D2A 5872  15.383  38.498   8.422
  179POPC   C3A 5873  15.242  38.681   8.021
  179POPC   C4A 5874  14.916  38.515   7.750
  179POPC   C1B 5875  15.280  38.187   8.828
  179POPC   C2B 5876  15.129  37.997   8.470
  179POPC   C3B 5877  15.132  38.169   8.072
  179POPC   C4B 5878  15.036  37.994   7.694
  180POPC   NC3 5879  38.828  15.414   9.843
  180POPC   PO4 5880  38.212  15.336   9.471
  180POPC   GL1 5881  38.222  15.320   9.055
  180POPC   GL2 5882  38.416  15.021   9.064
  180POPC   C1A 5883  38.410  15.295   8.654
  180POPC   D2A 5884  38.650  15.420   8.339
  180POPC   C3A 5885  38.405  15.456   8.003
  180POPC   C4A 5886  38.723  15.423   7.691
  180POPC   C1B 5887  38.578  14.817   8.707
  180POPC   C2B 5888  38.424  14.929   8.277
  180POPC   C3B 5889  38.580  14.966   7.865
  180POPC   C4B 5890  38.629  14.913   7.416
  181POPC   NC3 5891  37.354  41.274   9.237
  181POPC   PO4 5892  37.643  41.761   9.668
  181POPC   GL1 5893  37.876  41.605   9.240
  181POPC   GL2 5894  37.965  41.234   9.166
  181POPC   C1A 5895  37.874  41.748   8.778
  181POPC   D2A 5896  37.492  41.733   8.521
  181POPC   C3A 5897  37.575  41.800   8.078
  181POPC   C4A 5898  37.859  41.525   7.824
  181POPC   C1B 5899  37.786  41.256   8.743
  181POPC   C2B 5900  37.762  41.322   8.305
  181POPC   C3B 5901  37.594  41.114   7.952
  181POPC   C4B 5902  37.586  41.216   7.514
  182POPC   NC3 5903  21.044  29.091   9.557
  182POPC   PO4 5904  21.702  29.293   9.529
  182POPC   GL1 5905  21.368  29.386   9.233
  182POPC   GL2 5906  21.295  29.051   9.105
  182POPC   C1A 5907  21.394  29.462   8.785
  182POPC   D2A 5908  21.487  29.209   8.430
  182POPC   C3A 5909  21.470  29.403   8.043
  182POPC   C4A 5910  21.335  29.279   7.649
  182POPC   C1B 5911  21.377  28.763   8.736
  182POPC   C2B 5912  21.557  28.686   8.353
  182POPC   C3B 5913  21.485  28.884   8.003
  182POPC   C4B 5914  21.256  28.782   7.702
  183POPC   NC3 5915  19.825  34.793   9.635
  183POPC   PO4 5916  20.075  34.281   9.298
  183POPC   GL1 5917  19.979  34.661   9.156
  183POPC   GL2 5918  19.647  34.532   9.194
  183POPC   C1A 5919  20.100  34.909   8.814
  183POPC   D2A 5920  20.148  34.661   8.429
  183POPC   C3A 5921  20.108  34.806   8.060
  183POPC   C4A 5922  20.009  34.670   7.666
  183POPC   C1B 5923  19.634  34.700   8.778
  183POPC   C2B 5924  19.680  34.885   8.373
  183POPC   C3B 5925  19.567  34.752   7.976
  183POPC   C4B 5926  19.495  34.860   7.558
  184POPC   NC3 5927  33.459  40.760   9.434
  184POPC   PO4 5928  34.063  40.427   9.400
  184POPC   GL1 5929  33.904  40.746   9.083
  184POPC   GL2 5930  33.572  40.931   8.980
  184POPC   C1A 5931  33.963  40.469   8.731
  184POPC   D2A 5932  34.180  40.693   8.438
  184POPC   C3A 5933  34.150  40.561   8.047
  184POPC   C4A 5934  33.898  40.743   7.750
  184POPC   C1B 5935  33.627  40.795   8.569
  184POPC   C2B 5936  33.435  40.694   8.200
  184POPC   C3B 5937  33.400  40.795   7.782
  184POPC   C4B 5938  33.565  40.706   7.375
  185POPC   NC3 5939  39.080  32.636   9.838
  185POPC   PO4 5940  39.119  33.244   9.489
  185POPC   GL1 5941  39.241  33.034   9.164
  185POPC   GL2 5942  39.209  32.694   9.280
  185POPC   C1A 5943  39.233  33.125   8.742
  185POPC   D2A 5944  39.000  33.108   8.378
  185POPC   C3A 5945  39.324  33.112   8.103
  185POPC   C4A 5946  39.265  33.180   7.713
  185POPC   C1B 5947  39.023  32.669   8.863
  185POPC   C2B 5948  39.236  32.644   8.479
  185POPC   C3B 5949  39.174  32.618   8.038
  185POPC   C4B 5950  39.367  32.678   7.641
  186POPC   NC3 5951  16.877  13.970   9.515
  186POPC   PO4 5952  17.577  13.859   9.490
  186POPC   GL1 5953  17.640  13.684   9.121
  186POPC   GL2 5954  17.392  13.423   9.185
  186POPC   C1A 5955  17.650  13.476   8.729
  186POPC   D2A 5956  17.408  13.242   8.439
  186POPC   C3A 5957  17.551  13.369   8.041
  186POPC   C4A 5958  17.722  13.763   7.825
  186POPC   C1B 5959  17.210  13.717   8.858
  186POPC   C2B 5960  17.314  13.781   8.407
  186POPC   C3B 5961  17.227  13.853   7.958
  186POPC   C4B 5962  17.286  13.542   7.659
  187POPC   NC3 5963  26.407   7.733   9.493
  187POPC   PO4 5964  26.886   7.298   9.484
  187POPC   GL1 5965  26.577   7.328   9.158
  187POPC   GL2 5966  26.790   7.089   8.966
  187POPC   C1A 5967  26.467   7.378   8.711
  187POPC   D2A 5968  26.625   7.139   8.416
  187POPC   C3A 5969  26.768   7.402   8.107
  187POPC   C4A 5970  26.568   7.435   7.752
  187POPC   C1B 5971  26.972   7.444   8.792
  187POPC   C2B 5972  27.153   7.312   8.418
  187POPC   C3B 5973  27.207   7.092   8.043
  187POPC   C4B 5974  27.054   7.277   7.681
  188POPC   NC3 5975  41.313  24.775   9.343
  188POPC   PO4 5976  40.720  24.361   9.476
  188POPC   GL1 5977  40.929  24.493   9.122
  188POPC   GL2 5978  41.008  24.113   9.103
  188POPC   C1A 5979  40.898  24.788   8.752
  188POPC   D2A 5980  40.992  24.836   8.297
  188POPC   C3A 5981  40.717  24.799   7.907
  188POPC   C4A 5982  40.955  24.794   7.500
  188POPC   C1B 5983  40.706  24.187   8.798
  188POPC   C2B 5984  40.763  24.385   8.437
  188POPC   C3B 5985  40.878  24.345   8.043
  188POPC   C4B 5986  40.601  24.166   7.783
  189POPC   NC3 5987  39.383  12.908   9.402
  189POPC   PO4 5988  38.893  12.489   9.511
  189POPC   GL1 5989  39.037  12.642   9.119
  189POPC   GL2 5990  39.341  12.425   9.176
  189POPC   C1A 5991  39.210  12.960   8.778
  189POPC   D2A 5992  39.008  13.233   8.515
  189POPC   C3A 5993  39.176  13.082   8.177
  189POPC   C4A 5994  39.175  13.108   7.793
  189POPC   C1B 5995  39.305  12.465   8.736
  189POPC   C2B 5996  39.098  12.616   8.388
  189POPC   C3B 5997  39.149  12.614   7.955
  189POPC   C4B 5998  39.527  12.535   7.709
  190POPC   NC3 5999  43.194  44.036   9.575
  190POPC   PO4 6000  42.849  43.556   9.424
  190POPC   GL1 6001  42.878  43.945   9.144
  190POPC   GL2 6002  43.170  44.210   9.118
  190POPC   C1A 6003  43.012  43.958   8.708
  190POPC   D2A 6004  43.037  43.713   8.374
  190POPC   C3A 6005  43.035  43.881   8.011
  190POPC   C4A 6006  42.804  44.099   7.786
  190POPC   C1B 6007  43.436  44.248   8.779
  190POPC   C2B 6008  43.452  44.097   8.328
  190POPC   C3B 6009  43.326  44.268   7.896
  190POPC   C4B 6010  43.173  44.154   7.466
  191POPC   NC3 6011  24.433  38.145   9.918
  191POPC   PO4 6012  24.225  37.516   9.669
  191POPC   GL1 6013  24.428  37.675   9.327
  191POPC   GL2 6014  24.389  37.401   9.125
  191POPC   C1A 6015  24.682  37.836   8.993
  191POPC   D2A 6016  24.755  37.797   8.535
  191POPC   C3A 6017  24.484  37.878   8.135
  191POPC   C4A 6018  24.577  38.088   7.692
  191POPC   C1B 6019  24.301  37.630   8.737
  191POPC   C2B 6020  24.062  37.574   8.364
  191POPC   C3B 6021  23.908  37.722   7.987
  191POPC   C4B 6022  24.207  37.706   7.673
  192POPC   NC3 6023  30.299  16.942   9.358
  192POPC   PO4 6024  30.775  17.362   9.638
  192POPC   GL1 6025  30.761  17.482   9.217
  192POPC   GL2 6026  30.412  17.418   9.206
  192POPC   C1A 6027  30.975  17.644   8.847
  192POPC   D2A 6028  30.859  17.475   8.444
  192POPC   C3A 6029  31.009  17.509   8.067
  192POPC   C4A 6030  30.836  17.456   7.677
  192POPC   C1B 6031  30.427  17.544   8.783
  192POPC   C2B 6032  30.416  17.698   8.357
  192POPC   C3B 6033  30.423  17.501   7.949
  192POPC   C4B 6034  30.412  17.081   7.713
  193POPC   NC3 6035   5.472  11.723   9.514
  193POPC   PO4 6036   4.946  11.859   9.827
  193POPC   GL1 6037   5.105  11.949   9.288
  193POPC   GL2 6038   4.847  11.888   9.055
  193POPC   C1A 6039   5.211  12.249   8.933
  193POPC   D2A 6040   5.346  12.470   8.527
  193POPC   C3A 6041   5.088  12.375   8.127
  193POPC   C4A 6042   5.059  12.181   7.692
  193POPC   C1B 6043   4.843  11.731   8.675
  193POPC   C2B 6044   4.709  11.926   8.291
  193POPC   C3B 6045   4.663  11.933   7.871
  193POPC   C4B 6046   4.686  11.777   7.469
  194POPC   NC3 6047  43.777  37.389   9.459
  194POPC   PO4 6048  44.042  38.029   9.573
  194POPC   GL1 6049  43.905  37.841   9.186
  194POPC   GL2 6050  43.577  37.781   9.115
  194POPC   C1A 6051  43.861  37.973   8.752
  194POPC   D2A 6052  44.054  37.697   8.491
  194POPC   C3A 6053  43.933  37.734   8.097
  194POPC   C4A 6054  44.132  37.788   7.700
  194POPC   C1B 6055  43.643  37.498   8.760
  194POPC   C2B 6056  43.712  37.290   8.368
  194POPC   C3B 6057  43.832  37.277   7.946
  194POPC   C4B 6058  43.671  37.580   7.654
  195POPC   NC3 6059  14.844   2.086   9.390
  195POPC   PO4 6060  14.598   2.777   9.549
  195POPC   GL1 6061  14.398   2.823   9.164
  195POPC   GL2 6062  14.510   3.168   9.025
  195POPC   C1A 6063  14.345   2.538   8.812
  195POPC   D2A 6064  14.108   2.551   8.436
  195POPC   C3A 6065  14.344   2.389   8.106
  195POPC   C4A 6066  14.432   2.561   7.715
  195POPC   C1B 6067  14.733   2.895   8.772
  195POPC   C2B 6068  14.624   2.723   8.395
  195POPC   C3B 6069  14.678   2.922   8.005
  195POPC   C4B 6070  14.554   3.037   7.588
  196POPC   NC3 6071  31.518   4.504   9.526
  196POPC   PO4 6072  31.206   3.936   9.383
  196POPC   GL1 6073  31.338   4.275   9.120
  196POPC   GL2 6074  31.683   4.235   9.122
  196POPC   C1A 6075  31.478   4.517   8.751
  196POPC   D2A 6076  31.279   4.724   8.410
  196POPC   C3A 6077  31.274   4.646   7.972
  196POPC   C4A 6078  31.381   4.320   7.755
  196POPC   C1B 6079  31.916   4.144   8.772
  196POPC   C2B 6080  31.827   3.937   8.396
  196POPC   C3B 6081  31.707   3.991   7.975
  196POPC   C4B 6082  31.874   4.399   7.809
  197POPC   NC3 6083  18.841  13.879   9.532
  197POPC   PO4 6084  19.333  13.448   9.418
  197POPC   GL1 6085  19.104  13.682   9.067
  197POPC   GL2 6086  18.756  13.923   9.037
  197POPC   C1A 6087  19.355  13.573   8.689
  197POPC   D2A 6088  19.233  13.372   8.321
  197POPC   C3A 6089  19.228  13.527   7.908
  197POPC   C4A 6090  19.103  13.753   7.518
  197POPC   C1B 6091  18.719  13.710   8.632
  197POPC   C2B 6092  18.834  13.700   8.195
  197POPC   C3B 6093  18.710  13.584   7.776
  197POPC   C4B 6094  18.603  13.836   7.367
  198POPC   NC3 6095  27.754  34.606   9.548
  198POPC   PO4 6096  27.126  34.824   9.508
  198POPC   GL1 6097  27.266  34.557   9.171
  198POPC   GL2 6098  27.616  34.627   9.066
  198POPC   C1A 6099  27.143  34.607   8.747
  198POPC   D2A 6100  27.318  34.555   8.314
  198POPC   C3A 6101  27.268  34.764   7.889
  198POPC   C4A 6102  27.490  34.592   7.455
  198POPC   C1B 6103  27.734  34.532   8.670
  198POPC   C2B 6104  27.782  34.725   8.284
  198POPC   C3B 6105  27.739  34.560   7.892
  198POPC   C4B 6106  27.990  34.393   7.532
  199POPC   NC3 6107  12.322   8.991   9.374
  199POPC   PO4 6108  11.707   8.722   9.569
  199POPC   GL1 6109  11.833   8.919   9.171
  199POPC   GL2 6110  11.954   9.280   9.131
  199POPC   C1A 6111  11.884   8.982   8.728
  199POPC   D2A 6112  11.861   8.883   8.320
  199POPC   C3A 6113  11.704   9.197   8.040
  199POPC   C4A 6114  11.944   9.235   7.691
  199POPC   C1B 6115  12.322   9.275   8.809
  199POPC   C2B 6116  12.378   8.984   8.463
  199POPC   C3B 6117  12.327   9.137   8.050
  199POPC   C4B 6118  12.420   9.399   7.715
  200POPC   NC3 6119  20.042  11.514   9.574
  200POPC   PO4 6120  19.498  11.146   9.584
  200POPC   GL1 6121  19.755  11.269   9.221
  200POPC   GL2 6122  19.712  11.634   9.193
  200POPC   C1A 6123  19.808  11.310   8.761
  200POPC   D2A 6124  19.731  11.132   8.348
  200POPC   C3A 6125  19.703  11.290   7.935
  200POPC   C4A 6126  19.825  11.341   7.479
  200POPC   C1B 6127  19.879  11.810   8.786
  200POPC   C2B 6128  19.987  11.627   8.366
  200POPC   C3B 6129  20.063  11.688   7.942
  200POPC   C4B 6130  19.871  11.814   7.617
  201POPC   NC3 6131  42.000  23.340   9.402
  201POPC   PO4 6132  41.448  23.681   9.556
  201POPC   GL1 6133  41.390  23.771   9.158
  201POPC   GL2 6134  41.676  23.585   9.090
  201POPC   C1A 6135  41.479  23.922   8.737
  201POPC   D2A 6136  41.625  23.706   8.418
  201POPC   C3A 6137  41.518  23.841   8.026
  201POPC   C4A 6138  41.487  24.217   7.808
  201POPC   C1B 6139  41.802  23.313   8.762
  201POPC   C2B 6140  41.629  23.212   8.395
  201POPC   C3B 6141  41.764  23.364   8.041
  201POPC   C4B 6142  41.694  23.499   7.666
  202POPC   NC3 6143   4.548  29.673   9.633
  202POPC   PO4 6144   4.306  30.304   9.699
  202POPC   GL1 6145   4.338  30.098   9.299
  202POPC   GL2 6146   4.597  30.301   9.141
  202POPC   C1A 6147   4.291  29.940   8.858
  202POPC   D2A 6148   4.148  29.977   8.412
  202POPC   C3A 6149   4.375  29.761   8.025
  202POPC   C4A 6150   4.058  29.593   7.745
  202POPC   C1B 6151   4.659  30.264   8.674
  202POPC   C2B 6152   4.552  30.227   8.237
  202POPC   C3B 6153   4.227  30.227   7.944
  202POPC   C4B 6154   4.499  30.166   7.639
  203POPC   NC3 6155  35.802   1.850   9.311
  203POPC   PO4 6156  35.113   1.971   9.556
  203POPC   GL1 6157  35.363   2.035   9.161
  203POPC   GL2 6158  35.603   2.322   9.108
  203POPC   C1A 6159  35.528   1.981   8.710
  203POPC   D2A 6160  35.450   1.734   8.341
  203POPC   C3A 6161  35.333   2.023   8.002
  203POPC   C4A 6162  35.397   2.080   7.584
  203POPC   C1B 6163  35.926   2.299   8.744
  203POPC   C2B 6164  35.988   2.364   8.293
  203POPC   C3B 6165  35.847   2.175   7.921
  203POPC   C4B 6166  35.832   2.332   7.484
  204POPC   NC3 6167  40.610  44.146   9.655
  204POPC   PO4 6168  41.244  44.242   9.483
  204POPC   GL1 6169  40.899  44.082   9.198
  204POPC   GL2 6170  40.541  44.236   9.163
  204POPC   C1A 6171  40.851  43.837   8.803
  204POPC   D2A 6172  41.044  43.567   8.468
  204POPC   C3A 6173  40.796  43.600   8.095
  204POPC   C4A 6174  40.800  43.850   7.727
  204POPC   C1B 6175  40.759  44.364   8.793
  204POPC   C2B 6176  40.924  44.202   8.405
  204POPC   C3B 6177  40.699  44.205   8.050
  204POPC   C4B 6178  40.459  44.219   7.683
  205POPC   NC3 6179   6.408   3.295   9.291
  205POPC   PO4 6180   6.678   3.818   9.461
  205POPC   GL1 6181   6.790   3.661   9.104
  205POPC   GL2 6182   7.021   3.407   9.185
  205POPC   C1A 6183   6.585   3.580   8.717
  205POPC   D2A 6184   6.357   3.595   8.325
  205POPC   C3A 6185   6.508   3.910   8.063
  205POPC   C4A 6186   6.630   3.933   7.660
  205POPC   C1B 6187   6.880   3.150   8.810
  205POPC   C2B 6188   6.538   3.084   8.493
  205POPC   C3B 6189   6.432   3.176   8.026
  205POPC   C4B 6190   6.723   3.433   7.738
  206POPC   NC3 6191  10.142  32.669   9.556
  206POPC   PO4 6192   9.527  32.871   9.696
  206POPC   GL1 6193   9.450  32.722   9.280
  206POPC   GL2 6194   9.805  32.783   9.198
  206POPC   C1A 6195   9.475  32.838   8.826
  206POPC   D2A 6196   9.549  32.780   8.391
  206POPC   C3A 6197   9.595  33.075   8.056
  206POPC   C4A 6198   9.434  32.821   7.734
  206POPC   C1B 6199  10.011  32.733   8.807
  206POPC   C2B 6200  10.071  32.892   8.403
  206POPC   C3B 6201  10.242  32.857   8.013
  206POPC   C4B 6202   9.944  32.895   7.701
  207POPC   NC3 6203   1.638  35.879   9.737
  207POPC   PO4 6204   1.130  36.374   9.550
  207POPC   GL1 6205   1.250  36.270   9.175
  207POPC   GL2 6206   0.923  36.110   9.137
  207POPC   C1A 6207   1.436  36.462   8.799
  207POPC   D2A 6208   1.408  36.507   8.369
  207POPC   C3A 6209   1.477  36.204   8.040
  207POPC   C4A 6210   1.429  36.450   7.644
  207POPC   C1B 6211   1.061  36.078   8.730
  207POPC   C2B 6212   1.266  35.882   8.415
  207POPC   C3B 6213   1.074  35.853   8.050
  207POPC   C4B 6214   1.107  36.043   7.666
  208POPC   NC3 6215  27.085  13.138   9.779
  208POPC   PO4 6216  27.020  13.702   9.426
  208POPC   GL1 6217  26.933  13.796   9.060
  208POPC   GL2 6218  26.577  13.663   9.124
  208POPC   C1A 6219  27.175  13.845   8.724
  208POPC   D2A 6220  27.072  13.600   8.390
  208POPC   C3A 6221  26.959  13.924   8.103
  208POPC   C4A 6222  26.749  14.045   7.739
  208POPC   C1B 6223  26.672  13.508   8.715
  208POPC   C2B 6224  26.562  13.603   8.284
  208POPC   C3B 6225  26.700  13.490   7.877
  208POPC   C4B 6226  26.381  13.316   7.631
  209POPC   NC3 6227  27.829  20.467   9.467
  209POPC   PO4 6228  28.456  20.745   9.431
  209POPC   GL1 6229  28.484  20.681   9.062
  209POPC   GL2 6230  28.540  20.362   9.030
  209POPC   C1A 6231  28.396  20.802   8.692
  209POPC   D2A 6232  28.579  20.701   8.343
  209POPC   C3A 6233  28.319  20.702   8.031
  209POPC   C4A 6234  28.496  20.855   7.707
  209POPC   C1B 6235  28.305  20.291   8.659
  209POPC   C2B 6236  28.092  20.309   8.274
  209POPC   C3B 6237  28.325  20.192   7.914
  209POPC   C4B 6238  28.544  20.373   7.605
  210POPC   NC3 6239   2.338  18.642   9.416
  210POPC   PO4 6240   1.935  18.050   9.644
  210POPC   GL1 6241   2.071  18.005   9.195
  210POPC   GL2 6242   2.125  18.330   9.073
  210POPC   C1A 6243   1.958  17.994   8.717
  210POPC   D2A 6244   2.004  18.273   8.321
  210POPC   C3A 6245   1.932  18.186   7.879
  210POPC   C4A 6246   1.562  17.968   7.744
  210POPC   C1B 6247   2.364  18.333   8.687
  210POPC   C2B 6248   2.468  18.469   8.276
  210POPC   C3B 6249   2.385  18.454   7.815
  210POPC   C4B 6250   2.081  18.526   7.486
  211POPC   NC3 6251  13.155  36.240   9.468
  211POPC   PO4 6252  12.492  36.326   9.120
  211POPC   GL1 6253  12.876  36.230   9.025
  211POPC   GL2 6254  12.795  35.909   8.974
  211POPC   C1A 6255  12.963  36.196   8.588
  211POPC   D2A 6256  13.026  36.501   8.313
  211POPC   C3A 6257  12.705  36.433   8.035
  211POPC   C4A 6258  12.933  36.293   7.733
  211POPC   C1B 6259  13.170  35.774   8.792
  211POPC   C2B 6260  12.950  35.655   8.416
  211POPC   C3B 6261  12.896  35.866   8.037
  211POPC   C4B 6262  13.196  35.870   7.674
  212POPC   NC3 6263  14.006  43.034   9.532
  212POPC   PO4 6264  14.610  43.101   9.325
  212POPC   GL1 6265  14.286  42.930   9.115
  212POPC   GL2 6266  14.190  43.278   9.049
  212POPC   C1A 6267  14.121  42.829   8.734
  212POPC   D2A 6268  14.203  43.152   8.429
  212POPC   C3A 6269  14.345  43.170   8.005
  212POPC   C4A 6270  14.543  42.972   7.655
  212POPC   C1B 6271  14.516  43.429   8.749
  212POPC   C2B 6272  14.786  43.352   8.398
  212POPC   C3B 6273  14.755  43.498   7.980
  212POPC   C4B 6274  14.507  43.486   7.619
  213POPC   NC3 6275  16.335  24.156   9.430
  213POPC   PO4 6276  15.792  24.522   9.547
  213POPC   GL1 6277  16.035  24.502   9.170
  213POPC   GL2 6278  15.921  24.192   9.080
  213POPC   C1A 6279  16.113  24.736   8.783
  213POPC   D2A 6280  16.275  24.844   8.353
  213POPC   C3A 6281  16.041  24.664   7.995
  213POPC   C4A 6282  15.663  24.383   7.984
  213POPC   C1B 6283  16.219  24.204   8.751
  213POPC   C2B 6284  16.250  24.275   8.313
  213POPC   C3B 6285  16.107  24.145   7.885
  213POPC   C4B 6286  15.744  23.867   7.871
  214POPC   NC3 6287  40.639  26.998   9.570
  214POPC   PO4 6288  40.958  26.447   9.716
  214POPC   GL1 6289  40.829  26.568   9.272
  214POPC   GL2 6290  40.902  26.919   9.137
  214POPC   C1A 6291  40.728  26.546   8.818
  214POPC   D2A 6292  40.579  26.713   8.434
  214POPC   C3A 6293  40.723  26.564   8.092
  214POPC   C4A 6294  40.861  26.586   7.724
  214POPC   C1B 6295  40.624  27.093   8.813
  214POPC   C2B 6296  40.662  27.213   8.379
  214POPC   C3B 6297  40.695  27.052   7.929
  214POPC   C4B 6298  40.749  27.012   7.461
  215POPC   NC3 6299  40.306  27.766   9.359
  215POPC   PO4 6300  39.654  27.436   9.436
  215POPC   GL1 6301  39.908  27.545   9.114
  215POPC   GL2 6302  39.714  27.846   9.095
  215POPC   C1A 6303  40.224  27.465   8.763
  215POPC   D2A 6304  40.382  27.658   8.381
  215POPC   C3A 6305  40.312  27.392   8.046
  215POPC   C4A 6306  40.294  27.218   7.647
  215POPC   C1B 6307  39.763  27.700   8.660
  215POPC   C2B 6308  39.751  27.670   8.227
  215POPC   C3B 6309  39.966  27.715   7.868
  215POPC   C4B 6310  40.342  27.948   7.871
  216POPC   NC3 6311   2.541  44.787   9.862
  216POPC   PO4 6312   1.998  44.547   9.489
  216POPC   GL1 6313   2.099  44.343   9.135
  216POPC   GL2 6314   1.824  44.166   9.112
  216POPC   C1A 6315   2.099  44.588   8.772
  216POPC   D2A 6316   2.280  44.719   8.407
  216POPC   C3A 6317   2.025  44.712   8.044
  216POPC   C4A 6318   2.227  44.741   7.653
  216POPC   C1B 6319   1.725  44.252   8.754
  216POPC   C2B 6320   1.967  44.271   8.386
  216POPC   C3B 6321   1.854  44.231   8.004
  216POPC   C4B 6322   1.837  44.427   7.635
  217POPC   NC3 6323  22.357  37.360   9.438
  217POPC   PO4 6324  22.204  37.971   9.664
  217POPC   GL1 6325  22.143  37.772   9.228
  217POPC   GL2 6326  22.454  37.740   9.071
  217POPC   C1A 6327  21.948  37.681   8.846
  217POPC   D2A 6328  22.138  37.767   8.453
  217POPC   C3A 6329  22.017  37.452   8.165
  217POPC   C4A 6330  22.028  37.519   7.749
  217POPC   C1B 6331  22.337  37.376   8.758
  217POPC   C2B 6332  22.512  37.396   8.347
  217POPC   C3B 6333  22.457  37.691   8.025
  217POPC   C4B 6334  22.552  37.524   7.668
  218POPC   NC3 6335  11.046   3.721   9.701
  218POPC   PO4 6336  11.630   3.802   9.396
  218POPC   GL1 6337  11.309   3.616   9.161
  218POPC   GL2 6338  11.091   3.932   9.200
  218POPC   C1A 6339  11.387   3.384   8.737
  218POPC   D2A 6340  11.559   3.345   8.295
  218POPC   C3A 6341  11.229   3.340   7.991
  218POPC   C4A 6342  11.096   3.442   7.546
  218POPC   C1B 6343  11.237   3.895   8.744
  218POPC   C2B 6344  11.235   3.806   8.286
  218POPC   C3B 6345  11.245   3.832   7.830
  218POPC   C4B 6346  11.437   3.789   7.390
  219POPC   NC3 6347  19.716  10.743   9.509
  219POPC   PO4 6348  20.132  10.184   9.597
  219POPC   GL1 6349  19.941  10.306   9.243
  219POPC   GL2 6350  19.592  10.283   9.269
  219POPC   C1A 6351  19.906  10.509   8.853
  219POPC   D2A 6352  19.757  10.634   8.450
  219POPC   C3A 6353  19.960  10.770   8.068
  219POPC   C4A 6354  19.828  10.884   7.657
  219POPC   C1B 6355  19.600  10.009   8.921
  219POPC   C2B 6356  19.730  10.128   8.513
  219POPC   C3B 6357  19.850  10.248   8.125
  219POPC   C4B 6358  19.695  10.420   7.786
  220POPC   NC3 6359   7.167   1.353   9.867
  220POPC   PO4 6360   7.052   1.242   9.277
  220POPC   GL1 6361   7.321   1.282   8.934
  220POPC   GL2 6362   7.629   1.070   8.949
  220POPC   C1A 6363   7.203   1.456   8.556
  220POPC   D2A 6364   7.374   1.577   8.165
  220POPC   C3A 6365   7.100   1.359   7.886
  220POPC   C4A 6366   6.985   0.974   7.691
  220POPC   C1B 6367   7.627   1.191   8.516
  220POPC   C2B 6368   7.585   1.095   8.093
  220POPC   C3B 6369   7.641   1.268   7.702
  220POPC   C4B 6370   7.706   1.290   7.223
  221POPC   NC3 6371  35.024  25.821   9.525
  221POPC   PO4 6372  35.641  26.119   9.552
  221POPC   GL1 6373  35.542  26.039   9.143
  221POPC   GL2 6374  35.422  25.698   9.192
  221POPC   C1A 6375  35.207  26.173   8.841
  221POPC   D2A 6376  34.962  26.337   8.473
  221POPC   C3A 6377  35.224  26.286   8.093
  221POPC   C4A 6378  35.509  26.068   7.806
  221POPC   C1B 6379  35.125  25.649   8.852
  221POPC   C2B 6380  35.124  25.837   8.426
  221POPC   C3B 6381  35.026  25.717   8.019
  221POPC   C4B 6382  35.127  25.795   7.642
  222POPC   NC3 6383  35.311  42.522   9.439
  222POPC   PO4 6384  35.960  42.551   9.526
  222POPC   GL1 6385  35.722  42.652   9.143
  222POPC   GL2 6386  35.547  42.318   9.033
  222POPC   C1A 6387  35.507  42.754   8.753
  222POPC   D2A 6388  35.448  42.520   8.358
  222POPC   C3A 6389  35.562  42.592   7.887
  222POPC   C4A 6390  35.475  42.399   7.459
  222POPC   C1B 6391  35.152  42.383   8.778
  222POPC   C2B 6392  34.927  42.353   8.398
  222POPC   C3B 6393  35.121  42.327   8.009
  222POPC   C4B 6394  35.130  42.099   7.682
  223POPC   NC3 6395  40.340  14.456   9.388
  223POPC   PO4 6396  39.761  14.758   9.354
  223POPC   GL1 6397  40.015  14.646   8.984
  223POPC   GL2 6398  40.229  14.326   8.889
  223POPC   C1A 6399  39.841  14.572   8.575
  223POPC   D2A 6400  39.941  14.319   8.246
  223POPC   C3A 6401  40.289  14.475   8.050
  223POPC   C4A 6402  40.271  14.725   7.661
  223POPC   C1B 6403  39.939  14.021   8.651
  223POPC   C2B 6404  39.710  13.846   8.275
  223POPC   C3B 6405  39.630  14.082   7.907
  223POPC   C4B 6406  39.876  14.412   7.747
  224POPC   NC3 6407  42.096   4.890   9.542
  224POPC   PO4 6408  42.704   5.107   9.788
  224POPC   GL1 6409  42.610   5.233   9.352
  224POPC   GL2 6410  42.904   5.419   9.233
  224POPC   C1A 6411  42.460   5.073   8.953
  224POPC   D2A 6412  42.418   4.908   8.554
  224POPC   C3A 6413  42.402   4.978   8.152
  224POPC   C4A 6414  42.582   4.696   7.906
  224POPC   C1B 6415  42.644   5.548   8.895
  224POPC   C2B 6416  42.420   5.398   8.541
  224POPC   C3B 6417  42.461   5.477   8.110
  224POPC   C4B 6418  42.575   5.299   7.779
  225POPC   NC3 6419  29.959  14.582   9.529
  225POPC   PO4 6420  30.013  13.925   9.514
  225POPC   GL1 6421  29.912  14.225   9.181
  225POPC   GL2 6422  30.280  14.360   9.182
  225POPC   C1A 6423  29.970  14.324   8.741
  225POPC   D2A 6424  29.839  14.092   8.376
  225POPC   C3A 6425  29.873  14.305   8.002
  225POPC   C4A 6426  29.972  14.171   7.570
  225POPC   C1B 6427  30.474  14.385   8.791
  225POPC   C2B 6428  30.344  14.252   8.371
  225POPC   C3B 6429  30.362  14.190   7.938
  225POPC   C4B 6430  30.248  14.605   7.770
  226POPC   NC3 6431  38.991   5.622   9.390
  226POPC   PO4 6432  39.640   5.462   9.432
  226POPC   GL1 6433  39.433   5.631   9.022
  226POPC   GL2 6434  39.046   5.606   8.895
  226POPC   C1A 6435  39.573   6.020   8.780
  226POPC   D2A 6436  39.791   6.141   8.367
  226POPC   C3A 6437  39.617   6.057   7.971
  226POPC   C4A 6438  39.323   5.715   7.977
  226POPC   C1B 6439  39.065   5.962   8.664
  226POPC   C2B 6440  39.258   6.082   8.315
  226POPC   C3B 6441  39.133   6.248   7.910
  226POPC   C4B 6442  38.897   6.426   7.551
  227POPC   NC3 6443  37.141  36.390   9.169
  227POPC   PO4 6444  36.758  35.885   9.366
  227POPC   GL1 6445  36.948  35.697   8.999
  227POPC   GL2 6446  36.613  35.671   8.913
  227POPC   C1A 6447  36.998  35.796   8.553
  227POPC   D2A 6448  36.806  36.132   8.312
  227POPC   C3A 6449  37.029  36.313   8.001
  227POPC   C4A 6450  36.926  36.046   7.665
  227POPC   C1B 6451  36.578  36.111   8.783
  227POPC   C2B 6452  36.430  36.436   8.508
  227POPC   C3B 6453  36.416  36.376   8.042
  227POPC   C4B 6454  36.663  36.468   7.701
  228POPC   NC3 6455  26.730   5.806   9.629
  228POPC   PO4 6456  27.381   5.936   9.744
  228POPC   GL1 6457  27.125   5.776   9.289
  228POPC   GL2 6458  26.785   5.555   9.199
  228POPC   C1A 6459  26.938   5.896   8.865
  228POPC   D2A 6460  26.975   6.137   8.488
  228POPC   C3A 6461  27.104   5.861   8.159
  228POPC   C4A 6462  26.959   5.820   7.780
  228POPC   C1B 6463  26.575   5.538   8.776
  228POPC   C2B 6464  26.619   5.707   8.341
  228POPC   C3B 6465  26.453   5.738   7.911
  228POPC   C4B 6466  26.560   5.782   7.450
  229POPC   NC3 6467  14.250   7.643   9.624
  229POPC   PO4 6468  13.587   7.282   9.587
  229POPC   GL1 6469  13.770   7.337   9.213
  229POPC   GL2 6470  13.964   7.012   9.245
  229POPC   C1A 6471  13.613   7.455   8.769
  229POPC   D2A 6472  13.585   7.368   8.311
  229POPC   C3A 6473  13.647   7.599   7.959
  229POPC   C4A 6474  13.389   7.686   7.636
  229POPC   C1B 6475  14.021   7.158   8.830
  229POPC   C2B 6476  13.894   7.000   8.454
  229POPC   C3B 6477  13.932   7.109   8.028
  229POPC   C4B 6478  13.979   7.308   7.664
  230POPC   NC3 6479   2.130  34.472   9.689
  230POPC   PO4 6480   1.556  34.797   9.471
  230POPC   GL1 6481   1.821  34.556   9.166
  230POPC   GL2 6482   2.185  34.472   9.192
  230POPC   C1A 6483   1.741  34.565   8.723
  230POPC   D2A 6484   1.583  34.517   8.314
  230POPC   C3A 6485   1.828  34.697   7.984
  230POPC   C4A 6486   1.949  34.417   7.696
  230POPC   C1B 6487   2.232  34.681   8.811
  230POPC   C2B 6488   2.135  34.653   8.392
  230POPC   C3B 6489   2.307  34.458   8.050
  230POPC   C4B 6490   2.496  34.267   7.708
  231POPC   NC3 6491  17.736   9.582   9.415
  231POPC   PO4 6492  17.855  10.152   9.781
  231POPC   GL1 6493  17.634  10.114   9.319
  231POPC   GL2 6494  17.354   9.864   9.232
  231POPC   C1A 6495  17.676   9.969   8.849
  231POPC   D2A 6496  17.563   9.787   8.440
  231POPC   C3A 6497  17.643   9.970   8.075
  231POPC   C4A 6498  17.710   9.703   7.758
  231POPC   C1B 6499  17.260   9.636   8.816
  231POPC   C2B 6500  17.085   9.619   8.357
  231POPC   C3B 6501  17.214   9.628   7.900
  231POPC   C4B 6502  17.006   9.573   7.541
  232POPC   NC3 6503  13.914  26.309   9.391
  232POPC   PO4 6504  14.263  25.795   9.559
  232POPC   GL1 6505  14.469  25.918   9.166
  232POPC   GL2 6506  14.621  26.247   9.145
  232POPC   C1A 6507  14.383  26.049   8.727
  232POPC   D2A 6508  14.145  26.031   8.328
  232POPC   C3A 6509  14.391  25.990   7.975
  232POPC   C4A 6510  14.394  26.231   7.579
  232POPC   C1B 6511  14.872  26.222   8.760
  232POPC   C2B 6512  14.733  26.102   8.348
  232POPC   C3B 6513  14.782  26.302   7.922
  232POPC   C4B 6514  14.895  26.298   7.491
  233POPC   NC3 6515  31.255   8.164   9.511
  233POPC   PO4 6516  31.902   7.936   9.646
  233POPC   GL1 6517  31.662   8.006   9.193
  233POPC   GL2 6518  31.442   8.321   9.068
  233POPC   C1A 6519  31.409   7.922   8.779
  233POPC   D2A 6520  31.214   8.167   8.490
  233POPC   C3A 6521  31.506   8.281   8.229
  233POPC   C4A 6522  31.589   8.098   7.821
  233POPC   C1B 6523  31.328   8.625   8.715
  233POPC   C2B 6524  31.106   8.646   8.299
  233POPC   C3B 6525  31.100   8.330   7.946
  233POPC   C4B 6526  31.212   8.379   7.507
  234POPC   NC3 6527  11.788  35.230   9.478
  234POPC   PO4 6528  12.390  35.422   9.448
  234POPC   GL1 6529  12.196  35.173   9.141
  234POPC   GL2 6530  11.906  35.383   9.004
  234POPC   C1A 6531  12.214  35.135   8.710
  234POPC   D2A 6532  12.018  35.372   8.410
  234POPC   C3A 6533  12.137  35.176   8.050
  234POPC   C4A 6534  12.254  35.297   7.659
  234POPC   C1B 6535  11.624  35.563   8.679
  234POPC   C2B 6536  11.586  35.683   8.296
  234POPC   C3B 6537  11.770  35.502   7.972
  234POPC   C4B 6538  11.679  35.182   7.700
  235POPC   NC3 6539   3.921  13.959   9.456
  235POPC   PO4 6540   3.283  13.961   9.486
  235POPC   GL1 6541   3.545  13.780   9.130
  235POPC   GL2 6542   3.653  13.462   9.068
  235POPC   C1A 6543   3.519  13.767   8.656
  235POPC   D2A 6544   3.495  13.400   8.371
  235POPC   C3A 6545   3.284  13.494   7.998
  235POPC   C4A 6546   3.308  13.723   7.626
  235POPC   C1B 6547   3.989  13.683   8.824
  235POPC   C2B 6548   4.011  13.909   8.442
  235POPC   C3B 6549   3.692  13.845   8.139
  235POPC   C4B 6550   3.780  13.618   7.779
  236POPC   NC3 6551   9.609  23.370   9.414
  236POPC   PO4 6552  10.172  23.706   9.443
  236POPC   GL1 6553   9.939  23.789   9.103
  236POPC   GL2 6554   9.688  24.063   9.220
  236POPC   C1A 6555   9.853  23.509   8.727
  236POPC   D2A 6556   9.617  23.478   8.346
  236POPC   C3A 6557   9.729  23.448   7.908
  236POPC   C4A 6558   9.934  23.766   7.649
  236POPC   C1B 6559   9.557  23.924   8.817
  236POPC   C2B 6560   9.700  24.015   8.434
  236POPC   C3B 6561   9.562  23.930   8.038
  236POPC   C4B 6562   9.410  23.816   7.649
  237POPC   NC3 6563   2.578   1.173   9.520
  237POPC   PO4 6564   3.145   0.834   9.381
  237POPC   GL1 6565   2.856   0.904   9.043
  237POPC   GL2 6566   2.644   1.174   9.036
  237POPC   C1A 6567   2.988   1.197   8.688
  237POPC   D2A 6568   2.779   1.499   8.446
  237POPC   C3A 6569   2.860   1.366   8.037
  237POPC   C4A 6570   2.599   1.336   7.650
  237POPC   C1B 6571   2.438   1.082   8.720
  237POPC   C2B 6572   2.628   0.992   8.371
  237POPC   C3B 6573   2.395   1.177   8.092
  237POPC   C4B 6574   2.228   0.968   7.773
  238POPC   NC3 6575  44.388  24.355   9.826
  238POPC   PO4 6576  43.747  24.592   9.644
  238POPC   GL1 6577  43.849  24.364   9.247
  238POPC   GL2 6578  43.575  24.200   9.127
  238POPC   C1A 6579  43.950  24.313   8.773
  238POPC   D2A 6580  43.799  24.551   8.397
  238POPC   C3A 6581  43.834  24.389   7.999
  238POPC   C4A 6582  44.174  24.528   7.731
  238POPC   C1B 6583  43.520  24.573   8.825
  238POPC   C2B 6584  43.290  24.604   8.437
  238POPC   C3B 6585  43.424  24.730   8.030
  238POPC   C4B 6586  43.732  24.779   7.675
  239POPC   NC3 6587  37.627  12.945   9.394
  239POPC   PO4 6588  37.967  12.379   9.370
  239POPC   GL1 6589  37.904  12.706   9.028
  239POPC   GL2 6590  37.745  13.043   8.929
  239POPC   C1A 6591  37.742  12.678   8.602
  239POPC   D2A 6592  37.538  12.919   8.290
  239POPC   C3A 6593  37.667  12.704   7.931
  239POPC   C4A 6594  37.885  12.634   7.529
  239POPC   C1B 6595  37.429  13.257   8.675
  239POPC   C2B 6596  37.308  13.405   8.258
  239POPC   C3B 6597  37.256  13.192   7.855
  239POPC   C4B 6598  37.599  13.061   7.571
  240POPC   NC3 6599  18.309  30.879   9.957
  240POPC   PO4 6600  18.619  30.529   9.380
  240POPC   GL1 6601  18.284  30.675   9.175
  240POPC   GL2 6602  18.153  30.994   9.127
  240POPC   C1A 6603  18.181  30.581   8.761
  240POPC   D2A 6604  18.052  30.637   8.349
  240POPC   C3A 6605  18.416  30.509   8.143
  240POPC   C4A 6606  18.418  30.391   7.773
  240POPC   C1B 6607  18.430  31.058   8.746
  240POPC   C2B 6608  18.484  30.990   8.272
  240POPC   C3B 6609  18.255  30.886   7.845
  240POPC   C4B 6610  18.041  30.883   7.405
  241POPC   NC3 6611  26.762   0.151   9.545
  241POPC   PO4 6612  27.072  44.481   9.572
  241POPC   GL1 6613  26.813  44.692   9.301
  241POPC   GL2 6614  26.849  44.403   9.113
  241POPC   C1A 6615  26.704  44.836   8.894
  241POPC   D2A 6616  26.672  44.681   8.481
  241POPC   C3A 6617  26.824  44.660   8.045
  241POPC   C4A 6618  26.603  44.544   7.684
  241POPC   C1B 6619  27.070  44.469   8.742
  241POPC   C2B 6620  26.975  44.267   8.351
  241POPC   C3B 6621  27.135  44.263   7.952
  241POPC   C4B 6622  27.096  44.447   7.563
  242POPC   NC3 6623  41.203  22.848   9.543
  242POPC   PO4 6624  41.910  22.843   9.419
  242POPC   GL1 6625  41.580  23.060   9.157
  242POPC   GL2 6626  41.257  23.249   9.190
  242POPC   C1A 6627  41.415  22.924   8.759
  242POPC   D2A 6628  41.598  22.719   8.359
  242POPC   C3A 6629  41.463  22.937   7.987
  242POPC   C4A 6630  41.663  23.017   7.556
  242POPC   C1B 6631  41.318  23.445   8.760
  242POPC   C2B 6632  41.179  23.451   8.320
  242POPC   C3B 6633  41.245  23.409   7.897
  242POPC   C4B 6634  41.165  23.086   7.616
  243POPC   NC3 6635  10.355  31.945   9.465
  243POPC   PO4 6636  10.581  32.520   9.636
  243POPC   GL1 6637  10.521  32.381   9.232
  243POPC   GL2 6638  10.773  32.225   9.093
  243POPC   C1A 6639  10.362  32.278   8.802
  243POPC   D2A 6640  10.249  32.116   8.421
  243POPC   C3A 6641  10.379  32.372   8.134
  243POPC   C4A 6642  10.516  32.487   7.730
  243POPC   C1B 6643  10.863  31.994   8.729
  243POPC   C2B 6644  10.723  31.949   8.321
  243POPC   C3B 6645  10.874  32.236   8.005
  243POPC   C4B 6646  10.941  32.135   7.583
  244POPC   NC3 6647  12.715  33.846   9.248
  244POPC   PO4 6648  13.337  34.035   9.430
  244POPC   GL1 6649  13.213  33.735   9.116
  244POPC   GL2 6650  13.141  33.357   9.156
  244POPC   C1A 6651  13.087  33.842   8.714
  244POPC   D2A 6652  12.729  33.843   8.484
  244POPC   C3A 6653  12.787  33.922   8.054
  244POPC   C4A 6654  12.408  33.888   7.815
  244POPC   C1B 6655  13.398  33.395   8.796
  244POPC   C2B 6656  13.180  33.446   8.417
  244POPC   C3B 6657  13.149  33.446   8.005
  244POPC   C4B 6658  13.267  33.587   7.607
  245POPC   NC3 6659  31.130   6.418   9.346
  245POPC   PO4 6660  31.522   7.030   9.476
  245POPC   GL1 6661  31.565   6.732   9.158
  245POPC   GL2 6662  31.304   6.805   8.965
  245POPC   C1A 6663  31.770   6.564   8.791
  245POPC   D2A 6664  31.709   6.402   8.375
  245POPC   C3A 6665  31.580   6.648   8.013
  245POPC   C4A 6666  31.774   6.688   7.610
  245POPC   C1B 6667  31.272   6.420   8.713
  245POPC   C2B 6668  31.194   6.427   8.297
  245POPC   C3B 6669  31.049   6.399   7.913
  245POPC   C4B 6670  31.326   6.468   7.579
  246POPC   NC3 6671  23.231  16.092   9.426
  246POPC   PO4 6672  22.717  15.678   9.746
  246POPC   GL1 6673  22.798  15.824   9.278
  246POPC   GL2 6674  23.032  15.584   9.194
  246POPC   C1A 6675  22.885  16.071   8.866
  246POPC   D2A 6676  22.740  16.126   8.449
  246POPC   C3A 6677  23.022  16.087   8.095
  246POPC   C4A 6678  23.116  16.314   7.709
  246POPC   C1B 6679  23.004  15.593   8.759
  246POPC   C2B 6680  23.052  15.412   8.384
  246POPC   C3B 6681  23.138  15.449   7.955
  246POPC   C4B 6682  23.112  15.776   7.703
  247POPC   NC3 6683  37.870  38.325   9.655
  247POPC   PO4 6684  38.516  38.560   9.634
  247POPC   GL1 6685  38.540  38.374   9.217
  247POPC   GL2 6686  38.235  38.405   9.032
  247POPC   C1A 6687  38.671  38.261   8.800
  247POPC   D2A 6688  38.457  38.427   8.405
  247POPC   C3A 6689  38.601  38.240   8.030
  247POPC   C4A 6690  38.655  38.450   7.678
  247POPC   C1B 6691  38.065  38.652   8.704
  247POPC   C2B 6692  38.090  38.773   8.265
  247POPC   C3B 6693  38.164  38.497   7.915
  247POPC   C4B 6694  38.113  38.600   7.487
  248POPC   NC3 6695  33.199  37.349   9.425
  248POPC   PO4 6696  33.171  37.930   9.664
  248POPC   GL1 6697  33.071  37.812   9.168
  248POPC   GL2 6698  33.027  37.535   8.975
  248POPC   C1A 6699  32.959  37.968   8.720
  248POPC   D2A 6700  33.092  37.870   8.272
  248POPC   C3A 6701  33.131  38.050   7.844
  248POPC   C4A 6702  32.954  37.864   7.447
  248POPC   C1B 6703  33.082  37.445   8.558
  248POPC   C2B 6704  32.785  37.399   8.225
  248POPC   C3B 6705  32.828  37.536   7.807
  248POPC   C4B 6706  32.686  37.418   7.338
  249POPC   NC3 6707  12.631   8.122   9.417
  249POPC   PO4 6708  13.114   8.515   9.677
  249POPC   GL1 6709  13.017   8.338   9.158
  249POPC   GL2 6710  12.636   8.340   8.968
  249POPC   C1A 6711  12.958   8.029   8.743
  249POPC   D2A 6712  12.711   7.916   8.348
  249POPC   C3A 6713  12.841   8.025   7.917
  249POPC   C4A 6714  13.045   8.024   7.492
  249POPC   C1B 6715  12.709   8.433   8.533
  249POPC   C2B 6716  13.056   8.325   8.280
  249POPC   C3B 6717  13.150   8.432   7.846
  249POPC   C4B 6718  12.861   8.510   7.538
  250POPC   NC3 6719   2.966  37.241   9.497
  250POPC   PO4 6720   2.549  36.758   9.604
  250POPC   GL1 6721   2.598  37.033   9.211
  250POPC   GL2 6722   2.808  36.790   9.044
  250POPC   C1A 6723   2.790  37.234   8.815
  250POPC   D2A 6724   2.611  37.245   8.389
  250POPC   C3A 6725   2.792  37.030   8.024
  250POPC   C4A 6726   2.688  37.013   7.584
  250POPC   C1B 6727   2.778  36.750   8.580
  250POPC   C2B 6728   2.828  36.494   8.213
  250POPC   C3B 6729   2.911  36.581   7.782
  250POPC   C4B 6730   3.087  36.763   7.445
  251POPC   NC3 6731  15.550  44.604   9.399
  251POPC   PO4 6732  16.260  44.705   9.448
  251POPC   GL1 6733  16.113  44.680   9.091
  251POPC   GL2 6734  16.175   0.037   9.055
  251POPC   C1A 6735  16.264  44.663   8.668
  251POPC   D2A 6736  15.939  44.547   8.413
  251POPC   C3A 6737  15.939  44.442   7.985
  251POPC   C4A 6738  15.694  44.661   7.660
  251POPC   C1B 6739  15.846  44.952   8.763
  251POPC   C2B 6740  16.022   0.070   8.396
  251POPC   C3B 6741  15.884  44.963   8.036
  251POPC   C4B 6742  16.009   0.169   7.697
  252POPC   NC3 6743   4.715  16.934   9.430
  252POPC   PO4 6744   5.239  16.454   9.560
  252POPC   GL1 6745   5.117  16.689   9.184
  252POPC   GL2 6746   5.320  16.981   9.148
  252POPC   C1A 6747   5.002  16.623   8.738
  252POPC   D2A 6748   5.158  16.392   8.410
  252POPC   C3A 6749   4.988  16.472   7.990
  252POPC   C4A 6750   4.969  16.660   7.582
  252POPC   C1B 6751   5.379  16.969   8.676
  252POPC   C2B 6752   5.100  16.909   8.322
  252POPC   C3B 6753   5.111  17.028   7.902
  252POPC   C4B 6754   5.277  17.069   7.458
  253POPC   NC3 6755  27.523   5.788  10.182
  253POPC   PO4 6756  27.891   5.708   9.596
  253POPC   GL1 6757  27.665   5.884   9.251
  253POPC   GL2 6758  27.724   5.562   9.119
  253POPC   C1A 6759  27.455   5.902   8.829
  253POPC   D2A 6760  27.495   6.084   8.401
  253POPC   C3A 6761  27.714   5.916   8.045
  253POPC   C4A 6762  27.453   5.928   7.686
  253POPC   C1B 6763  27.623   5.405   8.772
  253POPC   C2B 6764  27.459   5.559   8.392
  253POPC   C3B 6765  27.626   5.394   8.018
  253POPC   C4B 6766  27.777   5.523   7.662
  254POPC   NC3 6767  29.428  40.518   9.443
  254POPC   PO4 6768  29.064  41.016   9.402
  254POPC   GL1 6769  29.099  40.784   9.033
  254POPC   GL2 6770  29.378  40.561   8.953
  254POPC   C1A 6771  29.052  40.889   8.601
  254POPC   D2A 6772  28.911  40.677   8.230
  254POPC   C3A 6773  28.983  40.856   7.824
  254POPC   C4A 6774  29.043  40.638   7.426
  254POPC   C1B 6775  29.560  40.963   8.898
  254POPC   C2B 6776  29.413  41.266   8.614
  254POPC   C3B 6777  29.331  41.276   8.173
  254POPC   C4B 6778  29.257  41.303   7.739
  255POPC   NC3 6779  17.906  11.166   9.429
  255POPC   PO4 6780  17.184  11.356   9.601
  255POPC   GL1 6781  17.483  11.482   9.247
  255POPC   GL2 6782  17.492  11.155   9.145
  255POPC   C1A 6783  17.561  11.476   8.763
  255POPC   D2A 6784  17.381  11.267   8.363
  255POPC   C3A 6785  17.341  11.428   7.925
  255POPC   C4A 6786  17.252  11.470   7.478
  255POPC   C1B 6787  17.671  10.939   8.809
  255POPC   C2B 6788  17.843  10.962   8.413
  255POPC   C3B 6789  17.671  10.972   8.011
  255POPC   C4B 6790  17.635  11.158   7.592
  256POPC   NC3 6791  28.377  34.867   9.668
  256POPC   PO4 6792  28.037  34.241   9.573
  256POPC   GL1 6793  28.160  34.565   9.218
  256POPC   GL2 6794  28.479  34.766   9.185
  256POPC   C1A 6795  28.234  34.645   8.748
  256POPC   D2A 6796  28.144  34.390   8.375
  256POPC   C3A 6797  28.238  34.552   7.967
  256POPC   C4A 6798  28.110  34.869   7.656
  256POPC   C1B 6799  28.755  34.741   8.800
  256POPC   C2B 6800  28.607  34.687   8.371
  256POPC   C3B 6801  28.623  34.877   7.970
  256POPC   C4B 6802  28.583  34.684   7.558
  257POPC   NC3 6803   9.247   6.737   9.499
  257POPC   PO4 6804   8.695   6.871   9.795
  257POPC   GL1 6805   8.757   6.670   9.334
  257POPC   GL2 6806   9.014   6.409   9.164
  257POPC   C1A 6807   8.769   6.779   8.873
  257POPC   D2A 6808   8.798   6.616   8.457
  257POPC   C3A 6809   8.844   6.827   8.100
  257POPC   C4A 6810   8.721   6.734   7.688
  257POPC   C1B 6811   9.221   6.536   8.748
  257POPC   C2B 6812   9.297   6.610   8.276
  257POPC   C3B 6813   9.179   6.534   7.834
  257POPC   C4B 6814   9.214   6.156   7.587
  258POPC   NC3 6815  38.901  16.260   9.315
  258POPC   PO4 6816  39.419  16.428   9.611
  258POPC   GL1 6817  39.423  16.230   9.188
  258POPC   GL2 6818  39.317  15.881   9.217
  258POPC   C1A 6819  39.280  16.179   8.732
  258POPC   D2A 6820  39.415  16.315   8.306
  258POPC   C3A 6821  39.332  16.030   7.967
  258POPC   C4A 6822  38.877  15.910   7.872
  258POPC   C1B 6823  39.283  15.650   8.806
  258POPC   C2B 6824  39.162  15.756   8.374
  258POPC   C3B 6825  39.185  15.538   7.969
  258POPC   C4B 6826  39.292  15.721   7.528
  259POPC   NC3 6827  43.357  17.998   9.541
  259POPC   PO4 6828  42.956  18.408   9.877
  259POPC   GL1 6829  42.965  18.266   9.399
  259POPC   GL2 6830  43.257  18.466   9.219
  259POPC   C1A 6831  42.980  18.100   8.960
  259POPC   D2A 6832  42.946  18.129   8.512
  259POPC   C3A 6833  43.106  17.936   8.140
  259POPC   C4A 6834  42.895  18.009   7.712
  259POPC   C1B 6835  43.084  18.581   8.784
  259POPC   C2B 6836  43.208  18.559   8.365
  259POPC   C3B 6837  43.046  18.425   7.984
  259POPC   C4B 6838  43.274  18.724   7.773
  260POPC   NC3 6839  33.635  14.689   9.786
  260POPC   PO4 6840  33.856  15.244   9.726
  260POPC   GL1 6841  33.904  15.180   9.222
  260POPC   GL2 6842  34.047  14.874   9.153
  260POPC   C1A 6843  33.918  15.265   8.745
  260POPC   D2A 6844  34.069  15.149   8.289
  260POPC   C3A 6845  33.943  15.376   7.909
  260POPC   C4A 6846  33.553  15.635   7.839
  260POPC   C1B 6847  33.691  14.814   8.870
  260POPC   C2B 6848  33.443  14.944   8.482
  260POPC   C3B 6849  33.528  15.105   8.065
  260POPC   C4B 6850  33.848  14.895   7.788
  261POPC   NC3 6851   1.195  23.408   9.878
  261POPC   PO4 6852   1.407  23.909   9.589
  261POPC   GL1 6853   1.164  23.757   9.244
  261POPC   GL2 6854   0.915  23.969   9.166
  261POPC   C1A 6855   1.260  23.895   8.811
  261POPC   D2A 6856   1.047  23.987   8.458
  261POPC   C3A 6857   1.153  23.777   8.067
  261POPC   C4A 6858   1.485  23.523   7.834
  261POPC   C1B 6859   0.881  23.585   8.820
  261POPC   C2B 6860   0.726  23.603   8.387
  261POPC   C3B 6861   0.758  23.407   7.983
  261POPC   C4B 6862   0.979  23.592   7.623
  262POPC   NC3 6863   1.030  38.372   9.390
  262POPC   PO4 6864   1.578  38.786   9.654
  262POPC   GL1 6865   1.516  38.509   9.210
  262POPC   GL2 6866   1.379  38.681   8.904
  262POPC   C1A 6867   1.365  38.181   8.841
  262POPC   D2A 6868   1.405  38.083   8.397
  262POPC   C3A 6869   1.326  38.392   8.099
  262POPC   C4A 6870   1.427  38.394   7.685
  262POPC   C1B 6871   0.916  38.601   8.748
  262POPC   C2B 6872   0.708  38.265   8.522
  262POPC   C3B 6873   0.810  38.296   8.097
  262POPC   C4B 6874   0.965  38.657   7.870
  263POPC   NC3 6875  39.699  12.080   9.714
  263POPC   PO4 6876  39.194  11.655   9.669
  263POPC   GL1 6877  39.437  11.896   9.288
  263POPC   GL2 6878  39.142  11.964   9.064
  263POPC   C1A 6879  39.572  12.052   8.844
  263POPC   D2A 6880  39.241  12.021   8.515
  263POPC   C3A 6881  39.369  12.192   8.130
  263POPC   C4A 6882  39.431  12.033   7.729
  263POPC   C1B 6883  38.863  11.746   8.775
  263POPC   C2B 6884  38.730  11.684   8.348
  263POPC   C3B 6885  38.872  11.763   7.908
  263POPC   C4B 6886  38.960  12.039   7.554
  264POPC   NC3 6887   3.617   5.886   9.724
  264POPC   PO4 6888   3.734   5.583   9.239
  264POPC   GL1 6889   3.433   5.914   9.185
  264POPC   GL2 6890   3.159   5.682   9.232
  264POPC   C1A 6891   3.469   6.146   8.770
  264POPC   D2A 6892   3.431   5.998   8.329
  264POPC   C3A 6893   3.715   5.778   8.020
  264POPC   C4A 6894   3.567   5.953   7.651
  264POPC   C1B 6895   3.216   5.692   8.772
  264POPC   C2B 6896   3.439   5.493   8.441
  264POPC   C3B 6897   3.290   5.523   8.020
  264POPC   C4B 6898   3.503   5.426   7.678
  265POPC   NC3 6899  33.673  34.530   9.609
  265POPC   PO4 6900  34.297  34.243   9.459
  265POPC   GL1 6901  33.999  34.533   9.211
  265POPC   GL2 6902  33.689  34.791   9.186
  265POPC   C1A 6903  33.992  34.584   8.802
  265POPC   D2A 6904  34.163  34.509   8.435
  265POPC   C3A 6905  33.849  34.408   8.178
  265POPC   C4A 6906  34.002  34.387   7.801
  265POPC   C1B 6907  33.587  34.884   8.747
  265POPC   C2B 6908  33.837  34.920   8.385
  265POPC   C3B 6909  33.924  34.884   7.965
  265POPC   C4B 6910  33.679  34.745   7.609
  266POPC   NC3 6911  23.503   8.463   9.635
  266POPC   PO4 6912  24.015   8.022   9.644
  266POPC   GL1 6913  24.036   8.387   9.283
  266POPC   GL2 6914  23.720   8.410   9.168
  266POPC   C1A 6915  24.082   8.343   8.776
  266POPC   D2A 6916  23.767   8.367   8.409
  266POPC   C3A 6917  23.780   8.127   8.017
  266POPC   C4A 6918  24.210   8.119   7.843
  266POPC   C1B 6919  23.436   8.315   8.841
  266POPC   C2B 6920  23.271   8.303   8.399
  266POPC   C3B 6921  23.358   8.473   7.964
  266POPC   C4B 6922  23.175   8.428   7.542
  267POPC   NC3 6923  40.960  30.322   9.705
  267POPC   PO4 6924  40.677  29.773   9.618
  267POPC   GL1 6925  40.748  29.951   9.206
  267POPC   GL2 6926  41.041  30.110   9.118
  267POPC   C1A 6927  40.773  29.874   8.752
  267POPC   D2A 6928  40.491  30.037   8.492
  267POPC   C3A 6929  40.556  30.104   8.055
  267POPC   C4A 6930  40.619  29.981   7.610
  267POPC   C1B 6931  41.207  30.157   8.733
  267POPC   C2B 6932  41.026  30.132   8.358
  267POPC   C3B 6933  41.024  29.895   8.011
  267POPC   C4B 6934  41.109  30.083   7.636
  268POPC   NC3 6935  33.645   5.801   9.869
  268POPC   PO4 6936  33.093   6.094   9.593
  268POPC   GL1 6937  33.078   5.890   9.204
  268POPC   GL2 6938  33.211   6.152   9.052
  268POPC   C1A 6939  32.993   5.790   8.754
  268POPC   D2A 6940  32.749   5.655   8.400
  268POPC   C3A 6941  32.819   5.950   8.080
  268POPC   C4A 6942  32.822   5.773   7.662
  268POPC   C1B 6943  33.384   6.163   8.668
  268POPC   C2B 6944  33.281   5.970   8.305
  268POPC   C3B 6945  33.269   6.072   7.893
  268POPC   C4B 6946  33.259   5.968   7.498
  269POPC   NC3 6947  24.382   6.135   9.317
  269POPC   PO4 6948  24.488   5.499   9.520
  269POPC   GL1 6949  24.671   5.718   9.180
  269POPC   GL2 6950  24.404   5.767   8.962
  269POPC   C1A 6951  24.899   5.802   8.805
  269POPC   D2A 6952  24.726   5.629   8.432
  269POPC   C3A 6953  24.826   5.743   8.011
  269POPC   C4A 6954  24.660   5.939   7.647
  269POPC   C1B 6955  24.487   6.081   8.633
  269POPC   C2B 6956  24.503   6.088   8.180
  269POPC   C3B 6957  24.276   6.245   7.855
  269POPC   C4B 6958  24.362   6.307   7.439
  270POPC   NC3 6959   4.860  39.042   9.660
  270POPC   PO4 6960   4.341  39.445   9.633
  270POPC   GL1 6961   4.617  39.322   9.261
  270POPC   GL2 6962   4.507  38.991   9.206
  270POPC   C1A 6963   4.510  39.273   8.794
  270POPC   D2A 6964   4.157  39.379   8.533
  270POPC   C3A 6965   4.229  39.249   8.119
  270POPC   C4A 6966   4.524  39.416   7.845
  270POPC   C1B 6967   4.346  38.757   8.839
  270POPC   C2B 6968   4.120  38.828   8.451
  270POPC   C3B 6969   4.320  38.742   8.075
  270POPC   C4B 6970   4.195  38.903   7.704
  271POPC   NC3 6971  39.346  14.640   9.504
  271POPC   PO4 6972  39.104  14.022   9.516
  271POPC   GL1 6973  38.912  14.182   9.155
  271POPC   GL2 6974  39.001  14.509   9.135
  271POPC   C1A 6975  39.132  14.177   8.733
  271POPC   D2A 6976  39.416  14.277   8.381
  271POPC   C3A 6977  39.161  14.261   8.007
  271POPC   C4A 6978  39.164  13.995   7.641
  271POPC   C1B 6979  39.138  14.708   8.738
  271POPC   C2B 6980  39.403  14.782   8.361
  271POPC   C3B 6981  39.460  14.661   7.932
  271POPC   C4B 6982  39.420  14.476   7.502
  272POPC   NC3 6983  23.310  30.130   9.642
  272POPC   PO4 6984  22.599  30.105   9.577
  272POPC   GL1 6985  22.860  30.282   9.200
  272POPC   GL2 6986  23.177  30.125   9.117
  272POPC   C1A 6987  22.710  30.370   8.776
  272POPC   D2A 6988  22.748  30.283   8.331
  272POPC   C3A 6989  22.933  29.895   8.237
  272POPC   C4A 6990  22.981  29.682   7.845
  272POPC   C1B 6991  23.212  30.317   8.690
  272POPC   C2B 6992  23.275  30.279   8.226
  272POPC   C3B 6993  23.013  30.190   7.823
  272POPC   C4B 6994  23.123  30.269   7.367
  273POPC   NC3 6995  22.728  42.142   9.376
  273POPC   PO4 6996  22.756  41.423   9.564
  273POPC   GL1 6997  22.872  41.679   9.259
  273POPC   GL2 6998  22.538  41.732   9.122
  273POPC   C1A 6999  23.054  41.815   8.868
  273POPC   D2A 7000  23.011  41.643   8.435
  273POPC   C3A 7001  23.089  41.335   8.095
  273POPC   C4A 7002  23.079  41.653   7.772
  273POPC   C1B 7003  22.712  41.426   8.809
  273POPC   C2B 7004  22.651  41.255   8.389
  273POPC   C3B 7005  22.577  41.430   7.966
  273POPC   C4B 7006  22.803  41.236   7.649
  274POPC   NC3 7007  31.117   3.226   9.459
  274POPC   PO4 7008  31.724   3.428   9.527
  274POPC   GL1 7009  31.493   3.409   9.147
  274POPC   GL2 7010  31.543   3.747   9.036
  274POPC   C1A 7011  31.360   3.395   8.706
  274POPC   D2A 7012  31.419   3.637   8.353
  274POPC   C3A 7013  31.473   3.506   7.958
  274POPC   C4A 7014  31.372   3.160   7.727
  274POPC   C1B 7015  31.430   4.018   8.703
  274POPC   C2B 7016  31.297   4.137   8.287
  274POPC   C3B 7017  31.068   3.843   8.038
  274POPC   C4B 7018  31.221   3.845   7.652
  275POPC   NC3 7019   8.115   9.579   9.506
  275POPC   PO4 7020   8.074  10.215   9.209
  275POPC   GL1 7021   8.300   9.838   9.112
  275POPC   GL2 7022   7.964   9.693   9.053
  275POPC   C1A 7023   8.492   9.720   8.732
  275POPC   D2A 7024   8.349   9.910   8.344
  275POPC   C3A 7025   8.426   9.682   8.007
  275POPC   C4A 7026   8.609   9.750   7.660
  275POPC   C1B 7027   7.889   9.799   8.648
  275POPC   C2B 7028   7.787   9.495   8.364
  275POPC   C3B 7029   7.967   9.486   7.979
  275POPC   C4B 7030   8.040   9.776   7.630
  276POPC   NC3 7031  10.852  18.526   9.623
  276POPC   PO4 7032  11.520  18.265   9.533
  276POPC   GL1 7033  11.384  18.243   9.144
  276POPC   GL2 7034  11.057  18.326   9.149
  276POPC   C1A 7035  11.341  18.138   8.730
  276POPC   D2A 7036  11.349  18.441   8.411
  276POPC   C3A 7037  11.467  18.292   8.018
  276POPC   C4A 7038  11.279  18.159   7.645
  276POPC   C1B 7039  10.929  18.438   8.717
  276POPC   C2B 7040  10.728  18.562   8.363
  276POPC   C3B 7041  10.972  18.613   7.980
  276POPC   C4B 7042  11.006  18.588   7.530
  277POPC   NC3 7043   7.017  18.218   9.391
  277POPC   PO4 7044   6.387  18.466   9.572
  277POPC   GL1 7045   6.537  18.399   9.198
  277POPC   GL2 7046   6.497  18.100   9.078
  277POPC   C1A 7047   6.740  18.471   8.820
  277POPC   D2A 7048   6.935  18.603   8.462
  277POPC   C3A 7049   6.732  18.467   8.111
  277POPC   C4A 7050   6.888  18.337   7.699
  277POPC   C1B 7051   6.813  17.947   8.791
  277POPC   C2B 7052   6.926  18.084   8.404
  277POPC   C3B 7053   6.797  17.966   8.015
  277POPC   C4B 7054   6.844  17.798   7.613
  278POPC   NC3 7055  33.578  11.944   9.375
  278POPC   PO4 7056  34.084  12.026   9.868
  278POPC   GL1 7057  33.966  12.291   9.360
  278POPC   GL2 7058  33.650  12.427   9.277
  278POPC   C1A 7059  33.934  12.338   8.848
  278POPC   D2A 7060  34.107  12.124   8.420
  278POPC   C3A 7061  33.855  11.916   8.047
  278POPC   C4A 7062  33.910  11.982   7.572
  278POPC   C1B 7063  33.435  12.444   8.892
  278POPC   C2B 7064  33.383  12.294   8.476
  278POPC   C3B 7065  33.636  12.390   8.129
  278POPC   C4B 7066  33.539  12.296   7.730
  279POPC   NC3 7067  26.935  32.036   9.557
  279POPC   PO4 7068  27.109  32.611   9.436
  279POPC   GL1 7069  26.793  32.372   9.127
  279POPC   GL2 7070  26.679  31.965   9.105
  279POPC   C1A 7071  26.838  32.250   8.717
  279POPC   D2A 7072  26.931  32.153   8.317
  279POPC   C3A 7073  26.684  32.333   8.003
  279POPC   C4A 7074  26.882  32.575   7.678
  279POPC   C1B 7075  26.553  31.809   8.677
  279POPC   C2B 7076  26.520  31.845   8.225
  279POPC   C3B 7077  26.855  31.852   7.912
  279POPC   C4B 7078  26.851  32.105   7.550
  280POPC   NC3 7079   3.826   4.908   9.718
  280POPC   PO4 7080   3.458   5.445   9.873
  280POPC   GL1 7081   3.515   5.176   9.404
  280POPC   GL2 7082   3.670   4.969   9.191
  280POPC   C1A 7083   3.304   5.215   8.938
  280POPC   D2A 7084   3.207   5.031   8.533
  280POPC   C3A 7085   3.387   5.047   8.150
  280POPC   C4A 7086   3.247   4.955   7.750
  280POPC   C1B 7087   3.690   4.954   8.732
  280POPC   C2B 7088   3.710   4.700   8.370
  280POPC   C3B 7089   3.832   4.863   8.005
  280POPC   C4B 7090   3.909   5.291   7.921
  281POPC   NC3 7091   7.325  14.563   9.411
  281POPC   PO4 7092   7.613  13.997   9.637
  281POPC   GL1 7093   7.535  14.129   9.201
  281POPC   GL2 7094   7.211  13.993   9.107
  281POPC   C1A 7095   7.445  14.399   8.805
  281POPC   D2A 7096   7.243  14.525   8.435
  281POPC   C3A 7097   7.476  14.578   8.071
  281POPC   C4A 7098   7.550  14.648   7.619
  281POPC   C1B 7099   7.469  13.897   8.752
  281POPC   C2B 7100   7.553  14.105   8.372
  281POPC   C3B 7101   7.334  13.952   8.042
  281POPC   C4B 7102   7.274  14.240   7.744
  282POPC   NC3 7103  20.330  42.479   9.872
  282POPC   PO4 7104  20.798  42.084   9.682
  282POPC   GL1 7105  20.623  42.222   9.245
  282POPC   GL2 7106  20.389  41.980   9.097
  282POPC   C1A 7107  20.743  42.200   8.783
  282POPC   D2A 7108  20.587  42.197   8.357
  282POPC   C3A 7109  20.766  42.307   7.984
  282POPC   C4A 7110  20.539  42.528   7.696
  282POPC   C1B 7111  20.235  42.222   8.715
  282POPC   C2B 7112  20.075  42.143   8.256
  282POPC   C3B 7113  20.250  42.124   7.814
  282POPC   C4B 7114  20.492  42.126   7.408
  283POPC   NC3 7115   8.384  23.099   9.321
  283POPC   PO4 7116   7.859  23.109   9.734
  283POPC   GL1 7117   7.881  22.981   9.265
  283POPC   GL2 7118   8.111  22.697   9.145
  283POPC   C1A 7119   7.870  23.000   8.783
  283POPC   D2A 7120   7.855  23.236   8.373
  283POPC   C3A 7121   8.072  23.158   7.965
  283POPC   C4A 7122   8.476  23.334   7.802
  283POPC   C1B 7123   8.365  22.803   8.761
  283POPC   C2B 7124   8.228  22.812   8.337
  283POPC   C3B 7125   8.457  22.822   7.944
  283POPC   C4B 7126   8.354  22.547   7.599
  284POPC   NC3 7127   9.587  11.723   9.497
  284POPC   PO4 7128   9.790  12.345   9.487
  284POPC   GL1 7129   9.590  12.220   9.136
  284POPC   GL2 7130   9.776  11.923   9.060
  284POPC   C1A 7131   9.609  12.245   8.695
  284POPC   D2A 7132   9.509  12.074   8.313
  284POPC   C3A 7133   9.519  12.381   8.013
  284POPC   C4A 7134   9.888  12.421   7.784
  284POPC   C1B 7135   9.415  11.765   8.816
  284POPC   C2B 7136   9.203  11.696   8.424
  284POPC   C3B 7137   9.406  11.609   8.055
  284POPC   C4B 7138   9.593  11.914   7.790
  285POPC   NC3 7139   5.674  20.321   9.447
  285POPC   PO4 7140   5.675  19.641   9.447
  285POPC   GL1 7141   5.919  19.790   9.110
  285POPC   GL2 7142   6.130  20.096   9.199
  285POPC   C1A 7143   5.837  19.706   8.666
  285POPC   D2A 7144   6.063  19.687   8.279
  285POPC   C3A 7145   5.722  19.610   7.997
  285POPC   C4A 7146   5.557  19.365   7.687
  285POPC   C1B 7147   6.008  20.192   8.774
  285POPC   C2B 7148   5.855  20.188   8.344
  285POPC   C3B 7149   5.939  20.057   7.923
  285POPC   C4B 7150   5.939  19.766   7.573
  286POPC   NC3 7151  34.671   4.584   9.639
  286POPC   PO4 7152  34.280   4.090   9.508
  286POPC   GL1 7153  34.638   4.200   9.255
  286POPC   GL2 7154  34.641   4.562   9.139
  286POPC   C1A 7155  34.686   4.140   8.829
  286POPC   D2A 7156  34.808   4.377   8.480
  286POPC   C3A 7157  34.621   4.295   8.085
  286POPC   C4A 7158  34.777   4.121   7.728
  286POPC   C1B 7159  34.269   4.416   8.904
  286POPC   C2B 7160  34.247   4.266   8.476
  286POPC   C3B 7161  34.108   4.447   8.059
  286POPC   C4B 7162  34.207   4.408   7.608
  287POPC   NC3 7163  21.474  41.038   9.434
  287POPC   PO4 7164  21.005  40.656   9.476
  287POPC   GL1 7165  21.289  40.671   9.137
  287POPC   GL2 7166  21.605  40.471   9.171
  287POPC   C1A 7167  21.386  40.942   8.777
  287POPC   D2A 7168  21.317  40.780   8.376
  287POPC   C3A 7169  21.464  40.911   8.001
  287POPC   C4A 7170  21.238  40.655   7.704
  287POPC   C1B 7171  21.474  40.435   8.721
  287POPC   C2B 7172  21.499  40.284   8.282
  287POPC   C3B 7173  21.648  40.431   7.876
  287POPC   C4B 7174  21.673  40.793   7.538
  288POPC   NC3 7175  41.331  25.587   9.442
  288POPC   PO4 7176  41.700  24.992   9.547
  288POPC   GL1 7177  41.611  25.103   9.094
  288POPC   GL2 7178  41.466  25.414   8.990
  288POPC   C1A 7179  41.383  25.001   8.685
  288POPC   D2A 7180  41.536  24.916   8.243
  288POPC   C3A 7181  41.511  25.261   7.928
  288POPC   C4A 7182  41.463  25.723   7.974
  288POPC   C1B 7183  41.529  25.625   8.564
  288POPC   C2B 7184  41.890  25.767   8.303
  288POPC   C3B 7185  41.954  25.566   7.931
  288POPC   C4B 7186  42.048  25.117   7.934
  289POPC   NC3 7187  24.561  13.374   9.410
  289POPC   PO4 7188  24.572  14.056   9.645
  289POPC   GL1 7189  24.462  13.891   9.184
  289POPC   GL2 7190  24.149  13.755   9.128
  289POPC   C1A 7191  24.390  13.929   8.683
  289POPC   D2A 7192  24.534  13.926   8.214
  289POPC   C3A 7193  24.695  13.539   7.972
  289POPC   C4A 7194  24.694  13.502   7.542
  289POPC   C1B 7195  24.111  13.496   8.702
  289POPC   C2B 7196  24.231  13.500   8.203
  289POPC   C3B 7197  24.287  13.749   7.769
  289POPC   C4B 7198  24.221  13.865   7.308
  290POPC   NC3 7199   2.516  20.726   9.576
  290POPC   PO4 7200   3.136  20.837   9.428
  290POPC   GL1 7201   2.986  20.747   9.023
  290POPC   GL2 7202   2.684  20.616   9.098
  290POPC   C1A 7203   2.685  20.910   8.693
  290POPC   D2A 7204   2.689  21.122   8.305
  290POPC   C3A 7205   2.719  20.826   8.008
  290POPC   C4A 7206   3.030  20.502   8.027
  290POPC   C1B 7207   2.794  20.416   8.674
  290POPC   C2B 7208   2.599  20.373   8.251
  290POPC   C3B 7209   2.601  20.348   7.770
  290POPC   C4B 7210   2.743  20.280   7.277
  291POPC   NC3 7211   3.478  12.516   9.576
  291POPC   PO4 7212   3.301  11.880   9.491
  291POPC   GL1 7213   3.636  12.052   9.209
  291POPC   GL2 7214   3.660  11.728   9.052
  291POPC   C1A 7215   3.835  12.107   8.756
  291POPC   D2A 7216   3.619  12.200   8.324
  291POPC   C3A 7217   3.808  12.061   7.945
  291POPC   C4A 7218   3.654  11.881   7.560
  291POPC   C1B 7219   3.341  11.989   8.792
  291POPC   C2B 7220   3.193  11.911   8.385
  291POPC   C3B 7221   3.231  11.946   7.945
  291POPC   C4B 7222   3.068  11.552   7.772
  292POPC   NC3 7223  27.370  21.695   9.523
  292POPC   PO4 7224  27.682  20.990   9.487
  292POPC   GL1 7225  27.634  21.231   9.145
  292POPC   GL2 7226  27.311  21.315   9.185
  292POPC   C1A 7227  27.689  21.390   8.732
  292POPC   D2A 7228  27.903  21.515   8.349
  292POPC   C3A 7229  27.660  21.507   7.963
  292POPC   C4A 7230  27.658  21.305   7.543
  292POPC   C1B 7231  27.150  21.420   8.793
  292POPC   C2B 7232  27.292  21.545   8.387
  292POPC   C3B 7233  27.098  21.548   7.989
  292POPC   C4B 7234  27.272  21.641   7.598
  293POPC   NC3 7235  21.773  37.826   9.547
  293POPC   PO4 7236  21.116  37.616   9.467
  293POPC   GL1 7237  21.474  37.672   9.147
  293POPC   GL2 7238  21.656  38.016   9.076
  293POPC   C1A 7239  21.458  37.721   8.688
  293POPC   D2A 7240  21.652  37.844   8.292
  293POPC   C3A 7241  21.499  37.533   7.988
  293POPC   C4A 7242  21.073  37.580   7.771
  293POPC   C1B 7243  21.242  38.133   8.910
  293POPC   C2B 7244  21.043  38.082   8.518
  293POPC   C3B 7245  21.114  37.967   8.114
  293POPC   C4B 7246  21.449  38.011   7.835
  294POPC   NC3 7247   7.513   2.200   9.464
  294POPC   PO4 7248   7.527   1.608   9.659
  294POPC   GL1 7249   7.557   1.702   9.199
  294POPC   GL2 7250   7.850   1.933   9.186
  294POPC   C1A 7251   7.305   1.895   8.815
  294POPC   D2A 7252   7.282   2.208   8.434
  294POPC   C3A 7253   7.316   2.073   7.994
  294POPC   C4A 7254   7.421   1.733   7.674
  294POPC   C1B 7255   7.714   2.201   8.844
  294POPC   C2B 7256   7.801   2.167   8.439
  294POPC   C3B 7257   7.710   2.442   8.132
  294POPC   C4B 7258   7.642   2.378   7.705
  295POPC   NC3 7259  16.243  32.222   9.576
  295POPC   PO4 7260  16.835  32.463   9.581
  295POPC   GL1 7261  16.662  32.239   9.235
  295POPC   GL2 7262  16.745  32.495   8.974
  295POPC   C1A 7263  16.391  32.161   8.853
  295POPC   D2A 7264  16.530  32.414   8.487
  295POPC   C3A 7265  16.485  32.212   8.080
  295POPC   C4A 7266  16.625  32.373   7.714
  295POPC   C1B 7267  16.902  32.105   8.793
  295POPC   C2B 7268  16.865  32.000   8.347
  295POPC   C3B 7269  16.955  32.023   7.897
  295POPC   C4B 7270  16.813  31.983   7.459
  296POPC   NC3 7271  18.918  14.692   9.639
  296POPC   PO4 7272  19.342  15.204   9.371
  296POPC   GL1 7273  19.071  15.195   9.056
  296POPC   GL2 7274  18.912  14.935   9.154
  296POPC   C1A 7275  19.161  15.195   8.633
  296POPC   D2A 7276  19.099  15.244   8.217
  296POPC   C3A 7277  19.294  15.467   7.925
  296POPC   C4A 7278  19.011  15.364   7.640
  296POPC   C1B 7279  18.754  14.912   8.735
  296POPC   C2B 7280  18.930  14.771   8.326
  296POPC   C3B 7281  18.837  14.939   7.911
  296POPC   C4B 7282  18.828  14.908   7.416
  297POPC   NC3 7283  20.659  37.524   9.490
  297POPC   PO4 7284  20.178  37.995   9.498
  297POPC   GL1 7285  20.479  37.855   9.171
  297POPC   GL2 7286  20.472  37.480   9.017
  297POPC   C1A 7287  20.839  37.789   8.886
  297POPC   D2A 7288  20.616  37.740   8.520
  297POPC   C3A 7289  20.748  37.514   8.173
  297POPC   C4A 7290  20.539  37.581   7.793
  297POPC   C1B 7291  20.501  37.225   8.645
  297POPC   C2B 7292  20.332  37.195   8.222
  297POPC   C3B 7293  20.366  37.095   7.774
  297POPC   C4B 7294  20.715  37.233   7.452
  298POPC   NC3 7295  29.719   6.175   9.577
  298POPC   PO4 7296  29.981   5.582   9.514
  298POPC   GL1 7297  29.861   5.876   9.197
  298POPC   GL2 7298  30.140   6.069   9.213
  298POPC   C1A 7299  29.857   6.099   8.783
  298POPC   D2A 7300  29.773   5.835   8.421
  298POPC   C3A 7301  29.711   6.105   8.062
  298POPC   C4A 7302  29.822   6.304   7.689
  298POPC   C1B 7303  30.219   5.712   8.873
  298POPC   C2B 7304  30.258   5.545   8.469
  298POPC   C3B 7305  30.120   5.688   8.081
  298POPC   C4B 7306  30.219   6.052   7.856
  299POPC   NC3 7307  32.382  14.857   9.680
  299POPC   PO4 7308  31.857  15.221   9.645
  299POPC   GL1 7309  32.224  15.262   9.367
  299POPC   GL2 7310  32.191  14.961   9.192
  299POPC   C1A 7311  32.506  15.313   8.981
  299POPC   D2A 7312  32.531  15.324   8.526
  299POPC   C3A 7313  32.435  15.109   8.164
  299POPC   C4A 7314  32.226  15.279   7.813
  299POPC   C1B 7315  32.312  14.823   8.778
  299POPC   C2B 7316  32.102  14.782   8.406
  299POPC   C3B 7317  32.025  14.811   7.976
  299POPC   C4B 7318  31.636  14.918   7.805
  300POPC   NC3 7319  29.669  20.848   9.430
  300POPC   PO4 7320  30.204  21.303   9.483
  300POPC   GL1 7321  30.147  20.905   9.158
  300POPC   GL2 7322  29.820  20.668   8.995
  300POPC   C1A 7323  30.116  20.906   8.699
  300POPC   D2A 7324  29.727  20.774   8.491
  300POPC   C3A 7325  29.802  20.714   8.073
  300POPC   C4A 7326  30.180  20.895   7.891
  300POPC   C1B 7327  29.985  20.350   8.674
  300POPC   C2B 7328  30.201  20.143   8.326
  300POPC   C3B 7329  30.140  20.335   7.930
  300POPC   C4B 7330  29.739  20.256   7.785
  301POPC   NC3 7331  24.121  15.783   9.520
  301POPC   PO4 7332  23.502  15.723   9.340
  301POPC   GL1 7333  23.821  15.892   9.070
  301POPC   GL2 7334  23.893  16.245   9.221
  301POPC   C1A 7335  23.740  15.795   8.611
  301POPC   D2A 7336  23.410  15.801   8.285
  301POPC   C3A 7337  23.523  16.017   7.907
  301POPC   C4A 7338  23.512  16.099   7.463
  301POPC   C1B 7339  23.893  16.300   8.765
  301POPC   C2B 7340  23.901  16.203   8.323
  301POPC   C3B 7341  23.958  16.296   7.899
  301POPC   C4B 7342  23.973  15.970   7.609
  302POPC   NC3 7343  21.188   4.472   9.425
  302POPC   PO4 7344  21.417   3.861   9.367
  302POPC   GL1 7345  21.347   4.144   9.040
  302POPC   GL2 7346  21.562   4.414   9.100
  302POPC   C1A 7347  21.314   4.123   8.599
  302POPC   D2A 7348  21.402   4.248   8.198
  302POPC   C3A 7349  21.417   3.939   7.890
  302POPC   C4A 7350  21.742   3.853   7.610
  302POPC   C1B 7351  21.313   4.591   8.768
  302POPC   C2B 7352  21.474   4.740   8.404
  302POPC   C3B 7353  21.636   4.670   8.034
  302POPC   C4B 7354  21.447   4.504   7.661
  303POPC   NC3 7355   8.283  24.551   9.591
  303POPC   PO4 7356   8.234  23.838   9.525
  303POPC   GL1 7357   8.173  24.195   9.214
  303POPC   GL2 7358   8.404  24.478   9.113
  303POPC   C1A 7359   8.131  24.254   8.743
  303POPC   D2A 7360   8.294  24.199   8.310
  303POPC   C3A 7361   8.107  24.432   7.948
  303POPC   C4A 7362   7.771  24.308   7.638
  303POPC   C1B 7363   8.356  24.720   8.751
  303POPC   C2B 7364   8.531  24.654   8.352
  303POPC   C3B 7365   8.497  24.829   7.946
  303POPC   C4B 7366   8.328  24.684   7.544
  304POPC   NC3 7367  30.440   6.788   9.762
  304POPC   PO4 7368  30.859   6.780   9.210
  304POPC   GL1 7369  30.781   6.481   8.953
  304POPC   GL2 7370  30.463   6.391   9.003
  304POPC   C1A 7371  30.745   6.438   8.528
  304POPC   D2A 7372  30.769   6.746   8.222
  304POPC   C3A 7373  31.108   6.885   7.972
  304POPC   C4A 7374  30.987   6.847   7.537
  304POPC   C1B 7375  30.244   6.407   8.618
  304POPC   C2B 7376  30.316   6.507   8.195
  304POPC   C3B 7377  30.518   6.481   7.799
  304POPC   C4B 7378  30.247   6.354   7.431
  305POPC   NC3 7379  10.029  24.966   9.480
  305POPC   PO4 7380   9.623  25.569   9.518
  305POPC   GL1 7381   9.699  25.250   9.166
  305POPC   GL2 7382  10.044  25.171   9.020
  305POPC   C1A 7383   9.685  25.341   8.717
  305POPC   D2A 7384   9.466  25.577   8.445
  305POPC   C3A 7385   9.592  25.468   8.087
  305POPC   C4A 7386   9.420  25.405   7.721
  305POPC   C1B 7387  10.017  24.936   8.670
  305POPC   C2B 7388   9.986  25.027   8.246
  305POPC   C3B 7389  10.101  25.403   8.043
  305POPC   C4B 7390   9.912  25.315   7.723
  306POPC   NC3 7391  43.544  23.538   9.623
  306POPC   PO4 7392  44.099  23.960   9.510
  306POPC   GL1 7393  43.850  23.745   9.234
  306POPC   GL2 7394  44.085  23.534   9.035
  306POPC   C1A 7395  43.709  23.829   8.820
  306POPC   D2A 7396  43.827  23.700   8.429
  306POPC   C3A 7397  43.732  23.814   7.986
  306POPC   C4A 7398  43.872  23.662   7.549
  306POPC   C1B 7399  44.222  23.872   8.721
  306POPC   C2B 7400  44.168  24.069   8.272
  306POPC   C3B 7401  44.144  24.041   7.787
  306POPC   C4B 7402  44.315  24.180   7.364
  307POPC   NC3 7403   6.731   1.569   9.401
  307POPC   PO4 7404   6.821   1.061   9.809
  307POPC   GL1 7405   6.582   1.101   9.306
  307POPC   GL2 7406   6.328   1.368   9.180
  307POPC   C1A 7407   6.600   1.109   8.829
  307POPC   D2A 7408   6.455   0.880   8.451
  307POPC   C3A 7409   6.593   1.039   8.045
  307POPC   C4A 7410   6.478   0.947   7.619
  307POPC   C1B 7411   6.453   1.620   8.800
  307POPC   C2B 7412   6.521   1.465   8.405
  307POPC   C3B 7413   6.366   1.487   8.021
  307POPC   C4B 7414   6.556   1.479   7.689
  308POPC   NC3 7415  28.456  10.299   9.567
  308POPC   PO4 7416  28.726  10.983   9.447
  308POPC   GL1 7417  28.401  10.735   9.141
  308POPC   GL2 7418  28.142  10.433   9.167
  308POPC   C1A 7419  28.377  10.536   8.701
  308POPC   D2A 7420  28.594  10.449   8.278
  308POPC   C3A 7421  28.543  10.549   7.826
  308POPC   C4A 7422  28.185  10.823   7.743
  308POPC   C1B 7423  27.998  10.181   8.829
  308POPC   C2B 7424  28.173  10.126   8.418
  308POPC   C3B 7425  28.127  10.357   8.063
  308POPC   C4B 7426  28.172  10.162   7.698
  309POPC   NC3 7427  21.946   8.323   9.469
  309POPC   PO4 7428  22.275   7.804   9.335
  309POPC   GL1 7429  22.147   8.061   9.048
  309POPC   GL2 7430  22.433   8.269   9.168
  309POPC   C1A 7431  22.128   8.001   8.606
  309POPC   D2A 7432  22.417   8.039   8.283
  309POPC   C3A 7433  22.258   8.047   7.880
  309POPC   C4A 7434  21.976   8.416   7.780
  309POPC   C1B 7435  22.359   8.443   8.778
  309POPC   C2B 7436  22.173   8.487   8.383
  309POPC   C3B 7437  22.426   8.507   8.015
  309POPC   C4B 7438  22.380   8.686   7.636
  310POPC   NC3 7439  36.088   4.710   9.340
  310POPC   PO4 7440  35.817   4.104   9.407
  310POPC   GL1 7441  36.056   4.291   9.062
  310POPC   GL2 7442  36.410   4.362   9.071
  310POPC   C1A 7443  36.051   4.618   8.680
  310POPC   D2A 7444  35.785   4.613   8.305
  310POPC   C3A 7445  35.992   4.689   7.906
  310POPC   C4A 7446  36.108   4.340   7.652
  310POPC   C1B 7447  36.312   4.186   8.646
  310POPC   C2B 7448  36.243   4.347   8.217
  310POPC   C3B 7449  36.553   4.436   7.887
  310POPC   C4B 7450  36.556   4.277   7.412
  311POPC   NC3 7451  34.944  22.084   9.485
  311POPC   PO4 7452  35.532  21.800   9.290
  311POPC   GL1 7453  35.395  22.194   9.068
  311POPC   GL2 7454  35.620  22.527   9.101
  311POPC   C1A 7455  35.222  22.139   8.667
  311POPC   D2A 7456  34.960  22.166   8.302
  311POPC   C3A 7457  35.077  22.141   7.899
  311POPC   C4A 7458  35.326  21.793   7.694
  311POPC   C1B 7459  35.709  22.360   8.691
  311POPC   C2B 7460  35.449  22.396   8.300
  311POPC   C3B 7461  35.560  22.276   7.926
  311POPC   C4B 7462  35.780  22.027   7.689
  312POPC   NC3 7463   7.771  11.231   9.662
  312POPC   PO4 7464   8.397  11.035   9.480
  312POPC   GL1 7465   8.207  11.136   9.158
  312POPC   GL2 7466   8.177  11.449   9.260
  312POPC   C1A 7467   8.098  11.064   8.748
  312POPC   D2A 7468   8.251  11.257   8.346
  312POPC   C3A 7469   8.347  10.987   7.953
  312POPC   C4A 7470   8.133  11.003   7.508
  312POPC   C1B 7471   8.304  11.516   8.827
  312POPC   C2B 7472   8.124  11.754   8.494
  312POPC   C3B 7473   8.226  11.708   8.063
  312POPC   C4B 7474   8.411  11.454   7.757
  313POPC   NC3 7475  19.723   9.916   9.610
  313POPC   PO4 7476  20.006   9.277   9.736
  313POPC   GL1 7477  19.893   9.493   9.345
  313POPC   GL2 7478  20.065   9.790   9.243
  313POPC   C1A 7479  19.838   9.520   8.878
  313POPC   D2A 7480  19.952   9.686   8.477
  313POPC   C3A 7481  19.721   9.750   8.074
  313POPC   C4A 7482  19.929   9.491   7.811
  313POPC   C1B 7483  20.111  10.022   8.847
  313POPC   C2B 7484  20.249  10.118   8.432
  313POPC   C3B 7485  20.203   9.893   8.062
  313POPC   C4B 7486  19.990  10.001   7.687
  314POPC   NC3 7487   9.065  37.933   9.656
  314POPC   PO4 7488   8.653  37.372   9.397
  314POPC   GL1 7489   8.848  37.574   9.080
  314POPC   GL2 7490   9.033  37.863   9.151
  314POPC   C1A 7491   8.837  37.686   8.624
  314POPC   D2A 7492   8.623  37.573   8.246
  314POPC   C3A 7493   8.718  37.739   7.844
  314POPC   C4A 7494   9.010  37.472   7.638
  314POPC   C1B 7495   9.295  37.631   8.860
  314POPC   C2B 7496   9.436  37.620   8.448
  314POPC   C3B 7497   9.167  37.747   8.105
  314POPC   C4B 7498   9.171  37.969   7.723
  315POPC   NC3 7499  34.733  35.706   9.437
  315POPC   PO4 7500  34.777  35.018   9.384
  315POPC   GL1 7501  34.534  35.273   9.116
  315POPC   GL2 7502  34.803  35.487   8.996
  315POPC   C1A 7503  34.372  35.529   8.752
  315POPC   D2A 7504  34.593  35.677   8.432
  315POPC   C3A 7505  34.369  35.577   8.097
  315POPC   C4A 7506  34.354  35.203   7.879
  315POPC   C1B 7507  34.761  35.185   8.664
  315POPC   C2B 7508  34.895  34.883   8.374
  315POPC   C3B 7509  34.819  34.976   7.954
  315POPC   C4B 7510  34.826  35.244   7.576
  316POPC   NC3 7511  35.637  15.804   9.362
  316POPC   PO4 7512  35.015  15.981   9.449
  316POPC   GL1 7513  35.202  15.892   9.072
  316POPC   GL2 7514  35.445  16.130   9.003
  316POPC   C1A 7515  35.096  15.906   8.651
  316POPC   D2A 7516  35.203  15.741   8.262
  316POPC   C3A 7517  35.077  15.889   7.860
  316POPC   C4A 7518  35.274  15.974   7.455
  316POPC   C1B 7519  35.633  15.868   8.677
  316POPC   C2B 7520  35.686  15.875   8.236
  316POPC   C3B 7521  35.663  15.888   7.775
  316POPC   C4B 7522  35.711  15.758   7.320
  317POPC   NC3 7523  30.227  19.489   9.619
  317POPC   PO4 7524  29.779  18.876   9.554
  317POPC   GL1 7525  29.912  19.148   9.216
  317POPC   GL2 7526  30.267  19.171   9.188
  317POPC   C1A 7527  29.766  19.116   8.789
  317POPC   D2A 7528  29.621  19.344   8.416
  317POPC   C3A 7529  29.772  19.076   8.111
  317POPC   C4A 7530  29.703  19.027   7.694
  317POPC   C1B 7531  30.262  18.916   8.810
  317POPC   C2B 7532  30.314  18.797   8.362
  317POPC   C3B 7533  30.244  18.907   7.935
  317POPC   C4B 7534  30.097  19.331   7.802
  318POPC   NC3 7535  27.437  16.338   9.492
  318POPC   PO4 7536  27.707  16.919   9.391
  318POPC   GL1 7537  27.608  16.630   9.097
  318POPC   GL2 7538  27.873  16.392   9.197
  318POPC   C1A 7539  27.451  16.738   8.710
  318POPC   D2A 7540  27.543  16.755   8.297
  318POPC   C3A 7541  27.307  16.829   7.964
  318POPC   C4A 7542  27.184  16.612   7.621
  318POPC   C1B 7543  27.909  16.323   8.760
  318POPC   C2B 7544  28.039  16.218   8.337
  318POPC   C3B 7545  27.854  16.460   8.025
  318POPC   C4B 7546  27.692  16.603   7.651
  319POPC   NC3 7547  22.084   9.254   9.650
  319POPC   PO4 7548  22.310   8.628   9.519
  319POPC   GL1 7549  22.148   8.713   9.151
  319POPC   GL2 7550  21.869   8.531   9.027
  319POPC   C1A 7551  22.307   8.965   8.827
  319POPC   D2A 7552  22.414   9.322   8.542
  319POPC   C3A 7553  22.247   9.305   8.117
  319POPC   C4A 7554  22.250   9.182   7.694
  319POPC   C1B 7555  21.808   8.977   8.866
  319POPC   C2B 7556  21.974   9.015   8.435
  319POPC   C3B 7557  22.067   8.851   8.017
  319POPC   C4B 7558  21.896   8.860   7.526
  320POPC   NC3 7559  41.067  41.369   9.555
  320POPC   PO4 7560  40.475  41.679   9.383
  320POPC   GL1 7561  40.722  41.415   9.172
  320POPC   GL2 7562  41.013  41.646   9.125
  320POPC   C1A 7563  40.660  41.355   8.760
  320POPC   D2A 7564  40.677  41.598   8.435
  320POPC   C3A 7565  40.628  41.414   8.071
  320POPC   C4A 7566  40.624  41.829   7.870
  320POPC   C1B 7567  41.146  41.306   8.848
  320POPC   C2B 7568  41.041  41.249   8.373
  320POPC   C3B 7569  41.093  41.512   7.937
  320POPC   C4B 7570  41.109  41.413   7.463
  321POPC   NC3 7571  43.632  38.279   9.582
  321POPC   PO4 7572  44.065  38.754   9.504
  321POPC   GL1 7573  44.030  38.704   9.076
  321POPC   GL2 7574  43.955  38.351   9.162
  321POPC   C1A 7575  43.803  38.514   8.706
  321POPC   D2A 7576  43.635  38.289   8.341
  321POPC   C3A 7577  43.692  38.518   7.973
  321POPC   C4A 7578  44.002  38.840   7.893
  321POPC   C1B 7579  44.248  38.300   8.823
  321POPC   C2B 7580  44.152  38.203   8.386
  321POPC   C3B 7581  44.068  38.202   7.961
  321POPC   C4B 7582  43.884  38.233   7.542
  322POPC   NC3 7583   4.951  28.621   9.896
  322POPC   PO4 7584   4.849  29.295   9.712
  322POPC   GL1 7585   4.935  29.075   9.290
  322POPC   GL2 7586   4.686  28.831   9.146
  322POPC   C1A 7587   5.077  29.177   8.816
  322POPC   D2A 7588   5.086  29.499   8.441
  322POPC   C3A 7589   5.303  29.444   7.996
  322POPC   C4A 7590   5.363  29.266   7.551
  322POPC   C1B 7591   4.599  29.247   8.944
  322POPC   C2B 7592   4.593  29.252   8.460
  322POPC   C3B 7593   4.795  29.313   8.048
  322POPC   C4B 7594   4.897  29.148   7.649
  323POPC   NC3 7595  25.121  38.136   9.408
  323POPC   PO4 7596  25.609  37.749   9.510
  323POPC   GL1 7597  25.326  37.578   9.203
  323POPC   GL2 7598  24.992  37.433   9.260
  323POPC   C1A 7599  25.371  37.550   8.785
  323POPC   D2A 7600  25.299  37.866   8.494
  323POPC   C3A 7601  25.539  37.817   8.123
  323POPC   C4A 7602  25.361  37.748   7.736
  323POPC   C1B 7603  24.903  37.377   8.819
  323POPC   C2B 7604  25.057  37.406   8.396
  323POPC   C3B 7605  25.010  37.696   8.096
  323POPC   C4B 7606  24.773  37.636   7.780
  324POPC   NC3 7607   6.094  23.566   9.407
  324POPC   PO4 7608   5.441  23.816   9.513
  324POPC   GL1 7609   5.709  23.799   9.085
  324POPC   GL2 7610   6.041  23.863   9.001
  324POPC   C1A 7611   5.833  23.624   8.633
  324POPC   D2A 7612   6.140  23.867   8.409
  324POPC   C3A 7613   6.095  23.846   7.960
  324POPC   C4A 7614   5.765  23.573   7.785
  324POPC   C1B 7615   6.279  23.453   8.799
  324POPC   C2B 7616   6.420  23.466   8.360
  324POPC   C3B 7617   6.197  23.345   7.974
  324POPC   C4B 7618   6.167  23.342   7.517
  325POPC   NC3 7619  12.896  32.900   9.517
  325POPC   PO4 7620  12.857  33.533   9.542
  325POPC   GL1 7621  12.617  33.333   9.189
  325POPC   GL2 7622  12.676  32.978   9.069
  325POPC   C1A 7623  12.761  33.363   8.752
  325POPC   D2A 7624  12.769  33.121   8.381
  325POPC   C3A 7625  12.635  33.436   8.120
  325POPC   C4A 7626  12.750  33.523   7.703
  325POPC   C1B 7627  12.618  32.711   8.712
  325POPC   C2B 7628  12.738  32.441   8.395
  325POPC   C3B 7629  12.923  32.693   8.115
  325POPC   C4B 7630  12.722  33.008   7.868
  326POPC   NC3 7631  38.230  26.490   9.437
  326POPC   PO4 7632  38.667  25.940   9.557
  326POPC   GL1 7633  38.563  26.184   9.203
  326POPC   GL2 7634  38.227  26.016   9.176
  326POPC   C1A 7635  38.420  26.259   8.787
  326POPC   D2A 7636  38.495  26.004   8.444
  326POPC   C3A 7637  38.511  26.162   8.065
  326POPC   C4A 7638  38.260  26.160   7.726
  326POPC   C1B 7639  38.246  25.749   8.821
  326POPC   C2B 7640  38.124  25.629   8.386
  326POPC   C3B 7641  38.272  25.671   7.948
  326POPC   C4B 7642  38.050  25.693   7.498
  327POPC   NC3 7643  20.198  24.122   9.739
  327POPC   PO4 7644  20.543  24.722   9.511
  327POPC   GL1 7645  20.546  24.485   9.151
  327POPC   GL2 7646  20.866  24.302   9.184
  327POPC   C1A 7647  20.495  24.587   8.727
  327POPC   D2A 7648  20.234  24.647   8.383
  327POPC   C3A 7649  20.434  24.575   8.006
  327POPC   C4A 7650  20.369  24.191   7.834
  327POPC   C1B 7651  20.698  24.086   8.824
  327POPC   C2B 7652  20.553  24.191   8.398
  327POPC   C3B 7653  20.828  24.242   8.053
  327POPC   C4B 7654  20.847  24.120   7.636
  328POPC   NC3 7655  43.358  22.636   9.588
  328POPC   PO4 7656  43.453  23.225   9.305
  328POPC   GL1 7657  43.269  22.900   9.094
  328POPC   GL2 7658  43.084  22.603   9.127
  328POPC   C1A 7659  43.073  22.941   8.721
  328POPC   D2A 7660  43.284  23.025   8.359
  328POPC   C3A 7661  43.050  23.146   8.032
  328POPC   C4A 7662  42.927  22.788   7.803
  328POPC   C1B 7663  43.340  22.505   8.754
  328POPC   C2B 7664  43.183  22.488   8.321
  328POPC   C3B 7665  43.362  22.539   7.908
  328POPC   C4B 7666  43.263  22.515   7.406
  329POPC   NC3 7667  41.258  14.250   9.728
  329POPC   PO4 7668  41.975  14.076   9.578
  329POPC   GL1 7669  41.712  14.227   9.193
  329POPC   GL2 7670  41.717  14.597   9.103
  329POPC   C1A 7671  41.583  14.282   8.725
  329POPC   D2A 7672  41.758  14.249   8.326
  329POPC   C3A 7673  41.597  14.311   7.943
  329POPC   C4A 7674  41.775  14.010   7.695
  329POPC   C1B 7675  41.474  14.779   8.761
  329POPC   C2B 7676  41.395  14.628   8.351
  329POPC   C3B 7677  41.194  14.229   8.252
  329POPC   C4B 7678  41.120  14.059   7.825
  330POPC   NC3 7679  11.338  32.066   9.603
  330POPC   PO4 7680  11.561  32.651   9.488
  330POPC   GL1 7681  11.228  32.418   9.247
  330POPC   GL2 7682  11.248  32.034   9.115
  330POPC   C1A 7683  11.143  32.477   8.832
  330POPC   D2A 7684  11.402  32.507   8.493
  330POPC   C3A 7685  11.242  32.597   8.127
  330POPC   C4A 7686  11.410  32.633   7.752
  330POPC   C1B 7687  11.387  32.038   8.710
  330POPC   C2B 7688  11.236  32.050   8.310
  330POPC   C3B 7689  11.365  32.133   7.884
  330POPC   C4B 7690  11.365  31.855   7.530
  331POPC   NC3 7691  26.572   9.476   9.494
  331POPC   PO4 7692  26.929   8.832   9.516
  331POPC   GL1 7693  26.728   9.019   9.184
  331POPC   GL2 7694  26.917   9.326   9.140
  331POPC   C1A 7695  26.701   8.717   8.839
  331POPC   D2A 7696  26.982   8.643   8.507
  331POPC   C3A 7697  26.913   8.929   8.195
  331POPC   C4A 7698  26.794   8.826   7.799
  331POPC   C1B 7699  27.023   9.124   8.737
  331POPC   C2B 7700  27.338   9.205   8.411
  331POPC   C3B 7701  27.319   9.182   7.969
  331POPC   C4B 7702  26.971   9.288   7.718
  332POPC   NC3 7703   8.629  44.742   9.431
  332POPC   PO4 7704   9.280  44.839   9.689
  332POPC   GL1 7705   9.166  44.957   9.217
  332POPC   GL2 7706   9.032  44.657   9.117
  332POPC   C1A 7707   8.896  44.979   8.786
  332POPC   D2A 7708   8.918  44.833   8.365
  332POPC   C3A 7709   9.238  44.984   8.130
  332POPC   C4A 7710   9.296  44.823   7.731
  332POPC   C1B 7711   8.909  44.452   8.703
  332POPC   C2B 7712   8.794  44.347   8.301
  332POPC   C3B 7713   8.892  44.509   7.899
  332POPC   C4B 7714   8.653  44.364   7.537
  333POPC   NC3 7715   1.971  35.021   9.350
  333POPC   PO4 7716   1.738  35.602   9.364
  333POPC   GL1 7717   1.930  35.526   9.023
  333POPC   GL2 7718   2.235  35.390   9.114
  333POPC   C1A 7719   1.951  35.412   8.611
  333POPC   D2A 7720   2.152  35.159   8.329
  333POPC   C3A 7721   1.904  35.296   7.987
  333POPC   C4A 7722   1.537  35.603   8.040
  333POPC   C1B 7723   2.445  35.505   8.744
  333POPC   C2B 7724   2.330  35.638   8.326
  333POPC   C3B 7725   2.382  35.440   7.957
  333POPC   C4B 7726   2.161  35.481   7.575
  334POPC   NC3 7727  13.650  37.883   9.507
  334POPC   PO4 7728  14.140  37.344   9.533
  334POPC   GL1 7729  13.933  37.558   9.174
  334POPC   GL2 7730  13.958  37.899   9.111
  334POPC   C1A 7731  13.646  37.566   8.802
  334POPC   D2A 7732  13.821  37.574   8.372
  334POPC   C3A 7733  13.576  37.501   7.989
  334POPC   C4A 7734  13.523  37.360   7.578
  334POPC   C1B 7735  13.748  38.045   8.733
  334POPC   C2B 7736  13.497  37.982   8.372
  334POPC   C3B 7737  13.665  37.996   7.993
  334POPC   C4B 7738  13.722  37.832   7.612
  335POPC   NC3 7739  36.665  38.955   9.318
  335POPC   PO4 7740  37.202  39.352   9.531
  335POPC   GL1 7741  37.020  39.309   9.138
  335POPC   GL2 7742  37.185  39.003   9.090
  335POPC   C1A 7743  36.744  39.270   8.762
  335POPC   D2A 7744  36.598  39.459   8.382
  335POPC   C3A 7745  36.693  39.227   8.041
  335POPC   C4A 7746  36.987  39.331   7.754
  335POPC   C1B 7747  36.997  38.786   8.772
  335POPC   C2B 7748  36.981  38.921   8.368
  335POPC   C3B 7749  37.238  39.028   8.085
  335POPC   C4B 7750  37.249  38.892   7.707
  336POPC   NC3 7751  11.556  30.536   9.600
  336POPC   PO4 7752  10.957  30.852   9.488
  336POPC   GL1 7753  10.977  30.643   9.132
  336POPC   GL2 7754  11.331  30.681   9.109
  336POPC   C1A 7755  10.956  30.722   8.686
  336POPC   D2A 7756  11.252  30.690   8.319
  336POPC   C3A 7757  11.218  30.769   7.849
  336POPC   C4A 7758  11.460  30.678   7.450
  336POPC   C1B 7759  11.252  30.324   8.837
  336POPC   C2B 7760  11.040  30.199   8.466
  336POPC   C3B 7761  11.116  30.277   8.025
  336POPC   C4B 7762  11.490  30.276   7.761
  337POPC   NC3 7763   6.027  38.099   9.492
  337POPC   PO4 7764   5.951  38.758   9.529
  337POPC   GL1 7765   5.775  38.528   9.180
  337POPC   GL2 7766   5.908  38.211   9.010
  337POPC   C1A 7767   5.821  38.665   8.770
  337POPC   D2A 7768   5.654  38.719   8.395
  337POPC   C3A 7769   5.928  38.581   8.086
  337POPC   C4A 7770   5.950  38.625   7.659
  337POPC   C1B 7771   5.616  38.224   8.646
  337POPC   C2B 7772   5.532  38.234   8.204
  337POPC   C3B 7773   5.776  38.171   7.834
  337POPC   C4B 7774   6.186  38.172   7.660
  338POPC   NC3 7775  17.069  20.294   9.487
  338POPC   PO4 7776  16.824  19.621   9.484
  338POPC   GL1 7777  16.858  19.847   9.117
  338POPC   GL2 7778  16.884  20.194   9.030
  338POPC   C1A 7779  16.616  19.865   8.743
  338POPC   D2A 7780  16.630  19.707   8.353
  338POPC   C3A 7781  16.670  20.031   8.042
  338POPC   C4A 7782  16.639  19.708   7.744
  338POPC   C1B 7783  17.134  20.003   8.689
  338POPC   C2B 7784  17.104  19.825   8.273
  338POPC   C3B 7785  17.128  19.937   7.836
  338POPC   C4B 7786  17.015  20.119   7.439
  339POPC   NC3 7787  14.595  20.972   9.472
  339POPC   PO4 7788  14.289  21.617   9.508
  339POPC   GL1 7789  14.267  21.370   9.144
  339POPC   GL2 7790  14.568  21.354   9.050
  339POPC   C1A 7791  14.266  21.385   8.658
  339POPC   D2A 7792  14.536  21.432   8.303
  339POPC   C3A 7793  14.422  21.076   8.090
  339POPC   C4A 7794  13.995  21.051   7.932
  339POPC   C1B 7795  14.674  21.693   8.715
  339POPC   C2B 7796  14.731  21.980   8.394
  339POPC   C3B 7797  14.739  21.817   7.985
  339POPC   C4B 7798  14.514  21.468   7.773
  340POPC   NC3 7799   7.271   5.972   9.385
  340POPC   PO4 7800   7.865   5.944   9.721
  340POPC   GL1 7801   7.770   5.914   9.259
  340POPC   GL2 7802   7.609   5.607   9.184
  340POPC   C1A 7803   7.631   5.925   8.789
  340POPC   D2A 7804   7.662   5.885   8.322
  340POPC   C3A 7805   7.312   6.067   8.108
  340POPC   C4A 7806   7.098   6.050   7.726
  340POPC   C1B 7807   7.316   5.506   8.789
  340POPC   C2B 7808   7.137   5.627   8.404
  340POPC   C3B 7809   7.308   5.569   8.024
  340POPC   C4B 7810   7.585   5.772   7.798
  341POPC   NC3 7811   4.861  34.906   9.562
  341POPC   PO4 7812   4.794  34.243   9.573
  341POPC   GL1 7813   4.916  34.496   9.239
  341POPC   GL2 7814   4.588  34.607   9.220
  341POPC   C1A 7815   5.069  34.445   8.806
  341POPC   D2A 7816   5.356  34.417   8.428
  341POPC   C3A 7817   5.285  34.622   8.025
  341POPC   C4A 7818   4.981  34.525   7.729
  341POPC   C1B 7819   4.738  34.843   8.882
  341POPC   C2B 7820   4.707  35.049   8.495
  341POPC   C3B 7821   4.799  34.843   8.111
  341POPC   C4B 7822   4.661  34.933   7.705
  342POPC   NC3 7823  36.431  23.994   9.338
  342POPC   PO4 7824  35.806  23.697   9.469
  342POPC   GL1 7825  35.854  23.439   9.094
  342POPC   GL2 7826  36.022  23.744   8.967
  342POPC   C1A 7827  36.011  23.319   8.673
  342POPC   D2A 7828  36.119  23.689   8.386
  342POPC   C3A 7829  35.889  23.726   8.026
  342POPC   C4A 7830  35.892  23.340   7.754
  342POPC   C1B 7831  36.253  24.047   8.717
  342POPC   C2B 7832  36.192  24.214   8.312
  342POPC   C3B 7833  36.395  23.987   7.984
  342POPC   C4B 7834  36.330  23.619   7.754
  343POPC   NC3 7835   6.919  35.077   9.369
  343POPC   PO4 7836   6.764  35.750   9.413
  343POPC   GL1 7837   6.775  35.506   9.088
  343POPC   GL2 7838   6.462  35.271   9.103
  343POPC   C1A 7839   6.944  35.633   8.668
  343POPC   D2A 7840   6.697  35.649   8.305
  343POPC   C3A 7841   6.944  35.669   7.973
  343POPC   C4A 7842   6.962  35.519   7.563
  343POPC   C1B 7843   6.624  35.236   8.694
  343POPC   C2B 7844   6.836  35.167   8.296
  343POPC   C3B 7845   6.678  35.236   7.893
  343POPC   C4B 7846   6.268  35.283   7.753
  344POPC   NC3 7847   6.093   9.968   9.277
  344POPC   PO4 7848   5.850  10.473   9.559
  344POPC   GL1 7849   5.732  10.518   9.137
  344POPC   GL2 7850   6.059  10.436   9.071
  344POPC   C1A 7851   5.549  10.525   8.719
  344POPC   D2A 7852   5.574  10.830   8.353
  344POPC   C3A 7853   5.897  10.764   7.998
  344POPC   C4A 7854   5.898  10.704   7.556
  344POPC   C1B 7855   5.974  10.215   8.698
  344POPC   C2B 7856   5.855  10.378   8.334
  344POPC   C3B 7857   5.718  10.314   7.929
  344POPC   C4B 7858   5.938  10.205   7.550
  345POPC   NC3 7859  15.861  34.376   9.345
  345POPC   PO4 7860  15.898  35.069   9.497
  345POPC   GL1 7861  15.958  34.813   9.119
  345POPC   GL2 7862  16.289  34.659   9.197
  345POPC   C1A 7863  15.914  34.546   8.721
  345POPC   D2A 7864  15.755  34.293   8.375
  345POPC   C3A 7865  15.908  34.507   8.025
  345POPC   C4A 7866  16.032  34.369   7.646
  345POPC   C1B 7867  16.346  34.819   8.779
  345POPC   C2B 7868  16.212  34.761   8.340
  345POPC   C3B 7869  16.195  34.974   7.901
  345POPC   C4B 7870  16.232  34.954   7.423
  346POPC   NC3 7871  13.948  38.756   9.496
  346POPC   PO4 7872  13.432  38.320   9.508
  346POPC   GL1 7873  13.527  38.260   9.128
  346POPC   GL2 7874  13.864  38.403   9.109
  346POPC   C1A 7875  13.473  38.461   8.733
  346POPC   D2A 7876  13.668  38.473   8.352
  346POPC   C3A 7877  13.374  38.394   8.015
  346POPC   C4A 7878  13.619  38.351   7.614
  346POPC   C1B 7879  14.001  38.662   8.754
  346POPC   C2B 7880  14.204  38.560   8.342
  346POPC   C3B 7881  14.002  38.446   7.938
  346POPC   C4B 7882  13.935  38.763   7.570
  347POPC   NC3 7883  23.939  22.844   9.806
  347POPC   PO4 7884  23.546  23.341   9.657
  347POPC   GL1 7885  23.600  22.969   9.386
  347POPC   GL2 7886  23.915  22.878   9.291
  347POPC   C1A 7887  23.530  22.920   8.947
  347POPC   D2A 7888  23.397  23.056   8.562
  347POPC   C3A 7889  23.472  22.840   8.202
  347POPC   C4A 7890  23.405  22.938   7.816
  347POPC   C1B 7891  24.037  22.953   8.889
  347POPC   C2B 7892  23.885  22.889   8.485
  347POPC   C3B 7893  23.993  22.925   8.042
  347POPC   C4B 7894  24.256  22.676   7.788
  348POPC   NC3 7895  26.897  30.390   9.652
  348POPC   PO4 7896  26.484  30.938   9.525
  348POPC   GL1 7897  26.738  30.819   9.118
  348POPC   GL2 7898  26.861  30.461   9.138
  348POPC   C1A 7899  26.629  30.586   8.708
  348POPC   D2A 7900  26.570  30.814   8.384
  348POPC   C3A 7901  26.386  30.594   8.109
  348POPC   C4A 7902  26.631  30.380   7.844
  348POPC   C1B 7903  27.107  30.415   8.727
  348POPC   C2B 7904  26.983  30.486   8.278
  348POPC   C3B 7905  26.877  30.823   7.968
  348POPC   C4B 7906  26.841  30.896   7.532
  349POPC   NC3 7907  44.561   2.387   9.491
  349POPC   PO4 7908  44.714   1.759   9.650
  349POPC   GL1 7909  44.604   1.914   9.227
  349POPC   GL2 7910  44.872   2.111   9.139
  349POPC   C1A 7911  44.533   1.971   8.731
  349POPC   D2A 7912  44.519   2.301   8.374
  349POPC   C3A 7913  44.585   2.169   7.955
  349POPC   C4A 7914  44.616   1.752   8.017
  349POPC   C1B 7915  44.947   2.264   8.732
  349POPC   C2B 7916  44.962   2.058   8.338
  349POPC   C3B 7917   0.076   2.362   8.045
  349POPC   C4B 7918  44.951   2.496   7.702
  350POPC   NC3 7919   4.890  10.650   9.466
  350POPC   PO4 7920   5.211  10.078   9.493
  350POPC   GL1 7921   5.205  10.349   9.106
  350POPC   GL2 7922   5.244  10.726   9.073
  350POPC   C1A 7923   5.074  10.272   8.670
  350POPC   D2A 7924   5.331  10.321   8.276
  350POPC   C3A 7925   5.107  10.348   7.877
  350POPC   C4A 7926   4.729  10.604   7.800
  350POPC   C1B 7927   5.104  10.781   8.636
  350POPC   C2B 7928   5.084  10.768   8.177
  350POPC   C3B 7929   5.424  10.753   7.839
  350POPC   C4B 7930   5.437  10.855   7.355
  351POPC   NC3 7931  29.546  43.325   9.440
  351POPC   PO4 7932  30.282  43.089   9.462
  351POPC   GL1 7933  29.982  43.160   9.132
  351POPC   GL2 7934  30.177  42.987   8.891
  351POPC   C1A 7935  29.655  42.932   8.874
  351POPC   D2A 7936  29.574  42.778   8.444
  351POPC   C3A 7937  29.835  42.955   8.102
  351POPC   C4A 7938  29.839  43.361   7.896
  351POPC   C1B 7939  29.961  43.237   8.586
  351POPC   C2B 7940  30.174  43.465   8.279
  351POPC   C3B 7941  30.293  43.620   7.889
  351POPC   C4B 7942  30.257  43.274   7.602
  352POPC   NC3 7943  38.324  16.067   9.836
  352POPC   PO4 7944  38.832  15.828   9.468
  352POPC   GL1 7945  38.440  15.859   9.238
  352POPC   GL2 7946  38.337  16.226   9.183
  352POPC   C1A 7947  38.479  15.777   8.790
  352POPC   D2A 7948  38.663  15.929   8.387
  352POPC   C3A 7949  38.364  15.989   8.080
  352POPC   C4A 7950  38.393  15.852   7.663
  352POPC   C1B 7951  38.610  16.269   8.776
  352POPC   C2B 7952  38.882  16.390   8.422
  352POPC   C3B 7953  38.717  16.362   8.015
  352POPC   C4B 7954  38.325  16.375   7.736
  353POPC   NC3 7955  23.320  34.212   9.319
  353POPC   PO4 7956  22.822  34.647   9.659
  353POPC   GL1 7957  22.761  34.667   9.239
  353POPC   GL2 7958  22.791  34.320   9.167
  353POPC   C1A 7959  22.773  34.764   8.807
  353POPC   D2A 7960  22.774  34.650   8.379
  353POPC   C3A 7961  23.116  34.670   8.117
  353POPC   C4A 7962  22.896  34.601   7.755
  353POPC   C1B 7963  23.026  34.312   8.744
  353POPC   C2B 7964  23.203  34.208   8.340
  353POPC   C3B 7965  23.074  34.168   7.912
  353POPC   C4B 7966  22.961  34.176   7.432
  354POPC   NC3 7967  39.600  22.523   9.333
  354POPC   PO4 7968  40.148  22.122   9.589
  354POPC   GL1 7969  40.257  22.157   9.141
  354POPC   GL2 7970  39.981  22.345   9.008
  354POPC   C1A 7971  40.258  22.084   8.674
  354POPC   D2A 7972  39.958  21.933   8.358
  354POPC   C3A 7973  39.962  22.245   8.067
  354POPC   C4A 7974  40.240  22.273   7.730
  354POPC   C1B 7975  40.040  22.623   8.656
  354POPC   C2B 7976  39.775  22.760   8.324
  354POPC   C3B 7977  39.646  22.626   7.930
  354POPC   C4B 7978  39.821  22.516   7.549
  355POPC   NC3 7979   6.351  39.045   9.501
  355POPC   PO4 7980   6.950  39.390   9.724
  355POPC   GL1 7981   6.701  39.405   9.293
  355POPC   GL2 7982   6.975  39.358   9.057
  355POPC   C1A 7983   6.522  39.289   8.852
  355POPC   D2A 7984   6.544  39.008   8.475
  355POPC   C3A 7985   6.534  39.168   8.033
  355POPC   C4A 7986   6.138  39.085   7.815
  355POPC   C1B 7987   7.016  39.074   8.682
  355POPC   C2B 7988   7.016  39.078   8.248
  355POPC   C3B 7989   7.025  39.457   8.009
  355POPC   C4B 7990   6.828  39.502   7.630
  356POPC   NC3 7991  20.775  43.253   9.421
  356POPC   PO4 7992  20.228  42.905   9.692
  356POPC   GL1 7993  20.433  42.908   9.253
  356POPC   GL2 7994  20.737  42.727   9.376
  356POPC   C1A 7995  20.377  42.932   8.764
  356POPC   D2A 7996  20.520  43.166   8.396
  356POPC   C3A 7997  20.272  43.087   7.988
  356POPC   C4A 7998  20.322  42.966   7.575
  356POPC   C1B 7999  20.774  42.674   8.947
  356POPC   C2B 8000  20.734  42.673   8.498
  356POPC   C3B 8001  20.688  42.805   8.081
  356POPC   C4B 8002  20.749  43.195   7.845
  357POPC   NC3 8003  10.708  13.321   9.687
  357POPC   PO4 8004  10.372  13.926   9.611
  357POPC   GL1 8005  10.426  13.722   9.215
  357POPC   GL2 8006  10.691  13.467   9.185
  357POPC   C1A 8007  10.448  13.730   8.776
  357POPC   D2A 8008  10.391  13.633   8.352
  357POPC   C3A 8009  10.582  13.905   8.066
  357POPC   C4A 8010  10.573  13.707   7.688
  357POPC   C1B 8011  10.883  13.383   8.779
  357POPC   C2B 8012  10.925  13.589   8.367
  357POPC   C3B 8013  10.913  13.437   7.927
  357POPC   C4B 8014  10.925  13.466   7.432
  358POPC   NC3 8015  33.710  17.454   9.538
  358POPC   PO4 8016  34.303  17.586   9.369
  358POPC   GL1 8017  34.036  17.331   9.124
  358POPC   GL2 8018  33.756  17.519   9.036
  358POPC   C1A 8019  33.861  17.104   8.735
  358POPC   D2A 8020  33.589  17.274   8.402
  358POPC   C3A 8021  33.876  17.356   8.077
  358POPC   C4A 8022  33.920  17.276   7.672
  358POPC   C1B 8023  33.677  17.743   8.630
  358POPC   C2B 8024  33.577  17.761   8.182
  358POPC   C3B 8025  33.591  17.843   7.755
  358POPC   C4B 8026  33.750  18.078   7.397
  359POPC   NC3 8027  44.637  11.440   9.377
  359POPC   PO4 8028  44.559  10.805   9.363
  359POPC   GL1 8029  44.832  11.011   9.115
  359POPC   GL2 8030   0.093  11.230   9.271
  359POPC   C1A 8031  44.686  11.128   8.722
  359POPC   D2A 8032  44.647  10.916   8.352
  359POPC   C3A 8033  44.420  11.127   8.049
  359POPC   C4A 8034  44.574  11.013   7.661
  359POPC   C1B 8035   0.155  11.304   8.833
  359POPC   C2B 8036  44.989  11.389   8.404
  359POPC   C3B 8037  44.942  11.191   8.006
  359POPC   C4B 8038   0.124  11.495   7.791
  360POPC   NC3 8039  30.119   0.761   9.554
  360POPC   PO4 8040  29.485   0.489   9.322
  360POPC   GL1 8041  29.859   0.608   9.149
  360POPC   GL2 8042  30.078   0.331   9.268
  360POPC   C1A 8043  29.917   0.728   8.754
  360POPC   D2A 8044  29.815   0.549   8.372
  360POPC   C3A 8045  29.728   0.779   7.994
  360POPC   C4A 8046  29.572   0.728   7.602
  360POPC   C1B 8047  30.235   0.324   8.868
  360POPC   C2B 8048  30.102   0.129   8.501
  360POPC   C3B 8049  30.016   0.143   8.088
  360POPC   C4B 8050  29.954   0.373   7.715
  361POPC   NC3 8051  42.551  40.434   9.440
  361POPC   PO4 8052  42.119  40.951   9.557
  361POPC   GL1 8053  42.198  40.710   9.166
  361POPC   GL2 8054  42.483  40.917   9.034
  361POPC   C1A 8055  42.287  40.550   8.737
  361POPC   D2A 8056  42.376  40.789   8.357
  361POPC   C3A 8057  42.233  40.763   7.925
  361POPC   C4A 8058  42.048  40.549   7.548
  361POPC   C1B 8059  42.727  41.072   8.657
  361POPC   C2B 8060  42.882  40.871   8.269
  361POPC   C3B 8061  42.744  40.873   7.835
  361POPC   C4B 8062  42.512  40.773   7.452
  362POPC   NC3 8063  33.484  26.959   9.587
  362POPC   PO4 8064  33.935  26.507   9.632
  362POPC   GL1 8065  33.969  26.817   9.321
  362POPC   GL2 8066  34.059  26.578   9.075
  362POPC   C1A 8067  33.777  26.996   8.959
  362POPC   D2A 8068  33.660  27.026   8.515
  362POPC   C3A 8069  33.909  26.825   8.225
  362POPC   C4A 8070  33.956  26.943   7.814
  362POPC   C1B 8071  33.702  26.531   8.763
  362POPC   C2B 8072  33.514  26.486   8.367
  362POPC   C3B 8073  33.591  26.544   7.932
  362POPC   C4B 8074  33.958  26.471   7.689
  363POPC   NC3 8075  36.668  31.483   9.562
  363POPC   PO4 8076  37.070  31.002   9.536
  363POPC   GL1 8077  36.995  31.376   9.190
  363POPC   GL2 8078  36.742  31.712   9.138
  363POPC   C1A 8079  36.956  31.484   8.751
  363POPC   D2A 8080  37.183  31.363   8.394
  363POPC   C3A 8081  36.999  31.336   8.010
  363POPC   C4A 8082  36.823  31.541   7.684
  363POPC   C1B 8083  36.581  31.861   8.762
  363POPC   C2B 8084  36.719  31.759   8.357
  363POPC   C3B 8085  36.620  31.931   7.962
  363POPC   C4B 8086  36.506  31.924   7.551
  364POPC   NC3 8087  29.303  12.277   9.739
  364POPC   PO4 8088  29.397  12.900   9.599
  364POPC   GL1 8089  29.257  12.869   9.170
  364POPC   GL2 8090  29.034  12.587   9.157
  364POPC   C1A 8091  29.147  12.984   8.753
  364POPC   D2A 8092  29.022  12.778   8.374
  364POPC   C3A 8093  29.016  13.024   8.036
  364POPC   C4A 8094  29.415  12.972   7.963
  364POPC   C1B 8095  29.210  12.464   8.757
  364POPC   C2B 8096  29.250  12.309   8.313
  364POPC   C3B 8097  29.148  12.533   7.916
  364POPC   C4B 8098  28.926  12.751   7.578
  365POPC   NC3 8099  27.112   2.114   9.336
  365POPC   PO4 8100  27.672   2.043   9.760
  365POPC   GL1 8101  27.621   1.994   9.238
  365POPC   GL2 8102  27.419   1.752   9.147
  365POPC   C1A 8103  27.461   2.107   8.763
  365POPC   D2A 8104  27.435   2.171   8.287
  365POPC   C3A 8105  27.843   2.147   8.040
  365POPC   C4A 8106  27.733   2.068   7.571
  365POPC   C1B 8107  27.720   1.641   8.834
  365POPC   C2B 8108  27.712   1.781   8.429
  365POPC   C3B 8109  27.558   1.733   8.011
  365POPC   C4B 8110  27.710   1.535   7.674
  366POPC   NC3 8111   5.738  24.182   9.453
  366POPC   PO4 8112   6.071  24.743   9.417
  366POPC   GL1 8113   6.043  24.416   9.098
  366POPC   GL2 8114   5.700  24.379   8.989
  366POPC   C1A 8115   6.305  24.235   8.802
  366POPC   D2A 8116   6.448  24.256   8.402
  366POPC   C3A 8117   6.115  24.335   8.159
  366POPC   C4A 8118   6.089  24.548   7.799
  366POPC   C1B 8119   5.770  24.133   8.650
  366POPC   C2B 8120   5.683  23.994   8.234
  366POPC   C3B 8121   5.726  24.191   7.846
  366POPC   C4B 8122   5.598  24.537   7.600
  367POPC   NC3 8123  11.631  21.238   9.458
  367POPC   PO4 8124  10.968  21.373   9.597
  367POPC   GL1 8125  11.209  21.505   9.247
  367POPC   GL2 8126  11.237  21.190   9.120
  367POPC   C1A 8127  11.312  21.695   8.838
  367POPC   D2A 8128  11.455  21.572   8.412
  367POPC   C3A 8129  11.201  21.760   8.088
  367POPC   C4A 8130  11.213  21.564   7.703
  367POPC   C1B 8131  11.422  21.195   8.765
  367POPC   C2B 8132  11.443  21.023   8.390
  367POPC   C3B 8133  11.477  21.220   8.022
  367POPC   C4B 8134  11.340  21.042   7.703
  368POPC   NC3 8135  44.956   4.939   9.547
  368POPC   PO4 8136  44.550   5.480   9.767
  368POPC   GL1 8137  44.601   5.297   9.310
  368POPC   GL2 8138  44.562   4.948   9.169
  368POPC   C1A 8139  44.555   5.325   8.833
  368POPC   D2A 8140  44.663   5.411   8.396
  368POPC   C3A 8141  44.438   5.236   8.090
  368POPC   C4A 8142  44.771   5.031   7.822
  368POPC   C1B 8143  44.639   4.762   8.755
  368POPC   C2B 8144  44.679   4.854   8.306
  368POPC   C3B 8145  44.566   4.605   7.929
  368POPC   C4B 8146  44.513   4.737   7.472
  369POPC   NC3 8147   4.497  19.326   9.367
  369POPC   PO4 8148   4.213  18.698   9.513
  369POPC   GL1 8149   4.170  18.896   9.131
  369POPC   GL2 8150   3.801  18.822   9.036
  369POPC   C1A 8151   4.393  19.030   8.779
  369POPC   D2A 8152   4.664  18.999   8.454
  369POPC   C3A 8153   4.416  19.191   8.121
  369POPC   C4A 8154   4.359  19.096   7.683
  369POPC   C1B 8155   4.039  18.540   8.802
  369POPC   C2B 8156   4.234  18.670   8.436
  369POPC   C3B 8157   4.102  18.791   8.055
  369POPC   C4B 8158   4.043  18.678   7.655
  370POPC   NC3 8159  34.826   7.735   9.497
  370POPC   PO4 8160  35.492   7.436   9.493
  370POPC   GL1 8161  35.162   7.316   9.180
  370POPC   GL2 8162  35.105   7.625   9.110
  370POPC   C1A 8163  35.008   7.326   8.723
  370POPC   D2A 8164  35.174   7.560   8.339
  370POPC   C3A 8165  35.434   7.406   8.013
  370POPC   C4A 8166  35.258   7.286   7.630
  370POPC   C1B 8167  35.316   7.743   8.786
  370POPC   C2B 8168  35.651   7.659   8.516
  370POPC   C3B 8169  35.557   7.923   8.195
  370POPC   C4B 8170  35.531   7.866   7.782
  371POPC   NC3 8171  14.316  10.953   9.596
  371POPC   PO4 8172  14.275  11.627   9.674
  371POPC   GL1 8173  14.276  11.443   9.265
  371POPC   GL2 8174  14.547  11.181   9.174
  371POPC   C1A 8175  14.198  11.488   8.839
  371POPC   D2A 8176  14.340  11.701   8.488
  371POPC   C3A 8177  14.361  11.641   8.046
  371POPC   C4A 8178  14.533  11.504   7.642
  371POPC   C1B 8179  14.586  11.165   8.707
  371POPC   C2B 8180  14.269  11.207   8.370
  371POPC   C3B 8181  14.325  11.141   7.947
  371POPC   C4B 8182  14.525  10.855   7.729
  372POPC   NC3 8183  29.697  26.498   9.423
  372POPC   PO4 8184  30.051  27.143   9.486
  372POPC   GL1 8185  30.032  26.809   9.173
  372POPC   GL2 8186  29.886  27.061   8.970
  372POPC   C1A 8187  30.215  26.585   8.809
  372POPC   D2A 8188  30.355  26.500   8.377
  372POPC   C3A 8189  30.015  26.514   8.009
  372POPC   C4A 8190  30.035  26.774   7.609
  372POPC   C1B 8191  29.809  26.989   8.552
  372POPC   C2B 8192  29.632  27.155   8.178
  372POPC   C3B 8193  29.589  26.898   7.790
  372POPC   C4B 8194  29.666  26.960   7.305
  373POPC   NC3 8195  27.443  44.749   9.662
  373POPC   PO4 8196  28.069  44.873   9.604
  373POPC   GL1 8197  27.746  44.797   9.225
  373POPC   GL2 8198  27.344  44.809   9.172
  373POPC   C1A 8199  27.672  44.657   8.786
  373POPC   D2A 8200  27.739  44.807   8.361
  373POPC   C3A 8201  27.883  44.523   8.052
  373POPC   C4A 8202  27.615  44.317   7.754
  373POPC   C1B 8203  27.285  44.994   8.759
  373POPC   C2B 8204  27.191  44.831   8.367
  373POPC   C3B 8205  27.365  44.713   7.982
  373POPC   C4B 8206  27.343  44.881   7.558
  374POPC   NC3 8207   0.545  37.560   9.609
  374POPC   PO4 8208   0.717  38.070   9.204
  374POPC   GL1 8209   0.488  37.650   9.109
  374POPC   GL2 8210   0.549  37.262   9.180
  374POPC   C1A 8211   0.469  37.567   8.683
  374POPC   D2A 8212   0.422  37.831   8.339
  374POPC   C3A 8213   0.263  37.797   7.935
  374POPC   C4A 8214   0.696  37.785   7.780
  374POPC   C1B 8215   0.200  37.168   8.848
  374POPC   C2B 8216   0.206  37.263   8.385
  374POPC   C3B 8217   0.496  37.354   8.051
  374POPC   C4B 8218   0.431  37.368   7.595
  375POPC   NC3 8219  36.673  16.715   9.503
  375POPC   PO4 8220  35.879  16.715   9.518
  375POPC   GL1 8221  36.232  16.783   9.232
  375POPC   GL2 8222  36.377  16.477   9.119
  375POPC   C1A 8223  36.372  16.887   8.800
  375POPC   D2A 8224  36.153  16.727   8.428
  375POPC   C3A 8225  35.894  16.967   8.107
  375POPC   C4A 8226  35.840  17.174   7.680
  375POPC   C1B 8227  36.440  16.348   8.693
  375POPC   C2B 8228  36.597  16.490   8.288
  375POPC   C3B 8229  36.406  16.790   7.991
  375POPC   C4B 8230  36.069  16.718   7.700
  376POPC   NC3 8231  30.483  35.841   9.500
  376POPC   PO4 8232  30.906  35.217   9.482
  376POPC   GL1 8233  30.750  35.328   9.097
  376POPC   GL2 8234  30.768  35.675   9.124
  376POPC   C1A 8235  30.577  35.468   8.688
  376POPC   D2A 8236  30.343  35.569   8.322
  376POPC   C3A 8237  30.472  35.376   7.907
  376POPC   C4A 8238  30.915  35.244   7.800
  376POPC   C1B 8239  30.962  35.846   8.779
  376POPC   C2B 8240  31.030  35.859   8.365
  376POPC   C3B 8241  30.853  35.665   8.063
  376POPC   C4B 8242  30.761  35.728   7.606
  377POPC   NC3 8243  42.038  17.566   9.725
  377POPC   PO4 8244  42.505  17.968   9.445
  377POPC   GL1 8245  42.342  17.548   9.268
  377POPC   GL2 8246  42.591  17.275   9.193
  377POPC   C1A 8247  42.312  17.438   8.808
  377POPC   D2A 8248  42.272  17.285   8.391
  377POPC   C3A 8249  42.321  17.605   8.104
  377POPC   C4A 8250  42.362  17.789   7.721
  377POPC   C1B 8251  42.736  17.151   8.729
  377POPC   C2B 8252  42.759  17.139   8.239
  377POPC   C3B 8253  42.499  17.175   7.840
  377POPC   C4B 8254  42.362  17.162   7.381
  378POPC   NC3 8255  10.229  21.724   9.462
  378POPC   PO4 8256   9.645  21.270   9.533
  378POPC   GL1 8257   9.798  21.269   9.121
  378POPC   GL2 8258  10.111  21.102   9.090
  378POPC   C1A 8259   9.701  21.518   8.748
  378POPC   D2A 8260   9.508  21.394   8.360
  378POPC   C3A 8261   9.448  21.525   7.920
  378POPC   C4A 8262   9.619  21.224   7.578
  378POPC   C1B 8263  10.211  21.421   8.784
  378POPC   C2B 8264  10.035  21.469   8.362
  378POPC   C3B 8265   9.952  21.475   7.934
  378POPC   C4B 8266  10.211  21.565   7.574
  379POPC   NC3 8267  18.969  35.308   9.671
  379POPC   PO4 8268  19.350  35.814   9.558
  379POPC   GL1 8269  19.132  35.543   9.247
  379POPC   GL2 8270  19.191  35.229   9.202
  379POPC   C1A 8271  19.212  35.521   8.781
  379POPC   D2A 8272  19.180  35.787   8.429
  379POPC   C3A 8273  19.155  35.613   8.030
  379POPC   C4A 8274  19.178  35.584   7.573
  379POPC   C1B 8275  18.796  35.300   8.940
  379POPC   C2B 8276  18.751  35.503   8.522
  379POPC   C3B 8277  18.715  35.380   8.102
  379POPC   C4B 8278  18.963  35.173   7.755
  380POPC   NC3 8279  36.516  43.676   9.401
  380POPC   PO4 8280  37.139  43.962   9.423
  380POPC   GL1 8281  36.951  43.735   9.108
  380POPC   GL2 8282  36.753  44.008   9.054
  380POPC   C1A 8283  36.786  43.677   8.680
  380POPC   D2A 8284  36.804  44.002   8.339
  380POPC   C3A 8285  36.925  43.803   7.956
  380POPC   C4A 8286  36.666  43.436   7.866
  380POPC   C1B 8287  36.844  44.318   8.774
  380POPC   C2B 8288  37.060  44.461   8.418
  380POPC   C3B 8289  37.030  44.372   7.998
  380POPC   C4B 8290  37.038  44.303   7.582
  381POPC   NC3 8291  37.199  33.002   9.577
  381POPC   PO4 8292  36.580  32.749   9.698
  381POPC   GL1 8293  36.679  33.121   9.293
  381POPC   GL2 8294  37.015  33.268   9.200
  381POPC   C1A 8295  36.730  33.212   8.782
  381POPC   D2A 8296  36.873  32.947   8.401
  381POPC   C3A 8297  36.779  33.004   7.943
  381POPC   C4A 8298  36.447  32.827   7.709
  381POPC   C1B 8299  37.229  33.067   8.861
  381POPC   C2B 8300  37.320  33.219   8.450
  381POPC   C3B 8301  37.283  33.067   8.034
  381POPC   C4B 8302  37.170  32.668   7.840
  382POPC   NC3 8303  26.514   4.931   9.554
  382POPC   PO4 8304  27.015   5.376   9.640
  382POPC   GL1 8305  26.903   5.065   9.259
  382POPC   GL2 8306  27.071   4.738   9.234
  382POPC   C1A 8307  26.663   5.034   8.852
  382POPC   D2A 8308  26.513   4.885   8.435
  382POPC   C3A 8309  26.641   5.139   8.084
  382POPC   C4A 8310  26.755   5.370   7.706
  382POPC   C1B 8311  27.111   4.845   8.779
  382POPC   C2B 8312  27.006   4.843   8.318
  382POPC   C3B 8313  27.029   4.833   7.849
  382POPC   C4B 8314  27.061   4.974   7.390
  383POPC   NC3 8315  12.309  37.551   9.537
  383POPC   PO4 8316  11.971  38.169   9.625
  383POPC   GL1 8317  11.899  37.934   9.231
  383POPC   GL2 8318  11.924  37.577   9.209
  383POPC   C1A 8319  12.096  37.870   8.831
  383POPC   D2A 8320  12.168  37.614   8.486
  383POPC   C3A 8321  12.000  37.862   8.150
  383POPC   C4A 8322  11.901  37.895   7.728
  383POPC   C1B 8323  11.899  37.299   8.856
  383POPC   C2B 8324  11.881  37.171   8.429
  383POPC   C3B 8325  11.990  37.377   8.036
  383POPC   C4B 8326  12.248  37.532   7.704
  384POPC   NC3 8327  44.332  25.912   9.612
  384POPC   PO4 8328  44.880  25.628   9.499
  384POPC   GL1 8329  44.717  25.934   9.219
  384POPC   GL2 8330   0.035  25.923   9.076
  384POPC   C1A 8331  44.678  26.208   8.826
  384POPC   D2A 8332  44.810  26.104   8.391
  384POPC   C3A 8333  44.708  26.269   7.966
  384POPC   C4A 8334  44.349  26.428   7.740
  384POPC   C1B 8335  44.740  25.704   8.749
  384POPC   C2B 8336  44.657  25.598   8.309
  384POPC   C3B 8337  44.833  25.733   7.895
  384POPC   C4B 8338  44.868  25.785   7.391
  385POPC   NC3 8339  28.006  15.536   9.676
  385POPC   PO4 8340  27.515  15.125   9.601
  385POPC   GL1 8341  27.672  15.383   9.237
  385POPC   GL2 8342  27.386  15.473   9.014
  385POPC   C1A 8343  27.858  15.345   8.795
  385POPC   D2A 8344  27.744  15.166   8.367
  385POPC   C3A 8345  27.879  15.369   7.963
  385POPC   C4A 8346  27.668  15.275   7.563
  385POPC   C1B 8347  27.397  15.043   8.800
  385POPC   C2B 8348  27.328  14.791   8.416
  385POPC   C3B 8349  27.258  14.914   7.980
  385POPC   C4B 8350  27.364  14.872   7.531
  386POPC   NC3 8351  41.327  33.474   9.657
  386POPC   PO4 8352  40.715  33.845   9.516
  386POPC   GL1 8353  40.676  33.812   9.109
  386POPC   GL2 8354  40.983  33.830   9.059
  386POPC   C1A 8355  40.626  33.810   8.674
  386POPC   D2A 8356  40.482  34.107   8.381
  386POPC   C3A 8357  40.606  33.899   8.033
  386POPC   C4A 8358  40.491  33.618   7.763
  386POPC   C1B 8359  41.171  33.900   8.693
  386POPC   C2B 8360  41.037  33.968   8.303
  386POPC   C3B 8361  41.099  33.820   7.896
  386POPC   C4B 8362  40.875  33.909   7.545
  387POPC   NC3 8363   3.867  42.695   9.396
  387POPC   PO4 8364   3.547  43.290   9.355
  387POPC   GL1 8365   3.492  42.941   9.080
  387POPC   GL2 8366   3.171  42.792   9.054
  387POPC   C1A 8367   3.447  43.068   8.644
  387POPC   D2A 8368   3.579  43.440   8.405
  387POPC   C3A 8369   3.816  43.238   8.103
  387POPC   C4A 8370   3.694  42.862   7.865
  387POPC   C1B 8371   2.934  43.052   8.772
  387POPC   C2B 8372   2.924  43.176   8.352
  387POPC   C3B 8373   3.294  43.088   8.126
  387POPC   C4B 8374   3.424  43.303   7.785
  388POPC   NC3 8375  23.948  35.516   9.469
  388POPC   PO4 8376  23.263  35.527   9.480
  388POPC   GL1 8377  23.359  35.605   9.051
  388POPC   GL2 8378  23.687  35.469   9.034
  388POPC   C1A 8379  23.427  35.519   8.594
  388POPC   D2A 8380  23.671  35.302   8.274
  388POPC   C3A 8381  23.423  35.102   7.968
  388POPC   C4A 8382  23.403  35.359   7.643
  388POPC   C1B 8383  23.962  35.461   8.681
  388POPC   C2B 8384  24.170  35.504   8.270
  388POPC   C3B 8385  24.113  35.490   7.826
  388POPC   C4B 8386  24.257  35.641   7.380
  389POPC   NC3 8387  30.199  29.338   9.549
  389POPC   PO4 8388  30.776  29.213   9.523
  389POPC   GL1 8389  30.759  29.075   9.089
  389POPC   GL2 8390  31.063  28.913   9.078
  389POPC   C1A 8391  30.581  29.083   8.660
  389POPC   D2A 8392  30.386  28.963   8.255
  389POPC   C3A 8393  30.585  29.190   7.929
  389POPC   C4A 8394  30.463  29.322   7.526
  389POPC   C1B 8395  31.135  29.124   8.694
  389POPC   C2B 8396  31.314  29.147   8.259
  389POPC   C3B 8397  31.085  29.069   7.861
  389POPC   C4B 8398  30.810  28.947   7.499
  390POPC   NC3 8399  37.257  36.787   9.875
  390POPC   PO4 8400  37.813  37.104   9.582
  390POPC   GL1 8401  37.681  36.909   9.229
  390POPC   GL2 8402  37.984  36.746   9.227
  390POPC   C1A 8403  37.784  36.995   8.808
  390POPC   D2A 8404  37.696  36.834   8.424
  390POPC   C3A 8405  37.668  37.091   8.050
  390POPC   C4A 8406  37.712  36.864   7.636
  390POPC   C1B 8407  38.181  36.566   8.884
  390POPC   C2B 8408  38.223  36.621   8.459
  390POPC   C3B 8409  37.944  36.503   8.147
  390POPC   C4B 8410  38.006  36.460   7.741
  391POPC   NC3 8411  32.817  20.600   9.931
  391POPC   PO4 8412  32.825  20.260   9.360
  391POPC   GL1 8413  32.739  20.490   8.970
  391POPC   GL2 8414  32.847  20.829   8.931
  391POPC   C1A 8415  32.823  20.487   8.526
  391POPC   D2A 8416  33.044  20.565   8.154
  391POPC   C3A 8417  32.974  20.319   7.774
  391POPC   C4A 8418  33.099  20.350   7.324
  391POPC   C1B 8419  32.684  20.991   8.564
  391POPC   C2B 8420  32.766  21.006   8.146
  391POPC   C3B 8421  32.968  20.874   7.766
  391POPC   C4B 8422  32.923  21.012   7.345
  392POPC   NC3 8423  23.009  34.231   9.758
  392POPC   PO4 8424  23.334  33.700   9.441
  392POPC   GL1 8425  23.049  33.836   9.115
  392POPC   GL2 8426  22.729  33.733   9.188
  392POPC   C1A 8427  22.964  33.616   8.734
  392POPC   D2A 8428  22.737  33.445   8.409
  392POPC   C3A 8429  22.883  33.728   8.107
  392POPC   C4A 8430  23.178  33.690   7.745
  392POPC   C1B 8431  22.626  33.993   8.812
  392POPC   C2B 8432  22.672  34.137   8.388
  392POPC   C3B 8433  22.549  34.303   8.009
  392POPC   C4B 8434  22.627  33.982   7.758
  393POPC   NC3 8435  14.199  37.790   9.553
  393POPC   PO4 8436  14.870  37.583   9.482
  393POPC   GL1 8437  14.523  37.591   9.214
  393POPC   GL2 8438  14.479  37.956   9.160
  393POPC   C1A 8439  14.485  37.536   8.790
  393POPC   D2A 8440  14.330  37.658   8.405
  393POPC   C3A 8441  14.470  37.481   8.032
  393POPC   C4A 8442  14.606  37.721   7.686
  393POPC   C1B 8443  14.262  38.074   8.754
  393POPC   C2B 8444  14.056  38.072   8.322
  393POPC   C3B 8445  14.156  37.888   7.902
  393POPC   C4B 8446  14.179  37.904   7.427
  394POPC   NC3 8447   3.036   1.744   9.614
  394POPC   PO4 8448   2.637   2.308   9.740
  394POPC   GL1 8449   2.574   1.963   9.321
  394POPC   GL2 8450   2.796   1.633   9.204
  394POPC   C1A 8451   2.612   1.875   8.824
  394POPC   D2A 8452   2.823   2.037   8.462
  394POPC   C3A 8453   2.582   2.265   8.144
  394POPC   C4A 8454   2.548   2.083   7.737
  394POPC   C1B 8455   3.096   1.706   8.856
  394POPC   C2B 8456   3.256   1.683   8.426
  394POPC   C3B 8457   3.099   1.851   8.058
  394POPC   C4B 8458   2.907   1.730   7.677
  395POPC   NC3 8459  13.951  23.495   9.457
  395POPC   PO4 8460  13.612  24.091   9.458
  395POPC   GL1 8461  13.609  23.761   9.161
  395POPC   GL2 8462  13.282  23.662   9.249
  395POPC   C1A 8463  13.677  23.599   8.732
  395POPC   D2A 8464  13.447  23.431   8.370
  395POPC   C3A 8465  13.705  23.370   7.996
  395POPC   C4A 8466  13.757  23.733   7.754
  395POPC   C1B 8467  13.228  23.861   8.829
  395POPC   C2B 8468  13.458  23.961   8.420
  395POPC   C3B 8469  13.329  23.908   7.989
  395POPC   C4B 8470  13.005  24.149   7.792
  396POPC   NC3 8471  13.076  18.256   9.631
  396POPC   PO4 8472  12.630  18.642   9.459
  396POPC   GL1 8473  12.817  18.409   9.125
  396POPC   GL2 8474  13.093  18.544   9.163
  396POPC   C1A 8475  12.721  18.355   8.690
  396POPC   D2A 8476  12.885  18.070   8.387
  396POPC   C3A 8477  12.623  18.022   8.097
  396POPC   C4A 8478  12.706  17.959   7.713
  396POPC   C1B 8479  13.216  18.423   8.752
  396POPC   C2B 8480  13.044  18.536   8.314
  396POPC   C3B 8481  12.885  18.423   7.900
  396POPC   C4B 8482  12.862  18.611   7.480
  397POPC   NC3 8483   8.783  35.610   9.383
  397POPC   PO4 8484   8.799  34.935   9.459
  397POPC   GL1 8485   9.009  35.121   9.117
  397POPC   GL2 8486   9.255  35.357   9.204
  397POPC   C1A 8487   8.928  35.334   8.780
  397POPC   D2A 8488   8.852  35.702   8.614
  397POPC   C3A 8489   8.834  35.632   8.182
  397POPC   C4A 8490   8.615  35.618   7.808
  397POPC   C1B 8491   9.348  35.608   8.830
  397POPC   C2B 8492   9.289  35.435   8.413
  397POPC   C3B 8493   9.320  35.562   7.996
  397POPC   C4B 8494   9.066  35.335   7.721
  398POPC   NC3 8495   4.669   7.733   9.668
  398POPC   PO4 8496   5.251   7.344   9.528
  398POPC   GL1 8497   5.184   7.425   9.114
  398POPC   GL2 8498   4.834   7.311   9.184
  398POPC   C1A 8499   5.282   7.205   8.737
  398POPC   D2A 8500   5.514   7.289   8.397
  398POPC   C3A 8501   5.294   7.389   8.019
  398POPC   C4A 8502   5.086   7.025   7.821
  398POPC   C1B 8503   4.758   7.437   8.795
  398POPC   C2B 8504   4.971   7.468   8.429
  398POPC   C3B 8505   4.780   7.326   8.077
  398POPC   C4B 8506   4.666   7.447   7.719
  399POPC   NC3 8507  38.600  37.930   9.446
  399POPC   PO4 8508  38.123  37.605   9.714
  399POPC   GL1 8509  38.306  37.586   9.188
  399POPC   GL2 8510  38.364  37.883   8.998
  399POPC   C1A 8511  38.539  37.513   8.726
  399POPC   D2A 8512  38.861  37.478   8.389
  399POPC   C3A 8513  38.861  37.738   8.062
  399POPC   C4A 8514  38.602  37.805   7.735
  399POPC   C1B 8515  38.230  38.056   8.669
  399POPC   C2B 8516  38.482  37.898   8.380
  399POPC   C3B 8517  38.395  37.530   8.169
  399POPC   C4B 8518  38.338  37.368   7.779
  400POPC   NC3 8519  18.864  44.418   9.574
  400POPC   PO4 8520  19.411  44.707   9.436
  400POPC   GL1 8521  19.125  44.558   9.122
  400POPC   GL2 8522  18.757  44.617   9.098
  400POPC   C1A 8523  19.183  44.718   8.706
  400POPC   D2A 8524  19.446  44.566   8.367
  400POPC   C3A 8525  19.250  44.783   8.039
  400POPC   C4A 8526  18.994  44.937   7.696
  400POPC   C1B 8527  18.839  44.353   8.733
  400POPC   C2B 8528  18.908  44.456   8.304
  400POPC   C3B 8529  18.871  44.479   7.859
  400POPC   C4B 8530  18.956  44.448   7.413
  401POPC   NC3 8531   0.769  15.902   9.369
  401POPC   PO4 8532   0.173  16.179   9.380
  401POPC   GL1 8533   0.470  16.175   9.064
  401POPC   GL2 8534   0.377  15.827   9.063
  401POPC   C1A 8535   0.650  15.982   8.674
  401POPC   D2A 8536   0.401  16.099   8.351
  401POPC   C3A 8537   0.634  16.193   8.008
  401POPC   C4A 8538   0.739  15.855   7.715
  401POPC   C1B 8539   0.121  15.812   8.704
  401POPC   C2B 8540  45.000  15.744   8.272
  401POPC   C3B 8541   0.297  15.741   7.945
  401POPC   C4B 8542   0.278  15.745   7.492
  402POPC   NC3 8543  11.927  13.679   9.626
  402POPC   PO4 8544  12.073  13.184   9.273
  402POPC   GL1 8545  12.009  13.577   9.128
  402POPC   GL2 8546  12.264  13.766   9.245
  402POPC   C1A 8547  11.864  13.585   8.724
  402POPC   D2A 8548  12.073  13.690   8.343
  402POPC   C3A 8549  12.094  13.546   7.944
  402POPC   C4A 8550  11.782  13.777   7.805
  402POPC   C1B 8551  12.347  13.755   8.781
  402POPC   C2B 8552  12.557  13.802   8.341
  402POPC   C3B 8553  12.480  13.864   7.861
  402POPC   C4B 8554  12.580  13.703   7.446
  403POPC   NC3 8555   5.340   6.260   9.540
  403POPC   PO4 8556   5.380   5.548   9.539
  403POPC   GL1 8557   5.227   5.736   9.136
  403POPC   GL2 8558   5.028   6.053   9.174
  403POPC   C1A 8559   5.061   5.830   8.715
  403POPC   D2A 8560   5.013   6.078   8.337
  403POPC   C3A 8561   5.044   5.807   7.989
  403POPC   C4A 8562   5.278   5.693   7.609
  403POPC   C1B 8563   4.887   6.299   8.781
  403POPC   C2B 8564   4.741   6.506   8.394
  403POPC   C3B 8565   4.691   6.238   7.974
  403POPC   C4B 8566   4.891   6.042   7.555
  404POPC   NC3 8567  44.011  27.619   9.553
  404POPC   PO4 8568  43.389  27.832   9.297
  404POPC   GL1 8569  43.667  27.575   9.090
  404POPC   GL2 8570  43.955  27.411   9.116
  404POPC   C1A 8571  43.733  27.600   8.681
  404POPC   D2A 8572  43.502  27.713   8.316
  404POPC   C3A 8573  43.760  27.784   7.963
  404POPC   C4A 8574  43.575  27.781   7.542
  404POPC   C1B 8575  44.229  27.493   8.810
  404POPC   C2B 8576  44.229  27.371   8.397
  404POPC   C3B 8577  44.108  27.321   7.978
  404POPC   C4B 8578  44.030  27.556   7.602
  405POPC   NC3 8579  33.313   4.860   9.795
  405POPC   PO4 8580  33.628   5.431   9.583
  405POPC   GL1 8581  33.755   5.221   9.229
  405POPC   GL2 8582  33.807   4.892   9.283
  405POPC   C1A 8583  33.858   5.349   8.833
  405POPC   D2A 8584  33.587   5.137   8.569
  405POPC   C3A 8585  33.664   5.157   8.125
  405POPC   C4A 8586  34.003   5.427   7.932
  405POPC   C1B 8587  33.934   4.839   8.863
  405POPC   C2B 8588  34.072   5.044   8.469
  405POPC   C3B 8589  34.151   4.969   8.057
  405POPC   C4B 8590  33.964   4.843   7.720
  406POPC   NC3 8591  17.519  44.816   9.882
  406POPC   PO4 8592  17.242  44.809   9.288
  406POPC   GL1 8593  17.385  44.523   8.998
  406POPC   GL2 8594  17.747  44.481   8.958
  406POPC   C1A 8595  17.434  44.577   8.563
  406POPC   D2A 8596  17.562  44.789   8.200
  406POPC   C3A 8597  17.188  44.733   7.985
  406POPC   C4A 8598  16.947  44.903   7.653
  406POPC   C1B 8599  17.924  44.684   8.622
  406POPC   C2B 8600  17.994  44.477   8.259
  406POPC   C3B 8601  17.874  44.453   7.842
  406POPC   C4B 8602  17.599  44.762   7.675
  407POPC   NC3 8603  24.425   4.956   9.558
  407POPC   PO4 8604  25.067   4.728   9.466
  407POPC   GL1 8605  24.726   4.850   9.149
  407POPC   GL2 8606  24.537   5.194   9.115
  407POPC   C1A 8607  24.571   4.894   8.713
  407POPC   D2A 8608  24.412   5.217   8.434
  407POPC   C3A 8609  24.292   5.091   8.044
  407POPC   C4A 8610  24.564   4.824   7.863
  407POPC   C1B 8611  24.165   5.336   8.859
  407POPC   C2B 8612  24.189   5.676   8.507
  407POPC   C3B 8613  24.325   5.611   8.084
  407POPC   C4B 8614  24.049   5.474   7.758
  408POPC   NC3 8615  41.127   3.432   9.323
  408POPC   PO4 8616  40.561   3.804   9.567
  408POPC   GL1 8617  40.694   3.824   9.175
  408POPC   GL2 8618  40.621   3.496   9.128
  408POPC   C1A 8619  40.427   3.830   8.782
  408POPC   D2A 8620  40.413   3.531   8.440
  408POPC   C3A 8621  40.729   3.662   8.184
  408POPC   C4A 8622  40.706   3.615   7.749
  408POPC   C1B 8623  40.827   3.468   8.750
  408POPC   C2B 8624  40.800   3.169   8.440
  408POPC   C3B 8625  40.898   3.220   8.011
  408POPC   C4B 8626  40.933   3.033   7.623
  409POPC   NC3 8627  16.253  31.396   9.271
  409POPC   PO4 8628  15.619  31.324   9.420
  409POPC   GL1 8629  15.790  31.626   9.122
  409POPC   GL2 8630  16.106  31.694   8.886
  409POPC   C1A 8631  15.612  31.509   8.737
  409POPC   D2A 8632  15.745  31.180   8.456
  409POPC   C3A 8633  15.928  31.410   8.121
  409POPC   C4A 8634  15.765  31.609   7.777
  409POPC   C1B 8635  16.226  31.299   8.635
  409POPC   C2B 8636  16.229  31.017   8.282
  409POPC   C3B 8637  16.303  31.148   7.888
  409POPC   C4B 8638  16.261  31.497   7.667
  410POPC   NC3 8639   8.888  20.085   9.588
  410POPC   PO4 8640   9.097  19.459   9.577
  410POPC   GL1 8641   9.197  19.615   9.193
  410POPC   GL2 8642   9.165  19.986   9.181
  410POPC   C1A 8643   9.007  19.596   8.816
  410POPC   D2A 8644   8.868  19.774   8.430
  410POPC   C3A 8645   8.878  19.505   8.105
  410POPC   C4A 8646   8.937  19.635   7.660
  410POPC   C1B 8647   9.352  19.980   8.793
  410POPC   C2B 8648   9.242  20.106   8.383
  410POPC   C3B 8649   9.247  19.859   8.021
  410POPC   C4B 8650   9.547  19.767   7.697
  411POPC   NC3 8651   9.667  35.811   9.576
  411POPC   PO4 8652  10.133  36.309   9.534
  411POPC   GL1 8653   9.990  36.041   9.238
  411POPC   GL2 8654   9.927  36.304   8.983
  411POPC   C1A 8655   9.799  35.832   8.901
  411POPC   D2A 8656   9.851  36.030   8.477
  411POPC   C3A 8657   9.645  35.997   8.066
  411POPC   C4A 8658   9.636  35.786   7.651
  411POPC   C1B 8659  10.198  36.424   8.645
  411POPC   C2B 8660  10.213  36.301   8.229
  411POPC   C3B 8661  10.080  36.401   7.852
  411POPC   C4B 8662   9.730  36.281   7.604
  412POPC   NC3 8663  12.714   0.527   9.564
  412POPC   PO4 8664  13.293   0.878   9.599
  412POPC   GL1 8665  13.147   0.720   9.196
  412POPC   GL2 8666  12.803   0.578   9.055
  412POPC   C1A 8667  13.160   0.802   8.752
  412POPC   D2A 8668  13.078   0.461   8.473
  412POPC   C3A 8669  13.010   0.510   8.043
  412POPC   C4A 8670  12.903   0.168   7.807
  412POPC   C1B 8671  12.606   0.790   8.674
  412POPC   C2B 8672  12.591   0.789   8.204
  412POPC   C3B 8673  12.559   0.559   7.798
  412POPC   C4B 8674  12.557   0.734   7.380
  413POPC   NC3 8675  13.149  21.645   9.571
  413POPC   PO4 8676  12.706  21.098   9.619
  413POPC   GL1 8677  12.865  21.315   9.290
  413POPC   GL2 8678  13.102  21.132   9.147
  413POPC   C1A 8679  12.808  21.456   8.866
  413POPC   D2A 8680  12.702  21.621   8.468
  413POPC   C3A 8681  12.877  21.476   8.081
  413POPC   C4A 8682  12.749  21.421   7.654
  413POPC   C1B 8683  13.183  21.116   8.706
  413POPC   C2B 8684  13.211  21.116   8.274
  413POPC   C3B 8685  13.231  21.182   7.840
  413POPC   C4B 8686  13.014  20.941   7.537
  414POPC   NC3 8687  41.883  25.412   9.413
  414POPC   PO4 8688  42.453  25.091   9.510
  414POPC   GL1 8689  42.392  25.023   9.095
  414POPC   GL2 8690  42.130  25.262   8.974
  414POPC   C1A 8691  42.533  24.965   8.699
  414POPC   D2A 8692  42.337  25.096   8.350
  414POPC   C3A 8693  42.563  25.006   8.010
  414POPC   C4A 8694  42.641  25.153   7.582
  414POPC   C1B 8695  42.470  25.464   8.704
  414POPC   C2B 8696  42.697  25.458   8.281
  414POPC   C3B 8697  42.449  25.478   7.908
  414POPC   C4B 8698  42.190  25.411   7.499
  415POPC   NC3 8699  18.034  43.227   9.350
  415POPC   PO4 8700  18.566  42.972   9.588
  415POPC   GL1 8701  18.453  42.946   9.199
  415POPC   GL2 8702  18.162  42.738   9.214
  415POPC   C1A 8703  18.479  43.200   8.793
  415POPC   D2A 8704  18.313  43.383   8.388
  415POPC   C3A 8705  18.524  43.223   8.015
  415POPC   C4A 8706  18.388  43.274   7.591
  415POPC   C1B 8707  18.373  42.684   8.797
  415POPC   C2B 8708  18.375  42.874   8.400
  415POPC   C3B 8709  18.231  42.743   8.022
  415POPC   C4B 8710  18.359  42.510   7.682
  416POPC   NC3 8711  10.841   5.327   9.695
  416POPC   PO4 8712  10.473   4.770   9.620
  416POPC   GL1 8713  10.652   4.877   9.243
  416POPC   GL2 8714  10.714   5.225   9.195
  416POPC   C1A 8715  10.586   4.860   8.798
  416POPC   D2A 8716  10.381   5.030   8.425
  416POPC   C3A 8717  10.664   5.158   8.124
  416POPC   C4A 8718  10.827   4.996   7.788
  416POPC   C1B 8719  10.504   5.390   8.814
  416POPC   C2B 8720  10.322   5.558   8.426
  416POPC   C3B 8721  10.278   5.457   7.995
  416POPC   C4B 8722  10.346   5.144   7.660
  417POPC   NC3 8723  40.920  32.774   9.790
  417POPC   PO4 8724  40.257  32.959   9.595
  417POPC   GL1 8725  40.671  33.019   9.352
  417POPC   GL2 8726  40.883  33.348   9.316
  417POPC   C1A 8727  40.846  32.911   8.948
  417POPC   D2A 8728  40.599  32.758   8.579
  417POPC   C3A 8729  40.643  32.904   8.176
  417POPC   C4A 8730  40.715  32.990   7.765
  417POPC   C1B 8731  40.993  33.380   8.858
  417POPC   C2B 8732  40.973  33.181   8.458
  417POPC   C3B 8733  40.851  33.390   8.066
  417POPC   C4B 8734  40.932  33.412   7.593
  418POPC   NC3 8735  42.889  31.966   9.423
  418POPC   PO4 8736  43.446  32.211   9.626
  418POPC   GL1 8737  43.222  32.281   9.256
  418POPC   GL2 8738  43.349  31.944   9.176
  418POPC   C1A 8739  42.892  32.274   8.867
  418POPC   D2A 8740  42.938  32.128   8.428
  418POPC   C3A 8741  42.899  32.300   8.016
  418POPC   C4A 8742  42.866  32.024   7.672
  418POPC   C1B 8743  43.378  32.179   8.797
  418POPC   C2B 8744  43.439  32.050   8.421
  418POPC   C3B 8745  43.390  32.212   8.077
  418POPC   C4B 8746  43.419  32.089   7.708
  419POPC   NC3 8747  32.367  43.316   9.577
  419POPC   PO4 8748  32.400  42.567   9.451
  419POPC   GL1 8749  32.296  42.923   9.240
  419POPC   GL2 8750  32.598  43.033   9.183
  419POPC   C1A 8751  32.232  42.958   8.803
  419POPC   D2A 8752  32.085  43.167   8.385
  419POPC   C3A 8753  32.177  43.256   7.953
  419POPC   C4A 8754  32.015  42.975   7.669
  419POPC   C1B 8755  32.749  42.946   8.777
  419POPC   C2B 8756  32.531  42.875   8.386
  419POPC   C3B 8757  32.420  42.815   7.971
  419POPC   C4B 8758  32.516  42.938   7.564
  420POPC   NC3 8759  39.553  20.023   9.376
  420POPC   PO4 8760  40.154  19.712   9.439
  420POPC   GL1 8761  39.911  19.840   9.083
  420POPC   GL2 8762  39.589  19.622   9.056
  420POPC   C1A 8763  39.911  20.076   8.702
  420POPC   D2A 8764  40.256  20.008   8.391
  420POPC   C3A 8765  40.167  19.886   7.947
  420POPC   C4A 8766  39.789  19.986   7.728
  420POPC   C1B 8767  39.855  19.563   8.669
  420POPC   C2B 8768  39.998  19.517   8.255
  420POPC   C3B 8769  39.692  19.535   7.927
  420POPC   C4B 8770  39.606  19.373   7.511
  421POPC   NC3 8771   9.053  41.685   9.642
  421POPC   PO4 8772   9.152  41.125   9.367
  421POPC   GL1 8773   9.005  41.468   9.157
  421POPC   GL2 8774   8.721  41.683   9.231
  421POPC   C1A 8775   9.033  41.401   8.749
  421POPC   D2A 8776   9.226  41.258   8.408
  421POPC   C3A 8777   9.061  41.472   8.064
  421POPC   C4A 8778   8.991  41.697   7.683
  421POPC   C1B 8779   8.567  41.580   8.809
  421POPC   C2B 8780   8.689  41.540   8.390
  421POPC   C3B 8781   8.572  41.627   7.973
  421POPC   C4B 8782   8.514  41.617   7.517
  422POPC   NC3 8783  32.157  39.823   9.347
  422POPC   PO4 8784  32.352  40.398   9.502
  422POPC   GL1 8785  32.522  40.169   9.133
  422POPC   GL2 8786  32.539  39.821   9.016
  422POPC   C1A 8787  32.518  40.202   8.669
  422POPC   D2A 8788  32.315  40.360   8.317
  422POPC   C3A 8789  32.445  40.166   7.919
  422POPC   C4A 8790  32.257  39.807   7.805
  422POPC   C1B 8791  32.181  39.844   8.724
  422POPC   C2B 8792  32.114  39.693   8.342
  422POPC   C3B 8793  31.844  39.880   8.106
  422POPC   C4B 8794  31.754  39.973   7.689
  423POPC   NC3 8795  42.407  35.077   9.555
  423POPC   PO4 8796  42.303  35.778   9.519
  423POPC   GL1 8797  42.246  35.445   9.211
  423POPC   GL2 8798  41.928  35.247   9.272
  423POPC   C1A 8799  42.461  35.387   8.809
  423POPC   D2A 8800  42.349  35.633   8.434
  423POPC   C3A 8801  42.427  35.626   7.989
  423POPC   C4A 8802  42.166  35.528   7.606
  423POPC   C1B 8803  41.966  35.217   8.817
  423POPC   C2B 8804  42.221  35.102   8.446
  423POPC   C3B 8805  42.249  35.151   8.009
  423POPC   C4B 8806  41.878  35.150   7.776
  424POPC   NC3 8807  21.466  43.377   9.511
  424POPC   PO4 8808  21.957  42.851   9.625
  424POPC   GL1 8809  22.038  42.984   9.158
  424POPC   GL2 8810  21.889  42.832   8.914
  424POPC   C1A 8811  22.343  42.949   8.741
  424POPC   D2A 8812  22.303  42.722   8.325
  424POPC   C3A 8813  22.113  42.960   7.973
  424POPC   C4A 8814  22.325  43.349   7.886
  424POPC   C1B 8815  21.990  43.307   8.783
  424POPC   C2B 8816  22.033  43.343   8.338
  424POPC   C3B 8817  21.798  43.411   7.949
  424POPC   C4B 8818  21.855  43.356   7.510
  425POPC   NC3 8819  18.113  41.101   9.495
  425POPC   PO4 8820  18.612  40.700   9.377
  425POPC   GL1 8821  18.334  40.656   9.068
  425POPC   GL2 8822  18.011  40.647   9.238
  425POPC   C1A 8823  18.310  40.805   8.634
  425POPC   D2A 8824  18.265  40.920   8.198
  425POPC   C3A 8825  18.500  40.736   7.867
  425POPC   C4A 8826  18.493  40.863   7.434
  425POPC   C1B 8827  17.923  40.523   8.811
  425POPC   C2B 8828  17.983  40.386   8.387
  425POPC   C3B 8829  17.798  40.462   7.980
  425POPC   C4B 8830  18.023  40.699   7.619
  426POPC   NC3 8831  28.737   7.291   9.524
  426POPC   PO4 8832  29.291   7.450   9.341
  426POPC   GL1 8833  29.209   7.129   9.064
  426POPC   GL2 8834  28.875   7.195   9.036
  426POPC   C1A 8835  29.141   7.171   8.602
  426POPC   D2A 8836  29.336   7.496   8.412
  426POPC   C3A 8837  29.247   7.377   8.030
  426POPC   C4A 8838  29.150   7.653   7.773
  426POPC   C1B 8839  28.918   7.589   8.794
  426POPC   C2B 8840  28.837   7.556   8.348
  426POPC   C3B 8841  28.804   7.157   8.161
  426POPC   C4B 8842  28.738   7.087   7.746
  427POPC   NC3 8843  21.873  41.665   9.582
  427POPC   PO4 8844  21.195  41.466   9.527
  427POPC   GL1 8845  21.333  41.492   9.144
  427POPC   GL2 8846  21.547  41.737   9.199
  427POPC   C1A 8847  21.176  41.429   8.725
  427POPC   D2A 8848  21.405  41.373   8.340
  427POPC   C3A 8849  21.194  41.360   7.940
  427POPC   C4A 8850  21.298  41.151   7.557
  427POPC   C1B 8851  21.581  41.737   8.770
  427POPC   C2B 8852  21.298  41.907   8.461
  427POPC   C3B 8853  21.380  41.854   8.034
  427POPC   C4B 8854  21.686  41.523   7.915
  428POPC   NC3 8855  12.415  18.233   9.373
  428POPC   PO4 8856  11.994  18.663   9.649
  428POPC   GL1 8857  12.011  18.516   9.227
  428POPC   GL2 8858  11.912  18.191   9.208
  428POPC   C1A 8859  12.224  18.413   8.805
  428POPC   D2A 8860  12.284  18.170   8.453
  428POPC   C3A 8861  12.388  18.466   8.130
  428POPC   C4A 8862  12.414  18.393   7.690
  428POPC   C1B 8863  11.734  18.434   8.806
  428POPC   C2B 8864  11.898  18.517   8.370
  428POPC   C3B 8865  11.925  18.536   7.919
  428POPC   C4B 8866  11.807  18.214   7.609
  429POPC   NC3 8867  38.853  24.703   9.380
  429POPC   PO4 8868  38.298  24.329   9.441
  429POPC   GL1 8869  38.280  24.465   9.003
  429POPC   GL2 8870  38.300  24.839   8.940
  429POPC   C1A 8871  38.504  24.230   8.666
  429POPC   D2A 8872  38.606  23.992   8.300
  429POPC   C3A 8873  38.615  24.269   7.962
  429POPC   C4A 8874  38.434  24.418   7.589
  429POPC   C1B 8875  38.645  24.717   8.730
  429POPC   C2B 8876  38.606  24.635   8.311
  429POPC   C3B 8877  38.579  24.779   7.900
  429POPC   C4B 8878  38.501  24.905   7.484
  430POPC   NC3 8879  35.893  25.701   9.485
  430POPC   PO4 8880  36.405  26.116   9.386
  430POPC   GL1 8881  36.092  26.037   9.073
  430POPC   GL2 8882  35.899  26.343   8.893
  430POPC   C1A 8883  36.347  25.889   8.731
  430POPC   D2A 8884  36.538  25.885   8.332
  430POPC   C3A 8885  36.209  25.789   8.046
  430POPC   C4A 8886  35.891  25.753   7.729
  430POPC   C1B 8887  36.350  26.416   8.798
  430POPC   C2B 8888  36.508  26.420   8.388
  430POPC   C3B 8889  36.340  26.289   8.002
  430POPC   C4B 8890  35.959  26.305   7.736
  431POPC   NC3 8891  42.988  23.305   9.308
  431POPC   PO4 8892  43.149  23.880   9.628
  431POPC   GL1 8893  43.050  23.850   9.224
  431POPC   GL2 8894  43.335  23.689   9.122
  431POPC   C1A 8895  42.941  23.751   8.805
  431POPC   D2A 8896  43.092  23.867   8.425
  431POPC   C3A 8897  42.781  23.936   8.185
  431POPC   C4A 8898  42.734  23.662   7.826
  431POPC   C1B 8899  43.361  23.460   8.693
  431POPC   C2B 8900  43.395  23.504   8.240
  431POPC   C3B 8901  43.255  23.608   7.836
  431POPC   C4B 8902  43.420  23.451   7.406
  432POPC   NC3 8903  31.325  36.293   9.544
  432POPC   PO4 8904  31.719  35.795   9.552
  432POPC   GL1 8905  31.496  35.918   9.208
  432POPC   GL2 8906  31.710  35.695   9.031
  432POPC   C1A 8907  31.498  36.231   8.896
  432POPC   D2A 8908  31.291  36.268   8.528
  432POPC   C3A 8909  31.337  36.201   8.090
  432POPC   C4A 8910  31.488  36.238   7.658
  432POPC   C1B 8911  31.452  35.756   8.673
  432POPC   C2B 8912  31.527  35.771   8.255
  432POPC   C3B 8913  31.734  35.792   7.836
  432POPC   C4B 8914  31.873  35.950   7.438
  433POPC   NC3 8915  17.456  24.436   9.877
  433POPC   PO4 8916  17.630  24.096   9.280
  433POPC   GL1 8917  17.746  24.384   8.993
  433POPC   GL2 8918  17.695  24.718   9.128
  433POPC   C1A 8919  17.669  24.318   8.585
  433POPC   D2A 8920  17.738  24.153   8.220
  433POPC   C3A 8921  17.569  24.411   7.934
  433POPC   C4A 8922  17.857  24.625   7.680
  433POPC   C1B 8923  17.360  24.671   8.797
  433POPC   C2B 8924  17.358  24.676   8.350
  433POPC   C3B 8925  17.099  24.642   7.990
  433POPC   C4B 8926  17.195  24.634   7.581
  434POPC   NC3 8927  39.607  42.398   9.396
  434POPC   PO4 8928  38.964  42.609   9.582
  434POPC   GL1 8929  39.105  42.361   9.211
  434POPC   GL2 8930  39.257  42.653   9.103
  434POPC   C1A 8931  39.320  42.282   8.775
  434POPC   D2A 8932  39.441  42.222   8.329
  434POPC   C3A 8933  39.134  42.207   7.985
  434POPC   C4A 8934  39.241  42.212   7.523
  434POPC   C1B 8935  39.375  42.814   8.679
  434POPC   C2B 8936  39.615  42.715   8.307
  434POPC   C3B 8937  39.468  42.588   7.924
  434POPC   C4B 8938  39.564  42.654   7.524
  435POPC   NC3 8939  19.580  29.550   9.552
  435POPC   PO4 8940  19.775  28.860   9.392
  435POPC   GL1 8941  19.865  29.154   9.115
  435POPC   GL2 8942  19.620  29.380   8.969
  435POPC   C1A 8943  19.990  29.082   8.741
  435POPC   D2A 8944  19.794  29.352   8.469
  435POPC   C3A 8945  19.775  29.066   8.150
  435POPC   C4A 8946  20.058  28.795   7.903
  435POPC   C1B 8947  19.474  29.007   8.676
  435POPC   C2B 8948  19.249  29.040   8.265
  435POPC   C3B 8949  19.378  29.031   7.836
  435POPC   C4B 8950  19.568  28.897   7.483
  436POPC   NC3 8951  44.397   5.759   9.426
  436POPC   PO4 8952   0.113   5.584   9.340
  436POPC   GL1 8953  44.771   5.736   9.073
  436POPC   GL2 8954  44.630   6.081   9.111
  436POPC   C1A 8955  44.608   5.832   8.661
  436POPC   D2A 8956  44.260   5.745   8.380
  436POPC   C3A 8957  44.534   5.810   8.083
  436POPC   C4A 8958  44.699   5.536   7.795
  436POPC   C1B 8959  44.683   6.330   8.730
  436POPC   C2B 8960  44.886   6.207   8.331
  436POPC   C3B 8961  44.937   6.065   7.901
  436POPC   C4B 8962  44.590   6.006   7.609
  437POPC   NC3 8963  21.538  10.620   9.526
  437POPC   PO4 8964  21.366   9.975   9.359
  437POPC   GL1 8965  21.544  10.269   9.153
  437POPC   GL2 8966  21.276  10.516   9.105
  437POPC   C1A 8967  21.677  10.400   8.779
  437POPC   D2A 8968  21.557  10.467   8.400
  437POPC   C3A 8969  21.620  10.472   7.997
  437POPC   C4A 8970  21.256  10.321   7.831
  437POPC   C1B 8971  21.369  10.788   8.764
  437POPC   C2B 8972  21.412  10.949   8.372
  437POPC   C3B 8973  21.247  10.822   7.979
  437POPC   C4B 8974  21.457  10.854   7.582
  438POPC   NC3 8975  37.774  28.112   9.507
  438POPC   PO4 8976  37.620  28.736   9.518
  438POPC   GL1 8977  37.770  28.510   9.144
  438POPC   GL2 8978  37.574  28.205   9.040
  438POPC   C1A 8979  37.908  28.437   8.693
  438POPC   D2A 8980  37.667  28.301   8.291
  438POPC   C3A 8981  37.476  28.567   7.970
  438POPC   C4A 8982  37.421  28.651   7.507
  438POPC   C1B 8983  37.728  27.964   8.680
  438POPC   C2B 8984  37.866  27.822   8.285
  438POPC   C3B 8985  37.947  28.008   7.889
  438POPC   C4B 8986  37.672  28.222   7.595
  439POPC   NC3 8987  35.267   3.213   9.518
  439POPC   PO4 8988  35.665   3.653   9.812
  439POPC   GL1 8989  35.658   3.532   9.342
  439POPC   GL2 8990  35.477   3.737   9.135
  439POPC   C1A 8991  35.539   3.307   8.897
  439POPC   D2A 8992  35.199   3.416   8.580
  439POPC   C3A 8993  35.271   3.350   8.131
  439POPC   C4A 8994  35.561   3.382   7.773
  439POPC   C1B 8995  35.371   3.878   8.771
  439POPC   C2B 8996  35.133   3.966   8.441
  439POPC   C3B 8997  35.324   3.855   8.065
  439POPC   C4B 8998  35.157   3.674   7.716
  440POPC   NC3 8999  10.681   7.820   9.522
  440POPC   PO4 9000  11.383   8.057   9.543
  440POPC   GL1 9001  11.294   8.149   9.158
  440POPC   GL2 9002  10.947   8.103   9.156
  440POPC   C1A 9003  11.442   8.272   8.782
  440POPC   D2A 9004  11.252   8.124   8.421
  440POPC   C3A 9005  11.519   8.101   8.107
  440POPC   C4A 9006  11.387   8.333   7.783
  440POPC   C1B 9007  11.128   7.817   8.811
  440POPC   C2B 9008  11.121   7.618   8.413
  440POPC   C3B 9009  11.069   7.807   8.021
  440POPC   C4B 9010  10.901   7.605   7.684
  441POPC   NC3 9011  20.561  36.529   9.473
  441POPC   PO4 9012  20.247  37.248   9.540
  441POPC   GL1 9013  20.511  37.014   9.239
  441POPC   GL2 9014  20.252  36.797   9.141
  441POPC   C1A 9015  20.690  36.775   8.865
  441POPC   D2A 9016  20.796  36.611   8.469
  441POPC   C3A 9017  20.730  36.872   8.126
  441POPC   C4A 9018  20.769  36.794   7.696
  441POPC   C1B 9019  20.275  36.496   8.774
  441POPC   C2B 9020  20.289  36.646   8.340
  441POPC   C3B 9021  20.378  36.542   7.904
  441POPC   C4B 9022  20.398  36.451   7.457
  442POPC   NC3 9023  16.761   3.415   9.440
  442POPC   PO4 9024  17.063   4.043   9.424
  442POPC   GL1 9025  16.801   3.839   9.129
  442POPC   GL2 9026  16.973   3.522   8.979
  442POPC   C1A 9027  16.537   3.724   8.791
  442POPC   D2A 9028  16.730   3.542   8.442
  442POPC   C3A 9029  16.687   3.735   8.054
  442POPC   C4A 9030  16.649   3.541   7.671
  442POPC   C1B 9031  16.647   3.199   8.823
  442POPC   C2B 9032  16.475   3.058   8.425
  442POPC   C3B 9033  16.625   3.189   8.053
  442POPC   C4B 9034  16.554   3.042   7.647
  443POPC   NC3 9035  21.348  31.272   9.506
  443POPC   PO4 9036  21.563  31.811   9.891
  443POPC   GL1 9037  21.180  31.754   9.423
  443POPC   GL2 9038  21.345  31.552   9.095
  443POPC   C1A 9039  20.984  31.820   8.938
  443POPC   D2A 9040  21.200  31.581   8.573
  443POPC   C3A 9041  21.286  31.619   8.104
  443POPC   C4A 9042  21.578  31.462   7.768
  443POPC   C1B 9043  21.658  31.442   8.772
  443POPC   C2B 9044  21.517  31.192   8.415
  443POPC   C3B 9045  21.288  31.095   8.051
  443POPC   C4B 9046  21.574  30.940   7.748
  444POPC   NC3 9047   9.403  30.410   9.513
  444POPC   PO4 9048  10.094  30.351   9.558
  444POPC   GL1 9049  10.002  30.659   9.239
  444POPC   GL2 9050   9.664  30.593   9.098
  444POPC   C1A 9051  10.038  30.860   8.815
  444POPC   D2A 9052   9.730  30.988   8.528
  444POPC   C3A 9053   9.792  30.842   8.117
  444POPC   C4A 9054   9.666  31.019   7.749
  444POPC   C1B 9055   9.345  30.467   8.779
  444POPC   C2B 9056   9.219  30.519   8.354
  444POPC   C3B 9057   9.368  30.597   7.930
  444POPC   C4B 9058   9.741  30.478   7.716
  445POPC   NC3 9059   8.109  30.395   9.468
  445POPC   PO4 9060   8.184  30.956   9.756
  445POPC   GL1 9061   8.091  30.912   9.310
  445POPC   GL2 9062   8.245  30.713   9.103
  445POPC   C1A 9063   7.954  30.994   8.836
  445POPC   D2A 9064   7.970  30.747   8.438
  445POPC   C3A 9065   8.058  30.772   7.997
  445POPC   C4A 9066   8.055  30.580   7.592
  445POPC   C1B 9067   8.423  30.664   8.680
  445POPC   C2B 9068   8.394  30.492   8.256
  445POPC   C3B 9069   8.514  30.570   7.809
  445POPC   C4B 9070   8.503  30.524   7.349
  446POPC   NC3 9071  30.668  21.237   9.525
  446POPC   PO4 9072  31.084  21.777   9.516
  446POPC   GL1 9073  31.013  21.469   9.178
  446POPC   GL2 9074  31.015  21.100   9.161
  446POPC   C1A 9075  30.781  21.477   8.784
  446POPC   D2A 9076  30.575  21.602   8.402
  446POPC   C3A 9077  30.847  21.748   8.094
  446POPC   C4A 9078  30.712  21.598   7.703
  446POPC   C1B 9079  30.623  21.017   8.909
  446POPC   C2B 9080  30.575  21.073   8.483
  446POPC   C3B 9081  30.613  21.191   8.046
  446POPC   C4B 9082  30.642  21.002   7.644
  447POPC   NC3 9083  10.877  27.070   9.449
  447POPC   PO4 9084  11.444  26.984   9.865
  447POPC   GL1 9085  11.431  26.984   9.328
  447POPC   GL2 9086  11.155  26.938   9.062
  447POPC   C1A 9087  11.518  26.642   8.982
  447POPC   D2A 9088  11.333  26.611   8.592
  447POPC   C3A 9089  11.399  26.627   8.139
  447POPC   C4A 9090  11.437  26.625   7.720
  447POPC   C1B 9091  11.364  27.119   8.719
  447POPC   C2B 9092  11.179  27.047   8.321
  447POPC   C3B 9093  11.310  27.130   7.890
  447POPC   C4B 9094  11.152  27.090   7.457
  448POPC   NC3 9095  42.735  34.496   9.271
  448POPC   PO4 9096  42.137  34.679   9.596
  448POPC   GL1 9097  42.258  34.625   9.170
  448POPC   GL2 9098  42.317  34.946   9.067
  448POPC   C1A 9099  42.279  34.310   8.804
  448POPC   D2A 9100  42.248  34.025   8.444
  448POPC   C3A 9101  42.486  34.130   8.090
  448POPC   C4A 9102  42.273  34.225   7.721
  448POPC   C1B 9103  42.523  34.795   8.714
  448POPC   C2B 9104  42.405  34.579   8.352
  448POPC   C3B 9105  42.132  34.649   8.006
  448POPC   C4B 9106  42.210  34.758   7.618
  449POPC   NC3 9107  31.893   3.856   9.454
  449POPC   PO4 9108  32.375   3.299   9.472
  449POPC   GL1 9109  32.309   3.614   9.242
  449POPC   GL2 9110  31.999   3.507   9.093
  449POPC   C1A 9111  32.387   3.647   8.817
  449POPC   D2A 9112  32.401   3.565   8.408
  449POPC   C3A 9113  32.084   3.608   8.106
  449POPC   C4A 9114  32.282   3.511   7.757
  449POPC   C1B 9115  31.885   3.482   8.644
  449POPC   C2B 9116  31.787   3.202   8.275
  449POPC   C3B 9117  31.880   3.202   7.820
  449POPC   C4B 9118  31.816   3.598   7.588
  450POPC   NC3 9119  32.245  39.058   9.620
  450POPC   PO4 9120  32.408  38.416   9.466
  450POPC   GL1 9121  32.310  38.492   9.111
  450POPC   GL2 9122  32.009  38.682   9.193
  450POPC   C1A 9123  32.181  38.277   8.765
  450POPC   D2A 9124  32.321  38.368   8.375
  450POPC   C3A 9125  32.196  38.226   8.022
  450POPC   C4A 9126  32.301  38.251   7.620
  450POPC   C1B 9127  32.124  38.813   8.774
  450POPC   C2B 9128  32.016  38.797   8.388
  450POPC   C3B 9129  32.148  38.725   8.000
  450POPC   C4B 9130  31.946  38.923   7.705
  451POPC   NC3 9131   0.229  26.847   9.671
  451POPC   PO4 9132   0.850  27.030   9.434
  451POPC   GL1 9133   0.507  26.846   9.155
  451POPC   GL2 9134   0.142  26.852   9.160
  451POPC   C1A 9135   0.543  26.621   8.767
  451POPC   D2A 9136   0.837  26.641   8.413
  451POPC   C3A 9137   0.677  26.553   7.995
  451POPC   C4A 9138   0.246  26.533   7.819
  451POPC   C1B 9139   0.211  27.034   8.748
  451POPC   C2B 9140   0.380  26.897   8.349
  451POPC   C3B 9141   0.417  27.022   7.951
  451POPC   C4B 9142   0.132  27.315   7.801
  452POPC   NC3 9143   0.969  25.429   9.462
  452POPC   PO4 9144   1.684  25.351   9.433
  452POPC   GL1 9145   1.647  25.252   9.015
  452POPC   GL2 9146   1.314  25.154   9.080
  452POPC   C1A 9147   1.421  25.298   8.616
  452POPC   D2A 9148   1.073  25.248   8.335
  452POPC   C3A 9149   1.313  25.252   7.971
  452POPC   C4A 9150   1.164  25.315   7.548
  452POPC   C1B 9151   1.241  24.833   8.768
  452POPC   C2B 9152   1.354  24.832   8.351
  452POPC   C3B 9153   1.083  24.814   8.022
  452POPC   C4B 9154   1.307  24.811   7.696
  453POPC   NC3 9155   2.007  44.081   9.582
  453POPC   PO4 9156   2.464  43.603   9.505
  453POPC   GL1 9157   2.209  43.807   9.190
  453POPC   GL2 9158   1.863  43.687   9.247
  453POPC   C1A 9159   2.158  43.965   8.775
  453POPC   D2A 9160   2.144  43.755   8.390
  453POPC   C3A 9161   2.281  43.935   8.006
  453POPC   C4A 9162   2.253  44.180   7.623
  453POPC   C1B 9163   1.646  43.752   8.835
  453POPC   C2B 9164   1.640  43.875   8.429
  453POPC   C3B 9165   1.761  43.738   8.043
  453POPC   C4B 9166   1.873  43.840   7.657
  454POPC   NC3 9167  34.651  39.474   9.655
  454POPC   PO4 9168  34.311  38.927   9.450
  454POPC   GL1 9169  34.494  39.116   9.080
  454POPC   GL2 9170  34.479  39.464   9.165
  454POPC   C1A 9171  34.733  39.067   8.684
  454POPC   D2A 9172  34.858  38.985   8.269
  454POPC   C3A 9173  34.619  39.240   7.977
  454POPC   C4A 9174  34.643  39.222   7.526
  454POPC   C1B 9175  34.597  39.579   8.763
  454POPC   C2B 9176  34.420  39.572   8.369
  454POPC   C3B 9177  34.179  39.538   8.015
  454POPC   C4B 9178  34.362  39.619   7.657
  455POPC   NC3 9179   6.670  33.296   9.716
  455POPC   PO4 9180   6.512  33.905   9.614
  455POPC   GL1 9181   6.671  33.802   9.220
  455POPC   GL2 9182   6.927  33.556   9.217
  455POPC   C1A 9183   6.484  33.740   8.812
  455POPC   D2A 9184   6.314  33.932   8.440
  455POPC   C3A 9185   6.359  33.745   8.030
  455POPC   C4A 9186   6.644  33.705   7.712
  455POPC   C1B 9187   6.865  33.397   8.806
  455POPC   C2B 9188   6.677  33.495   8.392
  455POPC   C3B 9189   6.818  33.339   7.998
  455POPC   C4B 9190   7.085  33.500   7.654
  456POPC   NC3 9191  20.419  35.544   9.373
  456POPC   PO4 9192  20.949  35.886   9.641
  456POPC   GL1 9193  20.793  36.119   9.301
  456POPC   GL2 9194  20.474  36.035   9.252
  456POPC   C1A 9195  20.748  36.240   8.852
  456POPC   D2A 9196  20.518  36.169   8.441
  456POPC   C3A 9197  20.782  36.242   8.087
  456POPC   C4A 9198  20.851  36.297   7.654
  456POPC   C1B 9199  20.298  35.952   8.859
  456POPC   C2B 9200  20.149  35.781   8.483
  456POPC   C3B 9201  20.381  35.768   8.124
  456POPC   C4B 9202  20.417  36.035   7.790
  457POPC   NC3 9203  36.076  13.167   9.571
  457POPC   PO4 9204  35.755  13.776   9.698
  457POPC   GL1 9205  35.950  13.673   9.255
  457POPC   GL2 9206  35.800  13.353   9.175
  457POPC   C1A 9207  36.119  13.546   8.797
  457POPC   D2A 9208  36.306  13.470   8.354
  457POPC   C3A 9209  36.077  13.560   7.930
  457POPC   C4A 9210  36.249  13.419   7.524
  457POPC   C1B 9211  35.623  13.305   8.772
  457POPC   C2B 9212  35.627  13.450   8.344
  457POPC   C3B 9213  35.624  13.268   7.922
  457POPC   C4B 9214  35.729  13.380   7.505
  458POPC   NC3 9215  37.425  24.041   9.440
  458POPC   PO4 9216  36.790  23.832   9.579
  458POPC   GL1 9217  36.982  23.895   9.198
  458POPC   GL2 9218  37.205  23.629   9.202
  458POPC   C1A 9219  36.848  23.891   8.779
  458POPC   D2A 9220  36.643  23.816   8.407
  458POPC   C3A 9221  36.902  23.894   8.053
  458POPC   C4A 9222  36.798  24.019   7.651
  458POPC   C1B 9223  36.918  23.407   8.969
  458POPC   C2B 9224  36.970  23.427   8.546
  458POPC   C3B 9225  36.964  23.362   8.120
  458POPC   C4B 9226  36.825  23.502   7.713
  459POPC   NC3 9227  29.145  17.887   9.370
  459POPC   PO4 9228  29.288  17.279   9.524
  459POPC   GL1 9229  29.357  17.479   9.091
  459POPC   GL2 9230  29.518  17.807   9.016
  459POPC   C1A 9231  29.347  17.502   8.616
  459POPC   D2A 9232  29.568  17.445   8.207
  459POPC   C3A 9233  29.352  17.509   7.794
  459POPC   C4A 9234  28.912  17.480   7.675
  459POPC   C1B 9235  29.137  17.967   8.754
  459POPC   C2B 9236  28.907  17.941   8.386
  459POPC   C3B 9237  29.041  17.860   7.982
  459POPC   C4B 9238  29.104  17.913   7.518
  460POPC   NC3 9239  30.765  11.406   9.352
  460POPC   PO4 9240  30.176  11.251   9.615
  460POPC   GL1 9241  30.343  11.394   9.075
  460POPC   GL2 9242  30.653  11.157   8.881
  460POPC   C1A 9243  30.584  11.584   8.691
  460POPC   D2A 9244  30.649  11.247   8.377
  460POPC   C3A 9245  30.793  11.402   8.016
  460POPC   C4A 9246  30.767  11.665   7.684
  460POPC   C1B 9247  30.999  10.969   8.675
  460POPC   C2B 9248  31.156  11.160   8.279
  460POPC   C3B 9249  31.154  11.129   7.828
  460POPC   C4B 9250  30.878  11.219   7.475
  461POPC   NC3 9251  30.061  38.497   9.645
  461POPC   PO4 9252  29.700  38.063   9.383
  461POPC   GL1 9253  29.914  38.348   9.163
  461POPC   GL2 9254  29.862  38.687   9.208
  461POPC   C1A 9255  30.110  38.427   8.795
  461POPC   D2A 9256  30.307  38.195   8.464
  461POPC   C3A 9257  30.158  38.342   8.084
  461POPC   C4A 9258  30.235  38.151   7.700
  461POPC   C1B 9259  29.659  38.702   8.805
  461POPC   C2B 9260  29.783  38.559   8.411
  461POPC   C3B 9261  29.652  38.470   8.023
  461POPC   C4B 9262  29.844  38.475   7.650
  462POPC   NC3 9263   4.540  42.642   9.537
  462POPC   PO4 9264   4.011  42.295   9.243
  462POPC   GL1 9265   4.209  42.466   8.988
  462POPC   GL2 9266   4.297  42.773   9.106
  462POPC   C1A 9267   4.269  42.251   8.644
  462POPC   D2A 9268   4.091  42.330   8.314
  462POPC   C3A 9269   4.202  42.044   7.988
  462POPC   C4A 9270   4.177  42.231   7.602
  462POPC   C1B 9271   4.500  42.782   8.729
  462POPC   C2B 9272   4.507  42.627   8.344
  462POPC   C3B 9273   4.440  42.486   7.952
  462POPC   C4B 9274   4.639  42.469   7.545
  463POPC   NC3 9275  22.939  31.721   9.672
  463POPC   PO4 9276  22.318  31.792   9.440
  463POPC   GL1 9277  22.681  31.727   9.191
  463POPC   GL2 9278  22.801  31.374   9.168
  463POPC   C1A 9279  22.983  31.744   8.843
  463POPC   D2A 9280  23.208  31.628   8.453
  463POPC   C3A 9281  23.012  31.610   8.056
  463POPC   C4A 9282  23.016  31.577   7.597
  463POPC   C1B 9283  22.920  31.249   8.716
  463POPC   C2B 9284  22.804  31.179   8.275
  463POPC   C3B 9285  22.973  31.144   7.848
  463POPC   C4B 9286  23.136  31.097   7.423
  464POPC   NC3 9287  22.365  41.301   9.359
  464POPC   PO4 9288  22.334  41.987   9.583
  464POPC   GL1 9289  22.050  41.921   9.188
  464POPC   GL2 9290  22.017  41.559   9.082
  464POPC   C1A 9291  22.076  41.902   8.723
  464POPC   D2A 9292  21.905  41.632   8.386
  464POPC   C3A 9293  22.125  41.743   8.048
  464POPC   C4A 9294  22.167  41.757   7.643
  464POPC   C1B 9295  22.217  41.381   8.696
  464POPC   C2B 9296  22.162  41.197   8.267
  464POPC   C3B 9297  22.116  41.245   7.813
  464POPC   C4B 9298  22.282  41.325   7.405
  465POPC   NC3 9299  15.777   8.756   9.300
  465POPC   PO4 9300  16.421   8.936   9.467
  465POPC   GL1 9301  16.159   9.016   9.084
  465POPC   GL2 9302  15.944   9.309   9.024
  465POPC   C1A 9303  16.079   8.968   8.627
  465POPC   D2A 9304  16.087   9.229   8.249
  465POPC   C3A 9305  16.199   9.010   7.870
  465POPC   C4A 9306  15.983   8.715   7.581
  465POPC   C1B 9307  15.628   9.204   8.752
  465POPC   C2B 9308  15.615   9.048   8.356
  465POPC   C3B 9309  15.701   9.099   7.933
  465POPC   C4B 9310  15.479   8.850   7.679
  466POPC   NC3 9311  18.050  15.186   9.591
  466POPC   PO4 9312  18.772  15.136   9.611
  466POPC   GL1 9313  18.531  15.280   9.219
  466POPC   GL2 9314  18.182  15.403   9.166
  466POPC   C1A 9315  18.516  15.456   8.783
  466POPC   D2A 9316  18.641  15.303   8.392
  466POPC   C3A 9317  18.483  15.301   7.963
  466POPC   C4A 9318  18.400  14.910   7.665
  466POPC   C1B 9319  18.112  15.095   8.865
  466POPC   C2B 9320  17.987  15.130   8.439
  466POPC   C3B 9321  18.060  15.031   8.025
  466POPC   C4B 9322  18.081  15.281   7.645
  467POPC   NC3 9323  38.930  36.796   9.372
  467POPC   PO4 9324  39.537  37.105   9.339
  467POPC   GL1 9325  39.500  36.830   9.019
  467POPC   GL2 9326  39.217  36.645   8.976
  467POPC   C1A 9327  39.454  36.973   8.616
  467POPC   D2A 9328  39.660  37.160   8.280
  467POPC   C3A 9329  39.598  36.983   7.878
  467POPC   C4A 9330  39.463  36.771   7.472
  467POPC   C1B 9331  39.081  36.619   8.567
  467POPC   C2B 9332  39.255  36.764   8.202
  467POPC   C3B 9333  39.114  36.835   7.829
  467POPC   C4B 9334  38.945  36.474   7.716
  468POPC   NC3 9335  34.380  25.529   9.388
  468POPC   PO4 9336  34.641  26.133   9.532
  468POPC   GL1 9337  34.689  25.882   9.147
  468POPC   GL2 9338  34.359  25.894   9.052
  468POPC   C1A 9339  34.720  25.943   8.706
  468POPC   D2A 9340  34.606  25.846   8.277
  468POPC   C3A 9341  34.729  26.197   8.042
  468POPC   C4A 9342  34.950  26.292   7.637
  468POPC   C1B 9343  34.248  25.753   8.626
  468POPC   C2B 9344  34.150  25.573   8.221
  468POPC   C3B 9345  34.235  25.621   7.779
  468POPC   C4B 9346  34.599  25.881   7.681
  469POPC   NC3 9347  39.864  16.257   9.587
  469POPC   PO4 9348  40.412  16.496   9.323
  469POPC   GL1 9349  40.251  16.077   9.191
  469POPC   GL2 9350  39.867  15.926   9.157
  469POPC   C1A 9351  40.165  15.956   8.770
  469POPC   D2A 9352  39.817  16.034   8.509
  469POPC   C3A 9353  40.048  15.894   8.128
  469POPC   C4A 9354  40.210  15.752   7.750
  469POPC   C1B 9355  39.810  15.587   8.796
  469POPC   C2B 9356  39.690  15.586   8.331
  469POPC   C3B 9357  39.686  15.639   7.875
  469POPC   C4B 9358  39.872  15.465   7.487
  470POPC   NC3 9359  39.989  43.502   9.492
  470POPC   PO4 9360  39.638  42.884   9.304
  470POPC   GL1 9361  39.882  43.142   9.038
  470POPC   GL2 9362  40.171  43.296   9.078
  470POPC   C1A 9363  39.903  43.056   8.616
  470POPC   D2A 9364  40.142  42.961   8.293
  470POPC   C3A 9365  39.942  42.896   7.923
  470POPC   C4A 9366  40.135  43.100   7.600
  470POPC   C1B 9367  40.087  43.525   8.716
  470POPC   C2B 9368  39.915  43.526   8.336
  470POPC   C3B 9369  40.079  43.413   7.975
  470POPC   C4B 9370  40.446  43.492   7.722
  471POPC   NC3 9371  32.940   1.501   9.313
  471POPC   PO4 9372  33.217   1.080   9.766
  471POPC   GL1 9373  33.207   1.059   9.221
  471POPC   GL2 9374  32.938   0.955   8.916
  471POPC   C1A 9375  33.329   1.224   8.749
  471POPC   D2A 9376  33.067   1.178   8.311
  471POPC   C3A 9377  33.262   1.307   7.921
  471POPC   C4A 9378  33.284   1.326   7.433
  471POPC   C1B 9379  32.837   1.396   8.704
  471POPC   C2B 9380  32.798   1.743   8.408
  471POPC   C3B 9381  32.830   1.611   7.990
  471POPC   C4B 9382  32.761   1.178   7.843
  472POPC   NC3 9383   7.791  10.236   9.566
  472POPC   PO4 9384   7.655   9.644   9.602
  472POPC   GL1 9385   7.461   9.784   9.178
  472POPC   GL2 9386   7.169  10.032   9.177
  472POPC   C1A 9387   7.318   9.740   8.717
  472POPC   D2A 9388   7.257   9.547   8.294
  472POPC   C3A 9389   7.525   9.731   7.981
  472POPC   C4A 9390   7.892   9.963   8.108
  472POPC   C1B 9391   6.893  10.055   8.814
  472POPC   C2B 9392   6.869   9.975   8.369
  472POPC   C3B 9393   7.034   9.901   7.964
  472POPC   C4B 9394   7.259   9.951   7.611
  473POPC   NC3 9395  28.833   7.950   9.416
  473POPC   PO4 9396  29.237   8.419   9.580
  473POPC   GL1 9397  29.155   8.352   9.147
  473POPC   GL2 9398  28.872   8.179   8.971
  473POPC   C1A 9399  29.294   8.301   8.720
  473POPC   D2A 9400  29.061   8.000   8.505
  473POPC   C3A 9401  29.187   8.023   8.127
  473POPC   C4A 9402  29.146   8.313   7.842
  473POPC   C1B 9403  28.870   8.564   8.731
  473POPC   C2B 9404  28.968   8.496   8.305
  473POPC   C3B 9405  28.778   8.662   7.929
  473POPC   C4B 9406  28.657   8.345   7.624
  474POPC   NC3 9407  33.787   0.053   9.509
  474POPC   PO4 9408  34.021   0.620   9.729
  474POPC   GL1 9409  33.910   0.474   9.263
  474POPC   GL2 9410  34.110   0.192   9.168
  474POPC   C1A 9411  33.729   0.318   8.841
  474POPC   D2A 9412  33.549   0.342   8.425
  474POPC   C3A 9413  33.730   0.328   8.054
  474POPC   C4A 9414  33.606   0.481   7.664
  474POPC   C1B 9415  34.133   0.019   8.793
  474POPC   C2B 9416  34.068   0.208   8.418
  474POPC   C3B 9417  34.194   0.129   8.028
  474POPC   C4B 9418  34.123   0.404   7.707
  475POPC   NC3 9419  19.685  18.711   9.475
  475POPC   PO4 9420  20.057  18.242   9.677
  475POPC   GL1 9421  20.022  18.360   9.227
  475POPC   GL2 9422  19.889  18.051   9.126
  475POPC   C1A 9423  19.857  18.449   8.784
  475POPC   D2A 9424  19.853  18.257   8.374
  475POPC   C3A 9425  19.833  18.471   7.958
  475POPC   C4A 9426  19.800  18.361   7.527
  475POPC   C1B 9427  19.719  17.803   8.785
  475POPC   C2B 9428  19.557  17.842   8.365
  475POPC   C3B 9429  19.702  17.972   7.968
  475POPC   C4B 9430  19.652  17.872   7.562
  476POPC   NC3 9431  42.683  13.765   9.219
  476POPC   PO4 9432  43.338  13.436   9.365
  476POPC   GL1 9433  43.160  13.670   9.089
  476POPC   GL2 9434  42.994  13.400   8.986
  476POPC   C1A 9435  43.006  13.785   8.659
  476POPC   D2A 9436  43.191  13.566   8.356
  476POPC   C3A 9437  43.023  13.523   7.959
  476POPC   C4A 9438  42.782  13.848   7.790
  476POPC   C1B 9439  43.318  13.232   8.746
  476POPC   C2B 9440  43.478  13.161   8.354
  476POPC   C3B 9441  43.301  13.091   7.987
  476POPC   C4B 9442  43.327  13.235   7.610
  477POPC   NC3 9443  16.696  10.966   9.316
  477POPC   PO4 9444  16.940  10.449   9.646
  477POPC   GL1 9445  16.835  10.489   9.180
  477POPC   GL2 9446  16.481  10.435   9.048
  477POPC   C1A 9447  16.862  10.495   8.715
  477POPC   D2A 9448  16.960  10.498   8.322
  477POPC   C3A 9449  16.746  10.379   8.018
  477POPC   C4A 9450  16.845  10.603   7.683
  477POPC   C1B 9451  16.438  10.767   8.748
  477POPC   C2B 9452  16.464  10.678   8.335
  477POPC   C3B 9453  16.575  10.896   7.995
  477POPC   C4B 9454  16.441  10.915   7.558
  478POPC   NC3 9455  22.704   7.880   9.483
  478POPC   PO4 9456  23.084   8.359   9.501
  478POPC   GL1 9457  22.949   8.230   9.137
  478POPC   GL2 9458  23.065   7.912   9.053
  478POPC   C1A 9459  22.912   8.399   8.767
  478POPC   D2A 9460  22.718   8.415   8.425
  478POPC   C3A 9461  22.883   8.303   8.065
  478POPC   C4A 9462  22.713   8.231   7.658
  478POPC   C1B 9463  23.349   7.851   8.681
  478POPC   C2B 9464  23.420   7.804   8.241
  478POPC   C3B 9465  23.230   7.989   7.881
  478POPC   C4B 9466  23.113   7.946   7.443
  479POPC   NC3 9467  30.461  26.895   9.460
  479POPC   PO4 9468  31.075  26.528   9.455
  479POPC   GL1 9469  30.856  26.765   9.139
  479POPC   GL2 9470  30.899  27.102   9.107
  479POPC   C1A 9471  30.756  26.623   8.725
  479POPC   D2A 9472  30.969  26.296   8.436
  479POPC   C3A 9473  30.818  26.408   8.040
  479POPC   C4A 9474  30.481  26.636   7.877
  479POPC   C1B 9475  30.720  27.155   8.680
  479POPC   C2B 9476  30.586  27.002   8.262
  479POPC   C3B 9477  30.858  26.961   7.887
  479POPC   C4B 9478  30.981  26.992   7.465
  480POPC   NC3 9479  28.185   7.001   9.641
  480POPC   PO4 9480  28.465   7.675   9.556
  480POPC   GL1 9481  28.409   7.377   9.146
  480POPC   GL2 9482  28.419   6.977   9.178
  480POPC   C1A 9483  28.517   7.270   8.661
  480POPC   D2A 9484  28.335   7.359   8.234
  480POPC   C3A 9485  28.534   7.546   7.915
  480POPC   C4A 9486  28.735   7.937   7.917
  480POPC   C1B 9487  28.092   7.087   8.866
  480POPC   C2B 9488  28.060   6.975   8.418
  480POPC   C3B 9489  28.252   6.922   7.997
  480POPC   C4B 9490  28.276   7.128   7.600
  481POPC   NC3 9491  17.083   0.449   9.473
  481POPC   PO4 9492  16.626   0.892   9.707
  481POPC   GL1 9493  16.803   0.783   9.218
  481POPC   GL2 9494  16.825   0.386   9.053
  481POPC   C1A 9495  17.058   0.758   8.813
  481POPC   D2A 9496  16.978   0.419   8.501
  481POPC   C3A 9497  16.873   0.602   8.100
  481POPC   C4A 9498  17.063   0.573   7.687
  481POPC   C1B 9499  16.515   0.261   8.754
  481POPC   C2B 9500  16.382   0.474   8.410
  481POPC   C3B 9501  16.344   0.362   8.023
  481POPC   C4B 9502  16.649   0.281   7.782
  482POPC   NC3 9503  35.936  31.838   9.791
  482POPC   PO4 9504  35.757  32.360   9.545
  482POPC   GL1 9505  36.046  32.232   9.208
  482POPC   GL2 9506  35.917  31.919   9.248
  482POPC   C1A 9507  36.223  32.297   8.768
  482POPC   D2A 9508  36.153  32.495   8.371
  482POPC   C3A 9509  36.374  32.390   8.022
  482POPC   C4A 9510  36.229  32.338   7.643
  482POPC   C1B 9511  36.054  31.828   8.802
  482POPC   C2B 9512  36.224  31.973   8.338
  482POPC   C3B 9513  36.099  31.859   7.892
  482POPC   C4B 9514  36.017  31.782   7.420
  483POPC   NC3 9515  33.990  21.939   9.905
  483POPC   PO4 9516  33.696  22.494   9.651
  483POPC   GL1 9517  33.702  22.409   9.199
  483POPC   GL2 9518  34.067  22.384   9.170
  483POPC   C1A 9519  33.702  22.216   8.766
  483POPC   D2A 9520  33.869  22.358   8.343
  483POPC   C3A 9521  33.637  22.074   8.110
  483POPC   C4A 9522  33.611  21.978   7.695
  483POPC   C1B 9523  34.184  22.331   8.751
  483POPC   C2B 9524  34.174  21.951   8.458
  483POPC   C3B 9525  34.078  21.828   8.034
  483POPC   C4B 9526  34.048  22.223   7.833
  484POPC   NC3 9527  24.929  15.632   9.315
  484POPC   PO4 9528  24.497  16.157   9.524
  484POPC   GL1 9529  24.339  16.012   9.115
  484POPC   GL2 9530  24.488  15.710   9.050
  484POPC   C1A 9531  24.226  15.929   8.676
  484POPC   D2A 9532  24.416  16.112   8.329
  484POPC   C3A 9533  24.396  15.988   7.915
  484POPC   C4A 9534  24.742  16.200   7.708
  484POPC   C1B 9535  24.724  16.014   8.776
  484POPC   C2B 9536  25.017  15.941   8.432
  484POPC   C3B 9537  24.878  15.788   8.045
  484POPC   C4B 9538  24.709  15.691   7.642
  485POPC   NC3 9539  29.742   1.737   9.778
  485POPC   PO4 9540  29.842   1.140   9.506
  485POPC   GL1 9541  29.879   1.150   9.074
  485POPC   GL2 9542  29.967   1.529   9.097
  485POPC   C1A 9543  29.833   1.243   8.671
  485POPC   D2A 9544  30.001   1.044   8.344
  485POPC   C3A 9545  29.920   1.245   8.005
  485POPC   C4A 9546  29.596   1.217   7.733
  485POPC   C1B 9547  30.282   1.521   8.753
  485POPC   C2B 9548  30.250   1.538   8.298
  485POPC   C3B 9549  30.290   1.568   7.861
  485POPC   C4B 9550  30.012   1.455   7.534
  486POPC   NC3 9551  37.223  39.785   9.330
  486POPC   PO4 9552  37.855  39.922   9.542
  486POPC   GL1 9553  37.651  40.129   9.218
  486POPC   GL2 9554  37.378  40.365   9.297
  486POPC   C1A 9555  37.639  39.938   8.815
  486POPC   D2A 9556  37.496  39.788   8.456
  486POPC   C3A 9557  37.807  39.651   8.162
  486POPC   C4A 9558  37.927  39.599   7.726
  486POPC   C1B 9559  37.406  40.391   8.839
  486POPC   C2B 9560  37.332  40.283   8.404
  486POPC   C3B 9561  37.533  40.085   8.032
  486POPC   C4B 9562  37.417  40.272   7.649
  487POPC   NC3 9563   3.215  39.146   9.515
  487POPC   PO4 9564   2.609  39.219   9.695
  487POPC   GL1 9565   2.539  39.258   9.254
  487POPC   GL2 9566   2.508  39.586   9.105
  487POPC   C1A 9567   2.621  39.182   8.822
  487POPC   D2A 9568   2.784  39.195   8.418
  487POPC   C3A 9569   2.602  38.873   8.119
  487POPC   C4A 9570   2.569  38.936   7.677
  487POPC   C1B 9571   2.605  39.659   8.665
  487POPC   C2B 9572   2.462  39.614   8.265
  487POPC   C3B 9573   2.655  39.358   7.950
  487POPC   C4B 9574   3.026  39.120   7.938
  488POPC   NC3 9575  18.611  40.236   9.274
  488POPC   PO4 9576  18.028  39.894   9.472
  488POPC   GL1 9577  18.137  40.158   9.101
  488POPC   GL2 9578  18.296  39.912   8.952
  488POPC   C1A 9579  18.398  40.305   8.677
  488POPC   D2A 9580  18.612  40.323   8.266
  488POPC   C3A 9581  18.290  40.281   7.983
  488POPC   C4A 9582  18.064  40.108   7.683
  488POPC   C1B 9583  17.973  39.939   8.654
  488POPC   C2B 9584  18.106  39.826   8.231
  488POPC   C3B 9585  18.534  39.817   8.059
  488POPC   C4B 9586  18.524  39.772   7.631
  489POPC   NC3 9587  35.387   1.612   9.729
  489POPC   PO4 9588  34.960   1.057   9.585
  489POPC   GL1 9589  35.083   1.224   9.198
  489POPC   GL2 9590  35.436   1.366   9.219
  489POPC   C1A 9591  34.995   1.131   8.773
  489POPC   D2A 9592  35.297   1.219   8.452
  489POPC   C3A 9593  35.173   1.080   8.058
  489POPC   C4A 9594  35.471   0.975   7.778
  489POPC   C1B 9595  35.250   1.574   8.845
  489POPC   C2B 9596  34.922   1.594   8.506
  489POPC   C3B 9597  35.046   1.586   8.061
  489POPC   C4B 9598  35.441   1.557   7.804
  490POPC   NC3 9599  26.613  32.691   9.486
  490POPC   PO4 9600  27.067  33.151   9.739
  490POPC   GL1 9601  26.931  33.038   9.231
  490POPC   GL2 9602  26.600  32.890   9.019
  490POPC   C1A 9603  27.045  32.835   8.813
  490POPC   D2A 9604  26.796  32.703   8.461
  490POPC   C3A 9605  27.005  32.793   8.100
  490POPC   C4A 9606  26.895  33.064   7.732
  490POPC   C1B 9607  26.665  33.173   8.653
  490POPC   C2B 9608  26.719  33.199   8.189
  490POPC   C3B 9609  26.452  33.294   7.824
  490POPC   C4B 9610  26.551  33.300   7.386
  491POPC   NC3 9611  32.574  19.937   9.547
  491POPC   PO4 9612  32.335  19.345   9.502
  491POPC   GL1 9613  32.237  19.686   9.226
  491POPC   GL2 9614  31.902  19.656   9.139
  491POPC   C1A 9615  32.448  19.852   8.845
  491POPC   D2A 9616  32.360  20.020   8.393
  491POPC   C3A 9617  32.368  19.713   8.026
  491POPC   C4A 9618  32.658  19.663   7.689
  491POPC   C1B 9619  32.024  19.633   8.690
  491POPC   C2B 9620  31.906  19.744   8.273
  491POPC   C3B 9621  31.888  19.809   7.827
  491POPC   C4B 9622  31.927  20.191   7.612
  492POPC   NC3 9623  28.764  39.966   9.596
  492POPC   PO4 9624  29.477  40.066   9.535
  492POPC   GL1 9625  29.226  40.096   9.177
  492POPC   GL2 9626  28.979  40.302   9.206
  492POPC   C1A 9627  29.072  39.874   8.822
  492POPC   D2A 9628  29.061  39.693   8.412
  492POPC   C3A 9629  29.299  39.809   8.052
  492POPC   C4A 9630  29.484  40.013   7.710
  492POPC   C1B 9631  28.954  40.368   8.751
  492POPC   C2B 9632  29.088  40.209   8.356
  492POPC   C3B 9633  29.173  40.344   7.930
  492POPC   C4B 9634  29.015  40.143   7.554
  493POPC   NC3 9635  42.457  19.409   9.596
  493POPC   PO4 9636  41.869  19.480   9.321
  493POPC   GL1 9637  42.142  19.715   9.060
  493POPC   GL2 9638  42.477  19.703   9.177
  493POPC   C1A 9639  42.234  19.790   8.624
  493POPC   D2A 9640  42.068  19.774   8.190
  493POPC   C3A 9641  42.225  19.553   7.829
  493POPC   C4A 9642  42.087  19.603   7.366
  493POPC   C1B 9643  42.652  20.015   8.924
  493POPC   C2B 9644  42.739  20.059   8.487
  493POPC   C3B 9645  42.696  20.099   8.036
  493POPC   C4B 9646  42.658  19.809   7.702
  494POPC   NC3 9647  13.014  38.184   9.361
  494POPC   PO4 9648  12.771  37.572   9.500
  494POPC   GL1 9649  12.879  37.720   9.131
  494POPC   GL2 9650  13.250  37.774   9.167
  494POPC   C1A 9651  12.698  37.585   8.754
  494POPC   D2A 9652  12.802  37.397   8.393
  494POPC   C3A 9653  12.567  37.621   8.106
  494POPC   C4A 9654  12.692  37.813   7.740
  494POPC   C1B 9655  13.198  37.897   8.770
  494POPC   C2B 9656  12.958  37.897   8.403
  494POPC   C3B 9657  13.129  37.793   8.025
  494POPC   C4B 9658  13.233  38.020   7.676
  495POPC   NC3 9659   1.881  16.441   9.538
  495POPC   PO4 9660   2.064  17.134   9.696
  495POPC   GL1 9661   2.220  16.758   9.326
  495POPC   GL2 9662   1.993  16.565   9.056
  495POPC   C1A 9663   2.347  16.846   8.844
  495POPC   D2A 9664   2.030  16.792   8.524
  495POPC   C3A 9665   2.123  16.763   8.092
  495POPC   C4A 9666   2.243  16.656   7.675
  495POPC   C1B 9667   1.693  16.440   8.720
  495POPC   C2B 9668   1.564  16.643   8.304
  495POPC   C3B 9669   1.659  16.677   7.849
  495POPC   C4B 9670   1.500  16.508   7.452
  496POPC   NC3 9671  18.219  30.296   9.544
  496POPC   PO4 9672  18.352  29.566   9.403
  496POPC   GL1 9673  18.376  29.978   9.147
  496POPC   GL2 9674  18.070  30.205   9.089
  496POPC   C1A 9675  18.409  30.114   8.707
  496POPC   D2A 9676  18.187  30.107   8.321
  496POPC   C3A 9677  18.498  29.970   8.056
  496POPC   C4A 9678  18.615  29.952   7.648
  496POPC   C1B 9679  17.889  30.131   8.748
  496POPC   C2B 9680  17.840  29.765   8.471
  496POPC   C3B 9681  18.049  29.683   8.066
  496POPC   C4B 9682  18.078  30.003   7.753
  497POPC   NC3 9683  28.612  42.796   9.524
  497POPC   PO4 9684  28.511  43.400   9.755
  497POPC   GL1 9685  28.353  43.216   9.315
  497POPC   GL2 9686  28.099  42.908   9.292
  497POPC   C1A 9687  28.427  43.106   8.876
  497POPC   D2A 9688  28.654  42.837   8.577
  497POPC   C3A 9689  28.566  42.930   8.136
  497POPC   C4A 9690  28.391  43.158   7.776
  497POPC   C1B 9691  28.067  42.744   8.838
  497POPC   C2B 9692  28.109  42.895   8.393
  497POPC   C3B 9693  27.976  42.926   7.946
  497POPC   C4B 9694  28.107  42.816   7.498
  498POPC   NC3 9695  43.270  15.695   9.842
  498POPC   PO4 9696  42.708  15.654   9.516
  498POPC   GL1 9697  42.982  15.930   9.178
  498POPC   GL2 9698  43.354  16.038   9.184
  498POPC   C1A 9699  43.084  16.169   8.763
  498POPC   D2A 9700  42.975  16.041   8.340
  498POPC   C3A 9701  42.895  16.261   7.967
  498POPC   C4A 9702  42.958  16.015   7.592
  498POPC   C1B 9703  43.577  15.994   8.783
  498POPC   C2B 9704  43.457  15.898   8.394
  498POPC   C3B 9705  43.360  15.955   7.971
  498POPC   C4B 9706  43.480  16.079   7.563
  499POPC   NC3 9707  34.322  44.838   9.788
  499POPC   PO4 9708  33.620  44.658   9.736
  499POPC   GL1 9709  33.617  44.520   9.277
  499POPC   GL2 9710  33.293  44.357   9.202
  499POPC   C1A 9711  33.864  44.574   8.839
  499POPC   D2A 9712  33.709  44.864   8.503
  499POPC   C3A 9713  33.812  44.772   8.061
  499POPC   C4A 9714  33.802  44.994   7.678
  499POPC   C1B 9715  33.376  44.528   8.764
  499POPC   C2B 9716  33.616  44.384   8.380
  499POPC   C3B 9717  33.442  44.400   7.977
  499POPC   C4B 9718  33.464  44.616   7.620
  500POPC   NC3 9719   6.459  10.570   9.584
  500POPC   PO4 9720   6.509   9.928   9.453
  500POPC   GL1 9721   6.539  10.266   9.158
  500POPC   GL2 9722   6.824  10.490   9.132
  500POPC   C1A 9723   6.474  10.367   8.725
  500POPC   D2A 9724   6.345  10.123   8.345
  500POPC   C3A 9725   6.224  10.369   7.969
  500POPC   C4A 9726   6.389  10.799   7.839
  500POPC   C1B 9727   7.059  10.660   8.745
  500POPC   C2B 9728   7.207  10.803   8.320
  500POPC   C3B 9729   6.882  10.752   8.009
  500POPC   C4B 9730   6.709  10.323   7.898
  501POPC   NC3 9731   1.872  17.574   9.731
  501POPC   PO4 9732   1.237  17.512   9.449
  501POPC   GL1 9733   1.066  17.271   9.143
  501POPC   GL2 9734   0.973  17.569   9.001
  501POPC   C1A 9735   1.269  17.212   8.752
  501POPC   D2A 9736   1.260  17.426   8.364
  501POPC   C3A 9737   1.569  17.433   8.077
  501POPC   C4A 9738   1.495  17.380   7.673
  501POPC   C1B 9739   1.365  17.741   8.751
  501POPC   C2B 9740   1.401  17.908   8.288
  501POPC   C3B 9741   1.158  17.720   7.931
  501POPC   C4B 9742   1.126  17.790   7.468
  502POPC   NC3 9743  23.866  34.519   9.478
  502POPC   PO4 9744  23.254  34.676   9.289
  502POPC   GL1 9745  23.605  34.634   9.050
  502POPC   GL2 9746  23.752  34.969   9.164
  502POPC   C1A 9747  23.595  34.402   8.652
  502POPC   D2A 9748  23.810  34.300   8.271
  502POPC   C3A 9749  23.536  34.433   7.945
  502POPC   C4A 9750  23.389  34.699   7.644
  502POPC   C1B 9751  23.620  35.051   8.736
  502POPC   C2B 9752  23.580  34.809   8.368
  502POPC   C3B 9753  23.851  34.799   8.044
  502POPC   C4B 9754  23.824  34.992   7.678
  503POPC   NC3 9755  33.523  42.459   9.402
  503POPC   PO4 9756  34.168  42.096   9.457
  503POPC   GL1 9757  33.880  42.192   9.119
  503POPC   GL2 9758  33.877  42.565   9.059
  503POPC   C1A 9759  33.723  42.216   8.693
  503POPC   D2A 9760  33.883  42.151   8.265
  503POPC   C3A 9761  33.711  42.396   7.883
  503POPC   C4A 9762  33.654  42.217   7.421
  503POPC   C1B 9763  34.120  42.545   8.683
  503POPC   C2B 9764  34.094  42.616   8.271
  503POPC   C3B 9765  34.201  42.594   7.874
  503POPC   C4B 9766  33.980  42.604   7.495
  504POPC   NC3 9767   9.256   1.029   9.356
  504POPC   PO4 9768   8.704   0.616   9.520
  504POPC   GL1 9769   8.839   0.384   9.152
  504POPC   GL2 9770   9.209   0.484   9.130
  504POPC   C1A 9771   8.703   0.434   8.719
  504POPC   D2A 9772   8.883   0.330   8.329
  504POPC   C3A 9773   8.748   0.101   7.951
  504POPC   C4A 9774   8.765   0.463   7.745
  504POPC   C1B 9775   9.265   0.321   8.698
  504POPC   C2B 9776   9.357   0.495   8.277
  504POPC   C3B 9777   9.301   0.414   7.832
  504POPC   C4B 9778   9.354   0.630   7.391
  505POPC   NC3 9779   5.375  33.393   9.498
  505POPC   PO4 9780   5.178  32.698   9.454
  505POPC   GL1 9781   5.266  32.986   9.153
  505POPC   GL2 9782   4.981  33.162   9.186
  505POPC   C1A 9783   5.322  32.858   8.749
  505POPC   D2A 9784   5.333  32.490   8.504
  505POPC   C3A 9785   5.269  32.696   8.133
  505POPC   C4A 9786   4.997  32.827   7.842
  505POPC   C1B 9787   4.892  33.144   8.756
  505POPC   C2B 9788   4.870  33.047   8.307
  505POPC   C3B 9789   4.961  33.314   7.933
  505POPC   C4B 9790   5.118  33.245   7.534
  506POPC   NC3 9791  21.290  33.998   9.486
  506POPC   PO4 9792  21.631  33.380   9.558
  506POPC   GL1 9793  21.505  33.614   9.204
  506POPC   GL2 9794  21.185  33.463   9.145
  506POPC   C1A 9795  21.369  33.881   8.836
  506POPC   D2A 9796  21.542  33.921   8.383
  506POPC   C3A 9797  21.289  33.905   8.020
  506POPC   C4A 9798  21.262  34.026   7.587
  506POPC   C1B 9799  21.394  33.377   8.747
  506POPC   C2B 9800  21.273  33.440   8.326
  506POPC   C3B 9801  21.465  33.237   7.993
  506POPC   C4B 9802  21.400  33.537   7.699
  507POPC   NC3 9803   1.746  15.773   9.540
  507POPC   PO4 9804   2.217  16.147   9.668
  507POPC   GL1 9805   2.089  16.069   9.229
  507POPC   GL2 9806   1.735  16.110   9.149
  507POPC   C1A 9807   2.091  16.105   8.776
  507POPC   D2A 9808   2.278  15.908   8.427
  507POPC   C3A 9809   2.031  15.769   8.081
  507POPC   C4A 9810   2.190  15.726   7.672
  507POPC   C1B 9811   1.664  15.835   8.806
  507POPC   C2B 9812   1.727  16.011   8.420
  507POPC   C3B 9813   1.589  16.187   8.067
  507POPC   C4B 9814   1.656  15.936   7.748
  508POPC   NC3 9815   4.053  23.508   9.502
  508POPC   PO4 9816   4.772  23.407   9.628
  508POPC   GL1 9817   4.392  23.310   9.195
  508POPC   GL2 9818   4.246  23.604   9.049
  508POPC   C1A 9819   4.486  23.373   8.681
  508POPC   D2A 9820   4.291  23.678   8.373
  508POPC   C3A 9821   4.446  23.684   7.927
  508POPC   C4A 9822   4.453  23.491   7.483
  508POPC   C1B 9823   4.061  23.932   8.851
  508POPC   C2B 9824   3.943  24.058   8.462
  508POPC   C3B 9825   4.154  24.110   8.065
  508POPC   C4B 9826   4.057  23.908   7.679
  509POPC   NC3 9827   9.765  26.422   9.954
  509POPC   PO4 9828   9.682  26.133   9.434
  509POPC   GL1 9829   9.836  26.127   9.071
  509POPC   GL2 9830  10.128  26.303   9.186
  509POPC   C1A 9831   9.725  26.005   8.658
  509POPC   D2A 9832   9.695  25.985   8.203
  509POPC   C3A 9833   9.518  26.262   7.905
  509POPC   C4A 9834   9.611  25.905   7.642
  509POPC   C1B 9835  10.244  26.147   8.790
  509POPC   C2B 9836  10.240  26.325   8.401
  509POPC   C3B 9837   9.962  26.439   8.103
  509POPC   C4B 9838   9.979  26.280   7.714
  510POPC   NC3 9839   0.297  22.081   9.485
  510POPC   PO4 9840   0.640  22.641   9.512
  510POPC   GL1 9841   0.476  22.484   9.160
  510POPC   GL2 9842   0.104  22.444   9.183
  510POPC   C1A 9843   0.693  22.396   8.779
  510POPC   D2A 9844   0.538  22.393   8.351
  510POPC   C3A 9845   0.796  22.344   7.983
  510POPC   C4A 9846   0.781  22.351   7.538
  510POPC   C1B 9847   0.207  22.233   8.801
  510POPC   C2B 9848   0.485  21.930   8.606
  510POPC   C3B 9849   0.570  21.878   8.171
  510POPC   C4B 9850   0.394  22.049   7.800
  511POPC   NC3 9851   8.627  31.858   9.550
  511POPC   PO4 9852   9.012  32.383   9.587
  511POPC   GL1 9853   9.077  32.365   9.156
  511POPC   GL2 9854   8.968  32.030   9.118
  511POPC   C1A 9855   9.170  32.426   8.737
  511POPC   D2A 9856   9.093  32.558   8.294
  511POPC   C3A 9857   9.045  32.204   8.035
  511POPC   C4A 9858   8.645  32.125   7.848
  511POPC   C1B 9859   8.778  32.092   8.697
  511POPC   C2B 9860   8.726  31.850   8.294
  511POPC   C3B 9861   8.947  31.723   7.916
  511POPC   C4B 9862   9.196  31.871   7.554
  512POPC   NC3 9863  28.811   6.399   9.671
  512POPC   PO4 9864  28.154   6.542   9.556
  512POPC   GL1 9865  28.486   6.426   9.268
  512POPC   GL2 9866  28.256   6.336   9.070
  512POPC   C1A 9867  28.689   6.426   8.825
  512POPC   D2A 9868  28.694   6.760   8.476
  512POPC   C3A 9869  28.685   6.628   8.013
  512POPC   C4A 9870  28.481   6.660   7.584
  512POPC   C1B 9871  28.224   6.610   8.747
  512POPC   C2B 9872  28.264   6.498   8.327
  512POPC   C3B 9873  28.054   6.453   7.922
  512POPC   C4B 9874  27.959   6.729   7.593
  513POPC   NC3 9875  14.520  40.080   9.579
  513POPC   PO4 9876  14.189  39.588   9.298
  513POPC   GL1 9877  14.326  39.880   8.995
  513POPC   GL2 9878  14.379  40.213   9.098
  513POPC   C1A 9879  14.423  39.836   8.561
  513POPC   D2A 9880  14.777  39.854   8.252
  513POPC   C3A 9881  14.606  39.791   7.851
  513POPC   C4A 9882  14.120  39.754   7.756
  513POPC   C1B 9883  14.633  40.285   8.716
  513POPC   C2B 9884  14.439  40.270   8.295
  513POPC   C3B 9885  14.317  40.207   7.854
  513POPC   C4B 9886  14.230  40.435   7.482
  514POPC   NC3 9887  16.375  35.021   9.568
  514POPC   PO4 9888  16.727  34.511   9.458
  514POPC   GL1 9889  16.831  34.721   9.147
  514POPC   GL2 9890  16.721  34.496   8.949
  514POPC   C1A 9891  16.832  34.935   8.748
  514POPC   D2A 9892  16.682  34.618   8.447
  514POPC   C3A 9893  16.645  34.879   8.101
  514POPC   C4A 9894  16.700  35.021   7.698
  514POPC   C1B 9895  16.362  34.299   8.819
  514POPC   C2B 9896  16.256  34.238   8.406
  514POPC   C3B 9897  16.488  34.350   8.039
  514POPC   C4B 9898  16.477  34.586   7.690
  515POPC   NC3 9899  34.438  23.435   9.577
  515POPC   PO4 9900  34.430  24.117   9.450
  515POPC   GL1 9901  34.608  23.984   9.080
  515POPC   GL2 9902  34.615  23.659   9.163
  515POPC   C1A 9903  34.580  23.879   8.644
  515POPC   D2A 9904  34.912  23.708   8.392
  515POPC   C3A 9905  34.919  23.810   7.982
  515POPC   C4A 9906  34.574  23.927   7.729
  515POPC   C1B 9907  34.764  23.440   8.829
  515POPC   C2B 9908  34.477  23.381   8.486
  515POPC   C3B 9909  34.435  23.565   8.107
  515POPC   C4B 9910  34.684  23.417   7.770
  516POPC   NC3 9911  12.585  43.590   9.711
  516POPC   PO4 9912  13.029  44.066   9.705
  516POPC   GL1 9913  12.923  44.049   9.270
  516POPC   GL2 9914  12.743  43.728   9.204
  516POPC   C1A 9915  12.900  44.153   8.823
  516POPC   D2A 9916  12.958  43.958   8.396
  516POPC   C3A 9917  12.682  43.700   8.136
  516POPC   C4A 9918  12.653  43.992   7.814
  516POPC   C1B 9919  13.014  43.645   8.813
  516POPC   C2B 9920  13.073  43.436   8.394
  516POPC   C3B 9921  13.162  43.560   7.962
  516POPC   C4B 9922  12.867  43.583   7.609
  517POPC   NC3 9923  23.379  12.715   9.513
  517POPC   PO4 9924  22.696  12.719   9.581
  517POPC   GL1 9925  22.863  12.853   9.208
  517POPC   GL2 9926  23.138  12.974   9.133
  517POPC   C1A 9927  22.740  12.958   8.799
  517POPC   D2A 9928  22.948  12.850   8.467
  517POPC   C3A 9929  22.768  12.910   8.115
  517POPC   C4A 9930  22.794  12.742   7.703
  517POPC   C1B 9931  23.364  12.791   8.799
  517POPC   C2B 9932  23.451  12.882   8.369
  517POPC   C3B 9933  23.274  12.782   7.947
  517POPC   C4B 9934  23.251  12.891   7.502
  518POPC   NC3 9935  43.360   7.212   9.501
  518POPC   PO4 9936  42.641   7.195   9.493
  518POPC   GL1 9937  42.964   7.449   9.254
  518POPC   GL2 9938  43.161   7.262   9.045
  518POPC   C1A 9939  42.910   7.637   8.830
  518POPC   D2A 9940  43.111   7.744   8.456
  518POPC   C3A 9941  43.205   7.441   8.140
  518POPC   C4A 9942  43.068   7.582   7.725
  518POPC   C1B 9943  43.345   7.297   8.657
  518POPC   C2B 9944  43.312   6.971   8.349
  518POPC   C3B 9945  43.416   7.003   7.937
  518POPC   C4B 9946  43.552   7.393   7.755
  519POPC   NC3 9947  43.080  28.058   9.554
  519POPC   PO4 9948  42.700  28.588   9.738
  519POPC   GL1 9949  42.985  28.533   9.329
  519POPC   GL2 9950  43.340  28.663   9.278
  519POPC   C1A 9951  43.084  28.312   8.898
  519POPC   D2A 9952  43.121  28.115   8.453
  519POPC   C3A 9953  42.904  28.292   8.072
  519POPC   C4A 9954  42.854  28.067   7.686
  519POPC   C1B 9955  43.377  28.726   8.820
  519POPC   C2B 9956  43.420  28.530   8.402
  519POPC   C3B 9957  43.263  28.667   7.985
  519POPC   C4B 9958  43.112  28.509   7.587
  520POPC   NC3 9959  24.953  20.746   9.338
  520POPC   PO4 9960  25.333  20.138   9.555
  520POPC   GL1 9961  25.323  20.345   9.157
  520POPC   GL2 9962  25.433  20.692   9.112
  520POPC   C1A 9963  25.450  20.372   8.724
  520POPC   D2A 9964  25.247  20.427   8.359
  520POPC   C3A 9965  25.534  20.555   8.087
  520POPC   C4A 9966  25.650  20.343   7.746
  520POPC   C1B 9967  25.190  20.818   8.758
  520POPC   C2B 9968  25.328  20.936   8.405
  520POPC   C3B 9969  25.099  20.847   8.087
  520POPC   C4B 9970  25.181  20.596   7.719
  521POPC   NC3 9971   0.206  16.681   9.525
  521POPC   PO4 9972   0.825  16.346   9.506
  521POPC   GL1 9973   0.677  16.701   9.217
  521POPC   GL2 9974   0.349  16.832   9.076
  521POPC   C1A 9975   0.761  16.908   8.808
  521POPC   D2A 9976   0.522  16.965   8.412
  521POPC   C3A 9977   0.580  16.734   8.044
  521POPC   C4A 9978   0.696  16.959   7.706
  521POPC   C1B 9979   0.102  16.672   8.770
  521POPC   C2B 9980   0.185  16.590   8.359
  521POPC   C3B 9981   0.038  16.765   7.999
  521POPC   C4B 9982   0.218  16.845   7.599
  522POPC   NC3 9983   7.286  24.476   9.591
  522POPC   PO4 9984   7.735  24.078   9.520
  522POPC   GL1 9985   7.686  24.401   9.184
  522POPC   GL2 9986   7.395  24.617   9.126
  522POPC   C1A 9987   7.835  24.657   8.835
  522POPC   D2A 9988   7.988  24.640   8.396
  522POPC   C3A 9989   7.669  24.628   8.038
  522POPC   C4A 9990   7.319  24.411   7.822
  522POPC   C1B 9991   7.324  24.488   8.726
  522POPC   C2B 9992   7.309  24.705   8.348
  522POPC   C3B 9993   7.054  24.800   7.959
  522POPC   C4B 9994   6.926  24.583   7.556
  523POPC   NC3 9995  39.132  39.828   9.431
  523POPC   PO4 9996  39.646  40.306   9.540
  523POPC   GL1 9997  39.655  40.314   9.094
  523POPC   GL2 9998  39.443  40.039   9.094
  523POPC   C1A 9999  39.568  40.125   8.631
  523POPC   D2A10000  39.414  39.741   8.457
  523POPC   C3A10001  39.370  39.861   8.065
  523POPC   C4A10002  39.498  40.246   7.871
  523POPC   C1B10003  39.080  39.948   8.793
  523POPC   C2B10004  38.915  40.035   8.382
  523POPC   C3B10005  38.980  40.165   7.943
  523POPC   C4B10006  39.047  39.795   7.657
  524POPC   NC310007  24.308   7.986   9.284
  524POPC   PO410008  24.521   7.385   9.491
  524POPC   GL110009  24.720   7.392   9.094
  524POPC   GL210010  24.384   7.536   9.004
  524POPC   C1A10011  24.723   7.500   8.640
  524POPC   D2A10012  24.369   7.483   8.378
  524POPC   C3A10013  24.508   7.355   7.978
  524POPC   C4A10014  24.429   7.205   7.596
  524POPC   C1B10015  24.079   7.265   8.832
  524POPC   C2B10016  24.104   7.016   8.477
  524POPC   C3B10017  24.053   7.142   8.041
  524POPC   C4B10018  23.950   7.319   7.614
  525POPC   NC310019  31.989  38.193   9.430
  525POPC   PO410020  31.317  38.480   9.564
  525POPC   GL110021  31.218  38.656   9.191
  525POPC   GL210022  31.506  38.769   9.097
  525POPC   C1A10023  31.123  38.554   8.771
  525POPC   D2A10024  31.251  38.423   8.362
  525POPC   C3A10025  31.480  38.577   8.020
  525POPC   C4A10026  31.335  38.377   7.662
  525POPC   C1B10027  31.635  38.622   8.690
  525POPC   C2B10028  31.779  38.331   8.370
  525POPC   C3B10029  31.714  38.106   7.966
  525POPC   C4B10030  31.838  38.421   7.676
  526POPC   NC310031   9.563   9.314   9.337
  526POPC   PO410032   9.942   8.867   9.689
  526POPC   GL110033   9.860   8.868   9.217
  526POPC   GL210034  10.103   8.622   9.176
  526POPC   C1A10035   9.776   9.071   8.760
  526POPC   D2A10036   9.906   9.257   8.333
  526POPC   C3A10037   9.806   9.049   7.927
  526POPC   C4A10038   9.554   8.868   7.601
  526POPC   C1B10039   9.946   8.575   8.771
  526POPC   C2B10040   9.907   8.732   8.357
  526POPC   C3B10041   9.841   8.534   7.976
  526POPC   C4B10042  10.006   8.584   7.574
  527POPC   NC310043  14.089  43.795   9.470
  527POPC   PO410044  14.811  43.855   9.486
  527POPC   GL110045  14.506  43.727   9.181
  527POPC   GL210046  14.415  44.073   9.141
  527POPC   C1A10047  14.169  43.794   8.826
  527POPC   D2A10048  13.994  43.625   8.484
  527POPC   C3A10049  14.239  43.683   8.137
  527POPC   C4A10050  14.053  43.649   7.763
  527POPC   C1B10051  14.685  43.973   8.780
  527POPC   C2B10052  14.607  44.131   8.392
  527POPC   C3B10053  14.627  44.000   7.968
  527POPC   C4B10054  14.446  44.010   7.586
  528POPC   NC310055   9.021  31.179   9.311
  528POPC   PO410056   8.567  31.430   9.683
  528POPC   GL110057   8.741  31.564   9.176
  528POPC   GL210058   9.076  31.530   8.936
  528POPC   C1A10059   8.636  31.603   8.745
  528POPC   D2A10060   8.834  31.303   8.472
  528POPC   C3A10061   8.714  31.294   8.061
  528POPC   C4A10062   8.785  31.341   7.642
  528POPC   C1B10063   9.280  31.168   8.709
  528POPC   C2B10064   9.262  31.036   8.263
  528POPC   C3B10065   9.241  31.294   7.891
  528POPC   C4B10066   9.256  31.383   7.434
  529POPC   NC310067  26.797  34.484   9.407
  529POPC   PO410068  26.308  34.955   9.348
  529POPC   GL110069  26.539  34.747   9.014
  529POPC   GL210070  26.628  34.385   8.940
  529POPC   C1A10071  26.548  34.729   8.574
  529POPC   D2A10072  26.879  34.785   8.320
  529POPC   C3A10073  26.845  34.496   8.044
  529POPC   C4A10074  26.453  34.451   7.853
  529POPC   C1B10075  26.827  34.280   8.531
  529POPC   C2B10076  27.121  34.098   8.242
  529POPC   C3B10077  27.288  34.240   7.858
  529POPC   C4B10078  27.038  34.439   7.556
  530POPC   NC310079  37.026  29.689   9.498
  530POPC   PO410080  36.577  29.540   9.031
  530POPC   GL110081  36.905  29.800   9.017
  530POPC   GL210082  36.833  30.081   9.202
  530POPC   C1A10083  37.008  29.942   8.642
  530POPC   D2A10084  36.741  29.911   8.275
  530POPC   C3A10085  36.993  29.908   7.899
  530POPC   C4A10086  36.879  29.695   7.497
  530POPC   C1B10087  36.627  30.211   8.806
  530POPC   C2B10088  36.833  30.386   8.444
  530POPC   C3B10089  36.740  30.353   8.018
  530POPC   C4B10090  36.880  30.274   7.589
  531POPC   NC310091  38.754  32.938   9.436
  531POPC   PO410092  38.330  33.331   9.880
  531POPC   GL110093  38.353  33.265   9.380
  531POPC   GL210094  38.658  33.394   9.229
  531POPC   C1A10095  38.242  33.128   8.898
  531POPC   D2A10096  38.121  32.800   8.556
  531POPC   C3A10097  38.349  32.774   8.145
  531POPC   C4A10098  38.572  32.848   7.733
  531POPC   C1B10099  38.734  33.265   8.806
  531POPC   C2B10100  38.459  33.183   8.433
  531POPC   C3B10101  38.427  33.276   7.999
  531POPC   C4B10102  38.788  33.303   7.753
  532POPC   NC310103   7.861  13.625   9.469
  532POPC   PO410104   8.416  14.052   9.313
  532POPC   GL110105   8.526  13.762   9.020
  532POPC   GL210106   8.250  13.539   9.096
  532POPC   C1A10107   8.396  13.594   8.623
  532POPC   D2A10108   8.504  13.428   8.267
  532POPC   C3A10109   8.423  13.737   7.982
  532POPC   C4A10110   8.502  13.821   7.567
  532POPC   C1B10111   7.987  13.826   8.837
  532POPC   C2B10112   7.934  13.781   8.402
  532POPC   C3B10113   7.917  13.695   7.963
  532POPC   C4B10114   8.095  13.473   7.582
  533POPC   NC310115   0.646  40.099   9.300
  533POPC   PO410116   1.097  39.632   9.585
  533POPC   GL110117   1.059  39.842   9.139
  533POPC   GL210118   1.292  40.130   9.061
  533POPC   C1A10119   0.895  40.025   8.720
  533POPC   D2A10120   1.061  39.890   8.330
  533POPC   C3A10121   1.181  40.002   7.929
  533POPC   C4A10122   1.183  39.609   7.715
  533POPC   C1B10123   1.383  39.890   8.724
  533POPC   C2B10124   1.492  40.169   8.356
  533POPC   C3B10125   1.637  40.284   7.942
  533POPC   C4B10126   1.415  40.263   7.529
  534POPC   NC310127  30.304  25.309   9.447
  534POPC   PO410128  29.712  25.429   9.628
  534POPC   GL110129  29.891  25.518   9.222
  534POPC   GL210130  29.925  25.145   9.144
  534POPC   C1A10131  29.965  25.511   8.770
  534POPC   D2A10132  29.684  25.507   8.417
  534POPC   C3A10133  29.747  25.398   7.994
  534POPC   C4A10134  30.110  25.364   7.806
  534POPC   C1B10135  30.212  25.029   8.814
  534POPC   C2B10136  30.244  24.829   8.437
  534POPC   C3B10137  29.968  24.900   8.085
  534POPC   C4B10138  29.799  24.938   7.677
  535POPC   NC310139  31.068  40.584   9.500
  535POPC   PO410140  31.633  40.906   9.643
  535POPC   GL110141  31.655  40.762   9.170
  535POPC   GL210142  31.465  40.476   9.172
  535POPC   C1A10143  31.662  40.778   8.672
  535POPC   D2A10144  31.608  41.039   8.250
  535POPC   C3A10145  31.614  40.780   7.852
  535POPC   C4A10146  31.604  40.470   7.519
  535POPC   C1B10147  31.178  40.675   8.840
  535POPC   C2B10148  31.169  40.971   8.491
  535POPC   C3B10149  31.129  40.894   8.043
  535POPC   C4B10150  31.132  40.586   7.679
  536POPC   NC310151  10.966  24.532   9.566
  536POPC   PO410152  10.376  24.660   9.507
  536POPC   GL110153  10.454  24.600   9.103
  536POPC   GL210154  10.748  24.435   9.116
  536POPC   C1A10155  10.383  24.555   8.682
  536POPC   D2A10156  10.345  24.261   8.364
  536POPC   C3A10157  10.354  24.579   8.089
  536POPC   C4A10158  10.364  24.506   7.682
  536POPC   C1B10159  10.733  24.206   8.758
  536POPC   C2B10160  10.838  24.396   8.373
  536POPC   C3B10161  10.769  24.281   7.954
  536POPC   C4B10162  10.682  24.127   7.535
  537POPC   NC310163  11.437  34.747   9.804
  537POPC   PO410164  11.170  34.225   9.540
  537POPC   GL110165  11.159  34.435   9.170
  537POPC   GL210166  11.493  34.474   9.149
  537POPC   C1A10167  11.070  34.476   8.739
  537POPC   D2A10168  11.254  34.777   8.498
  537POPC   C3A10169  11.116  34.834   8.106
  537POPC   C4A10170  11.247  34.776   7.720
  537POPC   C1B10171  11.645  34.498   8.760
  537POPC   C2B10172  11.581  34.388   8.354
  537POPC   C3B10173  11.614  34.557   7.967
  537POPC   C4B10174  11.652  34.391   7.544
  538POPC   NC310175   5.975  22.667   9.450
  538POPC   PO410176   5.692  23.316   9.358
  538POPC   GL110177   5.793  22.968   9.088
  538POPC   GL210178   5.580  22.625   9.147
  538POPC   C1A10179   5.739  23.093   8.689
  538POPC   D2A10180   5.992  23.191   8.415
  538POPC   C3A10181   5.941  22.923   8.114
  538POPC   C4A10182   5.832  23.035   7.719
  538POPC   C1B10183   5.734  22.558   8.763
  538POPC   C2B10184   5.593  22.661   8.380
  538POPC   C3B10185   5.506  22.707   7.962
  538POPC   C4B10186   5.878  22.525   7.738
  539POPC   NC310187  10.403  44.893   9.488
  539POPC   PO410188  10.571  44.206   9.500
  539POPC   GL110189  10.761  44.469   9.162
  539POPC   GL210190  10.887  44.828   9.233
  539POPC   C1A10191  10.643  44.486   8.713
  539POPC   D2A10192  10.452  44.814   8.452
  539POPC   C3A10193  10.170  44.771   8.136
  539POPC   C4A10194  10.325  44.657   7.743
  539POPC   C1B10195  10.754   0.007   8.820
  539POPC   C2B10196  10.774   0.198   8.391
  539POPC   C3B10197  10.614   0.033   7.974
  539POPC   C4B10198  10.806  44.869   7.593
  540POPC   NC310199  18.003  24.315   9.421
  540POPC   PO410200  18.121  24.912   9.584
  540POPC   GL110201  18.217  24.681   9.142
  540POPC   GL210202  18.347  24.322   9.054
  540POPC   C1A10203  18.101  24.618   8.686
  540POPC   D2A10204  17.940  24.655   8.243
  540POPC   C3A10205  18.287  24.754   7.938
  540POPC   C4A10206  18.302  24.782   7.484
  540POPC   C1B10207  18.139  24.102   8.692
  540POPC   C2B10208  18.241  24.233   8.252
  540POPC   C3B10209  18.173  24.252   7.782
  540POPC   C4B10210  18.015  24.133   7.330
  541POPC   NC310211   0.758  27.544   9.490
  541POPC   PO410212   0.243  27.283   9.876
  541POPC   GL110213   0.358  27.271   9.389
  541POPC   GL210214   0.149  27.362   9.173
  541POPC   C1A10215   0.588  27.344   8.909
  541POPC   D2A10216   0.718  27.325   8.444
  541POPC   C3A10217   0.758  27.516   7.989
  541POPC   C4A10218   0.703  27.251   7.600
  541POPC   C1B10219   0.132  27.545   8.770
  541POPC   C2B10220   0.182  27.405   8.342
  541POPC   C3B10221   0.295  27.718   8.054
  541POPC   C4B10222   0.136  27.795   7.667
  542POPC   NC310223   5.441   3.784   9.502
  542POPC   PO410224   6.069   3.558   9.463
  542POPC   GL110225   5.926   3.385   9.098
  542POPC   GL210226   5.598   3.451   9.091
  542POPC   C1A10227   6.111   3.367   8.715
  542POPC   D2A10228   6.043   3.140   8.373
  542POPC   C3A10229   5.650   3.168   8.166
  542POPC   C4A10230   5.899   3.245   7.796
  542POPC   C1B10231   5.612   3.399   8.643
  542POPC   C2B10232   5.827   3.614   8.326
  542POPC   C3B10233   5.798   3.748   7.899
  542POPC   C4B10234   6.104   4.069   7.776
  543POPC   NC310235  19.022  40.892   9.520
  543POPC   PO410236  19.016  40.216   9.521
  543POPC   GL110237  19.053  40.480   9.138
  543POPC   GL210238  19.314  40.752   9.156
  543POPC   C1A10239  18.894  40.485   8.697
  543POPC   D2A10240  18.758  40.805   8.384
  543POPC   C3A10241  18.995  40.808   8.010
  543POPC   C4A10242  18.955  40.690   7.577
  543POPC   C1B10243  19.092  40.923   8.832
  543POPC   C2B10244  19.284  40.849   8.438
  543POPC   C3B10245  19.479  41.045   8.089
  543POPC   C4B10246  19.311  41.046   7.689
  544POPC   NC310247  35.778  33.634   9.450
  544POPC   PO410248  35.218  33.879   9.604
  544POPC   GL110249  35.278  33.993   9.184
  544POPC   GL210250  35.646  34.000   9.112
  544POPC   C1A10251  35.274  33.774   8.790
  544POPC   D2A10252  35.427  33.560   8.415
  544POPC   C3A10253  35.181  33.574   8.060
  544POPC   C4A10254  35.300  33.875   7.736
  544POPC   C1B10255  35.766  33.641   8.797
  544POPC   C2B10256  35.957  33.694   8.383
  544POPC   C3B10257  35.737  33.800   8.029
  544POPC   C4B10258  35.645  33.457   7.836
  545POPC   NC310259  26.281  17.750   9.544
  545POPC   PO410260  25.899  17.152   9.612
  545POPC   GL110261  25.841  17.376   9.202
  545POPC   GL210262  25.796  17.745   9.298
  545POPC   C1A10263  26.104  17.447   8.820
  545POPC   D2A10264  26.328  17.533   8.408
  545POPC   C3A10265  26.032  17.494   8.085
  545POPC   C4A10266  26.048  17.377   7.724
  545POPC   C1B10267  25.694  17.765   8.868
  545POPC   C2B10268  25.859  17.759   8.481
  545POPC   C3B10269  26.063  17.999   8.163
  545POPC   C4B10270  25.968  17.883   7.705
  546POPC   NC310271  20.624  40.931   9.433
  546POPC   PO410272  20.331  40.251   9.529
  546POPC   GL110273  20.340  40.524   9.170
  546POPC   GL210274  20.681  40.551   9.117
  546POPC   C1A10275  20.376  40.810   8.787
  546POPC   D2A10276  20.347  41.109   8.420
  546POPC   C3A10277  20.418  40.892   8.037
  546POPC   C4A10278  20.318  40.762   7.631
  546POPC   C1B10279  20.906  40.726   8.802
  546POPC   C2B10280  20.817  40.857   8.411
  546POPC   C3B10281  20.942  40.904   8.026
  546POPC   C4B10282  20.813  40.928   7.606
  547POPC   NC310283  17.146  29.700   9.376
  547POPC   PO410284  17.722  30.073   9.443
  547POPC   GL110285  17.460  30.009   9.081
  547POPC   GL210286  17.554  29.655   9.039
  547POPC   C1A10287  17.427  30.048   8.608
  547POPC   D2A10288  17.670  30.241   8.295
  547POPC   C3A10289  17.627  29.969   7.991
  547POPC   C4A10290  17.455  30.187   7.718
  547POPC   C1B10291  17.294  29.553   8.684
  547POPC   C2B10292  17.352  29.626   8.275
  547POPC   C3B10293  17.113  29.634   7.918
  547POPC   C4B10294  17.203  29.763   7.519
  548POPC   NC310295   5.999   2.081   9.869
  548POPC   PO410296   5.638   1.801   9.473
  548POPC   GL110297   5.729   2.018   9.133
  548POPC   GL210298   5.523   2.300   9.203
  548POPC   C1A10299   5.695   1.848   8.710
  548POPC   D2A10300   6.033   1.689   8.440
  548POPC   C3A10301   6.131   1.917   8.063
  548POPC   C4A10302   6.086   2.320   7.904
  548POPC   C1B10303   5.755   2.364   8.782
  548POPC   C2B10304   5.841   2.196   8.360
  548POPC   C3B10305   5.641   1.993   7.976
  548POPC   C4B10306   5.590   1.800   7.567
  549POPC   NC310307  22.591  12.250   9.569
  549POPC   PO410308  23.088  11.805   9.470
  549POPC   GL110309  22.987  12.060   9.173
  549POPC   GL210310  23.027  12.382   9.311
  549POPC   C1A10311  23.055  11.988   8.752
  549POPC   D2A10312  22.861  12.032   8.376
  549POPC   C3A10313  23.085  11.904   8.034
  549POPC   C4A10314  22.960  11.797   7.642
  549POPC   C1B10315  22.964  12.481   8.870
  549POPC   C2B10316  23.187  12.418   8.471
  549POPC   C3B10317  22.949  12.428   8.092
  549POPC   C4B10318  23.037  12.300   7.683
  550POPC   NC310319   1.930  12.236   9.607
  550POPC   PO410320   1.691  11.569   9.516
  550POPC   GL110321   2.045  11.724   9.221
  550POPC   GL210322   2.048  12.079   9.151
  550POPC   C1A10323   2.189  11.779   8.762
  550POPC   D2A10324   1.950  12.024   8.467
  550POPC   C3A10325   2.023  12.043   8.078
  550POPC   C4A10326   1.767  12.048   7.737
  550POPC   C1B10327   2.192  12.292   8.817
  550POPC   C2B10328   2.394  12.322   8.439
  550POPC   C3B10329   2.387  12.394   8.037
  550POPC   C4B10330   2.075  12.478   7.782
  551POPC   NC310331  11.990  17.330   9.308
  551POPC   PO410332  12.409  17.808   9.545
  551POPC   GL110333  12.254  17.743   9.136
  551POPC   GL210334  12.412  17.960   8.927
  551POPC   C1A10335  12.224  17.534   8.708
  551POPC   D2A10336  12.277  17.674   8.272
  551POPC   C3A10337  11.967  17.518   8.020
  551POPC   C4A10338  11.938  17.171   7.786
  551POPC   C1B10339  11.944  17.948   8.782
  551POPC   C2B10340  11.727  18.023   8.421
  551POPC   C3B10341  11.940  18.053   8.074
  551POPC   C4B10342  12.218  17.918   7.797
  552POPC   NC310343   6.379  37.523   9.679
  552POPC   PO410344   5.709  37.479   9.848
  552POPC   GL110345   5.934  37.573   9.419
  552POPC   GL210346   5.665  37.598   9.226
  552POPC   C1A10347   6.079  37.687   8.935
  552POPC   D2A10348   6.084  37.971   8.559
  552POPC   C3A10349   6.085  37.847   8.115
  552POPC   C4A10350   5.927  37.684   7.723
  552POPC   C1B10351   5.588  37.744   8.810
  552POPC   C2B10352   5.362  37.757   8.434
  552POPC   C3B10353   5.500  37.760   8.020
  552POPC   C4B10354   5.475  37.861   7.592
  553POPC   NC310355  31.991  11.462   9.293
  553POPC   PO410356  32.485  10.972   9.427
  553POPC   GL110357  32.338  11.120   9.064
  553POPC   GL210358  32.008  10.974   9.106
  553POPC   C1A10359  32.442  11.355   8.664
  553POPC   D2A10360  32.645  11.335   8.252
  553POPC   C3A10361  32.479  11.227   7.831
  553POPC   C4A10362  32.376  10.983   7.437
  553POPC   C1B10363  31.987  11.136   8.684
  553POPC   C2B10364  32.124  11.177   8.268
  553POPC   C3B10365  32.003  11.409   7.942
  553POPC   C4B10366  32.075  11.381   7.511
  554POPC   NC310367  43.559  34.770   9.648
  554POPC   PO410368  44.240  34.614   9.509
  554POPC   GL110369  43.989  34.654   9.146
  554POPC   GL210370  43.763  34.356   9.160
  554POPC   C1A10371  43.990  34.694   8.686
  554POPC   D2A10372  43.816  34.951   8.403
  554POPC   C3A10373  43.978  34.763   8.061
  554POPC   C4A10374  44.083  34.646   7.650
  554POPC   C1B10375  44.077  34.231   8.835
  554POPC   C2B10376  43.928  34.259   8.400
  554POPC   C3B10377  44.031  34.239   7.980
  554POPC   C4B10378  43.803  34.229   7.617
  555POPC   NC310379  33.936  41.674   9.432
  555POPC   PO410380  33.506  41.223   9.440
  555POPC   GL110381  33.651  41.447   9.062
  555POPC   GL210382  33.978  41.281   9.028
  555POPC   C1A10383  33.940  41.733   8.787
  555POPC   D2A10384  34.085  41.659   8.376
  555POPC   C3A10385  33.747  41.651   8.123
  555POPC   C4A10386  33.730  41.904   7.804
  555POPC   C1B10387  33.833  41.255   8.610
  555POPC   C2B10388  33.615  41.174   8.225
  555POPC   C3B10389  33.691  41.212   7.795
  555POPC   C4B10390  33.855  41.232   7.404
  556POPC   NC310391  39.732  34.278   9.419
  556POPC   PO410392  39.191  34.684   9.536
  556POPC   GL110393  39.323  34.511   9.189
  556POPC   GL210394  39.560  34.771   9.176
  556POPC   C1A10395  39.136  34.548   8.804
  556POPC   D2A10396  38.862  34.696   8.495
  556POPC   C3A10397  39.033  34.531   8.149
  556POPC   C4A10398  39.021  34.679   7.749
  556POPC   C1B10399  39.673  34.574   8.796
  556POPC   C2B10400  39.475  34.516   8.404
  556POPC   C3B10401  39.522  34.714   8.004
  556POPC   C4B10402  39.561  34.598   7.541
  557POPC   NC310403  34.156  43.275   9.493
  557POPC   PO410404  33.602  42.919   9.401
  557POPC   GL110405  33.614  43.031   9.017
  557POPC   GL210406  33.893  43.234   9.064
  557POPC   C1A10407  33.698  42.856   8.625
  557POPC   D2A10408  33.868  43.065   8.274
  557POPC   C3A10409  33.776  42.934   7.864
  557POPC   C4A10410  33.389  43.144   7.740
  557POPC   C1B10411  33.762  43.388   8.676
  557POPC   C2B10412  33.839  43.584   8.292
  557POPC   C3B10413  33.864  43.453   7.882
  557POPC   C4B10414  34.215  43.533   7.630
  558POPC   NC310415  44.944  36.157   9.591
  558POPC   PO410416  44.417  35.596   9.436
  558POPC   GL110417  44.517  35.839   9.067
  558POPC   GL210418  44.620  36.141   9.201
  558POPC   C1A10419  44.809  35.941   8.750
  558POPC   D2A10420  44.753  36.076   8.341
  558POPC   C3A10421  44.909  36.425   8.102
  558POPC   C4A10422  44.875  36.261   7.685
  558POPC   C1B10423  44.431  36.356   8.872
  558POPC   C2B10424  44.490  36.519   8.468
  558POPC   C3B10425  44.396  36.362   8.081
  558POPC   C4B10426  44.517  36.611   7.732
  559POPC   NC310427  43.234  35.335   9.584
  559POPC   PO410428  42.777  34.943   9.317
  559POPC   GL110429  43.012  35.324   9.118
  559POPC   GL210430  43.414  35.416   9.123
  559POPC   C1A10431  42.988  35.357   8.701
  559POPC   D2A10432  42.712  35.292   8.365
  559POPC   C3A10433  42.956  35.245   8.042
  559POPC   C4A10434  43.078  35.571   7.838
  559POPC   C1B10435  43.502  35.198   8.769
  559POPC   C2B10436  43.307  35.065   8.398
  559POPC   C3B10437  43.450  35.005   7.997
  559POPC   C4B10438  43.215  35.091   7.625
  560POPC   NC310439   3.236  41.927   9.507
  560POPC   PO410440   3.838  41.544   9.660
  560POPC   GL110441   3.774  41.576   9.207
  560POPC   GL210442   3.459  41.535   9.098
  560POPC   C1A10443   3.834  41.663   8.733
  560POPC   D2A10444   3.842  41.885   8.305
  560POPC   C3A10445   3.782  41.716   7.894
  560POPC   C4A10446   3.853  41.356   7.608
  560POPC   C1B10447   3.235  41.801   8.810
  560POPC   C2B10448   3.392  41.702   8.425
  560POPC   C3B10449   3.292  41.606   8.013
  560POPC   C4B10450   2.930  41.680   7.776
  561POPC   NC310451  32.107   1.493   9.511
  561POPC   PO410452  32.661   1.133   9.283
  561POPC   GL110453  32.395   1.336   9.023
  561POPC   GL210454  32.150   1.126   9.155
  561POPC   C1A10455  32.361   1.365   8.550
  561POPC   D2A10456  32.413   0.995   8.283
  561POPC   C3A10457  32.227   1.179   7.943
  561POPC   C4A10458  32.360   1.532   7.725
  561POPC   C1B10459  32.101   0.990   8.742
  561POPC   C2B10460  31.912   1.144   8.356
  561POPC   C3B10461  31.817   0.868   8.000
  561POPC   C4B10462  31.906   0.909   7.581
  562POPC   NC310463  43.239   9.372   9.433
  562POPC   PO410464  42.638   9.672   9.450
  562POPC   GL110465  42.962   9.755   9.182
  562POPC   GL210466  43.012  10.102   9.300
  562POPC   C1A10467  43.051   9.674   8.749
  562POPC   D2A10468  43.171   9.592   8.330
  562POPC   C3A10469  43.043   9.757   7.944
  562POPC   C4A10470  42.763  10.012   7.757
  562POPC   C1B10471  42.881  10.147   8.854
  562POPC   C2B10472  43.173  10.190   8.528
  562POPC   C3B10473  43.381  10.059   8.197
  562POPC   C4B10474  43.368  10.138   7.759
  563POPC   NC310475  34.021   8.326   9.441
  563POPC   PO410476  33.644   7.804   9.532
  563POPC   GL110477  33.832   7.947   9.170
  563POPC   GL210478  33.620   8.220   9.128
  563POPC   C1A10479  34.014   8.055   8.777
  563POPC   D2A10480  33.812   8.127   8.392
  563POPC   C3A10481  33.938   7.974   8.023
  563POPC   C4A10482  34.193   8.287   7.884
  563POPC   C1B10483  33.624   8.450   8.747
  563POPC   C2B10484  33.702   8.662   8.372
  563POPC   C3B10485  33.725   8.458   7.971
  563POPC   C4B10486  33.834   8.449   7.518
  564POPC   NC310487   2.825  40.625   9.616
  564POPC   PO410488   2.342  41.001   9.366
  564POPC   GL110489   2.726  40.812   9.158
  564POPC   GL210490   3.096  40.949   9.256
  564POPC   C1A10491   2.671  40.666   8.756
  564POPC   D2A10492   2.433  40.819   8.396
  564POPC   C3A10493   2.615  40.843   8.003
  564POPC   C4A10494   2.768  40.512   7.768
  564POPC   C1B10495   3.173  40.798   8.828
  564POPC   C2B10496   3.000  40.783   8.382
  564POPC   C3B10497   3.181  40.701   7.984
  564POPC   C4B10498   3.303  40.629   7.546
  565POPC   NC310499  16.358  38.859   9.541
  565POPC   PO410500  16.976  38.460   9.418
  565POPC   GL110501  16.630  38.389   9.162
  565POPC   GL210502  16.284  38.363   9.250
  565POPC   C1A10503  16.722  38.394   8.747
  565POPC   D2A10504  16.994  38.486   8.416
  565POPC   C3A10505  16.805  38.534   8.002
  565POPC   C4A10506  16.730  38.838   7.674
  565POPC   C1B10507  16.230  38.582   8.845
  565POPC   C2B10508  16.348  38.459   8.416
  565POPC   C3B10509  16.317  38.281   8.016
  565POPC   C4B10510  16.392  38.460   7.606
  566POPC   NC310511  37.912  19.878   9.521
  566POPC   PO410512  37.582  20.403   9.331
  566POPC   GL110513  37.751  20.071   9.019
  566POPC   GL210514  37.908  19.727   9.046
  566POPC   C1A10515  37.886  19.972   8.593
  566POPC   D2A10516  37.954  19.597   8.367
  566POPC   C3A10517  37.855  19.693   7.967
  566POPC   C4A10518  37.807  20.021   7.707
  566POPC   C1B10519  37.566  19.616   8.738
  566POPC   C2B10520  37.463  19.765   8.296
  566POPC   C3B10521  37.359  19.778   7.827
  566POPC   C4B10522  37.497  19.731   7.385
  567POPC   NC310523  39.376  18.526   9.492
  567POPC   PO410524  38.921  17.997   9.509
  567POPC   GL110525  39.172  18.059   9.130
  567POPC   GL210526  39.310  18.367   9.024
  567POPC   C1A10527  39.338  17.796   8.798
  567POPC   D2A10528  39.468  17.686   8.380
  567POPC   C3A10529  39.421  18.087   8.168
  567POPC   C4A10530  39.229  18.268   7.823
  567POPC   C1B10531  38.967  18.503   8.801
  567POPC   C2B10532  39.021  18.417   8.366
  567POPC   C3B10533  38.854  18.587   8.011
  567POPC   C4B10534  38.825  18.454   7.587
  568POPC   NC310535   0.485  14.960   9.546
  568POPC   PO410536   1.132  14.530   9.570
  568POPC   GL110537   1.118  14.345   9.164
  568POPC   GL210538   0.755  14.426   9.100
  568POPC   C1A10539   1.436  14.292   8.845
  568POPC   D2A10540   1.583  14.405   8.452
  568POPC   C3A10541   1.249  14.543   8.180
  568POPC   C4A10542   1.203  14.686   7.767
  568POPC   C1B10543   0.750  14.070   8.815
  568POPC   C2B10544   0.994  14.174   8.463
  568POPC   C3B10545   1.069  14.047   8.036
  568POPC   C4B10546   1.103  14.174   7.608
  569POPC   NC310547  11.825  25.395   9.760
  569POPC   PO410548  11.206  25.217   9.531
  569POPC   GL110549  11.265  25.377   9.118
  569POPC   GL210550  11.575  25.303   8.964
  569POPC   C1A10551  11.152  25.260   8.683
  569POPC   D2A10552  11.282  25.445   8.257
  569POPC   C3A10553  11.018  25.258   7.928
  569POPC   C4A10554  11.146  24.970   7.568
  569POPC   C1B10555  11.476  24.869   8.749
  569POPC   C2B10556  11.432  24.960   8.323
  569POPC   C3B10557  11.521  25.106   7.916
  569POPC   C4B10558  11.622  24.783   7.631
  570POPC   NC310559  18.558   0.848   9.364
  570POPC   PO410560  18.132   0.256   9.379
  570POPC   GL110561  18.307   0.465   9.093
  570POPC   GL210562  18.009   0.557   8.935
  570POPC   C1A10563  18.514   0.515   8.719
  570POPC   D2A10564  18.711   0.652   8.356
  570POPC   C3A10565  18.411   0.659   8.080
  570POPC   C4A10566  18.260   0.310   7.934
  570POPC   C1B10567  17.898   0.209   8.709
  570POPC   C2B10568  17.981   0.070   8.283
  570POPC   C3B10569  17.769   0.198   7.883
  570POPC   C4B10570  17.865   0.132   7.414
  571POPC   NC310571  21.470  17.100   9.623
  571POPC   PO410572  20.995  17.466   9.458
  571POPC   GL110573  21.218  17.501   9.086
  571POPC   GL210574  21.573  17.366   9.183
  571POPC   C1A10575  21.066  17.467   8.653
  571POPC   D2A10576  20.915  17.353   8.243
  571POPC   C3A10577  21.197  17.507   7.912
  571POPC   C4A10578  21.171  17.898   7.624
  571POPC   C1B10579  21.497  17.179   8.789
  571POPC   C2B10580  21.676  16.976   8.433
  571POPC   C3B10581  21.536  17.123   8.054
  571POPC   C4B10582  21.633  17.192   7.660
  572POPC   NC310583  13.898   6.992   9.755
  572POPC   PO410584  13.844   6.326   9.728
  572POPC   GL110585  13.812   6.506   9.274
  572POPC   GL210586  13.526   6.746   9.297
  572POPC   C1A10587  13.653   6.408   8.814
  572POPC   D2A10588  13.533   6.652   8.453
  572POPC   C3A10589  13.717   6.648   8.031
  572POPC   C4A10590  13.571   6.374   7.708
  572POPC   C1B10591  13.571   6.934   8.894
  572POPC   C2B10592  13.272   7.065   8.580
  572POPC   C3B10593  13.224   7.021   8.129
  572POPC   C4B10594  13.445   7.177   7.753
  573POPC   NC310595  44.544  43.328   9.565
  573POPC   PO410596  44.465  42.719   9.408
  573POPC   GL110597  44.643  43.088   9.122
  573POPC   GL210598  44.459  43.435   9.079
  573POPC   C1A10599  44.921  43.215   8.789
  573POPC   D2A10600  44.962  42.982   8.412
  573POPC   C3A10601   0.013  43.166   8.034
  573POPC   C4A10602  44.888  43.125   7.618
  573POPC   C1B10603  44.411  43.236   8.672
  573POPC   C2B10604  44.104  43.160   8.341
  573POPC   C3B10605  44.211  43.093   7.876
  573POPC   C4B10606  44.292  43.324   7.444
  574POPC   NC310607  19.804  30.324   9.397
  574POPC   PO410608  19.994  30.999   9.492
  574POPC   GL110609  19.923  30.798   9.118
  574POPC   GL210610  19.608  30.662   9.069
  574POPC   C1A10611  19.869  30.873   8.676
  574POPC   D2A10612  19.711  31.081   8.335
  574POPC   C3A10613  19.798  30.852   7.976
  574POPC   C4A10614  20.125  30.764   7.717
  574POPC   C1B10615  19.625  30.423   8.688
  574POPC   C2B10616  19.509  30.587   8.331
  574POPC   C3B10617  19.415  30.474   7.932
  574POPC   C4B10618  19.803  30.386   7.759
  575POPC   NC310619  10.598  23.433   9.427
  575POPC   PO410620  10.780  24.111   9.507
  575POPC   GL110621  10.812  23.835   9.161
  575POPC   GL210622  10.472  23.840   9.052
  575POPC   C1A10623  10.830  23.710   8.716
  575POPC   D2A10624  10.959  23.847   8.291
  575POPC   C3A10625  10.685  23.768   7.938
  575POPC   C4A10626  10.312  24.022   7.874
  575POPC   C1B10627  10.217  23.871   8.662
  575POPC   C2B10628  10.070  23.736   8.233
  575POPC   C3B10629  10.261  23.479   7.913
  575POPC   C4B10630  10.619  23.338   7.638
  576POPC   NC310631  27.451  32.965   9.563
  576POPC   PO410632  28.092  32.685   9.604
  576POPC   GL110633  27.774  32.768   9.187
  576POPC   GL210634  27.452  32.962   9.082
  576POPC   C1A10635  27.728  32.882   8.688
  576POPC   D2A10636  27.698  33.163   8.348
  576POPC   C3A10637  27.698  32.966   7.973
  576POPC   C4A10638  27.914  33.137   7.668
  576POPC   C1B10639  27.407  33.263   8.749
  576POPC   C2B10640  27.171  33.171   8.437
  576POPC   C3B10641  27.250  33.247   8.053
  576POPC   C4B10642  27.389  33.270   7.668
  577POPC   NC310643  29.974  22.634   9.285
  577POPC   PO410644  29.757  22.156   9.755
  577POPC   GL110645  29.712  22.114   9.268
  577POPC   GL210646  29.503  22.403   9.209
  577POPC   C1A10647  29.939  21.931   8.843
  577POPC   D2A10648  30.063  21.746   8.411
  577POPC   C3A10649  29.899  21.865   8.027
  577POPC   C4A10650  30.036  22.068   7.638
  577POPC   C1B10651  29.600  22.422   8.762
  577POPC   C2B10652  29.973  22.343   8.482
  577POPC   C3B10653  30.032  22.365   8.050
  577POPC   C4B10654  29.744  22.478   7.693
  578POPC   NC310655  37.691  15.511   9.497
  578POPC   PO410656  37.867  16.186   9.656
  578POPC   GL110657  37.875  15.946   9.263
  578POPC   GL210658  37.556  15.985   9.047
  578POPC   C1A10659  37.971  15.744   8.862
  578POPC   D2A10660  37.699  15.746   8.478
  578POPC   C3A10661  37.905  15.741   8.069
  578POPC   C4A10662  37.852  15.576   7.677
  578POPC   C1B10663  37.828  16.219   8.712
  578POPC   C2B10664  37.808  16.217   8.242
  578POPC   C3B10665  37.526  16.100   7.890
  578POPC   C4B10666  37.405  15.879   7.497
  579POPC   NC310667   5.433  39.837   9.464
  579POPC   PO410668   4.822  40.232   9.429
  579POPC   GL110669   4.941  40.035   9.095
  579POPC   GL210670   5.298  40.150   9.058
  579POPC   C1A10671   4.872  40.174   8.694
  579POPC   D2A10672   4.870  39.979   8.293
  579POPC   C3A10673   5.208  40.150   8.055
  579POPC   C4A10674   4.974  40.414   7.818
  579POPC   C1B10675   5.305  39.842   8.748
  579POPC   C2B10676   5.294  39.692   8.343
  579POPC   C3B10677   5.488  39.733   7.952
  579POPC   C4B10678   5.272  39.635   7.581
  580POPC   NC310679  41.807  11.110   9.644
  580POPC   PO410680  42.487  11.368   9.564
  580POPC   GL110681  42.180  11.244   9.254
  580POPC   GL210682  42.139  11.552   9.062
  580POPC   C1A10683  42.306  11.139   8.831
  580POPC   D2A10684  42.207  11.098   8.402
  580POPC   C3A10685  42.500  11.352   8.147
  580POPC   C4A10686  42.503  11.282   7.722
  580POPC   C1B10687  42.381  11.693   8.713
  580POPC   C2B10688  42.497  11.906   8.320
  580POPC   C3B10689  42.396  11.794   7.883
  580POPC   C4B10690  41.980  11.739   7.746
  581POPC   NC310691  38.764  40.658   9.371
  581POPC   PO410692  38.110  40.888   9.539
  581POPC   GL110693  38.317  40.812   9.161
  581POPC   GL210694  38.341  40.419   9.201
  581POPC   C1A10695  38.441  41.003   8.757
  581POPC   D2A10696  38.709  41.027   8.364
  581POPC   C3A10697  38.530  41.058   7.938
  581POPC   C4A10698  38.082  41.060   7.837
  581POPC   C1B10699  38.461  40.505   8.777
  581POPC   C2B10700  38.198  40.665   8.461
  581POPC   C3B10701  38.336  40.632   8.083
  581POPC   C4B10702  38.478  40.305   7.835
  582POPC   NC310703  18.320  28.574   9.434
  582POPC   PO410704  18.476  27.844   9.436
  582POPC   GL110705  18.345  28.131   9.110
  582POPC   GL210706  18.067  28.393   9.042
  582POPC   C1A10707  18.363  28.176   8.676
  582POPC   D2A10708  18.695  28.155   8.377
  582POPC   C3A10709  18.531  28.250   8.001
  582POPC   C4A10710  18.148  28.160   7.848
  582POPC   C1B10711  18.291  28.679   8.748
  582POPC   C2B10712  18.419  28.618   8.345
  582POPC   C3B10713  18.206  28.661   7.939
  582POPC   C4B10714  17.797  28.752   7.711
  583POPC   NC310715   7.786  35.569   9.455
  583POPC   PO410716   7.371  34.989   9.399
  583POPC   GL110717   7.262  35.306   9.092
  583POPC   GL210718   7.279  35.665   9.078
  583POPC   C1A10719   7.144  35.162   8.721
  583POPC   D2A10720   7.443  35.106   8.443
  583POPC   C3A10721   7.314  35.337   8.130
  583POPC   C4A10722   7.367  35.293   7.737
  583POPC   C1B10723   7.588  35.510   8.753
  583POPC   C2B10724   7.828  35.464   8.361
  583POPC   C3B10725   7.753  35.581   7.946
  583POPC   C4B10726   7.416  35.782   7.781
  584POPC   NC310727  41.138  20.544   9.413
  584POPC   PO410728  41.812  20.373   9.490
  584POPC   GL110729  41.611  20.656   9.171
  584POPC   GL210730  41.953  20.736   9.106
  584POPC   C1A10731  41.347  20.532   8.761
  584POPC   D2A10732  41.246  20.264   8.379
  584POPC   C3A10733  41.373  20.448   8.007
  584POPC   C4A10734  41.338  20.916   7.973
  584POPC   C1B10735  41.855  20.564   8.731
  584POPC   C2B10736  41.651  20.706   8.353
  584POPC   C3B10737  41.831  20.671   7.944
  584POPC   C4B10738  41.929  20.492   7.554
  585POPC   NC310739  43.147  32.545   9.706
  585POPC   PO410740  43.146  33.191   9.576
  585POPC   GL110741  43.375  33.085   9.216
  585POPC   GL210742  43.485  32.742   9.339
  585POPC   C1A10743  43.326  33.112   8.732
  585POPC   D2A10744  43.161  33.465   8.440
  585POPC   C3A10745  43.211  33.422   7.994
  585POPC   C4A10746  42.859  33.233   7.744
  585POPC   C1B10747  43.172  32.684   8.982
  585POPC   C2B10748  43.130  32.639   8.534
  585POPC   C3B10749  43.360  32.932   8.238
  585POPC   C4B10750  43.381  32.997   7.797
  586POPC   NC310751   1.135  35.054   9.484
  586POPC   PO410752   1.195  35.701   9.718
  586POPC   GL110753   1.238  35.508   9.246
  586POPC   GL210754   1.492  35.215   9.169
  586POPC   C1A10755   1.153  35.305   8.806
  586POPC   D2A10756   1.269  35.342   8.388
  586POPC   C3A10757   1.018  35.348   8.023
  586POPC   C4A10758   1.200  35.533   7.640
  586POPC   C1B10759   1.621  35.058   8.787
  586POPC   C2B10760   1.649  35.019   8.347
  586POPC   C3B10761   1.471  35.066   7.922
  586POPC   C4B10762   1.497  34.748   7.587
  587POPC   NC310763  28.714  44.970   9.284
  587POPC   PO410764  28.611  44.392   9.677
  587POPC   GL110765  28.472  44.416   9.225
  587POPC   GL210766  28.257  44.662   9.175
  587POPC   C1A10767  28.525  44.415   8.762
  587POPC   D2A10768  28.375  44.260   8.359
  587POPC   C3A10769  28.482  44.436   7.957
  587POPC   C4A10770  28.703  44.780   7.758
  587POPC   C1B10771  28.164  44.778   8.749
  587POPC   C2B10772  28.352  44.770   8.336
  587POPC   C3B10773  28.234  44.901   7.927
  587POPC   C4B10774  28.322   0.005   7.504
  588POPC   NC310775  17.434  43.735   9.529
  588POPC   PO410776  17.657  44.417   9.645
  588POPC   GL110777  17.570  44.153   9.298
  588POPC   GL210778  17.198  44.070   9.216
  588POPC   C1A10779  17.557  44.016   8.864
  588POPC   D2A10780  17.297  44.087   8.529
  588POPC   C3A10781  17.434  44.288   8.116
  588POPC   C4A10782  17.591  44.050   7.747
  588POPC   C1B10783  17.192  43.658   8.942
  588POPC   C2B10784  17.230  43.587   8.490
  588POPC   C3B10785  17.269  43.800   8.088
  588POPC   C4B10786  17.318  43.634   7.669
  589POPC   NC310787   3.086  44.461   9.610
  589POPC   PO410788   3.741  44.725   9.621
  589POPC   GL110789   3.521  44.764   9.241
  589POPC   GL210790   3.351  44.456   9.179
  589POPC   C1A10791   3.537  44.971   8.850
  589POPC   D2A10792   3.611   0.106   8.428
  589POPC   C3A10793   3.409  44.885   8.130
  589POPC   C4A10794   3.487  44.679   7.763
  589POPC   C1B10795   3.525  44.426   8.778
  589POPC   C2B10796   3.501  44.417   8.344
  589POPC   C3B10797   3.607  44.233   7.965
  589POPC   C4B10798   3.396  44.168   7.584
  590POPC   NC310799  34.837  34.102   9.472
  590POPC   PO410800  34.807  33.448   9.358
  590POPC   GL110801  34.820  33.753   9.082
  590POPC   GL210802  34.510  33.906   9.143
  590POPC   C1A10803  34.818  33.983   8.713
  590POPC   D2A10804  35.074  34.026   8.338
  590POPC   C3A10805  34.834  33.938   7.956
  590POPC   C4A10806  34.815  33.677   7.576
  590POPC   C1B10807  34.341  34.163   8.815
  590POPC   C2B10808  34.221  34.011   8.440
  590POPC   C3B10809  34.362  34.128   8.068
  590POPC   C4B10810  34.383  33.894   7.718
  591POPC   NC310811  36.812   2.968   9.578
  591POPC   PO410812  37.166   2.408   9.390
  591POPC   GL110813  36.952   2.592   9.116
  591POPC   GL210814  37.038   2.922   9.116
  591POPC   C1A10815  36.690   2.593   8.761
  591POPC   D2A10816  36.700   2.819   8.352
  591POPC   C3A10817  36.743   2.564   7.990
  591POPC   C4A10818  37.110   2.442   7.757
  591POPC   C1B10819  36.910   3.080   8.744
  591POPC   C2B10820  37.068   3.199   8.326
  591POPC   C3B10821  37.041   3.024   7.886
  591POPC   C4B10822  37.092   2.889   7.450
  592POPC   NC310823   2.609  36.309   9.562
  592POPC   PO410824   2.787  35.847   9.239
  592POPC   GL110825   2.915  36.259   9.115
  592POPC   GL210826   2.586  36.338   9.025
  592POPC   C1A10827   2.968  36.261   8.678
  592POPC   D2A10828   2.763  35.865   8.522
  592POPC   C3A10829   2.746  35.789   8.089
  592POPC   C4A10830   2.845  36.079   7.801
  592POPC   C1B10831   2.483  36.313   8.584
  592POPC   C2B10832   2.390  36.165   8.216
  592POPC   C3B10833   2.423  36.418   7.871
  592POPC   C4B10834   2.296  36.333   7.491
  593POPC   NC310835  15.296   0.571   9.378
  593POPC   PO410836  15.071   1.259   9.563
  593POPC   GL110837  15.080   1.423   9.155
  593POPC   GL210838  15.027   1.071   9.070
  593POPC   C1A10839  15.165   1.360   8.696
  593POPC   D2A10840  15.038   1.132   8.335
  593POPC   C3A10841  15.323   1.279   8.063
  593POPC   C4A10842  15.284   1.505   7.682
  593POPC   C1B10843  14.761   0.903   8.701
  593POPC   C2B10844  14.745   0.634   8.374
  593POPC   C3B10845  14.824   0.740   7.962
  593POPC   C4B10846  14.945   1.105   7.788
  594POPC   NC310847  15.616  22.117   9.452
  594POPC   PO410848  16.316  22.090   9.442
  594POPC   GL110849  16.024  22.234   9.123
  594POPC   GL210850  15.739  22.465   9.129
  594POPC   C1A10851  16.033  22.190   8.696
  594POPC   D2A10852  16.027  21.868   8.408
  594POPC   C3A10853  16.006  22.041   8.017
  594POPC   C4A10854  16.416  22.040   7.830
  594POPC   C1B10855  15.536  22.277   8.760
  594POPC   C2B10856  15.644  22.370   8.340
  594POPC   C3B10857  15.473  22.383   7.935
  594POPC   C4B10858  15.824  22.351   7.662
  595POPC   NC310859  24.555  34.812   9.488
  595POPC   PO410860  24.159  34.252   9.248
  595POPC   GL110861  24.408  34.520   9.077
  595POPC   GL210862  24.194  34.736   9.143
  595POPC   C1A10863  24.468  34.504   8.656
  595POPC   D2A10864  24.276  34.556   8.282
  595POPC   C3A10865  24.630  34.489   8.062
  595POPC   C4A10866  24.788  34.538   7.677
  595POPC   C1B10867  24.010  34.720   8.732
  595POPC   C2B10868  24.103  35.025   8.415
  595POPC   C3B10869  24.321  35.011   8.011
  595POPC   C4B10870  24.249  34.631   7.758
  596POPC   NC310871  30.526  40.944   9.787
  596POPC   PO410872  30.976  41.022   9.370
  596POPC   GL110873  30.648  40.762   9.257
  596POPC   GL210874  30.582  41.015   9.036
  596POPC   C1A10875  30.678  40.514   8.874
  596POPC   D2A10876  30.742  40.704   8.466
  596POPC   C3A10877  30.811  40.477   8.070
  596POPC   C4A10878  30.634  40.588   7.647
  596POPC   C1B10879  30.338  41.272   8.752
  596POPC   C2B10880  30.367  41.096   8.368
  596POPC   C3B10881  30.555  40.940   8.034
  596POPC   C4B10882  30.354  41.175   7.754
  597POPC   NC310883  21.965  31.951   9.689
  597POPC   PO410884  22.162  32.545   9.571
  597POPC   GL110885  22.046  32.242   9.262
  597POPC   GL210886  22.359  32.267   9.102
  597POPC   C1A10887  21.929  32.204   8.820
  597POPC   D2A10888  21.934  32.355   8.405
  597POPC   C3A10889  22.099  32.132   8.083
  597POPC   C4A10890  21.991  32.283   7.694
  597POPC   C1B10891  22.436  31.988   8.812
  597POPC   C2B10892  22.449  32.207   8.455
  597POPC   C3B10893  22.614  32.337   8.079
  597POPC   C4B10894  22.480  32.194   7.716
  598POPC   NC310895  39.677  15.202   9.444
  598POPC   PO410896  40.052  15.692   9.565
  598POPC   GL110897  40.127  15.386   9.251
  598POPC   GL210898  40.291  15.577   9.090
  598POPC   C1A10899  40.103  15.157   8.834
  598POPC   D2A10900  39.841  15.094   8.461
  598POPC   C3A10901  39.927  14.831   8.089
  598POPC   C4A10902  39.806  14.915   7.648
  598POPC   C1B10903  40.473  15.541   8.731
  598POPC   C2B10904  40.200  15.488   8.414
  598POPC   C3B10905  40.053  15.333   8.041
  598POPC   C4B10906  40.281  15.228   7.720
  599POPC   NC310907  32.886  17.182   9.557
  599POPC   PO410908  33.316  17.711   9.471
  599POPC   GL110909  33.265  17.373   9.246
  599POPC   GL210910  32.959  17.500   9.149
  599POPC   C1A10911  33.329  17.408   8.822
  599POPC   D2A10912  33.186  17.644   8.496
  599POPC   C3A10913  33.166  17.457   8.141
  599POPC   C4A10914  33.195  17.536   7.696
  599POPC   C1B10915  32.833  17.377   8.759
  599POPC   C2B10916  32.685  17.547   8.388
  599POPC   C3B10917  32.714  17.561   7.946
  599POPC   C4B10918  32.743  17.390   7.522
  600POPC   NC310919   2.962   6.183   9.210
  600POPC   PO410920   2.836   5.692   9.665
  600POPC   GL110921   2.652   5.726   9.186
  600POPC   GL210922   2.495   6.053   9.081
  600POPC   C1A10923   2.727   5.831   8.702
  600POPC   D2A10924   2.996   6.174   8.557
  600POPC   C3A10925   3.038   6.275   8.090
  600POPC   C4A10926   3.061   5.930   7.791
  600POPC   C1B10927   2.481   6.299   8.701
  600POPC   C2B10928   2.531   6.243   8.244
  600POPC   C3B10929   2.429   6.090   7.810
  600POPC   C4B10930   2.323   6.161   7.343
  601POPC   NC310931  31.398  10.394   9.717
  601POPC   PO410932  31.126  10.971   9.475
  601POPC   GL110933  31.331  10.794   9.088
  601POPC   GL210934  31.535  10.504   9.168
  601POPC   C1A10935  31.257  10.540   8.732
  601POPC   D2A10936  31.339  10.709   8.361
  601POPC   C3A10937  31.256  10.566   7.965
  601POPC   C4A10938  31.457  10.796   7.609
  601POPC   C1B10939  31.732  10.690   8.753
  601POPC   C2B10940  31.796  10.526   8.303
  601POPC   C3B10941  31.740  10.463   7.844
  601POPC   C4B10942  31.763  10.370   7.393
  602POPC   NC310943   7.803  42.354   9.635
  602POPC   PO410944   8.404  42.725   9.571
  602POPC   GL110945   8.101  42.572   9.269
  602POPC   GL210946   8.158  42.207   9.276
  602POPC   C1A10947   8.007  42.488   8.853
  602POPC   D2A10948   8.162  42.229   8.540
  602POPC   C3A10949   8.016  42.244   8.121
  602POPC   C4A10950   7.884  42.207   7.704
  602POPC   C1B10951   8.464  42.073   8.958
  602POPC   C2B10952   8.632  42.032   8.535
  602POPC   C3B10953   8.523  42.136   8.126
  602POPC   C4B10954   8.366  42.048   7.738
  603POPC   NC310955   4.211  15.529   9.612
  603POPC   PO410956   4.274  16.192   9.588
  603POPC   GL110957   4.375  16.103   9.135
  603POPC   GL210958   4.313  15.765   9.155
  603POPC   C1A10959   4.505  16.187   8.686
  603POPC   D2A10960   4.271  16.092   8.296
  603POPC   C3A10961   4.474  16.079   7.891
  603POPC   C4A10962   4.241  16.339   7.617
  603POPC   C1B10963   4.149  15.837   8.737
  603POPC   C2B10964   4.507  15.675   8.469
  603POPC   C3B10965   4.602  15.553   8.059
  603POPC   C4B10966   4.264  15.614   7.761
  604POPC   NC310967  11.043  41.251   9.496
  604POPC   PO410968  11.691  41.523   9.417
  604POPC   GL110969  11.521  41.528   9.031
  604POPC   GL210970  11.201  41.599   9.162
  604POPC   C1A10971  11.469  41.371   8.600
  604POPC   D2A10972  11.704  41.412   8.206
  604POPC   C3A10973  11.538  41.524   7.773
  604POPC   C4A10974  11.423  41.282   7.371
  604POPC   C1B10975  11.082  41.717   8.770
  604POPC   C2B10976  11.102  41.662   8.349
  604POPC   C3B10977  11.070  41.799   7.927
  604POPC   C4B10978  10.982  41.609   7.553
  605POPC   NC310979  13.029  11.557   9.435
  605POPC   PO410980  13.118  10.850   9.424
  605POPC   GL110981  12.965  11.137   9.136
  605POPC   GL210982  12.658  11.282   9.122
  605POPC   C1A10983  13.006  11.283   8.709
  605POPC   D2A10984  12.757  11.242   8.349
  605POPC   C3A10985  12.945  11.274   7.961
  605POPC   C4A10986  13.009  11.167   7.533
  605POPC   C1B10987  12.567  11.534   8.757
  605POPC   C2B10988  12.854  11.725   8.449
  605POPC   C3B10989  12.744  11.752   8.026
  605POPC   C4B10990  12.748  11.606   7.619
  606POPC   NC310991  25.233   6.503   9.546
  606POPC   PO410992  25.848   6.595   9.380
  606POPC   GL110993  25.479   6.764   9.143
  606POPC   GL210994  25.084   6.720   9.115
  606POPC   C1A10995  25.408   6.738   8.720
  606POPC   D2A10996  25.492   6.478   8.389
  606POPC   C3A10997  25.702   6.628   8.033
  606POPC   C4A10998  25.524   6.429   7.685
  606POPC   C1B10999  24.857   6.628   8.753
  606POPC   C2B11000  24.980   6.639   8.352
  606POPC   C3B11001  25.187   6.661   7.997
  606POPC   C4B11002  25.126   6.736   7.579
  607POPC   NC311003  40.270  11.950   9.487
  607POPC   PO411004  39.728  12.487   9.515
  607POPC   GL111005  39.959  12.265   9.197
  607POPC   GL211006  39.933  11.903   9.137
  607POPC   C1A11007  40.073  12.224   8.760
  607POPC   D2A11008  39.780  12.274   8.422
  607POPC   C3A11009  39.965  12.344   8.024
  607POPC   C4A11010  40.216  12.044   7.804
  607POPC   C1B11011  40.002  11.644   8.784
  607POPC   C2B11012  40.064  11.613   8.348
  607POPC   C3B11013  39.821  11.832   8.037
  607POPC   C4B11014  39.801  11.719   7.603
  608POPC   NC311015   3.168  21.274   9.582
  608POPC   PO411016   3.906  21.299   9.639
  608POPC   GL111017   3.730  21.205   9.229
  608POPC   GL211018   3.451  21.421   9.150
  608POPC   C1A11019   3.791  21.341   8.799
  608POPC   D2A11020   3.534  21.283   8.441
  608POPC   C3A11021   3.750  21.399   8.059
  608POPC   C4A11022   3.869  21.448   7.600
  608POPC   C1B11023   3.366  21.677   8.756
  608POPC   C2B11024   3.339  21.879   8.333
  608POPC   C3B11025   3.174  21.741   7.918
  608POPC   C4B11026   2.997  21.698   7.486
  609POPC   NC311027  28.685  15.446   9.427
  609POPC   PO411028  28.197  15.105   9.672
  609POPC   GL111029  28.154  15.104   9.213
  609POPC   GL211030  28.199  15.436   9.181
  609POPC   C1A11031  28.335  14.933   8.788
  609POPC   D2A11032  28.510  14.944   8.343
  609POPC   C3A11033  28.172  14.935   8.036
  609POPC   C4A11034  27.771  14.867   7.843
  609POPC   C1B11035  28.403  15.447   8.777
  609POPC   C2B11036  28.250  15.399   8.351
  609POPC   C3B11037  28.417  15.379   7.929
  609POPC   C4B11038  28.660  15.413   7.508
  610POPC   NC311039  14.203  12.810   9.519
  610POPC   PO411040  14.546  13.363   9.500
  610POPC   GL111041  14.548  12.984   9.190
  610POPC   GL211042  14.734  12.673   9.229
  610POPC   C1A11043  14.329  12.767   8.838
  610POPC   D2A11044  14.301  13.010   8.451
  610POPC   C3A11045  14.190  12.887   8.045
  610POPC   C4A11046  14.366  12.960   7.649
  610POPC   C1B11047  14.776  12.533   8.787
  610POPC   C2B11048  14.589  12.584   8.369
  610POPC   C3B11049  14.680  12.602   7.925
  610POPC   C4B11050  14.593  12.520   7.488
  611POPC   NC311051  28.630  41.117   9.506
  611POPC   PO411052  28.577  40.407   9.515
  611POPC   GL111053  28.596  40.621   9.084
  611POPC   GL211054  28.625  40.996   9.025
  611POPC   C1A11055  28.571  40.694   8.629
  611POPC   D2A11056  28.540  41.015   8.303
  611POPC   C3A11057  28.461  40.828   7.927
  611POPC   C4A11058  28.676  40.439   7.808
  611POPC   C1B11059  28.283  41.112   8.736
  611POPC   C2B11060  28.091  40.809   8.415
  611POPC   C3B11061  27.963  40.708   7.990
  611POPC   C4B11062  27.996  40.980   7.623
  612POPC   NC311063  16.297   1.904   9.495
  612POPC   PO411064  16.835   2.103   9.787
  612POPC   GL111065  16.807   2.108   9.342
  612POPC   GL211066  16.794   1.778   9.317
  612POPC   C1A11067  16.841   2.273   8.917
  612POPC   D2A11068  16.623   2.151   8.527
  612POPC   C3A11069  16.668   2.169   8.089
  612POPC   C4A11070  16.917   2.159   7.709
  612POPC   C1B11071  16.559   1.837   8.919
  612POPC   C2B11072  16.661   1.634   8.548
  612POPC   C3B11073  16.603   1.659   8.133
  612POPC   C4B11074  16.471   1.857   7.748
  613POPC   NC311075   8.731   3.960   9.472
  613POPC   PO411076   9.079   4.499   9.562
  613POPC   GL111077   8.810   4.425   9.231
  613POPC   GL211078   9.022   4.161   9.087
  613POPC   C1A11079   8.743   4.613   8.835
  613POPC   D2A11080   8.907   4.538   8.423
  613POPC   C3A11081   8.616   4.649   8.093
  613POPC   C4A11082   8.733   4.641   7.664
  613POPC   C1B11083   8.775   4.083   8.711
  613POPC   C2B11084   8.628   4.123   8.268
  613POPC   C3B11085   8.915   4.241   7.955
  613POPC   C4B11086   9.174   3.959   7.696
  614POPC   NC311087  22.455  17.011   9.772
  614POPC   PO411088  21.860  16.904   9.480
  614POPC   GL111089  22.104  17.153   9.207
  614POPC   GL211090  22.373  17.445   9.126
  614POPC   C1A11091  21.997  17.292   8.817
  614POPC   D2A11092  22.263  17.392   8.492
  614POPC   C3A11093  22.054  17.235   8.139
  614POPC   C4A11094  22.083  17.454   7.765
  614POPC   C1B11095  22.538  17.733   8.762
  614POPC   C2B11096  22.544  17.771   8.290
  614POPC   C3B11097  22.585  17.754   7.840
  614POPC   C4B11098  22.544  18.049   7.505
  615POPC   NC311099   9.884   8.397   9.572
  615POPC   PO411100  10.609   8.350   9.587
  615POPC   GL111101  10.430   8.234   9.204
  615POPC   GL211102  10.311   7.890   9.171
  615POPC   C1A11103  10.458   8.462   8.824
  615POPC   D2A11104  10.521   8.313   8.413
  615POPC   C3A11105  10.348   8.498   8.048
  615POPC   C4A11106  10.450   8.386   7.642
  615POPC   C1B11107  10.610   7.936   8.808
  615POPC   C2B11108  10.633   7.798   8.367
  615POPC   C3B11109  10.619   8.022   7.980
  615POPC   C4B11110  10.507   7.894   7.579
  616POPC   NC311111  20.885  39.134   9.522
  616POPC   PO411112  20.270  39.297   9.474
  616POPC   GL111113  20.456  39.252   9.081
  616POPC   GL211114  20.810  39.181   9.026
  616POPC   C1A11115  20.513  39.458   8.690
  616POPC   D2A11116  20.818  39.494   8.373
  616POPC   C3A11117  20.607  39.426   8.017
  616POPC   C4A11118  20.403  39.074   7.860
  616POPC   C1B11119  20.979  39.075   8.622
  616POPC   C2B11120  20.778  38.956   8.231
  616POPC   C3B11121  20.911  39.036   7.807
  616POPC   C4B11122  20.963  39.060   7.360
  617POPC   NC311123  20.100  17.059   9.456
  617POPC   PO411124  19.741  16.502   9.596
  617POPC   GL111125  19.700  16.800   9.280
  617POPC   GL211126  20.003  16.645   9.146
  617POPC   C1A11127  19.651  16.920   8.855
  617POPC   D2A11128  19.617  16.886   8.399
  617POPC   C3A11129  19.819  16.673   8.083
  617POPC   C4A11130  19.766  16.804   7.687
  617POPC   C1B11131  20.185  16.899   8.822
  617POPC   C2B11132  20.159  16.852   8.401
  617POPC   C3B11133  20.190  17.010   7.957
  617POPC   C4B11134  20.204  17.055   7.479
  618POPC   NC311135  43.416  24.262   9.610
  618POPC   PO411136  42.796  24.522   9.464
  618POPC   GL111137  43.105  24.378   9.219
  618POPC   GL211138  43.251  24.703   9.208
  618POPC   C1A11139  43.184  24.198   8.803
  618POPC   D2A11140  43.521  24.139   8.470
  618POPC   C3A11141  43.352  24.173   8.058
  618POPC   C4A11142  43.009  24.099   7.776
  618POPC   C1B11143  42.929  24.653   8.833
  618POPC   C2B11144  42.770  24.435   8.466
  618POPC   C3B11145  42.935  24.523   8.058
  618POPC   C4B11146  42.864  24.700   7.657
  619POPC   NC311147   5.690  18.563   9.543
  619POPC   PO411148   5.807  17.908   9.353
  619POPC   GL111149   5.702  18.222   9.131
  619POPC   GL211150   6.010  18.423   9.188
  619POPC   C1A11151   5.557  18.237   8.701
  619POPC   D2A11152   5.882  18.328   8.364
  619POPC   C3A11153   5.827  18.200   7.949
  619POPC   C4A11154   5.984  18.450   7.628
  619POPC   C1B11155   6.119  18.264   8.808
  619POPC   C2B11156   6.420  18.224   8.489
  619POPC   C3B11157   6.323  18.162   8.067
  619POPC   C4B11158   6.425  18.125   7.645
  620POPC   NC311159   6.430  16.576   9.437
  620POPC   PO411160   6.822  17.123   9.574
  620POPC   GL111161   6.581  17.028   9.191
  620POPC   GL211162   6.790  16.751   9.137
  620POPC   C1A11163   6.447  16.804   8.791
  620POPC   D2A11164   6.434  16.950   8.400
  620POPC   C3A11165   6.472  16.687   8.082
  620POPC   C4A11166   6.748  16.703   7.803
  620POPC   C1B11167   6.994  16.966   8.836
  620POPC   C2B11168   6.942  17.071   8.419
  620POPC   C3B11169   7.115  16.970   8.060
  620POPC   C4B11170   7.065  17.091   7.678
  621POPC   NC311171  23.578  24.177   9.360
  621POPC   PO411172  24.001  24.734   9.503
  621POPC   GL111173  24.007  24.396   9.165
  621POPC   GL211174  23.761  24.547   9.065
  621POPC   C1A11175  23.977  24.200   8.748
  621POPC   D2A11176  23.832  24.291   8.314
  621POPC   C3A11177  24.014  24.253   7.909
  621POPC   C4A11178  23.857  24.449   7.492
  621POPC   C1B11179  23.693  24.683   8.696
  621POPC   C2B11180  23.458  24.622   8.367
  621POPC   C3B11181  23.601  24.683   7.967
  621POPC   C4B11182  23.387  24.579   7.603
  622POPC   NC311183  12.730  39.334   9.557
  622POPC   PO411184  13.296  39.611   9.510
  622POPC   GL111185  12.989  39.434   9.140
  622POPC   GL211186  12.823  39.045   9.145
  622POPC   C1A11187  12.919  39.311   8.711
  622POPC   D2A11188  13.176  39.260   8.356
  622POPC   C3A11189  12.982  39.489   8.027
  622POPC   C4A11190  12.809  39.210   7.725
  622POPC   C1B11191  12.621  38.871   8.743
  622POPC   C2B11192  12.725  38.948   8.309
  622POPC   C3B11193  12.679  38.727   7.893
  622POPC   C4B11194  12.625  38.814   7.465
  623POPC   NC311195  33.620  22.901   9.841
  623POPC   PO411196  34.081  23.159   9.465
  623POPC   GL111197  33.903  22.886   9.165
  623POPC   GL211198  33.595  23.011   9.128
  623POPC   C1A11199  33.771  22.722   8.733
  623POPC   D2A11200  33.673  22.879   8.304
  623POPC   C3A11201  33.937  22.749   7.932
  623POPC   C4A11202  34.342  22.620   7.738
  623POPC   C1B11203  33.582  23.237   8.696
  623POPC   C2B11204  33.500  23.380   8.232
  623POPC   C3B11205  33.542  23.116   7.850
  623POPC   C4B11206  33.544  22.759   7.576
  624POPC   NC311207  10.855  25.526   9.554
  624POPC   PO411208  10.250  25.380   9.424
  624POPC   GL111209  10.515  25.094   9.241
  624POPC   GL211210  10.773  25.275   9.139
  624POPC   C1A11211  10.507  25.040   8.798
  624POPC   D2A11212  10.358  25.290   8.487
  624POPC   C3A11213  10.498  25.114   8.134
  624POPC   C4A11214  10.310  24.995   7.765
  624POPC   C1B11215  10.711  25.534   8.811
  624POPC   C2B11216  10.806  25.491   8.390
  624POPC   C3B11217  10.590  25.614   8.073
  624POPC   C4B11218  10.547  25.437   7.714
  625POPC   NC311219  25.150  26.552   9.771
  625POPC   PO411220  25.451  26.946   9.267
  625POPC   GL111221  25.480  26.841   8.889
  625POPC   GL211222  25.695  26.615   8.957
  625POPC   C1A11223  25.274  26.804   8.489
  625POPC   D2A11224  25.193  26.613   8.095
  625POPC   C3A11225  25.055  26.890   7.763
  625POPC   C4A11226  24.914  27.021   7.348
  625POPC   C1B11227  25.768  26.637   8.523
  625POPC   C2B11228  25.725  26.970   8.258
  625POPC   C3B11229  25.551  26.953   7.898
  625POPC   C4B11230  25.568  26.517   7.751
  626POPC   NC311231  44.725  12.826   9.720
  626POPC   PO411232  44.957  13.418   9.453
  626POPC   GL111233  44.717  13.085   9.229
  626POPC   GL211234  44.853  12.739   9.244
  626POPC   C1A11235  44.512  12.898   8.858
  626POPC   D2A11236  44.494  13.002   8.416
  626POPC   C3A11237  44.380  12.658   8.120
  626POPC   C4A11238  44.441  12.835   7.699
  626POPC   C1B11239  44.951  12.579   8.854
  626POPC   C2B11240  44.789  12.586   8.447
  626POPC   C3B11241  44.859  12.831   8.055
  626POPC   C4B11242  44.915  12.656   7.662
  627POPC   NC311243   8.007   1.550   9.656
  627POPC   PO411244   8.373   2.096   9.442
  627POPC   GL111245   8.303   1.703   9.233
  627POPC   GL211246   8.541   1.423   9.353
  627POPC   C1A11247   8.141   1.746   8.791
  627POPC   D2A11248   8.211   1.808   8.342
  627POPC   C3A11249   8.146   2.152   8.061
  627POPC   C4A11250   7.806   1.942   7.915
  627POPC   C1B11251   8.524   1.411   8.899
  627POPC   C2B11252   8.438   1.383   8.486
  627POPC   C3B11253   8.496   1.407   8.057
  627POPC   C4B11254   8.296   1.720   7.815
  628POPC   NC311255  43.584   8.996   9.632
  628POPC   PO411256  43.589   9.457   9.151
  628POPC   GL111257  43.552   8.968   9.093
  628POPC   GL211258  43.865   8.819   9.251
  628POPC   C1A11259  43.483   8.698   8.687
  628POPC   D2A11260  43.314   8.729   8.233
  628POPC   C3A11261  43.628   8.951   7.949
  628POPC   C4A11262  43.952   9.295   8.028
  628POPC   C1B11263  44.010   8.737   8.832
  628POPC   C2B11264  43.895   8.812   8.403
  628POPC   C3B11265  44.027   8.650   8.046
  628POPC   C4B11266  44.080   8.900   7.717
  629POPC   NC311267  14.214   9.250   9.432
  629POPC   PO411268  14.707   8.724   9.531
  629POPC   GL111269  14.445   8.703   9.156
  629POPC   GL211270  14.500   9.035   9.045
  629POPC   C1A11271  14.212   8.742   8.758
  629POPC   D2A11272  14.357   8.905   8.390
  629POPC   C3A11273  14.302   8.725   8.010
  629POPC   C4A11274  14.606   8.892   7.789
  629POPC   C1B11275  14.204   9.280   8.775
  629POPC   C2B11276  14.043   9.379   8.376
  629POPC   C3B11277  14.204   9.237   8.010
  629POPC   C4B11278  14.211   9.194   7.592
  630POPC   NC311279   0.792  17.622   9.508
  630POPC   PO411280   0.263  17.171   9.467
  630POPC   GL111281   0.513  17.315   9.163
  630POPC   GL211282   0.389  17.630   9.184
  630POPC   C1A11283   0.347  17.267   8.773
  630POPC   D2A11284   0.368  17.475   8.358
  630POPC   C3A11285   0.336  17.217   7.980
  630POPC   C4A11286   0.243  17.374   7.568
  630POPC   C1B11287   0.549  17.727   8.792
  630POPC   C2B11288   0.805  17.377   8.576
  630POPC   C3B11289   0.815  17.340   8.124
  630POPC   C4B11290   0.601  17.663   7.874
  631POPC   NC311291  36.210  16.390   9.596
  631POPC   PO411292  36.091  15.765   9.494
  631POPC   GL111293  36.108  16.037   9.201
  631POPC   GL211294  35.868  16.282   9.241
  631POPC   C1A11295  36.134  15.936   8.799
  631POPC   D2A11296  36.128  15.704   8.437
  631POPC   C3A11297  36.142  15.908   8.027
  631POPC   C4A11298  36.327  16.263   7.829
  631POPC   C1B11299  35.914  16.400   8.818
  631POPC   C2B11300  35.984  16.247   8.397
  631POPC   C3B11301  35.848  16.346   7.967
  631POPC   C4B11302  35.845  16.285   7.491
  632POPC   NC311303  19.552  23.856   9.473
  632POPC   PO411304  20.137  23.645   9.586
  632POPC   GL111305  19.957  23.697   9.176
  632POPC   GL211306  19.675  23.450   9.159
  632POPC   C1A11307  19.798  23.824   8.761
  632POPC   D2A11308  19.525  23.662   8.419
  632POPC   C3A11309  19.596  23.859   7.995
  632POPC   C4A11310  19.672  23.915   7.517
  632POPC   C1B11311  19.933  23.329   8.813
  632POPC   C2B11312  19.808  23.215   8.400
  632POPC   C3B11313  19.891  23.319   7.987
  632POPC   C4B11314  19.692  23.435   7.649
  633POPC   NC311315  19.348  16.255   9.532
  633POPC   PO411316  18.965  16.869   9.519
  633POPC   GL111317  19.116  16.719   9.124
  633POPC   GL211318  18.759  16.680   9.098
  633POPC   C1A11319  19.260  16.640   8.678
  633POPC   D2A11320  19.403  16.434   8.280
  633POPC   C3A11321  19.321  16.742   7.955
  633POPC   C4A11322  19.314  16.922   7.529
  633POPC   C1B11323  18.778  16.499   8.744
  633POPC   C2B11324  18.903  16.389   8.359
  633POPC   C3B11325  18.798  16.558   7.995
  633POPC   C4B11326  18.968  16.538   7.632
  634POPC   NC311327   6.698   6.659   9.784
  634POPC   PO411328   6.181   7.094   9.624
  634POPC   GL111329   6.180   6.955   9.090
  634POPC   GL211330   6.340   6.591   8.994
  634POPC   C1A11331   6.358   6.953   8.656
  634POPC   D2A11332   6.625   6.917   8.314
  634POPC   C3A11333   6.474   6.598   8.053
  634POPC   C4A11334   6.353   6.585   7.648
  634POPC   C1B11335   6.778   6.677   8.769
  634POPC   C2B11336   7.075   6.663   8.416
  634POPC   C3B11337   6.977   6.448   8.062
  634POPC   C4B11338   6.877   6.548   7.667
  635POPC   NC311339   5.882   3.144   9.548
  635POPC   PO411340   5.780   2.497   9.788
  635POPC   GL111341   5.720   2.754   9.296
  635POPC   GL211342   5.490   2.959   9.183
  635POPC   C1A11343   5.862   2.918   8.840
  635POPC   D2A11344   5.822   2.700   8.421
  635POPC   C3A11345   5.924   2.786   7.997
  635POPC   C4A11346   6.060   2.794   7.587
  635POPC   C1B11347   5.397   2.712   8.796
  635POPC   C2B11348   5.322   2.698   8.353
  635POPC   C3B11349   5.521   2.472   8.056
  635POPC   C4B11350   5.680   2.470   7.642
  636POPC   NC311351  13.099  37.237   9.495
  636POPC   PO411352  12.845  36.598   9.595
  636POPC   GL111353  12.867  36.785   9.192
  636POPC   GL211354  12.794  37.160   9.084
  636POPC   C1A11355  12.851  36.732   8.759
  636POPC   D2A11356  12.550  36.727   8.442
  636POPC   C3A11357  12.801  36.931   8.145
  636POPC   C4A11358  13.095  36.754   7.861
  636POPC   C1B11359  13.158  37.360   8.832
  636POPC   C2B11360  13.299  37.467   8.407
  636POPC   C3B11361  13.118  37.286   7.979
  636POPC   C4B11362  12.700  37.276   7.756
  637POPC   NC311363   7.876  44.825   9.431
  637POPC   PO411364   8.367  44.432   9.678
  637POPC   GL111365   8.218  44.458   9.218
  637POPC   GL211366   7.930  44.575   9.009
  637POPC   C1A11367   8.319  44.349   8.773
  637POPC   D2A11368   8.454  44.696   8.523
  637POPC   C3A11369   8.438  44.684   8.073
  637POPC   C4A11370   8.383  44.825   7.649
  637POPC   C1B11371   7.988  44.905   8.711
  637POPC   C2B11372   7.912  44.953   8.288
  637POPC   C3B11373   7.947  44.725   7.897
  637POPC   C4B11374   7.727  44.354   7.729
  638POPC   NC311375  37.962  32.931   9.525
  638POPC   PO411376  37.447  33.330   9.813
  638POPC   GL111377  37.568  33.188   9.291
  638POPC   GL211378  37.882  33.305   9.181
  638POPC   C1A11379  37.723  32.880   8.878
  638POPC   D2A11380  37.562  32.774   8.412
  638POPC   C3A11381  37.717  32.750   7.980
  638POPC   C4A11382  38.058  32.867   7.722
  638POPC   C1B11383  37.658  33.351   8.810
  638POPC   C2B11384  37.855  33.229   8.449
  638POPC   C3B11385  37.910  33.258   8.023
  638POPC   C4B11386  37.635  33.221   7.708
  639POPC   NC311387  10.714  38.122   9.732
  639POPC   PO411388  10.294  38.617   9.802
  639POPC   GL111389  10.481  38.407   9.381
  639POPC   GL211390  10.765  38.619   9.281
  639POPC   C1A11391  10.384  38.174   8.948
  639POPC   D2A11392  10.375  38.311   8.484
  639POPC   C3A11393  10.571  38.142   8.089
  639POPC   C4A11394  10.386  38.230   7.697
  639POPC   C1B11395  10.709  38.557   8.862
  639POPC   C2B11396  10.891  38.405   8.491
  639POPC   C3B11397  10.748  38.604   8.152
  639POPC   C4B11398  10.830  38.529   7.738
  640POPC   NC311399  26.246  19.384   9.690
  640POPC   PO411400  26.826  19.745   9.514
  640POPC   GL111401  26.942  19.812   9.121
  640POPC   GL211402  27.183  19.556   9.119
  640POPC   C1A11403  26.846  20.028   8.763
  640POPC   D2A11404  26.798  19.868   8.390
  640POPC   C3A11405  26.927  20.153   8.126
  640POPC   C4A11406  26.706  20.134   7.759
  640POPC   C1B11407  27.070  19.504   8.688
  640POPC   C2B11408  27.024  19.437   8.241
  640POPC   C3B11409  27.018  19.702   7.861
  640POPC   C4B11410  27.163  19.646   7.396
  641POPC   NC311411   6.493  41.466   9.819
  641POPC   PO411412   6.893  41.003   9.647
  641POPC   GL111413   6.687  41.285   9.325
  641POPC   GL211414   6.767  41.608   9.250
  641POPC   C1A11415   6.645  41.234   8.865
  641POPC   D2A11416   6.794  41.255   8.413
  641POPC   C3A11417   6.575  41.318   8.014
  641POPC   C4A11418   6.722  41.395   7.570
  641POPC   C1B11419   6.523  41.726   8.863
  641POPC   C2B11420   6.438  41.659   8.412
  641POPC   C3B11421   6.636  41.821   8.010
  641POPC   C4B11422   6.462  41.813   7.593
  642POPC   NC311423  19.619  32.961   9.417
  642POPC   PO411424  18.889  33.032   9.518
  642POPC   GL111425  19.055  32.916   9.143
  642POPC   GL211426  19.310  33.162   9.048
  642POPC   C1A11427  19.045  32.931   8.686
  642POPC   D2A11428  19.285  33.292   8.500
  642POPC   C3A11429  19.323  33.162   8.090
  642POPC   C4A11430  18.960  32.923   7.923
  642POPC   C1B11431  19.556  32.910   8.743
  642POPC   C2B11432  19.430  32.674   8.358
  642POPC   C3B11433  19.445  32.688   7.892
  642POPC   C4B11434  19.324  33.027   7.583
  643POPC   NC311435  17.122  23.599   9.696
  643POPC   PO411436  16.378  23.717   9.642
  643POPC   GL111437  16.541  23.672   9.235
  643POPC   GL211438  16.841  23.482   9.283
  643POPC   C1A11439  16.619  23.898   8.863
  643POPC   D2A11440  16.438  23.788   8.466
  643POPC   C3A11441  16.617  23.952   8.101
  643POPC   C4A11442  16.537  23.929   7.684
  643POPC   C1B11443  17.016  23.556   8.877
  643POPC   C2B11444  16.951  23.783   8.489
  643POPC   C3B11445  17.061  23.688   8.078
  643POPC   C4B11446  17.332  23.676   7.743
  644POPC   NC311447  35.323  32.203   9.513
  644POPC   PO411448  34.901  32.789   9.479
  644POPC   GL111449  35.067  32.489   9.171
  644POPC   GL211450  35.445  32.467   9.099
  644POPC   C1A11451  35.052  32.198   8.828
  644POPC   D2A11452  34.993  32.322   8.388
  644POPC   C3A11453  35.262  32.221   8.020
  644POPC   C4A11454  35.412  32.500   7.699
  644POPC   C1B11455  35.631  32.155   8.815
  644POPC   C2B11456  35.744  32.138   8.361
  644POPC   C3B11457  35.789  32.244   7.897
  644POPC   C4B11458  35.782  32.284   7.394
  645POPC   NC311459   7.646  34.635   9.491
  645POPC   PO411460   7.144  34.243   9.536
  645POPC   GL111461   7.311  34.437   9.158
  645POPC   GL211462   7.658  34.313   9.103
  645POPC   C1A11463   7.403  34.690   8.777
  645POPC   D2A11464   7.578  34.579   8.348
  645POPC   C3A11465   7.501  34.865   7.992
  645POPC   C4A11466   7.356  34.847   7.538
  645POPC   C1B11467   7.456  34.186   8.727
  645POPC   C2B11468   7.331  34.095   8.359
  645POPC   C3B11469   7.095  34.309   8.109
  645POPC   C4B11470   7.349  34.421   7.824
  646POPC   NC311471  16.157  24.900   9.460
  646POPC   PO411472  15.771  25.480   9.433
  646POPC   GL111473  15.911  25.208   9.137
  646POPC   GL211474  15.693  24.912   9.207
  646POPC   C1A11475  16.141  25.248   8.762
  646POPC   D2A11476  16.024  25.446   8.400
  646POPC   C3A11477  16.112  25.230   8.033
  646POPC   C4A11478  16.034  25.424   7.654
  646POPC   C1B11479  15.605  25.025   8.786
  646POPC   C2B11480  15.768  25.005   8.392
  646POPC   C3B11481  15.601  24.932   8.018
  646POPC   C4B11482  15.716  25.010   7.666
  647POPC   NC311483  22.761   8.669   9.396
  647POPC   PO411484  23.075   9.272   9.522
  647POPC   GL111485  23.075   9.020   9.140
  647POPC   GL211486  23.300   8.720   9.194
  647POPC   C1A11487  22.797   8.944   8.746
  647POPC   D2A11488  22.517   8.873   8.373
  647POPC   C3A11489  22.665   9.008   8.009
  647POPC   C4A11490  22.857   8.711   7.792
  647POPC   C1B11491  23.259   8.770   8.745
  647POPC   C2B11492  23.069   8.774   8.330
  647POPC   C3B11493  23.224   8.984   7.997
  647POPC   C4B11494  23.105   9.361   7.831
  648POPC   NC311495  23.145  23.135   9.536
  648POPC   PO411496  22.491  23.038   9.605
  648POPC   GL111497  22.747  22.927   9.203
  648POPC   GL211498  22.961  23.198   9.081
  648POPC   C1A11499  22.950  22.827   8.752
  648POPC   D2A11500  22.980  22.959   8.303
  648POPC   C3A11501  22.913  22.701   7.936
  648POPC   C4A11502  22.587  22.662   7.601
  648POPC   C1B11503  23.298  23.434   8.885
  648POPC   C2B11504  23.336  23.563   8.456
  648POPC   C3B11505  23.261  23.336   8.106
  648POPC   C4B11506  22.954  23.188   7.828
  649POPC   NC311507   1.447   4.229   9.463
  649POPC   PO411508   0.797   4.146   9.725
  649POPC   GL111509   0.878   4.224   9.281
  649POPC   GL211510   1.040   4.544   9.219
  649POPC   C1A11511   1.048   4.149   8.859
  649POPC   D2A11512   1.085   4.330   8.468
  649POPC   C3A11513   1.384   4.160   8.225
  649POPC   C4A11514   1.369   4.186   7.795
  649POPC   C1B11515   1.299   4.600   8.829
  649POPC   C2B11516   1.514   4.611   8.455
  649POPC   C3B11517   1.326   4.670   8.060
  649POPC   C4B11518   1.483   4.666   7.661
  650POPC   NC311519  12.296   2.807   9.502
  650POPC   PO411520  11.615   2.815   9.556
  650POPC   GL111521  11.894   2.640   9.221
  650POPC   GL211522  12.049   2.963   9.085
  650POPC   C1A11523  11.903   2.441   8.799
  650POPC   D2A11524  11.748   2.498   8.381
  650POPC   C3A11525  12.000   2.536   7.984
  650POPC   C4A11526  12.072   2.442   7.517
  650POPC   C1B11527  12.330   2.756   8.796
  650POPC   C2B11528  12.550   2.525   8.478
  650POPC   C3B11529  12.529   2.601   8.064
  650POPC   C4B11530  12.339   2.847   7.738
  651POPC   NC311531  14.281   3.963   9.612
  651POPC   PO411532  14.488   4.512   9.585
  651POPC   GL111533  14.418   4.335   9.200
  651POPC   GL211534  14.659   4.124   9.207
  651POPC   C1A11535  14.430   4.141   8.768
  651POPC   D2A11536  14.220   4.082   8.410
  651POPC   C3A11537  14.441   4.222   8.053
  651POPC   C4A11538  14.328   4.443   7.717
  651POPC   C1B11539  14.852   3.880   8.915
  651POPC   C2B11540  14.750   3.856   8.484
  651POPC   C3B11541  14.500   3.732   8.153
  651POPC   C4B11542  14.656   3.867   7.735
  652POPC   NC311543  16.861  31.235   9.592
  652POPC   PO411544  16.411  31.797   9.432
  652POPC   GL111545  16.616  31.743   9.086
  652POPC   GL211546  16.876  31.603   9.218
  652POPC   C1A11547  16.647  31.656   8.684
  652POPC   D2A11548  16.637  31.410   8.337
  652POPC   C3A11549  16.589  31.674   8.007
  652POPC   C4A11550  16.769  31.516   7.659
  652POPC   C1B11551  17.136  31.527   8.901
  652POPC   C2B11552  17.147  31.631   8.531
  652POPC   C3B11553  17.088  31.577   8.127
  652POPC   C4B11554  17.248  31.597   7.764
  653POPC   NC311555  38.297   2.973   9.668
  653POPC   PO411556  38.264   3.573   9.405
  653POPC   GL111557  38.344   3.628   9.024
  653POPC   GL211558  38.678   3.708   9.048
  653POPC   C1A11559  38.382   3.640   8.623
  653POPC   D2A11560  38.698   3.554   8.346
  653POPC   C3A11561  38.515   3.641   7.993
  653POPC   C4A11562  38.489   3.481   7.598
  653POPC   C1B11563  38.771   3.976   8.697
  653POPC   C2B11564  39.040   3.920   8.315
  653POPC   C3B11565  39.023   3.659   7.927
  653POPC   C4B11566  38.946   3.669   7.467
  654POPC   NC311567  19.875  12.376  10.053
  654POPC   PO411568  19.971  11.978   9.522
  654POPC   GL111569  19.788  12.217   9.173
  654POPC   GL211570  19.482  12.071   9.046
  654POPC   C1A11571  19.834  12.321   8.721
  654POPC   D2A11572  19.690  12.071   8.372
  654POPC   C3A11573  19.809  12.197   7.954
  654POPC   C4A11574  20.208  12.194   7.716
  654POPC   C1B11575  19.383  11.691   8.807
  654POPC   C2B11576  19.481  11.572   8.401
  654POPC   C3B11577  19.525  11.746   8.013
  654POPC   C4B11578  19.403  11.613   7.588
  655POPC   NC311579  40.569   5.414   9.376
  655POPC   PO411580  40.483   4.773   9.390
  655POPC   GL111581  40.747   5.022   9.056
  655POPC   GL211582  41.124   4.927   9.086
  655POPC   C1A11583  40.700   5.184   8.567
  655POPC   D2A11584  40.531   5.248   8.146
  655POPC   C3A11585  40.722   4.928   7.879
  655POPC   C4A11586  41.071   4.737   7.692
  655POPC   C1B11587  41.117   5.318   8.793
  655POPC   C2B11588  41.141   5.407   8.333
  655POPC   C3B11589  40.961   5.382   7.899
  655POPC   C4B11590  41.032   5.267   7.459
  656POPC   NC311591  15.407   9.612   9.471
  656POPC   PO411592  15.004  10.070   9.546
  656POPC   GL111593  15.284   9.982   9.152
  656POPC   GL211594  15.032   9.758   9.114
  656POPC   C1A11595  15.344   9.668   8.741
  656POPC   D2A11596  15.054   9.539   8.395
  656POPC   C3A11597  15.137   9.626   7.950
  656POPC   C4A11598  15.423   9.444   7.643
  656POPC   C1B11599  14.904   9.954   8.699
  656POPC   C2B11600  14.802   9.993   8.241
  656POPC   C3B11601  14.749   9.900   7.769
  656POPC   C4B11602  14.889  10.169   7.396
  657POPC   NC311603   2.707   6.227   9.711
  657POPC   PO411604   2.623   6.906   9.549
  657POPC   GL111605   2.895   6.684   9.295
  657POPC   GL211606   2.601   6.533   9.200
  657POPC   C1A11607   3.008   6.673   8.834
  657POPC   D2A11608   2.824   6.626   8.442
  657POPC   C3A11609   3.015   6.841   8.116
  657POPC   C4A11610   2.903   6.795   7.689
  657POPC   C1B11611   2.412   6.781   8.876
  657POPC   C2B11612   2.318   6.727   8.440
  657POPC   C3B11613   2.519   6.722   8.045
  657POPC   C4B11614   2.390   6.579   7.666
  658POPC   NC311615  32.518  23.137   9.480
  658POPC   PO411616  33.222  22.949   9.605
  658POPC   GL111617  33.104  22.916   9.227
  658POPC   GL211618  33.139  23.280   9.179
  658POPC   C1A11619  33.256  22.774   8.833
  658POPC   D2A11620  32.909  22.663   8.579
  658POPC   C3A11621  32.898  22.697   8.136
  658POPC   C4A11622  33.109  22.868   7.843
  658POPC   C1B11623  32.914  23.137   8.820
  658POPC   C2B11624  33.120  23.100   8.418
  658POPC   C3B11625  32.980  23.328   8.057
  658POPC   C4B11626  33.145  23.403   7.665
  659POPC   NC311627  33.892  13.310   9.593
  659POPC   PO411628  33.826  12.695   9.676
  659POPC   GL111629  33.930  12.850   9.263
  659POPC   GL211630  34.098  13.129   9.171
  659POPC   C1A11631  33.711  12.893   8.870
  659POPC   D2A11632  33.516  12.782   8.487
  659POPC   C3A11633  33.669  12.911   8.136
  659POPC   C4A11634  33.614  12.808   7.743
  659POPC   C1B11635  34.200  12.806   8.804
  659POPC   C2B11636  34.017  12.637   8.396
  659POPC   C3B11637  34.079  12.675   7.908
  659POPC   C4B11638  34.030  13.018   7.524
  660POPC   NC311639  36.700  30.735   9.625
  660POPC   PO411640  36.408  30.253   9.503
  660POPC   GL111641  36.658  30.560   9.161
  660POPC   GL211642  36.642  30.967   9.183
  660POPC   C1A11643  37.037  30.542   8.898
  660POPC   D2A11644  37.263  30.787   8.547
  660POPC   C3A11645  36.981  30.819   8.191
  660POPC   C4A11646  36.927  30.744   7.747
  660POPC   C1B11647  36.826  30.995   8.767
  660POPC   C2B11648  36.683  31.193   8.394
  660POPC   C3B11649  36.583  31.045   7.956
  660POPC   C4B11650  36.630  31.074   7.490
  661POPC   NC311651  23.758  29.376   9.612
  661POPC   PO411652  23.952  28.851   9.472
  661POPC   GL111653  23.930  29.197   9.149
  661POPC   GL211654  23.569  29.248   9.155
  661POPC   C1A11655  23.932  29.251   8.682
  661POPC   D2A11656  24.033  29.123   8.254
  661POPC   C3A11657  23.738  29.050   7.921
  661POPC   C4A11658  23.425  28.880   7.608
  661POPC   C1B11659  23.432  29.359   8.740
  661POPC   C2B11660  23.540  29.360   8.297
  661POPC   C3B11661  23.321  29.323   7.867
  661POPC   C4B11662  23.102  29.361   7.449
  662POPC   NC311663  11.688  42.290   9.415
  662POPC   PO411664  11.000  42.517   9.437
  662POPC   GL111665  11.320  42.480   9.125
  662POPC   GL211666  11.356  42.098   9.072
  662POPC   C1A11667  11.483  42.456   8.724
  662POPC   D2A11668  11.337  42.587   8.368
  662POPC   C3A11669  11.596  42.522   8.017
  662POPC   C4A11670  11.334  42.569   7.674
  662POPC   C1B11671  10.984  42.232   8.803
  662POPC   C2B11672  11.017  42.172   8.364
  662POPC   C3B11673  11.421  42.064   8.191
  662POPC   C4B11674  11.568  42.046   7.775
  663POPC   NC311675  26.083  37.886   9.515
  663POPC   PO411676  26.083  37.280   9.477
  663POPC   GL111677  25.909  37.510   9.137
  663POPC   GL211678  26.230  37.682   9.054
  663POPC   C1A11679  25.872  37.611   8.699
  663POPC   D2A11680  26.169  37.539   8.400
  663POPC   C3A11681  26.033  37.661   8.008
  663POPC   C4A11682  25.834  37.893   7.688
  663POPC   C1B11683  26.389  37.935   8.683
  663POPC   C2B11684  26.485  37.929   8.216
  663POPC   C3B11685  26.361  37.994   7.768
  663POPC   C4B11686  26.281  38.311   7.405
  664POPC   NC311687  11.600   6.660   9.589
  664POPC   PO411688  10.897   6.680   9.578
  664POPC   GL111689  11.157   6.696   9.199
  664POPC   GL211690  11.484   6.869   9.150
  664POPC   C1A11691  11.115   6.782   8.761
  664POPC   D2A11692  11.252   6.634   8.342
  664POPC   C3A11693  11.015   6.805   8.013
  664POPC   C4A11694  10.767   6.616   7.686
  664POPC   C1B11695  11.581   6.570   8.820
  664POPC   C2B11696  11.734   6.714   8.417
  664POPC   C3B11697  11.642   6.554   7.994
  664POPC   C4B11698  11.388   6.675   7.657
  665POPC   NC311699  37.591  11.092   9.636
  665POPC   PO411700  37.467  11.763   9.706
  665POPC   GL111701  37.783  11.523   9.351
  665POPC   GL211702  37.683  11.244   9.152
  665POPC   C1A11703  37.916  11.612   8.874
  665POPC   D2A11704  37.695  11.452   8.467
  665POPC   C3A11705  37.668  11.410   7.991
  665POPC   C4A11706  37.867  11.235   7.577
  665POPC   C1B11707  37.426  11.096   8.782
  665POPC   C2B11708  37.420  11.036   8.300
  665POPC   C3B11709  37.525  10.925   7.852
  665POPC   C4B11710  37.427  11.010   7.384
  666POPC   NC311711  21.537   6.161   9.379
  666POPC   PO411712  21.240   6.619   9.806
  666POPC   GL111713  21.404   6.720   9.357
  666POPC   GL211714  21.711   6.893   9.252
  666POPC   C1A11715  21.382   6.613   8.921
  666POPC   D2A11716  21.303   6.431   8.512
  666POPC   C3A11717  21.177   6.671   8.164
  666POPC   C4A11718  21.200   6.624   7.748
  666POPC   C1B11719  21.822   6.830   8.817
  666POPC   C2B11720  21.580   6.862   8.418
  666POPC   C3B11721  21.653   6.748   7.975
  666POPC   C4B11722  21.618   6.894   7.523
  667POPC   NC311723  44.692  34.545   9.540
  667POPC   PO411724   0.153  34.182   9.394
  667POPC   GL111725  44.872  34.485   9.069
  667POPC   GL211726  44.575  34.779   9.100
  667POPC   C1A11727  44.567  34.461   8.706
  667POPC   D2A11728  44.342  34.530   8.333
  667POPC   C3A11729  44.486  34.455   7.924
  667POPC   C4A11730  44.725  34.641   7.564
  667POPC   C1B11731  44.741  34.948   8.696
  667POPC   C2B11732  44.746  34.832   8.226
  667POPC   C3B11733  44.438  34.944   7.874
  667POPC   C4B11734  44.388  34.975   7.385
  668POPC   NC311735  10.254  10.226   9.560
  668POPC   PO411736  10.693  10.743   9.502
  668POPC   GL111737  10.470  10.751   9.169
  668POPC   GL211738  10.435  10.422   9.139
  668POPC   C1A11739  10.602  10.804   8.789
  668POPC   D2A11740  10.780  10.659   8.463
  668POPC   C3A11741  10.438  10.661   8.203
  668POPC   C4A11742  10.611  10.822   7.835
  668POPC   C1B11743  10.613  10.282   8.785
  668POPC   C2B11744  10.589  10.198   8.363
  668POPC   C3B11745  10.744  10.323   7.978
  668POPC   C4B11746  10.507  10.303   7.619
  669POPC   NC311747  42.190  38.622   9.445
  669POPC   PO411748  42.408  37.960   9.440
  669POPC   GL111749  42.431  38.285   9.142
  669POPC   GL211750  42.690  38.508   9.256
  669POPC   C1A11751  42.268  38.505   8.783
  669POPC   D2A11752  42.353  38.708   8.399
  669POPC   C3A11753  42.145  38.729   8.022
  669POPC   C4A11754  42.161  38.382   7.818
  669POPC   C1B11755  42.762  38.619   8.806
  669POPC   C2B11756  42.838  38.786   8.365
  669POPC   C3B11757  42.687  38.691   7.917
  669POPC   C4B11758  42.926  38.674   7.496
  670POPC   NC311759  18.988  15.506   9.454
  670POPC   PO411760  18.821  16.127   9.489
  670POPC   GL111761  19.032  16.192   9.120
  670POPC   GL211762  19.255  15.897   9.158
  670POPC   C1A11763  19.191  16.140   8.705
  670POPC   D2A11764  19.282  15.931   8.324
  670POPC   C3A11765  19.101  16.108   7.951
  670POPC   C4A11766  19.265  15.882   7.621
  670POPC   C1B11767  19.014  15.671   8.824
  670POPC   C2B11768  18.817  15.782   8.441
  670POPC   C3B11769  18.841  15.659   8.047
  670POPC   C4B11770  18.743  15.789   7.664
  671POPC   NC311771  25.889   9.669   9.514
  671POPC   PO411772  26.468   9.945   9.570
  671POPC   GL111773  26.261   9.775   9.193
  671POPC   GL211774  25.863   9.888   9.068
  671POPC   C1A11775  26.184   9.597   8.808
  671POPC   D2A11776  25.988   9.785   8.455
  671POPC   C3A11777  26.269   9.656   8.123
  671POPC   C4A11778  26.447   9.308   7.825
  671POPC   C1B11779  25.676   9.522   8.830
  671POPC   C2B11780  25.665   9.401   8.416
  671POPC   C3B11781  25.729   9.657   8.015
  671POPC   C4B11782  26.036   9.597   7.691
  672POPC   NC311783   3.006  30.148   9.453
  672POPC   PO411784   2.443  29.708   9.463
  672POPC   GL111785   2.582  30.036   9.183
  672POPC   GL211786   2.796  29.754   9.061
  672POPC   C1A11787   2.880  30.195   8.813
  672POPC   D2A11788   2.769  30.140   8.362
  672POPC   C3A11789   2.958  29.832   8.121
  672POPC   C4A11790   2.990  29.898   7.688
  672POPC   C1B11791   2.505  29.856   8.716
  672POPC   C2B11792   2.481  29.712   8.318
  672POPC   C3B11793   2.427  29.953   7.974
  672POPC   C4B11794   2.603  30.242   7.758
  673POPC   NC311795  21.970   0.596   9.626
  673POPC   PO411796  22.061  44.986   9.576
  673POPC   GL111797  22.138   0.282   9.213
  673POPC   GL211798  21.962   0.631   9.133
  673POPC   C1A11799  22.296   0.155   8.807
  673POPC   D2A11800  22.083   0.156   8.383
  673POPC   C3A11801  22.213   0.383   8.045
  673POPC   C4A11802  22.260   0.175   7.682
  673POPC   C1B11803  22.281   0.665   8.797
  673POPC   C2B11804  22.246   0.779   8.359
  673POPC   C3B11805  22.286   0.901   7.929
  673POPC   C4B11806  22.153   0.660   7.597
  674POPC   NC311807  18.144  34.963   9.452
  674POPC   PO411808  18.438  34.349   9.480
  674POPC   GL111809  18.357  34.548   9.116
  674POPC   GL211810  18.011  34.655   9.085
  674POPC   C1A11811  18.287  34.475   8.698
  674POPC   D2A11812  18.458  34.515   8.335
  674POPC   C3A11813  18.257  34.276   8.046
  674POPC   C4A11814  18.410  34.424   7.660
  674POPC   C1B11815  17.973  34.923   8.723
  674POPC   C2B11816  17.955  34.694   8.340
  674POPC   C3B11817  18.116  34.757   7.976
  674POPC   C4B11818  17.981  34.954   7.640
  675POPC   NC311819  21.879  24.323   9.647
  675POPC   PO411820  22.511  24.559   9.564
  675POPC   GL111821  22.215  24.402   9.245
  675POPC   GL211822  21.930  24.633   9.212
  675POPC   C1A11823  22.233  24.442   8.802
  675POPC   D2A11824  22.126  24.247   8.420
  675POPC   C3A11825  22.502  24.340   8.217
  675POPC   C4A11826  22.598  24.397   7.777
  675POPC   C1B11827  21.829  24.786   8.777
  675POPC   C2B11828  22.072  24.739   8.368
  675POPC   C3B11829  22.126  24.561   7.932
  675POPC   C4B11830  21.982  24.792   7.545
  676POPC   NC311831   9.017   8.971   9.707
  676POPC   PO411832   8.601   9.403   9.386
  676POPC   GL111833   9.003   9.169   9.196
  676POPC   GL211834   8.911   8.857   9.004
  676POPC   C1A11835   9.254   9.146   8.766
  676POPC   D2A11836   9.450   8.981   8.368
  676POPC   C3A11837   9.272   9.104   7.979
  676POPC   C4A11838   9.032   8.880   7.653
  676POPC   C1B11839   8.752   9.243   8.752
  676POPC   C2B11840   8.911   9.259   8.340
  676POPC   C3B11841   8.761   8.897   8.081
  676POPC   C4B11842   8.528   8.846   7.664
  677POPC   NC311843  17.652  35.993   9.540
  677POPC   PO411844  17.446  36.598   9.504
  677POPC   GL111845  17.449  36.320   9.196
  677POPC   GL211846  17.796  36.316   9.177
  677POPC   C1A11847  17.427  36.240   8.779
  677POPC   D2A11848  17.127  36.127   8.475
  677POPC   C3A11849  17.319  36.337   8.113
  677POPC   C4A11850  17.481  36.084   7.815
  677POPC   C1B11851  17.949  36.104   8.832
  677POPC   C2B11852  17.849  35.925   8.435
  677POPC   C3B11853  17.928  36.120   8.043
  677POPC   C4B11854  17.926  35.972   7.612
  678POPC   NC311855  42.102  24.758   9.434
  678POPC   PO411856  42.175  24.104   9.623
  678POPC   GL111857  42.356  24.319   9.242
  678POPC   GL211858  42.666  24.162   9.079
  678POPC   C1A11859  42.394  24.505   8.835
  678POPC   D2A11860  42.203  24.592   8.433
  678POPC   C3A11861  42.415  24.535   8.040
  678POPC   C4A11862  42.308  24.761   7.658
  678POPC   C1B11863  42.499  24.004   8.708
  678POPC   C2B11864  42.324  24.103   8.327
  678POPC   C3B11865  42.395  24.059   7.861
  678POPC   C4B11866  42.587  24.007   7.460
  679POPC   NC311867  13.241  38.766   9.566
  679POPC   PO411868  12.723  38.550   9.400
  679POPC   GL111869  12.811  38.502   9.025
  679POPC   GL211870  13.137  38.603   9.097
  679POPC   C1A11871  12.975  38.357   8.664
  679POPC   D2A11872  12.768  38.439   8.329
  679POPC   C3A11873  12.873  38.242   7.984
  679POPC   C4A11874  12.729  38.314   7.586
  679POPC   C1B11875  13.119  38.846   8.765
  679POPC   C2B11876  13.198  38.739   8.362
  679POPC   C3B11877  13.140  38.898   7.964
  679POPC   C4B11878  13.145  38.609   7.600
  680POPC   NC311879  25.325  36.682   9.782
  680POPC   PO411880  25.194  36.073   9.499
  680POPC   GL111881  25.351  36.029   9.091
  680POPC   GL211882  25.366  36.371   9.038
  680POPC   C1A11883  25.190  36.038   8.670
  680POPC   D2A11884  24.954  36.186   8.321
  680POPC   C3A11885  24.990  35.930   7.955
  680POPC   C4A11886  25.402  35.940   7.747
  680POPC   C1B11887  25.548  36.618   8.766
  680POPC   C2B11888  25.406  36.436   8.415
  680POPC   C3B11889  25.529  36.337   8.021
  680POPC   C4B11890  25.747  36.332   7.633
  681POPC   NC311891   9.798   1.265   9.757
  681POPC   PO411892   9.200   1.292   9.743
  681POPC   GL111893   9.628   1.329   9.293
  681POPC   GL211894   9.534   1.539   9.046
  681POPC   C1A11895   9.891   1.195   8.899
  681POPC   D2A11896   9.883   1.103   8.445
  681POPC   C3A11897  10.028   1.294   8.047
  681POPC   C4A11898  10.020   1.180   7.608
  681POPC   C1B11899   9.407   1.223   8.741
  681POPC   C2B11900   9.396   1.092   8.326
  681POPC   C3B11901   9.529   1.280   7.933
  681POPC   C4B11902   9.531   1.096   7.518
  682POPC   NC311903  44.332  17.012   9.881
  682POPC   PO411904  44.313  16.504   9.413
  682POPC   GL111905  44.073  16.687   9.063
  682POPC   GL211906  43.742  16.739   9.115
  682POPC   C1A11907  43.939  16.814   8.640
  682POPC   D2A11908  44.038  17.036   8.269
  682POPC   C3A11909  43.989  16.787   7.875
  682POPC   C4A11910  44.158  16.597   7.446
  682POPC   C1B11911  43.524  16.514   8.778
  682POPC   C2B11912  43.647  16.380   8.361
  682POPC   C3B11913  43.517  16.456   7.945
  682POPC   C4B11914  43.668  16.550   7.529
  683POPC   NC311915   0.104  21.391   9.343
  683POPC   PO411916  44.431  21.277   9.453
  683POPC   GL111917  44.625  21.407   9.082
  683POPC   GL211918  44.772  21.744   9.134
  683POPC   C1A11919  44.666  21.343   8.654
  683POPC   D2A11920  44.730  21.384   8.222
  683POPC   C3A11921  44.412  21.344   7.938
  683POPC   C4A11922  44.299  21.449   7.547
  683POPC   C1B11923  44.975  21.768   8.740
  683POPC   C2B11924   0.139  21.653   8.356
  683POPC   C3B11925   0.030  21.740   7.978
  683POPC   C4B11926  44.888  21.420   7.715
  684POPC   NC311927   3.425   0.050   9.668
  684POPC   PO411928   3.710   0.580   9.575
  684POPC   GL111929   3.502   0.508   9.203
  684POPC   GL211930   3.270   0.272   9.192
  684POPC   C1A11931   3.573   0.497   8.767
  684POPC   D2A11932   3.700   0.613   8.368
  684POPC   C3A11933   3.405   0.444   8.070
  684POPC   C4A11934   3.420   0.183   7.704
  684POPC   C1B11935   3.074   0.501   8.821
  684POPC   C2B11936   3.154   0.741   8.450
  684POPC   C3B11937   3.119   0.879   8.005
  684POPC   C4B11938   3.353   0.769   7.609
  685POPC   NC311939   5.358   4.432   9.371
  685POPC   PO411940   5.974   4.451   9.479
  685POPC   GL111941   5.918   4.259   9.083
  685POPC   GL211942   5.890   3.910   9.154
  685POPC   C1A11943   6.025   4.097   8.660
  685POPC   D2A11944   5.884   4.117   8.254
  685POPC   C3A11945   5.809   4.521   8.173
  685POPC   C4A11946   5.976   4.789   7.873
  685POPC   C1B11947   5.592   3.896   8.833
  685POPC   C2B11948   5.463   4.219   8.571
  685POPC   C3B11949   5.359   4.251   8.154
  685POPC   C4B11950   5.615   4.240   7.800
  686POPC   NC311951  34.900  15.510   9.491
  686POPC   PO411952  35.575  15.349   9.443
  686POPC   GL111953  35.276  15.391   9.149
  686POPC   GL211954  35.205  15.086   9.009
  686POPC   C1A11955  35.297  15.462   8.710
  686POPC   D2A11956  35.010  15.287   8.406
  686POPC   C3A11957  35.165  15.286   8.004
  686POPC   C4A11958  35.516  15.220   7.750
  686POPC   C1B11959  35.524  14.996   8.662
  686POPC   C2B11960  35.547  14.939   8.192
  686POPC   C3B11961  35.255  14.791   7.850
  686POPC   C4B11962  34.947  15.033   7.588
  687POPC   NC311963  16.758  43.406   9.538
  687POPC   PO411964  16.849  42.681   9.590
  687POPC   GL111965  16.649  42.962   9.314
  687POPC   GL211966  16.998  43.046   9.228
  687POPC   C1A11967  16.531  43.167   8.908
  687POPC   D2A11968  16.387  42.918   8.565
  687POPC   C3A11969  16.509  43.022   8.136
  687POPC   C4A11970  16.694  43.117   7.755
  687POPC   C1B11971  17.038  43.158   8.814
  687POPC   C2B11972  16.823  43.280   8.450
  687POPC   C3B11973  16.995  43.377   8.047
  687POPC   C4B11974  17.197  43.122   7.701
  688POPC   NC311975  41.734  18.119   9.248
  688POPC   PO411976  41.566  17.541   9.587
  688POPC   GL111977  41.767  17.479   9.227
  688POPC   GL211978  41.428  17.329   9.118
  688POPC   C1A11979  41.816  17.381   8.804
  688POPC   D2A11980  41.711  17.242   8.418
  688POPC   C3A11981  41.843  17.461   8.123
  688POPC   C4A11982  42.029  17.367   7.731
  688POPC   C1B11983  41.293  17.364   8.687
  688POPC   C2B11984  41.334  17.609   8.317
  688POPC   C3B11985  41.390  17.469   7.910
  688POPC   C4B11986  41.459  17.211   7.625
  689POPC   NC311987  44.237  26.781   9.562
  689POPC   PO411988  44.824  27.053   9.533
  689POPC   GL111989  44.620  26.878   9.199
  689POPC   GL211990  44.328  27.071   9.168
  689POPC   C1A11991  44.772  26.758   8.785
  689POPC   D2A11992  44.799  27.028   8.420
  689POPC   C3A11993  44.917  26.882   7.996
  689POPC   C4A11994  44.781  26.644   7.610
  689POPC   C1B11995  44.310  26.980   8.768
  689POPC   C2B11996  44.187  26.859   8.402
  689POPC   C3B11997  44.413  26.882   8.053
  689POPC   C4B11998  44.278  26.940   7.679
  690POPC   NC311999  35.953  37.841   9.547
  690POPC   PO412000  36.599  37.826   9.612
  690POPC   GL112001  36.324  37.671   9.243
  690POPC   GL212002  36.061  37.442   9.192
  690POPC   C1A12003  36.268  37.687   8.798
  690POPC   D2A12004  36.330  37.565   8.396
  690POPC   C3A12005  36.081  37.756   8.097
  690POPC   C4A12006  36.032  37.920   7.671
  690POPC   C1B12007  35.794  37.321   8.829
  690POPC   C2B12008  35.891  37.187   8.413
  690POPC   C3B12009  36.069  37.269   8.022
  690POPC   C4B12010  36.494  37.399   7.937
  691POPC   NC312011  39.459   0.174   9.534
  691POPC   PO412012  39.049   0.698   9.527
  691POPC   GL112013  39.129   0.709   9.126
  691POPC   GL212014  39.432   0.532   9.174
  691POPC   C1A12015  39.145   0.427   8.776
  691POPC   D2A12016  39.286   0.323   8.377
  691POPC   C3A12017  39.006   0.297   8.035
  691POPC   C4A12018  39.193   0.250   7.665
  691POPC   C1B12019  39.586   0.741   8.850
  691POPC   C2B12020  39.588   0.763   8.401
  691POPC   C3B12021  39.387   0.673   8.001
  691POPC   C4B12022  39.624   0.637   7.632
  692POPC   NC312023  41.250  26.276   9.394
  692POPC   PO412024  41.751  25.846   9.619
  692POPC   GL112025  41.691  26.148   9.229
  692POPC   GL212026  41.403  25.937   9.043
  692POPC   C1A12027  41.672  26.294   8.763
  692POPC   D2A12028  41.529  26.120   8.347
  692POPC   C3A12029  41.752  26.150   7.921
  692POPC   C4A12030  41.504  26.020   7.549
  692POPC   C1B12031  41.106  26.145   8.745
  692POPC   C2B12032  41.109  26.404   8.373
  692POPC   C3B12033  41.217  26.282   7.928
  692POPC   C4B12034  41.010  26.122   7.531
  693POPC   NC312035  28.922  16.891   9.491
  693POPC   PO412036  29.374  16.427   9.747
  693POPC   GL112037  29.315  16.597   9.294
  693POPC   GL212038  29.312  16.929   9.177
  693POPC   C1A12039  29.319  16.593   8.817
  693POPC   D2A12040  29.017  16.546   8.484
  693POPC   C3A12041  29.147  16.656   8.054
  693POPC   C4A12042  28.832  16.617   7.725
  693POPC   C1B12043  29.126  17.096   8.840
  693POPC   C2B12044  29.170  17.035   8.433
  693POPC   C3B12045  29.087  17.175   8.051
  693POPC   C4B12046  29.142  17.032   7.623
  694POPC   NC312047   1.907   1.345   9.333
  694POPC   PO412048   1.246   1.361   9.573
  694POPC   GL112049   1.162   1.247   9.160
  694POPC   GL212050   0.853   1.436   9.171
  694POPC   C1A12051   1.050   1.203   8.750
  694POPC   D2A12052   0.865   1.348   8.410
  694POPC   C3A12053   0.948   1.064   8.117
  694POPC   C4A12054   1.244   0.952   7.838
  694POPC   C1B12055   0.907   1.693   8.792
  694POPC   C2B12056   0.884   1.865   8.347
  694POPC   C3B12057   0.968   1.610   7.958
  694POPC   C4B12058   0.868   1.255   7.656
  695POPC   NC312059  43.965  44.570   9.653
  695POPC   PO412060  43.653   0.043   9.565
  695POPC   GL112061  43.694  44.698   9.226
  695POPC   GL212062  43.988  44.448   9.165
  695POPC   C1A12063  43.765  44.740   8.793
  695POPC   D2A12064  43.788  44.465   8.475
  695POPC   C3A12065  43.677  44.587   8.116
  695POPC   C4A12066  43.696  44.549   7.702
  695POPC   C1B12067  44.205  44.393   8.770
  695POPC   C2B12068  44.280  44.592   8.366
  695POPC   C3B12069  44.160  44.489   7.963
  695POPC   C4B12070  44.101  44.254   7.580
  696POPC   NC312071  41.506  18.408   9.642
  696POPC   PO412072  41.779  18.552   9.083
  696POPC   GL112073  41.512  18.237   8.820
  696POPC   GL212074  41.507  17.822   8.916
  696POPC   C1A12075  41.525  18.485   8.443
  696POPC   D2A12076  41.858  18.579   8.147
  696POPC   C3A12077  41.655  18.403   7.814
  696POPC   C4A12078  41.198  18.482   7.795
  696POPC   C1B12079  41.762  17.825   8.551
  696POPC   C2B12080  41.615  18.048   8.203
  696POPC   C3B12081  41.356  17.971   7.854
  696POPC   C4B12082  41.766  17.813   7.764
  697POPC   NC312083   9.043  20.662   9.340
  697POPC   PO412084   8.467  20.574   9.709
  697POPC   GL112085   8.600  20.811   9.204
  697POPC   GL212086   8.768  20.544   8.915
  697POPC   C1A12087   8.904  20.986   8.783
  697POPC   D2A12088   8.892  20.644   8.429
  697POPC   C3A12089   8.971  20.778   8.015
  697POPC   C4A12090   8.921  20.659   7.585
  697POPC   C1B12091   9.257  20.493   8.773
  697POPC   C2B12092   9.596  20.472   8.472
  697POPC   C3B12093   9.400  20.500   8.100
  697POPC   C4B12094   9.246  20.295   7.757
  698POPC   NC312095  10.260  41.449   9.580
  698POPC   PO412096  10.821  41.710   9.520
  698POPC   GL112097  10.550  41.722   9.235
  698POPC   GL212098  10.714  41.441   9.084
  698POPC   C1A12099  10.593  41.850   8.831
  698POPC   D2A12100  10.633  41.487   8.546
  698POPC   C3A12101  10.683  41.487   8.095
  698POPC   C4A12102  10.456  41.684   7.777
  698POPC   C1B12103  10.273  41.452   8.927
  698POPC   C2B12104  10.136  41.730   8.624
  698POPC   C3B12105  10.163  41.625   8.201
  698POPC   C4B12106   9.944  41.747   7.838
  699POPC   NC312107   3.604  15.821   9.526
  699POPC   PO412108   4.000  15.363   9.250
  699POPC   GL112109   3.803  15.726   9.088
  699POPC   GL212110   3.874  16.097   9.177
  699POPC   C1A12111   3.522  15.922   8.822
  699POPC   D2A12112   3.661  15.968   8.412
  699POPC   C3A12113   3.354  15.972   8.093
  699POPC   C4A12114   3.435  15.812   7.699
  699POPC   C1B12115   3.855  16.312   8.763
  699POPC   C2B12116   3.856  16.408   8.285
  699POPC   C3B12117   3.835  16.115   7.878
  699POPC   C4B12118   3.783  16.263   7.401
  700POPC   NC312119  11.111   0.468   9.598
  700POPC   PO412120  11.830   0.481   9.467
  700POPC   GL112121  11.463   0.345   9.247
  700POPC   GL212122  11.226   0.611   9.121
  700POPC   C1A12123  11.232   0.151   8.905
  700POPC   D2A12124  11.303   0.128   8.474
  700POPC   C3A12125  11.182   0.486   8.233
  700POPC   C4A12126  11.366   0.579   7.860
  700POPC   C1B12127  11.562   0.549   8.789
  700POPC   C2B12128  11.765   0.571   8.393
  700POPC   C3B12129  11.781   0.861   8.030
  700POPC   C4B12130  11.787   0.696   7.604
  701POPC   NC312131  35.112  40.894   9.991
  701POPC   PO412132  35.442  40.499   9.556
  701POPC   GL112133  35.370  40.774   9.201
  701POPC   GL212134  35.043  40.941   9.274
  701POPC   C1A12135  35.292  40.895   8.762
  701POPC   D2A12136  35.118  40.600   8.468
  701POPC   C3A12137  35.145  40.713   8.058
  701POPC   C4A12138  35.544  40.768   7.870
  701POPC   C1B12139  34.880  41.249   8.944
  701POPC   C2B12140  34.991  41.447   8.554
  701POPC   C3B12141  34.953  41.313   8.091
  701POPC   C4B12142  35.170  41.113   7.724
  702POPC   NC312143  22.751  30.565   9.603
  702POPC   PO412144  23.388  30.607   9.864
  702POPC   GL112145  23.181  30.837   9.407
  702POPC   GL212146  22.855  30.856   9.200
  702POPC   C1A12147  23.247  30.855   8.895
  702POPC   D2A12148  22.997  30.748   8.505
  702POPC   C3A12149  23.184  30.757   8.094
  702POPC   C4A12150  23.030  30.674   7.667
  702POPC   C1B12151  22.594  30.879   8.820
  702POPC   C2B12152  22.477  30.710   8.436
  702POPC   C3B12153  22.669  30.714   8.039
  702POPC   C4B12154  22.564  30.925   7.649
  703POPC   NC312155   6.795  21.866   9.475
  703POPC   PO412156   6.377  22.444   9.345
  703POPC   GL112157   6.739  22.300   9.118
  703POPC   GL212158   6.609  21.965   9.019
  703POPC   C1A12159   6.931  22.577   8.802
  703POPC   D2A12160   6.743  22.603   8.400
  703POPC   C3A12161   6.810  22.277   8.136
  703POPC   C4A12162   6.578  22.109   7.829
  703POPC   C1B12163   6.831  22.076   8.639
  703POPC   C2B12164   6.999  21.817   8.311
  703POPC   C3B12165   6.984  21.826   7.874
  703POPC   C4B12166   6.787  21.769   7.494
  704POPC   NC312167  37.793  22.487   9.526
  704POPC   PO412168  37.286  22.065   9.635
  704POPC   GL112169  37.507  22.069   9.225
  704POPC   GL212170  37.356  21.796   9.054
  704POPC   C1A12171  37.605  22.233   8.786
  704POPC   D2A12172  37.823  22.069   8.368
  704POPC   C3A12173  37.670  22.165   7.932
  704POPC   C4A12174  37.841  22.457   7.576
  704POPC   C1B12175  37.464  21.794   8.616
  704POPC   C2B12176  37.451  21.741   8.199
  704POPC   C3B12177  37.453  21.721   7.796
  704POPC   C4B12178  37.217  22.014   7.691
  705POPC   NC312179  18.913  34.397   9.527
  705POPC   PO412180  19.358  34.989   9.620
  705POPC   GL112181  19.195  34.721   9.254
  705POPC   GL212182  18.865  34.758   9.116
  705POPC   C1A12183  19.207  34.435   8.861
  705POPC   D2A12184  19.244  34.583   8.411
  705POPC   C3A12185  19.310  34.308   8.058
  705POPC   C4A12186  19.361  34.380   7.623
  705POPC   C1B12187  19.157  34.954   8.782
  705POPC   C2B12188  19.099  35.101   8.357
  705POPC   C3B12189  18.839  34.818   8.100
  705POPC   C4B12190  18.930  34.653   7.687
  706POPC   NC312191   9.868  28.718   9.408
  706POPC   PO412192   9.395  28.322   9.698
  706POPC   GL112193   9.586  28.254   9.279
  706POPC   GL212194   9.954  28.235   9.220
  706POPC   C1A12195   9.539  28.147   8.844
  706POPC   D2A12196   9.582  28.371   8.437
  706POPC   C3A12197   9.491  28.260   8.016
  706POPC   C4A12198   9.636  28.077   7.657
  706POPC   C1B12199   9.984  28.411   8.806
  706POPC   C2B12200  10.059  28.544   8.391
  706POPC   C3B12201   9.929  28.514   7.966
  706POPC   C4B12202  10.154  28.650   7.618
  707POPC   NC312203  42.119  30.261   9.438
  707POPC   PO412204  42.616  29.805   9.253
  707POPC   GL112205  42.505  30.168   9.059
  707POPC   GL212206  42.173  30.111   8.964
  707POPC   C1A12207  42.548  30.163   8.622
  707POPC   D2A12208  42.745  30.008   8.250
  707POPC   C3A12209  42.414  29.835   7.970
  707POPC   C4A12210  42.268  29.553   7.657
  707POPC   C1B12211  42.077  29.904   8.580
  707POPC   C2B12212  41.994  30.137   8.226
  707POPC   C3B12213  42.023  30.158   7.767
  707POPC   C4B12214  41.984  30.344   7.310
  708POPC   NC312215  23.666  42.208   9.445
  708POPC   PO412216  23.284  42.741   9.340
  708POPC   GL112217  23.601  42.597   9.096
  708POPC   GL212218  23.845  42.824   9.243
  708POPC   C1A12219  23.726  42.352   8.708
  708POPC   D2A12220  23.773  41.953   8.425
  708POPC   C3A12221  23.799  42.013   7.990
  708POPC   C4A12222  23.599  42.391   7.858
  708POPC   C1B12223  23.915  42.839   8.794
  708POPC   C2B12224  23.837  42.793   8.350
  708POPC   C3B12225  24.005  42.723   7.909
  708POPC   C4B12226  23.915  42.533   7.480
  709POPC   NC312227   7.777  33.114   9.574
  709POPC   PO412228   7.114  33.245   9.581
  709POPC   GL112229   7.201  33.129   9.151
  709POPC   GL212230   7.512  33.027   9.158
  709POPC   C1A12231   7.174  32.961   8.742
  709POPC   D2A12232   7.085  33.144   8.391
  709POPC   C3A12233   7.169  32.974   8.027
  709POPC   C4A12234   7.307  32.834   7.667
  709POPC   C1B12235   7.667  32.926   8.804
  709POPC   C2B12236   7.606  33.168   8.425
  709POPC   C3B12237   7.679  32.996   8.018
  709POPC   C4B12238   7.866  32.731   7.723
  710POPC   NC312239  17.929  36.734   9.507
  710POPC   PO412240  18.629  36.960   9.462
  710POPC   GL112241  18.518  36.857   9.086
  710POPC   GL212242  18.155  36.885   9.074
  710POPC   C1A12243  18.492  37.003   8.677
  710POPC   D2A12244  18.177  36.819   8.426
  710POPC   C3A12245  18.296  36.907   8.031
  710POPC   C4A12246  18.591  36.738   7.781
  710POPC   C1B12247  17.974  37.164   8.773
  710POPC   C2B12248  18.046  37.317   8.373
  710POPC   C3B12249  17.854  37.189   8.010
  710POPC   C4B12250  17.991  37.008   7.635
  711POPC   NC312251   5.423  44.646   9.491
  711POPC   PO412252   4.905  44.125   9.561
  711POPC   GL112253   5.043  44.423   9.200
  711POPC   GL212254   4.993  44.783   9.163
  711POPC   C1A12255   4.873  44.534   8.751
  711POPC   D2A12256   4.824  44.708   8.344
  711POPC   C3A12257   5.045  44.571   7.987
  711POPC   C4A12258   5.082  44.847   7.700
  711POPC   C1B12259   5.335  44.722   8.841
  711POPC   C2B12260   5.503  44.802   8.447
  711POPC   C3B12261   5.437  44.926   8.066
  711POPC   C4B12262   5.543  44.681   7.715
  712POPC   NC312263  18.668  39.250   9.425
  712POPC   PO412264  18.016  38.948   9.449
  712POPC   GL112265  18.266  39.062   9.128
  712POPC   GL212266  18.293  39.418   9.087
  712POPC   C1A12267  18.196  39.069   8.702
  712POPC   D2A12268  17.933  39.149   8.364
  712POPC   C3A12269  18.003  38.954   7.969
  712POPC   C4A12270  17.896  39.112   7.562
  712POPC   C1B12271  18.547  39.504   8.728
  712POPC   C2B12272  18.426  39.381   8.336
  712POPC   C3B12273  18.320  39.342   7.913
  712POPC   C4B12274  18.377  39.309   7.443
  713POPC   NC312275  43.799  35.713   9.478
  713POPC   PO412276  43.805  36.340   9.706
  713POPC   GL112277  43.886  36.357   9.282
  713POPC   GL212278  44.072  36.068   9.168
  713POPC   C1A12279  43.883  36.432   8.849
  713POPC   D2A12280  44.057  36.214   8.489
  713POPC   C3A12281  43.833  36.362   8.119
  713POPC   C4A12282  44.040  36.422   7.729
  713POPC   C1B12283  43.779  35.915   8.864
  713POPC   C2B12284  43.635  35.918   8.472
  713POPC   C3B12285  43.855  35.858   8.125
  713POPC   C4B12286  43.745  36.016   7.729
  714POPC   NC312287  17.312  42.713   9.542
  714POPC   PO412288  17.235  43.335   9.581
  714POPC   GL112289  17.499  43.261   9.219
  714POPC   GL212290  17.650  42.919   9.167
  714POPC   C1A12291  17.532  43.248   8.763
  714POPC   D2A12292  17.335  43.105   8.369
  714POPC   C3A12293  17.525  43.329   8.036
  714POPC   C4A12294  17.666  43.248   7.598
  714POPC   C1B12295  17.936  42.936   8.774
  714POPC   C2B12296  17.862  43.008   8.341
  714POPC   C3B12297  18.012  43.177   7.947
  714POPC   C4B12298  18.048  42.903   7.549
  715POPC   NC312299  40.382  13.593   9.406
  715POPC   PO412300  39.734  13.254   9.404
  715POPC   GL112301  39.916  13.535   9.097
  715POPC   GL212302  40.087  13.866   9.107
  715POPC   C1A12303  39.803  13.520   8.675
  715POPC   D2A12304  39.582  13.335   8.345
  715POPC   C3A12305  39.810  13.412   7.962
  715POPC   C4A12306  40.061  13.585   7.627
  715POPC   C1B12307  40.299  13.644   8.738
  715POPC   C2B12308  40.193  13.626   8.281
  715POPC   C3B12309  40.162  13.956   7.943
  715POPC   C4B12310  40.430  13.985   7.541
  716POPC   NC312311  20.579  33.832   9.773
  716POPC   PO412312  20.673  33.111   9.656
  716POPC   GL112313  20.536  32.915   9.274
  716POPC   GL212314  20.853  33.033   9.154
  716POPC   C1A12315  20.446  33.018   8.852
  716POPC   D2A12316  20.683  32.936   8.496
  716POPC   C3A12317  20.430  33.033   8.171
  716POPC   C4A12318  20.569  33.106   7.784
  716POPC   C1B12319  20.873  33.322   8.771
  716POPC   C2B12320  20.741  33.444   8.334
  716POPC   C3B12321  20.905  33.516   7.908
  716POPC   C4B12322  20.996  33.248   7.562
  717POPC   NC312323   4.054   5.261   9.327
  717POPC   PO412324   4.472   4.892   9.704
  717POPC   GL112325   4.471   5.053   9.176
  717POPC   GL212326   4.148   4.950   8.946
  717POPC   C1A12327   4.404   5.266   8.707
  717POPC   D2A12328   4.091   5.149   8.402
  717POPC   C3A12329   4.331   5.023   8.056
  717POPC   C4A12330   4.365   5.268   7.690
  717POPC   C1B12331   4.150   4.680   8.618
  717POPC   C2B12332   4.210   4.524   8.224
  717POPC   C3B12333   4.191   4.598   7.793
  717POPC   C4B12334   4.178   4.843   7.459
  718POPC   NC312335   9.937  37.554   9.584
  718POPC   PO412336   9.310  37.560   9.782
  718POPC   GL112337   9.509  37.707   9.320
  718POPC   GL212338   9.816  37.942   9.284
  718POPC   C1A12339   9.787  37.584   8.901
  718POPC   D2A12340   9.925  37.412   8.489
  718POPC   C3A12341   9.810  37.630   8.109
  718POPC   C4A12342   9.558  37.661   7.755
  718POPC   C1B12343   9.861  38.087   8.847
  718POPC   C2B12344   9.998  37.943   8.467
  718POPC   C3B12345  10.046  38.092   8.056
  718POPC   C4B12346  10.044  37.832   7.692
  719POPC   NC312347   6.036  35.985   9.591
  719POPC   PO412348   5.403  35.976   9.398
  719POPC   GL112349   5.744  36.099   9.178
  719POPC   GL212350   5.817  35.780   9.155
  719POPC   C1A12351   6.005  36.154   8.834
  719POPC   D2A12352   5.965  36.385   8.453
  719POPC   C3A12353   5.932  36.154   8.075
  719POPC   C4A12354   6.079  36.154   7.666
  719POPC   C1B12355   5.592  35.808   8.790
  719POPC   C2B12356   5.751  35.867   8.446
  719POPC   C3B12357   5.527  35.817   8.096
  719POPC   C4B12358   5.641  35.910   7.718
  720POPC   NC312359  37.647  35.772   9.480
  720POPC   PO412360  37.387  35.149   9.524
  720POPC   GL112361  37.539  35.364   9.168
  720POPC   GL212362  37.886  35.276   9.166
  720POPC   C1A12363  37.344  35.423   8.731
  720POPC   D2A12364  37.512  35.610   8.337
  720POPC   C3A12365  37.439  35.390   7.925
  720POPC   C4A12366  37.410  34.989   7.717
  720POPC   C1B12367  37.841  35.514   8.769
  720POPC   C2B12368  38.103  35.534   8.415
  720POPC   C3B12369  37.947  35.607   8.034
  720POPC   C4B12370  38.043  35.506   7.651
  721POPC   NC312371   8.583   3.291   9.643
  721POPC   PO412372   9.162   3.737   9.430
  721POPC   GL112373   8.890   3.550   9.141
  721POPC   GL212374   8.939   3.221   9.267
  721POPC   C1A12375   9.107   3.406   8.751
  721POPC   D2A12376   9.334   3.534   8.366
  721POPC   C3A12377   8.999   3.744   8.109
  721POPC   C4A12378   8.691   3.821   7.774
  721POPC   C1B12379   8.780   3.014   8.913
  721POPC   C2B12380   8.757   3.130   8.500
  721POPC   C3B12381   8.977   3.241   8.134
  721POPC   C4B12382   8.826   3.342   7.710
  722POPC   NC312383  41.803   9.659   9.631
  722POPC   PO412384  41.248  10.070   9.568
  722POPC   GL112385  41.421  10.035   9.117
  722POPC   GL212386  41.632   9.726   9.088
  722POPC   C1A12387  41.450   9.900   8.647
  722POPC   D2A12388  41.527   9.531   8.349
  722POPC   C3A12389  41.464   9.625   7.893
  722POPC   C4A12390  41.230   9.945   7.686
  722POPC   C1B12391  41.938   9.775   8.705
  722POPC   C2B12392  42.055   9.605   8.340
  722POPC   C3B12393  41.972   9.644   7.958
  722POPC   C4B12394  41.941   9.470   7.593
  723POPC   NC312395   5.992  14.801   9.522
  723POPC   PO412396   5.912  14.163   9.582
  723POPC   GL112397   5.836  14.168   9.143
  723POPC   GL212398   5.776  14.524   9.137
  723POPC   C1A12399   5.809  13.995   8.716
  723POPC   D2A12400   6.023  14.150   8.309
  723POPC   C3A12401   5.932  14.060   7.841
  723POPC   C4A12402   6.194  13.949   7.473
  723POPC   C1B12403   5.733  14.487   8.689
  723POPC   C2B12404   5.527  14.235   8.372
  723POPC   C3B12405   5.582  14.399   7.991
  723POPC   C4B12406   5.768  14.564   7.643
  724POPC   NC312407   4.787  16.176   9.430
  724POPC   PO412408   5.334  15.660   9.456
  724POPC   GL112409   5.126  15.837   9.121
  724POPC   GL212410   5.207  16.184   9.103
  724POPC   C1A12411   4.922  15.883   8.713
  724POPC   D2A12412   4.812  16.045   8.286
  724POPC   C3A12413   5.034  15.917   7.927
  724POPC   C4A12414   5.155  15.485   7.793
  724POPC   C1B12415   5.412  16.025   8.717
  724POPC   C2B12416   5.390  15.938   8.302
  724POPC   C3B12417   5.457  16.267   8.013
  724POPC   C4B12418   5.286  16.238   7.582
  725POPC   NC312419  27.098  18.306   9.696
  725POPC   PO412420  26.476  18.175   9.433
  725POPC   GL112421  26.839  18.348   9.219
  725POPC   GL212422  27.203  18.335   9.191
  725POPC   C1A12423  26.841  18.569   8.821
  725POPC   D2A12424  26.556  18.614   8.407
  725POPC   C3A12425  26.568  18.277   8.030
  725POPC   C4A12426  26.465  18.153   7.561
  725POPC   C1B12427  27.162  18.177   8.772
  725POPC   C2B12428  27.070  18.375   8.357
  725POPC   C3B12429  27.193  18.353   7.917
  725POPC   C4B12430  26.927  18.371   7.563
  726POPC   NC312431  35.682  43.375   9.658
  726POPC   PO412432  35.243  42.926   9.637
  726POPC   GL112433  35.343  43.190   9.284
  726POPC   GL212434  35.020  43.323   9.170
  726POPC   C1A12435  35.450  43.302   8.842
  726POPC   D2A12436  35.451  43.142   8.431
  726POPC   C3A12437  35.347  43.350   8.079
  726POPC   C4A12438  35.364  43.164   7.686
  726POPC   C1B12439  35.039  42.909   8.952
  726POPC   C2B12440  35.047  42.833   8.508
  726POPC   C3B12441  35.171  42.852   8.080
  726POPC   C4B12442  35.072  42.733   7.636
  727POPC   NC312443  36.215  27.949   9.490
  727POPC   PO412444  36.070  28.600   9.636
  727POPC   GL112445  36.177  28.411   9.209
  727POPC   GL212446  35.990  28.110   9.064
  727POPC   C1A12447  36.141  28.507   8.740
  727POPC   D2A12448  35.851  28.573   8.365
  727POPC   C3A12449  36.004  28.377   7.978
  727POPC   C4A12450  36.041  28.459   7.513
  727POPC   C1B12451  36.224  28.001   8.691
  727POPC   C2B12452  36.379  28.147   8.298
  727POPC   C3B12453  36.341  28.021   7.860
  727POPC   C4B12454  36.333  28.058   7.409
  728POPC   NC312455  19.762   1.698   9.615
  728POPC   PO412456  19.565   2.247   9.222
  728POPC   GL112457  19.836   2.010   8.960
  728POPC   GL212458  19.983   1.722   9.149
  728POPC   C1A12459  19.850   2.203   8.552
  728POPC   D2A12460  19.464   2.380   8.392
  728POPC   C3A12461  19.592   2.209   8.033
  728POPC   C4A12462  20.018   2.095   7.987
  728POPC   C1B12463  20.208   1.675   8.778
  728POPC   C2B12464  20.073   1.747   8.371
  728POPC   C3B12465  19.906   1.557   8.005
  728POPC   C4B12466  19.671   1.801   7.734
  729POPC   NC312467  41.636   4.324   9.573
  729POPC   PO412468  41.291   3.868   9.262
  729POPC   GL112469  41.579   4.173   9.094
  729POPC   GL212470  41.566   4.555   9.109
  729POPC   C1A12471  41.728   4.279   8.730
  729POPC   D2A12472  41.926   4.197   8.406
  729POPC   C3A12473  41.678   4.001   8.125
  729POPC   C4A12474  41.718   4.117   7.729
  729POPC   C1B12475  41.557   4.757   8.700
  729POPC   C2B12476  41.529   4.562   8.295
  729POPC   C3B12477  41.556   4.577   7.856
  729POPC   C4B12478  41.817   4.704   7.540
  730POPC   NC312479  36.797  22.404   9.548
  730POPC   PO412480  36.907  21.733   9.354
  730POPC   GL112481  36.967  22.116   9.150
  730POPC   GL212482  37.153  22.455   9.174
  730POPC   C1A12483  37.107  22.159   8.741
  730POPC   D2A12484  37.011  21.953   8.373
  730POPC   C3A12485  36.903  22.207   8.041
  730POPC   C4A12486  36.593  22.040   7.784
  730POPC   C1B12487  36.754  22.503   8.903
  730POPC   C2B12488  36.754  22.458   8.484
  730POPC   C3B12489  36.521  22.554   8.121
  730POPC   C4B12490  36.623  22.575   7.710
  731POPC   NC312491  35.110   6.114   9.473
  731POPC   PO412492  35.384   5.444   9.625
  731POPC   GL112493  35.340   5.628   9.186
  731POPC   GL212494  35.362   6.002   9.046
  731POPC   C1A12495  35.227   5.613   8.737
  731POPC   D2A12496  35.468   5.913   8.512
  731POPC   C3A12497  35.601   5.802   8.123
  731POPC   C4A12498  35.716   5.800   7.728
  731POPC   C1B12499  35.030   6.097   8.702
  731POPC   C2B12500  35.052   5.976   8.230
  731POPC   C3B12501  35.231   5.965   7.801
  731POPC   C4B12502  35.093   6.201   7.413
  732POPC   NC312503  15.607  19.485   9.870
  732POPC   PO412504  16.019  19.099   9.571
  732POPC   GL112505  15.982  18.939   9.145
  732POPC   GL212506  16.298  18.937   9.054
  732POPC   C1A12507  15.828  18.904   8.733
  732POPC   D2A12508  15.743  19.274   8.487
  732POPC   C3A12509  15.872  19.206   8.077
  732POPC   C4A12510  15.796  18.821   7.835
  732POPC   C1B12511  16.186  19.283   8.808
  732POPC   C2B12512  16.209  19.452   8.408
  732POPC   C3B12513  16.377  19.353   8.020
  732POPC   C4B12514  16.220  19.173   7.665
  733POPC   NC312515  37.615  33.730   9.996
  733POPC   PO412516  37.652  33.696   9.359
  733POPC   GL112517  37.791  33.960   9.088
  733POPC   GL212518  38.048  34.175   9.220
  733POPC   C1A12519  37.864  33.777   8.711
  733POPC   D2A12520  37.562  33.669   8.423
  733POPC   C3A12521  37.677  33.723   8.068
  733POPC   C4A12522  37.425  33.680   7.744
  733POPC   C1B12523  38.157  34.173   8.770
  733POPC   C2B12524  37.803  34.191   8.453
  733POPC   C3B12525  37.878  34.227   8.063
  733POPC   C4B12526  37.795  34.039   7.693
  734POPC   NC312527  43.431  10.577   9.512
  734POPC   PO412528  42.784  10.542   9.476
  734POPC   GL112529  42.953  10.581   9.092
  734POPC   GL212530  43.289  10.535   9.031
  734POPC   C1A12531  42.979  10.625   8.672
  734POPC   D2A12532  43.106  10.656   8.302
  734POPC   C3A12533  42.999  10.359   8.040
  734POPC   C4A12534  42.915  10.497   7.642
  734POPC   C1B12535  43.404  10.887   8.681
  734POPC   C2B12536  43.479  10.947   8.173
  734POPC   C3B12537  43.385  10.637   7.859
  734POPC   C4B12538  43.358  10.580   7.395
  735POPC   NC312539  20.120   3.156   9.479
  735POPC   PO412540  19.670   3.680   9.534
  735POPC   GL112541  19.705   3.465   9.152
  735POPC   GL212542  20.036   3.514   9.139
  735POPC   C1A12543  19.682   3.372   8.709
  735POPC   D2A12544  19.595   3.654   8.357
  735POPC   C3A12545  19.605   3.488   7.926
  735POPC   C4A12546  19.753   3.796   7.645
  735POPC   C1B12547  20.225   3.425   8.783
  735POPC   C2B12548  20.094   3.456   8.372
  735POPC   C3B12549  20.109   3.502   7.932
  735POPC   C4B12550  20.309   3.240   7.662
  736POPC   NC312551  38.620  17.640   9.486
  736POPC   PO412552  38.161  17.125   9.660
  736POPC   GL112553  38.154  17.392   9.276
  736POPC   GL212554  38.142  17.089   9.088
  736POPC   C1A12555  38.196  17.688   8.909
  736POPC   D2A12556  38.109  17.676   8.469
  736POPC   C3A12557  38.435  17.629   8.171
  736POPC   C4A12558  38.485  17.707   7.733
  736POPC   C1B12559  38.316  17.246   8.690
  736POPC   C2B12560  38.201  17.195   8.234
  736POPC   C3B12561  38.134  17.353   7.824
  736POPC   C4B12562  38.406  17.286   7.468
  737POPC   NC312563  41.959   6.141   9.521
  737POPC   PO412564  41.784   6.817   9.371
  737POPC   GL112565  41.636   6.684   8.975
  737POPC   GL212566  41.377   6.904   9.054
  737POPC   C1A12567  41.324   6.652   8.622
  737POPC   D2A12568  41.371   6.805   8.212
  737POPC   C3A12569  41.579   6.450   7.986
  737POPC   C4A12570  41.852   6.303   7.619
  737POPC   C1B12571  41.608   7.115   8.688
  737POPC   C2B12572  41.861   7.046   8.310
  737POPC   C3B12573  41.736   6.972   7.880
  737POPC   C4B12574  41.381   6.772   7.650
  738POPC   NC312575  25.062  10.041   9.490
  738POPC   PO412576  25.462   9.522   9.457
  738POPC   GL112577  25.339   9.786   9.110
  738POPC   GL212578  25.000   9.685   9.106
  738POPC   C1A12579  25.468   9.967   8.689
  738POPC   D2A12580  25.255  10.102   8.306
  738POPC   C3A12581  25.360  10.029   7.890
  738POPC   C4A12582  25.174   9.667   7.718
  738POPC   C1B12583  24.946   9.926   8.720
  738POPC   C2B12584  24.743  10.166   8.366
  738POPC   C3B12585  24.821  10.048   7.922
  738POPC   C4B12586  24.807   9.956   7.435
  739POPC   NC312587   2.251   3.805   9.881
  739POPC   PO412588   1.990   3.271   9.499
  739POPC   GL112589   1.882   3.474   9.125
  739POPC   GL212590   1.815   3.831   9.186
  739POPC   C1A12591   1.886   3.318   8.723
  739POPC   D2A12592   2.137   3.373   8.398
  739POPC   C3A12593   1.978   3.459   8.013
  739POPC   C4A12594   2.219   3.680   7.759
  739POPC   C1B12595   1.935   3.819   8.733
  739POPC   C2B12596   1.730   3.777   8.326
  739POPC   C3B12597   1.772   3.905   7.885
  739POPC   C4B12598   1.909   3.888   7.421
  740POPC   NC312599  29.784   5.178   9.619
  740POPC   PO412600  30.065   4.552   9.597
  740POPC   GL112601  29.841   4.806   9.233
  740POPC   GL212602  29.932   5.186   9.150
  740POPC   C1A12603  29.846   4.853   8.764
  740POPC   D2A12604  29.704   4.763   8.317
  740POPC   C3A12605  29.969   4.922   7.992
  740POPC   C4A12606  30.052   5.301   7.745
  740POPC   C1B12607  29.795   5.372   8.796
  740POPC   C2B12608  29.832   5.260   8.394
  740POPC   C3B12609  29.663   5.420   8.064
  740POPC   C4B12610  29.711   5.712   7.750
  741POPC   NC312611  19.844  39.421   9.584
  741POPC   PO412612  19.310  39.112   9.500
  741POPC   GL112613  19.743  39.049   9.242
  741POPC   GL212614  19.938  39.376   9.097
  741POPC   C1A12615  19.942  38.990   8.796
  741POPC   D2A12616  19.996  39.136   8.354
  741POPC   C3A12617  19.760  39.158   7.978
  741POPC   C4A12618  19.545  38.875   7.715
  741POPC   C1B12619  19.903  39.530   8.677
  741POPC   C2B12620  20.180  39.604   8.303
  741POPC   C3B12621  20.108  39.512   7.853
  741POPC   C4B12622  20.270  39.369   7.459
  742POPC   NC312623  36.205  33.054   9.488
  742POPC   PO412624  36.626  32.649   9.143
  742POPC   GL112625  36.179  32.728   9.081
  742POPC   GL212626  36.175  33.081   8.970
  742POPC   C1A12627  35.859  32.686   8.745
  742POPC   D2A12628  35.802  32.908   8.323
  742POPC   C3A12629  35.993  32.729   7.932
  742POPC   C4A12630  35.998  32.756   7.466
  742POPC   C1B12631  36.349  32.904   8.613
  742POPC   C2B12632  36.350  32.968   8.215
  742POPC   C3B12633  36.100  33.269   8.043
  742POPC   C4B12634  36.060  33.214   7.655
  743POPC   NC312635  13.611  17.866   9.511
  743POPC   PO412636  13.443  18.547   9.553
  743POPC   GL112637  13.545  18.301   9.192
  743POPC   GL212638  13.294  18.082   9.170
  743POPC   C1A12639  13.720  18.338   8.762
  743POPC   D2A12640  13.946  18.231   8.368
  743POPC   C3A12641  13.755  18.360   8.000
  743POPC   C4A12642  13.399  18.531   7.922
  743POPC   C1B12643  13.404  17.937   8.771
  743POPC   C2B12644  13.398  18.151   8.369
  743POPC   C3B12645  13.233  18.056   7.988
  743POPC   C4B12646  13.565  17.984   7.711
  744POPC   NC312647  17.033  36.331   9.512
  744POPC   PO412648  16.403  35.977   9.518
  744POPC   GL112649  16.711  36.064   9.193
  744POPC   GL212650  17.033  35.939   9.021
  744POPC   C1A12651  16.802  36.372   8.877
  744POPC   D2A12652  16.876  36.585   8.503
  744POPC   C3A12653  16.808  36.331   8.131
  744POPC   C4A12654  16.707  36.336   7.701
  744POPC   C1B12655  16.688  35.848   8.724
  744POPC   C2B12656  16.704  35.807   8.275
  744POPC   C3B12657  17.034  35.896   7.972
  744POPC   C4B12658  17.117  35.940   7.490
  745POPC   NC312659   1.090  13.550   9.617
  745POPC   PO412660   1.638  13.864   9.446
  745POPC   GL112661   1.420  13.577   9.160
  745POPC   GL212662   1.067  13.463   9.127
  745POPC   C1A12663   1.244  13.818   8.817
  745POPC   D2A12664   1.427  13.917   8.428
  745POPC   C3A12665   1.376  13.648   8.108
  745POPC   C4A12666   1.361  13.754   7.685
  745POPC   C1B12667   0.822  13.502   8.787
  745POPC   C2B12668   0.959  13.667   8.419
  745POPC   C3B12669   0.808  13.596   8.038
  745POPC   C4B12670   0.883  13.596   7.634
  746POPC   NC312671  40.831  12.852   9.781
  746POPC   PO412672  40.381  12.479   9.441
  746POPC   GL112673  40.648  12.857   9.138
  746POPC   GL212674  40.978  12.992   9.167
  746POPC   C1A12675  40.661  13.201   8.792
  746POPC   D2A12676  40.619  13.280   8.313
  746POPC   C3A12677  40.736  12.944   7.974
  746POPC   C4A12678  40.503  12.635   7.682
  746POPC   C1B12679  40.972  12.779   8.756
  746POPC   C2B12680  40.630  12.782   8.468
  746POPC   C3B12681  40.604  12.471   8.165
  746POPC   C4B12682  41.017  12.470   7.996
  747POPC   NC312683   0.340  25.766   9.521
  747POPC   PO412684   0.465  26.437   9.553
  747POPC   GL112685   0.512  26.183   9.146
  747POPC   GL212686   0.560  25.811   9.082
  747POPC   C1A12687   0.314  26.149   8.721
  747POPC   D2A12688   0.314  26.375   8.341
  747POPC   C3A12689   0.188  26.098   8.042
  747POPC   C4A12690   0.226  25.983   7.654
  747POPC   C1B12691   0.745  25.865   8.718
  747POPC   C2B12692   0.606  25.938   8.315
  747POPC   C3B12693   0.680  26.018   7.894
  747POPC   C4B12694   0.675  25.662   7.635
  748POPC   NC312695  25.145  12.533   9.457
  748POPC   PO412696  25.374  11.875   9.510
  748POPC   GL112697  25.419  12.156   9.190
  748POPC   GL212698  25.307  11.849   8.985
  748POPC   C1A12699  25.487  12.295   8.781
  748POPC   D2A12700  25.186  12.130   8.507
  748POPC   C3A12701  25.303  12.095   8.098
  748POPC   C4A12702  25.092  12.188   7.717
  748POPC   C1B12703  25.061  11.605   8.688
  748POPC   C2B12704  24.917  11.738   8.276
  748POPC   C3B12705  25.099  11.667   7.878
  748POPC   C4B12706  25.460  11.828   7.681
  749POPC   NC312707   3.095  16.671   9.660
  749POPC   PO412708   3.682  16.895   9.600
  749POPC   GL112709   3.694  16.626   9.209
  749POPC   GL212710   3.432  16.348   9.312
  749POPC   C1A12711   3.773  16.821   8.782
  749POPC   D2A12712   3.604  17.044   8.430
  749POPC   C3A12713   3.536  16.788   8.125
  749POPC   C4A12714   3.785  16.611   7.805
  749POPC   C1B12715   3.284  16.397   8.893
  749POPC   C2B12716   3.345  16.439   8.465
  749POPC   C3B12717   3.148  16.439   8.064
  749POPC   C4B12718   3.358  16.305   7.679
  750POPC   NC312719  40.140  18.571   9.480
  750POPC   PO412720  39.651  18.084   9.463
  750POPC   GL112721  39.900  18.255   9.145
  750POPC   GL212722  39.755  18.592   9.120
  750POPC   C1A12723  40.074  18.352   8.739
  750POPC   D2A12724  39.911  18.229   8.311
  750POPC   C3A12725  40.176  18.150   7.934
  750POPC   C4A12726  40.252  18.190   7.479
  750POPC   C1B12727  39.671  18.664   8.685
  750POPC   C2B12728  40.006  18.730   8.394
  750POPC   C3B12729  40.097  18.649   7.962
  750POPC   C4B12730  39.693  18.475   7.901
  751POPC   NC312731  12.202  33.606   9.655
  751POPC   PO412732  12.052  33.002   9.686
  751POPC   GL112733  12.171  32.996   9.243
  751POPC   GL212734  11.822  32.970   9.164
  751POPC   C1A12735  12.130  32.723   8.865
  751POPC   D2A12736  11.996  32.709   8.451
  751POPC   C3A12737  12.346  32.764   8.159
  751POPC   C4A12738  12.243  32.896   7.724
  751POPC   C1B12739  11.926  33.180   8.788
  751POPC   C2B12740  12.276  33.151   8.532
  751POPC   C3B12741  12.164  33.233   8.125
  751POPC   C4B12742  12.259  33.407   7.747
  752POPC   NC312743  39.016  23.167   9.438
  752POPC   PO412744  39.394  22.751   9.697
  752POPC   GL112745  39.448  22.977   9.237
  752POPC   GL212746  39.161  22.960   8.988
  752POPC   C1A12747  39.619  22.949   8.792
  752POPC   D2A12748  39.336  23.064   8.448
  752POPC   C3A12749  39.386  23.063   8.003
  752POPC   C4A12750  39.408  22.906   7.571
  752POPC   C1B12751  39.065  22.658   8.658
  752POPC   C2B12752  39.253  22.585   8.257
  752POPC   C3B12753  39.022  22.722   7.884
  752POPC   C4B12754  38.921  22.711   7.455
  753POPC   NC312755  43.506  25.637   9.904
  753POPC   PO412756  43.343  26.209   9.537
  753POPC   GL112757  43.278  26.113   9.122
  753POPC   GL212758  42.942  26.119   9.163
  753POPC   C1A12759  43.223  25.962   8.712
  753POPC   D2A12760  43.002  25.873   8.338
  753POPC   C3A12761  43.132  26.053   7.968
  753POPC   C4A12762  43.458  25.993   7.713
  753POPC   C1B12763  42.930  26.396   8.800
  753POPC   C2B12764  42.857  26.424   8.347
  753POPC   C3B12765  42.812  26.421   7.886
  753POPC   C4B12766  42.709  26.122   7.537
  754POPC   NC312767  41.594  17.053   9.503
  754POPC   PO412768  41.252  16.477   9.455
  754POPC   GL112769  41.451  16.715   9.162
  754POPC   GL212770  41.821  16.650   9.159
  754POPC   C1A12771  41.561  16.927   8.818
  754POPC   D2A12772  41.615  16.755   8.432
  754POPC   C3A12773  41.408  16.943   8.086
  754POPC   C4A12774  41.392  16.622   7.772
  754POPC   C1B12775  41.920  16.389   8.774
  754POPC   C2B12776  42.065  16.499   8.366
  754POPC   C3B12777  42.034  16.887   8.134
  754POPC   C4B12778  41.818  16.904   7.754
  755POPC   NC312779  27.336   7.362   9.493
  755POPC   PO412780  27.127   6.769   9.253
  755POPC   GL112781  27.366   7.113   9.016
  755POPC   GL212782  27.688   7.251   9.143
  755POPC   C1A12783  27.498   7.495   8.747
  755POPC   D2A12784  27.281   7.796   8.479
  755POPC   C3A12785  27.342   7.658   8.038
  755POPC   C4A12786  27.552   7.363   7.744
  755POPC   C1B12787  27.951   7.565   8.999
  755POPC   C2B12788  28.015   7.544   8.575
  755POPC   C3B12789  27.816   7.444   8.193
  755POPC   C4B12790  28.020   7.497   7.794
  756POPC   NC312791  16.813   2.533   9.622
  756POPC   PO412792  16.461   3.049   9.454
  756POPC   GL112793  16.657   2.777   9.173
  756POPC   GL212794  17.005   2.840   9.271
  756POPC   C1A12795  16.592   2.675   8.741
  756POPC   D2A12796  16.780   2.593   8.350
  756POPC   C3A12797  16.577   2.656   7.974
  756POPC   C4A12798  16.623   2.535   7.535
  756POPC   C1B12799  17.101   2.927   8.852
  756POPC   C2B12800  16.987   3.026   8.436
  756POPC   C3B12801  17.053   2.914   7.991
  756POPC   C4B12802  17.082   3.303   7.750
  757POPC   NC312803  27.200  43.268   9.526
  757POPC   PO412804  26.839  42.723   9.576
  757POPC   GL112805  26.978  42.955   9.184
  757POPC   GL212806  26.870  43.322   9.139
  757POPC   C1A12807  26.843  42.974   8.763
  757POPC   D2A12808  26.771  43.161   8.351
  757POPC   C3A12809  26.914  42.834   8.030
  757POPC   C4A12810  27.046  42.914   7.586
  757POPC   C1B12811  27.117  43.415   8.776
  757POPC   C2B12812  27.265  43.451   8.347
  757POPC   C3B12813  27.103  43.288   7.945
  757POPC   C4B12814  27.103  43.468   7.530
  758POPC   NC312815  26.721  14.080   9.421
  758POPC   PO412816  27.072  14.699   9.386
  758POPC   GL112817  26.893  14.429   9.116
  758POPC   GL212818  26.560  14.492   9.145
  758POPC   C1A12819  26.774  14.196   8.760
  758POPC   D2A12820  26.712  14.341   8.376
  758POPC   C3A12821  26.989  14.491   8.105
  758POPC   C4A12822  27.056  14.482   7.685
  758POPC   C1B12823  26.445  14.629   8.743
  758POPC   C2B12824  26.314  14.652   8.297
  758POPC   C3B12825  26.491  14.449   7.922
  758POPC   C4B12826  26.610  14.505   7.486
  759POPC   NC312827  42.028  37.642   9.333
  759POPC   PO412828  42.700  37.439   9.543
  759POPC   GL112829  42.408  37.344   9.151
  759POPC   GL212830  42.470  37.667   9.037
  759POPC   C1A12831  42.206  37.496   8.672
  759POPC   D2A12832  42.360  37.729   8.288
  759POPC   C3A12833  42.289  37.598   7.861
  759POPC   C4A12834  42.380  37.446   7.444
  759POPC   C1B12835  42.459  37.995   8.727
  759POPC   C2B12836  42.568  38.237   8.366
  759POPC   C3B12837  42.546  38.077   7.952
  759POPC   C4B12838  42.689  37.840   7.612
  760POPC   NC312839  24.877  43.492   9.525
  760POPC   PO412840  24.162  43.399   9.633
  760POPC   GL112841  24.395  43.368   9.257
  760POPC   GL212842  24.280  43.061   9.073
  760POPC   C1A12843  24.376  43.484   8.818
  760POPC   D2A12844  24.215  43.169   8.515
  760POPC   C3A12845  24.472  43.179   8.170
  760POPC   C4A12846  24.312  43.141   7.777
  760POPC   C1B12847  24.637  43.006   8.778
  760POPC   C2B12848  24.752  42.766   8.403
  760POPC   C3B12849  24.538  42.694   7.999
  760POPC   C4B12850  24.412  42.691   7.569
  761POPC   NC312851  26.753  10.801   9.341
  761POPC   PO412852  27.215  10.376   9.677
  761POPC   GL112853  27.047  10.315   9.229
  761POPC   GL212854  26.657  10.316   9.179
  761POPC   C1A12855  27.009  10.442   8.767
  761POPC   D2A12856  27.134  10.818   8.459
  761POPC   C3A12857  27.165  10.642   8.037
  761POPC   C4A12858  26.940  10.240   7.863
  761POPC   C1B12859  26.507  10.584   8.765
  761POPC   C2B12860  26.588  10.805   8.343
  761POPC   C3B12861  26.683  10.704   7.894
  761POPC   C4B12862  26.588  10.733   7.389
  762POPC   NC312863  44.046  34.155   9.526
  762POPC   PO412864  43.703  33.570   9.422
  762POPC   GL112865  43.899  33.831   9.156
  762POPC   GL212866  44.221  33.815   9.090
  762POPC   C1A12867  43.882  33.784   8.728
  762POPC   D2A12868  44.169  33.807   8.457
  762POPC   C3A12869  43.935  33.764   8.130
  762POPC   C4A12870  44.016  33.774   7.716
  762POPC   C1B12871  44.260  33.452   8.862
  762POPC   C2B12872  44.229  33.282   8.502
  762POPC   C3B12873  44.284  33.407   8.139
  762POPC   C4B12874  44.233  33.273   7.785
  763POPC   NC312875   3.193  27.814   9.631
  763POPC   PO412876   2.528  27.886   9.698
  763POPC   GL112877   2.692  27.855   9.248
  763POPC   GL212878   3.044  27.871   9.137
  763POPC   C1A12879   2.706  27.584   8.848
  763POPC   D2A12880   2.920  27.515   8.434
  763POPC   C3A12881   2.709  27.524   8.019
  763POPC   C4A12882   2.520  27.217   7.720
  763POPC   C1B12883   2.966  28.013   8.701
  763POPC   C2B12884   3.001  28.000   8.239
  763POPC   C3B12885   2.960  27.938   7.813
  763POPC   C4B12886   2.724  27.698   7.508
  764POPC   NC312887  18.403  33.275   9.587
  764POPC   PO412888  17.953  32.795   9.779
  764POPC   GL112889  18.110  32.777   9.339
  764POPC   GL212890  18.440  32.919   9.195
  764POPC   C1A12891  18.014  32.795   8.901
  764POPC   D2A12892  17.919  32.927   8.486
  764POPC   C3A12893  18.169  32.975   8.124
  764POPC   C4A12894  17.993  33.058   7.740
  764POPC   C1B12895  18.281  33.237   8.846
  764POPC   C2B12896  18.180  33.427   8.406
  764POPC   C3B12897  18.215  33.485   7.930
  764POPC   C4B12898  18.578  33.425   7.657
  765POPC   NC312899  40.263  32.526   9.395
  765POPC   PO412900  40.935  32.230   9.498
  765POPC   GL112901  40.688  32.165   9.133
  765POPC   GL212902  40.594  32.466   8.997
  765POPC   C1A12903  40.790  32.015   8.716
  765POPC   D2A12904  41.203  31.999   8.466
  765POPC   C3A12905  41.119  31.857   8.043
  765POPC   C4A12906  40.814  32.028   7.782
  765POPC   C1B12907  41.017  32.474   8.762
  765POPC   C2B12908  41.066  32.665   8.371
  765POPC   C3B12909  40.882  32.473   8.031
  765POPC   C4B12910  40.764  32.504   7.618
  766POPC   NC312911  37.775  27.374   9.448
  766POPC   PO412912  37.393  27.872   9.429
  766POPC   GL112913  37.564  27.676   9.095
  766POPC   GL212914  37.856  27.713   9.076
  766POPC   C1A12915  37.542  27.471   8.704
  766POPC   D2A12916  37.752  27.311   8.360
  766POPC   C3A12917  37.551  27.398   7.987
  766POPC   C4A12918  37.514  27.767   7.767
  766POPC   C1B12919  38.089  27.583   8.696
  766POPC   C2B12920  38.312  27.557   8.314
  766POPC   C3B12921  38.056  27.479   7.957
  766POPC   C4B12922  37.984  27.610   7.526
  767POPC   NC312923  11.528   7.642   9.749
  767POPC   PO412924  10.885   7.392   9.667
  767POPC   GL112925  11.244   7.308   9.325
  767POPC   GL212926  11.367   7.635   9.246
  767POPC   C1A12927  11.475   7.294   8.872
  767POPC   D2A12928  11.336   7.139   8.451
  767POPC   C3A12929  11.527   7.061   8.049
  767POPC   C4A12930  11.251   7.191   7.738
  767POPC   C1B12931  11.628   7.807   8.916
  767POPC   C2B12932  11.626   7.700   8.448
  767POPC   C3B12933  11.516   7.592   8.000
  767POPC   C4B12934  11.617   7.876   7.640
  768POPC   NC312935  36.606  15.718   9.469
  768POPC   PO412936  37.304  15.755   9.435
  768POPC   GL112937  36.969  15.888   9.125
  768POPC   GL212938  36.600  15.999   9.051
  768POPC   C1A12939  37.000  16.143   8.747
  768POPC   D2A12940  37.315  16.192   8.427
  768POPC   C3A12941  37.074  16.281   8.091
  768POPC   C4A12942  37.005  16.046   7.750
  768POPC   C1B12943  36.560  15.640   8.789
  768POPC   C2B12944  36.637  15.446   8.414
  768POPC   C3B12945  36.829  15.574   8.065
  768POPC   C4B12946  36.576  15.783   7.807
  769POPC   NC312947   8.622  34.405   9.417
  769POPC   PO412948   8.080  34.761   9.544
  769POPC   GL112949   8.322  34.736   9.174
  769POPC   GL212950   8.201  34.371   9.111
  769POPC   C1A12951   8.513  34.609   8.778
  769POPC   D2A12952   8.382  34.381   8.399
  769POPC   C3A12953   8.096  34.638   8.176
  769POPC   C4A12954   8.237  34.787   7.798
  769POPC   C1B12955   7.968  34.366   8.709
  769POPC   C2B12956   7.887  34.173   8.312
  769POPC   C3B12957   7.895  34.290   7.858
  769POPC   C4B12958   7.782  34.627   7.625
  770POPC   NC312959  17.872  13.331   9.425
  770POPC   PO412960  18.394  13.782   9.492
  770POPC   GL112961  18.140  13.809   9.108
  770POPC   GL212962  17.916  14.137   9.073
  770POPC   C1A12963  18.197  13.598   8.695
  770POPC   D2A12964  18.422  13.253   8.436
  770POPC   C3A12965  18.342  13.288   7.994
  770POPC   C4A12966  17.986  13.338   7.757
  770POPC   C1B12967  18.278  14.151   8.750
  770POPC   C2B12968  18.382  14.178   8.350
  770POPC   C3B12969  18.346  13.816   8.116
  770POPC   C4B12970  18.238  13.774   7.716
  771POPC   NC312971  34.870  24.304   9.392
  771POPC   PO412972  35.446  24.626   9.547
  771POPC   GL112973  35.245  24.688   9.186
  771POPC   GL212974  35.288  24.338   9.096
  771POPC   C1A12975  35.067  24.645   8.783
  771POPC   D2A12976  35.232  24.512   8.396
  771POPC   C3A12977  35.189  24.684   7.979
  771POPC   C4A12978  35.405  24.675   7.566
  771POPC   C1B12979  35.057  24.129   8.734
  771POPC   C2B12980  34.808  24.244   8.362
  771POPC   C3B12981  34.870  24.301   7.937
  771POPC   C4B12982  35.083  24.163   7.570
  772POPC   NC312983  27.042  23.402   9.802
  772POPC   PO412984  27.052  24.075   9.671
  772POPC   GL112985  26.797  23.851   9.361
  772POPC   GL212986  26.869  23.504   9.253
  772POPC   C1A12987  26.727  23.842   8.920
  772POPC   D2A12988  26.609  23.760   8.518
  772POPC   C3A12989  26.829  23.912   8.185
  772POPC   C4A12990  26.774  23.848   7.762
  772POPC   C1B12991  26.697  23.347   8.829
  772POPC   C2B12992  26.996  23.413   8.450
  772POPC   C3B12993  27.136  23.400   7.997
  772POPC   C4B12994  26.904  23.380   7.590
  773POPC   NC312995  16.528  25.826   9.394
  773POPC   PO412996  16.880  26.333   9.695
  773POPC   GL112997  16.850  26.249   9.233
  773POPC   GL212998  16.944  25.917   9.090
  773POPC   C1A12999  16.919  26.396   8.784
  773POPC   D2A13000  16.700  26.348   8.375
  773POPC   C3A13001  16.877  26.344   7.977
  773POPC   C4A13002  17.141  26.049   7.818
  773POPC   C1B13003  16.559  26.024   8.773
  773POPC   C2B13004  16.400  25.804   8.384
  773POPC   C3B13005  16.463  25.786   7.924
  773POPC   C4B13006  16.299  25.815   7.499
  774POPC   NC313007  41.041  37.480   9.351
  774POPC   PO413008  40.566  37.954   9.546
  774POPC   GL113009  40.671  37.803   9.103
  774POPC   GL213010  41.009  37.860   9.038
  774POPC   C1A13011  40.645  37.724   8.644
  774POPC   D2A13012  40.429  37.729   8.218
  774POPC   C3A13013  40.586  37.454   7.893
  774POPC   C4A13014  41.025  37.385   7.772
  774POPC   C1B13015  41.173  37.715   8.655
  774POPC   C2B13016  40.998  37.600   8.260
  774POPC   C3B13017  40.909  37.876   7.936
  774POPC   C4B13018  40.986  37.852   7.506
  775POPC   NC313019   6.067  19.403   9.499
  775POPC   PO413020   5.550  19.011   9.536
  775POPC   GL113021   5.746  18.960   9.193
  775POPC   GL213022   5.521  18.706   9.088
  775POPC   C1A13023   5.918  19.190   8.865
  775POPC   D2A13024   6.031  19.029   8.481
  775POPC   C3A13025   5.961  19.178   8.104
  775POPC   C4A13026   6.266  19.121   7.795
  775POPC   C1B13027   5.789  18.679   8.769
  775POPC   C2B13028   5.596  18.753   8.397
  775POPC   C3B13029   5.750  18.707   8.021
  775POPC   C4B13030   5.803  18.925   7.690
  776POPC   NC313031  39.562  24.004   9.471
  776POPC   PO413032  39.036  23.597   9.271
  776POPC   GL113033  39.153  23.961   8.989
  776POPC   GL213034  39.491  23.968   8.975
  776POPC   C1A13035  39.273  23.910   8.517
  776POPC   D2A13036  39.442  23.558   8.232
  776POPC   C3A13037  39.106  23.498   7.930
  776POPC   C4A13038  38.860  23.846   7.852
  776POPC   C1B13039  39.723  24.118   8.637
  776POPC   C2B13040  39.630  24.151   8.191
  776POPC   C3B13041  39.461  23.879   7.831
  776POPC   C4B13042  39.530  23.429   7.649
  777POPC   NC313043  42.639   5.729   9.535
  777POPC   PO413044  42.041   5.347   9.419
  777POPC   GL113045  42.212   5.758   9.231
  777POPC   GL213046  41.927   5.924   9.061
  777POPC   C1A13047  42.384   5.988   8.853
  777POPC   D2A13048  42.336   5.884   8.400
  777POPC   C3A13049  42.552   5.971   7.990
  777POPC   C4A13050  42.708   5.754   7.594
  777POPC   C1B13051  42.031   5.602   8.766
  777POPC   C2B13052  41.988   5.473   8.297
  777POPC   C3B13053  42.060   5.750   7.944
  777POPC   C4B13054  42.042   6.136   8.050
  778POPC   NC313055  40.993  19.267   9.625
  778POPC   PO413056  40.530  18.840   9.400
  778POPC   GL113057  40.808  19.048   9.169
  778POPC   GL213058  40.530  19.218   9.005
  778POPC   C1A13059  40.928  18.951   8.738
  778POPC   D2A13060  40.776  19.118   8.335
  778POPC   C3A13061  40.784  18.846   7.947
  778POPC   C4A13062  40.897  18.824   7.485
  778POPC   C1B13063  40.875  19.441   8.819
  778POPC   C2B13064  41.182  19.401   8.490
  778POPC   C3B13065  41.051  19.485   8.063
  778POPC   C4B13066  40.856  19.299   7.687
  779POPC   NC313067   7.021   6.889   9.338
  779POPC   PO413068   7.749   6.650   9.558
  779POPC   GL113069   7.506   6.808   9.222
  779POPC   GL213070   7.330   6.486   9.251
  779POPC   C1A13071   7.344   6.918   8.772
  779POPC   D2A13072   7.493   7.015   8.338
  779POPC   C3A13073   7.236   6.932   7.937
  779POPC   C4A13074   7.274   6.857   7.472
  779POPC   C1B13075   7.597   6.448   8.886
  779POPC   C2B13076   7.502   6.350   8.491
  779POPC   C3B13077   7.508   6.536   8.114
  779POPC   C4B13078   7.376   6.450   7.727
  780POPC   NC313079  25.894  28.956   9.344
  780POPC   PO413080  26.490  29.306   9.398
  780POPC   GL113081  26.212  29.253   9.074
  780POPC   GL213082  25.926  29.481   9.042
  780POPC   C1A13083  26.183  28.974   8.720
  780POPC   D2A13084  26.212  29.249   8.386
  780POPC   C3A13085  26.211  29.113   8.020
  780POPC   C4A13086  26.148  29.364   7.691
  780POPC   C1B13087  25.712  29.164   8.759
  780POPC   C2B13088  25.769  28.939   8.352
  780POPC   C3B13089  25.719  29.095   7.930
  780POPC   C4B13090  25.821  29.016   7.483
  781POPC   NC313091  24.401  20.665   9.658
  781POPC   PO413092  24.799  20.352   9.202
  781POPC   GL113093  24.438  20.547   9.158
  781POPC   GL213094  24.450  20.882   9.154
  781POPC   C1A13095  24.194  20.441   8.837
  781POPC   D2A13096  24.270  20.343   8.417
  781POPC   C3A13097  24.446  20.695   8.166
  781POPC   C4A13098  24.423  20.438   7.745
  781POPC   C1B13099  24.538  20.822   8.711
  781POPC   C2B13100  24.766  20.483   8.502
  781POPC   C3B13101  24.837  20.410   8.038
  781POPC   C4B13102  24.735  20.825   7.740
  782POPC   NC313103  27.170  20.918   9.576
  782POPC   PO413104  27.390  20.320   9.472
  782POPC   GL113105  27.499  20.516   9.092
  782POPC   GL213106  27.340  20.785   9.124
  782POPC   C1A13107  27.773  20.462   8.730
  782POPC   D2A13108  27.943  20.779   8.422
  782POPC   C3A13109  27.780  20.747   7.987
  782POPC   C4A13110  27.659  20.402   7.713
  782POPC   C1B13111  27.402  20.958   8.734
  782POPC   C2B13112  27.538  21.092   8.330
  782POPC   C3B13113  27.359  21.103   7.944
  782POPC   C4B13114  27.217  20.967   7.583
  783POPC   NC313115  26.291  22.991   9.513
  783POPC   PO413116  25.717  22.992   9.232
  783POPC   GL113117  26.073  22.814   9.037
  783POPC   GL213118  26.255  23.129   9.031
  783POPC   C1A13119  25.875  22.635   8.667
  783POPC   D2A13120  25.614  22.665   8.301
  783POPC   C3A13121  25.898  22.796   7.962
  783POPC   C4A13122  25.980  23.176   7.701
  783POPC   C1B13123  26.188  23.074   8.604
  783POPC   C2B13124  26.542  23.115   8.369
  783POPC   C3B13125  26.615  23.451   8.091
  783POPC   C4B13126  26.402  23.485   7.729
  784POPC   NC313127  27.286  19.875   9.503
  784POPC   PO413128  27.935  20.024   9.543
  784POPC   GL113129  27.715  19.752   9.217
  784POPC   GL213130  27.633  20.032   9.115
  784POPC   C1A13131  27.581  19.586   8.823
  784POPC   D2A13132  27.756  19.492   8.434
  784POPC   C3A13133  27.507  19.558   8.082
  784POPC   C4A13134  27.548  19.739   7.703
  784POPC   C1B13135  27.340  20.028   8.843
  784POPC   C2B13136  27.317  19.886   8.441
  784POPC   C3B13137  27.454  20.088   8.086
  784POPC   C4B13138  27.232  20.144   7.725
  785POPC   NC313139  24.645  36.485   9.444
  785POPC   PO413140  24.192  35.925   9.454
  785POPC   GL113141  24.158  36.133   9.052
  785POPC   GL213142  24.090  36.509   9.017
  785POPC   C1A13143  24.273  35.888   8.669
  785POPC   D2A13144  24.598  35.778   8.362
  785POPC   C3A13145  24.384  35.897   7.997
  785POPC   C4A13146  24.558  35.962   7.634
  785POPC   C1B13147  24.122  36.407   8.591
  785POPC   C2B13148  24.450  36.276   8.352
  785POPC   C3B13149  24.627  36.356   7.964
  785POPC   C4B13150  24.350  36.502   7.674
  786POPC   NC313151  31.717  28.235   9.562
  786POPC   PO413152  31.110  28.632   9.504
  786POPC   GL113153  31.306  28.308   9.246
  786POPC   GL213154  31.280  28.469   8.971
  786POPC   C1A13155  31.489  28.037   8.889
  786POPC   D2A13156  31.600  28.261   8.529
  786POPC   C3A13157  31.649  28.147   8.102
  786POPC   C4A13158  31.565  28.359   7.744
  786POPC   C1B13159  31.043  28.195   8.695
  786POPC   C2B13160  30.979  28.334   8.281
  786POPC   C3B13161  31.047  28.286   7.854
  786POPC   C4B13162  31.177  28.635   7.596
  787POPC   NC313163   2.238   3.128   9.890
  787POPC   PO413164   2.069   2.568   9.453
  787POPC   GL113165   2.084   2.583   9.043
  787POPC   GL213166   2.339   2.850   9.057
  787POPC   C1A13167   1.777   2.514   8.697
  787POPC   D2A13168   1.671   2.811   8.352
  787POPC   C3A13169   2.033   2.963   8.105
  787POPC   C4A13170   2.071   3.054   7.691
  787POPC   C1B13171   2.138   2.872   8.621
  787POPC   C2B13172   2.113   2.510   8.281
  787POPC   C3B13173   2.208   2.526   7.826
  787POPC   C4B13174   2.331   2.403   7.389
  788POPC   NC313175  14.734   8.317   9.307
  788POPC   PO413176  14.993   7.676   9.221
  788POPC   GL113177  15.200   8.018   9.027
  788POPC   GL213178  15.216   8.369   9.149
  788POPC   C1A13179  15.064   8.217   8.657
  788POPC   D2A13180  14.736   8.058   8.388
  788POPC   C3A13181  14.908   8.084   7.969
  788POPC   C4A13182  15.297   7.923   7.801
  788POPC   C1B13183  15.329   8.648   8.800
  788POPC   C2B13184  15.604   8.535   8.466
  788POPC   C3B13185  15.759   8.588   8.045
  788POPC   C4B13186  15.599   8.355   7.689
  789POPC   NC313187  11.216  20.234   9.494
  789POPC   PO413188  11.501  20.801   9.342
  789POPC   GL113189  11.169  20.642   9.126
  789POPC   GL213190  11.123  20.292   9.014
  789POPC   C1A13191  11.292  20.681   8.735
  789POPC   D2A13192  11.174  20.519   8.405
  789POPC   C3A13193  11.105  20.770   8.079
  789POPC   C4A13194  11.103  20.578   7.696
  789POPC   C1B13195  11.502  20.188   8.792
  789POPC   C2B13196  11.481  20.080   8.357
  789POPC   C3B13197  11.463  20.358   8.026
  789POPC   C4B13198  11.599  20.427   7.639
  790POPC   NC313199  36.236  11.966   9.612
  790POPC   PO413200  35.579  12.116   9.407
  790POPC   GL113201  35.958  12.114   9.165
  790POPC   GL213202  36.310  11.978   9.123
  790POPC   C1A13203  35.978  12.325   8.805
  790POPC   D2A13204  35.900  12.109   8.477
  790POPC   C3A13205  35.874  12.262   8.078
  790POPC   C4A13206  36.012  12.177   7.667
  790POPC   C1B13207  36.438  12.077   8.707
  790POPC   C2B13208  36.283  11.810   8.384
  790POPC   C3B13209  36.182  11.828   7.982
  790POPC   C4B13210  36.438  11.917   7.615
  791POPC   NC313211  27.059  37.671   9.561
  791POPC   PO413212  26.524  38.043   9.530
  791POPC   GL113213  26.710  37.819   9.228
  791POPC   GL213214  26.987  37.990   9.127
  791POPC   C1A13215  26.715  37.581   8.895
  791POPC   D2A13216  26.679  37.512   8.489
  791POPC   C3A13217  26.943  37.688   8.206
  791POPC   C4A13218  26.839  37.723   7.786
  791POPC   C1B13219  26.912  38.023   8.655
  791POPC   C2B13220  27.285  38.036   8.340
  791POPC   C3B13221  27.318  37.927   7.900
  791POPC   C4B13222  27.140  38.002   7.464
  792POPC   NC313223   6.396   7.569   9.543
  792POPC   PO413224   6.563   6.851   9.394
  792POPC   GL113225   6.622   7.222   9.139
  792POPC   GL213226   6.606   7.600   9.090
  792POPC   C1A13227   6.803   7.223   8.737
  792POPC   D2A13228   7.041   7.251   8.363
  792POPC   C3A13229   6.830   7.254   7.989
  792POPC   C4A13230   6.671   7.002   7.683
  792POPC   C1B13231   6.387   7.867   8.789
  792POPC   C2B13232   6.425   7.959   8.371
  792POPC   C3B13233   6.202   7.776   8.044
  792POPC   C4B13234   6.328   7.690   7.657
  793POPC   NC313235  41.382   6.485   9.372
  793POPC   PO413236  40.745   6.743   9.464
  793POPC   GL113237  40.849   6.833   9.082
  793POPC   GL213238  40.630   7.093   9.012
  793POPC   C1A13239  40.808   6.634   8.697
  793POPC   D2A13240  40.826   6.728   8.269
  793POPC   C3A13241  41.033   6.488   7.973
  793POPC   C4A13242  40.858   6.542   7.581
  793POPC   C1B13243  40.582   7.085   8.564
  793POPC   C2B13244  40.535   7.152   8.106
  793POPC   C3B13245  40.552   6.912   7.721
  793POPC   C4B13246  40.479   6.797   7.280
  794POPC   NC313247  20.022  13.306   9.767
  794POPC   PO413248  19.690  12.797  10.023
  794POPC   GL113249  19.770  12.832   9.477
  794POPC   GL213250  20.068  13.014   9.313
  794POPC   C1A13251  19.668  13.020   8.997
  794POPC   D2A13252  19.483  12.998   8.565
  794POPC   C3A13253  19.596  13.074   8.135
  794POPC   C4A13254  19.651  12.906   7.736
  794POPC   C1B13255  20.147  12.998   8.835
  794POPC   C2B13256  19.956  12.818   8.456
  794POPC   C3B13257  20.085  12.973   8.042
  794POPC   C4B13258  20.176  12.801   7.644
  795POPC   NC313259  22.924  37.856   9.478
  795POPC   PO413260  22.776  37.257   9.259
  795POPC   GL113261  22.987  37.602   9.050
  795POPC   GL213262  22.808  37.535   8.760
  795POPC   C1A13263  22.954  38.011   8.810
  795POPC   D2A13264  22.624  37.982   8.503
  795POPC   C3A13265  22.897  37.896   8.171
  795POPC   C4A13266  22.881  37.919   7.741
  795POPC   C1B13267  23.174  37.360   8.641
  795POPC   C2B13268  23.241  37.441   8.229
  795POPC   C3B13269  22.998  37.439   7.879
  795POPC   C4B13270  23.067  37.390   7.419
  796POPC   NC313271  37.903  11.959   9.543
  796POPC   PO413272  37.340  11.704   9.186
  796POPC   GL113273  37.669  12.023   9.083
  796POPC   GL213274  37.539  12.372   9.082
  796POPC   C1A13275  37.910  12.209   8.723
  796POPC   D2A13276  37.868  12.309   8.257
  796POPC   C3A13277  37.761  11.931   8.032
  796POPC   C4A13278  38.015  11.703   7.736
  796POPC   C1B13279  37.371  12.276   8.714
  796POPC   C2B13280  37.381  12.425   8.321
  796POPC   C3B13281  37.368  12.275   7.910
  796POPC   C4B13282  37.193  12.151   7.510
  797POPC   NC313283  34.394  34.766   9.464
  797POPC   PO413284  35.081  34.495   9.499
  797POPC   GL113285  34.771  34.556   9.165
  797POPC   GL213286  34.972  34.824   8.975
  797POPC   C1A13287  34.494  34.738   8.783
  797POPC   D2A13288  34.376  34.965   8.363
  797POPC   C3A13289  34.398  34.671   7.989
  797POPC   C4A13290  34.497  34.380   7.630
  797POPC   C1B13291  34.925  34.475   8.709
  797POPC   C2B13292  34.682  34.386   8.373
  797POPC   C3B13293  34.872  34.451   7.978
  797POPC   C4B13294  34.932  34.664   7.577
  798POPC   NC313295   9.399   4.151   9.471
  798POPC   PO413296   9.839   4.631   9.439
  798POPC   GL113297   9.693   4.450   9.070
  798POPC   GL213298   9.836   4.154   9.123
  798POPC   C1A13299   9.449   4.187   8.771
  798POPC   D2A13300   9.223   4.108   8.387
  798POPC   C3A13301   9.408   4.346   8.059
  798POPC   C4A13302   9.632   4.699   7.914
  798POPC   C1B13303   9.977   4.097   8.730
  798POPC   C2B13304   9.858   4.269   8.343
  798POPC   C3B13305   9.905   4.223   7.910
  798POPC   C4B13306   9.616   4.163   7.584
  799POPC   NC313307  34.292  24.893   9.583
  799POPC   PO413308  34.807  25.394   9.497
  799POPC   GL113309  34.671  25.299   9.063
  799POPC   GL213310  34.278  25.305   8.947
  799POPC   C1A13311  34.657  25.437   8.645
  799POPC   D2A13312  34.476  25.203   8.319
  799POPC   C3A13313  34.611  25.407   7.996
  799POPC   C4A13314  34.762  25.420   7.580
  799POPC   C1B13315  34.075  24.944   8.693
  799POPC   C2B13316  34.136  24.783   8.265
  799POPC   C3B13317  34.159  25.100   7.906
  799POPC   C4B13318  34.297  25.208   7.474
  800POPC   NC313319   3.856  27.592   9.601
  800POPC   PO413320   3.346  27.314   9.759
  800POPC   GL113321   3.367  27.432   9.297
  800POPC   GL213322   3.538  27.743   9.222
  800POPC   C1A13323   3.259  27.525   8.839
  800POPC   D2A13324   3.388  27.773   8.472
  800POPC   C3A13325   3.292  27.591   8.066
  800POPC   C4A13326   3.415  27.741   7.677
  800POPC   C1B13327   3.761  27.654   8.825
  800POPC   C2B13328   3.824  27.527   8.386
  800POPC   C3B13329   3.787  27.754   8.012
  800POPC   C4B13330   3.992  27.761   7.602
  801POPC   NC313331  17.780  40.278   9.529
  801POPC   PO413332  17.058  40.151   9.448
  801POPC   GL113333  17.406  40.223   9.170
  801POPC   GL213334  17.663  39.935   9.119
  801POPC   C1A13335  17.513  40.249   8.751
  801POPC   D2A13336  17.569  40.093   8.366
  801POPC   C3A13337  17.285  40.148   8.049
  801POPC   C4A13338  17.606  39.950   7.838
  801POPC   C1B13339  17.386  39.763   8.798
  801POPC   C2B13340  17.184  39.758   8.417
  801POPC   C3B13341  17.249  39.573   8.024
  801POPC   C4B13342  17.285  39.653   7.590
  802POPC   NC313343   7.417  29.222   9.922
  802POPC   PO413344   7.737  28.671   9.650
  802POPC   GL113345   7.673  28.972   9.257
  802POPC   GL213346   7.695  29.345   9.282
  802POPC   C1A13347   7.555  28.968   8.791
  802POPC   D2A13348   7.340  28.883   8.392
  802POPC   C3A13349   7.511  29.032   8.003
  802POPC   C4A13350   7.354  29.206   7.572
  802POPC   C1B13351   7.605  29.481   8.854
  802POPC   C2B13352   7.436  29.415   8.421
  802POPC   C3B13353   7.478  29.544   7.987
  802POPC   C4B13354   7.803  29.379   7.745
  803POPC   NC313355  39.250  29.699   9.628
  803POPC   PO413356  39.300  29.023   9.578
  803POPC   GL113357  39.366  29.074   9.157
  803POPC   GL213358  39.358  29.447   9.173
  803POPC   C1A13359  39.372  28.941   8.731
  803POPC   D2A13360  39.105  28.693   8.479
  803POPC   C3A13361  39.132  28.827   8.109
  803POPC   C4A13362  39.244  28.808   7.694
  803POPC   C1B13363  39.108  29.368   8.803
  803POPC   C2B13364  39.177  29.281   8.373
  803POPC   C3B13365  39.171  29.323   7.941
  803POPC   C4B13366  38.983  29.320   7.559
  804POPC   NC313367  39.393  44.370   9.636
  804POPC   PO413368  38.985  44.928   9.590
  804POPC   GL113369  39.259  44.703   9.235
  804POPC   GL213370  39.572  44.443   9.180
  804POPC   C1A13371  39.300  44.881   8.807
  804POPC   D2A13372  39.502  44.866   8.400
  804POPC   C3A13373  39.231  44.826   7.999
  804POPC   C4A13374  38.835  44.888   7.735
  804POPC   C1B13375  39.398  44.364   8.800
  804POPC   C2B13376  39.547  44.353   8.430
  804POPC   C3B13377  39.675  44.532   8.074
  804POPC   C4B13378  39.482  44.440   7.738
  805POPC   NC313379  15.024  21.810   9.755
  805POPC   PO413380  15.209  22.288   9.329
  805POPC   GL113381  15.154  21.929   9.182
  805POPC   GL213382  14.886  22.083   8.970
  805POPC   C1A13383  15.231  21.800   8.770
  805POPC   D2A13384  15.226  22.055   8.396
  805POPC   C3A13385  15.272  21.837   8.017
  805POPC   C4A13386  15.583  21.920   7.716
  805POPC   C1B13387  14.982  22.471   8.736
  805POPC   C2B13388  15.145  22.567   8.342
  805POPC   C3B13389  14.943  22.335   8.020
  805POPC   C4B13390  15.034  22.108   7.662
  806POPC   NC313391   0.145  24.532   9.915
  806POPC   PO413392   0.624  24.316   9.524
  806POPC   GL113393   0.563  24.341   9.111
  806POPC   GL213394   0.248  24.383   9.175
  806POPC   C1A13395   0.511  24.546   8.733
  806POPC   D2A13396   0.384  24.723   8.357
  806POPC   C3A13397   0.621  24.602   8.009
  806POPC   C4A13398   0.539  24.482   7.610
  806POPC   C1B13399   0.150  24.166   8.784
  806POPC   C2B13400   0.060  24.308   8.388
  806POPC   C3B13401   0.235  24.264   8.001
  806POPC   C4B13402   0.209  24.048   7.667
  807POPC   NC313403  10.142   4.426   9.711
  807POPC   PO413404  10.719   4.154   9.611
  807POPC   GL113405  10.604   4.365   9.228
  807POPC   GL213406  10.265   4.472   9.209
  807POPC   C1A13407  10.494   4.174   8.822
  807POPC   D2A13408  10.771   3.928   8.534
  807POPC   C3A13409  10.759   4.098   8.122
  807POPC   C4A13410  10.416   4.239   7.836
  807POPC   C1B13411  10.152   4.578   8.782
  807POPC   C2B13412  10.340   4.497   8.368
  807POPC   C3B13413  10.398   4.726   7.992
  807POPC   C4B13414  10.107   4.646   7.705
  808POPC   NC313415  17.802  31.204   9.521
  808POPC   PO413416  17.230  31.544   9.574
  808POPC   GL113417  17.533  31.578   9.229
  808POPC   GL213418  17.586  31.248   9.056
  808POPC   C1A13419  17.621  31.682   8.793
  808POPC   D2A13420  17.588  31.393   8.457
  808POPC   C3A13421  17.680  31.482   8.017
  808POPC   C4A13422  17.704  31.706   7.604
  808POPC   C1B13423  17.300  31.037   8.751
  808POPC   C2B13424  17.131  31.131   8.371
  808POPC   C3B13425  17.292  31.122   7.953
  808POPC   C4B13426  17.475  31.057   7.547
  809POPC   NC313427  44.931  27.499   9.618
  809POPC   PO413428  44.366  27.907   9.496
  809POPC   GL113429  44.511  27.523   9.286
  809POPC   GL213430  44.777  27.689   9.164
  809POPC   C1A13431  44.702  27.290   8.884
  809POPC   D2A13432  44.696  27.533   8.493
  809POPC   C3A13433  44.663  27.374   8.071
  809POPC   C4A13434  44.521  27.565   7.711
  809POPC   C1B13435  44.545  27.887   8.843
  809POPC   C2B13436  44.477  28.011   8.426
  809POPC   C3B13437  44.297  27.794   8.091
  809POPC   C4B13438  44.235  27.992   7.709
  810POPC   NC313439   6.203  29.774   9.833
  810POPC   PO413440   6.736  30.001   9.660
  810POPC   GL113441   6.591  30.243   9.223
  810POPC   GL213442   6.891  30.296   8.946
  810POPC   C1A13443   6.438  30.348   8.780
  810POPC   D2A13444   6.618  30.233   8.349
  810POPC   C3A13445   6.335  30.213   7.977
  810POPC   C4A13446   6.269  30.166   7.525
  810POPC   C1B13447   6.996  29.999   8.602
  810POPC   C2B13448   7.063  29.891   8.139
  810POPC   C3B13449   7.044  29.633   7.713
  810POPC   C4B13450   7.061  29.508   7.249
  811POPC   NC313451  19.981  26.502   9.519
  811POPC   PO413452  19.814  27.084   9.566
  811POPC   GL113453  19.668  26.846   9.156
  811POPC   GL213454  19.903  26.622   9.048
  811POPC   C1A13455  19.621  26.736   8.665
  811POPC   D2A13456  19.842  27.001   8.336
  811POPC   C3A13457  19.893  26.788   7.961
  811POPC   C4A13458  19.617  26.529   7.729
  811POPC   C1B13459  20.147  26.746   8.718
  811POPC   C2B13460  20.238  26.627   8.313
  811POPC   C3B13461  20.248  26.412   7.927
  811POPC   C4B13462  20.092  26.579   7.517
  812POPC   NC313463   3.398  28.663   9.427
  812POPC   PO413464   3.754  28.032   9.605
  812POPC   GL113465   3.627  28.242   9.244
  812POPC   GL213466   3.822  28.515   9.149
  812POPC   C1A13467   3.441  28.120   8.855
  812POPC   D2A13468   3.581  28.262   8.440
  812POPC   C3A13469   3.432  28.150   8.013
  812POPC   C4A13470   3.407  28.383   7.619
  812POPC   C1B13471   3.853  28.627   8.738
  812POPC   C2B13472   3.635  28.784   8.403
  812POPC   C3B13473   3.622  28.639   8.018
  812POPC   C4B13474   3.774  28.769   7.645
  813POPC   NC313475  38.076  36.337   9.519
  813POPC   PO413476  37.452  36.183   9.436
  813POPC   GL113477  37.749  36.288   9.113
  813POPC   GL213478  37.861  35.955   9.036
  813POPC   C1A13479  37.796  36.334   8.653
  813POPC   D2A13480  37.894  35.999   8.382
  813POPC   C3A13481  37.770  36.070   7.966
  813POPC   C4A13482  37.497  36.347   7.750
  813POPC   C1B13483  37.496  35.927   8.763
  813POPC   C2B13484  37.374  36.106   8.346
  813POPC   C3B13485  37.309  35.885   7.947
  813POPC   C4B13486  37.601  35.773   7.604
  814POPC   NC313487   8.678  23.896   9.402
  814POPC   PO413488   9.154  23.449   9.478
  814POPC   GL113489   9.006  23.581   9.120
  814POPC   GL213490   9.169  23.892   9.166
  814POPC   C1A13491   9.229  23.531   8.757
  814POPC   D2A13492   9.214  23.762   8.407
  814POPC   C3A13493   9.206  23.542   8.045
  814POPC   C4A13494   8.909  23.593   7.763
  814POPC   C1B13495   9.065  24.058   8.778
  814POPC   C2B13496   8.814  24.123   8.411
  814POPC   C3B13497   8.999  24.036   8.049
  814POPC   C4B13498   8.948  24.081   7.651
  815POPC   NC313499  20.356   8.597   9.710
  815POPC   PO413500  20.880   8.208   9.551
  815POPC   GL113501  20.633   8.244   9.171
  815POPC   GL213502  20.296   8.412   9.197
  815POPC   C1A13503  20.681   8.096   8.749
  815POPC   D2A13504  20.789   8.385   8.412
  815POPC   C3A13505  20.692   8.278   7.989
  815POPC   C4A13506  20.878   8.281   7.579
  815POPC   C1B13507  20.355   8.468   8.715
  815POPC   C2B13508  20.306   8.521   8.261
  815POPC   C3B13509  20.315   8.599   7.801
  815POPC   C4B13510  20.479   8.537   7.360
  816POPC   NC313511  40.100  11.088   9.553
  816POPC   PO413512  39.810  11.670   9.584
  816POPC   GL113513  39.873  11.399   9.225
  816POPC   GL213514  39.683  11.099   9.189
  816POPC   C1A13515  40.132  11.156   8.913
  816POPC   D2A13516  40.073  11.104   8.474
  816POPC   C3A13517  40.186  11.119   8.046
  816POPC   C4A13518  40.231  11.507   7.843
  816POPC   C1B13519  39.677  11.240   8.780
  816POPC   C2B13520  39.578  11.127   8.421
  816POPC   C3B13521  39.712  11.331   8.071
  816POPC   C4B13522  39.797  11.222   7.691
  817POPC   NC313523  23.863  44.697   9.552
  817POPC   PO413524  23.302   0.068   9.447
  817POPC   GL113525  23.564  44.872   9.159
  817POPC   GL213526  23.532  44.562   9.156
  817POPC   C1A13527  23.522  44.823   8.694
  817POPC   D2A13528  23.345  44.738   8.294
  817POPC   C3A13529  23.599  44.712   7.901
  817POPC   C4A13530  23.508  44.753   7.440
  817POPC   C1B13531  23.742  44.380   8.805
  817POPC   C2B13532  23.696  44.355   8.367
  817POPC   C3B13533  23.717  44.200   7.956
  817POPC   C4B13534  23.813  44.336   7.557
  818POPC   NC313535  12.203  42.690   9.506
  818POPC   PO413536  12.046  42.045   9.598
  818POPC   GL113537  12.202  42.266   9.205
  818POPC   GL213538  11.918  42.298   8.964
  818POPC   C1A13539  12.400  42.359   8.776
  818POPC   D2A13540  12.149  42.265   8.399
  818POPC   C3A13541  12.283  42.250   7.982
  818POPC   C4A13542  12.005  42.307   7.641
  818POPC   C1B13543  11.976  42.642   8.686
  818POPC   C2B13544  12.195  42.775   8.358
  818POPC   C3B13545  12.090  42.736   7.972
  818POPC   C4B13546  12.416  42.697   7.717
  819POPC   NC313547  16.046  21.258   9.608
  819POPC   PO413548  15.449  21.622   9.592
  819POPC   GL113549  15.706  21.386   9.245
  819POPC   GL213550  16.034  21.550   9.163
  819POPC   C1A13551  15.870  21.128   8.903
  819POPC   D2A13552  15.917  21.306   8.489
  819POPC   C3A13553  16.061  21.135   8.103
  819POPC   C4A13554  15.912  21.194   7.703
  819POPC   C1B13555  15.743  21.740   8.839
  819POPC   C2B13556  15.561  21.655   8.405
  819POPC   C3B13557  15.798  21.576   8.033
  819POPC   C4B13558  16.052  21.695   7.655
  820POPC   NC313559  38.228   3.159   9.206
  820POPC   PO413560  38.617   2.653   9.574
  820POPC   GL113561  38.652   2.854   9.188
  820POPC   GL213562  38.755   3.214   9.245
  820POPC   C1A13563  38.533   2.780   8.760
  820POPC   D2A13564  38.608   2.719   8.342
  820POPC   C3A13565  38.264   2.680   8.088
  820POPC   C4A13566  38.224   2.420   7.748
  820POPC   C1B13567  38.708   3.268   8.784
  820POPC   C2B13568  38.388   3.166   8.445
  820POPC   C3B13569  38.497   3.130   8.014
  820POPC   C4B13570  38.230   3.011   7.676
  821POPC   NC313571   6.388  32.482   9.469
  821POPC   PO413572   6.903  32.035   9.430
  821POPC   GL113573   6.598  32.170   9.133
  821POPC   GL213574   6.764  32.518   9.153
  821POPC   C1A13575   6.449  32.231   8.716
  821POPC   D2A13576   6.739  32.184   8.338
  821POPC   C3A13577   6.560  32.185   7.942
  821POPC   C4A13578   6.391  32.034   7.557
  821POPC   C1B13579   6.903  32.460   8.749
  821POPC   C2B13580   6.970  32.639   8.369
  821POPC   C3B13581   6.994  32.508   7.958
  821POPC   C4B13582   7.012  32.246   7.663
  822POPC   NC313583   4.634   6.880   9.598
  822POPC   PO413584   4.062   6.494   9.489
  822POPC   GL113585   4.329   6.654   9.154
  822POPC   GL213586   4.459   6.967   9.137
  822POPC   C1A13587   4.362   6.646   8.714
  822POPC   D2A13588   4.064   6.816   8.408
  822POPC   C3A13589   4.104   6.675   7.974
  822POPC   C4A13590   4.372   6.532   7.655
  822POPC   C1B13591   4.348   7.150   8.761
  822POPC   C2B13592   4.532   7.028   8.392
  822POPC   C3B13593   4.627   6.830   7.995
  822POPC   C4B13594   4.690   6.912   7.541
  823POPC   NC313595  41.855  40.588   9.553
  823POPC   PO413596  41.450  41.097   9.582
  823POPC   GL113597  41.404  40.746   9.306
  823POPC   GL213598  41.696  40.897   9.167
  823POPC   C1A13599  41.341  40.630   8.868
  823POPC   D2A13600  41.384  40.857   8.465
  823POPC   C3A13601  41.319  40.609   8.075
  823POPC   C4A13602  41.505  40.645   7.651
  823POPC   C1B13603  41.834  40.803   8.768
  823POPC   C2B13604  41.876  40.998   8.368
  823POPC   C3B13605  41.752  40.893   7.991
  823POPC   C4B13606  41.863  41.001   7.557
  824POPC   NC313607   9.427   2.605   9.650
  824POPC   PO413608   8.782   2.861   9.613
  824POPC   GL113609   9.018   2.689   9.279
  824POPC   GL213610   8.928   2.355   9.268
  824POPC   C1A13611   9.168   2.698   8.853
  824POPC   D2A13612   9.237   2.939   8.492
  824POPC   C3A13613   9.103   2.748   8.111
  824POPC   C4A13614   9.161   2.952   7.726
  824POPC   C1B13615   8.689   2.483   8.890
  824POPC   C2B13616   8.709   2.633   8.464
  824POPC   C3B13617   8.574   2.491   8.056
  824POPC   C4B13618   8.772   2.627   7.701
  825POPC   NC313619  30.333  10.702   9.561
  825POPC   PO413620  29.647  10.593   9.460
  825POPC   GL113621  29.812  10.489   9.104
  825POPC   GL213622  30.133  10.378   9.211
  825POPC   C1A13623  29.812  10.702   8.708
  825POPC   D2A13624  29.921  10.516   8.330
  825POPC   C3A13625  29.872  10.683   7.930
  825POPC   C4A13626  29.881  10.462   7.576
  825POPC   C1B13627  30.237  10.423   8.789
  825POPC   C2B13628  30.392  10.308   8.368
  825POPC   C3B13629  30.245  10.326   7.955
  825POPC   C4B13630  30.359  10.615   7.684
  826POPC   NC313631  43.319   3.386   9.629
  826POPC   PO413632  43.959   3.704   9.757
  826POPC   GL113633  43.777   3.500   9.361
  826POPC   GL213634  43.816   3.788   9.133
  826POPC   C1A13635  43.788   3.332   8.907
  826POPC   D2A13636  43.879   3.497   8.494
  826POPC   C3A13637  43.776   3.292   8.079
  826POPC   C4A13638  43.918   3.462   7.686
  826POPC   C1B13639  43.530   3.768   8.787
  826POPC   C2B13640  43.566   3.950   8.365
  826POPC   C3B13641  43.785   3.983   7.947
  826POPC   C4B13642  43.635   3.882   7.522
  827POPC   NC313643  29.922  23.420   9.559
  827POPC   PO413644  30.165  24.056   9.485
  827POPC   GL113645  29.961  23.802   9.142
  827POPC   GL213646  29.707  23.532   9.126
  827POPC   C1A13647  30.086  23.799   8.705
  827POPC   D2A13648  30.259  23.630   8.315
  827POPC   C3A13649  29.940  23.719   8.007
  827POPC   C4A13650  29.983  23.965   7.646
  827POPC   C1B13651  29.650  23.524   8.720
  827POPC   C2B13652  29.478  23.605   8.349
  827POPC   C3B13653  29.529  23.414   7.973
  827POPC   C4B13654  29.694  23.455   7.556
  828POPC   NC313655   3.917  39.354   9.782
  828POPC   PO413656   3.545  38.840   9.619
  828POPC   GL113657   3.461  38.921   9.133
  828POPC   GL213658   3.367  39.289   9.058
  828POPC   C1A13659   3.464  38.966   8.669
  828POPC   D2A13660   3.723  39.186   8.345
  828POPC   C3A13661   3.772  39.019   7.956
  828POPC   C4A13662   3.441  38.933   7.696
  828POPC   C1B13663   3.446  39.483   8.677
  828POPC   C2B13664   3.239  39.400   8.302
  828POPC   C3B13665   3.488  39.445   7.938
  828POPC   C4B13666   3.905  39.648   8.052
  829POPC   NC313667  33.591  23.420   9.457
  829POPC   PO413668  34.113  23.711   9.792
  829POPC   GL113669  34.072  23.671   9.282
  829POPC   GL213670  33.924  23.415   9.068
  829POPC   C1A13671  33.784  23.893   8.945
  829POPC   D2A13672  33.613  23.808   8.526
  829POPC   C3A13673  33.870  23.744   8.144
  829POPC   C4A13674  33.673  23.600   7.767
  829POPC   C1B13675  34.039  23.536   8.680
  829POPC   C2B13676  33.993  23.279   8.343
  829POPC   C3B13677  34.017  23.276   7.944
  829POPC   C4B13678  34.173  23.604   7.661
  830POPC   NC313679   2.546  35.544   9.486
  830POPC   PO413680   3.196  35.481   9.651
  830POPC   GL113681   3.064  35.395   9.195
  830POPC   GL213682   2.730  35.199   9.121
  830POPC   C1A13683   2.986  35.417   8.721
  830POPC   D2A13684   2.758  35.345   8.346
  830POPC   C3A13685   2.854  35.275   7.920
  830POPC   C4A13686   2.726  35.579   7.606
  830POPC   C1B13687   2.619  35.000   8.695
  830POPC   C2B13688   2.584  34.888   8.228
  830POPC   C3B13689   2.313  34.938   7.891
  830POPC   C4B13690   2.476  35.123   7.539
  831POPC   NC313691  11.027  33.779   9.611
  831POPC   PO413692  11.728  33.631   9.604
  831POPC   GL113693  11.532  33.696   9.216
  831POPC   GL213694  11.248  33.900   9.151
  831POPC   C1A13695  11.526  33.527   8.817
  831POPC   D2A13696  11.277  33.540   8.440
  831POPC   C3A13697  11.399  33.638   8.011
  831POPC   C4A13698  11.091  33.584   7.709
  831POPC   C1B13699  11.354  34.035   8.730
  831POPC   C2B13700  11.170  34.070   8.297
  831POPC   C3B13701  11.273  34.168   7.853
  831POPC   C4B13702  11.381  33.950   7.453
  832POPC   NC313703  30.863  23.109   9.557
  832POPC   PO413704  30.582  22.550   9.762
  832POPC   GL113705  30.511  22.740   9.325
  832POPC   GL213706  30.838  22.867   9.134
  832POPC   C1A13707  30.427  22.841   8.873
  832POPC   D2A13708  30.758  22.786   8.562
  832POPC   C3A13709  30.599  22.689   8.142
  832POPC   C4A13710  30.632  22.819   7.717
  832POPC   C1B13711  31.102  23.133   8.895
  832POPC   C2B13712  31.155  23.153   8.467
  832POPC   C3B13713  31.026  23.010   8.069
  832POPC   C4B13714  31.229  23.123   7.656
  833POPC   NC313715  28.805   8.645   9.602
  833POPC   PO413716  29.245   9.184   9.703
  833POPC   GL113717  29.086   9.022   9.320
  833POPC   GL213718  29.121   9.320   9.136
  833POPC   C1A13719  29.273   8.802   8.969
  833POPC   D2A13720  29.344   8.790   8.545
  833POPC   C3A13721  29.380   8.742   8.105
  833POPC   C4A13722  29.231   8.782   7.685
  833POPC   C1B13723  28.895   9.096   8.789
  833POPC   C2B13724  28.927   8.998   8.349
  833POPC   C3B13725  29.037   9.150   7.943
  833POPC   C4B13726  28.996   9.193   7.487
  834POPC   NC313727  35.418   0.785   9.482
  834POPC   PO413728  35.111   0.215   9.440
  834POPC   GL113729  35.333   0.394   9.115
  834POPC   GL213730  35.097   0.699   9.104
  834POPC   C1A13731  35.412   0.253   8.683
  834POPC   D2A13732  35.084   0.228   8.343
  834POPC   C3A13733  35.219   0.147   7.930
  834POPC   C4A13734  35.669   0.081   7.792
  834POPC   C1B13735  35.359   0.775   8.768
  834POPC   C2B13736  35.349   0.678   8.355
  834POPC   C3B13737  35.601   0.535   8.038
  834POPC   C4B13738  35.446   0.496   7.615
  835POPC   NC313739  32.194  25.811   9.560
  835POPC   PO413740  32.038  26.445   9.535
  835POPC   GL113741  32.265  26.184   9.207
  835POPC   GL213742  32.239  25.809   9.071
  835POPC   C1A13743  32.494  26.179   8.836
  835POPC   D2A13744  32.510  26.449   8.500
  835POPC   C3A13745  32.581  26.293   8.077
  835POPC   C4A13746  32.405  26.000   7.778
  835POPC   C1B13747  32.090  25.680   8.667
  835POPC   C2B13748  32.174  25.778   8.228
  835POPC   C3B13749  32.037  25.618   7.832
  835POPC   C4B13750  31.934  25.713   7.362
  836POPC   NC313751  28.887  44.121   9.384
  836POPC   PO413752  29.430  43.759   9.585
  836POPC   GL113753  29.268  43.840   9.202
  836POPC   GL213754  29.211  43.534   9.126
  836POPC   C1A13755  29.062  43.873   8.790
  836POPC   D2A13756  29.279  43.802   8.430
  836POPC   C3A13757  29.087  43.946   8.087
  836POPC   C4A13758  29.281  44.062   7.706
  836POPC   C1B13759  29.459  43.414   8.760
  836POPC   C2B13760  29.502  43.320   8.316
  836POPC   C3B13761  29.244  43.474   7.979
  836POPC   C4B13762  28.950  43.683   7.680
  837POPC   NC313763  44.323  16.991   9.368
  837POPC   PO413764  44.774  16.646   9.721
  837POPC   GL113765  44.730  16.705   9.220
  837POPC   GL213766  44.862  16.949   9.188
  837POPC   C1A13767  44.492  16.788   8.791
  837POPC   D2A13768  44.678  16.727   8.417
  837POPC   C3A13769  44.487  16.888   8.082
  837POPC   C4A13770  44.514  16.613   7.818
  837POPC   C1B13771  44.863  17.126   8.793
  837POPC   C2B13772   0.017  17.104   8.408
  837POPC   C3B13773  44.843  17.237   8.066
  837POPC   C4B13774  44.799  17.106   7.687
  838POPC   NC313775  32.276  39.658   9.838
  838POPC   PO413776  32.684  39.165   9.599
  838POPC   GL113777  32.395  39.355   9.252
  838POPC   GL213778  32.403  39.014   9.137
  838POPC   C1A13779  32.153  39.359   8.871
  838POPC   D2A13780  32.312  39.225   8.511
  838POPC   C3A13781  32.144  39.223   8.135
  838POPC   C4A13782  32.260  39.305   7.776
  838POPC   C1B13783  32.654  38.910   8.771
  838POPC   C2B13784  32.552  38.809   8.350
  838POPC   C3B13785  32.616  38.970   7.957
  838POPC   C4B13786  32.771  39.123   7.542
  839POPC   NC313787  34.714  28.861   9.561
  839POPC   PO413788  34.429  29.375   9.852
  839POPC   GL113789  34.385  29.231   9.382
  839POPC   GL213790  34.691  29.235   9.217
  839POPC   C1A13791  34.258  29.166   8.912
  839POPC   D2A13792  34.307  29.251   8.447
  839POPC   C3A13793  34.441  29.136   8.017
  839POPC   C4A13794  34.463  29.236   7.552
  839POPC   C1B13795  34.744  29.142   8.763
  839POPC   C2B13796  34.863  29.174   8.329
  839POPC   C3B13797  34.935  29.133   7.872
  839POPC   C4B13798  34.693  28.822   7.667
  840POPC   NC313799   3.948   1.853   9.566
  840POPC   PO413800   4.646   1.865   9.576
  840POPC   GL113801   4.371   1.780   9.254
  840POPC   GL213802   4.240   2.108   9.189
  840POPC   C1A13803   4.468   1.771   8.826
  840POPC   D2A13804   4.292   1.750   8.421
  840POPC   C3A13805   4.487   1.935   8.058
  840POPC   C4A13806   4.362   1.843   7.633
  840POPC   C1B13807   4.062   2.104   8.776
  840POPC   C2B13808   3.931   2.119   8.346
  840POPC   C3B13809   4.055   2.186   7.904
  840POPC   C4B13810   4.131   2.256   7.456
  841POPC   NC313811  24.560  35.618   9.473
  841POPC   PO413812  24.141  35.083   9.510
  841POPC   GL113813  24.323  35.306   9.150
  841POPC   GL213814  24.272  35.134   8.875
  841POPC   C1A13815  24.618  35.468   8.790
  841POPC   D2A13816  24.614  35.246   8.383
  841POPC   C3A13817  24.646  35.448   7.937
  841POPC   C4A13818  24.727  35.501   7.458
  841POPC   C1B13819  24.681  34.935   8.839
  841POPC   C2B13820  24.878  34.795   8.452
  841POPC   C3B13821  24.854  34.957   8.031
  841POPC   C4B13822  24.725  35.024   7.627
  842POPC   NC313823  15.738   7.057   9.703
  842POPC   PO413824  15.837   7.713   9.607
  842POPC   GL113825  15.805   7.541   9.197
  842POPC   GL213826  15.759   7.186   9.217
  842POPC   C1A13827  15.926   7.597   8.762
  842POPC   D2A13828  16.245   7.552   8.412
  842POPC   C3A13829  16.123   7.625   7.995
  842POPC   C4A13830  15.712   7.627   7.835
  842POPC   C1B13831  15.820   7.054   8.806
  842POPC   C2B13832  15.697   7.263   8.421
  842POPC   C3B13833  15.864   7.172   8.023
  842POPC   C4B13834  15.697   7.144   7.627
  843POPC   NC313835   9.512  43.207   9.592
  843POPC   PO413836  10.017  42.678   9.527
  843POPC   GL113837   9.868  43.016   9.218
  843POPC   GL213838   9.496  43.028   9.135
  843POPC   C1A13839   9.842  43.242   8.801
  843POPC   D2A13840   9.816  43.086   8.357
  843POPC   C3A13841   9.874  43.398   8.041
  843POPC   C4A13842  10.021  43.421   7.592
  843POPC   C1B13843   9.523  42.849   8.763
  843POPC   C2B13844   9.347  42.783   8.388
  843POPC   C3B13845   9.528  42.737   7.987
  843POPC   C4B13846   9.659  43.075   7.728
  844POPC   NC313847  30.595  16.905   9.772
  844POPC   PO413848  30.460  16.522   9.249
  844POPC   GL113849  30.598  16.749   8.973
  844POPC   GL213850  30.767  16.989   9.232
  844POPC   C1A13851  30.452  16.701   8.542
  844POPC   D2A13852  30.526  16.404   8.190
  844POPC   C3A13853  30.792  16.530   7.817
  844POPC   C4A13854  31.050  16.427   7.422
  844POPC   C1B13855  30.814  17.161   8.819
  844POPC   C2B13856  30.887  16.951   8.414
  844POPC   C3B13857  30.897  17.015   7.962
  844POPC   C4B13858  30.874  16.946   7.510
  845POPC   NC313859  40.059  17.793   9.451
  845POPC   PO413860  40.597  17.403   9.380
  845POPC   GL113861  40.137  17.479   9.057
  845POPC   GL213862  39.740  17.701   9.093
  845POPC   C1A13863  39.803  17.373   8.716
  845POPC   D2A13864  39.676  17.195   8.330
  845POPC   C3A13865  39.927  17.313   7.981
  845POPC   C4A13866  40.127  17.233   7.577
  845POPC   C1B13867  39.901  17.874   8.732
  845POPC   C2B13868  40.001  17.722   8.328
  845POPC   C3B13869  39.796  17.799   7.973
  845POPC   C4B13870  39.740  18.062   7.628
  846POPC   NC313871  14.586  11.844   9.961
  846POPC   PO413872  14.386  12.377   9.528
  846POPC   GL113873  14.370  11.991   9.320
  846POPC   GL213874  14.114  12.143   9.131
  846POPC   C1A13875  14.512  11.918   8.919
  846POPC   D2A13876  14.389  12.204   8.631
  846POPC   C3A13877  14.531  12.094   8.237
  846POPC   C4A13878  14.556  12.080   7.814
  846POPC   C1B13879  13.930  12.440   8.848
  846POPC   C2B13880  14.079  12.551   8.412
  846POPC   C3B13881  14.195  12.384   7.994
  846POPC   C4B13882  14.063  12.031   7.683
  847POPC   NC313883  43.809   6.440   9.559
  847POPC   PO413884  44.227   6.951   9.482
  847POPC   GL113885  44.045   6.671   9.175
  847POPC   GL213886  44.204   6.355   9.156
  847POPC   C1A13887  43.786   6.433   8.877
  847POPC   D2A13888  43.610   6.552   8.490
  847POPC   C3A13889  43.816   6.394   8.131
  847POPC   C4A13890  43.729   6.646   7.770
  847POPC   C1B13891  44.250   6.617   8.722
  847POPC   C2B13892  44.114   6.761   8.331
  847POPC   C3B13893  44.211   6.687   7.905
  847POPC   C4B13894  44.306   6.929   7.533
  848POPC   NC313895   4.528  21.699   9.356
  848POPC   PO413896   3.985  22.023   9.565
  848POPC   GL113897   4.229  22.076   9.170
  848POPC   GL213898   4.581  22.185   9.172
  848POPC   C1A13899   4.221  22.201   8.743
  848POPC   D2A13900   4.186  22.044   8.346
  848POPC   C3A13901   4.034  22.303   8.018
  848POPC   C4A13902   4.232  22.441   7.671
  848POPC   C1B13903   4.744  22.036   8.766
  848POPC   C2B13904   4.695  22.202   8.345
  848POPC   C3B13905   4.509  22.066   7.958
  848POPC   C4B13906   4.613  21.828   7.580
  849POPC   NC313907  42.747  15.200   9.534
  849POPC   PO413908  42.148  15.041   9.505
  849POPC   GL113909  42.390  15.220   9.155
  849POPC   GL213910  42.651  14.949   9.102
  849POPC   C1A13911  42.508  15.393   8.744
  849POPC   D2A13912  42.703  15.239   8.371
  849POPC   C3A13913  42.501  15.291   7.980
  849POPC   C4A13914  42.295  15.395   7.607
  849POPC   C1B13915  42.477  14.880   8.706
  849POPC   C2B13916  42.335  14.887   8.289
  849POPC   C3B13917  42.457  14.762   7.879
  849POPC   C4B13918  42.580  14.934   7.459
  850POPC   NC313919  30.295  24.428   9.723
  850POPC   PO413920  30.851  24.509   9.652
  850POPC   GL113921  30.571  24.474   9.273
  850POPC   GL213922  30.626  24.164   9.087
  850POPC   C1A13923  30.463  24.541   8.806
  850POPC   D2A13924  30.713  24.484   8.435
  850POPC   C3A13925  30.562  24.631   8.054
  850POPC   C4A13926  30.805  24.883   7.803
  850POPC   C1B13927  30.979  24.139   8.772
  850POPC   C2B13928  31.153  24.098   8.339
  850POPC   C3B13929  30.904  24.252   7.984
  850POPC   C4B13930  30.462  24.184   7.829
  851POPC   NC313931  20.990   0.723   9.476
  851POPC   PO413932  21.569   0.359   9.595
  851POPC   GL113933  21.381   0.349   9.245
  851POPC   GL213934  21.652   0.186   9.076
  851POPC   C1A13935  21.347   0.595   8.901
  851POPC   D2A13936  21.136   0.536   8.521
  851POPC   C3A13937  21.356   0.507   8.145
  851POPC   C4A13938  21.275   0.393   7.726
  851POPC   C1B13939  21.806   0.398   8.733
  851POPC   C2B13940  21.743   0.725   8.446
  851POPC   C3B13941  21.807   0.732   8.005
  851POPC   C4B13942  21.775   0.350   7.805
  852POPC   NC313943  28.735  35.777   9.877
  852POPC   PO413944  28.331  36.212   9.560
  852POPC   GL113945  28.363  36.062   9.146
  852POPC   GL213946  28.441  36.391   9.057
  852POPC   C1A13947  28.621  36.008   8.753
  852POPC   D2A13948  28.836  35.822   8.387
  852POPC   C3A13949  28.631  35.940   7.980
  852POPC   C4A13950  28.181  35.777   7.869
  852POPC   C1B13951  28.125  36.303   8.740
  852POPC   C2B13952  28.207  36.113   8.325
  852POPC   C3B13953  28.277  36.305   7.928
  852POPC   C4B13954  28.338  36.123   7.534
  853POPC   NC313955   6.724  38.277   9.260
  853POPC   PO413956   6.857  38.926   9.345
  853POPC   GL113957   6.624  38.789   8.998
  853POPC   GL213958   6.302  38.626   9.140
  853POPC   C1A13959   6.770  38.567   8.614
  853POPC   D2A13960   6.646  38.123   8.471
  853POPC   C3A13961   6.559  38.091   8.004
  853POPC   C4A13962   6.685  38.286   7.595
  853POPC   C1B13963   6.285  38.436   8.718
  853POPC   C2B13964   6.397  38.525   8.265
  853POPC   C3B13965   6.445  38.667   7.829
  853POPC   C4B13966   6.350  38.614   7.369
  854POPC   NC313967   7.960  29.564   9.664
  854POPC   PO413968   8.404  30.034   9.534
  854POPC   GL113969   8.198  29.964   9.168
  854POPC   GL213970   8.373  30.238   9.049
  854POPC   C1A13971   8.120  29.661   8.852
  854POPC   D2A13972   7.922  29.648   8.487
  854POPC   C3A13973   8.120  29.544   8.112
  854POPC   C4A13974   8.304  29.668   7.734
  854POPC   C1B13975   8.165  30.198   8.677
  854POPC   C2B13976   8.208  30.027   8.296
  854POPC   C3B13977   8.202  30.177   7.894
  854POPC   C4B13978   8.193  30.094   7.448
  855POPC   NC313979  40.990  10.467   9.403
  855POPC   PO413980  40.440  10.779   9.567
  855POPC   GL113981  40.640  10.783   9.146
  855POPC   GL213982  40.551  10.444   9.103
  855POPC   C1A13983  40.849  10.616   8.737
  855POPC   D2A13984  40.886  10.355   8.359
  855POPC   C3A13985  41.196  10.545   8.108
  855POPC   C4A13986  41.039  10.811   7.787
  855POPC   C1B13987  40.522  10.221   8.723
  855POPC   C2B13988  40.361  10.160   8.319
  855POPC   C3B13989  40.523  10.440   7.989
  855POPC   C4B13990  40.877  10.291   7.823
  856POPC   NC313991  19.781  15.354   9.490
  856POPC   PO413992  19.671  14.681   9.667
  856POPC   GL113993  19.798  14.885   9.233
  856POPC   GL213994  19.533  14.946   8.980
  856POPC   C1A13995  19.987  15.169   8.893
  856POPC   D2A13996  20.173  15.197   8.503
  856POPC   C3A13997  19.993  15.104   8.128
  856POPC   C4A13998  19.761  15.326   7.807
  856POPC   C1B13999  19.633  14.997   8.579
  856POPC   C2B14000  19.585  15.302   8.322
  856POPC   C3B14001  19.499  14.976   8.043
  856POPC   C4B14002  19.284  14.962   7.685
  857POPC   NC314003  19.260  39.815   9.543
  857POPC   PO414004  18.578  39.767   9.336
  857POPC   GL114005  18.830  39.863   9.008
  857POPC   GL214006  19.175  39.976   9.064
  857POPC   C1A14007  18.835  39.973   8.589
  857POPC   D2A14008  19.158  40.190   8.353
  857POPC   C3A14009  19.041  40.295   7.935
  857POPC   C4A14010  18.693  40.265   7.676
  857POPC   C1B14011  19.231  39.667   8.751
  857POPC   C2B14012  18.989  39.506   8.401
  857POPC   C3B14013  19.066  39.725   8.036
  857POPC   C4B14014  19.047  39.873   7.625
  858POPC   NC314015  29.019  21.123   9.483
  858POPC   PO414016  29.412  21.683   9.505
  858POPC   GL114017  29.075  21.536   9.166
  858POPC   GL214018  28.822  21.233   9.038
  858POPC   C1A14019  29.097  21.553   8.722
  858POPC   D2A14020  29.176  21.815   8.373
  858POPC   C3A14021  29.365  21.685   8.014
  858POPC   C4A14022  29.046  21.522   7.774
  858POPC   C1B14023  28.787  21.142   8.591
  858POPC   C2B14024  29.127  21.254   8.304
  858POPC   C3B14025  29.285  21.097   7.949
  858POPC   C4B14026  29.011  21.016   7.632
  859POPC   NC314027  11.502  14.383   9.601
  859POPC   PO414028  11.568  13.792   9.339
  859POPC   GL114029  11.484  14.185   9.104
  859POPC   GL214030  11.412  14.596   9.143
  859POPC   C1A14031  11.490  14.176   8.695
  859POPC   D2A14032  11.193  14.196   8.364
  859POPC   C3A14033  11.267  14.273   7.922
  859POPC   C4A14034  10.993  13.976   7.724
  859POPC   C1B14035  11.264  14.621   8.730
  859POPC   C2B14036  11.515  14.609   8.352
  859POPC   C3B14037  11.583  14.763   7.942
  859POPC   C4B14038  11.459  14.688   7.521
  860POPC   NC314039  10.350  35.926   9.672
  860POPC   PO414040  10.983  36.005   9.510
  860POPC   GL114041  10.701  35.976   9.172
  860POPC   GL214042  10.447  36.259   9.114
  860POPC   C1A14043  10.820  36.108   8.773
  860POPC   D2A14044  10.662  36.277   8.445
  860POPC   C3A14045  10.635  36.004   8.099
  860POPC   C4A14046  10.725  36.113   7.687
  860POPC   C1B14047  10.300  35.954   8.800
  860POPC   C2B14048  10.259  35.764   8.366
  860POPC   C3B14049  10.139  35.896   7.903
  860POPC   C4B14050  10.240  36.110   7.489
  861POPC   NC314051  20.509  34.122   9.347
  861POPC   PO414052  20.967  33.655   9.589
  861POPC   GL114053  20.705  33.667   9.230
  861POPC   GL214054  20.497  33.411   9.171
  861POPC   C1A14055  20.801  33.830   8.824
  861POPC   D2A14056  21.020  33.864   8.460
  861POPC   C3A14057  20.788  33.973   8.119
  861POPC   C4A14058  20.709  33.965   7.693
  861POPC   C1B14059  20.398  33.521   8.747
  861POPC   C2B14060  20.385  33.815   8.421
  861POPC   C3B14061  20.379  33.687   7.993
  861POPC   C4B14062  20.055  33.687   7.700
  862POPC   NC314063   6.019   2.380   9.398
  862POPC   PO414064   6.615   2.004   9.548
  862POPC   GL114065   6.546   1.973   9.142
  862POPC   GL214066   6.208   1.868   9.209
  862POPC   C1A14067   6.753   2.074   8.731
  862POPC   D2A14068   6.925   1.842   8.360
  862POPC   C3A14069   6.876   1.827   7.908
  862POPC   C4A14070   6.945   1.732   7.476
  862POPC   C1B14071   6.167   2.061   8.801
  862POPC   C2B14072   6.356   2.197   8.439
  862POPC   C3B14073   6.560   2.187   8.074
  862POPC   C4B14074   6.454   2.023   7.677
  863POPC   NC314075  16.238  23.381   9.964
  863POPC   PO414076  15.894  22.994   9.504
  863POPC   GL114077  15.852  22.954   9.106
  863POPC   GL214078  16.180  22.770   9.104
  863POPC   C1A14079  15.899  22.686   8.706
  863POPC   D2A14080  16.117  22.766   8.344
  863POPC   C3A14081  15.865  22.772   7.981
  863POPC   C4A14082  16.036  22.788   7.563
  863POPC   C1B14083  16.142  23.131   8.753
  863POPC   C2B14084  16.255  23.261   8.337
  863POPC   C3B14085  16.172  23.181   7.882
  863POPC   C4B14086  16.265  23.197   7.425
  864POPC   NC314087  21.380  22.874   9.563
  864POPC   PO414088  21.033  22.368   9.497
  864POPC   GL114089  21.124  22.740   9.148
  864POPC   GL214090  21.160  23.155   9.163
  864POPC   C1A14091  21.410  22.897   8.794
  864POPC   D2A14092  21.588  23.079   8.394
  864POPC   C3A14093  21.488  22.843   8.016
  864POPC   C4A14094  21.671  22.725   7.607
  864POPC   C1B14095  20.915  23.055   8.798
  864POPC   C2B14096  21.070  23.001   8.377
  864POPC   C3B14097  21.141  23.237   8.000
  864POPC   C4B14098  21.306  23.083   7.596
  865POPC   NC314099  32.585  42.122   9.482
  865POPC   PO414100  33.273  42.079   9.421
  865POPC   GL114101  33.115  42.304   9.095
  865POPC   GL214102  32.754  42.447   9.073
  865POPC   C1A14103  33.197  42.299   8.672
  865POPC   D2A14104  32.852  42.498   8.523
  865POPC   C3A14105  32.865  42.506   8.118
  865POPC   C4A14106  33.174  42.312   7.811
  865POPC   C1B14107  32.760  42.064   8.786
  865POPC   C2B14108  32.941  42.022   8.312
  865POPC   C3B14109  32.765  42.008   7.867
  865POPC   C4B14110  32.720  42.075   7.363
  866POPC   NC314111  28.557   0.841   9.673
  866POPC   PO414112  27.914   0.965   9.704
  866POPC   GL114113  28.089   1.025   9.263
  866POPC   GL214114  28.466   1.041   9.193
  866POPC   C1A14115  28.118   1.264   8.848
  866POPC   D2A14116  28.232   1.165   8.374
  866POPC   C3A14117  28.112   1.268   7.920
  866POPC   C4A14118  28.267   0.913   7.596
  866POPC   C1B14119  28.678   1.145   8.793
  866POPC   C2B14120  28.782   1.267   8.361
  866POPC   C3B14121  28.603   1.128   7.974
  866POPC   C4B14122  28.590   1.305   7.527
  867POPC   NC314123  11.461  36.174   9.517
  867POPC   PO414124  11.511  35.546   9.284
  867POPC   GL114125  11.258  35.882   9.078
  867POPC   GL214126  11.168  36.255   9.105
  867POPC   C1A14127  11.328  35.998   8.669
  867POPC   D2A14128  11.153  36.135   8.316
  867POPC   C3A14129  11.390  36.025   7.987
  867POPC   C4A14130  11.236  36.123   7.633
  867POPC   C1B14131  11.537  36.405   8.903
  867POPC   C2B14132  11.561  36.453   8.468
  867POPC   C3B14133  11.468  36.523   8.051
  867POPC   C4B14134  11.660  36.393   7.684
  868POPC   NC314135   0.765  10.772   9.544
  868POPC   PO414136   1.432  10.603   9.554
  868POPC   GL114137   1.342  10.394   9.132
  868POPC   GL214138   1.436  10.032   9.114
  868POPC   C1A14139   1.240  10.498   8.721
  868POPC   D2A14140   1.048  10.455   8.336
  868POPC   C3A14141   1.250  10.594   8.040
  868POPC   C4A14142   1.237  10.589   7.609
  868POPC   C1B14143   1.383   9.990   8.727
  868POPC   C2B14144   1.478  10.172   8.368
  868POPC   C3B14145   1.550  10.204   7.983
  868POPC   C4B14146   1.451  10.119   7.615
  869POPC   NC314147  42.223  29.598   9.150
  869POPC   PO414148  42.157  29.004   9.485
  869POPC   GL114149  42.461  29.002   9.162
  869POPC   GL214150  42.211  29.104   8.985
  869POPC   C1A14151  42.659  29.240   8.803
  869POPC   D2A14152  42.610  29.075   8.404
  869POPC   C3A14153  42.412  29.283   8.080
  869POPC   C4A14154  42.617  29.208   7.680
  869POPC   C1B14155  42.139  29.199   8.604
  869POPC   C2B14156  41.962  29.005   8.279
  869POPC   C3B14157  41.884  29.209   7.898
  869POPC   C4B14158  41.977  29.180   7.482
  870POPC   NC314159  18.029  12.287   9.354
  870POPC   PO414160  17.995  11.611   9.321
  870POPC   GL114161  18.028  11.815   8.979
  870POPC   GL214162  18.301  12.001   9.024
  870POPC   C1A14163  18.081  12.006   8.563
  870POPC   D2A14164  18.220  12.226   8.185
  870POPC   C3A14165  18.156  11.983   7.775
  870POPC   C4A14166  17.992  12.082   7.344
  870POPC   C1B14167  18.565  12.112   8.688
  870POPC   C2B14168  18.663  11.952   8.285
  870POPC   C3B14169  18.641  12.136   7.871
  870POPC   C4B14170  18.869  12.309   7.537
  871POPC   NC314171  10.842  43.799   9.582
  871POPC   PO414172  10.204  43.477   9.471
  871POPC   GL114173  10.512  43.679   9.176
  871POPC   GL214174  10.876  43.622   9.114
  871POPC   C1A14175  10.562  43.533   8.723
  871POPC   D2A14176  10.289  43.395   8.388
  871POPC   C3A14177  10.259  43.732   8.085
  871POPC   C4A14178  10.436  43.758   7.704
  871POPC   C1B14179  10.764  43.990   8.871
  871POPC   C2B14180  10.634  43.985   8.463
  871POPC   C3B14181  10.765  43.955   8.061
  871POPC   C4B14182  10.580  44.231   7.819
  872POPC   NC314183  14.698  23.908   9.498
  872POPC   PO414184  14.352  24.521   9.473
  872POPC   GL114185  14.260  24.344   9.117
  872POPC   GL214186  14.584  24.209   9.111
  872POPC   C1A14187  14.143  24.507   8.763
  872POPC   D2A14188  14.380  24.814   8.527
  872POPC   C3A14189  14.309  24.846   8.096
  872POPC   C4A14190  14.236  24.599   7.710
  872POPC   C1B14191  14.627  24.411   8.725
  872POPC   C2B14192  14.460  24.342   8.327
  872POPC   C3B14193  14.676  24.510   7.987
  872POPC   C4B14194  14.896  24.659   7.625
  873POPC   NC314195   9.397   1.673   9.555
  873POPC   PO414196   9.907   1.993   9.849
  873POPC   GL114197   9.891   1.786   9.378
  873POPC   GL214198   9.738   2.007   9.091
  873POPC   C1A14199  10.091   1.711   8.926
  873POPC   D2A14200  10.004   2.006   8.545
  873POPC   C3A14201   9.795   1.868   8.144
  873POPC   C4A14202   9.768   2.120   7.746
  873POPC   C1B14203   9.518   1.904   8.693
  873POPC   C2B14204   9.390   1.613   8.385
  873POPC   C3B14205   9.310   1.769   7.982
  873POPC   C4B14206   9.472   1.757   7.565
  874POPC   NC314207  34.513  11.712   9.490
  874POPC   PO414208  34.779  12.407   9.592
  874POPC   GL114209  34.509  12.187   9.258
  874POPC   GL214210  34.640  11.917   9.070
  874POPC   C1A14211  34.435  12.311   8.809
  874POPC   D2A14212  34.516  12.567   8.441
  874POPC   C3A14213  34.503  12.315   8.062
  874POPC   C4A14214  34.349  12.245   7.648
  874POPC   C1B14215  34.738  11.903   8.694
  874POPC   C2B14216  34.600  11.894   8.338
  874POPC   C3B14217  34.669  11.770   7.963
  874POPC   C4B14218  34.287  11.719   7.823
  875POPC   NC314219  25.623  36.277   9.452
  875POPC   PO414220  26.170  35.883   9.389
  875POPC   GL114221  25.866  36.010   9.092
  875POPC   GL214222  25.899  36.394   9.060
  875POPC   C1A14223  25.712  36.109   8.695
  875POPC   D2A14224  25.920  36.277   8.343
  875POPC   C3A14225  25.909  35.977   7.974
  875POPC   C4A14226  26.087  35.584   7.767
  875POPC   C1B14227  26.245  36.247   8.806
  875POPC   C2B14228  26.473  36.384   8.452
  875POPC   C3B14229  26.343  36.259   8.055
  875POPC   C4B14230  26.362  36.026   7.746
  876POPC   NC314231  28.447  32.982   9.646
  876POPC   PO414232  28.141  33.546   9.776
  876POPC   GL114233  28.192  33.310   9.288
  876POPC   GL214234  28.266  32.926   9.168
  876POPC   C1A14235  28.387  33.252   8.817
  876POPC   D2A14236  28.184  33.008   8.467
  876POPC   C3A14237  28.275  33.088   8.008
  876POPC   C4A14238  28.367  32.960   7.522
  876POPC   C1B14239  28.541  32.774   8.778
  876POPC   C2B14240  28.642  32.856   8.319
  876POPC   C3B14241  28.563  32.680   7.902
  876POPC   C4B14242  28.824  32.515   7.597
  877POPC   NC314243  14.108  10.213   9.384
  877POPC   PO414244  14.631  10.589   9.616
  877POPC   GL114245  14.556  10.486   9.201
  877POPC   GL214246  14.736  10.194   9.132
  877POPC   C1A14247  14.597  10.638   8.759
  877POPC   D2A14248  14.592  10.787   8.305
  877POPC   C3A14249  14.196  10.669   8.107
  877POPC   C4A14250  14.123  10.518   7.701
  877POPC   C1B14251  14.425  10.161   8.796
  877POPC   C2B14252  14.253  10.178   8.396
  877POPC   C3B14253  14.348  10.168   8.003
  877POPC   C4B14254  14.680  10.391   7.824
  878POPC   NC314255   4.877  20.891   9.648
  878POPC   PO414256   5.309  20.536   9.243
  878POPC   GL114257   5.112  20.784   8.989
  878POPC   GL214258   4.773  20.834   9.104
  878POPC   C1A14259   5.152  20.716   8.585
  878POPC   D2A14260   5.214  20.782   8.194
  878POPC   C3A14261   5.049  20.457   7.924
  878POPC   C4A14262   5.160  20.254   7.539
  878POPC   C1B14263   4.682  20.937   8.638
  878POPC   C2B14264   4.749  20.994   8.192
  878POPC   C3B14265   4.972  20.953   7.800
  878POPC   C4B14266   4.948  20.716   7.449
  879POPC   NC314267  29.445  38.456   9.402
  879POPC   PO414268  28.755  38.250   9.516
  879POPC   GL114269  28.877  38.135   9.101
  879POPC   GL214270  29.057  38.442   9.022
  879POPC   C1A14271  29.067  38.049   8.668
  879POPC   D2A14272  29.293  38.340   8.366
  879POPC   C3A14273  29.145  38.539   7.954
  879POPC   C4A14274  29.033  38.410   7.529
  879POPC   C1B14275  29.026  38.757   8.675
  879POPC   C2B14276  29.318  38.881   8.347
  879POPC   C3B14277  29.490  38.936   7.939
  879POPC   C4B14278  29.485  38.829   7.514
  880POPC   NC314279  43.201   1.566   9.593
  880POPC   PO414280  43.341   0.866   9.548
  880POPC   GL114281  43.245   1.179   9.280
  880POPC   GL214282  42.938   1.198   9.137
  880POPC   C1A14283  43.331   1.186   8.832
  880POPC   D2A14284  43.100   0.992   8.511
  880POPC   C3A14285  43.138   1.142   8.112
  880POPC   C4A14286  43.314   1.327   7.747
  880POPC   C1B14287  42.888   1.429   8.772
  880POPC   C2B14288  42.734   1.375   8.393
  880POPC   C3B14289  42.613   1.175   8.075
  880POPC   C4B14290  42.804   1.096   7.705
  881POPC   NC314291  17.071   5.096   9.825
  881POPC   PO414292  16.507   5.428   9.756
  881POPC   GL114293  16.775   5.091   9.392
  881POPC   GL214294  16.877   5.241   9.117
  881POPC   C1A14295  16.559   4.903   8.896
  881POPC   D2A14296  16.521   5.057   8.425
  881POPC   C3A14297  16.379   4.834   8.043
  881POPC   C4A14298  16.539   4.897   7.650
  881POPC   C1B14299  17.003   5.073   8.725
  881POPC   C2B14300  17.087   4.919   8.325
  881POPC   C3B14301  16.874   5.141   7.998
  881POPC   C4B14302  16.458   5.318   7.925
  882POPC   NC314303  26.552  16.796   9.415
  882POPC   PO414304  26.981  16.261   9.589
  882POPC   GL114305  27.060  16.496   9.166
  882POPC   GL214306  27.064  16.895   9.105
  882POPC   C1A14307  26.971  16.579   8.718
  882POPC   D2A14308  27.029  16.906   8.393
  882POPC   C3A14309  26.816  16.754   8.023
  882POPC   C4A14310  26.818  16.323   7.864
  882POPC   C1B14311  26.698  17.006   8.778
  882POPC   C2B14312  26.505  17.038   8.357
  882POPC   C3B14313  26.510  17.214   7.948
  882POPC   C4B14314  26.415  17.106   7.522
  883POPC   NC314315  18.425  21.733   9.581
  883POPC   PO414316  17.774  21.600   9.591
  883POPC   GL114317  17.943  21.406   9.218
  883POPC   GL214318  18.259  21.208   9.239
  883POPC   C1A14319  17.871  21.406   8.779
  883POPC   D2A14320  17.926  21.706   8.424
  883POPC   C3A14321  18.013  21.601   7.995
  883POPC   C4A14322  18.090  21.444   7.570
  883POPC   C1B14323  18.369  21.410   8.822
  883POPC   C2B14324  18.446  21.220   8.400
  883POPC   C3B14325  18.378  21.249   7.985
  883POPC   C4B14326  18.597  21.592   7.789
  884POPC   NC314327   8.300  33.472   9.791
  884POPC   PO414328   8.654  33.942   9.530
  884POPC   GL114329   8.303  33.861   9.237
  884POPC   GL214330   7.945  33.905   9.253
  884POPC   C1A14331   8.302  33.719   8.798
  884POPC   D2A14332   8.401  33.862   8.379
  884POPC   C3A14333   8.165  33.882   8.002
  884POPC   C4A14334   8.223  33.691   7.615
  884POPC   C1B14335   7.816  33.854   8.815
  884POPC   C2B14336   7.690  33.714   8.402
  884POPC   C3B14337   7.605  33.880   7.959
  884POPC   C4B14338   7.719  33.746   7.530
  885POPC   NC314339  14.688  21.768   9.324
  885POPC   PO414340  14.774  22.231   9.734
  885POPC   GL114341  14.497  22.213   9.273
  885POPC   GL214342  14.117  22.150   9.193
  885POPC   C1A14343  14.459  22.289   8.799
  885POPC   D2A14344  14.528  22.462   8.370
  885POPC   C3A14345  14.409  22.207   8.013
  885POPC   C4A14346  14.570  22.379   7.622
  885POPC   C1B14347  14.194  21.852   8.876
  885POPC   C2B14348  14.224  21.896   8.435
  885POPC   C3B14349  13.949  21.842   8.083
  885POPC   C4B14350  14.108  21.776   7.694
  886POPC   NC314351  30.123   3.118   9.495
  886POPC   PO414352  29.479   2.759   9.489
  886POPC   GL114353  29.659   2.671   9.104
  886POPC   GL214354  29.966   2.593   9.266
  886POPC   C1A14355  29.657   2.798   8.673
  886POPC   D2A14356  29.984   3.066   8.487
  886POPC   C3A14357  30.187   2.914   8.109
  886POPC   C4A14358  29.951   2.944   7.722
  886POPC   C1B14359  30.086   2.514   8.840
  886POPC   C2B14360  29.943   2.385   8.438
  886POPC   C3B14361  29.862   2.514   8.035
  886POPC   C4B14362  30.066   2.426   7.670
  887POPC   NC314363   0.020  22.865   9.461
  887POPC   PO414364  44.419  23.030   9.473
  887POPC   GL114365  44.490  22.761   9.151
  887POPC   GL214366  44.378  23.008   8.953
  887POPC   C1A14367  44.818  22.689   8.848
  887POPC   D2A14368   0.124  22.697   8.514
  887POPC   C3A14369  44.921  22.907   8.169
  887POPC   C4A14370  44.678  22.699   7.869
  887POPC   C1B14371  44.538  22.969   8.529
  887POPC   C2B14372  44.380  23.016   8.126
  887POPC   C3B14373  44.637  23.239   7.854
  887POPC   C4B14374   0.022  23.221   7.705
  888POPC   NC314375  31.921  37.272   9.424
  888POPC   PO414376  32.276  36.703   9.530
  888POPC   GL114377  32.421  36.808   9.140
  888POPC   GL214378  32.087  36.917   9.062
  888POPC   C1A14379  32.431  36.707   8.710
  888POPC   D2A14380  32.128  36.859   8.472
  888POPC   C3A14381  32.030  36.734   8.051
  888POPC   C4A14382  32.291  36.789   7.702
  888POPC   C1B14383  32.319  37.240   8.855
  888POPC   C2B14384  32.263  37.405   8.457
  888POPC   C3B14385  32.168  37.222   8.075
  888POPC   C4B14386  32.389  37.283   7.718
  889POPC   NC314387   0.311   0.248   9.656
  889POPC   PO414388   0.770   0.619   9.610
  889POPC   GL114389   0.520   0.686   9.233
  889POPC   GL214390   0.724   0.919   9.055
  889POPC   C1A14391   0.449   0.455   8.822
  889POPC   D2A14392   0.599   0.313   8.402
  889POPC   C3A14393   0.395   0.371   7.991
  889POPC   C4A14394   0.522   0.381   7.542
  889POPC   C1B14395   0.673   0.881   8.612
  889POPC   C2B14396   0.519   0.801   8.229
  889POPC   C3B14397   0.541   0.854   7.795
  889POPC   C4B14398   0.442   0.838   7.332
  890POPC   NC314399  37.558  20.812   9.540
  890POPC   PO414400  38.202  20.477   9.620
  890POPC   GL114401  38.048  20.469   9.143
  890POPC   GL214402  37.824  20.810   9.101
  890POPC   C1A14403  37.873  20.503   8.715
  890POPC   D2A14404  37.840  20.871   8.460
  890POPC   C3A14405  37.919  20.756   8.044
  890POPC   C4A14406  37.729  20.513   7.754
  890POPC   C1B14407  37.456  20.844   8.841
  890POPC   C2B14408  37.346  21.003   8.430
  890POPC   C3B14409  37.388  20.791   8.047
  890POPC   C4B14410  37.176  20.775   7.663
  891POPC   NC314411   7.178  30.180   9.761
  891POPC   PO414412   7.685  30.593   9.444
  891POPC   GL114413   7.539  30.768   9.039
  891POPC   GL214414   7.194  30.734   8.992
  891POPC   C1A14415   7.488  30.792   8.576
  891POPC   D2A14416   7.612  30.399   8.340
  891POPC   C3A14417   7.718  30.401   7.928
  891POPC   C4A14418   7.567  30.721   7.741
  891POPC   C1B14419   7.103  31.101   8.771
  891POPC   C2B14420   7.201  31.194   8.369
  891POPC   C3B14421   7.254  30.892   8.104
  891POPC   C4B14422   7.057  30.852   7.739
  892POPC   NC314423   7.271  30.876   9.467
  892POPC   PO414424   7.404  31.538   9.525
  892POPC   GL114425   7.373  31.325   9.138
  892POPC   GL214426   7.700  31.212   9.249
  892POPC   C1A14427   7.333  31.564   8.697
  892POPC   D2A14428   7.452  31.619   8.217
  892POPC   C3A14429   7.133  31.486   7.876
  892POPC   C4A14430   6.903  31.767   7.561
  892POPC   C1B14431   7.788  31.493   8.908
  892POPC   C2B14432   7.722  31.278   8.485
  892POPC   C3B14433   7.695  31.145   8.050
  892POPC   C4B14434   7.885  31.098   7.625
  893POPC   NC314435  14.055  35.991   9.828
  893POPC   PO414436  13.657  36.471   9.463
  893POPC   GL114437  13.544  36.182   9.112
  893POPC   GL214438  13.827  35.994   8.974
  893POPC   C1A14439  13.478  36.206   8.650
  893POPC   D2A14440  13.554  36.473   8.268
  893POPC   C3A14441  13.450  36.318   7.853
  893POPC   C4A14442  13.743  36.145   7.525
  893POPC   C1B14443  14.120  35.796   8.738
  893POPC   C2B14444  13.972  35.720   8.340
  893POPC   C3B14445  13.757  35.924   8.030
  893POPC   C4B14446  14.083  35.785   7.750
  894POPC   NC314447  43.299  42.308   9.734
  894POPC   PO414448  42.912  41.855   9.359
  894POPC   GL114449  42.960  42.229   9.123
  894POPC   GL214450  43.133  42.043   8.885
  894POPC   C1A14451  42.924  42.477   8.729
  894POPC   D2A14452  43.076  42.242   8.384
  894POPC   C3A14453  43.169  42.382   7.963
  894POPC   C4A14454  43.082  42.604   7.561
  894POPC   C1B14455  42.742  41.997   8.710
  894POPC   C2B14456  42.794  41.795   8.332
  894POPC   C3B14457  42.817  42.027   7.994
  894POPC   C4B14458  42.946  42.104   7.548
  895POPC   NC314459   7.770  17.643   9.507
  895POPC   PO414460   8.347  17.300   9.504
  895POPC   GL114461   8.163  17.525   9.203
  895POPC   GL214462   7.931  17.279   9.142
  895POPC   C1A14463   8.052  17.748   8.858
  895POPC   D2A14464   8.129  17.835   8.425
  895POPC   C3A14465   7.956  17.690   8.040
  895POPC   C4A14466   8.233  17.484   7.765
  895POPC   C1B14467   7.852  17.296   8.732
  895POPC   C2B14468   8.039  17.325   8.351
  895POPC   C3B14469   7.907  17.146   7.958
  895POPC   C4B14470   7.768  17.281   7.516
  896POPC   NC314471   9.854  31.215   9.445
  896POPC   PO414472   9.243  31.659   9.388
  896POPC   GL114473   9.556  31.518   9.121
  896POPC   GL214474   9.844  31.710   9.195
  896POPC   C1A14475   9.526  31.603   8.679
  896POPC   D2A14476   9.216  31.660   8.369
  896POPC   C3A14477   9.438  31.804   8.015
  896POPC   C4A14478   9.644  31.562   7.720
  896POPC   C1B14479   9.973  31.411   8.832
  896POPC   C2B14480  10.088  31.330   8.413
  896POPC   C3B14481  10.049  31.330   7.964
  896POPC   C4B14482  10.126  31.544   7.556
  897POPC   NC314483   0.658   7.359   9.554
  897POPC   PO414484   0.165   6.887   9.454
  897POPC   GL114485   0.332   7.236   9.183
  897POPC   GL214486   0.141   7.560   9.138
  897POPC   C1A14487   0.608   7.360   8.852
  897POPC   D2A14488   0.618   7.190   8.431
  897POPC   C3A14489   0.535   7.457   8.077
  897POPC   C4A14490   0.542   7.541   7.648
  897POPC   C1B14491   0.268   7.712   8.737
  897POPC   C2B14492   0.155   7.712   8.309
  897POPC   C3B14493   0.299   7.919   7.924
  897POPC   C4B14494   0.316   8.068   7.490
  898POPC   NC314495  26.122  12.735   9.521
  898POPC   PO414496  25.745  13.331   9.597
  898POPC   GL114497  25.874  13.174   9.211
  898POPC   GL214498  26.222  13.083   9.145
  898POPC   C1A14499  25.776  13.003   8.820
  898POPC   D2A14500  25.793  12.672   8.548
  898POPC   C3A14501  25.864  12.844   8.134
  898POPC   C4A14502  25.983  12.666   7.746
  898POPC   C1B14503  26.236  12.758   8.822
  898POPC   C2B14504  26.290  12.645   8.365
  898POPC   C3B14505  26.400  12.451   7.961
  898POPC   C4B14506  26.306  12.357   7.489
  899POPC   NC314507  18.850  26.124   9.549
  899POPC   PO414508  19.460  25.911   9.628
  899POPC   GL114509  19.222  26.037   9.207
  899POPC   GL214510  19.343  25.815   8.988
  899POPC   C1A14511  18.913  26.039   8.819
  899POPC   D2A14512  18.625  26.172   8.459
  899POPC   C3A14513  18.783  26.282   8.047
  899POPC   C4A14514  18.872  26.170   7.613
  899POPC   C1B14515  19.399  26.216   8.744
  899POPC   C2B14516  19.162  26.381   8.416
  899POPC   C3B14517  19.308  26.217   8.030
  899POPC   C4B14518  19.424  25.999   7.674
  900POPC   NC314519  27.766  42.551   9.663
  900POPC   PO414520  27.339  42.047   9.814
  900POPC   GL114521  27.470  42.225   9.369
  900POPC   GL214522  27.682  42.011   9.135
  900POPC   C1A14523  27.585  42.537   9.020
  900POPC   D2A14524  27.645  42.622   8.567
  900POPC   C3A14525  27.883  42.450   8.203
  900POPC   C4A14526  27.791  42.479   7.750
  900POPC   C1B14527  27.434  42.126   8.749
  900POPC   C2B14528  27.447  42.201   8.310
  900POPC   C3B14529  27.509  42.068   7.887
  900POPC   C4B14530  27.767  41.993   7.541
  901POPC   NC314531  35.241  34.945   9.419
  901POPC   PO414532  35.181  35.589   9.506
  901POPC   GL114533  35.469  35.374   9.222
  901POPC   GL214534  35.794  35.581   9.173
  901POPC   C1A14535  35.238  35.289   8.847
  901POPC   D2A14536  35.104  35.606   8.537
  901POPC   C3A14537  35.065  35.397   8.139
  901POPC   C4A14538  35.184  35.542   7.744
  901POPC   C1B14539  35.729  35.291   8.784
  901POPC   C2B14540  35.499  35.304   8.411
  901POPC   C3B14541  35.598  35.451   8.040
  901POPC   C4B14542  35.666  35.346   7.617
  902POPC   NC314543   8.365  44.028   9.447
  902POPC   PO414544   7.688  44.291   9.398
  902POPC   GL114545   7.894  44.078   9.059
  902POPC   GL214546   8.080  43.800   9.072
  902POPC   C1A14547   7.929  44.016   8.629
  902POPC   D2A14548   8.157  43.779   8.322
  902POPC   C3A14549   7.956  43.817   7.928
  902POPC   C4A14550   7.969  43.866   7.502
  902POPC   C1B14551   8.450  43.795   8.809
  902POPC   C2B14552   8.651  43.865   8.422
  902POPC   C3B14553   8.555  44.006   8.018
  902POPC   C4B14554   8.487  43.859   7.632
  903POPC   NC314555  29.806  11.020   9.489
  903POPC   PO414556  29.689  11.598   9.306
  903POPC   GL114557  29.847  11.249   9.047
  903POPC   GL214558  30.089  10.930   9.085
  903POPC   C1A14559  29.665  11.213   8.679
  903POPC   D2A14560  29.714  11.386   8.296
  903POPC   C3A14561  29.970  11.171   8.043
  903POPC   C4A14562  29.916  11.402   7.712
  903POPC   C1B14563  30.178  11.090   8.667
  903POPC   C2B14564  30.184  11.463   8.417
  903POPC   C3B14565  30.319  11.562   8.005
  903POPC   C4B14566  30.411  11.228   7.694
  904POPC   NC314567  25.608  21.499   9.409
  904POPC   PO414568  25.316  20.915   9.548
  904POPC   GL114569  25.198  21.173   9.164
  904POPC   GL214570  25.098  21.537   9.178
  904POPC   C1A14571  25.375  21.313   8.771
  904POPC   D2A14572  25.572  21.393   8.369
  904POPC   C3A14573  25.207  21.352   8.093
  904POPC   C4A14574  25.212  21.129   7.685
  904POPC   C1B14575  25.030  21.695   8.726
  904POPC   C2B14576  25.319  21.834   8.421
  904POPC   C3B14577  25.498  21.773   8.019
  904POPC   C4B14578  25.221  21.651   7.688
  905POPC   NC314579  16.476  19.077   9.525
  905POPC   PO414580  16.975  18.695   9.685
  905POPC   GL114581  16.882  18.879   9.248
  905POPC   GL214582  16.730  19.236   9.108
  905POPC   C1A14583  16.712  18.777   8.836
  905POPC   D2A14584  16.619  19.113   8.575
  905POPC   C3A14585  16.689  18.993   8.160
  905POPC   C4A14586  16.728  19.085   7.707
  905POPC   C1B14587  16.960  19.480   8.772
  905POPC   C2B14588  17.057  19.296   8.395
  905POPC   C3B14589  16.939  19.413   8.028
  905POPC   C4B14590  17.110  19.456   7.656
  906POPC   NC314591  30.357  36.833   9.504
  906POPC   PO414592  29.817  37.189   9.627
  906POPC   GL114593  29.850  36.960   9.269
  906POPC   GL214594  29.629  37.189   9.120
  906POPC   C1A14595  29.835  36.808   8.835
  906POPC   D2A14596  29.808  37.017   8.433
  906POPC   C3A14597  29.914  36.750   8.075
  906POPC   C4A14598  30.158  36.773   7.687
  906POPC   C1B14599  29.416  37.168   8.766
  906POPC   C2B14600  29.313  37.041   8.344
  906POPC   C3B14601  29.552  37.114   7.983
  906POPC   C4B14602  29.837  37.216   7.635
  907POPC   NC314603   0.341  20.323   9.504
  907POPC   PO414604   0.177  20.955   9.479
  907POPC   GL114605   0.409  20.710   9.184
  907POPC   GL214606   0.743  20.541   9.257
  907POPC   C1A14607   0.440  20.819   8.767
  907POPC   D2A14608   0.542  20.894   8.376
  907POPC   C3A14609   0.370  20.728   8.060
  907POPC   C4A14610   0.511  20.528   7.703
  907POPC   C1B14611   0.818  20.288   8.878
  907POPC   C2B14612   0.660  20.368   8.469
  907POPC   C3B14613   0.818  20.319   8.055
  907POPC   C4B14614   0.957  20.302   7.618
  908POPC   NC314615  33.755  11.299   9.527
  908POPC   PO414616  34.065  11.811   9.274
  908POPC   GL114617  33.856  11.483   9.058
  908POPC   GL214618  33.889  11.093   9.093
  908POPC   C1A14619  33.822  11.579   8.637
  908POPC   D2A14620  34.170  11.581   8.375
  908POPC   C3A14621  34.007  11.369   8.096
  908POPC   C4A14622  33.835  11.489   7.718
  908POPC   C1B14623  34.096  11.133   8.723
  908POPC   C2B14624  34.142  10.936   8.346
  908POPC   C3B14625  34.226  10.789   7.952
  908POPC   C4B14626  34.223  10.791   7.446
  909POPC   NC314627   0.802  44.401   9.520
  909POPC   PO414628   0.187  44.472   9.512
  909POPC   GL114629   0.474  44.676   9.208
  909POPC   GL214630   0.644   0.033   9.299
  909POPC   C1A14631   0.475  44.499   8.782
  909POPC   D2A14632   0.548  44.275   8.377
  909POPC   C3A14633   0.505  44.477   7.975
  909POPC   C4A14634   0.043  44.572   7.806
  909POPC   C1B14635   0.682  44.987   8.854
  909POPC   C2B14636   0.303  44.949   8.610
  909POPC   C3B14637   0.248  44.869   8.187
  909POPC   C4B14638   0.403  44.919   7.750
  910POPC   NC314639   8.449   2.549   9.507
  910POPC   PO414640   8.105   3.101   9.510
  910POPC   GL114641   8.147   2.802   9.174
  910POPC   GL214642   8.028   2.443   9.206
  910POPC   C1A14643   8.323   2.826   8.786
  910POPC   D2A14644   8.266   3.025   8.401
  910POPC   C3A14645   8.547   2.997   8.048
  910POPC   C4A14646   8.426   2.999   7.631
  910POPC   C1B14647   8.207   2.306   8.801
  910POPC   C2B14648   8.187   2.516   8.402
  910POPC   C3B14649   8.119   2.717   7.999
  910POPC   C4B14650   8.071   2.645   7.585
  911POPC   NC314651  34.997   5.325   9.401
  911POPC   PO414652  35.721   5.054   9.292
  911POPC   GL114653  35.337   5.064   9.129
  911POPC   GL214654  35.069   4.844   9.249
  911POPC   C1A14655  35.314   5.104   8.712
  911POPC   D2A14656  35.471   5.018   8.335
  911POPC   C3A14657  35.310   5.361   8.158
  911POPC   C4A14658  35.348   5.435   7.755
  911POPC   C1B14659  34.938   4.789   8.803
  911POPC   C2B14660  34.958   4.911   8.361
  911POPC   C3B14661  35.156   4.849   7.952
  911POPC   C4B14662  34.949   4.586   7.631
  912POPC   NC314663  18.216   3.945   9.483
  912POPC   PO414664  18.433   4.654   9.556
  912POPC   GL114665  18.343   4.377   9.200
  912POPC   GL214666  18.049   4.189   9.042
  912POPC   C1A14667  18.528   4.123   8.884
  912POPC   D2A14668  18.582   3.996   8.476
  912POPC   C3A14669  18.250   4.101   8.166
  912POPC   C4A14670  18.306   4.370   7.834
  912POPC   C1B14671  18.144   4.360   8.603
  912POPC   C2B14672  17.974   4.563   8.191
  912POPC   C3B14673  18.016   4.767   7.756
  912POPC   C4B14674  18.061   4.450   7.388
  913POPC   NC314675  23.210  14.352   9.523
  913POPC   PO414676  22.685  14.781   9.615
  913POPC   GL114677  22.879  14.563   9.193
  913POPC   GL214678  23.028  14.183   9.097
  913POPC   C1A14679  23.139  14.581   8.804
  913POPC   D2A14680  23.106  14.469   8.346
  913POPC   C3A14681  22.775  14.634   8.040
  913POPC   C4A14682  22.745  14.534   7.594
  913POPC   C1B14683  22.762  14.214   8.743
  913POPC   C2B14684  22.667  14.189   8.323
  913POPC   C3B14685  22.854  14.157   7.935
  913POPC   C4B14686  22.611  13.972   7.643
  914POPC   NC314687  10.734  31.285   9.445
  914POPC   PO414688  10.119  31.575   9.594
  914POPC   GL114689  10.356  31.580   9.130
  914POPC   GL214690  10.706  31.705   9.134
  914POPC   C1A14691  10.392  31.677   8.668
  914POPC   D2A14692  10.578  31.409   8.298
  914POPC   C3A14693  10.518  31.564   7.902
  914POPC   C4A14694  10.484  31.975   7.831
  914POPC   C1B14695  10.847  31.478   8.737
  914POPC   C2B14696  11.081  31.548   8.342
  914POPC   C3B14697  11.007  31.739   7.945
  914POPC   C4B14698  10.932  31.599   7.555
  915POPC   NC314699   6.093  21.192   9.704
  915POPC   PO414700   5.643  21.537   9.403
  915POPC   GL114701   5.848  21.392   9.074
  915POPC   GL214702   6.163  21.322   9.223
  915POPC   C1A14703   6.015  21.628   8.738
  915POPC   D2A14704   6.047  21.736   8.333
  915POPC   C3A14705   5.967  21.451   8.054
  915POPC   C4A14706   5.834  21.491   7.647
  915POPC   C1B14707   6.354  21.270   8.846
  915POPC   C2B14708   6.301  21.238   8.410
  915POPC   C3B14709   6.392  21.051   8.022
  915POPC   C4B14710   6.029  21.029   7.758
  916POPC   NC314711  30.885  12.814   9.949
  916POPC   PO414712  31.035  12.875   9.265
  916POPC   GL114713  30.718  12.785   8.981
  916POPC   GL214714  30.684  13.128   8.841
  916POPC   C1A14715  30.614  12.473   8.679
  916POPC   D2A14716  30.590  12.387   8.235
  916POPC   C3A14717  30.849  12.666   8.007
  916POPC   C4A14718  31.119  12.584   7.671
  916POPC   C1B14719  30.637  12.928   8.473
  916POPC   C2B14720  30.249  12.742   8.390
  916POPC   C3B14721  30.237  12.712   7.992
  916POPC   C4B14722  30.513  12.901   7.691
  917POPC   NC314723  42.633   7.672   9.576
  917POPC   PO414724  41.945   7.699   9.534
  917POPC   GL114725  42.218   7.433   9.247
  917POPC   GL214726  42.489   7.546   9.108
  917POPC   C1A14727  42.128   7.320   8.794
  917POPC   D2A14728  42.307   7.331   8.384
  917POPC   C3A14729  42.093   7.355   7.961
  917POPC   C4A14730  42.211   7.213   7.502
  917POPC   C1B14731  42.641   7.215   8.847
  917POPC   C2B14732  42.838   7.264   8.473
  917POPC   C3B14733  42.706   7.526   8.137
  917POPC   C4B14734  42.597   7.392   7.762
  918POPC   NC314735  11.960  12.434   9.596
  918POPC   PO414736  12.008  13.127   9.783
  918POPC   GL114737  11.808  12.794   9.305
  918POPC   GL214738  12.159  12.685   9.215
  918POPC   C1A14739  11.907  12.789   8.793
  918POPC   D2A14740  11.872  12.601   8.374
  918POPC   C3A14741  11.781  12.823   7.991
  918POPC   C4A14742  12.153  13.029   7.833
  918POPC   C1B14743  12.377  12.546   8.871
  918POPC   C2B14744  12.346  12.419   8.463
  918POPC   C3B14745  12.283  12.586   8.075
  918POPC   C4B14746  12.249  12.505   7.659
  919POPC   NC314747   0.794   8.348   9.604
  919POPC   PO414748   0.410   7.766   9.521
  919POPC   GL114749   0.539   8.067   9.213
  919POPC   GL214750   0.917   8.018   9.223
  919POPC   C1A14751   0.413   8.199   8.789
  919POPC   D2A14752   0.142   8.234   8.414
  919POPC   C3A14753   0.286   8.436   8.044
  919POPC   C4A14754   0.651   8.382   7.793
  919POPC   C1B14755   0.786   7.852   8.806
  919POPC   C2B14756   0.615   7.924   8.377
  919POPC   C3B14757   0.817   7.931   7.966
  919POPC   C4B14758   0.801   7.961   7.490
  920POPC   NC314759  18.145  33.964   9.496
  920POPC   PO414760  18.668  33.645   9.621
  920POPC   GL114761  18.436  33.638   9.201
  920POPC   GL214762  18.321  34.011   9.043
  920POPC   C1A14763  18.591  33.696   8.781
  920POPC   D2A14764  18.410  33.997   8.498
  920POPC   C3A14765  18.538  33.846   8.112
  920POPC   C4A14766  18.446  33.919   7.698
  920POPC   C1B14767  17.932  34.178   8.916
  920POPC   C2B14768  17.891  34.167   8.495
  920POPC   C3B14769  17.976  33.862   8.221
  920POPC   C4B14770  17.936  33.921   7.826
  921POPC   NC314771   6.740  22.734   9.411
  921POPC   PO414772   6.532  23.358   9.470
  921POPC   GL114773   6.655  23.168   9.107
  921POPC   GL214774   6.354  22.955   9.142
  921POPC   C1A14775   6.645  23.048   8.678
  921POPC   D2A14776   6.436  22.986   8.287
  921POPC   C3A14777   6.677  23.149   7.964
  921POPC   C4A14778   6.824  22.739   7.872
  921POPC   C1B14779   6.181  22.842   8.763
  921POPC   C2B14780   6.150  22.574   8.432
  921POPC   C3B14781   6.344  22.549   8.034
  921POPC   C4B14782   6.309  22.873   7.780
  922POPC   NC314783  33.409  24.380   9.672
  922POPC   PO414784  32.706  24.487   9.483
  922POPC   GL114785  33.089  24.349   9.250
  922POPC   GL214786  33.169  24.689   9.173
  922POPC   C1A14787  33.328  24.196   8.848
  922POPC   D2A14788  33.299  24.317   8.388
  922POPC   C3A14789  32.948  24.229   8.092
  922POPC   C4A14790  33.098  24.288   7.660
  922POPC   C1B14791  32.964  24.524   8.768
  922POPC   C2B14792  32.880  24.666   8.353
  922POPC   C3B14793  33.120  24.691   7.945
  922POPC   C4B14794  33.428  24.710   7.587
  923POPC   NC314795   9.312  13.138   9.441
  923POPC   PO414796   8.846  12.621   9.549
  923POPC   GL114797   8.777  12.888   9.221
  923POPC   GL214798   9.094  12.976   9.033
  923POPC   C1A14799   8.651  12.927   8.808
  923POPC   D2A14800   9.002  12.941   8.527
  923POPC   C3A14801   8.758  12.999   8.158
  923POPC   C4A14802   8.848  12.882   7.769
  923POPC   C1B14803   9.343  13.267   8.781
  923POPC   C2B14804   9.526  13.160   8.403
  923POPC   C3B14805   9.255  13.027   8.066
  923POPC   C4B14806   9.197  13.238   7.652
  924POPC   NC314807  30.017  33.366   9.561
  924POPC   PO414808  29.525  33.896   9.550
  924POPC   GL114809  29.596  33.906   9.131
  924POPC   GL214810  29.942  33.763   9.083
  924POPC   C1A14811  29.684  34.169   8.778
  924POPC   D2A14812  29.873  34.225   8.355
  924POPC   C3A14813  29.711  34.080   7.932
  924POPC   C4A14814  29.797  33.651   7.774
  924POPC   C1B14815  30.183  34.080   8.845
  924POPC   C2B14816  30.379  34.155   8.424
  924POPC   C3B14817  30.229  34.184   7.998
  924POPC   C4B14818  30.179  34.010   7.607
  925POPC   NC314819  11.827   1.923   9.494
  925POPC   PO414820  12.310   2.344   9.438
  925POPC   GL114821  12.142   2.115   9.123
  925POPC   GL214822  12.124   1.739   9.116
  925POPC   C1A14823  12.315   2.113   8.733
  925POPC   D2A14824  12.151   2.190   8.345
  925POPC   C3A14825  12.120   1.867   8.052
  925POPC   C4A14826  12.256   1.939   7.634
  925POPC   C1B14827  11.866   1.839   8.753
  925POPC   C2B14828  11.637   2.001   8.402
  925POPC   C3B14829  11.674   2.116   7.973
  925POPC   C4B14830  11.764   1.802   7.646
  926POPC   NC314831  37.810  29.751   9.423
  926POPC   PO414832  37.250  30.097   9.517
  926POPC   GL114833  37.514  30.069   9.135
  926POPC   GL214834  37.421  29.729   9.065
  926POPC   C1A14835  37.903  30.008   8.842
  926POPC   D2A14836  37.980  29.806   8.447
  926POPC   C3A14837  37.836  30.094   8.147
  926POPC   C4A14838  37.671  30.128   7.742
  926POPC   C1B14839  37.488  29.829   8.639
  926POPC   C2B14840  37.352  30.012   8.266
  926POPC   C3B14841  37.490  29.739   7.990
  926POPC   C4B14842  37.273  29.509   7.754
  927POPC   NC314843  17.374  18.638   9.481
  927POPC   PO414844  17.726  19.210   9.579
  927POPC   GL114845  17.498  19.076   9.237
  927POPC   GL214846  17.236  19.264   9.141
  927POPC   C1A14847  17.605  18.858   8.869
  927POPC   D2A14848  17.524  18.988   8.446
  927POPC   C3A14849  17.763  18.921   8.061
  927POPC   C4A14850  17.707  18.808   7.671
  927POPC   C1B14851  17.143  19.008   8.817
  927POPC   C2B14852  17.071  18.761   8.461
  927POPC   C3B14853  17.170  18.880   8.070
  927POPC   C4B14854  17.240  18.984   7.692
  928POPC   NC314855  30.652   9.750   9.549
  928POPC   PO414856  30.618  10.357   9.498
  928POPC   GL114857  30.521  10.027   9.162
  928POPC   GL214858  30.788   9.750   9.057
  928POPC   C1A14859  30.457   9.964   8.736
  928POPC   D2A14860  30.703   9.888   8.369
  928POPC   C3A14861  30.446   9.873   8.034
  928POPC   C4A14862  30.557   9.994   7.664
  928POPC   C1B14863  30.566   9.461   8.738
  928POPC   C2B14864  30.459   9.439   8.300
  928POPC   C3B14865  30.707   9.450   7.898
  928POPC   C4B14866  30.715   9.559   7.447
  929POPC   NC314867   7.583  25.245   9.591
  929POPC   PO414868   7.064  24.862   9.496
  929POPC   GL114869   7.248  25.103   9.133
  929POPC   GL214870   7.539  25.348   9.095
  929POPC   C1A14871   7.474  25.001   8.742
  929POPC   D2A14872   7.691  25.049   8.376
  929POPC   C3A14873   7.484  25.119   7.977
  929POPC   C4A14874   7.098  25.316   7.826
  929POPC   C1B14875   7.688  25.480   8.667
  929POPC   C2B14876   7.892  25.495   8.249
  929POPC   C3B14877   7.814  25.496   7.818
  929POPC   C4B14878   7.612  25.295   7.484
  930POPC   NC314879  43.731  11.530   9.521
  930POPC   PO414880  44.333  11.263   9.692
  930POPC   GL114881  44.104  11.318   9.244
  930POPC   GL214882  44.277  11.065   9.039
  930POPC   C1A14883  43.738  11.388   8.895
  930POPC   D2A14884  43.519  11.349   8.465
  930POPC   C3A14885  43.685  11.360   7.979
  930POPC   C4A14886  43.684  11.458   7.471
  930POPC   C1B14887  44.247  11.421   8.782
  930POPC   C2B14888  43.982  11.568   8.480
  930POPC   C3B14889  44.101  11.625   8.106
  930POPC   C4B14890  44.159  11.437   7.734
  931POPC   NC314891   0.026   2.948   9.501
  931POPC   PO414892  44.404   2.831   9.609
  931POPC   GL114893  44.484   2.764   9.176
  931POPC   GL214894  44.827   2.646   9.072
  931POPC   C1A14895  44.427   2.589   8.776
  931POPC   D2A14896  44.522   2.855   8.431
  931POPC   C3A14897  44.675   2.694   8.089
  931POPC   C4A14898  44.473   2.624   7.740
  931POPC   C1B14899  44.773   3.021   8.844
  931POPC   C2B14900  44.903   3.226   8.475
  931POPC   C3B14901  44.706   3.218   8.076
  931POPC   C4B14902  44.840   3.003   7.714
  932POPC   NC314903  44.154  36.635   9.633
  932POPC   PO414904  43.556  36.930   9.455
  932POPC   GL114905  43.988  36.935   9.227
  932POPC   GL214906  44.003  37.254   9.030
  932POPC   C1A14907  44.207  36.831   8.812
  932POPC   D2A14908  44.012  36.733   8.432
  932POPC   C3A14909  44.165  36.821   8.057
  932POPC   C4A14910  44.127  36.922   7.650
  932POPC   C1B14911  43.709  36.966   8.788
  932POPC   C2B14912  43.509  36.816   8.373
  932POPC   C3B14913  43.665  36.810   7.930
  932POPC   C4B14914  43.667  37.072   7.519
  933POPC   NC314915  25.527   9.055   9.489
  933POPC   PO414916  24.851   8.837   9.583
  933POPC   GL114917  25.143   8.911   9.195
  933POPC   GL214918  25.274   9.229   9.057
  933POPC   C1A14919  25.235   8.740   8.805
  933POPC   D2A14920  25.269   9.000   8.444
  933POPC   C3A14921  25.167   8.793   8.064
  933POPC   C4A14922  25.378   8.848   7.680
  933POPC   C1B14923  25.163   9.461   8.672
  933POPC   C2B14924  25.229   9.578   8.241
  933POPC   C3B14925  25.426   9.255   7.996
  933POPC   C4B14926  25.626   9.309   7.605
  934POPC   NC314927  40.278  37.468   9.567
  934POPC   PO414928  39.903  38.030   9.443
  934POPC   GL114929  39.893  37.629   9.203
  934POPC   GL214930  40.216  37.536   9.014
  934POPC   C1A14931  39.759  37.488   8.794
  934POPC   D2A14932  40.064  37.388   8.494
  934POPC   C3A14933  39.921  37.637   8.200
  934POPC   C4A14934  40.070  37.672   7.805
  934POPC   C1B14935  40.141  37.852   8.659
  934POPC   C2B14936  40.140  38.172   8.323
  934POPC   C3B14937  40.299  38.137   7.891
  934POPC   C4B14938  40.493  37.858   7.594
  935POPC   NC314939  41.499  12.162   9.502
  935POPC   PO414940  41.803  11.532   9.465
  935POPC   GL114941  41.722  11.848   9.162
  935POPC   GL214942  41.401  11.815   8.940
  935POPC   C1A14943  41.791  12.093   8.816
  935POPC   D2A14944  41.527  11.991   8.446
  935POPC   C3A14945  41.604  11.710   8.115
  935POPC   C4A14946  41.485  11.822   7.712
  935POPC   C1B14947  41.311  12.292   8.808
  935POPC   C2B14948  41.464  12.491   8.404
  935POPC   C3B14949  41.554  12.296   7.979
  935POPC   C4B14950  41.242  12.246   7.603
  936POPC   NC314951   2.477   2.736   9.590
  936POPC   PO414952   3.173   2.867   9.662
  936POPC   GL114953   2.873   2.829   9.302
  936POPC   GL214954   2.751   2.477   9.243
  936POPC   C1A14955   2.805   2.974   8.886
  936POPC   D2A14956   3.118   3.042   8.595
  936POPC   C3A14957   3.057   2.930   8.182
  936POPC   C4A14958   2.938   3.044   7.776
  936POPC   C1B14959   2.592   2.416   8.830
  936POPC   C2B14960   2.571   2.669   8.479
  936POPC   C3B14961   2.578   2.778   8.056
  936POPC   C4B14962   2.729   2.548   7.700
  937POPC   NC314963  39.935  32.743   9.867
  937POPC   PO414964  39.936  32.201   9.512
  937POPC   GL114965  39.942  32.122   9.133
  937POPC   GL214966  39.820  32.439   9.068
  937POPC   C1A14967  40.267  32.088   8.847
  937POPC   D2A14968  40.258  31.953   8.457
  937POPC   C3A14969  40.418  32.102   8.089
  937POPC   C4A14970  40.031  32.154   7.930
  937POPC   C1B14971  40.112  32.565   8.772
  937POPC   C2B14972  40.226  32.466   8.387
  937POPC   C3B14973  40.247  32.612   7.992
  937POPC   C4B14974  39.863  32.576   7.719
  938POPC   NC314975  41.714  34.457   9.625
  938POPC   PO414976  41.284  34.549   9.091
  938POPC   GL114977  41.525  34.463   8.829
  938POPC   GL214978  41.793  34.434   9.093
  938POPC   C1A14979  41.509  34.768   8.501
  938POPC   D2A14980  41.775  34.949   8.241
  938POPC   C3A14981  41.603  34.738   7.904
  938POPC   C4A14982  41.316  34.627   7.539
  938POPC   C1B14983  41.959  34.709   8.759
  938POPC   C2B14984  41.919  34.451   8.424
  938POPC   C3B14985  41.868  34.215   8.058
  938POPC   C4B14986  41.790  34.358   7.645
  939POPC   NC314987  28.169  40.234   9.423
  939POPC   PO414988  28.032  39.698   9.515
  939POPC   GL114989  28.299  39.849   9.106
  939POPC   GL214990  28.660  39.880   9.123
  939POPC   C1A14991  28.458  40.179   8.746
  939POPC   D2A14992  28.434  40.371   8.260
  939POPC   C3A14993  28.286  40.115   7.858
  939POPC   C4A14994  28.099  40.047   7.414
  939POPC   C1B14995  28.636  39.661   8.737
  939POPC   C2B14996  28.612  39.893   8.352
  939POPC   C3B14997  28.776  39.926   7.952
  939POPC   C4B14998  28.583  39.811   7.542
  940POPC   NC314999  25.001  24.118   9.441
  940POPC   PO415000  25.417  24.536   9.755
  940POPC   GL115001  25.406  24.420   9.299
  940POPC   GL215002  25.336  24.723   9.156
  940POPC   C1A15003  25.318  24.287   8.848
  940POPC   D2A15004  25.324  24.068   8.427
  940POPC   C3A15005  25.106  24.219   8.066
  940POPC   C4A15006  25.126  24.330   7.595
  940POPC   C1B15007  25.460  24.769   8.754
  940POPC   C2B15008  25.387  24.585   8.389
  940POPC   C3B15009  25.555  24.467   8.024
  940POPC   C4B15010  25.514  24.661   7.647
  941POPC   NC315011  44.281  21.738   9.279
  941POPC   PO415012  44.796  22.106   9.527
  941POPC   GL115013  44.628  22.240   9.086
  941POPC   GL215014  44.286  22.153   8.969
  941POPC   C1A15015  44.733  22.241   8.619
  941POPC   D2A15016   0.066  22.173   8.282
  941POPC   C3A15017  44.907  22.237   7.838
  941POPC   C4A15018  44.840  22.076   7.420
  941POPC   C1B15019  44.452  21.823   8.677
  941POPC   C2B15020  44.615  21.869   8.265
  941POPC   C3B15021  44.574  21.826   7.818
  941POPC   C4B15022  44.365  21.942   7.477
  942POPC   NC315023  18.899  19.847   9.596
  942POPC   PO415024  19.442  19.406   9.554
  942POPC   GL115025  19.312  19.668   9.153
  942POPC   GL215026  19.038  19.959   9.107
  942POPC   C1A15027  19.236  19.777   8.678
  942POPC   D2A15028  18.957  19.822   8.298
  942POPC   C3A15029  19.029  19.655   7.881
  942POPC   C4A15030  19.245  19.587   7.493
  942POPC   C1B15031  18.778  20.081   8.727
  942POPC   C2B15032  18.727  20.289   8.307
  942POPC   C3B15033  18.806  20.247   7.844
  942POPC   C4B15034  18.771  20.297   7.354
  943POPC   NC315035  30.438  39.258   9.344
  943POPC   PO415036  31.053  39.444   9.572
  943POPC   GL115037  30.904  39.361   9.164
  943POPC   GL215038  30.828  38.985   9.143
  943POPC   C1A15039  30.695  39.298   8.759
  943POPC   D2A15040  30.756  39.017   8.448
  943POPC   C3A15041  30.670  39.212   8.062
  943POPC   C4A15042  30.452  39.135   7.694
  943POPC   C1B15043  31.158  39.066   8.824
  943POPC   C2B15044  31.286  38.932   8.432
  943POPC   C3B15045  31.036  38.820   8.060
  943POPC   C4B15046  30.922  38.951   7.648
  944POPC   NC315047   0.135   8.895   9.479
  944POPC   PO415048  44.500   9.158   9.433
  944POPC   GL115049  44.720   8.859   9.123
  944POPC   GL215050   0.071   8.714   9.011
  944POPC   C1A15051  44.726   8.894   8.663
  944POPC   D2A15052  44.826   8.663   8.289
  944POPC   C3A15053  44.524   8.869   8.032
  944POPC   C4A15054  44.474   9.245   7.826
  944POPC   C1B15055   0.212   9.042   8.684
  944POPC   C2B15056   0.202   9.032   8.216
  944POPC   C3B15057  44.965   9.044   7.814
  944POPC   C4B15058  44.996   8.860   7.382
  945POPC   NC315059  19.010  42.877   9.500
  945POPC   PO415060  19.503  43.315   9.660
  945POPC   GL115061  19.247  43.272   9.243
  945POPC   GL215062  18.884  43.224   9.158
  945POPC   C1A15063  19.221  43.168   8.779
  945POPC   D2A15064  19.289  43.234   8.332
  945POPC   C3A15065  19.182  42.973   7.971
  945POPC   C4A15066  18.889  43.083   7.645
  945POPC   C1B15067  18.849  42.842   8.865
  945POPC   C2B15068  18.903  42.864   8.421
  945POPC   C3B15069  18.739  42.729   8.022
  945POPC   C4B15070  18.864  42.559   7.624
  946POPC   NC315071  19.367  21.408   9.506
  946POPC   PO415072  19.837  20.974   9.553
  946POPC   GL115073  19.665  21.178   9.141
  946POPC   GL215074  19.681  21.569   9.143
  946POPC   C1A15075  19.741  21.251   8.686
  946POPC   D2A15076  19.914  21.207   8.231
  946POPC   C3A15077  19.805  21.232   7.777
  946POPC   C4A15078  19.507  21.446   7.520
  946POPC   C1B15079  19.719  21.792   8.773
  946POPC   C2B15080  19.905  21.689   8.379
  946POPC   C3B15081  20.051  21.643   7.952
  946POPC   C4B15082  19.968  21.636   7.480
  947POPC   NC315083   9.508   0.206   9.540
  947POPC   PO415084   9.670   0.874   9.534
  947POPC   GL115085   9.701   0.722   9.145
  947POPC   GL215086   9.917   0.429   9.180
  947POPC   C1A15087   9.605   0.739   8.720
  947POPC   D2A15088   9.837   0.578   8.392
  947POPC   C3A15089   9.728   0.789   8.019
  947POPC   C4A15090   9.797   0.651   7.614
  947POPC   C1B15091   9.759   0.257   8.826
  947POPC   C2B15092   9.656   0.084   8.440
  947POPC   C3B15093   9.753   0.212   8.028
  947POPC   C4B15094  10.090   0.111   7.748
  948POPC   NC315095  34.967  39.244   9.242
  948POPC   PO415096  35.260  39.616   9.725
  948POPC   GL115097  35.404  39.652   9.231
  948POPC   GL215098  35.473  39.329   9.061
  948POPC   C1A15099  35.210  39.642   8.770
  948POPC   D2A15100  34.975  39.472   8.420
  948POPC   C3A15101  35.271  39.286   8.160
  948POPC   C4A15102  35.446  39.386   7.770
  948POPC   C1B15103  35.346  39.074   8.682
  948POPC   C2B15104  35.595  38.893   8.320
  948POPC   C3B15105  35.500  38.886   7.872
  948POPC   C4B15106  35.061  39.021   7.769
  949POPC   NC315107  22.633   3.000   9.468
  949POPC   PO415108  22.724   2.386   9.252
  949POPC   GL115109  22.953   2.789   9.127
  949POPC   GL215110  23.292   2.911   9.221
  949POPC   C1A15111  22.827   3.043   8.787
  949POPC   D2A15112  22.592   2.858   8.440
  949POPC   C3A15113  22.845   2.861   8.098
  949POPC   C4A15114  22.809   2.700   7.686
  949POPC   C1B15115  23.328   2.820   8.760
  949POPC   C2B15116  23.389   2.807   8.297
  949POPC   C3B15117  23.286   2.881   7.844
  949POPC   C4B15118  23.188   2.848   7.391
  950POPC   NC315119  42.806  21.943   9.777
  950POPC   PO415120  42.257  22.216   9.431
  950POPC   GL115121  42.554  22.106   9.153
  950POPC   GL215122  42.597  22.450   9.083
  950POPC   C1A15123  42.527  21.930   8.726
  950POPC   D2A15124  42.235  22.049   8.376
  950POPC   C3A15125  42.329  21.928   7.962
  950POPC   C4A15126  42.551  22.037   7.625
  950POPC   C1B15127  42.279  22.407   8.782
  950POPC   C2B15128  42.249  22.571   8.378
  950POPC   C3B15129  42.134  22.434   8.011
  950POPC   C4B15130  42.079  22.259   7.650
  951POPC   NC315131  39.316  17.736   9.497
  951POPC   PO415132  39.794  17.334   9.436
  951POPC   GL115133  39.369  17.327   9.153
  951POPC   GL215134  39.024  17.542   9.125
  951POPC   C1A15135  39.265  17.294   8.690
  951POPC   D2A15136  39.170  17.235   8.240
  951POPC   C3A15137  39.415  17.404   7.927
  951POPC   C4A15138  39.339  17.770   7.767
  951POPC   C1B15139  38.692  17.572   8.841
  951POPC   C2B15140  38.847  17.570   8.452
  951POPC   C3B15141  38.933  17.649   8.028
  951POPC   C4B15142  38.920  17.438   7.610
  952POPC   NC315143  13.313  42.082   9.437
  952POPC   PO415144  12.755  42.542   9.503
  952POPC   GL115145  12.951  42.361   9.152
  952POPC   GL215146  12.697  42.113   9.141
  952POPC   C1A15147  12.922  42.528   8.720
  952POPC   D2A15148  12.699  42.661   8.342
  952POPC   C3A15149  12.907  42.598   7.943
  952POPC   C4A15150  13.272  42.697   7.668
  952POPC   C1B15151  12.784  42.011   8.717
  952POPC   C2B15152  12.658  42.117   8.340
  952POPC   C3B15153  12.661  41.898   7.966
  952POPC   C4B15154  12.691  42.211   7.652
  953POPC   NC315155   2.038   6.499   9.554
  953POPC   PO415156   1.907   7.115   9.495
  953POPC   GL115157   1.973   6.800   9.135
  953POPC   GL215158   2.120   6.415   9.084
  953POPC   C1A15159   1.928   6.932   8.698
  953POPC   D2A15160   1.635   7.019   8.345
  953POPC   C3A15161   1.739   6.809   7.983
  953POPC   C4A15162   1.928   6.787   7.631
  953POPC   C1B15163   1.874   6.430   8.778
  953POPC   C2B15164   1.829   6.529   8.388
  953POPC   C3B15165   2.074   6.428   8.045
  953POPC   C4B15166   1.935   6.288   7.651
  954POPC   NC315167   3.554  21.889   9.440
  954POPC   PO415168   3.248  22.511   9.497
  954POPC   GL115169   3.413  22.303   9.170
  954POPC   GL215170   3.762  22.290   9.165
  954POPC   C1A15171   3.405  22.203   8.746
  954POPC   D2A15172   3.715  22.243   8.433
  954POPC   C3A15173   3.513  22.382   8.053
  954POPC   C4A15174   3.363  22.384   7.634
  954POPC   C1B15175   3.814  21.914   8.860
  954POPC   C2B15176   3.817  21.724   8.449
  954POPC   C3B15177   3.727  21.899   8.020
  954POPC   C4B15178   3.544  21.872   7.606
  955POPC   NC315179  10.428  28.946   9.666
  955POPC   PO415180  11.029  29.192   9.588
  955POPC   GL115181  10.666  29.207   9.245
  955POPC   GL215182  10.358  28.984   9.180
  955POPC   C1A15183  10.614  29.139   8.774
  955POPC   D2A15184  10.698  29.003   8.355
  955POPC   C3A15185  10.562  29.208   7.999
  955POPC   C4A15186  10.760  29.440   7.682
  955POPC   C1B15187  10.142  28.904   8.822
  955POPC   C2B15188  10.197  29.018   8.415
  955POPC   C3B15189  10.101  29.004   7.997
  955POPC   C4B15190  10.220  29.206   7.610
  956POPC   NC315191  19.863  32.098   9.394
  956POPC   PO415192  20.070  32.751   9.512
  956POPC   GL115193  20.114  32.449   9.099
  956POPC   GL215194  19.762  32.416   8.961
  956POPC   C1A15195  20.079  32.255   8.629
  956POPC   D2A15196  19.818  32.317   8.314
  956POPC   C3A15197  20.068  32.135   8.028
  956POPC   C4A15198  20.023  32.240   7.648
  956POPC   C1B15199  19.623  32.008   8.764
  956POPC   C2B15200  19.459  31.920   8.357
  956POPC   C3B15201  19.565  32.000   7.932
  956POPC   C4B15202  19.432  31.733   7.578
  957POPC   NC315203  36.403  28.929   9.522
  957POPC   PO415204  35.774  29.007   9.298
  957POPC   GL115205  36.164  28.917   9.062
  957POPC   GL215206  36.511  28.784   9.048
  957POPC   C1A15207  36.305  29.007   8.648
  957POPC   D2A15208  36.041  29.058   8.327
  957POPC   C3A15209  36.232  29.296   8.057
  957POPC   C4A15210  35.983  29.269   7.686
  957POPC   C1B15211  36.632  28.615   8.611
  957POPC   C2B15212  36.355  28.646   8.252
  957POPC   C3B15213  36.194  28.835   7.863
  957POPC   C4B15214  36.360  28.947   7.455
  958POPC   NC315215   0.613  30.534   9.489
  958POPC   PO415216   0.076  30.921   9.364
  958POPC   GL115217   0.292  30.665   9.070
  958POPC   GL215218   0.599  30.807   9.064
  958POPC   C1A15219   0.227  30.342   8.745
  958POPC   D2A15220   0.430  30.270   8.358
  958POPC   C3A15221   0.378  30.612   8.116
  958POPC   C4A15222   0.198  30.598   7.749
  958POPC   C1B15223   0.712  30.505   8.759
  958POPC   C2B15224   0.854  30.616   8.359
  958POPC   C3B15225   0.821  30.858   7.996
  958POPC   C4B15226   0.622  30.858   7.635
  959POPC   NC315227  24.352   0.371   9.642
  959POPC   PO415228  24.988   0.579   9.504
  959POPC   GL115229  24.622   0.521   9.204
  959POPC   GL215230  24.491   0.151   9.194
  959POPC   C1A15231  24.470   0.724   8.816
  959POPC   D2A15232  24.276   0.931   8.435
  959POPC   C3A15233  24.126   0.607   8.184
  959POPC   C4A15234  24.372   0.526   7.857
  959POPC   C1B15235  24.359   0.218   8.764
  959POPC   C2B15236  24.485   0.155   8.327
  959POPC   C3B15237  24.390   0.044   7.914
  959POPC   C4B15238  23.945   0.156   7.826
  960POPC   NC315239   5.563   8.081   9.489
  960POPC   PO415240   4.872   8.234   9.645
  960POPC   GL115241   5.041   8.141   9.246
  960POPC   GL215242   4.859   7.834   9.200
  960POPC   C1A15243   5.004   8.331   8.832
  960POPC   D2A15244   5.231   8.278   8.441
  960POPC   C3A15245   5.058   8.376   8.031
  960POPC   C4A15246   5.330   8.569   7.707
  960POPC   C1B15247   5.054   7.837   8.809
  960POPC   C2B15248   4.815   7.973   8.474
  960POPC   C3B15249   4.832   7.827   8.088
  960POPC   C4B15250   4.974   7.919   7.747
  961POPC   NC315251  38.627  19.185   9.425
  961POPC   PO415252  38.205  18.695   9.515
  961POPC   GL115253  38.440  18.780   9.141
  961POPC   GL215254  38.763  18.925   9.005
  961POPC   C1A15255  38.302  18.906   8.770
  961POPC   D2A15256  38.227  19.143   8.396
  961POPC   C3A15257  38.407  18.981   8.047
  961POPC   C4A15258  38.409  19.196   7.670
  961POPC   C1B15259  38.641  19.284   8.762
  961POPC   C2B15260  38.696  19.424   8.372
  961POPC   C3B15261  38.813  19.285   7.985
  961POPC   C4B15262  38.842  18.958   7.688
  962POPC   NC315263  30.510  43.590   9.475
  962POPC   PO415264  31.036  43.954   9.677
  962POPC   GL115265  30.820  43.962   9.227
  962POPC   GL215266  30.559  43.821   9.035
  962POPC   C1A15267  30.910  44.170   8.814
  962POPC   D2A15268  31.102  44.389   8.465
  962POPC   C3A15269  31.024  44.169   8.092
  962POPC   C4A15270  30.925  44.185   7.660
  962POPC   C1B15271  30.896  43.644   8.825
  962POPC   C2B15272  30.996  43.802   8.453
  962POPC   C3B15273  30.766  43.732   8.095
  962POPC   C4B15274  30.762  43.700   7.682
  963POPC   NC315275  19.921  25.888   9.603
  963POPC   PO415276  19.576  26.370   9.353
  963POPC   GL115277  19.781  26.114   9.086
  963POPC   GL215278  19.834  25.749   9.118
  963POPC   C1A15279  19.932  26.277   8.670
  963POPC   D2A15280  19.749  26.396   8.262
  963POPC   C3A15281  19.856  26.101   7.914
  963POPC   C4A15282  20.199  25.995   7.584
  963POPC   C1B15283  19.730  25.815   8.674
  963POPC   C2B15284  19.360  25.815   8.418
  963POPC   C3B15285  19.491  25.666   8.043
  963POPC   C4B15286  19.833  25.626   7.722
  964POPC   NC315287   0.942  28.315   9.450
  964POPC   PO415288   0.351  27.896   9.425
  964POPC   GL115289   0.531  28.168   9.105
  964POPC   GL215290   0.643  28.492   9.098
  964POPC   C1A15291   0.402  28.355   8.682
  964POPC   D2A15292   0.452  28.153   8.293
  964POPC   C3A15293   0.189  28.236   7.936
  964POPC   C4A15294   0.432  28.208   7.550
  964POPC   C1B15295   0.836  28.657   8.743
  964POPC   C2B15296   0.818  28.525   8.340
  964POPC   C3B15297   0.625  28.534   7.951
  964POPC   C4B15298   0.333  28.676   7.679
  965POPC   NC315299  32.716  14.370   9.556
  965POPC   PO415300  32.018  14.542   9.623
  965POPC   GL115301  32.238  14.445   9.163
  965POPC   GL215302  32.586  14.303   9.084
  965POPC   C1A15303  32.291  14.292   8.685
  965POPC   D2A15304  32.579  14.139   8.378
  965POPC   C3A15305  32.379  14.134   8.001
  965POPC   C4A15306  32.144  14.366   7.739
  965POPC   C1B15307  32.734  14.521   8.739
  965POPC   C2B15308  32.598  14.669   8.356
  965POPC   C3B15309  32.555  14.619   7.925
  965POPC   C4B15310  32.658  14.314   7.603
  966POPC   NC315311  35.156  33.167   9.307
  966POPC   PO415312  35.792  33.196   9.276
  966POPC   GL115313  35.541  32.970   9.024
  966POPC   GL215314  35.382  33.270   8.860
  966POPC   C1A15315  35.310  32.759   8.700
  966POPC   D2A15316  35.276  33.063   8.402
  966POPC   C3A15317  35.307  33.060   7.997
  966POPC   C4A15318  35.604  32.964   7.730
  966POPC   C1B15319  34.961  33.389   8.646
  966POPC   C2B15320  34.833  33.216   8.236
  966POPC   C3B15321  34.832  33.152   7.805
  966POPC   C4B15322  35.122  32.895   7.540
  967POPC   NC315323  23.389  10.444   9.795
  967POPC   PO415324  23.609   9.879   9.443
  967POPC   GL115325  23.721   9.648   9.046
  967POPC   GL215326  24.066   9.638   8.934
  967POPC   C1A15327  23.686   9.712   8.608
  967POPC   D2A15328  23.804   9.737   8.203
  967POPC   C3A15329  23.536   9.790   7.838
  967POPC   C4A15330  23.428   9.723   7.407
  967POPC   C1B15331  23.961   9.259   8.701
  967POPC   C2B15332  23.961   9.244   8.281
  967POPC   C3B15333  24.138   9.444   7.946
  967POPC   C4B15334  23.933   9.550   7.565
  968POPC   NC315335   2.144  36.998   9.565
  968POPC   PO415336   1.764  36.457   9.396
  968POPC   GL115337   1.919  36.772   9.176
  968POPC   GL215338   2.250  36.668   9.211
  968POPC   C1A15339   1.875  37.028   8.845
  968POPC   D2A15340   1.649  36.945   8.504
  968POPC   C3A15341   1.812  36.988   8.112
  968POPC   C4A15342   1.792  36.821   7.711
  968POPC   C1B15343   2.335  36.819   8.798
  968POPC   C2B15344   2.323  36.757   8.333
  968POPC   C3B15345   2.283  36.913   7.906
  968POPC   C4B15346   2.225  36.824   7.452
  969POPC   NC315347   4.737  18.530   9.493
  969POPC   PO415348   5.385  18.217   9.596
  969POPC   GL115349   5.188  18.318   9.183
  969POPC   GL215350   4.997  18.015   9.218
  969POPC   C1A15351   5.138  18.585   8.756
  969POPC   D2A15352   5.098  18.697   8.283
  969POPC   C3A15353   5.335  18.428   7.984
  969POPC   C4A15354   5.478  18.540   7.565
  969POPC   C1B15355   4.888  18.133   8.797
  969POPC   C2B15356   5.098  18.193   8.401
  969POPC   C3B15357   4.869  18.219   8.014
  969POPC   C4B15358   4.995  18.277   7.620
  970POPC   NC315359  28.373  38.184   9.772
  970POPC   PO415360  28.089  38.805   9.564
  970POPC   GL115361  28.406  38.564   9.301
  970POPC   GL215362  28.351  38.205   9.154
  970POPC   C1A15363  28.574  38.567   8.885
  970POPC   D2A15364  28.631  38.305   8.527
  970POPC   C3A15365  28.658  38.492   8.114
  970POPC   C4A15366  28.519  38.387   7.726
  970POPC   C1B15367  28.209  37.940   8.768
  970POPC   C2B15368  28.242  38.015   8.356
  970POPC   C3B15369  28.160  38.338   8.114
  970POPC   C4B15370  27.906  38.313   7.769
  971POPC   NC315371  34.481  42.510   9.498
  971POPC   PO415372  35.075  42.104   9.397
  971POPC   GL115373  34.762  42.343   9.095
  971POPC   GL215374  34.382  42.319   9.050
  971POPC   C1A15375  34.635  42.632   8.744
  971POPC   D2A15376  34.545  42.846   8.350
  971POPC   C3A15377  34.689  42.598   8.010
  971POPC   C4A15378  34.641  42.234   7.767
  971POPC   C1B15379  34.334  42.074   8.696
  971POPC   C2B15380  34.433  42.185   8.298
  971POPC   C3B15381  34.265  41.960   7.984
  971POPC   C4B15382  34.137  42.152   7.622
  972POPC   NC315383   0.625  21.033   9.586
  972POPC   PO415384   0.468  21.660   9.419
  972POPC   GL115385   0.563  21.431   9.061
  972POPC   GL215386   0.713  21.104   9.097
  972POPC   C1A15387   0.318  21.325   8.706
  972POPC   D2A15388   0.078  21.074   8.431
  972POPC   C3A15389   0.210  21.216   8.044
  972POPC   C4A15390   0.426  21.524   7.796
  972POPC   C1B15391   0.817  21.211   8.664
  972POPC   C2B15392   0.680  21.359   8.236
  972POPC   C3B15393   0.884  21.359   7.825
  972POPC   C4B15394   0.710  21.475   7.368
  973POPC   NC315395  44.067  40.196   9.586
  973POPC   PO415396  43.563  40.316   9.236
  973POPC   GL115397  43.894  40.056   9.119
  973POPC   GL215398  44.212  40.293   9.102
  973POPC   C1A15399  43.772  39.781   8.782
  973POPC   D2A15400  43.944  39.782   8.365
  973POPC   C3A15401  43.719  39.959   8.001
  973POPC   C4A15402  43.604  40.404   7.896
  973POPC   C1B15403  44.418  40.259   8.689
  973POPC   C2B15404  44.238  40.324   8.287
  973POPC   C3B15405  44.118  40.284   7.850
  973POPC   C4B15406  44.194  40.456   7.429
  974POPC   NC315407   9.450  27.875   9.609
  974POPC   PO415408   9.877  27.411   9.646
  974POPC   GL115409   9.813  27.406   9.187
  974POPC   GL215410   9.754  27.757   9.204
  974POPC   C1A15411   9.555  27.545   8.795
  974POPC   D2A15412   9.570  27.813   8.442
  974POPC   C3A15413   9.295  27.814   8.138
  974POPC   C4A15414   9.292  27.711   7.735
  974POPC   C1B15415   9.981  27.854   8.828
  974POPC   C2B15416   9.997  28.052   8.439
  974POPC   C3B15417   9.932  27.951   8.043
  974POPC   C4B15418  10.252  28.136   7.809
  975POPC   NC315419  14.587  10.132   9.720
  975POPC   PO415420  14.128   9.733   9.487
  975POPC   GL115421  14.099   9.681   9.098
  975POPC   GL215422  14.451   9.753   9.076
  975POPC   C1A15423  14.056   9.795   8.701
  975POPC   D2A15424  14.449   9.711   8.527
  975POPC   C3A15425  14.429   9.672   8.138
  975POPC   C4A15426  14.212   9.721   7.778
  975POPC   C1B15427  14.706   9.468   8.892
  975POPC   C2B15428  14.678   9.227   8.569
  975POPC   C3B15429  14.713   9.221   8.155
  975POPC   C4B15430  14.647   9.403   7.773
  976POPC   NC315431   1.717  33.688   9.677
  976POPC   PO415432   1.097  34.009   9.547
  976POPC   GL115433   1.103  33.979   9.123
  976POPC   GL215434   1.450  33.958   9.139
  976POPC   C1A15435   1.090  33.798   8.711
  976POPC   D2A15436   1.338  33.533   8.437
  976POPC   C3A15437   1.204  33.633   8.036
  976POPC   C4A15438   1.068  33.457   7.662
  976POPC   C1B15439   1.619  33.837   8.750
  976POPC   C2B15440   1.595  33.992   8.326
  976POPC   C3B15441   1.639  33.877   7.913
  976POPC   C4B15442   1.555  33.577   7.654
  977POPC   NC315443  35.863  36.665   9.445
  977POPC   PO415444  36.491  36.836   9.521
  977POPC   GL115445  36.371  37.044   9.169
  977POPC   GL215446  36.017  36.925   9.057
  977POPC   C1A15447  36.307  37.187   8.761
  977POPC   D2A15448  36.396  37.059   8.388
  977POPC   C3A15449  36.202  36.805   8.178
  977POPC   C4A15450  36.392  36.878   7.814
  977POPC   C1B15451  36.012  36.740   8.645
  977POPC   C2B15452  35.707  36.675   8.281
  977POPC   C3B15453  35.860  36.571   7.888
  977POPC   C4B15454  35.912  36.931   7.691
  978POPC   NC315455  43.108   4.913   9.871
  978POPC   PO415456  43.691   5.210   9.661
  978POPC   GL115457  43.360   5.202   9.324
  978POPC   GL215458  43.095   4.929   9.305
  978POPC   C1A15459  43.226   5.250   8.880
  978POPC   D2A15460  42.872   5.161   8.603
  978POPC   C3A15461  42.911   5.148   8.129
  978POPC   C4A15462  42.947   4.984   7.676
  978POPC   C1B15463  43.227   4.752   8.869
  978POPC   C2B15464  43.300   4.910   8.456
  978POPC   C3B15465  43.520   4.972   8.072
  978POPC   C4B15466  43.410   4.788   7.672
  979POPC   NC315467  44.965   7.927   9.486
  979POPC   PO415468  44.551   7.442   9.641
  979POPC   GL115469  44.574   7.357   9.221
  979POPC   GL215470  44.832   7.156   9.073
  979POPC   C1A15471  44.524   7.557   8.830
  979POPC   D2A15472  44.703   7.515   8.433
  979POPC   C3A15473  44.464   7.609   8.090
  979POPC   C4A15474  44.370   7.898   7.796
  979POPC   C1B15475   0.089   7.222   8.676
  979POPC   C2B15476   0.030   7.207   8.204
  979POPC   C3B15477  44.924   7.519   7.867
  979POPC   C4B15478   0.051   7.639   7.438
  980POPC   NC315479  33.581   3.291   9.374
  980POPC   PO415480  33.634   2.799   9.809
  980POPC   GL115481  33.639   2.796   9.311
  980POPC   GL215482  33.947   2.950   9.186
  980POPC   C1A15483  33.741   2.625   8.860
  980POPC   D2A15484  33.735   2.818   8.450
  980POPC   C3A15485  33.830   2.652   8.052
  980POPC   C4A15486  33.578   2.618   7.664
  980POPC   C1B15487  33.835   3.183   8.814
  980POPC   C2B15488  33.949   3.284   8.424
  980POPC   C3B15489  33.785   3.168   8.050
  980POPC   C4B15490  33.899   3.019   7.662
  981POPC   NC315491   3.276   9.380   9.462
  981POPC   PO415492   3.626   9.991   9.537
  981POPC   GL115493   3.486   9.806   9.185
  981POPC   GL215494   3.265  10.092   9.123
  981POPC   C1A15495   3.485   9.485   8.831
  981POPC   D2A15496   3.714   9.341   8.481
  981POPC   C3A15497   3.723   9.539   8.083
  981POPC   C4A15498   3.528   9.597   7.674
  981POPC   C1B15499   3.261   9.932   8.721
  981POPC   C2B15500   3.291   9.686   8.373
  981POPC   C3B15501   3.399   9.935   8.047
  981POPC   C4B15502   3.210   9.988   7.664
  982POPC   NC315503   3.096   5.313   9.598
  982POPC   PO415504   2.533   4.941   9.508
  982POPC   GL115505   2.776   5.167   9.231
  982POPC   GL215506   3.078   4.930   9.266
  982POPC   C1A15507   2.813   5.341   8.822
  982POPC   D2A15508   2.928   5.447   8.373
  982POPC   C3A15509   2.803   5.472   7.891
  982POPC   C4A15510   3.052   5.484   7.475
  982POPC   C1B15511   2.905   4.824   8.882
  982POPC   C2B15512   2.711   4.959   8.488
  982POPC   C3B15513   2.851   4.997   8.077
  982POPC   C4B15514   2.524   4.960   7.762
  983POPC   NC315515   4.639   4.381   9.472
  983POPC   PO415516   4.085   4.738   9.376
  983POPC   GL115517   4.349   4.496   9.051
  983POPC   GL215518   4.413   4.163   9.079
  983POPC   C1A15519   4.500   4.314   8.619
  983POPC   D2A15520   4.436   4.047   8.248
  983POPC   C3A15521   4.595   4.331   7.916
  983POPC   C4A15522   4.548   4.447   7.461
  983POPC   C1B15523   4.076   4.061   8.768
  983POPC   C2B15524   3.831   4.189   8.411
  983POPC   C3B15525   3.808   4.305   7.992
  983POPC   C4B15526   4.139   4.087   7.788
  984POPC   NC315527  43.563  25.809   9.399
  984POPC   PO415528  44.104  26.323   9.548
  984POPC   GL115529  43.810  26.211   9.208
  984POPC   GL215530  44.017  25.937   9.218
  984POPC   C1A15531  43.747  26.020   8.796
  984POPC   D2A15532  43.916  26.241   8.481
  984POPC   C3A15533  43.788  26.163   8.112
  984POPC   C4A15534  43.920  26.170   7.736
  984POPC   C1B15535  44.269  25.875   8.905
  984POPC   C2B15536  44.227  25.831   8.484
  984POPC   C3B15537  44.276  25.993   8.087
  984POPC   C4B15538  44.409  25.924   7.680
  985POPC   NC315539  23.472  43.036   9.620
  985POPC   PO415540  23.649  43.669   9.576
  985POPC   GL115541  23.778  43.335   9.294
  985POPC   GL215542  23.477  43.180   9.122
  985POPC   C1A15543  23.871  43.345   8.858
  985POPC   D2A15544  23.683  43.466   8.454
  985POPC   C3A15545  23.846  43.236   8.105
  985POPC   C4A15546  23.823  43.131   7.689
  985POPC   C1B15547  23.477  43.044   8.665
  985POPC   C2B15548  23.379  43.030   8.191
  985POPC   C3B15549  23.390  42.874   7.736
  985POPC   C4B15550  23.556  42.915   7.301
  986POPC   NC315551  11.875  20.339   9.389
  986POPC   PO415552  11.875  20.932   9.699
  986POPC   GL115553  12.015  20.979   9.235
  986POPC   GL215554  12.390  20.981   9.225
  986POPC   C1A15555  11.839  20.911   8.781
  986POPC   D2A15556  11.718  20.584   8.443
  986POPC   C3A15557  11.772  20.783   8.027
  986POPC   C4A15558  11.810  20.962   7.602
  986POPC   C1B15559  12.289  20.698   8.888
  986POPC   C2B15560  12.212  20.780   8.445
  986POPC   C3B15561  12.353  20.643   8.051
  986POPC   C4B15562  12.132  20.588   7.686
  987POPC   NC315563   8.548   8.938   9.336
  987POPC   PO415564   7.890   9.155   9.467
  987POPC   GL115565   8.142   9.206   9.139
  987POPC   GL215566   8.141   8.886   9.026
  987POPC   C1A15567   8.155   9.340   8.728
  987POPC   D2A15568   8.399   9.332   8.374
  987POPC   C3A15569   8.304   9.131   8.009
  987POPC   C4A15570   8.308   9.331   7.617
  987POPC   C1B15571   8.386   8.881   8.656
  987POPC   C2B15572   8.322   8.696   8.270
  987POPC   C3B15573   8.115   8.642   7.886
  987POPC   C4B15574   8.015   8.935   7.551
  988POPC   NC315575   0.737  40.019   9.791
  988POPC   PO415576   0.194  39.968   9.319
  988POPC   GL115577   0.258  39.860   8.994
  988POPC   GL215578   0.053  39.581   8.972
  988POPC   C1A15579   0.353  40.051   8.632
  988POPC   D2A15580   0.622  40.143   8.290
  988POPC   C3A15581   0.383  40.162   7.924
  988POPC   C4A15582   0.636  40.376   7.647
  988POPC   C1B15583   0.364  39.525   8.648
  988POPC   C2B15584   0.367  39.706   8.274
  988POPC   C3B15585   0.249  39.660   7.895
  988POPC   C4B15586   0.060  39.572   7.554
  989POPC   NC315587  11.115  17.870   9.425
  989POPC   PO415588  11.570  17.266   9.492
  989POPC   GL115589  11.470  17.353   9.083
  989POPC   GL215590  11.433  17.718   9.025
  989POPC   C1A15591  11.672  17.352   8.673
  989POPC   D2A15592  11.532  17.152   8.283
  989POPC   C3A15593  11.447  17.392   7.926
  989POPC   C4A15594  11.602  17.776   7.768
  989POPC   C1B15595  11.187  17.510   8.666
  989POPC   C2B15596  11.028  17.485   8.255
  989POPC   C3B15597  11.095  17.747   7.895
  989POPC   C4B15598  11.179  17.645   7.451
  990POPC   NC315599   3.488  35.831   9.480
  990POPC   PO415600   3.479  36.482   9.582
  990POPC   GL115601   3.469  36.285   9.140
  990POPC   GL215602   3.578  35.974   9.015
  990POPC   C1A15603   3.690  36.401   8.746
  990POPC   D2A15604   4.034  36.377   8.425
  990POPC   C3A15605   3.877  36.288   8.022
  990POPC   C4A15606   3.545  36.037   7.846
  990POPC   C1B15607   3.378  35.978   8.639
  990POPC   C2B15608   3.207  35.936   8.227
  990POPC   C3B15609   3.183  35.683   7.829
  990POPC   C4B15610   3.173  35.667   7.373
  991POPC   NC315611  40.560  39.063   9.472
  991POPC   PO415612  41.118  39.421   9.504
  991POPC   GL115613  40.844  39.372   9.193
  991POPC   GL215614  40.697  39.635   9.092
  991POPC   C1A15615  40.779  39.222   8.795
  991POPC   D2A15616  41.009  39.202   8.430
  991POPC   C3A15617  40.768  39.000   8.155
  991POPC   C4A15618  40.642  39.023   7.768
  991POPC   C1B15619  40.917  39.741   8.764
  991POPC   C2B15620  40.772  39.641   8.383
  991POPC   C3B15621  40.745  39.489   7.981
  991POPC   C4B15622  40.574  39.497   7.572
  992POPC   NC315623  42.757  43.128   9.556
  992POPC   PO415624  42.890  42.461   9.572
  992POPC   GL115625  42.968  42.760   9.168
  992POPC   GL215626  42.993  43.140   9.128
  992POPC   C1A15627  43.232  42.880   8.764
  992POPC   D2A15628  43.310  42.709   8.350
  992POPC   C3A15629  43.234  42.890   7.965
  992POPC   C4A15630  43.225  43.108   7.556
  992POPC   C1B15631  43.019  43.379   8.769
  992POPC   C2B15632  43.085  43.205   8.364
  992POPC   C3B15633  43.156  43.391   7.975
  992POPC   C4B15634  42.845  43.459   7.661
  993POPC   NC315635  34.402  38.506   9.609
  993POPC   PO415636  34.865  38.095   9.456
  993POPC   GL115637  34.547  38.258   9.172
  993POPC   GL215638  34.567  38.601   9.125
  993POPC   C1A15639  34.511  38.215   8.750
  993POPC   D2A15640  34.721  38.092   8.412
  993POPC   C3A15641  34.484  38.171   8.061
  993POPC   C4A15642  34.830  38.259   7.829
  993POPC   C1B15643  34.353  38.690   8.736
  993POPC   C2B15644  34.511  38.617   8.291
  993POPC   C3B15645  34.596  38.730   7.818
  993POPC   C4B15646  34.406  38.787   7.377
  994POPC   NC315647  19.813  27.559   9.546
  994POPC   PO415648  19.178  27.844   9.554
  994POPC   GL115649  19.392  27.877   9.121
  994POPC   GL215650  19.753  27.883   9.153
  994POPC   C1A15651  19.576  27.875   8.677
  994POPC   D2A15652  19.812  27.546   8.419
  994POPC   C3A15653  19.675  27.463   7.987
  994POPC   C4A15654  19.702  27.745   7.628
  994POPC   C1B15655  20.024  28.048   8.812
  994POPC   C2B15656  20.191  27.934   8.382
  994POPC   C3B15657  20.170  27.783   7.920
  994POPC   C4B15658  20.480  27.560   7.635
  995POPC   NC315659   2.957   0.493   9.593
  995POPC   PO415660   2.409   0.106   9.541
  995POPC   GL115661   2.467   0.476   9.248
  995POPC   GL215662   2.753   0.310   9.166
  995POPC   C1A15663   2.525   0.585   8.788
  995POPC   D2A15664   2.725   0.476   8.387
  995POPC   C3A15665   2.604   0.638   7.988
  995POPC   C4A15666   2.418   0.513   7.599
  995POPC   C1B15667   2.763   0.098   8.779
  995POPC   C2B15668   3.099   0.145   8.452
  995POPC   C3B15669   2.976   0.148   8.014
  995POPC   C4B15670   2.972   0.430   7.675
  996POPC   NC315671  11.609   9.227   9.549
  996POPC   PO415672  12.205   9.574   9.451
  996POPC   GL115673  12.203   9.769   9.063
  996POPC   GL215674  12.234  10.136   9.136
  996POPC   C1A15675  11.925   9.618   8.745
  996POPC   D2A15676  12.017   9.379   8.394
  996POPC   C3A15677  12.075   9.610   8.021
  996POPC   C4A15678  12.315   9.916   7.762
  996POPC   C1B15679  11.967  10.132   8.761
  996POPC   C2B15680  11.924   9.953   8.349
  996POPC   C3B15681  11.894  10.148   7.921
  996POPC   C4B15682  11.644  10.196   7.531
  997POPC   NC315683  13.853  22.609   9.230
  997POPC   PO415684  13.538  23.258   9.442
  997POPC   GL115685  13.670  23.232   9.072
  997POPC   GL215686  13.341  23.236   8.930
  997POPC   C1A15687  13.851  23.107   8.688
  997POPC   D2A15688  13.657  22.962   8.324
  997POPC   C3A15689  13.812  22.856   7.911
  997POPC   C4A15690  14.057  23.152   7.648
  997POPC   C1B15691  13.330  22.758   8.883
  997POPC   C2B15692  13.467  22.525   8.516
  997POPC   C3B15693  13.302  22.685   8.115
  997POPC   C4B15694  13.333  22.959   7.749
  998POPC   NC315695  32.184  31.989   9.679
  998POPC   PO415696  31.681  32.344   9.374
  998POPC   GL115697  32.161  32.379   9.279
  998POPC   GL215698  32.356  32.048   9.183
  998POPC   C1A15699  32.341  32.480   8.839
  998POPC   D2A15700  32.359  32.546   8.345
  998POPC   C3A15701  32.438  32.379   7.877
  998POPC   C4A15702  32.465  32.530   7.410
  998POPC   C1B15703  32.564  32.018   8.746
  998POPC   C2B15704  32.356  32.017   8.302
  998POPC   C3B15705  32.154  31.963   7.855
  998POPC   C4B15706  32.374  31.968   7.411
  999POPC   NC315707   8.176   6.389   9.465
  999POPC   PO415708   8.345   7.007   9.410
  999POPC   GL115709   8.313   6.695   9.071
  999POPC   GL215710   7.998   6.743   9.122
  999POPC   C1A15711   8.491   6.337   8.766
  999POPC   D2A15712   8.459   6.103   8.340
  999POPC   C3A15713   8.488   6.445   8.067
  999POPC   C4A15714   8.239   6.573   7.732
  999POPC   C1B15715   7.848   6.922   8.793
  999POPC   C2B15716   7.881   6.697   8.464
  999POPC   C3B15717   7.939   6.793   8.063
  999POPC   C4B15718   7.734   6.814   7.694
 1000POPC   NC315719  38.046  28.961   9.536
 1000POPC   PO415720  37.465  29.430   9.478
 1000POPC   GL115721  37.676  29.141   9.230
 1000POPC   GL215722  37.435  28.949   9.019
 1000POPC   C1A15723  37.915  28.918   8.871
 1000POPC   D2A15724  37.643  28.830   8.486
 1000POPC   C3A15725  37.803  28.948   8.085
 1000POPC   C4A15726  37.744  29.319   7.859
 1000POPC   C1B15727  37.648  29.337   8.781
 1000POPC   C2B15728  37.634  29.407   8.366
 1000POPC   C3B15729  37.352  29.162   8.165
 1000POPC   C4B15730  37.285  29.016   7.800
 1001POPC   NC315731  26.283  35.425   9.373
 1001POPC   PO415732  25.574  35.173   9.421
 1001POPC   GL115733  25.803  35.462   9.147
 1001POPC   GL215734  25.986  35.170   9.002
 1001POPC   C1A15735  26.001  35.639   8.746
 1001POPC   D2A15736  26.067  35.572   8.288
 1001POPC   C3A15737  25.963  35.164   8.074
 1001POPC   C4A15738  25.759  35.153   7.666
 1001POPC   C1B15739  26.377  35.236   8.761
 1001POPC   C2B15740  26.451  35.203   8.360
 1001POPC   C3B15741  26.442  34.921   8.074
 1001POPC   C4B15742  26.389  35.162   7.737
 1002POPC   NC315743  11.821  10.905   9.466
 1002POPC   PO415744  12.411  11.138   9.549
 1002POPC   GL115745  12.187  11.092   9.167
 1002POPC   GL215746  11.937  11.356   9.080
 1002POPC   C1A15747  12.221  11.133   8.729
 1002POPC   D2A15748  12.254  11.386   8.372
 1002POPC   C3A15749  11.929  11.281   8.143
 1002POPC   C4A15750  12.003  11.102   7.780
 1002POPC   C1B15751  11.927  11.636   8.694
 1002POPC   C2B15752  11.669  11.700   8.308
 1002POPC   C3B15753  11.811  11.699   7.893
 1002POPC   C4B15754  12.266  11.588   7.820
 1003POPC   NC315755  16.642  13.178   9.742
 1003POPC   PO415756  16.444  13.743   9.575
 1003POPC   GL115757  16.517  13.411   9.290
 1003POPC   GL215758  16.877  13.408   9.323
 1003POPC   C1A15759  16.494  13.480   8.855
 1003POPC   D2A15760  16.380  13.278   8.477
 1003POPC   C3A15761  16.517  13.471   8.091
 1003POPC   C4A15762  16.714  13.710   7.779
 1003POPC   C1B15763  16.974  13.253   8.914
 1003POPC   C2B15764  16.904  13.459   8.515
 1003POPC   C3B15765  17.027  13.409   8.100
 1003POPC   C4B15766  16.857  13.227   7.725
 1004POPC   NC315767  32.151  28.935   9.539
 1004POPC   PO415768  32.713  28.747   9.414
 1004POPC   GL115769  32.423  29.026   9.145
 1004POPC   GL215770  32.383  29.362   9.338
 1004POPC   C1A15771  32.126  29.048   8.782
 1004POPC   D2A15772  32.339  28.950   8.376
 1004POPC   C3A15773  32.177  28.969   7.943
 1004POPC   C4A15774  32.351  28.955   7.501
 1004POPC   C1B15775  32.360  29.497   8.925
 1004POPC   C2B15776  32.122  29.519   8.548
 1004POPC   C3B15777  32.293  29.403   8.168
 1004POPC   C4B15778  32.263  29.405   7.720
 1005POPC   NC315779   1.444  27.261   9.614
 1005POPC   PO415780   1.080  27.870   9.411
 1005POPC   GL115781   1.110  27.610   9.090
 1005POPC   GL215782   1.382  27.389   9.142
 1005POPC   C1A15783   1.171  27.676   8.664
 1005POPC   D2A15784   1.201  27.499   8.267
 1005POPC   C3A15785   1.271  27.769   7.934
 1005POPC   C4A15786   1.086  27.712   7.554
 1005POPC   C1B15787   1.555  27.334   8.732
 1005POPC   C2B15788   1.695  27.607   8.382
 1005POPC   C3B15789   1.651  27.449   7.974
 1005POPC   C4B15790   1.533  27.483   7.541
 1006POPC   NC315791  18.376  16.272   9.544
 1006POPC   PO415792  18.033  15.666   9.611
 1006POPC   GL115793  18.254  15.888   9.239
 1006POPC   GL215794  18.611  15.784   9.168
 1006POPC   C1A15795  18.174  15.872   8.787
 1006POPC   D2A15796  18.311  15.724   8.358
 1006POPC   C3A15797  18.099  15.982   8.024
 1006POPC   C4A15798  18.230  15.803   7.627
 1006POPC   C1B15799  18.645  16.029   8.832
 1006POPC   C2B15800  18.443  16.205   8.470
 1006POPC   C3B15801  18.585  16.097   8.064
 1006POPC   C4B15802  18.540  16.253   7.651
 1007POPC   NC315803  31.534  26.418   9.420
 1007POPC   PO415804  31.604  27.049   9.641
 1007POPC   GL115805  31.717  26.843   9.257
 1007POPC   GL215806  31.376  26.859   9.168
 1007POPC   C1A15807  31.685  26.590   8.833
 1007POPC   D2A15808  31.546  26.743   8.432
 1007POPC   C3A15809  31.785  26.795   8.079
 1007POPC   C4A15810  31.760  26.575   7.736
 1007POPC   C1B15811  31.194  26.905   8.757
 1007POPC   C2B15812  31.050  26.781   8.342
 1007POPC   C3B15813  31.287  26.591   8.019
 1007POPC   C4B15814  31.364  26.962   7.855
 1008POPC   NC315815  21.616  34.600   9.443
 1008POPC   PO415816  20.959  34.308   9.342
 1008POPC   GL115817  21.328  34.334   9.098
 1008POPC   GL215818  21.261  34.669   9.078
 1008POPC   C1A15819  21.446  34.370   8.655
 1008POPC   D2A15820  21.691  34.519   8.279
 1008POPC   C3A15821  21.485  34.380   7.911
 1008POPC   C4A15822  21.003  34.373   7.855
 1008POPC   C1B15823  21.263  34.915   8.713
 1008POPC   C2B15824  21.065  35.063   8.330
 1008POPC   C3B15825  21.227  34.841   7.972
 1008POPC   C4B15826  21.647  34.918   7.815
 1009POPC   NC315827   1.641  31.977   9.824
 1009POPC   PO415828   1.891  32.540   9.441
 1009POPC   GL115829   1.706  32.486   9.021
 1009POPC   GL215830   1.938  32.224   8.896
 1009POPC   C1A15831   1.634  32.401   8.549
 1009POPC   D2A15832   1.989  32.252   8.299
 1009POPC   C3A15833   1.955  32.464   7.946
 1009POPC   C4A15834   1.614  32.666   7.706
 1009POPC   C1B15835   1.980  31.889   8.659
 1009POPC   C2B15836   2.091  31.738   8.297
 1009POPC   C3B15837   1.916  31.879   7.918
 1009POPC   C4B15838   2.165  31.724   7.660
 1010POPC   NC315839  13.114  18.942   9.466
 1010POPC   PO415840  12.580  19.450   9.521
 1010POPC   GL115841  12.833  19.312   9.192
 1010POPC   GL215842  12.756  18.976   9.105
 1010POPC   C1A15843  12.948  19.393   8.771
 1010POPC   D2A15844  12.839  19.554   8.362
 1010POPC   C3A15845  13.024  19.366   8.017
 1010POPC   C4A15846  12.740  19.235   7.695
 1010POPC   C1B15847  12.994  18.871   8.778
 1010POPC   C2B15848  12.918  19.030   8.402
 1010POPC   C3B15849  12.709  18.891   8.062
 1010POPC   C4B15850  13.079  18.897   7.831
 1011POPC   NC315851  39.602  30.230   9.402
 1011POPC   PO415852  38.963  30.054   9.660
 1011POPC   GL115853  39.146  30.019   9.232
 1011POPC   GL215854  38.939  29.750   9.097
 1011POPC   C1A15855  39.316  29.990   8.800
 1011POPC   D2A15856  39.159  30.120   8.373
 1011POPC   C3A15857  39.299  30.220   7.941
 1011POPC   C4A15858  39.033  30.349   7.577
 1011POPC   C1B15859  38.862  29.770   8.626
 1011POPC   C2B15860  38.864  29.715   8.158
 1011POPC   C3B15861  39.079  29.797   7.769
 1011POPC   C4B15862  39.517  29.716   7.793
 1012POPC   NC315863  22.386  34.487   9.546
 1012POPC   PO415864  21.758  34.146   9.470
 1012POPC   GL115865  21.998  34.413   9.152
 1012POPC   GL215866  22.292  34.639   9.071
 1012POPC   C1A15867  21.906  34.552   8.755
 1012POPC   D2A15868  21.967  34.157   8.543
 1012POPC   C3A15869  22.044  34.158   8.100
 1012POPC   C4A15870  22.004  34.557   7.866
 1012POPC   C1B15871  22.393  34.436   8.700
 1012POPC   C2B15872  22.255  34.610   8.312
 1012POPC   C3B15873  22.451  34.814   7.931
 1012POPC   C4B15874  22.468  34.636   7.484
 1013POPC   NC315875   5.897  43.768   9.430
 1013POPC   PO415876   6.432  44.112   9.435
 1013POPC   GL115877   6.107  44.157   9.098
 1013POPC   GL215878   5.812  43.917   8.968
 1013POPC   C1A15879   6.116  44.102   8.631
 1013POPC   D2A15880   5.868  43.846   8.381
 1013POPC   C3A15881   6.102  43.672   8.065
 1013POPC   C4A15882   6.013  43.875   7.699
 1013POPC   C1B15883   5.475  43.743   8.707
 1013POPC   C2B15884   5.372  43.702   8.275
 1013POPC   C3B15885   5.551  43.982   7.948
 1013POPC   C4B15886   5.538  43.917   7.499
 1014POPC   NC315887  16.037  41.922   9.433
 1014POPC   PO415888  16.015  42.616   9.472
 1014POPC   GL115889  15.923  42.336   9.126
 1014POPC   GL215890  15.646  42.076   9.145
 1014POPC   C1A15891  16.081  42.181   8.734
 1014POPC   D2A15892  16.282  42.209   8.344
 1014POPC   C3A15893  16.195  42.607   8.203
 1014POPC   C4A15894  16.047  42.620   7.784
 1014POPC   C1B15895  15.553  42.219   8.776
 1014POPC   C2B15896  15.446  42.292   8.387
 1014POPC   C3B15897  15.774  42.346   8.125
 1014POPC   C4B15898  16.036  42.118   7.842
 1015POPC   NC315899   7.165  41.367   9.511
 1015POPC   PO415900   7.507  41.999   9.488
 1015POPC   GL115901   7.262  41.773   9.179
 1015POPC   GL215902   7.425  41.449   9.080
 1015POPC   C1A15903   7.042  41.605   8.797
 1015POPC   D2A15904   7.257  41.486   8.426
 1015POPC   C3A15905   7.115  41.661   8.060
 1015POPC   C4A15906   7.281  41.543   7.687
 1015POPC   C1B15907   7.578  41.217   8.718
 1015POPC   C2B15908   7.769  41.371   8.332
 1015POPC   C3B15909   7.723  41.374   7.885
 1015POPC   C4B15910   7.614  41.210   7.477
 1016POPC   NC315911  12.605  10.716   9.462
 1016POPC   PO415912  13.018  10.096   9.599
 1016POPC   GL115913  12.881  10.349   9.221
 1016POPC   GL215914  12.979  10.636   8.997
 1016POPC   C1A15915  12.604  10.342   8.842
 1016POPC   D2A15916  12.466  10.224   8.432
 1016POPC   C3A15917  12.592  10.456   8.071
 1016POPC   C4A15918  12.668  10.301   7.677
 1016POPC   C1B15919  12.666  10.869   8.741
 1016POPC   C2B15920  12.422  10.871   8.325
 1016POPC   C3B15921  12.507  10.934   7.846
 1016POPC   C4B15922  12.671  10.793   7.426
 1017POPC   NC315923  15.522  23.293   9.540
 1017POPC   PO415924  15.163  23.960   9.615
 1017POPC   GL115925  15.125  23.742   9.215
 1017POPC   GL215926  14.929  23.435   9.234
 1017POPC   C1A15927  15.317  23.687   8.803
 1017POPC   D2A15928  15.428  23.914   8.410
 1017POPC   C3A15929  15.277  23.759   8.017
 1017POPC   C4A15930  15.318  23.488   7.656
 1017POPC   C1B15931  14.786  23.595   8.827
 1017POPC   C2B15932  14.973  23.596   8.421
 1017POPC   C3B15933  14.825  23.540   7.996
 1017POPC   C4B15934  14.907  23.786   7.634
 1018POPC   NC315935  31.947  42.638   9.487
 1018POPC   PO415936  32.092  42.019   9.530
 1018POPC   GL115937  32.227  42.225   9.121
 1018POPC   GL215938  32.081  42.512   9.033
 1018POPC   C1A15939  32.392  42.403   8.693
 1018POPC   D2A15940  32.458  42.151   8.370
 1018POPC   C3A15941  32.386  42.322   8.000
 1018POPC   C4A15942  32.643  42.455   7.677
 1018POPC   C1B15943  31.928  42.200   8.695
 1018POPC   C2B15944  31.947  42.195   8.247
 1018POPC   C3B15945  31.974  42.140   7.785
 1018POPC   C4B15946  32.158  42.502   7.544
 1019POPC   NC315947  16.725  17.141   9.695
 1019POPC   PO415948  16.869  17.753   9.669
 1019POPC   GL115949  16.663  17.620   9.263
 1019POPC   GL215950  16.905  17.752   9.016
 1019POPC   C1A15951  16.466  17.579   8.808
 1019POPC   D2A15952  16.757  17.560   8.425
 1019POPC   C3A15953  16.661  17.646   7.977
 1019POPC   C4A15954  16.753  17.603   7.537
 1019POPC   C1B15955  16.868  17.288   8.866
 1019POPC   C2B15956  17.116  17.102   8.496
 1019POPC   C3B15957  17.028  17.228   8.066
 1019POPC   C4B15958  16.887  17.131   7.646
 1020POPC   NC315959   7.699  12.916   9.430
 1020POPC   PO415960   7.133  12.679   9.573
 1020POPC   GL115961   7.244  12.961   9.178
 1020POPC   GL215962   7.461  12.734   9.012
 1020POPC   C1A15963   7.296  13.083   8.696
 1020POPC   D2A15964   7.299  12.785   8.343
 1020POPC   C3A15965   7.339  12.891   7.906
 1020POPC   C4A15966   7.214  13.085   7.528
 1020POPC   C1B15967   7.734  12.778   8.622
 1020POPC   C2B15968   7.795  12.833   8.190
 1020POPC   C3B15969   7.695  12.540   7.895
 1020POPC   C4B15970   7.966  12.414   7.606
 1021POPC   NC315971  22.269   5.673   9.854
 1021POPC   PO415972  21.857   6.193   9.718
 1021POPC   GL115973  22.074   5.954   9.383
 1021POPC   GL215974  21.828   5.676   9.318
 1021POPC   C1A15975  22.176   5.969   8.920
 1021POPC   D2A15976  22.153   6.073   8.456
 1021POPC   C3A15977  22.375   5.989   8.079
 1021POPC   C4A15978  22.495   5.942   7.653
 1021POPC   C1B15979  21.801   5.603   8.873
 1021POPC   C2B15980  22.090   5.574   8.563
 1021POPC   C3B15981  22.049   5.599   8.132
 1021POPC   C4B15982  22.258   5.498   7.755
 1022POPC   NC315983  16.335  29.742   9.592
 1022POPC   PO415984  16.981  30.103   9.563
 1022POPC   GL115985  16.883  30.144   9.217
 1022POPC   GL215986  16.653  29.861   9.200
 1022POPC   C1A15987  16.999  30.108   8.845
 1022POPC   D2A15988  16.956  29.909   8.474
 1022POPC   C3A15989  17.147  30.108   8.157
 1022POPC   C4A15990  16.964  30.164   7.779
 1022POPC   C1B15991  16.496  30.167   8.900
 1022POPC   C2B15992  16.437  30.015   8.494
 1022POPC   C3B15993  16.608  29.946   8.097
 1022POPC   C4B15994  16.419  30.183   7.767
 1023POPC   NC315995  24.641  21.685   9.584
 1023POPC   PO415996  24.312  21.127   9.604
 1023POPC   GL115997  24.465  21.378   9.237
 1023POPC   GL215998  24.238  21.643   9.198
 1023POPC   C1A15999  24.725  21.307   8.876
 1023POPC   D2A16000  24.884  21.163   8.482
 1023POPC   C3A16001  24.676  21.186   8.080
 1023POPC   C4A16002  24.754  21.381   7.675
 1023POPC   C1B16003  24.227  21.384   8.788
 1023POPC   C2B16004  24.232  21.156   8.411
 1023POPC   C3B16005  24.200  21.397   8.073
 1023POPC   C4B16006  24.210  21.477   7.673
 1024POPC   NC316007  33.523  30.047   9.535
 1024POPC   PO416008  34.092  29.661   9.447
 1024POPC   GL116009  33.803  29.757   9.115
 1024POPC   GL216010  33.686  30.103   9.071
 1024POPC   C1A16011  33.917  29.894   8.692
 1024POPC   D2A16012  33.629  29.989   8.377
 1024POPC   C3A16013  33.839  30.085   8.049
 1024POPC   C4A16014  33.975  29.862   7.707
 1024POPC   C1B16015  33.521  30.346   8.728
 1024POPC   C2B16016  33.342  30.412   8.317
 1024POPC   C3B16017  33.390  30.305   7.908
 1024POPC   C4B16018  33.469  29.892   7.737
 1025POPC   NC316019  25.861  43.566   9.642
 1025POPC   PO416020  26.130  44.180   9.580
 1025POPC   GL116021  26.133  44.012   9.186
 1025POPC   GL216022  25.967  43.704   9.181
 1025POPC   C1A16023  26.140  44.045   8.754
 1025POPC   D2A16024  26.359  43.789   8.484
 1025POPC   C3A16025  26.240  43.816   8.047
 1025POPC   C4A16026  25.981  44.027   7.715
 1025POPC   C1B16027  26.036  43.552   8.822
 1025POPC   C2B16028  25.867  43.677   8.445
 1025POPC   C3B16029  25.727  43.728   8.050
 1025POPC   C4B16030  25.954  43.515   7.737
 1026POPC   NC316031  18.620   9.458   9.434
 1026POPC   PO416032  19.311   9.613   9.615
 1026POPC   GL116033  19.211   9.794   9.214
 1026POPC   GL216034  18.823   9.870   9.155
 1026POPC   C1A16035  19.184   9.698   8.809
 1026POPC   D2A16036  19.418   9.735   8.470
 1026POPC   C3A16037  19.217   9.640   8.085
 1026POPC   C4A16038  18.853   9.562   7.862
 1026POPC   C1B16039  18.855  10.073   8.731
 1026POPC   C2B16040  18.992  10.055   8.302
 1026POPC   C3B16041  18.753  10.054   7.903
 1026POPC   C4B16042  18.499   9.840   7.582
 1027POPC   NC316043  38.237  20.859   9.375
 1027POPC   PO416044  38.817  20.437   9.583
 1027POPC   GL116045  38.645  20.575   9.228
 1027POPC   GL216046  38.522  20.271   9.107
 1027POPC   C1A16047  38.577  20.692   8.795
 1027POPC   D2A16048  38.584  20.484   8.392
 1027POPC   C3A16049  38.533  20.807   8.094
 1027POPC   C4A16050  38.901  21.008   7.867
 1027POPC   C1B16051  38.310  20.213   8.731
 1027POPC   C2B16052  38.118  20.316   8.293
 1027POPC   C3B16053  38.249  20.381   7.861
 1027POPC   C4B16054  38.170  20.258   7.433
 1028POPC   NC316055  29.365  36.956   9.551
 1028POPC   PO416056  28.782  36.616   9.359
 1028POPC   GL116057  29.064  36.883   9.114
 1028POPC   GL216058  29.396  36.722   9.109
 1028POPC   C1A16059  28.936  37.008   8.700
 1028POPC   D2A16060  28.778  36.882   8.302
 1028POPC   C3A16061  29.024  36.961   7.915
 1028POPC   C4A16062  28.812  37.110   7.534
 1028POPC   C1B16063  29.321  36.657   8.687
 1028POPC   C2B16064  29.164  36.548   8.287
 1028POPC   C3B16065  29.429  36.594   7.936
 1028POPC   C4B16066  29.639  36.755   7.574
 1029POPC   NC316067  25.523  24.085   9.684
 1029POPC   PO416068  25.102  23.601   9.427
 1029POPC   GL116069  25.213  23.820   9.082
 1029POPC   GL216070  24.899  24.003   8.964
 1029POPC   C1A16071  25.539  23.805   8.808
 1029POPC   D2A16072  25.614  23.609   8.424
 1029POPC   C3A16073  25.399  23.723   8.046
 1029POPC   C4A16074  25.489  24.027   7.738
 1029POPC   C1B16075  24.858  23.647   8.753
 1029POPC   C2B16076  25.054  23.627   8.399
 1029POPC   C3B16077  24.834  23.642   8.040
 1029POPC   C4B16078  25.004  23.858   7.727
 1030POPC   NC316079  24.585  34.089   9.296
 1030POPC   PO416080  24.309  33.542   9.549
 1030POPC   GL116081  24.409  33.530   9.129
 1030POPC   GL216082  24.753  33.631   9.079
 1030POPC   C1A16083  24.285  33.766   8.762
 1030POPC   D2A16084  24.306  34.041   8.390
 1030POPC   C3A16085  24.210  33.800   8.004
 1030POPC   C4A16086  24.538  33.590   7.770
 1030POPC   C1B16087  24.776  33.902   8.699
 1030POPC   C2B16088  24.888  34.129   8.331
 1030POPC   C3B16089  24.952  34.088   7.890
 1030POPC   C4B16090  24.974  34.132   7.423
 1031POPC   NC316091  28.399  12.093   9.495
 1031POPC   PO416092  28.614  12.665   9.434
 1031POPC   GL116093  28.346  12.480   9.120
 1031POPC   GL216094  28.082  12.192   9.091
 1031POPC   C1A16095  28.469  12.296   8.732
 1031POPC   D2A16096  28.325  12.293   8.307
 1031POPC   C3A16097  28.545  11.958   8.160
 1031POPC   C4A16098  28.632  11.710   7.828
 1031POPC   C1B16099  28.113  11.934   8.736
 1031POPC   C2B16100  28.107  11.777   8.316
 1031POPC   C3B16101  28.095  11.998   7.914
 1031POPC   C4B16102  27.937  12.201   7.525
 1032POPC   NC316103  37.259  43.066   9.470
 1032POPC   PO416104  36.619  43.226   9.505
 1032POPC   GL116105  36.743  42.993   9.158
 1032POPC   GL216106  36.991  43.224   9.068
 1032POPC   C1A16107  36.954  42.806   8.790
 1032POPC   D2A16108  37.202  42.991   8.466
 1032POPC   C3A16109  37.117  42.836   8.059
 1032POPC   C4A16110  36.865  42.987   7.743
 1032POPC   C1B16111  37.285  43.424   8.812
 1032POPC   C2B16112  37.212  43.545   8.414
 1032POPC   C3B16113  37.128  43.343   8.070
 1032POPC   C4B16114  37.225  43.384   7.657
 1033POPC   NC316115  26.481   2.624   9.305
 1033POPC   PO416116  25.859   2.392   9.379
 1033POPC   GL116117  25.967   2.601   9.085
 1033POPC   GL216118  25.893   2.922   9.216
 1033POPC   C1A16119  26.068   2.480   8.682
 1033POPC   D2A16120  26.264   2.340   8.332
 1033POPC   C3A16121  26.085   2.596   8.032
 1033POPC   C4A16122  25.888   2.524   7.637
 1033POPC   C1B16123  26.094   2.999   8.799
 1033POPC   C2B16124  25.975   3.028   8.386
 1033POPC   C3B16125  26.170   3.168   8.046
 1033POPC   C4B16126  26.112   3.024   7.668
 1034POPC   NC316127   7.208  40.683   9.559
 1034POPC   PO416128   7.632  41.231   9.509
 1034POPC   GL116129   7.463  40.947   9.184
 1034POPC   GL216130   7.093  40.998   9.158
 1034POPC   C1A16131   7.510  40.695   8.802
 1034POPC   D2A16132   7.738  40.798   8.426
 1034POPC   C3A16133   7.585  40.631   8.059
 1034POPC   C4A16134   7.478  40.297   7.819
 1034POPC   C1B16135   7.084  40.972   8.733
 1034POPC   C2B16136   7.221  40.928   8.317
 1034POPC   C3B16137   7.088  41.154   7.951
 1034POPC   C4B16138   7.121  41.100   7.485
 1035POPC   NC316139  15.342  25.232   9.463
 1035POPC   PO416140  14.777  25.571   9.499
 1035POPC   GL116141  15.011  25.407   9.134
 1035POPC   GL216142  15.368  25.591   9.116
 1035POPC   C1A16143  15.172  25.325   8.720
 1035POPC   D2A16144  15.237  25.127   8.321
 1035POPC   C3A16145  15.155  25.354   7.940
 1035POPC   C4A16146  15.212  25.081   7.605
 1035POPC   C1B16147  15.637  25.534   8.766
 1035POPC   C2B16148  15.507  25.551   8.350
 1035POPC   C3B16149  15.640  25.444   7.961
 1035POPC   C4B16150  15.542  25.479   7.517
 1036POPC   NC316151  41.264  16.015   9.573
 1036POPC   PO416152  41.714  15.568   9.577
 1036POPC   GL116153  41.756  15.870   9.219
 1036POPC   GL216154  41.574  16.198   9.180
 1036POPC   C1A16155  41.644  15.913   8.777
 1036POPC   D2A16156  41.646  15.636   8.449
 1036POPC   C3A16157  41.581  15.802   8.076
 1036POPC   C4A16158  41.711  15.651   7.649
 1036POPC   C1B16159  41.409  16.389   8.768
 1036POPC   C2B16160  41.600  16.258   8.375
 1036POPC   C3B16161  41.779  16.292   7.978
 1036POPC   C4B16162  41.489  16.119   7.700
 1037POPC   NC316163   5.417  35.503   9.348
 1037POPC   PO416164   4.823  35.409   9.620
 1037POPC   GL116165   4.944  35.467   9.183
 1037POPC   GL216166   5.084  35.132   9.155
 1037POPC   C1A16167   5.033  35.394   8.720
 1037POPC   D2A16168   5.138  35.547   8.300
 1037POPC   C3A16169   4.882  35.361   7.957
 1037POPC   C4A16170   5.029  35.278   7.520
 1037POPC   C1B16171   5.233  34.915   8.788
 1037POPC   C2B16172   5.216  35.030   8.369
 1037POPC   C3B16173   5.348  35.151   7.984
 1037POPC   C4B16174   5.465  34.999   7.599
 1038POPC   NC316175   3.857  17.308   9.782
 1038POPC   PO416176   3.670  17.870   9.376
 1038POPC   GL116177   3.809  17.450   9.178
 1038POPC   GL216178   3.604  17.152   9.159
 1038POPC   C1A16179   3.844  17.365   8.728
 1038POPC   D2A16180   3.644  17.593   8.369
 1038POPC   C3A16181   3.770  17.566   7.929
 1038POPC   C4A16182   3.668  17.717   7.492
 1038POPC   C1B16183   3.350  17.398   8.880
 1038POPC   C2B16184   3.196  17.345   8.479
 1038POPC   C3B16185   3.332  17.295   8.075
 1038POPC   C4B16186   3.285  17.614   7.820
 1039POPC   NC316187   0.157   1.958   9.547
 1039POPC   PO416188   0.853   2.211   9.607
 1039POPC   GL116189   0.772   1.976   9.206
 1039POPC   GL216190   0.456   1.778   9.160
 1039POPC   C1A16191   0.615   2.101   8.771
 1039POPC   D2A16192   0.397   2.336   8.448
 1039POPC   C3A16193   0.612   2.358   8.042
 1039POPC   C4A16194   0.778   2.028   7.746
 1039POPC   C1B16195   0.197   1.805   8.800
 1039POPC   C2B16196   0.380   1.751   8.401
 1039POPC   C3B16197   0.339   1.936   8.007
 1039POPC   C4B16198  44.993   1.953   7.686
 1040POPC   NC316199  28.994   2.765   9.547
 1040POPC   PO416200  29.146   2.104   9.540
 1040POPC   GL116201  29.191   2.452   9.148
 1040POPC   GL216202  29.174   2.852   9.094
 1040POPC   C1A16203  29.046   2.542   8.702
 1040POPC   D2A16204  29.017   2.765   8.283
 1040POPC   C3A16205  29.174   2.612   7.872
 1040POPC   C4A16206  29.082   2.727   7.422
 1040POPC   C1B16207  29.160   3.046   8.726
 1040POPC   C2B16208  29.386   3.139   8.384
 1040POPC   C3B16209  29.546   2.925   8.063
 1040POPC   C4B16210  29.419   3.045   7.659
 1041POPC   NC316211   7.547  22.100   9.700
 1041POPC   PO416212   7.126  22.564   9.596
 1041POPC   GL116213   7.225  22.198   9.292
 1041POPC   GL216214   7.536  21.978   9.220
 1041POPC   C1A16215   7.297  22.199   8.841
 1041POPC   D2A16216   7.223  22.374   8.438
 1041POPC   C3A16217   7.318  22.187   8.106
 1041POPC   C4A16218   7.147  22.359   7.758
 1041POPC   C1B16219   7.768  21.949   8.832
 1041POPC   C2B16220   7.721  22.204   8.476
 1041POPC   C3B16221   7.826  22.090   8.072
 1041POPC   C4B16222   7.651  22.228   7.723
 1042POPC   NC316223  41.216  34.176   9.330
 1042POPC   PO416224  41.711  33.775   9.558
 1042POPC   GL116225  41.451  33.687   9.189
 1042POPC   GL216226  41.567  33.958   9.022
 1042POPC   C1A16227  41.489  33.493   8.769
 1042POPC   D2A16228  41.330  33.536   8.360
 1042POPC   C3A16229  41.557  33.811   8.123
 1042POPC   C4A16230  41.632  33.676   7.727
 1042POPC   C1B16231  41.667  34.015   8.597
 1042POPC   C2B16232  41.447  34.272   8.352
 1042POPC   C3B16233  41.314  34.310   7.969
 1042POPC   C4B16234  41.341  34.136   7.569
 1043POPC   NC316235   5.402  42.968   9.770
 1043POPC   PO416236   5.870  43.306   9.455
 1043POPC   GL116237   5.892  43.130   9.087
 1043POPC   GL216238   5.613  43.384   9.036
 1043POPC   C1A16239   5.917  42.861   8.717
 1043POPC   D2A16240   5.812  42.687   8.306
 1043POPC   C3A16241   5.876  42.942   7.927
 1043POPC   C4A16242   5.515  43.041   7.708
 1043POPC   C1B16243   5.855  43.386   8.650
 1043POPC   C2B16244   5.739  43.333   8.237
 1043POPC   C3B16245   5.681  43.497   7.838
 1043POPC   C4B16246   5.986  43.423   7.505
 1044POPC   NC316247  15.066  33.336   9.434
 1044POPC   PO416248  14.975  32.678   9.500
 1044POPC   GL116249  15.209  32.930   9.115
 1044POPC   GL216250  15.288  33.327   8.993
 1044POPC   C1A16251  15.107  32.965   8.664
 1044POPC   D2A16252  15.307  33.045   8.297
 1044POPC   C3A16253  15.213  32.777   7.974
 1044POPC   C4A16254  14.981  32.851   7.639
 1044POPC   C1B16255  14.859  33.394   8.788
 1044POPC   C2B16256  14.698  33.238   8.382
 1044POPC   C3B16257  14.865  33.252   7.955
 1044POPC   C4B16258  14.919  33.317   7.466
 1045POPC   NC316259   6.400  13.961   9.538
 1045POPC   PO416260   6.964  14.243   9.486
 1045POPC   GL116261   6.675  14.299   9.169
 1045POPC   GL216262   6.308  14.434   9.248
 1045POPC   C1A16263   6.933  14.315   8.795
 1045POPC   D2A16264   7.039  14.068   8.473
 1045POPC   C3A16265   6.923  14.299   8.108
 1045POPC   C4A16266   6.806  14.435   7.707
 1045POPC   C1B16267   6.275  14.255   8.820
 1045POPC   C2B16268   6.523  14.210   8.435
 1045POPC   C3B16269   6.425  14.196   7.980
 1045POPC   C4B16270   6.284  14.476   7.629
 1046POPC   NC316271  10.769  21.742   9.405
 1046POPC   PO416272  10.439  22.288   9.667
 1046POPC   GL116273  10.508  22.164   9.201
 1046POPC   GL216274  10.691  22.479   9.150
 1046POPC   C1A16275  10.422  21.928   8.751
 1046POPC   D2A16276  10.512  21.769   8.279
 1046POPC   C3A16277  10.321  21.972   7.854
 1046POPC   C4A16278  10.463  21.965   7.402
 1046POPC   C1B16279  10.534  22.431   8.743
 1046POPC   C2B16280  10.507  22.263   8.340
 1046POPC   C3B16281  10.759  22.164   7.980
 1046POPC   C4B16282  10.629  22.415   7.584
 1047POPC   NC316283  21.144  33.201   9.588
 1047POPC   PO416284  21.544  32.627   9.581
 1047POPC   GL116285  21.337  32.840   9.249
 1047POPC   GL216286  21.566  33.086   9.153
 1047POPC   C1A16287  21.195  32.912   8.820
 1047POPC   D2A16288  21.295  32.948   8.408
 1047POPC   C3A16289  20.995  33.032   8.093
 1047POPC   C4A16290  21.143  32.787   7.776
 1047POPC   C1B16291  21.689  32.763   8.867
 1047POPC   C2B16292  21.801  32.866   8.444
 1047POPC   C3B16293  21.711  32.723   8.048
 1047POPC   C4B16294  21.850  32.783   7.628
 1048POPC   NC316295   0.425  13.272   9.404
 1048POPC   PO416296   0.485  12.588   9.517
 1048POPC   GL116297   0.520  12.830   9.138
 1048POPC   GL216298   0.831  13.021   9.177
 1048POPC   C1A16299   0.471  13.095   8.759
 1048POPC   D2A16300   0.632  13.212   8.345
 1048POPC   C3A16301   0.366  13.026   7.990
 1048POPC   C4A16302   0.270  12.988   7.536
 1048POPC   C1B16303   0.967  12.990   8.745
 1048POPC   C2B16304   0.877  12.681   8.438
 1048POPC   C3B16305   0.715  12.634   8.007
 1048POPC   C4B16306   0.792  12.972   7.697
 1049POPC   NC316307  22.246  10.911   9.328
 1049POPC   PO416308  21.947  10.368   9.494
 1049POPC   GL116309  21.853  10.670   9.149
 1049POPC   GL216310  22.131  10.510   9.019
 1049POPC   C1A16311  21.882  10.865   8.759
 1049POPC   D2A16312  22.082  10.597   8.489
 1049POPC   C3A16313  22.073  10.774   8.084
 1049POPC   C4A16314  21.940  10.723   7.670
 1049POPC   C1B16315  22.080  10.132   8.830
 1049POPC   C2B16316  21.905  10.072   8.469
 1049POPC   C3B16317  22.058  10.260   8.121
 1049POPC   C4B16318  22.030  10.161   7.749
 1050POPC   NC316319  12.292  21.925   9.492
 1050POPC   PO416320  11.987  22.457   9.749
 1050POPC   GL116321  12.093  22.377   9.298
 1050POPC   GL216322  11.940  22.072   9.127
 1050POPC   C1A16323  12.038  22.482   8.847
 1050POPC   D2A16324  11.957  22.230   8.489
 1050POPC   C3A16325  12.182  22.228   8.084
 1050POPC   C4A16326  11.959  22.359   7.703
 1050POPC   C1B16327  12.225  21.856   8.815
 1050POPC   C2B16328  12.182  21.711   8.392
 1050POPC   C3B16329  12.401  21.648   8.006
 1050POPC   C4B16330  12.576  21.979   7.750
 1051POPC   NC316331  35.597  39.327   9.565
 1051POPC   PO416332  36.302  39.136   9.581
 1051POPC   GL116333  36.006  39.283   9.191
 1051POPC   GL216334  35.847  38.974   9.147
 1051POPC   C1A16335  35.849  39.244   8.689
 1051POPC   D2A16336  36.101  39.130   8.265
 1051POPC   C3A16337  35.918  39.215   7.787
 1051POPC   C4A16338  35.759  39.471   7.374
 1051POPC   C1B16339  36.241  38.982   8.844
 1051POPC   C2B16340  36.505  38.854   8.528
 1051POPC   C3B16341  36.488  38.739   8.108
 1051POPC   C4B16342  36.367  38.956   7.745
 1052POPC   NC316343  35.798  24.919   9.484
 1052POPC   PO416344  36.302  25.381   9.416
 1052POPC   GL116345  36.072  25.163   9.128
 1052POPC   GL216346  36.186  24.824   9.164
 1052POPC   C1A16347  35.965  25.001   8.732
 1052POPC   D2A16348  35.954  24.996   8.306
 1052POPC   C3A16349  35.873  25.378   8.117
 1052POPC   C4A16350  35.933  25.254   7.707
 1052POPC   C1B16351  36.489  24.941   8.822
 1052POPC   C2B16352  36.442  25.206   8.450
 1052POPC   C3B16353  36.338  25.191   8.025
 1052POPC   C4B16354  36.383  25.479   7.685
 1053POPC   NC316355  24.491  33.143   9.605
 1053POPC   PO416356  24.761  32.568   9.548
 1053POPC   GL116357  24.653  32.818   9.232
 1053POPC   GL216358  24.323  32.893   9.186
 1053POPC   C1A16359  24.673  33.148   8.892
 1053POPC   D2A16360  24.617  33.425   8.566
 1053POPC   C3A16361  24.715  33.272   8.165
 1053POPC   C4A16362  24.700  33.097   7.779
 1053POPC   C1B16363  24.136  33.161   8.894
 1053POPC   C2B16364  24.099  33.336   8.505
 1053POPC   C3B16365  24.226  33.259   8.103
 1053POPC   C4B16366  24.109  33.308   7.707
 1054POPC   NC316367  38.661  44.581   9.636
 1054POPC   PO416368  38.256   0.089   9.509
 1054POPC   GL116369  38.371  44.778   9.181
 1054POPC   GL216370  38.722  44.666   9.158
 1054POPC   C1A16371  38.439  44.765   8.718
 1054POPC   D2A16372  38.632  44.926   8.327
 1054POPC   C3A16373  38.360  44.861   7.953
 1054POPC   C4A16374  38.353  44.457   7.740
 1054POPC   C1B16375  38.921  44.541   8.831
 1054POPC   C2B16376  39.056  44.546   8.418
 1054POPC   C3B16377  38.799  44.500   8.059
 1054POPC   C4B16378  38.871  44.367   7.668
 1055POPC   NC316379  32.131  41.531   9.536
 1055POPC   PO416380  32.623  41.046   9.661
 1055POPC   GL116381  32.487  41.324   9.257
 1055POPC   GL216382  32.417  41.722   9.154
 1055POPC   C1A16383  32.424  41.351   8.824
 1055POPC   D2A16384  32.535  41.194   8.478
 1055POPC   C3A16385  32.286  41.311   8.171
 1055POPC   C4A16386  32.463  41.376   7.766
 1055POPC   C1B16387  32.294  41.856   8.788
 1055POPC   C2B16388  32.134  41.743   8.435
 1055POPC   C3B16389  32.300  41.806   8.027
 1055POPC   C4B16390  32.347  41.827   7.593
 1056POPC   NC316391  37.622  39.530   9.670
 1056POPC   PO416392  37.797  38.845   9.580
 1056POPC   GL116393  37.648  39.174   9.259
 1056POPC   GL216394  37.986  39.290   9.164
 1056POPC   C1A16395  37.434  39.415   8.856
 1056POPC   D2A16396  37.137  39.411   8.476
 1056POPC   C3A16397  37.318  39.536   8.065
 1056POPC   C4A16398  37.453  39.437   7.613
 1056POPC   C1B16399  37.796  39.082   8.777
 1056POPC   C2B16400  37.604  39.230   8.398
 1056POPC   C3B16401  37.719  39.180   7.977
 1056POPC   C4B16402  38.053  39.013   7.757
 1057POPC   NC316403  25.580  20.523   9.580
 1057POPC   PO416404  26.233  20.545   9.399
 1057POPC   GL116405  25.881  20.405   9.145
 1057POPC   GL216406  25.909  20.664   8.878
 1057POPC   C1A16407  25.926  20.171   8.761
 1057POPC   D2A16408  26.242  20.313   8.472
 1057POPC   C3A16409  26.049  20.473   8.083
 1057POPC   C4A16410  26.198  20.216   7.745
 1057POPC   C1B16411  26.284  20.827   8.616
 1057POPC   C2B16412  26.420  21.015   8.225
 1057POPC   C3B16413  26.106  21.121   7.920
 1057POPC   C4B16414  25.886  20.787   7.663
 1058POPC   NC316415  33.780  28.527   9.436
 1058POPC   PO416416  33.991  27.898   9.465
 1058POPC   GL116417  33.934  28.133   9.124
 1058POPC   GL216418  33.603  28.147   9.028
 1058POPC   C1A16419  34.014  28.355   8.750
 1058POPC   D2A16420  34.193  28.292   8.349
 1058POPC   C3A16421  33.985  28.560   8.037
 1058POPC   C4A16422  34.163  28.833   7.697
 1058POPC   C1B16423  33.693  27.935   8.667
 1058POPC   C2B16424  33.693  28.156   8.278
 1058POPC   C3B16425  33.561  28.343   7.874
 1058POPC   C4B16426  33.547  28.186   7.436
 1059POPC   NC316427  27.802  36.233   9.533
 1059POPC   PO416428  27.695  35.618   9.293
 1059POPC   GL116429  27.475  35.985   9.166
 1059POPC   GL216430  27.534  36.360   9.119
 1059POPC   C1A16431  27.326  35.976   8.762
 1059POPC   D2A16432  27.525  35.923   8.355
 1059POPC   C3A16433  27.322  36.064   7.980
 1059POPC   C4A16434  27.331  35.891   7.557
 1059POPC   C1B16435  27.568  36.401   8.698
 1059POPC   C2B16436  27.775  36.387   8.313
 1059POPC   C3B16437  27.812  36.121   7.958
 1059POPC   C4B16438  27.639  36.277   7.594
 1060POPC   NC316439  20.243   9.101   9.373
 1060POPC   PO416440  20.696   8.890   9.829
 1060POPC   GL116441  20.663   8.745   9.314
 1060POPC   GL216442  20.425   8.872   8.997
 1060POPC   C1A16443  20.833   8.646   8.874
 1060POPC   D2A16444  20.611   8.883   8.510
 1060POPC   C3A16445  20.715   8.790   8.094
 1060POPC   C4A16446  20.733   8.870   7.677
 1060POPC   C1B16447  20.314   9.253   8.742
 1060POPC   C2B16448  20.160   9.248   8.337
 1060POPC   C3B16449  20.283   9.062   8.005
 1060POPC   C4B16450  20.414   9.296   7.695
 1061POPC   NC316451  38.126  30.681   9.325
 1061POPC   PO416452  38.678  31.008   9.566
 1061POPC   GL116453  38.516  30.960   9.196
 1061POPC   GL216454  38.592  30.618   9.086
 1061POPC   C1A16455  38.366  30.950   8.788
 1061POPC   D2A16456  38.508  30.654   8.507
 1061POPC   C3A16457  38.588  30.635   8.066
 1061POPC   C4A16458  38.349  30.865   7.768
 1061POPC   C1B16459  38.340  30.306   8.838
 1061POPC   C2B16460  38.118  30.324   8.501
 1061POPC   C3B16461  38.102  30.521   8.143
 1061POPC   C4B16462  38.185  30.273   7.792
 1062POPC   NC316463  26.193  18.607   9.398
 1062POPC   PO416464  25.814  19.262   9.528
 1062POPC   GL116465  25.949  19.029   9.214
 1062POPC   GL216466  25.718  18.764   9.308
 1062POPC   C1A16467  26.031  19.174   8.802
 1062POPC   D2A16468  26.202  19.055   8.415
 1062POPC   C3A16469  26.196  19.316   8.070
 1062POPC   C4A16470  25.893  19.237   7.775
 1062POPC   C1B16471  25.601  18.849   8.886
 1062POPC   C2B16472  25.587  18.751   8.470
 1062POPC   C3B16473  25.613  18.893   8.053
 1062POPC   C4B16474  25.768  18.746   7.672
 1063POPC   NC316475   6.121   6.641   9.455
 1063POPC   PO416476   5.452   6.738   9.594
 1063POPC   GL116477   5.676   6.763   9.209
 1063POPC   GL216478   5.630   7.076   9.117
 1063POPC   C1A16479   5.775   6.520   8.829
 1063POPC   D2A16480   6.017   6.553   8.448
 1063POPC   C3A16481   5.748   6.434   8.090
 1063POPC   C4A16482   5.904   6.372   7.674
 1063POPC   C1B16483   5.841   7.021   8.735
 1063POPC   C2B16484   5.985   7.043   8.325
 1063POPC   C3B16485   6.007   6.844   7.910
 1063POPC   C4B16486   5.877   6.855   7.443
 1064POPC   NC316487  25.525   4.786   9.531
 1064POPC   PO416488  25.478   5.489   9.384
 1064POPC   GL116489  25.523   5.166   9.130
 1064POPC   GL216490  25.177   5.118   9.162
 1064POPC   C1A16491  25.459   5.083   8.698
 1064POPC   D2A16492  25.686   5.189   8.327
 1064POPC   C3A16493  25.372   5.167   8.006
 1064POPC   C4A16494  25.416   5.273   7.536
 1064POPC   C1B16495  24.958   5.276   8.827
 1064POPC   C2B16496  24.940   5.125   8.435
 1064POPC   C3B16497  24.801   5.241   8.068
 1064POPC   C4B16498  24.960   5.140   7.701
 1065POPC   NC316499  30.648  23.822   9.454
 1065POPC   PO416500  30.400  23.221   9.499
 1065POPC   GL116501  30.397  23.501   9.132
 1065POPC   GL216502  30.739  23.424   9.110
 1065POPC   C1A16503  30.585  23.766   8.761
 1065POPC   D2A16504  30.633  23.993   8.358
 1065POPC   C3A16505  30.664  23.756   7.968
 1065POPC   C4A16506  30.351  23.614   7.712
 1065POPC   C1B16507  30.649  23.264   8.740
 1065POPC   C2B16508  30.463  23.155   8.383
 1065POPC   C3B16509  30.516  23.226   8.009
 1065POPC   C4B16510  30.777  23.304   7.711
 1066POPC   NC316511  12.914  26.283   9.416
 1066POPC   PO416512  12.490  25.778   9.517
 1066POPC   GL116513  12.629  25.933   9.117
 1066POPC   GL216514  12.604  26.298   9.034
 1066POPC   C1A16515  12.871  25.972   8.730
 1066POPC   D2A16516  13.007  25.722   8.395
 1066POPC   C3A16517  12.946  25.922   8.046
 1066POPC   C4A16518  12.664  25.825   7.751
 1066POPC   C1B16519  12.397  26.138   8.689
 1066POPC   C2B16520  12.562  26.192   8.277
 1066POPC   C3B16521  12.383  26.255   7.875
 1066POPC   C4B16522  12.620  26.397   7.535
 1067POPC   NC316523   3.010   8.141   9.340
 1067POPC   PO416524   3.652   8.108   9.576
 1067POPC   GL116525   3.516   8.186   9.167
 1067POPC   GL216526   3.442   7.829   9.140
 1067POPC   C1A16527   3.560   8.405   8.763
 1067POPC   D2A16528   3.805   8.366   8.414
 1067POPC   C3A16529   3.649   8.482   8.015
 1067POPC   C4A16530   3.556   8.279   7.635
 1067POPC   C1B16531   3.262   7.974   8.753
 1067POPC   C2B16532   3.310   8.144   8.360
 1067POPC   C3B16533   3.474   7.969   8.021
 1067POPC   C4B16534   3.446   7.768   7.634
 1068POPC   NC316535  28.808   4.305   9.823
 1068POPC   PO416536  29.294   3.967   9.482
 1068POPC   GL116537  29.260   4.190   9.111
 1068POPC   GL216538  28.991   4.364   9.252
 1068POPC   C1A16539  29.398   4.398   8.710
 1068POPC   D2A16540  29.236   4.547   8.317
 1068POPC   C3A16541  29.241   4.408   7.880
 1068POPC   C4A16542  29.073   4.533   7.471
 1068POPC   C1B16543  28.882   4.472   8.816
 1068POPC   C2B16544  28.789   4.277   8.435
 1068POPC   C3B16545  28.720   4.409   8.038
 1068POPC   C4B16546  28.616   4.664   7.705
 1069POPC   NC316547  35.250  27.691   9.524
 1069POPC   PO416548  35.590  27.105   9.708
 1069POPC   GL116549  35.562  27.315   9.249
 1069POPC   GL216550  35.440  27.661   9.057
 1069POPC   C1A16551  35.379  27.211   8.844
 1069POPC   D2A16552  35.088  27.432   8.549
 1069POPC   C3A16553  35.128  27.350   8.083
 1069POPC   C4A16554  35.283  27.302   7.662
 1069POPC   C1B16555  35.169  27.911   8.740
 1069POPC   C2B16556  35.069  27.857   8.272
 1069POPC   C3B16557  35.370  27.775   7.948
 1069POPC   C4B16558  35.435  27.763   7.522
 1070POPC   NC316559  40.295  30.062   9.511
 1070POPC   PO416560  39.689  29.752   9.468
 1070POPC   GL116561  39.967  29.956   9.132
 1070POPC   GL216562  40.214  30.254   9.034
 1070POPC   C1A16563  40.294  29.748   8.903
 1070POPC   D2A16564  40.189  29.488   8.566
 1070POPC   C3A16565  40.167  29.761   8.224
 1070POPC   C4A16566  40.183  29.833   7.812
 1070POPC   C1B16567  39.787  30.315   8.798
 1070POPC   C2B16568  39.633  30.386   8.382
 1070POPC   C3B16569  39.778  30.091   8.068
 1070POPC   C4B16570  39.813  30.098   7.634
 1071POPC   NC316571   7.880   3.917   9.464
 1071POPC   PO416572   8.491   3.722   9.786
 1071POPC   GL116573   8.366   3.612   9.315
 1071POPC   GL216574   8.415   3.271   9.147
 1071POPC   C1A16575   8.451   3.689   8.863
 1071POPC   D2A16576   8.650   3.627   8.465
 1071POPC   C3A16577   8.356   3.679   8.130
 1071POPC   C4A16578   8.199   3.695   7.696
 1071POPC   C1B16579   8.048   3.279   8.837
 1071POPC   C2B16580   7.959   3.429   8.390
 1071POPC   C3B16581   8.100   3.259   7.968
 1071POPC   C4B16582   7.984   3.237   7.542
 1072POPC   NC316583  39.899  31.067   9.405
 1072POPC   PO416584  40.333  30.516   9.516
 1072POPC   GL116585  40.311  30.802   9.185
 1072POPC   GL216586  39.984  30.707   9.064
 1072POPC   C1A16587  40.384  30.781   8.744
 1072POPC   D2A16588  40.173  30.441   8.482
 1072POPC   C3A16589  40.079  30.501   8.054
 1072POPC   C4A16590  40.264  30.347   7.692
 1072POPC   C1B16591  39.865  30.805   8.664
 1072POPC   C2B16592  40.107  30.959   8.333
 1072POPC   C3B16593  40.265  30.957   7.934
 1072POPC   C4B16594  39.942  30.829   7.640
 1073POPC   NC316595  28.742  39.066   9.477
 1073POPC   PO416596  29.458  38.942   9.457
 1073POPC   GL116597  29.434  39.227   9.090
 1073POPC   GL216598  29.368  39.597   9.182
 1073POPC   C1A16599  29.083  39.329   8.797
 1073POPC   D2A16600  28.894  39.211   8.407
 1073POPC   C3A16601  29.089  39.321   8.038
 1073POPC   C4A16602  29.093  39.114   7.675
 1073POPC   C1B16603  29.515  39.616   8.751
 1073POPC   C2B16604  29.449  39.382   8.396
 1073POPC   C3B16605  29.625  39.408   7.987
 1073POPC   C4B16606  29.552  39.541   7.586
 1074POPC   NC316607   7.612  12.103   9.742
 1074POPC   PO416608   8.104  12.472   9.517
 1074POPC   GL116609   7.696  12.294   9.249
 1074POPC   GL216610   7.385  12.019   9.285
 1074POPC   C1A16611   7.442  12.260   8.828
 1074POPC   D2A16612   7.535  12.330   8.381
 1074POPC   C3A16613   7.236  12.286   8.070
 1074POPC   C4A16614   7.085  12.026   7.741
 1074POPC   C1B16615   7.187  11.802   8.890
 1074POPC   C2B16616   7.262  11.871   8.438
 1074POPC   C3B16617   7.401  11.748   8.028
 1074POPC   C4B16618   7.303  11.587   7.580
 1075POPC   NC316619  14.101   2.635   9.605
 1075POPC   PO416620  13.674   3.019   9.436
 1075POPC   GL116621  13.712   2.936   9.045
 1075POPC   GL216622  13.915   2.637   9.085
 1075POPC   C1A16623  13.395   2.903   8.750
 1075POPC   D2A16624  13.466   3.042   8.354
 1075POPC   C3A16625  13.531   2.839   7.975
 1075POPC   C4A16626  13.352   2.644   7.632
 1075POPC   C1B16627  13.667   2.493   8.712
 1075POPC   C2B16628  13.579   2.394   8.285
 1075POPC   C3B16629  13.873   2.452   7.941
 1075POPC   C4B16630  13.829   2.487   7.499
 1076POPC   NC316631  37.902  42.088   9.426
 1076POPC   PO416632  37.513  42.702   9.354
 1076POPC   GL116633  37.795  42.490   9.103
 1076POPC   GL216634  37.630  42.175   8.990
 1076POPC   C1A16635  37.936  42.509   8.703
 1076POPC   D2A16636  37.764  42.180   8.460
 1076POPC   C3A16637  37.866  42.255   8.052
 1076POPC   C4A16638  37.924  42.475   7.695
 1076POPC   C1B16639  37.418  42.523   8.742
 1076POPC   C2B16640  37.524  42.617   8.313
 1076POPC   C3B16641  37.350  42.366   7.975
 1076POPC   C4B16642  37.049  42.506   7.643
 1077POPC   NC316643  40.467  35.896   9.595
 1077POPC   PO416644  39.976  36.313   9.497
 1077POPC   GL116645  39.996  36.235   9.077
 1077POPC   GL216646  39.650  36.328   9.057
 1077POPC   C1A16647  39.915  36.039   8.686
 1077POPC   D2A16648  39.669  36.137   8.327
 1077POPC   C3A16649  39.935  36.150   8.010
 1077POPC   C4A16650  40.263  35.911   7.881
 1077POPC   C1B16651  39.720  36.538   8.646
 1077POPC   C2B16652  39.757  36.616   8.180
 1077POPC   C3B16653  39.840  36.547   7.704
 1077POPC   C4B16654  39.751  36.404   7.251
 1078POPC   NC316655   2.099  26.595   9.518
 1078POPC   PO416656   1.868  27.255   9.393
 1078POPC   GL116657   2.086  26.970   9.146
 1078POPC   GL216658   1.798  26.771   9.162
 1078POPC   C1A16659   2.193  26.878   8.709
 1078POPC   D2A16660   2.026  27.030   8.306
 1078POPC   C3A16661   2.172  26.863   7.911
 1078POPC   C4A16662   1.901  26.689   7.577
 1078POPC   C1B16663   1.699  26.770   8.753
 1078POPC   C2B16664   1.866  26.472   8.471
 1078POPC   C3B16665   1.773  26.569   8.067
 1078POPC   C4B16666   1.614  26.956   7.910
 1079POPC   NC316667  42.203  11.753   9.516
 1079POPC   PO416668  41.954  12.434   9.534
 1079POPC   GL116669  42.204  12.343   9.148
 1079POPC   GL216670  42.409  12.044   9.156
 1079POPC   C1A16671  42.265  12.220   8.695
 1079POPC   D2A16672  41.959  12.300   8.393
 1079POPC   C3A16673  42.011  12.070   8.118
 1079POPC   C4A16674  42.075  12.251   7.762
 1079POPC   C1B16675  42.742  12.261   8.934
 1079POPC   C2B16676  42.761  12.373   8.486
 1079POPC   C3B16677  42.829  12.307   8.062
 1079POPC   C4B16678  42.580  12.247   7.716
 1080POPC   NC316679  42.396   9.288   9.364
 1080POPC   PO416680  42.386   8.596   9.502
 1080POPC   GL116681  42.455   8.830   9.139
 1080POPC   GL216682  42.125   8.966   9.066
 1080POPC   C1A16683  42.492   8.904   8.719
 1080POPC   D2A16684  42.192   8.887   8.380
 1080POPC   C3A16685  42.413   8.743   8.005
 1080POPC   C4A16686  42.650   8.608   7.640
 1080POPC   C1B16687  42.194   9.301   8.731
 1080POPC   C2B16688  42.468   9.320   8.399
 1080POPC   C3B16689  42.306   9.233   7.988
 1080POPC   C4B16690  42.422   9.092   7.568
 1081POPC   NC316691   1.996  25.712   9.500
 1081POPC   PO416692   1.677  26.285   9.544
 1081POPC   GL116693   1.926  26.133   9.162
 1081POPC   GL216694   1.827  25.764   9.021
 1081POPC   C1A16695   2.131  26.077   8.736
 1081POPC   D2A16696   1.986  25.776   8.385
 1081POPC   C3A16697   2.144  25.890   7.960
 1081POPC   C4A16698   2.180  26.326   7.802
 1081POPC   C1B16699   1.627  26.042   8.705
 1081POPC   C2B16700   1.554  26.089   8.255
 1081POPC   C3B16701   1.704  26.138   7.818
 1081POPC   C4B16702   1.519  26.116   7.412
 1082POPC   NC316703  27.938  38.381   9.434
 1082POPC   PO416704  27.297  38.078   9.559
 1082POPC   GL116705  27.484  38.129   9.132
 1082POPC   GL216706  27.834  38.090   9.045
 1082POPC   C1A16707  27.493  38.346   8.734
 1082POPC   D2A16708  27.677  38.386   8.310
 1082POPC   C3A16709  27.445  38.429   7.956
 1082POPC   C4A16710  27.624  38.742   7.682
 1082POPC   C1B16711  28.033  38.405   8.703
 1082POPC   C2B16712  28.037  38.757   8.362
 1082POPC   C3B16713  28.099  38.810   7.887
 1082POPC   C4B16714  28.176  38.655   7.465
 1083POPC   NC316715   8.004  16.935   9.505
 1083POPC   PO416716   8.549  16.523   9.496
 1083POPC   GL116717   8.315  16.655   9.174
 1083POPC   GL216718   8.366  16.989   9.111
 1083POPC   C1A16719   8.047  16.714   8.829
 1083POPC   D2A16720   7.929  16.848   8.427
 1083POPC   C3A16721   8.066  16.641   8.056
 1083POPC   C4A16722   7.829  16.381   7.781
 1083POPC   C1B16723   8.365  17.131   8.696
 1083POPC   C2B16724   8.420  16.992   8.256
 1083POPC   C3B16725   8.372  16.970   7.804
 1083POPC   C4B16726   8.009  16.813   7.562
 1084POPC   NC316727  30.393   7.694   9.558
 1084POPC   PO416728  30.828   8.218   9.706
 1084POPC   GL116729  30.800   8.263   9.252
 1084POPC   GL216730  30.489   8.073   9.141
 1084POPC   C1A16731  30.826   8.328   8.800
 1084POPC   D2A16732  30.722   8.266   8.342
 1084POPC   C3A16733  30.933   7.900   8.135
 1084POPC   C4A16734  31.134   7.851   7.721
 1084POPC   C1B16735  30.222   7.950   8.756
 1084POPC   C2B16736  30.098   8.029   8.303
 1084POPC   C3B16737  30.440   8.051   7.958
 1084POPC   C4B16738  30.630   8.438   7.804
 1085POPC   NC316739  44.300  18.286   9.460
 1085POPC   PO416740  44.951  18.121   9.485
 1085POPC   GL116741  44.681  18.152   9.119
 1085POPC   GL216742  44.533  18.500   9.052
 1085POPC   C1A16743  44.424  18.045   8.756
 1085POPC   D2A16744  44.529  17.979   8.325
 1085POPC   C3A16745  44.837  18.131   8.089
 1085POPC   C4A16746  44.768  18.120   7.650
 1085POPC   C1B16747  44.763  18.422   8.684
 1085POPC   C2B16748  44.671  18.591   8.319
 1085POPC   C3B16749  44.577  18.526   7.918
 1085POPC   C4B16750   0.055  18.524   7.748
 1086POPC   NC316751  42.899   6.369   9.486
 1086POPC   PO416752  43.472   6.764   9.529
 1086POPC   GL116753  43.159   6.749   9.179
 1086POPC   GL216754  43.027   6.416   9.007
 1086POPC   C1A16755  43.002   6.854   8.753
 1086POPC   D2A16756  42.879   6.705   8.324
 1086POPC   C3A16757  42.897   7.040   8.024
 1086POPC   C4A16758  43.022   7.102   7.620
 1086POPC   C1B16759  43.343   6.182   8.775
 1086POPC   C2B16760  43.426   6.086   8.325
 1086POPC   C3B16761  43.321   6.435   8.028
 1086POPC   C4B16762  42.997   6.603   7.789
 1087POPC   NC316763  39.178  35.164   9.540
 1087POPC   PO416764  39.804  35.449   9.518
 1087POPC   GL116765  39.459  35.364   9.178
 1087POPC   GL216766  39.121  35.467   9.051
 1087POPC   C1A16767  39.257  35.059   8.823
 1087POPC   D2A16768  39.104  35.176   8.389
 1087POPC   C3A16769  39.418  35.227   8.042
 1087POPC   C4A16770  39.344  35.044   7.658
 1087POPC   C1B16771  39.055  35.757   8.713
 1087POPC   C2B16772  38.952  35.717   8.275
 1087POPC   C3B16773  38.973  35.455   7.905
 1087POPC   C4B16774  39.016  35.535   7.451
 1088POPC   NC316775  37.486  17.104   9.936
 1088POPC   PO416776  37.342  17.679   9.509
 1088POPC   GL116777  37.619  17.611   9.169
 1088POPC   GL216778  37.648  17.254   9.196
 1088POPC   C1A16779  37.725  17.838   8.793
 1088POPC   D2A16780  37.568  17.843   8.378
 1088POPC   C3A16781  37.823  17.695   8.050
 1088POPC   C4A16782  37.619  17.481   7.717
 1088POPC   C1B16783  37.810  17.335   8.783
 1088POPC   C2B16784  37.722  17.327   8.370
 1088POPC   C3B16785  37.723  17.091   8.010
 1088POPC   C4B16786  37.763  17.015   7.563
 1089POPC   NC316787   4.101   3.312   9.502
 1089POPC   PO416788   4.345   3.993   9.567
 1089POPC   GL116789   4.314   3.686   9.182
 1089POPC   GL216790   4.290   3.364   9.016
 1089POPC   C1A16791   4.482   3.751   8.731
 1089POPC   D2A16792   4.343   3.508   8.372
 1089POPC   C3A16793   4.018   3.675   8.122
 1089POPC   C4A16794   4.192   3.575   7.732
 1089POPC   C1B16795   4.258   3.045   8.699
 1089POPC   C2B16796   4.461   2.914   8.329
 1089POPC   C3B16797   4.412   3.100   7.914
 1089POPC   C4B16798   4.629   3.115   7.499
 1090POPC   NC316799  20.523  44.951   9.461
 1090POPC   PO416800  20.344  44.347   9.453
 1090POPC   GL116801  20.669  44.526   9.174
 1090POPC   GL216802  20.593  44.858   8.972
 1090POPC   C1A16803  20.541  44.405   8.785
 1090POPC   D2A16804  20.402  44.661   8.485
 1090POPC   C3A16805  20.668  44.716   8.168
 1090POPC   C4A16806  20.614  44.591   7.780
 1090POPC   C1B16807  20.894  44.772   8.652
 1090POPC   C2B16808  21.026   0.067   8.324
 1090POPC   C3B16809  20.894   0.091   7.898
 1090POPC   C4B16810  21.070  44.777   7.678
 1091POPC   NC316811  42.680  24.039   9.570
 1091POPC   PO416812  42.465  23.355   9.393
 1091POPC   GL116813  42.554  23.643   9.129
 1091POPC   GL216814  42.268  23.820   9.200
 1091POPC   C1A16815  42.525  23.465   8.724
 1091POPC   D2A16816  42.708  23.431   8.326
 1091POPC   C3A16817  42.372  23.370   8.034
 1091POPC   C4A16818  42.247  23.576   7.698
 1091POPC   C1B16819  42.082  23.726   8.822
 1091POPC   C2B16820  42.122  23.590   8.422
 1091POPC   C3B16821  42.015  23.797   8.077
 1091POPC   C4B16822  41.906  23.946   7.685
 1092POPC   NC316823  11.574  23.232   9.517
 1092POPC   PO416824  11.389  22.570   9.807
 1092POPC   GL116825  11.231  22.669   9.324
 1092POPC   GL216826  11.313  22.996   9.125
 1092POPC   C1A16827  11.113  22.614   8.863
 1092POPC   D2A16828  11.212  22.965   8.561
 1092POPC   C3A16829  11.187  22.862   8.102
 1092POPC   C4A16830  11.349  22.973   7.656
 1092POPC   C1B16831  11.614  23.263   8.874
 1092POPC   C2B16832  11.732  23.310   8.445
 1092POPC   C3B16833  11.570  23.225   8.057
 1092POPC   C4B16834  11.756  23.343   7.682
 1093POPC   NC316835  33.427  30.714   9.803
 1093POPC   PO416836  32.915  30.954   9.475
 1093POPC   GL116837  33.007  30.794   9.142
 1093POPC   GL216838  32.900  30.508   9.128
 1093POPC   C1A16839  33.147  30.883   8.763
 1093POPC   D2A16840  32.976  30.744   8.426
 1093POPC   C3A16841  33.065  30.941   8.048
 1093POPC   C4A16842  33.263  31.008   7.673
 1093POPC   C1B16843  33.026  30.322   8.738
 1093POPC   C2B16844  32.839  30.253   8.334
 1093POPC   C3B16845  32.724  30.576   8.026
 1093POPC   C4B16846  32.935  30.615   7.622
 1094POPC   NC316847   8.725  41.030   9.472
 1094POPC   PO416848   9.292  40.571   9.486
 1094POPC   GL116849   9.016  40.691   9.160
 1094POPC   GL216850   8.682  40.585   9.192
 1094POPC   C1A16851   9.058  40.870   8.757
 1094POPC   D2A16852   9.114  40.707   8.359
 1094POPC   C3A16853   9.117  40.973   7.999
 1094POPC   C4A16854   9.200  41.238   7.646
 1094POPC   C1B16855   8.531  40.411   8.816
 1094POPC   C2B16856   8.608  40.254   8.400
 1094POPC   C3B16857   8.820  40.410   8.035
 1094POPC   C4B16858   8.846  40.665   7.690
 1095POPC   NC316859  18.037  26.024   9.551
 1095POPC   PO416860  18.751  25.679   9.457
 1095POPC   GL116861  18.512  25.889   9.149
 1095POPC   GL216862  18.479  26.237   9.058
 1095POPC   C1A16863  18.343  25.848   8.744
 1095POPC   D2A16864  18.318  25.614   8.366
 1095POPC   C3A16865  18.434  25.895   8.039
 1095POPC   C4A16866  18.388  25.867   7.592
 1095POPC   C1B16867  18.187  26.339   8.698
 1095POPC   C2B16868  18.123  26.255   8.268
 1095POPC   C3B16869  18.093  26.224   7.829
 1095POPC   C4B16870  18.408  26.372   7.511
 1096POPC   NC316871  20.720  25.794   9.518
 1096POPC   PO416872  20.280  26.194   9.657
 1096POPC   GL116873  20.290  25.964   9.247
 1096POPC   GL216874  20.266  26.259   9.088
 1096POPC   C1A16875  20.262  25.806   8.796
 1096POPC   D2A16876  20.551  25.781   8.401
 1096POPC   C3A16877  20.535  25.938   7.963
 1096POPC   C4A16878  20.744  25.901   7.539
 1096POPC   C1B16879  20.460  26.274   8.683
 1096POPC   C2B16880  20.651  26.324   8.276
 1096POPC   C3B16881  20.791  26.371   7.866
 1096POPC   C4B16882  20.547  26.382   7.520
 1097POPC   NC316883  32.574  12.446   9.513
 1097POPC   PO416884  31.924  12.625   9.444
 1097POPC   GL116885  32.125  12.881   9.135
 1097POPC   GL216886  32.485  12.945   9.239
 1097POPC   C1A16887  32.069  12.885   8.674
 1097POPC   D2A16888  32.078  12.699   8.245
 1097POPC   C3A16889  32.249  13.022   8.068
 1097POPC   C4A16890  32.253  13.191   7.704
 1097POPC   C1B16891  32.527  12.699   8.879
 1097POPC   C2B16892  32.517  12.596   8.473
 1097POPC   C3B16893  32.610  12.655   8.060
 1097POPC   C4B16894  32.437  12.710   7.655
 1098POPC   NC316895  13.749  32.719   9.465
 1098POPC   PO416896  13.391  32.115   9.581
 1098POPC   GL116897  13.642  32.173   9.180
 1098POPC   GL216898  13.582  32.479   9.073
 1098POPC   C1A16899  13.717  32.165   8.721
 1098POPC   D2A16900  13.589  32.029   8.364
 1098POPC   C3A16901  13.778  32.106   8.030
 1098POPC   C4A16902  13.787  31.935   7.666
 1098POPC   C1B16903  13.593  32.676   8.705
 1098POPC   C2B16904  13.773  32.523   8.352
 1098POPC   C3B16905  13.714  32.596   7.937
 1098POPC   C4B16906  13.646  32.441   7.558
 1099POPC   NC316907  17.432  28.316   9.767
 1099POPC   PO416908  18.031  28.216   9.529
 1099POPC   GL116909  17.663  28.199   9.297
 1099POPC   GL216910  17.325  28.322   9.251
 1099POPC   C1A16911  17.568  28.113   8.873
 1099POPC   D2A16912  17.433  28.029   8.479
 1099POPC   C3A16913  17.742  28.214   8.196
 1099POPC   C4A16914  17.647  28.249   7.775
 1099POPC   C1B16915  17.265  28.551   8.823
 1099POPC   C2B16916  17.376  28.532   8.361
 1099POPC   C3B16917  17.198  28.214   8.033
 1099POPC   C4B16918  17.108  28.191   7.563
 1100POPC   NC316919   3.594  29.460   9.419
 1100POPC   PO416920   3.836  28.837   9.531
 1100POPC   GL116921   3.653  29.007   9.107
 1100POPC   GL216922   3.407  29.315   8.962
 1100POPC   C1A16923   3.802  29.147   8.729
 1100POPC   D2A16924   3.618  29.345   8.398
 1100POPC   C3A16925   3.776  29.156   8.030
 1100POPC   C4A16926   3.662  29.265   7.653
 1100POPC   C1B16927   3.246  29.053   8.614
 1100POPC   C2B16928   3.262  29.059   8.140
 1100POPC   C3B16929   3.294  28.902   7.729
 1100POPC   C4B16930   3.356  28.824   7.308
 1101POPC   NC316931  31.935   0.804   9.487
 1101POPC   PO416932  31.511   0.280   9.569
 1101POPC   GL116933  31.505   0.239   9.115
 1101POPC   GL216934  31.155   0.154   9.103
 1101POPC   C1A16935  31.562   0.155   8.681
 1101POPC   D2A16936  31.569   0.455   8.382
 1101POPC   C3A16937  31.402   0.437   7.992
 1101POPC   C4A16938  31.468   0.653   7.650
 1101POPC   C1B16939  31.135   0.441   8.753
 1101POPC   C2B16940  31.087   0.274   8.359
 1101POPC   C3B16941  30.982   0.130   7.950
 1101POPC   C4B16942  30.986   0.441   7.652
 1102POPC   NC316943  29.366  41.346   9.506
 1102POPC   PO416944  28.925  41.790   9.658
 1102POPC   GL116945  28.998  41.602   9.238
 1102POPC   GL216946  29.381  41.702   9.159
 1102POPC   C1A16947  28.907  41.358   8.840
 1102POPC   D2A16948  28.948  41.490   8.418
 1102POPC   C3A16949  28.828  41.330   8.034
 1102POPC   C4A16950  28.803  41.577   7.685
 1102POPC   C1B16951  29.232  41.729   8.773
 1102POPC   C2B16952  29.427  41.739   8.370
 1102POPC   C3B16953  29.179  41.765   7.997
 1102POPC   C4B16954  29.177  41.981   7.604
 1103POPC   NC316955   2.283  16.783   9.896
 1103POPC   PO416956   2.715  16.728   9.411
 1103POPC   GL116957   2.891  16.753   9.074
 1103POPC   GL216958   3.215  16.814   9.185
 1103POPC   C1A16959   2.792  16.667   8.681
 1103POPC   D2A16960   2.555  16.900   8.361
 1103POPC   C3A16961   2.614  16.608   8.044
 1103POPC   C4A16962   2.826  16.545   7.686
 1103POPC   C1B16963   3.251  16.902   8.757
 1103POPC   C2B16964   3.076  16.882   8.343
 1103POPC   C3B16965   2.983  16.956   7.954
 1103POPC   C4B16966   3.294  16.793   7.695
 1104POPC   NC316967  15.992  38.025   9.610
 1104POPC   PO416968  15.774  37.401   9.322
 1104POPC   GL116969  15.874  37.764   9.165
 1104POPC   GL216970  16.208  37.863   9.157
 1104POPC   C1A16971  15.937  37.725   8.743
 1104POPC   D2A16972  16.166  37.728   8.431
 1104POPC   C3A16973  15.934  37.770   8.072
 1104POPC   C4A16974  15.942  37.465   7.745
 1104POPC   C1B16975  16.314  38.081   8.783
 1104POPC   C2B16976  16.571  38.008   8.395
 1104POPC   C3B16977  16.450  37.776   8.013
 1104POPC   C4B16978  16.294  37.853   7.595
 1105POPC   NC316979  12.215  30.752   9.400
 1105POPC   PO416980  11.934  30.281   9.610
 1105POPC   GL116981  11.825  30.541   9.157
 1105POPC   GL216982  11.920  30.909   9.012
 1105POPC   C1A16983  11.652  30.618   8.716
 1105POPC   D2A16984  11.778  30.784   8.312
 1105POPC   C3A16985  11.876  30.589   7.910
 1105POPC   C4A16986  11.987  30.771   7.499
 1105POPC   C1B16987  12.175  30.728   8.649
 1105POPC   C2B16988  12.305  30.696   8.189
 1105POPC   C3B16989  12.489  30.682   7.759
 1105POPC   C4B16990  12.478  30.900   7.344
 1106POPC   NC316991  27.814  23.143   9.368
 1106POPC   PO416992  27.228  22.823   9.513
 1106POPC   GL116993  27.418  22.766   9.101
 1106POPC   GL216994  27.759  22.679   9.031
 1106POPC   C1A16995  27.524  23.043   8.746
 1106POPC   D2A16996  27.485  23.189   8.325
 1106POPC   C3A16997  27.331  22.894   7.998
 1106POPC   C4A16998  27.272  23.039   7.583
 1106POPC   C1B16999  27.963  22.788   8.639
 1106POPC   C2B17000  27.903  22.870   8.186
 1106POPC   C3B17001  27.748  23.124   7.839
 1106POPC   C4B17002  27.661  22.728   7.623
 1107POPC   NC317003  32.868  17.889   9.463
 1107POPC   PO417004  32.774  18.547   9.514
 1107POPC   GL117005  32.910  18.297   9.156
 1107POPC   GL217006  32.584  18.167   9.092
 1107POPC   C1A17007  32.965  17.987   8.796
 1107POPC   D2A17008  32.831  18.019   8.334
 1107POPC   C3A17009  33.137  17.987   7.985
 1107POPC   C4A17010  33.352  18.302   7.706
 1107POPC   C1B17011  32.693  18.411   8.702
 1107POPC   C2B17012  32.728  18.525   8.278
 1107POPC   C3B17013  32.710  18.306   7.889
 1107POPC   C4B17014  32.895  18.415   7.515
 1108POPC   NC317015  13.694   0.702   9.801
 1108POPC   PO417016  13.668   1.338   9.490
 1108POPC   GL117017  13.714   1.284   9.054
 1108POPC   GL217018  13.364   1.173   9.073
 1108POPC   C1A17019  13.732   1.015   8.676
 1108POPC   D2A17020  13.972   1.028   8.281
 1108POPC   C3A17021  13.773   0.952   7.887
 1108POPC   C4A17022  13.652   1.205   7.547
 1108POPC   C1B17023  13.370   1.401   8.701
 1108POPC   C2B17024  13.587   1.397   8.326
 1108POPC   C3B17025  13.383   1.282   7.980
 1108POPC   C4B17026  13.227   0.972   7.724
 1109POPC   NC317027   8.741  36.235   9.407
 1109POPC   PO417028   9.214  35.774   9.485
 1109POPC   GL117029   9.152  35.989   9.133
 1109POPC   GL217030   9.469  36.182   9.191
 1109POPC   C1A17031   8.951  36.206   8.784
 1109POPC   D2A17032   8.775  36.158   8.405
 1109POPC   C3A17033   8.764  36.415   8.058
 1109POPC   C4A17034   8.598  36.122   7.827
 1109POPC   C1B17035   9.450  36.164   8.747
 1109POPC   C2B17036   9.274  35.939   8.427
 1109POPC   C3B17037   9.110  36.024   8.047
 1109POPC   C4B17038   9.261  36.231   7.776
 1110POPC   NC317039  15.432  38.532   9.731
 1110POPC   PO417040  16.046  38.509   9.681
 1110POPC   GL117041  15.779  38.390   9.340
 1110POPC   GL217042  15.769  38.668   9.182
 1110POPC   C1A17043  15.778  38.201   8.930
 1110POPC   D2A17044  15.900  38.186   8.491
 1110POPC   C3A17045  15.673  38.223   8.102
 1110POPC   C4A17046  15.906  38.179   7.732
 1110POPC   C1B17047  15.743  38.683   8.736
 1110POPC   C2B17048  15.905  38.672   8.319
 1110POPC   C3B17049  15.775  38.709   7.912
 1110POPC   C4B17050  15.810  38.624   7.480
 1111POPC   NC317051  40.441  38.378   9.711
 1111POPC   PO417052  40.984  38.688   9.473
 1111POPC   GL117053  40.609  38.578   9.243
 1111POPC   GL217054  40.786  38.285   9.222
 1111POPC   C1A17055  40.427  38.667   8.813
 1111POPC   D2A17056  40.364  38.673   8.331
 1111POPC   C3A17057  40.705  38.482   8.080
 1111POPC   C4A17058  40.750  38.297   7.686
 1111POPC   C1B17059  40.806  38.245   8.783
 1111POPC   C2B17060  40.982  38.124   8.396
 1111POPC   C3B17061  41.213  38.348   8.097
 1111POPC   C4B17062  41.272  38.228   7.711
 1112POPC   NC317063  36.711  10.625   9.584
 1112POPC   PO417064  36.823   9.930   9.630
 1112POPC   GL117065  36.569  10.151   9.228
 1112POPC   GL217066  36.477  10.536   9.140
 1112POPC   C1A17067  36.695  10.265   8.763
 1112POPC   D2A17068  36.727  10.549   8.373
 1112POPC   C3A17069  36.677  10.416   7.915
 1112POPC   C4A17070  36.903  10.231   7.536
 1112POPC   C1B17071  36.738  10.790   8.859
 1112POPC   C2B17072  36.935  10.995   8.484
 1112POPC   C3B17073  36.949  10.883   8.038
 1112POPC   C4B17074  36.931  10.853   7.612
 1113POPC   NC317075  16.141   8.041   9.696
 1113POPC   PO417076  15.551   8.430   9.533
 1113POPC   GL117077  15.667   8.111   9.222
 1113POPC   GL217078  15.987   8.023   9.197
 1113POPC   C1A17079  15.651   8.049   8.757
 1113POPC   D2A17080  15.762   7.841   8.333
 1113POPC   C3A17081  15.940   8.095   7.971
 1113POPC   C4A17082  15.904   7.962   7.519
 1113POPC   C1B17083  16.121   8.282   8.844
 1113POPC   C2B17084  16.120   8.433   8.403
 1113POPC   C3B17085  16.314   8.484   7.986
 1113POPC   C4B17086  16.276   8.289   7.566
 1114POPC   NC317087  19.298  26.704   9.491
 1114POPC   PO417088  18.657  26.498   9.724
 1114POPC   GL117089  18.897  26.478   9.216
 1114POPC   GL217090  19.220  26.595   9.019
 1114POPC   C1A17091  18.786  26.545   8.782
 1114POPC   D2A17092  18.883  26.892   8.538
 1114POPC   C3A17093  18.897  26.829   8.115
 1114POPC   C4A17094  19.095  26.614   7.797
 1114POPC   C1B17095  19.266  27.040   8.864
 1114POPC   C2B17096  19.338  27.131   8.450
 1114POPC   C3B17097  19.401  26.784   8.191
 1114POPC   C4B17098  19.443  26.998   7.871
 1115POPC   NC317099  22.343  39.577   9.587
 1115POPC   PO417100  22.262  38.913   9.577
 1115POPC   GL117101  22.324  39.006   9.176
 1115POPC   GL217102  22.345  39.355   9.112
 1115POPC   C1A17103  22.070  39.049   8.792
 1115POPC   D2A17104  22.019  39.311   8.454
 1115POPC   C3A17105  22.342  39.262   8.145
 1115POPC   C4A17106  22.187  39.184   7.754
 1115POPC   C1B17107  22.443  39.542   8.700
 1115POPC   C2B17108  22.286  39.746   8.329
 1115POPC   C3B17109  21.971  39.581   8.012
 1115POPC   C4B17110  22.206  39.716   7.682
 1116POPC   NC317111   1.592  11.078   9.510
 1116POPC   PO417112   0.914  11.312   9.515
 1116POPC   GL117113   1.126  11.225   9.150
 1116POPC   GL217114   1.214  10.899   9.166
 1116POPC   C1A17115   1.246  11.369   8.759
 1116POPC   D2A17116   1.121  11.174   8.389
 1116POPC   C3A17117   1.203  11.442   8.071
 1116POPC   C4A17118   1.023  11.417   7.694
 1116POPC   C1B17119   1.511  10.936   8.808
 1116POPC   C2B17120   1.615  11.067   8.356
 1116POPC   C3B17121   1.443  11.035   7.928
 1116POPC   C4B17122   1.388  11.060   7.485
 1117POPC   NC317123  16.949  40.565   9.651
 1117POPC   PO417124  16.424  40.193   9.454
 1117POPC   GL117125  16.626  40.093   9.077
 1117POPC   GL217126  16.960  39.980   8.978
 1117POPC   C1A17127  16.644  40.257   8.671
 1117POPC   D2A17128  16.817  40.117   8.290
 1117POPC   C3A17129  16.545  40.242   7.970
 1117POPC   C4A17130  16.721  40.281   7.566
 1117POPC   C1B17131  16.728  39.744   8.660
 1117POPC   C2B17132  16.741  39.600   8.227
 1117POPC   C3B17133  16.831  39.829   7.838
 1117POPC   C4B17134  16.856  39.793   7.380
 1118POPC   NC317135   0.872   1.067   9.536
 1118POPC   PO417136   0.339   1.521   9.588
 1118POPC   GL117137   0.376   1.258   9.237
 1118POPC   GL217138   0.106   1.035   9.277
 1118POPC   C1A17139   0.507   1.345   8.811
 1118POPC   D2A17140   0.341   1.243   8.429
 1118POPC   C3A17141   0.522   1.345   8.032
 1118POPC   C4A17142   0.486   1.609   7.669
 1118POPC   C1B17143   0.199   0.902   8.842
 1118POPC   C2B17144  44.943   0.930   8.448
 1118POPC   C3B17145   0.108   1.029   8.031
 1118POPC   C4B17146   0.209   1.183   7.623
 1119POPC   NC317147  44.080  39.196   9.593
 1119POPC   PO417148  43.797  39.815   9.617
 1119POPC   GL117149  43.874  39.525   9.243
 1119POPC   GL217150  43.733  39.150   9.221
 1119POPC   C1A17151  44.020  39.334   8.839
 1119POPC   D2A17152  43.722  39.338   8.486
 1119POPC   C3A17153  43.806  39.417   8.040
 1119POPC   C4A17154  44.125  39.321   7.759
 1119POPC   C1B17155  43.575  38.987   8.818
 1119POPC   C2B17156  43.654  38.852   8.369
 1119POPC   C3B17157  43.505  39.006   7.984
 1119POPC   C4B17158  43.524  38.818   7.612
 1120POPC   NC317159   7.180  10.994   9.338
 1120POPC   PO417160   7.734  10.746   9.559
 1120POPC   GL117161   7.652  10.607   9.146
 1120POPC   GL217162   7.341  10.520   9.139
 1120POPC   C1A17163   7.613  10.775   8.725
 1120POPC   D2A17164   7.726  10.959   8.325
 1120POPC   C3A17165   7.607  10.691   7.990
 1120POPC   C4A17166   7.673  10.256   7.746
 1120POPC   C1B17167   7.399  10.262   8.738
 1120POPC   C2B17168   7.387  10.182   8.255
 1120POPC   C3B17169   7.209  10.397   7.877
 1120POPC   C4B17170   7.266  10.822   7.656
 1121POPC   NC317171   7.085   8.329   9.452
 1121POPC   PO417172   6.513   8.028   9.490
 1121POPC   GL117173   6.537   8.216   9.119
 1121POPC   GL217174   6.842   8.054   8.991
 1121POPC   C1A17175   6.421   8.389   8.721
 1121POPC   D2A17176   6.268   8.561   8.312
 1121POPC   C3A17177   6.319   8.287   7.964
 1121POPC   C4A17178   6.539   8.150   7.609
 1121POPC   C1B17179   6.855   7.731   8.635
 1121POPC   C2B17180   6.910   7.739   8.184
 1121POPC   C3B17181   6.821   7.692   7.737
 1121POPC   C4B17182   6.852   7.882   7.306
 1122POPC   NC317183   4.809  31.276   9.570
 1122POPC   PO417184   5.403  31.620   9.543
 1122POPC   GL117185   5.278  31.413   9.160
 1122POPC   GL217186   5.061  31.114   9.142
 1122POPC   C1A17187   5.029  31.545   8.814
 1122POPC   D2A17188   4.852  31.485   8.435
 1122POPC   C3A17189   5.120  31.620   8.105
 1122POPC   C4A17190   4.834  31.865   7.926
 1122POPC   C1B17191   5.250  31.090   8.734
 1122POPC   C2B17192   5.216  31.142   8.293
 1122POPC   C3B17193   5.165  31.141   7.860
 1122POPC   C4B17194   4.874  31.340   7.609
 1123POPC   NC317195  33.182  25.676   9.484
 1123POPC   PO417196  32.626  26.072   9.561
 1123POPC   GL117197  32.857  26.050   9.203
 1123POPC   GL217198  33.170  26.193   9.271
 1123POPC   C1A17199  32.943  25.952   8.793
 1123POPC   D2A17200  32.681  25.938   8.405
 1123POPC   C3A17201  32.924  25.922   8.014
 1123POPC   C4A17202  32.908  25.845   7.563
 1123POPC   C1B17203  33.203  26.390   8.843
 1123POPC   C2B17204  32.997  26.360   8.460
 1123POPC   C3B17205  33.110  26.412   8.063
 1123POPC   C4B17206  33.160  26.273   7.674
 1124POPC   NC317207  29.553  15.029   9.492
 1124POPC   PO417208  29.136  15.513   9.419
 1124POPC   GL117209  29.149  15.209   9.076
 1124POPC   GL217210  29.170  14.839   9.131
 1124POPC   C1A17211  28.926  15.077   8.689
 1124POPC   D2A17212  28.986  15.121   8.246
 1124POPC   C3A17213  29.295  15.381   8.062
 1124POPC   C4A17214  29.124  15.281   7.673
 1124POPC   C1B17215  29.514  14.867   8.822
 1124POPC   C2B17216  29.527  15.043   8.415
 1124POPC   C3B17217  29.390  14.872   8.038
 1124POPC   C4B17218  29.490  14.928   7.652
 1125POPC   NC317219  28.091   4.578   9.374
 1125POPC   PO417220  27.593   4.243   9.667
 1125POPC   GL117221  27.680   4.211   9.241
 1125POPC   GL217222  27.562   4.535   9.224
 1125POPC   C1A17223  27.818   4.295   8.791
 1125POPC   D2A17224  27.865   4.420   8.343
 1125POPC   C3A17225  27.824   4.111   7.996
 1125POPC   C4A17226  27.439   4.044   7.713
 1125POPC   C1B17227  27.304   4.376   8.887
 1125POPC   C2B17228  27.369   4.508   8.466
 1125POPC   C3B17229  27.400   4.410   8.053
 1125POPC   C4B17230  27.727   4.554   7.784
 1126POPC   NC317231  36.432  14.696   9.462
 1126POPC   PO417232  37.107  14.440   9.599
 1126POPC   GL117233  36.909  14.471   9.198
 1126POPC   GL217234  36.767  14.778   9.099
 1126POPC   C1A17235  36.666  14.376   8.813
 1126POPC   D2A17236  36.926  14.239   8.506
 1126POPC   C3A17237  36.711  14.327   8.169
 1126POPC   C4A17238  36.841  14.195   7.809
 1126POPC   C1B17239  37.088  14.669   8.772
 1126POPC   C2B17240  37.015  14.737   8.344
 1126POPC   C3B17241  36.981  14.715   7.921
 1126POPC   C4B17242  37.241  14.471   7.702
 1127POPC   NC317243   6.429   9.427   9.489
 1127POPC   PO417244   7.008   9.061   9.446
 1127POPC   GL117245   6.853   9.348   9.089
 1127POPC   GL217246   6.484   9.413   9.000
 1127POPC   C1A17247   6.836   9.507   8.632
 1127POPC   D2A17248   6.766   9.491   8.164
 1127POPC   C3A17249   6.531   9.824   7.975
 1127POPC   C4A17250   6.401   9.971   7.604
 1127POPC   C1B17251   6.339   9.689   8.673
 1127POPC   C2B17252   6.238   9.521   8.273
 1127POPC   C3B17253   6.324   9.364   7.869
 1127POPC   C4B17254   6.356   9.469   7.407
 1128POPC   NC317255  25.082   5.681   9.482
 1128POPC   PO417256  25.606   6.189   9.615
 1128POPC   GL117257  25.446   6.239   9.169
 1128POPC   GL217258  25.369   5.901   9.096
 1128POPC   C1A17259  25.203   6.254   8.773
 1128POPC   D2A17260  24.955   6.128   8.411
 1128POPC   C3A17261  25.131   6.156   8.006
 1128POPC   C4A17262  25.152   6.116   7.559
 1128POPC   C1B17263  25.367   5.602   8.753
 1128POPC   C2B17264  25.234   5.523   8.349
 1128POPC   C3B17265  25.311   5.658   7.932
 1128POPC   C4B17266  25.055   5.616   7.552
 1129POPC   NC317267  19.195  41.905   9.645
 1129POPC   PO417268  18.814  41.306   9.612
 1129POPC   GL117269  19.002  41.393   9.192
 1129POPC   GL217270  19.135  41.713   9.171
 1129POPC   C1A17271  19.236  41.402   8.763
 1129POPC   D2A17272  18.955  41.277   8.449
 1129POPC   C3A17273  19.080  41.334   8.062
 1129POPC   C4A17274  19.417  41.594   7.914
 1129POPC   C1B17275  18.922  41.795   8.784
 1129POPC   C2B17276  19.162  41.842   8.403
 1129POPC   C3B17277  18.957  41.838   8.030
 1129POPC   C4B17278  18.868  41.578   7.687
 1130POPC   NC317279  18.531   3.224   9.489
 1130POPC   PO417280  17.939   3.571   9.528
 1130POPC   GL117281  18.202   3.486   9.213
 1130POPC   GL217282  18.102   3.137   9.182
 1130POPC   C1A17283  18.389   3.612   8.835
 1130POPC   D2A17284  18.203   3.638   8.448
 1130POPC   C3A17285  18.477   3.656   8.105
 1130POPC   C4A17286  18.381   3.505   7.717
 1130POPC   C1B17287  17.962   3.289   8.808
 1130POPC   C2B17288  17.795   3.266   8.416
 1130POPC   C3B17289  18.070   3.299   8.087
 1130POPC   C4B17290  17.982   3.731   7.950
 1131POPC   NC317291  32.814  43.942   9.359
 1131POPC   PO417292  33.495  43.845   9.443
 1131POPC   GL117293  33.197  43.721   9.127
 1131POPC   GL217294  33.411  43.652   8.916
 1131POPC   C1A17295  32.905  43.660   8.758
 1131POPC   D2A17296  32.870  43.845   8.367
 1131POPC   C3A17297  32.983  43.630   7.999
 1131POPC   C4A17298  32.967  43.775   7.572
 1131POPC   C1B17299  33.217  44.055   8.750
 1131POPC   C2B17300  33.119  44.288   8.374
 1131POPC   C3B17301  33.002  44.152   7.935
 1131POPC   C4B17302  33.219  44.187   7.509
 1132POPC   NC317303  32.779  23.998   9.541
 1132POPC   PO417304  33.450  23.933   9.524
 1132POPC   GL117305  33.243  23.801   9.149
 1132POPC   GL217306  32.890  23.927   9.039
 1132POPC   C1A17307  33.185  23.586   8.754
 1132POPC   D2A17308  32.792  23.515   8.518
 1132POPC   C3A17309  32.669  23.752   8.182
 1132POPC   C4A17310  32.873  23.831   7.756
 1132POPC   C1B17311  32.904  24.019   8.597
 1132POPC   C2B17312  33.159  23.806   8.297
 1132POPC   C3B17313  33.345  23.914   7.967
 1132POPC   C4B17314  33.343  23.868   7.513
 1133POPC   NC317315   1.583  41.860   9.583
 1133POPC   PO417316   1.214  41.263   9.457
 1133POPC   GL117317   1.465  41.402   9.121
 1133POPC   GL217318   1.472  41.773   9.090
 1133POPC   C1A17319   1.311  41.486   8.701
 1133POPC   D2A17320   1.080  41.701   8.398
 1133POPC   C3A17321   1.342  41.603   8.089
 1133POPC   C4A17322   1.374  41.595   7.664
 1133POPC   C1B17323   1.325  42.004   8.734
 1133POPC   C2B17324   1.461  42.126   8.328
 1133POPC   C3B17325   1.663  41.961   7.959
 1133POPC   C4B17326   1.658  41.998   7.529
 1134POPC   NC317327  33.477  43.385   9.372
 1134POPC   PO417328  32.777  43.481   9.353
 1134POPC   GL117329  33.081  43.203   9.123
 1134POPC   GL217330  33.094  42.848   9.262
 1134POPC   C1A17331  33.210  43.246   8.710
 1134POPC   D2A17332  32.879  43.295   8.403
 1134POPC   C3A17333  32.800  43.149   8.010
 1134POPC   C4A17334  32.862  43.295   7.589
 1134POPC   C1B17335  33.218  42.759   8.857
 1134POPC   C2B17336  33.207  42.838   8.422
 1134POPC   C3B17337  33.319  42.741   8.033
 1134POPC   C4B17338  33.008  42.798   7.715
 1135POPC   NC317339  40.373  33.511   9.396
 1135POPC   PO417340  40.167  34.116   9.390
 1135POPC   GL117341  39.902  33.936   9.066
 1135POPC   GL217342  40.188  33.733   8.954
 1135POPC   C1A17343  39.798  33.799   8.638
 1135POPC   D2A17344  40.138  33.696   8.341
 1135POPC   C3A17345  40.087  33.899   7.943
 1135POPC   C4A17346  39.656  33.866   7.743
 1135POPC   C1B17347  39.931  33.358   8.847
 1135POPC   C2B17348  39.661  33.302   8.485
 1135POPC   C3B17349  39.689  33.487   8.082
 1135POPC   C4B17350  39.971  33.459   7.754
 1136POPC   NC317351  29.508  19.301   9.569
 1136POPC   PO417352  28.994  18.901   9.477
 1136POPC   GL117353  29.225  19.109   9.190
 1136POPC   GL217354  29.476  18.898   9.140
 1136POPC   C1A17355  29.268  19.231   8.781
 1136POPC   D2A17356  29.062  19.308   8.401
 1136POPC   C3A17357  29.214  19.211   7.990
 1136POPC   C4A17358  28.884  19.389   7.707
 1136POPC   C1B17359  29.380  18.726   8.773
 1136POPC   C2B17360  29.377  18.878   8.373
 1136POPC   C3B17361  29.389  18.724   7.963
 1136POPC   C4B17362  29.092  18.835   7.653
 1137POPC   NC317363  32.612  18.973   9.493
 1137POPC   PO417364  32.000  18.689   9.534
 1137POPC   GL117365  32.213  18.859   9.191
 1137POPC   GL217366  32.093  19.192   9.051
 1137POPC   C1A17367  32.403  18.906   8.782
 1137POPC   D2A17368  32.096  19.075   8.511
 1137POPC   C3A17369  32.143  19.238   8.126
 1137POPC   C4A17370  32.148  19.023   7.719
 1137POPC   C1B17371  31.715  19.249   8.789
 1137POPC   C2B17372  31.664  19.292   8.325
 1137POPC   C3B17373  31.745  19.314   7.827
 1137POPC   C4B17374  31.862  19.440   7.386
 1138POPC   NC317375  10.215  18.387   9.352
 1138POPC   PO417376  10.734  18.065   9.634
 1138POPC   GL117377  10.614  18.072   9.179
 1138POPC   GL217378  10.608  17.755   9.039
 1138POPC   C1A17379  10.464  18.181   8.722
 1138POPC   D2A17380  10.328  18.111   8.281
 1138POPC   C3A17381  10.384  18.422   8.029
 1138POPC   C4A17382  10.182  18.618   7.798
 1138POPC   C1B17383  10.898  17.923   8.760
 1138POPC   C2B17384  10.953  18.082   8.320
 1138POPC   C3B17385  10.776  18.127   7.898
 1138POPC   C4B17386  10.581  18.325   7.568
 1139POPC   NC317387  11.349   2.449   9.627
 1139POPC   PO417388  10.675   2.562   9.554
 1139POPC   GL117389  10.998   2.667   9.191
 1139POPC   GL217390  11.365   2.660   9.148
 1139POPC   C1A17391  11.064   2.956   8.820
 1139POPC   D2A17392  10.836   3.024   8.412
 1139POPC   C3A17393  11.020   2.804   8.078
 1139POPC   C4A17394  11.214   2.936   7.695
 1139POPC   C1B17395  11.587   2.864   8.819
 1139POPC   C2B17396  11.395   2.880   8.433
 1139POPC   C3B17397  11.541   2.814   8.046
 1139POPC   C4B17398  11.673   2.748   7.636
 1140POPC   NC317399  15.789   2.384   9.525
 1140POPC   PO417400  15.919   1.655   9.525
 1140POPC   GL117401  15.773   1.837   9.183
 1140POPC   GL217402  15.917   2.157   9.095
 1140POPC   C1A17403  15.971   1.722   8.810
 1140POPC   D2A17404  16.194   1.901   8.479
 1140POPC   C3A17405  16.091   1.813   8.086
 1140POPC   C4A17406  15.970   1.858   7.661
 1140POPC   C1B17407  16.214   2.315   8.790
 1140POPC   C2B17408  16.208   2.474   8.354
 1140POPC   C3B17409  15.996   2.308   7.961
 1140POPC   C4B17410  15.769   2.361   7.547
 1141POPC   NC317411  41.674  36.706   9.338
 1141POPC   PO417412  41.070  37.064   9.581
 1141POPC   GL117413  41.308  37.049   9.206
 1141POPC   GL217414  41.202  36.709   9.135
 1141POPC   C1A17415  41.473  37.063   8.778
 1141POPC   D2A17416  41.513  36.775   8.420
 1141POPC   C3A17417  41.689  36.938   8.027
 1141POPC   C4A17418  41.513  37.215   7.703
 1141POPC   C1B17419  41.083  36.499   8.779
 1141POPC   C2B17420  41.285  36.303   8.400
 1141POPC   C3B17421  41.359  36.496   8.006
 1141POPC   C4B17422  41.406  36.737   7.640
 1142POPC   NC317423   9.626  16.740   9.569
 1142POPC   PO417424  10.127  16.467   9.446
 1142POPC   GL117425   9.930  16.670   9.111
 1142POPC   GL217426   9.573  16.713   9.077
 1142POPC   C1A17427   9.878  16.656   8.672
 1142POPC   D2A17428   9.679  16.436   8.346
 1142POPC   C3A17429   9.772  16.574   7.944
 1142POPC   C4A17430   9.994  16.962   7.854
 1142POPC   C1B17431   9.350  16.688   8.707
 1142POPC   C2B17432   9.366  16.825   8.300
 1142POPC   C3B17433   9.327  16.805   7.885
 1142POPC   C4B17434   9.200  17.145   7.661
 1143POPC   NC317435  23.930  37.147   9.669
 1143POPC   PO417436  23.577  36.709   9.366
 1143POPC   GL117437  23.619  37.033   9.123
 1143POPC   GL217438  23.981  37.056   9.173
 1143POPC   C1A17439  23.424  36.914   8.736
 1143POPC   D2A17440  23.640  36.797   8.382
 1143POPC   C3A17441  23.419  36.751   8.028
 1143POPC   C4A17442  23.301  37.057   7.745
 1143POPC   C1B17443  24.000  36.927   8.738
 1143POPC   C2B17444  24.084  37.038   8.299
 1143POPC   C3B17445  23.911  36.803   7.923
 1143POPC   C4B17446  23.967  36.860   7.446
 1144POPC   NC317447  43.476  40.812   9.399
 1144POPC   PO417448  42.786  40.865   9.427
 1144POPC   GL117449  43.051  40.958   9.090
 1144POPC   GL217450  43.144  40.600   9.078
 1144POPC   C1A17451  43.243  40.904   8.671
 1144POPC   D2A17452  43.363  40.663   8.288
 1144POPC   C3A17453  43.434  40.932   7.918
 1144POPC   C4A17454  43.188  41.271   7.749
 1144POPC   C1B17455  42.801  40.578   8.808
 1144POPC   C2B17456  42.694  40.404   8.438
 1144POPC   C3B17457  42.824  40.386   8.080
 1144POPC   C4B17458  43.117  40.542   7.840
 1145POPC   NC317459  13.861  35.251   9.512
 1145POPC   PO417460  13.693  35.907   9.543
 1145POPC   GL117461  13.542  35.632   9.188
 1145POPC   GL217462  13.498  35.270   9.135
 1145POPC   C1A17463  13.665  35.548   8.751
 1145POPC   D2A17464  13.436  35.497   8.397
 1145POPC   C3A17465  13.627  35.422   8.009
 1145POPC   C4A17466  13.628  35.624   7.636
 1145POPC   C1B17467  13.546  35.034   8.739
 1145POPC   C2B17468  13.439  34.992   8.302
 1145POPC   C3B17469  13.724  34.892   7.972
 1145POPC   C4B17470  13.613  35.077   7.616
 1146POPC   NC317471   8.565  12.230   9.507
 1146POPC   PO417472   7.925  11.799   9.573
 1146POPC   GL117473   8.236  11.964   9.247
 1146POPC   GL217474   8.193  12.276   9.074
 1146POPC   C1A17475   8.515  11.965   8.874
 1146POPC   D2A17476   8.413  12.167   8.515
 1146POPC   C3A17477   8.432  12.179   8.056
 1146POPC   C4A17478   8.625  11.929   7.764
 1146POPC   C1B17479   7.940  12.263   8.715
 1146POPC   C2B17480   8.022  12.383   8.285
 1146POPC   C3B17481   7.864  12.071   8.009
 1146POPC   C4B17482   7.581  12.071   7.664
 1147POPC   NC317483  26.290  29.731   9.389
 1147POPC   PO417484  25.629  29.753   9.483
 1147POPC   GL117485  25.900  29.982   9.165
 1147POPC   GL217486  26.216  30.123   9.052
 1147POPC   C1A17487  25.799  29.930   8.734
 1147POPC   D2A17488  25.835  29.570   8.492
 1147POPC   C3A17489  25.822  29.611   8.035
 1147POPC   C4A17490  25.948  29.840   7.620
 1147POPC   C1B17491  26.290  29.828   8.726
 1147POPC   C2B17492  26.204  29.840   8.280
 1147POPC   C3B17493  26.362  29.961   7.875
 1147POPC   C4B17494  26.372  30.038   7.406
 1148POPC   NC317495  43.575  33.304   9.760
 1148POPC   PO417496  44.011  32.837   9.685
 1148POPC   GL117497  44.007  32.756   9.256
 1148POPC   GL217498  43.878  33.080   9.211
 1148POPC   C1A17499  44.126  32.864   8.821
 1148POPC   D2A17500  43.866  32.938   8.470
 1148POPC   C3A17501  44.099  32.901   8.108
 1148POPC   C4A17502  43.900  32.906   7.722
 1148POPC   C1B17503  43.783  33.289   8.845
 1148POPC   C2B17504  43.676  33.420   8.445
 1148POPC   C3B17505  43.748  33.271   8.078
 1148POPC   C4B17506  43.701  33.386   7.707
 1149POPC   NC317507  38.267  37.211   9.516
 1149POPC   PO417508  38.526  36.521   9.477
 1149POPC   GL117509  38.476  36.847   9.162
 1149POPC   GL217510  38.696  36.724   8.921
 1149POPC   C1A17511  38.297  37.069   8.797
 1149POPC   D2A17512  38.080  37.192   8.410
 1149POPC   C3A17513  38.150  36.959   8.053
 1149POPC   C4A17514  38.234  36.895   7.645
 1149POPC   C1B17515  38.822  37.063   8.688
 1149POPC   C2B17516  38.594  37.055   8.304
 1149POPC   C3B17517  38.619  36.788   7.950
 1149POPC   C4B17518  38.709  36.877   7.496
 1150POPC   NC317519   5.813   9.146   9.552
 1150POPC   PO417520   5.667   8.490   9.700
 1150POPC   GL117521   5.905   8.736   9.267
 1150POPC   GL217522   6.088   9.048   9.129
 1150POPC   C1A17523   5.688   8.954   8.830
 1150POPC   D2A17524   5.472   8.827   8.403
 1150POPC   C3A17525   5.666   8.873   7.967
 1150POPC   C4A17526   5.753   8.788   7.507
 1150POPC   C1B17527   6.128   9.189   8.696
 1150POPC   C2B17528   6.047   9.037   8.264
 1150POPC   C3B17529   6.183   8.861   7.852
 1150POPC   C4B17530   6.276   8.966   7.388
 1151POPC   NC317531  28.302  21.815   9.616
 1151POPC   PO417532  28.762  22.218   9.680
 1151POPC   GL117533  28.582  22.108   9.251
 1151POPC   GL217534  28.221  22.032   9.162
 1151POPC   C1A17535  28.543  22.220   8.796
 1151POPC   D2A17536  28.371  22.437   8.413
 1151POPC   C3A17537  28.404  22.280   7.981
 1151POPC   C4A17538  28.037  22.415   7.754
 1151POPC   C1B17539  28.064  21.863   8.752
 1151POPC   C2B17540  28.290  21.890   8.354
 1151POPC   C3B17541  28.438  21.755   7.940
 1151POPC   C4B17542  28.177  21.586   7.635
 1152POPC   NC317543  21.594   4.043   9.755
 1152POPC   PO417544  22.304   4.255   9.610
 1152POPC   GL117545  22.380   4.233   9.168
 1152POPC   GL217546  22.060   4.332   9.060
 1152POPC   C1A17547  22.348   4.043   8.753
 1152POPC   D2A17548  22.256   4.270   8.386
 1152POPC   C3A17549  21.922   4.186   8.115
 1152POPC   C4A17550  22.128   4.157   7.754
 1152POPC   C1B17551  22.336   4.591   8.789
 1152POPC   C2B17552  22.535   4.706   8.382
 1152POPC   C3B17553  22.588   4.416   8.001
 1152POPC   C4B17554  22.439   4.516   7.572
 1153POPC   NC317555  19.951  14.304   9.742
 1153POPC   PO417556  19.263  14.276   9.531
 1153POPC   GL117557  19.623  14.376   9.212
 1153POPC   GL217558  19.960  14.374   9.232
 1153POPC   C1A17559  19.737  14.530   8.778
 1153POPC   D2A17560  20.029  14.691   8.448
 1153POPC   C3A17561  19.924  14.606   8.000
 1153POPC   C4A17562  19.657  14.629   7.663
 1153POPC   C1B17563  19.833  14.046   8.881
 1153POPC   C2B17564  19.768  14.059   8.437
 1153POPC   C3B17565  19.660  14.170   8.022
 1153POPC   C4B17566  19.869  14.179   7.648
 1154POPC   NC317567  25.561  16.122   9.418
 1154POPC   PO417568  26.065  15.839   9.684
 1154POPC   GL117569  26.008  16.003   9.230
 1154POPC   GL217570  25.739  15.810   9.046
 1154POPC   C1A17571  26.131  15.929   8.783
 1154POPC   D2A17572  26.081  15.582   8.491
 1154POPC   C3A17573  26.112  15.777   8.121
 1154POPC   C4A17574  25.968  15.728   7.745
 1154POPC   C1B17575  25.619  16.123   8.750
 1154POPC   C2B17576  25.805  16.126   8.375
 1154POPC   C3B17577  25.644  16.016   8.017
 1154POPC   C4B17578  25.634  16.079   7.622
 1155POPC   NC317579   3.853  18.999   9.513
 1155POPC   PO417580   3.210  19.288   9.538
 1155POPC   GL117581   3.400  19.123   9.175
 1155POPC   GL217582   3.643  19.378   9.179
 1155POPC   C1A17583   3.510  19.136   8.729
 1155POPC   D2A17584   3.502  19.029   8.289
 1155POPC   C3A17585   3.337  19.296   8.007
 1155POPC   C4A17586   3.101  19.051   7.785
 1155POPC   C1B17587   3.973  19.305   8.866
 1155POPC   C2B17588   3.994  19.135   8.441
 1155POPC   C3B17589   3.886  19.254   7.997
 1155POPC   C4B17590   3.619  18.945   7.778
 1156POPC   NC317591  38.951  26.335   9.563
 1156POPC   PO417592  39.436  25.884   9.555
 1156POPC   GL117593  39.356  26.178   9.269
 1156POPC   GL217594  39.049  26.012   9.175
 1156POPC   C1A17595  39.337  26.246   8.823
 1156POPC   D2A17596  39.459  26.341   8.398
 1156POPC   C3A17597  39.265  26.398   7.993
 1156POPC   C4A17598  38.919  26.241   7.791
 1156POPC   C1B17599  38.861  25.898   8.790
 1156POPC   C2B17600  39.018  26.042   8.371
 1156POPC   C3B17601  39.306  25.891   8.042
 1156POPC   C4B17602  39.145  25.806   7.633
 1157POPC   NC317603  35.957  30.403   9.508
 1157POPC   PO417604  36.313  31.082   9.582
 1157POPC   GL117605  36.067  30.976   9.208
 1157POPC   GL217606  36.184  30.693   9.180
 1157POPC   C1A17607  35.817  30.750   8.853
 1157POPC   D2A17608  35.805  30.646   8.417
 1157POPC   C3A17609  35.776  30.885   8.018
 1157POPC   C4A17610  36.116  31.024   7.766
 1157POPC   C1B17611  36.334  30.856   8.798
 1157POPC   C2B17612  36.472  30.733   8.434
 1157POPC   C3B17613  36.259  30.675   8.098
 1157POPC   C4B17614  36.435  30.597   7.710
 1158POPC   NC317615  28.600  29.402   9.834
 1158POPC   PO417616  28.130  29.020   9.581
 1158POPC   GL117617  28.193  28.873   9.132
 1158POPC   GL217618  28.568  28.802   9.113
 1158POPC   C1A17619  28.257  28.728   8.714
 1158POPC   D2A17620  28.312  28.994   8.365
 1158POPC   C3A17621  28.207  28.878   7.980
 1158POPC   C4A17622  28.249  29.013   7.591
 1158POPC   C1B17623  28.687  29.027   8.721
 1158POPC   C2B17624  28.681  29.346   8.377
 1158POPC   C3B17625  28.542  29.278   7.947
 1158POPC   C4B17626  28.774  29.060   7.612
 1159POPC   NC317627   7.863  23.749   9.219
 1159POPC   PO417628   7.297  23.399   9.504
 1159POPC   GL117629   7.348  23.623   9.127
 1159POPC   GL217630   7.354  23.994   9.187
 1159POPC   C1A17631   7.509  23.495   8.716
 1159POPC   D2A17632   7.391  23.429   8.306
 1159POPC   C3A17633   7.634  23.461   7.939
 1159POPC   C4A17634   7.447  23.540   7.553
 1159POPC   C1B17635   7.256  23.968   8.726
 1159POPC   C2B17636   7.271  24.160   8.293
 1159POPC   C3B17637   7.398  23.927   7.904
 1159POPC   C4B17638   7.382  24.030   7.447
 1160POPC   NC317639  10.116  29.889   9.553
 1160POPC   PO417640   9.398  29.925   9.539
 1160POPC   GL117641   9.716  30.078   9.255
 1160POPC   GL217642   9.868  29.766   9.120
 1160POPC   C1A17643   9.745  30.142   8.819
 1160POPC   D2A17644   9.790  29.881   8.470
 1160POPC   C3A17645   9.712  30.168   8.134
 1160POPC   C4A17646   9.991  30.045   7.803
 1160POPC   C1B17647   9.509  29.618   8.872
 1160POPC   C2B17648   9.418  29.522   8.423
 1160POPC   C3B17649   9.556  29.708   8.018
 1160POPC   C4B17650   9.380  29.604   7.630
 1161POPC   NC317651  25.178  30.469   9.441
 1161POPC   PO417652  24.921  31.060   9.462
 1161POPC   GL117653  25.127  30.892   9.109
 1161POPC   GL217654  25.439  30.754   9.112
 1161POPC   C1A17655  25.096  30.672   8.719
 1161POPC   D2A17656  25.326  30.643   8.344
 1161POPC   C3A17657  25.147  30.643   7.967
 1161POPC   C4A17658  25.356  30.569   7.557
 1161POPC   C1B17659  25.603  30.859   8.719
 1161POPC   C2B17660  25.819  30.676   8.353
 1161POPC   C3B17661  25.684  30.756   7.936
 1161POPC   C4B17662  25.386  31.054   7.732
 1162POPC   NC317663  37.492  32.048   9.528
 1162POPC   PO417664  37.559  32.708   9.498
 1162POPC   GL117665  37.798  32.467   9.170
 1162POPC   GL217666  37.769  32.095   9.109
 1162POPC   C1A17667  37.618  32.400   8.738
 1162POPC   D2A17668  37.603  32.103   8.389
 1162POPC   C3A17669  37.468  32.259   7.991
 1162POPC   C4A17670  37.583  32.104   7.585
 1162POPC   C1B17671  38.020  32.115   8.689
 1162POPC   C2B17672  38.048  32.359   8.298
 1162POPC   C3B17673  37.988  32.301   7.859
 1162POPC   C4B17674  38.088  32.048   7.467
 1163POPC   NC317675  41.863  43.235   9.772
 1163POPC   PO417676  41.357  43.363   9.300
 1163POPC   GL117677  41.447  43.114   8.980
 1163POPC   GL217678  41.791  43.230   8.906
 1163POPC   C1A17679  41.408  43.167   8.546
 1163POPC   D2A17680  41.747  43.322   8.314
 1163POPC   C3A17681  41.640  43.272   7.909
 1163POPC   C4A17682  41.379  43.011   7.647
 1163POPC   C1B17683  41.820  42.869   8.636
 1163POPC   C2B17684  41.609  42.759   8.279
 1163POPC   C3B17685  41.859  42.757   7.948
 1163POPC   C4B17686  41.904  42.986   7.601
 1164POPC   NC317687  12.755   2.287   9.471
 1164POPC   PO417688  13.109   1.748   9.518
 1164POPC   GL117689  12.988   1.974   9.148
 1164POPC   GL217690  12.625   1.887   9.153
 1164POPC   C1A17691  12.825   2.195   8.793
 1164POPC   D2A17692  13.025   2.261   8.408
 1164POPC   C3A17693  12.822   2.145   8.023
 1164POPC   C4A17694  13.034   2.240   7.640
 1164POPC   C1B17695  12.518   1.641   8.778
 1164POPC   C2B17696  12.560   1.822   8.354
 1164POPC   C3B17697  12.594   1.674   7.911
 1164POPC   C4B17698  12.740   1.852   7.475
 1165POPC   NC317699  16.246  27.335   9.951
 1165POPC   PO417700  16.135  27.901   9.646
 1165POPC   GL117701  16.055  27.619   9.300
 1165POPC   GL217702  16.358  27.527   9.177
 1165POPC   C1A17703  15.923  27.436   8.885
 1165POPC   D2A17704  15.887  27.601   8.464
 1165POPC   C3A17705  15.854  27.428   8.040
 1165POPC   C4A17706  15.553  27.445   7.706
 1165POPC   C1B17707  16.368  27.648   8.753
 1165POPC   C2B17708  16.383  27.699   8.348
 1165POPC   C3B17709  16.279  27.717   7.944
 1165POPC   C4B17710  15.977  27.757   7.667
 1166POPC   NC317711   7.992  39.363   9.425
 1166POPC   PO417712   8.557  39.000   9.434
 1166POPC   GL117713   8.416  39.315   9.126
 1166POPC   GL217714   8.179  39.078   9.069
 1166POPC   C1A17715   8.158  39.443   8.737
 1166POPC   D2A17716   7.935  39.255   8.364
 1166POPC   C3A17717   8.081  39.431   8.009
 1166POPC   C4A17718   7.956  39.551   7.622
 1166POPC   C1B17719   8.100  38.926   8.705
 1166POPC   C2B17720   8.387  38.777   8.417
 1166POPC   C3B17721   8.348  39.001   8.072
 1166POPC   C4B17722   8.254  39.104   7.648
 1167POPC   NC317723   2.450  17.896   9.613
 1167POPC   PO417724   2.772  18.461   9.463
 1167POPC   GL117725   2.661  18.374   9.089
 1167POPC   GL217726   2.731  18.044   9.160
 1167POPC   C1A17727   2.884  18.368   8.706
 1167POPC   D2A17728   2.980  18.633   8.376
 1167POPC   C3A17729   2.915  18.318   8.084
 1167POPC   C4A17730   2.822  18.202   7.703
 1167POPC   C1B17731   2.475  17.875   8.853
 1167POPC   C2B17732   2.633  17.991   8.424
 1167POPC   C3B17733   2.387  17.996   8.043
 1167POPC   C4B17734   2.391  17.930   7.604
 1168POPC   NC317735  27.985  33.801   9.438
 1168POPC   PO417736  27.469  33.423   9.343
 1168POPC   GL117737  27.646  33.734   9.063
 1168POPC   GL217738  27.604  34.108   9.123
 1168POPC   C1A17739  27.713  33.777   8.652
 1168POPC   D2A17740  27.479  33.645   8.319
 1168POPC   C3A17741  27.723  33.520   7.977
 1168POPC   C4A17742  27.749  33.612   7.546
 1168POPC   C1B17743  27.386  34.154   8.692
 1168POPC   C2B17744  27.642  34.161   8.272
 1168POPC   C3B17745  27.764  34.036   7.829
 1168POPC   C4B17746  27.632  34.082   7.357
 1169POPC   NC317747  13.041   1.288   9.490
 1169POPC   PO417748  12.572   0.918   9.368
 1169POPC   GL117749  12.842   1.116   9.044
 1169POPC   GL217750  12.955   1.486   9.041
 1169POPC   C1A17751  12.888   1.226   8.622
 1169POPC   D2A17752  12.613   1.308   8.345
 1169POPC   C3A17753  12.822   1.206   7.979
 1169POPC   C4A17754  12.674   1.203   7.587
 1169POPC   C1B17755  12.999   1.738   8.659
 1169POPC   C2B17756  13.033   1.619   8.233
 1169POPC   C3B17757  13.082   1.636   7.786
 1169POPC   C4B17758  13.180   1.390   7.422
 1170POPC   NC317759  32.653   6.131   9.425
 1170POPC   PO417760  32.264   5.600   9.465
 1170POPC   GL117761  32.148   5.703   9.046
 1170POPC   GL217762  31.944   6.018   9.066
 1170POPC   C1A17763  32.247   5.733   8.632
 1170POPC   D2A17764  32.261   5.507   8.257
 1170POPC   C3A17765  32.398   5.730   7.934
 1170POPC   C4A17766  32.416   6.130   7.828
 1170POPC   C1B17767  31.746   5.984   8.684
 1170POPC   C2B17768  31.929   5.945   8.284
 1170POPC   C3B17769  31.901   5.779   7.909
 1170POPC   C4B17770  32.087   5.763   7.508
 1171POPC   NC317771  42.172  15.611   9.461
 1171POPC   PO417772  42.117  16.281   9.395
 1171POPC   GL117773  42.235  16.013   9.074
 1171POPC   GL217774  42.482  15.767   9.089
 1171POPC   C1A17775  42.141  15.819   8.699
 1171POPC   D2A17776  42.026  15.980   8.338
 1171POPC   C3A17777  42.092  15.750   7.978
 1171POPC   C4A17778  42.067  16.002   7.612
 1171POPC   C1B17779  42.640  15.900   8.715
 1171POPC   C2B17780  42.542  15.757   8.287
 1171POPC   C3B17781  42.577  15.792   7.833
 1171POPC   C4B17782  42.482  15.810   7.382
 1172POPC   NC317783   3.463   8.550   9.551
 1172POPC   PO417784   3.695   9.183   9.527
 1172POPC   GL117785   3.484   8.946   9.199
 1172POPC   GL217786   3.731   8.695   9.134
 1172POPC   C1A17787   3.407   8.917   8.750
 1172POPC   D2A17788   3.231   9.169   8.430
 1172POPC   C3A17789   3.430   9.120   8.043
 1172POPC   C4A17790   3.385   8.819   7.733
 1172POPC   C1B17791   3.914   8.936   8.766
 1172POPC   C2B17792   3.792   8.873   8.314
 1172POPC   C3B17793   3.883   8.978   7.868
 1172POPC   C4B17794   4.026   9.372   7.711
 1173POPC   NC317795   3.450   2.554   9.450
 1173POPC   PO417796   3.478   1.878   9.525
 1173POPC   GL117797   3.439   2.028   9.138
 1173POPC   GL217798   3.736   2.220   9.155
 1173POPC   C1A17799   3.620   1.856   8.759
 1173POPC   D2A17800   3.774   1.616   8.402
 1173POPC   C3A17801   3.644   1.838   8.020
 1173POPC   C4A17802   3.401   1.772   7.658
 1173POPC   C1B17803   3.572   2.356   8.762
 1173POPC   C2B17804   3.427   2.184   8.392
 1173POPC   C3B17805   3.594   2.375   8.046
 1173POPC   C4B17806   3.608   2.243   7.645
 1174POPC   NC317807   3.343  40.137   9.544
 1174POPC   PO417808   3.560  39.465   9.507
 1174POPC   GL117809   3.495  39.830   9.125
 1174POPC   GL217810   3.311  40.195   9.060
 1174POPC   C1A17811   3.568  39.999   8.674
 1174POPC   D2A17812   3.473  39.849   8.261
 1174POPC   C3A17813   3.615  40.072   7.898
 1174POPC   C4A17814   3.580  40.201   7.442
 1174POPC   C1B17815   3.149  40.323   8.672
 1174POPC   C2B17816   3.254  40.303   8.275
 1174POPC   C3B17817   3.134  40.191   7.863
 1174POPC   C4B17818   3.068  40.208   7.418
 1175POPC   NC317819  37.299   6.005   9.591
 1175POPC   PO417820  37.932   5.989   9.515
 1175POPC   GL117821  37.676   5.813   9.189
 1175POPC   GL217822  37.400   5.585   9.282
 1175POPC   C1A17823  37.685   5.765   8.731
 1175POPC   D2A17824  37.922   5.669   8.355
 1175POPC   C3A17825  37.845   5.885   7.942
 1175POPC   C4A17826  37.548   6.257   7.870
 1175POPC   C1B17827  37.217   5.836   8.932
 1175POPC   C2B17828  37.165   5.901   8.493
 1175POPC   C3B17829  37.372   5.794   8.100
 1175POPC   C4B17830  37.383   5.581   7.705
 1176POPC   NC317831  12.395  34.582   9.559
 1176POPC   PO417832  11.794  34.625   9.547
 1176POPC   GL117833  11.974  34.692   9.157
 1176POPC   GL217834  12.063  34.354   9.142
 1176POPC   C1A17835  12.136  34.642   8.725
 1176POPC   D2A17836  11.932  34.801   8.398
 1176POPC   C3A17837  12.096  34.669   8.049
 1176POPC   C4A17838  11.989  34.799   7.672
 1176POPC   C1B17839  12.376  34.209   8.828
 1176POPC   C2B17840  12.581  34.367   8.483
 1176POPC   C3B17841  12.484  34.343   8.060
 1176POPC   C4B17842  12.375  34.475   7.646
 1177POPC   NC317843   7.825  19.244   9.354
 1177POPC   PO417844   7.294  18.690   9.478
 1177POPC   GL117845   7.478  18.908   9.121
 1177POPC   GL217846   7.707  18.652   9.068
 1177POPC   C1A17847   7.333  19.120   8.716
 1177POPC   D2A17848   7.229  18.962   8.286
 1177POPC   C3A17849   7.219  19.254   7.977
 1177POPC   C4A17850   7.670  19.376   7.920
 1177POPC   C1B17851   7.570  18.668   8.632
 1177POPC   C2B17852   7.682  18.714   8.200
 1177POPC   C3B17853   7.538  18.895   7.803
 1177POPC   C4B17854   7.632  18.784   7.349
 1178POPC   NC317855  40.097  23.301   9.530
 1178POPC   PO417856  40.029  22.692   9.380
 1178POPC   GL117857  40.280  22.861   9.091
 1178POPC   GL217858  40.455  22.588   8.955
 1178POPC   C1A17859  40.099  23.137   8.775
 1178POPC   D2A17860  39.823  23.266   8.441
 1178POPC   C3A17861  39.875  23.154   8.022
 1178POPC   C4A17862  39.894  23.017   7.622
 1178POPC   C1B17863  40.522  22.900   8.637
 1178POPC   C2B17864  40.275  22.985   8.299
 1178POPC   C3B17865  40.161  22.728   7.950
 1178POPC   C4B17866  40.341  22.731   7.530
 1179POPC   NC317867  13.935  21.278   9.533
 1179POPC   PO417868  13.581  21.885   9.708
 1179POPC   GL117869  13.775  21.714   9.327
 1179POPC   GL217870  13.495  21.496   9.250
 1179POPC   C1A17871  13.835  21.474   8.911
 1179POPC   D2A17872  13.794  21.611   8.520
 1179POPC   C3A17873  13.661  21.364   8.185
 1179POPC   C4A17874  13.706  21.438   7.742
 1179POPC   C1B17875  13.319  21.579   8.849
 1179POPC   C2B17876  13.243  21.620   8.417
 1179POPC   C3B17877  13.338  21.704   7.980
 1179POPC   C4B17878  13.267  21.602   7.532
 1180POPC   NC317879  16.531  28.094   9.536
 1180POPC   PO417880  16.664  27.403   9.731
 1180POPC   GL117881  16.842  27.551   9.313
 1180POPC   GL217882  16.963  27.911   9.261
 1180POPC   C1A17883  16.808  27.424   8.859
 1180POPC   D2A17884  16.692  27.284   8.419
 1180POPC   C3A17885  16.742  27.521   8.053
 1180POPC   C4A17886  17.037  27.751   7.854
 1180POPC   C1B17887  17.040  28.047   8.822
 1180POPC   C2B17888  16.910  27.881   8.403
 1180POPC   C3B17889  16.678  28.057   8.057
 1180POPC   C4B17890  16.623  27.956   7.657
 1181POPC   NC317891   3.241  43.573   9.179
 1181POPC   PO417892   2.842  43.098   9.514
 1181POPC   GL117893   2.673  42.901   9.183
 1181POPC   GL217894   2.517  42.586   9.270
 1181POPC   C1A17895   2.421  43.051   8.821
 1181POPC   D2A17896   2.325  43.266   8.428
 1181POPC   C3A17897   2.479  43.121   8.032
 1181POPC   C4A17898   2.904  43.172   7.808
 1181POPC   C1B17899   2.686  42.580   8.825
 1181POPC   C2B17900   2.619  42.776   8.441
 1181POPC   C3B17901   2.801  42.740   8.068
 1181POPC   C4B17902   2.608  42.744   7.699
 1182POPC   NC317903  43.662  30.949   9.390
 1182POPC   PO417904  44.242  30.486   9.559
 1182POPC   GL117905  43.972  30.533   9.147
 1182POPC   GL217906  43.859  30.844   8.942
 1182POPC   C1A17907  44.026  30.450   8.682
 1182POPC   D2A17908  43.967  30.840   8.414
 1182POPC   C3A17909  43.929  30.763   7.977
 1182POPC   C4A17910  43.967  30.402   7.699
 1182POPC   C1B17911  43.540  31.067   8.676
 1182POPC   C2B17912  43.597  31.228   8.243
 1182POPC   C3B17913  43.549  31.055   7.798
 1182POPC   C4B17914  43.850  30.860   7.472
 1183POPC   NC317915   7.510  36.887   9.467
 1183POPC   PO417916   6.953  36.477   9.404
 1183POPC   GL117917   7.164  36.829   9.098
 1183POPC   GL217918   7.522  36.995   8.990
 1183POPC   C1A17919   7.117  37.086   8.714
 1183POPC   D2A17920   7.173  37.361   8.345
 1183POPC   C3A17921   7.265  37.220   7.928
 1183POPC   C4A17922   7.100  37.026   7.590
 1183POPC   C1B17923   7.594  36.908   8.583
 1183POPC   C2B17924   7.342  36.875   8.280
 1183POPC   C3B17925   7.272  36.634   7.923
 1183POPC   C4B17926   7.477  36.671   7.532
 1184POPC   NC317927  22.120  35.450   9.593
 1184POPC   PO417928  22.037  34.796   9.480
 1184POPC   GL117929  22.020  35.156   9.158
 1184POPC   GL217930  22.051  35.549   9.109
 1184POPC   C1A17931  21.958  35.234   8.717
 1184POPC   D2A17932  22.223  35.174   8.357
 1184POPC   C3A17933  21.987  35.284   8.012
 1184POPC   C4A17934  22.092  35.486   7.662
 1184POPC   C1B17935  22.385  35.539   8.840
 1184POPC   C2B17936  22.459  35.654   8.425
 1184POPC   C3B17937  22.502  35.518   8.006
 1184POPC   C4B17938  22.499  35.767   7.623
 1185POPC   NC317939  20.433  32.459   9.507
 1185POPC   PO417940  20.195  31.912   9.126
 1185POPC   GL117941  20.570  32.125   9.015
 1185POPC   GL217942  20.701  32.473   9.082
 1185POPC   C1A17943  20.750  32.113   8.599
 1185POPC   D2A17944  20.826  31.779   8.300
 1185POPC   C3A17945  20.880  31.947   7.893
 1185POPC   C4A17946  20.520  32.144   7.678
 1185POPC   C1B17947  20.487  32.532   8.730
 1185POPC   C2B17948  20.369  32.531   8.298
 1185POPC   C3B17949  20.565  32.605   7.895
 1185POPC   C4B17950  20.327  32.638   7.527
 1186POPC   NC317951  17.020  11.004   9.865
 1186POPC   PO417952  16.479  11.326   9.509
 1186POPC   GL117953  16.626  11.495   9.140
 1186POPC   GL217954  16.967  11.444   9.161
 1186POPC   C1A17955  16.536  11.394   8.700
 1186POPC   D2A17956  16.298  11.187   8.354
 1186POPC   C3A17957  16.389  11.385   7.929
 1186POPC   C4A17958  16.752  11.588   7.672
 1186POPC   C1B17959  17.050  11.317   8.767
 1186POPC   C2B17960  16.863  11.051   8.458
 1186POPC   C3B17961  16.870  11.295   8.084
 1186POPC   C4B17962  16.922  11.110   7.667
 1187POPC   NC317963  13.638  39.640   9.844
 1187POPC   PO417964  13.572  39.077   9.522
 1187POPC   GL117965  13.417  39.136   9.123
 1187POPC   GL217966  13.583  38.824   9.072
 1187POPC   C1A17967  13.429  39.451   8.752
 1187POPC   D2A17968  13.674  39.488   8.343
 1187POPC   C3A17969  13.474  39.371   7.943
 1187POPC   C4A17970  13.229  39.433   7.532
 1187POPC   C1B17971  13.586  38.963   8.659
 1187POPC   C2B17972  13.636  38.986   8.272
 1187POPC   C3B17973  13.625  38.817   7.939
 1187POPC   C4B17974  13.481  39.009   7.594
 1188POPC   NC317975  29.232  22.083   9.668
 1188POPC   PO417976  29.129  22.688   9.447
 1188POPC   GL117977  28.997  22.405   9.107
 1188POPC   GL217978  29.104  22.057   9.173
 1188POPC   C1A17979  29.054  22.220   8.679
 1188POPC   D2A17980  28.763  22.108   8.337
 1188POPC   C3A17981  28.904  22.011   7.927
 1188POPC   C4A17982  28.870  22.276   7.544
 1188POPC   C1B17983  29.427  21.930   8.874
 1188POPC   C2B17984  29.616  22.003   8.455
 1188POPC   C3B17985  29.526  22.229   8.097
 1188POPC   C4B17986  29.348  22.161   7.700
 1189POPC   NC317987  40.583  34.323   9.327
 1189POPC   PO417988  41.171  34.616   9.579
 1189POPC   GL117989  40.835  34.688   9.137
 1189POPC   GL217990  40.552  34.850   9.068
 1189POPC   C1A17991  40.843  34.285   8.760
 1189POPC   D2A17992  41.000  34.494   8.418
 1189POPC   C3A17993  40.796  34.380   8.092
 1189POPC   C4A17994  40.886  34.400   7.709
 1189POPC   C1B17995  40.536  34.644   8.663
 1189POPC   C2B17996  40.583  34.828   8.276
 1189POPC   C3B17997  40.538  34.751   7.853
 1189POPC   C4B17998  40.407  34.263   7.749
 1190POPC   NC317999  28.868   3.863   9.293
 1190POPC   PO418000  28.956   3.228   9.503
 1190POPC   GL118001  29.126   3.395   9.105
 1190POPC   GL218002  29.369   3.653   9.104
 1190POPC   C1A18003  29.125   3.547   8.669
 1190POPC   D2A18004  29.096   3.546   8.242
 1190POPC   C3A18005  29.052   3.192   7.994
 1190POPC   C4A18006  29.118   3.507   7.720
 1190POPC   C1B18007  29.495   3.896   8.763
 1190POPC   C2B18008  29.254   4.002   8.397
 1190POPC   C3B18009  29.378   3.915   7.961
 1190POPC   C4B18010  29.251   3.979   7.535
 1191POPC   NC318011  12.196  11.544   9.488
 1191POPC   PO418012  12.381  12.257   9.490
 1191POPC   GL118013  12.089  12.163   9.175
 1191POPC   GL218014  12.193  11.840   9.085
 1191POPC   C1A18015  11.936  12.277   8.779
 1191POPC   D2A18016  11.950  12.102   8.368
 1191POPC   C3A18017  11.871  12.262   7.950
 1191POPC   C4A18018  12.049  12.005   7.577
 1191POPC   C1B18019  12.407  12.021   8.774
 1191POPC   C2B18020  12.389  11.884   8.375
 1191POPC   C3B18021  12.347  12.082   7.999
 1191POPC   C4B18022  12.572  12.082   7.634
 1192POPC   NC318023  20.755  14.824   9.455
 1192POPC   PO418024  20.403  14.238   9.588
 1192POPC   GL118025  20.726  14.116   9.256
 1192POPC   GL218026  20.747  14.424   9.077
 1192POPC   C1A18027  20.984  14.032   8.852
 1192POPC   D2A18028  21.110  14.136   8.391
 1192POPC   C3A18029  20.743  14.230   8.089
 1192POPC   C4A18030  20.352  14.247   7.801
 1192POPC   C1B18031  20.632  14.319   8.636
 1192POPC   C2B18032  20.303  14.268   8.336
 1192POPC   C3B18033  20.413  14.643   8.095
 1192POPC   C4B18034  20.544  14.709   7.683
 1193POPC   NC318035  19.498   2.601   9.520
 1193POPC   PO418036  18.950   2.987   9.496
 1193POPC   GL118037  19.086   2.691   9.133
 1193POPC   GL218038  19.432   2.699   9.025
 1193POPC   C1A18039  18.828   2.649   8.760
 1193POPC   D2A18040  18.588   2.792   8.404
 1193POPC   C3A18041  18.686   2.648   8.003
 1193POPC   C4A18042  18.933   2.836   7.706
 1193POPC   C1B18043  19.461   2.861   8.624
 1193POPC   C2B18044  19.199   2.795   8.254
 1193POPC   C3B18045  19.394   2.839   7.863
 1193POPC   C4B18046  19.369   2.681   7.454
 1194POPC   NC318047  24.926   4.309   9.581
 1194POPC   PO418048  25.636   4.346   9.646
 1194POPC   GL118049  25.369   4.367   9.255
 1194POPC   GL218050  25.417   4.668   9.052
 1194POPC   C1A18051  25.149   4.233   8.849
 1194POPC   D2A18052  24.967   4.108   8.429
 1194POPC   C3A18053  25.252   4.301   8.128
 1194POPC   C4A18054  25.541   4.278   7.775
 1194POPC   C1B18055  25.070   4.743   8.790
 1194POPC   C2B18056  24.911   4.617   8.410
 1194POPC   C3B18057  25.057   4.760   8.023
 1194POPC   C4B18058  25.368   4.759   7.701
 1195POPC   NC318059  41.844  22.392   9.315
 1195POPC   PO418060  41.676  21.780   9.336
 1195POPC   GL118061  41.391  21.919   8.990
 1195POPC   GL218062  41.332  22.247   9.145
 1195POPC   C1A18063  41.366  21.960   8.528
 1195POPC   D2A18064  41.725  22.223   8.346
 1195POPC   C3A18065  41.782  22.029   7.987
 1195POPC   C4A18066  41.351  21.964   7.878
 1195POPC   C1B18067  41.410  22.412   8.757
 1195POPC   C2B18068  41.174  22.433   8.386
 1195POPC   C3B18069  41.252  22.462   7.963
 1195POPC   C4B18070  41.667  22.506   7.802
 1196POPC   NC318071  29.330   3.486   9.584
 1196POPC   PO418072  29.959   3.483   9.738
 1196POPC   GL118073  29.834   3.476   9.267
 1196POPC   GL218074  29.599   3.185   9.216
 1196POPC   C1A18075  30.119   3.443   8.867
 1196POPC   D2A18076  30.331   3.471   8.447
 1196POPC   C3A18077  30.078   3.428   8.110
 1196POPC   C4A18078  30.019   3.445   7.696
 1196POPC   C1B18079  29.614   3.345   8.788
 1196POPC   C2B18080  29.660   3.583   8.386
 1196POPC   C3B18081  29.573   3.441   7.959
 1196POPC   C4B18082  29.554   3.531   7.490
 1197POPC   NC318083   7.572  38.100   9.450
 1197POPC   PO418084   7.421  37.360   9.376
 1197POPC   GL118085   7.255  37.772   9.152
 1197POPC   GL218086   7.514  38.026   8.962
 1197POPC   C1A18087   7.103  37.779   8.713
 1197POPC   D2A18088   7.407  37.789   8.410
 1197POPC   C3A18089   7.445  37.801   7.981
 1197POPC   C4A18090   7.841  37.949   7.815
 1197POPC   C1B18091   7.652  37.639   8.856
 1197POPC   C2B18092   7.687  37.392   8.569
 1197POPC   C3B18093   7.688  37.343   8.173
 1197POPC   C4B18094   7.770  37.421   7.777
 1198POPC   NC318095  19.839  36.953   9.469
 1198POPC   PO418096  20.097  36.346   9.406
 1198POPC   GL118097  19.795  36.580   9.092
 1198POPC   GL218098  19.556  36.860   9.074
 1198POPC   C1A18099  19.925  36.861   8.734
 1198POPC   D2A18100  19.872  37.005   8.317
 1198POPC   C3A18101  19.892  36.700   7.993
 1198POPC   C4A18102  19.975  36.732   7.553
 1198POPC   C1B18103  19.432  36.668   8.713
 1198POPC   C2B18104  19.434  36.765   8.287
 1198POPC   C3B18105  19.420  36.853   7.868
 1198POPC   C4B18106  19.496  36.564   7.566
 1199POPC   NC318107  10.174  13.041   9.312
 1199POPC   PO418108   9.622  12.894   9.690
 1199POPC   GL118109   9.582  12.768   9.220
 1199POPC   GL218110   9.689  13.085   9.096
 1199POPC   C1A18111   9.477  12.745   8.749
 1199POPC   D2A18112   9.771  12.672   8.359
 1199POPC   C3A18113   9.720  12.878   7.934
 1199POPC   C4A18114   9.364  12.763   7.635
 1199POPC   C1B18115   9.922  13.010   8.711
 1199POPC   C2B18116  10.087  13.085   8.292
 1199POPC   C3B18117  10.094  13.243   7.879
 1199POPC   C4B18118  10.063  13.173   7.422
 1200POPC   NC318119  38.715   4.783   9.359
 1200POPC   PO418120  39.408   4.684   9.286
 1200POPC   GL118121  39.319   5.098   9.087
 1200POPC   GL218122  38.967   5.144   9.091
 1200POPC   C1A18123  39.320   5.255   8.661
 1200POPC   D2A18124  39.625   5.150   8.356
 1200POPC   C3A18125  39.441   5.206   7.985
 1200POPC   C4A18126  39.405   5.006   7.607
 1200POPC   C1B18127  38.926   4.895   8.706
 1200POPC   C2B18128  38.812   5.068   8.299
 1200POPC   C3B18129  38.958   5.019   7.865
 1200POPC   C4B18130  38.911   5.066   7.405
 1201POPC   NC318131  21.755  29.730   9.396
 1201POPC   PO418132  21.270  30.179   9.497
 1201POPC   GL118133  21.232  29.933   9.153
 1201POPC   GL218134  20.971  29.716   9.191
 1201POPC   C1A18135  21.396  29.991   8.759
 1201POPC   D2A18136  21.417  29.813   8.371
 1201POPC   C3A18137  21.463  30.047   7.969
 1201POPC   C4A18138  21.599  29.755   7.679
 1201POPC   C1B18139  20.921  29.639   8.772
 1201POPC   C2B18140  21.023  29.468   8.363
 1201POPC   C3B18141  21.070  29.730   8.000
 1201POPC   C4B18142  20.895  29.868   7.635
 1202POPC   NC318143  33.430   3.228   9.893
 1202POPC   PO418144  34.042   3.330   9.500
 1202POPC   GL118145  33.913   3.640   9.170
 1202POPC   GL218146  34.155   3.896   9.044
 1202POPC   C1A18147  33.801   3.706   8.727
 1202POPC   D2A18148  34.097   3.766   8.376
 1202POPC   C3A18149  33.852   3.698   8.009
 1202POPC   C4A18150  33.599   3.476   7.696
 1202POPC   C1B18151  34.269   3.504   8.798
 1202POPC   C2B18152  34.456   3.397   8.393
 1202POPC   C3B18153  34.277   3.338   8.021
 1202POPC   C4B18154  34.126   3.469   7.650
 1203POPC   NC318155   6.764  15.328   9.440
 1203POPC   PO418156   6.163  15.174   9.697
 1203POPC   GL118157   6.363  15.031   9.255
 1203POPC   GL218158   6.671  14.850   9.228
 1203POPC   C1A18159   6.449  15.157   8.809
 1203POPC   D2A18160   6.761  15.205   8.530
 1203POPC   C3A18161   6.746  15.188   8.127
 1203POPC   C4A18162   6.974  15.313   7.827
 1203POPC   C1B18163   6.612  14.684   8.825
 1203POPC   C2B18164   6.730  14.693   8.409
 1203POPC   C3B18165   6.514  14.718   8.029
 1203POPC   C4B18166   6.575  15.001   7.687
 1204POPC   NC318167  41.932  31.676   9.405
 1204POPC   PO418168  42.002  31.034   9.610
 1204POPC   GL118169  42.032  31.167   9.178
 1204POPC   GL218170  42.270  31.418   9.135
 1204POPC   C1A18171  41.993  31.275   8.724
 1204POPC   D2A18172  42.129  31.534   8.374
 1204POPC   C3A18173  42.359  31.411   8.047
 1204POPC   C4A18174  42.277  31.312   7.649
 1204POPC   C1B18175  42.486  31.450   8.772
 1204POPC   C2B18176  42.592  31.761   8.508
 1204POPC   C3B18177  42.615  31.849   8.083
 1204POPC   C4B18178  42.750  31.540   7.745
 1205POPC   NC318179  35.855  14.202   9.528
 1205POPC   PO418180  36.530  14.244   9.429
 1205POPC   GL118181  36.221  14.352   9.137
 1205POPC   GL218182  35.872  14.257   9.029
 1205POPC   C1A18183  36.185  14.633   8.798
 1205POPC   D2A18184  36.001  14.774   8.432
 1205POPC   C3A18185  36.223  14.508   8.126
 1205POPC   C4A18186  36.503  14.626   7.776
 1205POPC   C1B18187  36.161  14.066   8.724
 1205POPC   C2B18188  36.026  13.907   8.321
 1205POPC   C3B18189  36.021  14.088   7.909
 1205POPC   C4B18190  36.185  14.058   7.518
 1206POPC   NC318191  19.083  33.474   9.499
 1206POPC   PO418192  19.328  34.171   9.478
 1206POPC   GL118193  19.113  33.927   9.209
 1206POPC   GL218194  18.786  33.995   9.252
 1206POPC   C1A18195  19.127  33.832   8.774
 1206POPC   D2A18196  19.375  33.901   8.380
 1206POPC   C3A18197  19.112  33.831   8.002
 1206POPC   C4A18198  19.101  33.467   7.722
 1206POPC   C1B18199  18.746  34.211   8.859
 1206POPC   C2B18200  18.902  34.182   8.436
 1206POPC   C3B18201  18.792  34.283   8.024
 1206POPC   C4B18202  18.900  34.155   7.635
 1207POPC   NC318203   0.611   5.608   9.420
 1207POPC   PO418204   0.403   4.970   9.653
 1207POPC   GL118205   0.386   5.163   9.245
 1207POPC   GL218206   0.047   5.125   9.080
 1207POPC   C1A18207   0.476   5.249   8.823
 1207POPC   D2A18208   0.489   4.981   8.467
 1207POPC   C3A18209   0.681   5.165   8.118
 1207POPC   C4A18210   0.737   5.327   7.723
 1207POPC   C1B18211   0.007   5.110   8.634
 1207POPC   C2B18212   0.096   5.188   8.203
 1207POPC   C3B18213   0.261   5.148   7.778
 1207POPC   C4B18214   0.212   4.894   7.405
 1208POPC   NC318215   3.376  25.154   9.608
 1208POPC   PO418216   3.824  25.685   9.524
 1208POPC   GL118217   3.669  25.392   9.167
 1208POPC   GL218218   3.371  25.158   9.124
 1208POPC   C1A18219   3.544  25.356   8.710
 1208POPC   D2A18220   3.331  25.298   8.315
 1208POPC   C3A18221   3.552  25.258   7.943
 1208POPC   C4A18222   3.733  24.994   7.632
 1208POPC   C1B18223   3.181  25.022   8.780
 1208POPC   C2B18224   3.201  24.801   8.426
 1208POPC   C3B18225   3.066  24.890   8.024
 1208POPC   C4B18226   3.114  25.158   7.711
 1209POPC   NC318227   4.090  16.670   9.557
 1209POPC   PO418228   4.611  16.545   9.218
 1209POPC   GL118229   4.204  16.622   9.044
 1209POPC   GL218230   4.096  16.981   9.154
 1209POPC   C1A18231   4.232  16.615   8.592
 1209POPC   D2A18232   4.578  16.801   8.340
 1209POPC   C3A18233   4.532  16.716   7.886
 1209POPC   C4A18234   4.497  16.721   7.427
 1209POPC   C1B18235   4.277  17.092   8.769
 1209POPC   C2B18236   4.107  17.059   8.371
 1209POPC   C3B18237   3.932  17.090   7.986
 1209POPC   C4B18238   4.177  17.066   7.644
 1210POPC   NC318239  44.174  14.260   9.498
 1210POPC   PO418240  43.522  14.389   9.599
 1210POPC   GL118241  43.705  14.231   9.246
 1210POPC   GL218242  43.897  14.528   9.166
 1210POPC   C1A18243  43.770  14.207   8.791
 1210POPC   D2A18244  43.525  14.530   8.552
 1210POPC   C3A18245  43.544  14.381   8.147
 1210POPC   C4A18246  43.674  14.144   7.791
 1210POPC   C1B18247  43.946  14.722   8.791
 1210POPC   C2B18248  44.014  14.501   8.408
 1210POPC   C3B18249  44.040  14.439   7.974
 1210POPC   C4B18250  44.402  14.475   7.715
 1211POPC   NC318251   2.093  33.349   9.422
 1211POPC   PO418252   2.092  33.991   9.722
 1211POPC   GL118253   1.928  34.045   9.306
 1211POPC   GL218254   1.964  33.747   9.141
 1211POPC   C1A18255   2.015  34.151   8.845
 1211POPC   D2A18256   2.252  34.151   8.464
 1211POPC   C3A18257   2.091  33.987   8.108
 1211POPC   C4A18258   2.102  33.932   7.691
 1211POPC   C1B18259   1.985  33.448   8.794
 1211POPC   C2B18260   1.935  33.608   8.427
 1211POPC   C3B18261   1.756  33.444   8.118
 1211POPC   C4B18262   2.051  33.457   7.815
 1212POPC   NC318263   3.983  10.991   9.472
 1212POPC   PO418264   4.306  11.517   9.755
 1212POPC   GL118265   4.340  11.332   9.300
 1212POPC   GL218266   4.670  11.164   9.249
 1212POPC   C1A18267   4.428  11.500   8.869
 1212POPC   D2A18268   4.509  11.462   8.407
 1212POPC   C3A18269   4.185  11.268   8.184
 1212POPC   C4A18270   3.992  11.380   7.796
 1212POPC   C1B18271   4.820  11.173   8.814
 1212POPC   C2B18272   4.668  10.969   8.434
 1212POPC   C3B18273   4.696  11.127   8.044
 1212POPC   C4B18274   4.498  11.431   7.792
 1213POPC   NC318275  15.201   3.670   9.596
 1213POPC   PO418276  15.643   3.401   9.380
 1213POPC   GL118277  15.311   3.506   9.099
 1213POPC   GL218278  14.939   3.442   9.202
 1213POPC   C1A18279  15.329   3.782   8.742
 1213POPC   D2A18280  15.213   3.767   8.312
 1213POPC   C3A18281  15.334   3.442   8.024
 1213POPC   C4A18282  15.210   3.613   7.639
 1213POPC   C1B18283  14.927   3.392   8.744
 1213POPC   C2B18284  14.947   3.259   8.311
 1213POPC   C3B18285  14.790   3.414   7.908
 1213POPC   C4B18286  14.764   3.477   7.428
 1214POPC   NC318287  32.418  21.917   9.439
 1214POPC   PO418288  31.838  21.841   9.469
 1214POPC   GL118289  32.058  22.031   9.110
 1214POPC   GL218290  32.290  22.325   9.132
 1214POPC   C1A18291  32.296  21.922   8.740
 1214POPC   D2A18292  32.522  21.925   8.325
 1214POPC   C3A18293  32.273  22.092   7.992
 1214POPC   C4A18294  32.151  21.890   7.625
 1214POPC   C1B18295  32.190  22.430   8.693
 1214POPC   C2B18296  32.438  22.532   8.315
 1214POPC   C3B18297  32.444  22.576   7.869
 1214POPC   C4B18298  32.442  22.286   7.528
 1215POPC   NC318299  36.450  41.295   9.481
 1215POPC   PO418300  36.012  41.758   9.431
 1215POPC   GL118301  36.137  41.737   9.049
 1215POPC   GL218302  36.129  41.400   9.073
 1215POPC   C1A18303  35.941  41.604   8.656
 1215POPC   D2A18304  35.981  41.308   8.320
 1215POPC   C3A18305  35.927  41.579   7.983
 1215POPC   C4A18306  35.776  41.718   7.551
 1215POPC   C1B18307  36.459  41.409   8.771
 1215POPC   C2B18308  36.642  41.355   8.383
 1215POPC   C3B18309  36.420  41.347   8.029
 1215POPC   C4B18310  36.599  41.226   7.654
 1216POPC   NC318311  31.204  15.668   9.560
 1216POPC   PO418312  31.721  16.163   9.567
 1216POPC   GL118313  31.441  16.023   9.248
 1216POPC   GL218314  31.533  15.696   9.177
 1216POPC   C1A18315  31.413  16.047   8.803
 1216POPC   D2A18316  31.476  16.233   8.409
 1216POPC   C3A18317  31.433  15.943   8.067
 1216POPC   C4A18318  31.395  16.188   7.700
 1216POPC   C1B18319  31.783  15.696   8.805
 1216POPC   C2B18320  31.825  15.873   8.404
 1216POPC   C3B18321  31.978  15.816   7.970
 1216POPC   C4B18322  31.675  15.778   7.628
 1217POPC   NC318323  41.872  41.343   9.577
 1217POPC   PO418324  41.330  41.804   9.563
 1217POPC   GL118325  41.510  41.502   9.258
 1217POPC   GL218326  41.811  41.706   9.210
 1217POPC   C1A18327  41.642  41.347   8.850
 1217POPC   D2A18328  41.421  41.581   8.505
 1217POPC   C3A18329  41.503  41.312   8.171
 1217POPC   C4A18330  41.508  41.292   7.739
 1217POPC   C1B18331  42.025  41.676   8.826
 1217POPC   C2B18332  41.909  41.548   8.431
 1217POPC   C3B18333  41.734  41.790   8.073
 1217POPC   C4B18334  41.978  41.933   7.717
 1218POPC   NC318335  41.153  14.260   9.222
 1218POPC   PO418336  40.737  14.686   9.499
 1218POPC   GL118337  40.753  14.551   9.077
 1218POPC   GL218338  41.054  14.760   9.046
 1218POPC   C1A18339  40.724  14.227   8.721
 1218POPC   D2A18340  40.441  14.062   8.411
 1218POPC   C3A18341  40.646  14.101   8.023
 1218POPC   C4A18342  40.666  14.407   7.731
 1218POPC   C1B18343  40.938  14.716   8.626
 1218POPC   C2B18344  40.777  14.556   8.247
 1218POPC   C3B18345  41.074  14.589   7.936
 1218POPC   C4B18346  41.325  14.875   7.811
 1219POPC   NC318347  29.427  42.443   9.614
 1219POPC   PO418348  28.770  42.364   9.557
 1219POPC   GL118349  29.070  42.481   9.243
 1219POPC   GL218350  29.097  42.120   9.241
 1219POPC   C1A18351  29.318  42.509   8.841
 1219POPC   D2A18352  29.076  42.554   8.435
 1219POPC   C3A18353  29.118  42.322   8.044
 1219POPC   C4A18354  29.366  42.460   7.740
 1219POPC   C1B18355  28.940  42.164   8.829
 1219POPC   C2B18356  28.986  42.021   8.432
 1219POPC   C3B18357  28.700  41.874   8.156
 1219POPC   C4B18358  28.716  42.074   7.803
 1220POPC   NC318359   5.528  38.959   9.387
 1220POPC   PO418360   6.026  39.350   9.707
 1220POPC   GL118361   5.917  39.316   9.267
 1220POPC   GL218362   5.949  39.021   9.087
 1220POPC   C1A18363   6.011  39.438   8.816
 1220POPC   D2A18364   5.766  39.547   8.451
 1220POPC   C3A18365   5.850  39.400   8.074
 1220POPC   C4A18366   5.690  39.363   7.633
 1220POPC   C1B18367   5.572  39.132   8.753
 1220POPC   C2B18368   5.424  39.173   8.294
 1220POPC   C3B18369   5.638  38.962   7.930
 1220POPC   C4B18370   5.593  38.895   7.462
 1221POPC   NC318371   3.976  31.059   9.988
 1221POPC   PO418372   3.447  30.917   9.592
 1221POPC   GL118373   3.699  30.800   9.223
 1221POPC   GL218374   3.496  30.541   9.164
 1221POPC   C1A18375   3.935  30.605   8.867
 1221POPC   D2A18376   3.822  30.388   8.469
 1221POPC   C3A18377   3.896  30.587   8.050
 1221POPC   C4A18378   3.796  30.564   7.579
 1221POPC   C1B18379   3.445  30.684   8.728
 1221POPC   C2B18380   3.441  30.721   8.290
 1221POPC   C3B18381   3.426  30.699   7.887
 1221POPC   C4B18382   3.299  30.945   7.598
 1222POPC   NC318383  14.625  37.145   9.468
 1222POPC   PO418384  14.249  36.599   9.466
 1222POPC   GL118385  14.280  36.791   9.096
 1222POPC   GL218386  14.197  37.109   9.112
 1222POPC   C1A18387  14.512  36.974   8.748
 1222POPC   D2A18388  14.714  36.792   8.394
 1222POPC   C3A18389  14.594  36.962   8.014
 1222POPC   C4A18390  14.257  36.915   7.729
 1222POPC   C1B18391  14.060  37.260   8.759
 1222POPC   C2B18392  14.201  37.161   8.369
 1222POPC   C3B18393  14.002  37.237   8.008
 1222POPC   C4B18394  14.137  37.420   7.643
 1223POPC   NC318395  38.944  31.362   9.374
 1223POPC   PO418396  39.576  31.435   9.463
 1223POPC   GL118397  39.558  31.766   9.128
 1223POPC   GL218398  39.209  31.794   9.156
 1223POPC   C1A18399  39.433  31.724   8.661
 1223POPC   D2A18400  39.186  31.349   8.482
 1223POPC   C3A18401  39.232  31.195   8.061
 1223POPC   C4A18402  39.430  31.450   7.773
 1223POPC   C1B18403  38.957  31.682   8.796
 1223POPC   C2B18404  38.854  31.737   8.394
 1223POPC   C3B18405  39.120  31.692   8.078
 1223POPC   C4B18406  39.071  31.759   7.633
 1224POPC   NC318407  12.145  19.627   9.393
 1224POPC   PO418408  11.595  19.955   9.506
 1224POPC   GL118409  11.799  19.853   9.090
 1224POPC   GL218410  11.889  19.493   8.980
 1224POPC   C1A18411  12.074  19.909   8.703
 1224POPC   D2A18412  12.021  20.109   8.282
 1224POPC   C3A18413  12.183  19.847   7.927
 1224POPC   C4A18414  12.472  20.161   7.753
 1224POPC   C1B18415  11.649  19.645   8.636
 1224POPC   C2B18416  11.779  19.678   8.236
 1224POPC   C3B18417  11.690  19.915   7.873
 1224POPC   C4B18418  11.788  19.518   7.725
 1225POPC   NC318419  26.214  13.373   9.584
 1225POPC   PO418420  26.120  13.972   9.767
 1225POPC   GL118421  26.018  13.687   9.267
 1225POPC   GL218422  25.845  13.920   9.077
 1225POPC   C1A18423  26.152  13.498   8.861
 1225POPC   D2A18424  25.949  13.333   8.479
 1225POPC   C3A18425  26.113  13.334   8.072
 1225POPC   C4A18426  25.882  13.191   7.729
 1225POPC   C1B18427  25.892  13.879   8.628
 1225POPC   C2B18428  25.888  13.771   8.194
 1225POPC   C3B18429  25.834  13.715   7.747
 1225POPC   C4B18430  25.836  13.870   7.301
 1226POPC   NC318431  38.307  39.771   9.436
 1226POPC   PO418432  38.818  40.197   9.390
 1226POPC   GL118433  38.640  39.986   9.084
 1226POPC   GL218434  38.750  39.655   9.143
 1226POPC   C1A18435  38.347  40.025   8.749
 1226POPC   D2A18436  38.395  40.188   8.345
 1226POPC   C3A18437  38.138  40.006   8.051
 1226POPC   C4A18438  37.933  40.103   7.674
 1226POPC   C1B18439  38.528  39.568   8.798
 1226POPC   C2B18440  38.465  39.669   8.380
 1226POPC   C3B18441  38.638  39.795   8.008
 1226POPC   C4B18442  38.416  39.839   7.647
 1227POPC   NC318443  22.834   1.432   9.844
 1227POPC   PO418444  23.074   1.450   9.226
 1227POPC   GL118445  23.036   1.074   8.986
 1227POPC   GL218446  22.682   1.007   8.912
 1227POPC   C1A18447  23.081   1.097   8.553
 1227POPC   D2A18448  22.926   1.390   8.252
 1227POPC   C3A18449  23.134   1.343   7.843
 1227POPC   C4A18450  23.116   1.065   7.421
 1227POPC   C1B18451  22.543   1.159   8.562
 1227POPC   C2B18452  22.703   0.954   8.227
 1227POPC   C3B18453  22.774   0.986   7.803
 1227POPC   C4B18454  22.549   0.937   7.405
 1228POPC   NC318455  39.811   1.687   9.464
 1228POPC   PO418456  40.310   2.223   9.465
 1228POPC   GL118457  40.048   2.049   9.165
 1228POPC   GL218458  39.743   2.192   9.062
 1228POPC   C1A18459  40.157   1.840   8.796
 1228POPC   D2A18460  40.024   1.674   8.423
 1228POPC   C3A18461  40.191   1.830   8.025
 1228POPC   C4A18462  40.127   1.565   7.754
 1228POPC   C1B18463  39.679   2.002   8.692
 1228POPC   C2B18464  39.540   2.066   8.294
 1228POPC   C3B18465  39.700   1.764   8.028
 1228POPC   C4B18466  39.625   1.511   7.692
 1229POPC   NC318467  25.281  28.485   9.401
 1229POPC   PO418468  25.482  27.889   9.599
 1229POPC   GL118469  25.651  28.050   9.188
 1229POPC   GL218470  25.747  28.428   9.147
 1229POPC   C1A18471  25.510  28.147   8.780
 1229POPC   D2A18472  25.358  28.249   8.396
 1229POPC   C3A18473  25.349  27.981   8.038
 1229POPC   C4A18474  25.061  27.934   7.697
 1229POPC   C1B18475  25.557  28.669   8.778
 1229POPC   C2B18476  25.268  28.762   8.444
 1229POPC   C3B18477  25.242  28.575   8.027
 1229POPC   C4B18478  25.488  28.685   7.709
 1230POPC   NC318479  27.417   3.035   9.354
 1230POPC   PO418480  27.462   2.430   9.431
 1230POPC   GL118481  27.451   2.619   9.036
 1230POPC   GL218482  27.739   2.502   8.948
 1230POPC   C1A18483  27.603   2.941   8.708
 1230POPC   D2A18484  27.749   3.300   8.452
 1230POPC   C3A18485  27.691   3.177   8.019
 1230POPC   C4A18486  27.362   2.916   7.834
 1230POPC   C1B18487  27.795   2.461   8.531
 1230POPC   C2B18488  27.636   2.642   8.173
 1230POPC   C3B18489  27.710   2.545   7.758
 1230POPC   C4B18490  27.761   2.549   7.306
 1231POPC   NC318491  32.324  36.246   9.517
 1231POPC   PO418492  32.382  35.674   9.213
 1231POPC   GL118493  32.115  36.018   9.068
 1231POPC   GL218494  32.316  36.320   9.013
 1231POPC   C1A18495  31.897  36.004   8.654
 1231POPC   D2A18496  32.033  35.830   8.256
 1231POPC   C3A18497  32.377  35.972   8.002
 1231POPC   C4A18498  32.344  36.048   7.563
 1231POPC   C1B18499  31.948  36.496   8.817
 1231POPC   C2B18500  31.759  36.447   8.418
 1231POPC   C3B18501  31.859  36.250   8.038
 1231POPC   C4B18502  31.976  36.394   7.648
 1232POPC   NC318503  27.027  33.496   9.446
 1232POPC   PO418504  26.698  34.044   9.481
 1232POPC   GL118505  26.793  33.914   9.089
 1232POPC   GL218506  27.143  33.862   9.083
 1232POPC   C1A18507  26.604  33.852   8.691
 1232POPC   D2A18508  26.478  33.586   8.396
 1232POPC   C3A18509  26.585  33.749   7.988
 1232POPC   C4A18510  26.785  34.060   7.779
 1232POPC   C1B18511  27.021  33.578   8.748
 1232POPC   C2B18512  26.974  33.626   8.310
 1232POPC   C3B18513  27.157  33.716   7.892
 1232POPC   C4B18514  26.980  33.522   7.534
 1233POPC   NC318515   5.943  34.990   9.568
 1233POPC   PO418516   5.330  34.796   9.466
 1233POPC   GL118517   5.625  34.554   9.248
 1233POPC   GL218518   5.989  34.703   9.151
 1233POPC   C1A18519   5.624  34.559   8.828
 1233POPC   D2A18520   5.677  34.844   8.499
 1233POPC   C3A18521   5.784  34.610   8.149
 1233POPC   C4A18522   5.711  34.443   7.750
 1233POPC   C1B18523   6.111  34.967   8.782
 1233POPC   C2B18524   6.372  34.918   8.400
 1233POPC   C3B18525   6.405  34.799   7.976
 1233POPC   C4B18526   6.194  34.525   7.702
 1234POPC   NC318527  32.836  13.369   9.624
 1234POPC   PO418528  33.489  13.632   9.580
 1234POPC   GL118529  33.151  13.595   9.266
 1234POPC   GL218530  33.033  13.238   9.184
 1234POPC   C1A18531  33.046  13.595   8.821
 1234POPC   D2A18532  32.924  13.765   8.438
 1234POPC   C3A18533  33.017  13.511   8.111
 1234POPC   C4A18534  33.205  13.647   7.759
 1234POPC   C1B18535  32.745  13.168   8.809
 1234POPC   C2B18536  32.683  13.087   8.346
 1234POPC   C3B18537  32.719  13.152   7.892
 1234POPC   C4B18538  32.762  13.420   7.539
 1235POPC   NC318539  31.368  34.709   9.406
 1235POPC   PO418540  31.726  34.215   9.507
 1235POPC   GL118541  31.607  34.361   9.084
 1235POPC   GL218542  31.256  34.434   8.985
 1235POPC   C1A18543  31.703  34.612   8.717
 1235POPC   D2A18544  31.854  34.553   8.274
 1235POPC   C3A18545  31.543  34.440   7.979
 1235POPC   C4A18546  31.235  34.546   7.692
 1235POPC   C1B18547  31.265  34.855   8.746
 1235POPC   C2B18548  31.545  34.966   8.388
 1235POPC   C3B18549  31.456  34.952   7.973
 1235POPC   C4B18550  31.326  35.047   7.563
 1236POPC   NC318551   0.766  24.725   9.353
 1236POPC   PO418552   0.468  25.303   9.518
 1236POPC   GL118553   0.343  25.313   9.129
 1236POPC   GL218554   0.012  25.403   9.067
 1236POPC   C1A18555   0.257  25.091   8.732
 1236POPC   D2A18556   0.104  25.230   8.341
 1236POPC   C3A18557   0.329  25.089   7.970
 1236POPC   C4A18558   0.750  25.152   7.808
 1236POPC   C1B18559   0.246  25.612   8.739
 1236POPC   C2B18560   0.150  25.731   8.375
 1236POPC   C3B18561   0.321  25.599   7.995
 1236POPC   C4B18562   0.202  25.433   7.580
 1237POPC   NC318563  16.980  39.688   9.419
 1237POPC   PO418564  16.688  39.305   9.831
 1237POPC   GL118565  16.751  39.256   9.324
 1237POPC   GL218566  16.594  39.557   9.116
 1237POPC   C1A18567  16.955  39.285   8.866
 1237POPC   D2A18568  16.844  39.038   8.475
 1237POPC   C3A18569  16.992  39.107   8.050
 1237POPC   C4A18570  16.888  39.340   7.674
 1237POPC   C1B18571  16.417  39.355   8.757
 1237POPC   C2B18572  16.257  39.469   8.366
 1237POPC   C3B18573  16.420  39.324   7.950
 1237POPC   C4B18574  16.444  39.581   7.575
 1238POPC   NC318575  11.878   0.017   9.368
 1238POPC   PO418576  12.296   0.474   9.760
 1238POPC   GL118577  12.297   0.465   9.261
 1238POPC   GL218578  12.312   0.149   9.095
 1238POPC   C1A18579  12.129   0.609   8.834
 1238POPC   D2A18580  12.266   0.435   8.404
 1238POPC   C3A18581  12.070   0.434   7.978
 1238POPC   C4A18582  12.159   0.294   7.544
 1238POPC   C1B18583  12.017   0.108   8.738
 1238POPC   C2B18584  11.827   0.014   8.353
 1238POPC   C3B18585  11.612   0.189   8.067
 1238POPC   C4B18586  11.648   0.203   7.666
 1239POPC   NC318587  20.118  17.812   9.543
 1239POPC   PO418588  19.717  17.342   9.403
 1239POPC   GL118589  19.949  17.299   9.038
 1239POPC   GL218590  20.089  17.578   9.100
 1239POPC   C1A18591  19.874  17.313   8.601
 1239POPC   D2A18592  19.455  17.356   8.420
 1239POPC   C3A18593  19.557  17.461   8.003
 1239POPC   C4A18594  19.845  17.299   7.729
 1239POPC   C1B18595  20.261  17.623   8.753
 1239POPC   C2B18596  20.079  17.779   8.413
 1239POPC   C3B18597  20.047  17.617   8.061
 1239POPC   C4B18598  20.142  17.714   7.672
 1240POPC   NC318599  11.719  15.442   9.755
 1240POPC   PO418600  11.714  14.806   9.533
 1240POPC   GL118601  11.772  14.991   9.136
 1240POPC   GL218602  11.946  15.278   9.250
 1240POPC   C1A18603  12.112  15.024   8.818
 1240POPC   D2A18604  12.298  15.325   8.505
 1240POPC   C3A18605  12.306  15.147   8.081
 1240POPC   C4A18606  11.962  15.091   7.812
 1240POPC   C1B18607  11.928  15.498   8.831
 1240POPC   C2B18608  11.863  15.589   8.399
 1240POPC   C3B18609  11.681  15.522   7.995
 1240POPC   C4B18610  11.776  15.480   7.553
 1241POPC   NC318611  41.007   3.905   9.624
 1241POPC   PO418612  40.801   4.492   9.950
 1241POPC   GL118613  40.826   4.362   9.458
 1241POPC   GL218614  41.141   4.382   9.327
 1241POPC   C1A18615  40.680   4.311   8.995
 1241POPC   D2A18616  40.696   4.624   8.624
 1241POPC   C3A18617  40.736   4.472   8.166
 1241POPC   C4A18618  40.762   4.093   7.894
 1241POPC   C1B18619  41.165   4.410   8.856
 1241POPC   C2B18620  41.287   4.151   8.502
 1241POPC   C3B18621  41.219   4.228   8.073
 1241POPC   C4B18622  41.217   4.249   7.645
 1242POPC   NC318623   8.656  15.337   9.726
 1242POPC   PO418624   9.353  15.112   9.645
 1242POPC   GL118625   9.074  15.001   9.313
 1242POPC   GL218626   8.879  15.285   9.245
 1242POPC   C1A18627   8.916  14.814   8.930
 1242POPC   D2A18628   8.749  14.998   8.536
 1242POPC   C3A18629   8.886  14.834   8.143
 1242POPC   C4A18630   8.884  14.968   7.722
 1242POPC   C1B18631   8.915  15.400   8.810
 1242POPC   C2B18632   8.726  15.486   8.390
 1242POPC   C3B18633   8.960  15.412   8.012
 1242POPC   C4B18634   8.792  15.523   7.621
 1243POPC   NC318635  28.592  18.650   9.504
 1243POPC   PO418636  28.236  19.204   9.588
 1243POPC   GL118637  28.380  19.088   9.204
 1243POPC   GL218638  28.170  18.791   9.179
 1243POPC   C1A18639  28.580  19.205   8.801
 1243POPC   D2A18640  28.591  18.953   8.401
 1243POPC   C3A18641  28.531  19.092   7.954
 1243POPC   C4A18642  28.581  18.804   7.574
 1243POPC   C1B18643  28.144  18.899   8.771
 1243POPC   C2B18644  27.932  18.904   8.413
 1243POPC   C3B18645  28.076  18.835   8.021
 1243POPC   C4B18646  28.126  19.005   7.627
 1244POPC   NC318647  32.644   7.145   9.483
 1244POPC   PO418648  33.000   7.713   9.460
 1244POPC   GL118649  33.031   7.356   9.173
 1244POPC   GL218650  32.782   7.318   8.990
 1244POPC   C1A18651  33.188   7.155   8.757
 1244POPC   D2A18652  33.284   7.268   8.343
 1244POPC   C3A18653  33.212   7.071   7.952
 1244POPC   C4A18654  32.941   7.288   7.657
 1244POPC   C1B18655  33.044   7.681   8.784
 1244POPC   C2B18656  33.027   7.720   8.351
 1244POPC   C3B18657  32.805   7.438   8.122
 1244POPC   C4B18658  32.562   7.641   7.834
 1245POPC   NC318659  29.368   6.685   9.450
 1245POPC   PO418660  28.685   6.848   9.624
 1245POPC   GL118661  28.898   6.722   9.228
 1245POPC   GL218662  29.026   6.388   9.193
 1245POPC   C1A18663  29.099   6.715   8.801
 1245POPC   D2A18664  29.237   6.700   8.356
 1245POPC   C3A18665  29.158   6.839   7.909
 1245POPC   C4A18666  28.976   6.720   7.485
 1245POPC   C1B18667  29.334   6.267   8.887
 1245POPC   C2B18668  29.406   6.204   8.467
 1245POPC   C3B18669  29.205   6.285   8.063
 1245POPC   C4B18670  29.325   6.369   7.652
 1246POPC   NC318671   2.250  40.534   9.371
 1246POPC   PO418672   1.674  40.752   9.373
 1246POPC   GL118673   1.901  40.708   9.041
 1246POPC   GL218674   1.619  40.617   8.837
 1246POPC   C1A18675   2.128  40.550   8.713
 1246POPC   D2A18676   1.942  40.455   8.339
 1246POPC   C3A18677   2.266  40.449   8.058
 1246POPC   C4A18678   2.286  40.584   7.650
 1246POPC   C1B18679   1.804  41.009   8.653
 1246POPC   C2B18680   1.991  41.049   8.254
 1246POPC   C3B18681   1.906  40.798   7.921
 1246POPC   C4B18682   1.553  40.728   7.700
 1247POPC   NC318683  30.697   8.664   9.577
 1247POPC   PO418684  30.525   9.332   9.391
 1247POPC   GL118685  30.697   8.960   9.173
 1247POPC   GL218686  30.458   8.653   9.119
 1247POPC   C1A18687  30.854   8.842   8.787
 1247POPC   D2A18688  30.793   9.077   8.442
 1247POPC   C3A18689  30.710   8.906   8.046
 1247POPC   C4A18690  31.024   8.788   7.774
 1247POPC   C1B18691  30.333   8.965   8.810
 1247POPC   C2B18692  30.296   8.954   8.375
 1247POPC   C3B18693  30.249   9.122   7.950
 1247POPC   C4B18694  30.524   9.081   7.570
 1248POPC   NC318695  37.562  43.840   9.534
 1248POPC   PO418696  38.151  44.099   9.474
 1248POPC   GL118697  37.849  43.935   9.066
 1248POPC   GL218698  37.467  43.857   9.046
 1248POPC   C1A18699  37.669  43.747   8.604
 1248POPC   D2A18700  37.624  43.663   8.122
 1248POPC   C3A18701  37.879  43.916   7.877
 1248POPC   C4A18702  38.008  43.990   7.434
 1248POPC   C1B18703  37.212  43.976   8.705
 1248POPC   C2B18704  37.310  44.032   8.271
 1248POPC   C3B18705  37.379  44.020   7.817
 1248POPC   C4B18706  37.531  44.194   7.401
 1249POPC   NC318707   7.882   7.149   9.428
 1249POPC   PO418708   7.161   7.268   9.529
 1249POPC   GL118709   7.406   7.305   9.146
 1249POPC   GL218710   7.682   7.546   9.121
 1249POPC   C1A18711   7.304   7.471   8.740
 1249POPC   D2A18712   7.446   7.650   8.330
 1249POPC   C3A18713   7.288   7.459   7.941
 1249POPC   C4A18714   7.103   7.321   7.531
 1249POPC   C1B18715   7.811   7.465   8.699
 1249POPC   C2B18716   7.982   7.216   8.366
 1249POPC   C3B18717   7.766   7.265   7.981
 1249POPC   C4B18718   7.737   7.679   7.834
 1250POPC   NC318719   0.699  22.934   9.877
 1250POPC   PO418720   0.251  23.264   9.437
 1250POPC   GL118721   0.028  23.188   9.059
 1250POPC   GL218722   0.242  22.921   8.997
 1250POPC   C1A18723  44.993  23.212   8.613
 1250POPC   D2A18724   0.342  23.266   8.326
 1250POPC   C3A18725   0.379  23.013   7.988
 1250POPC   C4A18726   0.322  22.560   7.892
 1250POPC   C1B18727   0.558  22.906   8.711
 1250POPC   C2B18728   0.858  23.111   8.498
 1250POPC   C3B18729   0.857  22.889   8.115
 1250POPC   C4B18730   0.736  22.825   7.705
 1251POPC   NC318731  14.675  26.019   9.660
 1251POPC   PO418732  15.350  26.304   9.527
 1251POPC   GL118733  15.270  26.130   9.124
 1251POPC   GL218734  14.993  25.920   9.181
 1251POPC   C1A18735  15.297  25.920   8.724
 1251POPC   D2A18736  15.246  26.103   8.339
 1251POPC   C3A18737  15.451  25.938   7.998
 1251POPC   C4A18738  15.274  25.945   7.575
 1251POPC   C1B18739  14.814  25.716   8.788
 1251POPC   C2B18740  14.993  25.646   8.368
 1251POPC   C3B18741  14.947  25.819   7.973
 1251POPC   C4B18742  14.730  25.838   7.609
 1252POPC   NC318743  19.179  43.643   9.621
 1252POPC   PO418744  18.670  44.018   9.657
 1252POPC   GL118745  18.991  44.041   9.272
 1252POPC   GL218746  18.960  43.736   9.163
 1252POPC   C1A18747  19.258  44.105   8.880
 1252POPC   D2A18748  19.380  43.968   8.442
 1252POPC   C3A18749  19.247  44.163   8.047
 1252POPC   C4A18750  18.959  44.008   7.737
 1252POPC   C1B18751  19.060  43.636   8.751
 1252POPC   C2B18752  18.834  43.419   8.413
 1252POPC   C3B18753  18.971  43.483   7.972
 1252POPC   C4B18754  18.777  43.577   7.549
 1253POPC   NC318755  22.860  42.754   9.512
 1253POPC   PO418756  23.136  42.071   9.577
 1253POPC   GL118757  23.165  42.275   9.161
 1253POPC   GL218758  22.871  42.522   9.079
 1253POPC   C1A18759  23.164  42.328   8.721
 1253POPC   D2A18760  23.348  42.596   8.439
 1253POPC   C3A18761  23.144  42.566   8.060
 1253POPC   C4A18762  23.084  42.160   7.907
 1253POPC   C1B18763  22.642  42.534   8.714
 1253POPC   C2B18764  22.749  42.377   8.346
 1253POPC   C3B18765  22.625  42.518   7.972
 1253POPC   C4B18766  22.839  42.513   7.619
 1254POPC   NC318767  21.984  30.566   9.436
 1254POPC   PO418768  22.506  30.975   9.570
 1254POPC   GL118769  22.290  30.916   9.213
 1254POPC   GL218770  22.429  30.573   9.202
 1254POPC   C1A18771  22.065  30.989   8.814
 1254POPC   D2A18772  21.953  30.727   8.434
 1254POPC   C3A18773  22.160  30.848   8.044
 1254POPC   C4A18774  22.056  30.860   7.614
 1254POPC   C1B18775  22.223  30.505   8.844
 1254POPC   C2B18776  22.197  30.256   8.535
 1254POPC   C3B18777  22.264  30.314   8.133
 1254POPC   C4B18778  22.340  30.440   7.756
 1255POPC   NC318779  32.789   0.762   9.529
 1255POPC   PO418780  33.269   0.263   9.453
 1255POPC   GL118781  33.070   0.488   9.159
 1255POPC   GL218782  32.743   0.310   9.209
 1255POPC   C1A18783  33.287   0.612   8.786
 1255POPC   D2A18784  33.422   0.832   8.422
 1255POPC   C3A18785  33.297   0.620   8.059
 1255POPC   C4A18786  33.159   0.846   7.708
 1255POPC   C1B18787  32.829   0.277   8.770
 1255POPC   C2B18788  32.867   0.636   8.472
 1255POPC   C3B18789  32.790   0.693   8.043
 1255POPC   C4B18790  32.877   0.280   7.869
 1256POPC   NC318791  22.068  16.471   9.410
 1256POPC   PO418792  22.634  16.591   9.837
 1256POPC   GL118793  22.531  16.789   9.331
 1256POPC   GL218794  22.400  16.569   9.055
 1256POPC   C1A18795  22.470  17.012   8.879
 1256POPC   D2A18796  22.196  16.909   8.561
 1256POPC   C3A18797  22.382  16.824   8.170
 1256POPC   C4A18798  22.292  16.958   7.756
 1256POPC   C1B18799  22.327  16.427   8.635
 1256POPC   C2B18800  21.978  16.529   8.340
 1256POPC   C3B18801  21.891  16.750   7.991
 1256POPC   C4B18802  21.967  16.506   7.665
 1257POPC   NC318803  33.340   7.466   9.637
 1257POPC   PO418804  33.938   7.216   9.392
 1257POPC   GL118805  33.804   7.441   9.065
 1257POPC   GL218806  33.478   7.565   9.120
 1257POPC   C1A18807  33.708   7.294   8.645
 1257POPC   D2A18808  33.764   7.166   8.212
 1257POPC   C3A18809  33.829   7.478   7.893
 1257POPC   C4A18810  33.907   7.525   7.452
 1257POPC   C1B18811  33.580   7.777   8.748
 1257POPC   C2B18812  33.560   7.683   8.301
 1257POPC   C3B18813  33.303   7.592   7.933
 1257POPC   C4B18814  33.438   7.398   7.571
 1258POPC   NC318815  11.818  41.090   9.323
 1258POPC   PO418816  11.907  40.438   9.343
 1258POPC   GL118817  12.232  40.721   9.190
 1258POPC   GL218818  12.453  40.479   9.064
 1258POPC   C1A18819  12.276  40.980   8.796
 1258POPC   D2A18820  11.894  40.985   8.500
 1258POPC   C3A18821  11.757  40.791   8.115
 1258POPC   C4A18822  11.596  40.980   7.745
 1258POPC   C1B18823  12.072  40.521   8.730
 1258POPC   C2B18824  12.207  40.588   8.320
 1258POPC   C3B18825  12.207  40.761   7.910
 1258POPC   C4B18826  12.057  40.778   7.515
 1259POPC   NC318827  36.229  42.137   9.569
 1259POPC   PO418828  36.649  42.523   9.343
 1259POPC   GL118829  36.423  42.198   9.093
 1259POPC   GL218830  36.066  42.259   9.101
 1259POPC   C1A18831  36.256  42.050   8.669
 1259POPC   D2A18832  36.318  41.763   8.323
 1259POPC   C3A18833  36.219  41.991   7.956
 1259POPC   C4A18834  35.844  42.172   7.764
 1259POPC   C1B18835  35.933  42.442   8.704
 1259POPC   C2B18836  35.985  42.341   8.272
 1259POPC   C3B18837  36.076  42.605   7.923
 1259POPC   C4B18838  35.962  42.584   7.478
 1260POPC   NC318839   1.372  32.899   9.545
 1260POPC   PO418840   1.572  33.475   9.288
 1260POPC   GL118841   1.277  33.198   9.027
 1260POPC   GL218842   1.271  32.821   9.056
 1260POPC   C1A18843   1.212  33.042   8.590
 1260POPC   D2A18844   1.494  32.883   8.270
 1260POPC   C3A18845   1.419  33.129   7.911
 1260POPC   C4A18846   1.283  33.011   7.522
 1260POPC   C1B18847   0.858  32.759   8.816
 1260POPC   C2B18848   0.888  32.631   8.371
 1260POPC   C3B18849   1.002  32.826   7.953
 1260POPC   C4B18850   0.821  32.798   7.528
 1261POPC   NC318851  18.909  18.111   9.668
 1261POPC   PO418852  19.165  18.650   9.432
 1261POPC   GL118853  19.121  18.329   9.122
 1261POPC   GL218854  19.479  18.376   9.102
 1261POPC   C1A18855  18.930  18.004   8.809
 1261POPC   D2A18856  18.729  18.024   8.378
 1261POPC   C3A18857  18.739  18.477   8.234
 1261POPC   C4A18858  18.972  18.662   7.904
 1261POPC   C1B18859  19.389  18.255   8.668
 1261POPC   C2B18860  19.207  18.202   8.262
 1261POPC   C3B18861  19.349  18.329   7.881
 1261POPC   C4B18862  19.317  18.234   7.480
 1262POPC   NC318863  44.226  31.570   9.318
 1262POPC   PO418864  44.717  31.339   9.776
 1262POPC   GL118865  44.736  31.332   9.334
 1262POPC   GL218866  44.743  31.682   9.208
 1262POPC   C1A18867  44.630  31.222   8.913
 1262POPC   D2A18868  44.587  31.515   8.574
 1262POPC   C3A18869  44.658  31.445   8.112
 1262POPC   C4A18870  44.391  31.630   7.776
 1262POPC   C1B18871  44.856  31.913   8.806
 1262POPC   C2B18872  44.891  31.860   8.342
 1262POPC   C3B18873  44.862  31.885   7.889
 1262POPC   C4B18874  44.895  31.841   7.412
 1263POPC   NC318875  27.863  37.384   9.455
 1263POPC   PO418876  27.820  36.687   9.428
 1263POPC   GL118877  27.699  36.857   9.047
 1263POPC   GL218878  27.421  37.078   9.102
 1263POPC   C1A18879  27.815  36.814   8.618
 1263POPC   D2A18880  27.417  36.796   8.330
 1263POPC   C3A18881  27.463  36.592   7.953
 1263POPC   C4A18882  27.894  36.618   7.834
 1263POPC   C1B18883  27.507  37.202   8.670
 1263POPC   C2B18884  27.779  37.164   8.263
 1263POPC   C3B18885  27.670  37.073   7.871
 1263POPC   C4B18886  27.340  36.998   7.596
 1264POPC   NC318887   6.816   2.448   9.462
 1264POPC   PO418888   6.242   2.853   9.387
 1264POPC   GL118889   6.557   2.784   9.108
 1264POPC   GL218890   6.425   2.451   9.066
 1264POPC   C1A18891   6.822   2.614   8.773
 1264POPC   D2A18892   6.850   2.489   8.358
 1264POPC   C3A18893   6.821   2.846   8.105
 1264POPC   C4A18894   7.010   2.991   7.745
 1264POPC   C1B18895   6.278   2.644   8.682
 1264POPC   C2B18896   6.352   2.671   8.232
 1264POPC   C3B18897   6.483   2.619   7.792
 1264POPC   C4B18898   6.349   2.444   7.364
 1265POPC   NC318899   9.795   7.402   9.530
 1265POPC   PO418900   9.262   7.090   9.200
 1265POPC   GL118901   9.594   7.414   9.069
 1265POPC   GL218902  10.005   7.383   9.079
 1265POPC   C1A18903   9.773   7.722   8.796
 1265POPC   D2A18904   9.949   7.699   8.394
 1265POPC   C3A18905   9.694   7.534   8.076
 1265POPC   C4A18906   9.958   7.608   7.747
 1265POPC   C1B18907   9.897   7.222   8.693
 1265POPC   C2B18908   9.867   7.002   8.335
 1265POPC   C3B18909  10.011   7.135   7.967
 1265POPC   C4B18910   9.840   7.125   7.581
 1266POPC   NC318911  15.661  12.546   9.587
 1266POPC   PO418912  16.234  12.994   9.617
 1266POPC   GL118913  16.153  12.738   9.245
 1266POPC   GL218914  15.804  12.816   9.173
 1266POPC   C1A18915  16.131  12.679   8.803
 1266POPC   D2A18916  16.086  12.859   8.397
 1266POPC   C3A18917  16.090  12.707   7.991
 1266POPC   C4A18918  16.035  12.983   7.613
 1266POPC   C1B18919  15.642  12.850   8.759
 1266POPC   C2B18920  15.603  12.729   8.331
 1266POPC   C3B18921  15.637  12.963   7.968
 1266POPC   C4B18922  15.533  12.880   7.571
 1267POPC   NC318923  27.576  10.799   9.728
 1267POPC   PO418924  28.173  10.659   9.625
 1267POPC   GL118925  27.878  10.828   9.311
 1267POPC   GL218926  27.629  10.561   9.254
 1267POPC   C1A18927  27.950  10.820   8.872
 1267POPC   D2A18928  27.891  10.562   8.499
 1267POPC   C3A18929  27.728  10.695   8.097
 1267POPC   C4A18930  27.770  10.502   7.685
 1267POPC   C1B18931  27.491  10.594   8.819
 1267POPC   C2B18932  27.416  10.386   8.403
 1267POPC   C3B18933  27.455  10.206   7.972
 1267POPC   C4B18934  27.345  10.247   7.519
 1268POPC   NC318935  40.505  15.757   9.528
 1268POPC   PO418936  40.895  16.160   9.830
 1268POPC   GL118937  40.790  16.114   9.284
 1268POPC   GL218938  40.737  15.816   9.074
 1268POPC   C1A18939  40.641  16.192   8.782
 1268POPC   D2A18940  40.497  15.952   8.387
 1268POPC   C3A18941  40.608  16.051   7.956
 1268POPC   C4A18942  41.014  16.253   7.835
 1268POPC   C1B18943  41.121  15.989   8.909
 1268POPC   C2B18944  41.208  15.956   8.479
 1268POPC   C3B18945  41.037  15.808   8.104
 1268POPC   C4B18946  41.213  15.673   7.739
 1269POPC   NC318947  27.924  12.979   9.468
 1269POPC   PO418948  27.166  12.822   9.444
 1269POPC   GL118949  27.499  12.874   9.165
 1269POPC   GL218950  27.732  12.582   9.181
 1269POPC   C1A18951  27.735  12.975   8.786
 1269POPC   D2A18952  27.827  13.215   8.422
 1269POPC   C3A18953  27.773  12.966   8.056
 1269POPC   C4A18954  27.888  12.566   7.892
 1269POPC   C1B18955  27.487  12.520   8.795
 1269POPC   C2B18956  27.500  12.650   8.376
 1269POPC   C3B18957  27.380  12.629   7.965
 1269POPC   C4B18958  27.469  12.398   7.600
 1270POPC   NC318959   4.718  30.517   9.635
 1270POPC   PO418960   4.057  30.846   9.596
 1270POPC   GL118961   4.221  30.866   9.249
 1270POPC   GL218962   4.583  30.895   9.272
 1270POPC   C1A18963   4.122  31.074   8.865
 1270POPC   D2A18964   3.917  30.928   8.479
 1270POPC   C3A18965   4.068  31.065   8.106
 1270POPC   C4A18966   3.797  31.041   7.764
 1270POPC   C1B18967   4.461  30.697   8.859
 1270POPC   C2B18968   4.309  30.614   8.467
 1270POPC   C3B18969   4.430  30.703   8.067
 1270POPC   C4B18970   4.298  30.646   7.664
 1271POPC   NC318971   3.134   3.490   9.607
 1271POPC   PO418972   2.475   3.451   9.655
 1271POPC   GL118973   2.638   3.323   9.251
 1271POPC   GL218974   2.877   3.602   9.160
 1271POPC   C1A18975   2.427   3.306   8.823
 1271POPC   D2A18976   2.625   3.169   8.419
 1271POPC   C3A18977   2.474   3.275   7.999
 1271POPC   C4A18978   2.643   3.435   7.625
 1271POPC   C1B18979   2.898   3.502   8.729
 1271POPC   C2B18980   3.038   3.478   8.295
 1271POPC   C3B18981   2.977   3.691   7.895
 1271POPC   C4B18982   2.908   3.805   7.401
 1272POPC   NC318983  28.505  25.461   9.662
 1272POPC   PO418984  28.236  24.979   9.237
 1272POPC   GL118985  28.222  25.429   9.213
 1272POPC   GL218986  27.921  25.526   9.061
 1272POPC   C1A18987  28.428  25.589   8.857
 1272POPC   D2A18988  28.615  25.404   8.456
 1272POPC   C3A18989  28.445  25.419   8.034
 1272POPC   C4A18990  28.487  25.367   7.594
 1272POPC   C1B18991  28.076  25.274   8.650
 1272POPC   C2B18992  28.166  25.045   8.233
 1272POPC   C3B18993  28.078  25.134   7.775
 1272POPC   C4B18994  27.981  24.869   7.411
 1273POPC   NC318995  36.460   9.630   9.511
 1273POPC   PO418996  35.858   9.868   9.373
 1273POPC   GL118997  36.173   9.795   9.092
 1273POPC   GL218998  36.093   9.461   9.051
 1273POPC   C1A18999  36.161   9.778   8.647
 1273POPC   D2A19000  35.944   9.935   8.325
 1273POPC   C3A19001  36.162   9.907   7.973
 1273POPC   C4A19002  35.973   9.820   7.619
 1273POPC   C1B19003  36.010   9.278   8.643
 1273POPC   C2B19004  35.951   9.418   8.251
 1273POPC   C3B19005  36.121   9.382   7.852
 1273POPC   C4B19006  36.320   9.428   7.450
 1274POPC   NC319007  44.447  13.463   9.496
 1274POPC   PO419008  44.641  14.178   9.467
 1274POPC   GL119009  44.530  13.840   9.185
 1274POPC   GL219010  44.778  13.860   8.971
 1274POPC   C1A19011  44.476  13.477   8.837
 1274POPC   D2A19012  44.482  13.613   8.378
 1274POPC   C3A19013  44.551  13.324   8.009
 1274POPC   C4A19014  44.938  13.291   7.786
 1274POPC   C1B19015  44.328  13.954   8.732
 1274POPC   C2B19016  44.096  13.994   8.349
 1274POPC   C3B19017  44.308  14.011   7.936
 1274POPC   C4B19018  44.287  14.007   7.493
 1275POPC   NC319019  12.720  17.321   9.628
 1275POPC   PO419020  13.168  17.814   9.617
 1275POPC   GL119021  12.846  17.890   9.296
 1275POPC   GL219022  12.733  17.558   9.166
 1275POPC   C1A19023  12.906  17.912   8.861
 1275POPC   D2A19024  12.709  17.620   8.540
 1275POPC   C3A19025  12.789  17.552   8.077
 1275POPC   C4A19026  12.880  17.485   7.627
 1275POPC   C1B19027  12.616  17.227   8.861
 1275POPC   C2B19028  12.422  17.130   8.442
 1275POPC   C3B19029  12.470  17.146   7.994
 1275POPC   C4B19030  12.374  17.428   7.687
 1276POPC   NC319031  17.897  20.274   9.215
 1276POPC   PO419032  18.291  20.746   9.527
 1276POPC   GL119033  18.243  20.672   9.085
 1276POPC   GL219034  18.016  20.552   8.823
 1276POPC   C1A19035  18.497  20.587   8.707
 1276POPC   D2A19036  18.314  20.695   8.330
 1276POPC   C3A19037  18.328  20.434   8.026
 1276POPC   C4A19038  18.501  20.626   7.682
 1276POPC   C1B19039  18.123  20.973   8.707
 1276POPC   C2B19040  17.949  21.111   8.311
 1276POPC   C3B19041  18.030  20.864   7.913
 1276POPC   C4B19042  17.986  20.499   7.632
 1277POPC   NC319043   2.855  38.213   9.534
 1277POPC   PO419044   2.555  37.526   9.450
 1277POPC   GL119045   2.499  37.732   9.087
 1277POPC   GL219046   2.778  37.943   9.111
 1277POPC   C1A19047   2.683  37.732   8.662
 1277POPC   D2A19048   2.595  37.879   8.264
 1277POPC   C3A19049   2.639  37.542   7.957
 1277POPC   C4A19050   2.774  37.533   7.518
 1277POPC   C1B19051   3.123  38.048   8.829
 1277POPC   C2B19052   3.237  37.875   8.434
 1277POPC   C3B19053   3.054  37.877   8.044
 1277POPC   C4B19054   2.962  38.102   7.683
 1278POPC   NC319055  22.016  33.686   9.519
 1278POPC   PO419056  22.603  34.058   9.596
 1278POPC   GL119057  22.297  33.979   9.209
 1278POPC   GL219058  21.946  33.910   9.069
 1278POPC   C1A19059  22.308  33.612   8.868
 1278POPC   D2A19060  22.270  33.758   8.447
 1278POPC   C3A19061  22.356  33.561   8.077
 1278POPC   C4A19062  22.223  33.695   7.708
 1278POPC   C1B19063  21.819  33.676   8.745
 1278POPC   C2B19064  21.781  33.446   8.383
 1278POPC   C3B19065  21.814  33.627   8.006
 1278POPC   C4B19066  21.748  33.953   7.720
 1279POPC   NC319067   0.011  10.515   9.311
 1279POPC   PO419068   0.692  10.311   9.536
 1279POPC   GL119069   0.518  10.500   9.144
 1279POPC   GL219070   0.842  10.559   9.062
 1279POPC   C1A19071   0.271  10.800   8.810
 1279POPC   D2A19072   0.199  10.919   8.374
 1279POPC   C3A19073   0.344  10.575   8.097
 1279POPC   C4A19074   0.741  10.523   7.879
 1279POPC   C1B19075   0.712  10.621   8.654
 1279POPC   C2B19076   0.710  10.878   8.287
 1279POPC   C3B19077   0.935  10.985   7.928
 1279POPC   C4B19078   0.878  10.978   7.483
 1280POPC   NC319079  21.309  30.552   9.751
 1280POPC   PO419080  21.749  30.971   9.479
 1280POPC   GL119081  21.485  30.624   9.265
 1280POPC   GL219082  21.620  30.299   9.167
 1280POPC   C1A19083  21.252  30.526   8.877
 1280POPC   D2A19084  21.155  30.736   8.469
 1280POPC   C3A19085  21.327  30.584   8.059
 1280POPC   C4A19086  21.166  30.643   7.645
 1280POPC   C1B19087  21.738  30.374   8.765
 1280POPC   C2B19088  21.716  30.269   8.340
 1280POPC   C3B19089  21.813  30.472   7.936
 1280POPC   C4B19090  21.675  30.510   7.500
 1281POPC   NC319091   2.219  27.587   9.469
 1281POPC   PO419092   1.543  27.706   9.685
 1281POPC   GL119093   1.773  27.710   9.213
 1281POPC   GL219094   1.566  27.830   8.966
 1281POPC   C1A19095   2.005  27.580   8.794
 1281POPC   D2A19096   2.302  27.562   8.412
 1281POPC   C3A19097   2.154  27.447   7.985
 1281POPC   C4A19098   1.973  27.219   7.603
 1281POPC   C1B19099   1.759  28.107   8.725
 1281POPC   C2B19100   1.771  28.253   8.353
 1281POPC   C3B19101   1.987  27.991   8.083
 1281POPC   C4B19102   1.853  27.828   7.700
 1282POPC   NC319103  18.278  19.466   9.258
 1282POPC   PO419104  18.304  20.155   9.404
 1282POPC   GL119105  18.338  20.166   8.984
 1282POPC   GL219106  18.118  19.881   8.995
 1282POPC   C1A19107  18.242  20.155   8.544
 1282POPC   D2A19108  18.458  19.824   8.373
 1282POPC   C3A19109  18.527  19.843   7.957
 1282POPC   C4A19110  18.356  20.136   7.613
 1282POPC   C1B19111  18.072  19.638   8.671
 1282POPC   C2B19112  17.965  19.756   8.295
 1282POPC   C3B19113  18.043  20.008   7.991
 1282POPC   C4B19114  18.128  19.680   7.676
 1283POPC   NC319115  30.566  34.863   9.485
 1283POPC   PO419116  31.058  34.356   9.480
 1283POPC   GL119117  30.783  34.501   9.196
 1283POPC   GL219118  30.933  34.828   9.130
 1283POPC   C1A19119  30.586  34.465   8.795
 1283POPC   D2A19120  30.489  34.652   8.374
 1283POPC   C3A19121  30.673  34.415   8.026
 1283POPC   C4A19122  30.472  34.450   7.611
 1283POPC   C1B19123  30.734  34.966   8.734
 1283POPC   C2B19124  30.703  35.129   8.297
 1283POPC   C3B19125  30.595  34.888   7.904
 1283POPC   C4B19126  30.841  34.824   7.498
 1284POPC   NC319127  27.949  19.578   9.615
 1284POPC   PO419128  28.539  19.884   9.545
 1284POPC   GL119129  28.286  19.717   9.210
 1284POPC   GL219130  28.161  20.022   9.093
 1284POPC   C1A19131  28.443  19.725   8.760
 1284POPC   D2A19132  28.699  19.686   8.385
 1284POPC   C3A19133  28.492  19.644   7.978
 1284POPC   C4A19134  28.490  19.804   7.565
 1284POPC   C1B19135  27.961  19.910   8.724
 1284POPC   C2B19136  28.152  19.813   8.340
 1284POPC   C3B19137  27.940  19.875   7.982
 1284POPC   C4B19138  27.986  20.050   7.553
 1285POPC   NC319139  33.735  31.705   9.453
 1285POPC   PO419140  33.908  31.051   9.411
 1285POPC   GL119141  33.968  31.345   9.070
 1285POPC   GL219142  33.940  31.721   9.009
 1285POPC   C1A19143  33.923  31.360   8.645
 1285POPC   D2A19144  33.796  31.610   8.350
 1285POPC   C3A19145  33.877  31.355   7.986
 1285POPC   C4A19146  34.153  31.382   7.653
 1285POPC   C1B19147  33.536  31.869   8.818
 1285POPC   C2B19148  33.327  31.861   8.403
 1285POPC   C3B19149  33.554  31.859   7.994
 1285POPC   C4B19150  33.746  31.682   7.607
 1286POPC   NC319151  21.704  42.599   9.331
 1286POPC   PO419152  21.176  43.022   9.397
 1286POPC   GL119153  21.473  43.070   9.103
 1286POPC   GL219154  21.373  42.764   8.982
 1286POPC   C1A19155  21.548  43.117   8.679
 1286POPC   D2A19156  21.512  43.291   8.360
 1286POPC   C3A19157  21.557  42.968   8.105
 1286POPC   C4A19158  21.637  42.957   7.699
 1286POPC   C1B19159  21.064  43.019   8.727
 1286POPC   C2B19160  21.043  43.108   8.290
 1286POPC   C3B19161  21.208  43.385   7.973
 1286POPC   C4B19162  20.962  43.652   7.716
 1287POPC   NC319163  29.591  27.275   9.426
 1287POPC   PO419164  28.944  27.485   9.562
 1287POPC   GL119165  29.171  27.592   9.167
 1287POPC   GL219166  29.333  27.325   9.013
 1287POPC   C1A19167  29.025  27.623   8.732
 1287POPC   D2A19168  28.789  27.718   8.350
 1287POPC   C3A19169  29.013  27.659   7.943
 1287POPC   C4A19170  29.313  27.821   7.579
 1287POPC   C1B19171  29.311  27.149   8.639
 1287POPC   C2B19172  29.127  27.288   8.317
 1287POPC   C3B19173  29.157  27.116   7.981
 1287POPC   C4B19174  29.370  27.344   7.724
 1288POPC   NC319175  11.170  15.994   9.734
 1288POPC   PO419176  10.500  15.935   9.620
 1288POPC   GL119177  10.458  16.038   9.166
 1288POPC   GL219178  10.794  16.185   9.126
 1288POPC   C1A19179  10.461  15.790   8.762
 1288POPC   D2A19180  10.577  15.649   8.323
 1288POPC   C3A19181  10.588  15.923   7.939
 1288POPC   C4A19182  10.874  15.902   7.568
 1288POPC   C1B19183  10.776  16.200   8.729
 1288POPC   C2B19184  10.628  16.210   8.353
 1288POPC   C3B19185  10.617  16.523   8.024
 1288POPC   C4B19186  10.668  16.357   7.626
 1289POPC   NC319187  14.028  36.202   9.372
 1289POPC   PO419188  14.660  36.046   9.730
 1289POPC   GL119189  14.549  36.167   9.273
 1289POPC   GL219190  14.374  35.858   9.190
 1289POPC   C1A19191  14.338  36.287   8.821
 1289POPC   D2A19192  14.000  36.235   8.481
 1289POPC   C3A19193  14.176  36.206   8.058
 1289POPC   C4A19194  14.409  36.410   7.740
 1289POPC   C1B19195  14.640  35.864   8.821
 1289POPC   C2B19196  14.478  35.931   8.399
 1289POPC   C3B19197  14.515  35.723   8.011
 1289POPC   C4B19198  14.659  35.956   7.656
 1290POPC   NC319199  31.710   9.805   9.389
 1290POPC   PO419200  31.147  10.085   9.492
 1290POPC   GL119201  31.281   9.934   9.123
 1290POPC   GL219202  31.279   9.572   9.210
 1290POPC   C1A19203  31.526  10.091   8.795
 1290POPC   D2A19204  31.416  10.180   8.381
 1290POPC   C3A19205  31.719  10.028   8.100
 1290POPC   C4A19206  31.493  10.021   7.727
 1290POPC   C1B19207  31.566   9.490   8.855
 1290POPC   C2B19208  31.570   9.663   8.478
 1290POPC   C3B19209  31.481   9.584   8.074
 1290POPC   C4B19210  31.753   9.580   7.733
 1291POPC   NC319211  31.688  33.808   9.697
 1291POPC   PO419212  31.061  33.568   9.877
 1291POPC   GL119213  31.298  33.657   9.433
 1291POPC   GL219214  31.663  33.555   9.257
 1291POPC   C1A19215  31.353  33.875   9.006
 1291POPC   D2A19216  31.535  33.651   8.598
 1291POPC   C3A19217  31.367  33.628   8.161
 1291POPC   C4A19218  31.401  33.426   7.741
 1291POPC   C1B19219  31.857  33.904   8.960
 1291POPC   C2B19220  31.711  34.125   8.584
 1291POPC   C3B19221  31.717  33.992   8.162
 1291POPC   C4B19222  31.523  33.947   7.747
 1292POPC   NC319223   3.942   3.765  10.129
 1292POPC   PO419224   3.603   3.420   9.594
 1292POPC   GL119225   3.465   3.461   9.192
 1292POPC   GL219226   3.798   3.460   9.082
 1292POPC   C1A19227   3.401   3.439   8.753
 1292POPC   D2A19228   3.510   3.273   8.350
 1292POPC   C3A19229   3.407   3.407   7.936
 1292POPC   C4A19230   3.191   3.423   7.545
 1292POPC   C1B19231   3.921   3.453   8.644
 1292POPC   C2B19232   3.987   3.150   8.286
 1292POPC   C3B19233   3.879   3.210   7.876
 1292POPC   C4B19234   3.714   3.424   7.509
 1293POPC   NC319235  33.524   7.065   9.285
 1293POPC   PO419236  33.988   6.471   9.352
 1293POPC   GL119237  33.674   6.606   9.079
 1293POPC   GL219238  33.367   6.580   9.300
 1293POPC   C1A19239  33.799   6.774   8.665
 1293POPC   D2A19240  34.184   6.900   8.408
 1293POPC   C3A19241  34.117   6.873   7.968
 1293POPC   C4A19242  33.989   6.542   7.669
 1293POPC   C1B19243  33.230   6.632   8.833
 1293POPC   C2B19244  33.356   6.751   8.414
 1293POPC   C3B19245  33.620   6.696   8.044
 1293POPC   C4B19246  33.707   6.990   7.693
 1294POPC   NC319247  41.595  27.286   9.614
 1294POPC   PO419248  41.329  27.836  10.017
 1294POPC   GL119249  41.438  27.747   9.475
 1294POPC   GL219250  41.795  27.678   9.290
 1294POPC   C1A19251  41.418  27.576   8.995
 1294POPC   D2A19252  41.599  27.731   8.576
 1294POPC   C3A19253  41.359  27.709   8.188
 1294POPC   C4A19254  41.380  27.480   7.791
 1294POPC   C1B19255  41.900  27.418   8.880
 1294POPC   C2B19256  41.849  27.310   8.439
 1294POPC   C3B19257  41.819  27.528   8.047
 1294POPC   C4B19258  41.918  27.311   7.645
 1295POPC   NC319259  36.743  37.228   9.543
 1295POPC   PO419260  36.994  36.633   9.520
 1295POPC   GL119261  36.908  36.912   9.167
 1295POPC   GL219262  37.178  37.160   9.213
 1295POPC   C1A19263  36.779  36.923   8.708
 1295POPC   D2A19264  36.772  36.723   8.260
 1295POPC   C3A19265  36.855  36.999   7.931
 1295POPC   C4A19266  36.763  37.211   7.554
 1295POPC   C1B19267  37.224  37.222   8.759
 1295POPC   C2B19268  37.219  37.000   8.350
 1295POPC   C3B19269  37.294  36.764   7.968
 1295POPC   C4B19270  37.231  37.012   7.591
 1296POPC   NC319271  15.340   5.391   9.613
 1296POPC   PO419272  15.120   4.716   9.620
 1296POPC   GL119273  15.314   4.945   9.281
 1296POPC   GL219274  15.020   5.119   9.255
 1296POPC   C1A19275  15.359   5.276   8.918
 1296POPC   D2A19276  15.596   5.393   8.527
 1296POPC   C3A19277  15.393   5.194   8.178
 1296POPC   C4A19278  15.257   5.088   7.766
 1296POPC   C1B19279  14.908   4.987   8.835
 1296POPC   C2B19280  15.034   4.866   8.417
 1296POPC   C3B19281  14.884   4.712   8.027
 1296POPC   C4B19282  14.844   4.860   7.613
 1297POPC   NC319283  14.306   3.239   9.478
 1297POPC   PO419284  14.740   3.792   9.585
 1297POPC   GL119285  14.440   3.668   9.218
 1297POPC   GL219286  14.150   3.891   9.138
 1297POPC   C1A19287  14.409   3.608   8.773
 1297POPC   D2A19288  14.466   3.258   8.483
 1297POPC   C3A19289  14.274   3.263   8.076
 1297POPC   C4A19290  14.314   3.478   7.708
 1297POPC   C1B19291  13.929   3.818   8.788
 1297POPC   C2B19292  14.035   3.611   8.403
 1297POPC   C3B19293  13.997   3.770   8.008
 1297POPC   C4B19294  14.168   3.963   7.668
 1298POPC   NC319295  40.883   4.896   9.582
 1298POPC   PO419296  41.623   4.837   9.513
 1298POPC   GL119297  41.820   4.994   9.114
 1298POPC   GL219298  41.569   5.192   8.971
 1298POPC   C1A19299  41.971   5.085   8.691
 1298POPC   D2A19300  41.964   4.792   8.349
 1298POPC   C3A19301  41.893   4.955   7.975
 1298POPC   C4A19302  41.903   5.318   7.761
 1298POPC   C1B19303  41.575   5.460   8.629
 1298POPC   C2B19304  41.588   5.167   8.328
 1298POPC   C3B19305  41.340   5.006   8.036
 1298POPC   C4B19306  41.469   5.053   7.624
 1299POPC   NC319307  38.607  22.526   9.453
 1299POPC   PO419308  38.072  22.090   9.483
 1299POPC   GL119309  38.395  22.107   9.198
 1299POPC   GL219310  38.284  22.433   9.102
 1299POPC   C1A19311  38.593  22.134   8.781
 1299POPC   D2A19312  38.372  22.166   8.371
 1299POPC   C3A19313  38.601  21.911   8.082
 1299POPC   C4A19314  38.663  21.967   7.652
 1299POPC   C1B19315  38.098  22.251   8.799
 1299POPC   C2B19316  37.968  22.533   8.518
 1299POPC   C3B19317  38.046  22.474   8.095
 1299POPC   C4B19318  38.172  22.105   7.825
 1300POPC   NC319319  38.947  33.674   9.549
 1300POPC   PO419320  39.657  33.799   9.511
 1300POPC   GL119321  39.367  33.858   9.208
 1300POPC   GL219322  39.134  33.570   9.095
 1300POPC   C1A19323  39.423  34.114   8.855
 1300POPC   D2A19324  39.180  34.102   8.516
 1300POPC   C3A19325  39.379  34.052   8.153
 1300POPC   C4A19326  39.311  34.253   7.798
 1300POPC   C1B19327  39.336  33.623   8.743
 1300POPC   C2B19328  39.253  33.581   8.342
 1300POPC   C3B19329  39.182  33.634   7.917
 1300POPC   C4B19330  39.093  33.861   7.566
 1301POPC   NC319331  39.082   1.735   9.533
 1301POPC   PO419332  39.547   2.095   9.503
 1301POPC   GL119333  39.234   2.114   9.183
 1301POPC   GL219334  39.045   1.869   9.042
 1301POPC   C1A19335  39.268   2.288   8.770
 1301POPC   D2A19336  39.068   2.484   8.410
 1301POPC   C3A19337  39.126   2.232   8.042
 1301POPC   C4A19338  39.465   2.135   7.779
 1301POPC   C1B19339  39.315   1.647   8.815
 1301POPC   C2B19340  39.302   1.598   8.376
 1301POPC   C3B19341  39.206   1.686   7.964
 1301POPC   C4B19342  39.010   1.903   7.677
 1302POPC   NC319343  33.993  29.311   9.725
 1302POPC   PO419344  33.546  28.829   9.690
 1302POPC   GL119345  33.612  28.983   9.247
 1302POPC   GL219346  33.868  29.230   9.232
 1302POPC   C1A19347  33.629  28.824   8.817
 1302POPC   D2A19348  33.986  28.847   8.539
 1302POPC   C3A19349  33.924  29.051   8.151
 1302POPC   C4A19350  33.610  28.981   7.822
 1302POPC   C1B19351  33.731  29.334   8.810
 1302POPC   C2B19352  33.801  29.492   8.415
 1302POPC   C3B19353  34.087  29.617   8.144
 1302POPC   C4B19354  34.048  29.374   7.787
 1303POPC   NC319355  28.078  43.500   9.626
 1303POPC   PO419356  27.600  42.986   9.590
 1303POPC   GL119357  27.589  43.159   9.184
 1303POPC   GL219358  27.854  43.392   9.164
 1303POPC   C1A19359  27.420  43.010   8.809
 1303POPC   D2A19360  27.221  42.931   8.426
 1303POPC   C3A19361  27.420  42.700   8.125
 1303POPC   C4A19362  27.488  42.903   7.804
 1303POPC   C1B19363  27.888  43.222   8.732
 1303POPC   C2B19364  27.669  43.135   8.320
 1303POPC   C3B19365  27.596  43.384   7.931
 1303POPC   C4B19366  27.725  43.242   7.515
 1304POPC   NC319367  22.367   2.189   9.470
 1304POPC   PO419368  21.690   1.901   9.446
 1304POPC   GL119369  22.078   1.864   9.191
 1304POPC   GL219370  21.846   1.713   8.993
 1304POPC   C1A19371  22.399   2.015   8.826
 1304POPC   D2A19372  22.536   2.290   8.473
 1304POPC   C3A19373  22.521   2.077   8.079
 1304POPC   C4A19374  22.651   2.183   7.630
 1304POPC   C1B19375  21.904   2.148   8.803
 1304POPC   C2B19376  22.078   2.055   8.409
 1304POPC   C3B19377  22.063   1.792   8.055
 1304POPC   C4B19378  22.114   2.113   7.763
 1305POPC   NC319379  18.666  21.021   9.573
 1305POPC   PO419380  19.255  20.926   9.376
 1305POPC   GL119381  19.126  21.249   9.111
 1305POPC   GL219382  18.762  21.304   9.126
 1305POPC   C1A19383  19.292  21.480   8.777
 1305POPC   D2A19384  19.413  21.370   8.338
 1305POPC   C3A19385  19.509  21.639   8.023
 1305POPC   C4A19386  19.133  21.634   7.811
 1305POPC   C1B19387  18.842  21.262   8.707
 1305POPC   C2B19388  18.916  21.513   8.373
 1305POPC   C3B19389  18.901  21.253   8.064
 1305POPC   C4B19390  18.751  21.088   7.695
 1306POPC   NC319391  29.359  18.596   9.515
 1306POPC   PO419392  28.818  18.161   9.543
 1306POPC   GL119393  28.987  18.402   9.206
 1306POPC   GL219394  29.327  18.322   9.077
 1306POPC   C1A19395  28.928  18.446   8.764
 1306POPC   D2A19396  29.215  18.390   8.418
 1306POPC   C3A19397  29.040  18.357   8.042
 1306POPC   C4A19398  28.901  18.357   7.644
 1306POPC   C1B19399  29.595  18.207   8.702
 1306POPC   C2B19400  29.444  17.940   8.351
 1306POPC   C3B19401  29.562  17.938   7.955
 1306POPC   C4B19402  29.445  18.274   7.700
 1307POPC   NC319403   3.622  41.151   9.507
 1307POPC   PO419404   3.276  40.592   9.589
 1307POPC   GL119405   3.563  40.669   9.217
 1307POPC   GL219406   3.608  41.005   9.033
 1307POPC   C1A19407   3.635  40.560   8.780
 1307POPC   D2A19408   3.502  40.774   8.411
 1307POPC   C3A19409   3.660  40.557   8.074
 1307POPC   C4A19410   3.791  40.587   7.673
 1307POPC   C1B19411   3.572  41.234   8.654
 1307POPC   C2B19412   3.630  41.279   8.205
 1307POPC   C3B19413   3.566  41.012   7.841
 1307POPC   C4B19414   3.638  40.963   7.353
 1308POPC   NC319415  21.191  23.546   9.621
 1308POPC   PO419416  21.527  24.023   9.657
 1308POPC   GL119417  21.278  23.923   9.249
 1308POPC   GL219418  21.455  23.632   9.184
 1308POPC   C1A19419  21.286  23.915   8.766
 1308POPC   D2A19420  20.965  23.888   8.416
 1308POPC   C3A19421  21.029  23.766   7.978
 1308POPC   C4A19422  21.331  24.058   7.763
 1308POPC   C1B19423  21.424  23.410   8.808
 1308POPC   C2B19424  21.304  23.509   8.421
 1308POPC   C3B19425  21.506  23.747   8.118
 1308POPC   C4B19426  21.462  23.553   7.714
 1309POPC   NC319427  10.351   3.956   9.415
 1309POPC   PO419428  10.736   3.380   9.551
 1309POPC   GL119429  10.784   3.525   9.165
 1309POPC   GL219430  10.451   3.528   9.112
 1309POPC   C1A19431  10.822   3.448   8.724
 1309POPC   D2A19432  10.539   3.454   8.342
 1309POPC   C3A19433  10.759   3.600   7.979
 1309POPC   C4A19434  10.772   3.874   7.637
 1309POPC   C1B19435  10.319   3.698   8.745
 1309POPC   C2B19436  10.302   3.957   8.347
 1309POPC   C3B19437  10.234   3.785   7.947
 1309POPC   C4B19438   9.900   3.767   7.636
 1310POPC   NC319439  32.014  20.142   9.636
 1310POPC   PO419440  31.569  19.605   9.531
 1310POPC   GL119441  31.397  19.683   9.122
 1310POPC   GL219442  31.411  20.030   9.104
 1310POPC   C1A19443  31.528  19.747   8.690
 1310POPC   D2A19444  31.435  19.984   8.341
 1310POPC   C3A19445  31.445  19.656   8.045
 1310POPC   C4A19446  31.288  19.520   7.654
 1310POPC   C1B19447  31.828  20.108   8.921
 1310POPC   C2B19448  31.914  20.230   8.511
 1310POPC   C3B19449  31.813  20.250   8.096
 1310POPC   C4B19450  31.457  20.111   7.824
 1311POPC   NC319451  33.772  32.703   9.399
 1311POPC   PO419452  33.815  33.408   9.469
 1311POPC   GL119453  33.638  33.224   9.103
 1311POPC   GL219454  33.923  33.004   9.005
 1311POPC   C1A19455  33.621  33.157   8.647
 1311POPC   D2A19456  33.912  33.023   8.341
 1311POPC   C3A19457  33.655  33.029   7.997
 1311POPC   C4A19458  33.621  33.275   7.617
 1311POPC   C1B19459  34.193  32.766   8.708
 1311POPC   C2B19460  34.176  32.506   8.358
 1311POPC   C3B19461  34.054  32.605   7.936
 1311POPC   C4B19462  34.032  32.981   7.683
 1312POPC   NC319463  23.722   2.921   9.543
 1312POPC   PO419464  23.486   2.311   9.524
 1312POPC   GL119465  23.640   2.469   9.117
 1312POPC   GL219466  23.773   2.817   9.063
 1312POPC   C1A19467  23.716   2.474   8.671
 1312POPC   D2A19468  23.895   2.428   8.276
 1312POPC   C3A19469  23.575   2.457   7.968
 1312POPC   C4A19470  23.583   2.571   7.556
 1312POPC   C1B19471  23.968   2.922   8.702
 1312POPC   C2B19472  23.864   2.984   8.302
 1312POPC   C3B19473  23.809   2.910   7.867
 1312POPC   C4B19474  23.646   3.046   7.412
 1313POPC   NC319475   8.835  13.931   9.440
 1313POPC   PO419476   9.439  13.574   9.531
 1313POPC   GL119477   9.170  13.594   9.150
 1313POPC   GL219478   8.865  13.412   9.251
 1313POPC   C1A19479   9.026  13.826   8.746
 1313POPC   D2A19480   8.741  13.905   8.371
 1313POPC   C3A19481   8.885  13.973   7.932
 1313POPC   C4A19482   9.233  13.825   7.720
 1313POPC   C1B19483   8.829  13.380   8.806
 1313POPC   C2B19484   9.009  13.417   8.398
 1313POPC   C3B19485   8.907  13.474   7.975
 1313POPC   C4B19486   8.572  13.310   7.726
 1314POPC   NC319487  35.310  26.740   9.795
 1314POPC   PO419488  35.745  26.816   9.265
 1314POPC   GL119489  35.442  26.606   9.089
 1314POPC   GL219490  35.199  26.866   9.207
 1314POPC   C1A19491  35.248  26.694   8.701
 1314POPC   D2A19492  35.287  26.990   8.386
 1314POPC   C3A19493  35.454  26.934   7.984
 1314POPC   C4A19494  35.468  26.576   7.736
 1314POPC   C1B19495  34.895  27.036   8.887
 1314POPC   C2B19496  34.769  27.048   8.458
 1314POPC   C3B19497  34.879  26.753   8.129
 1314POPC   C4B19498  35.001  26.824   7.716
 1315POPC   NC319499  19.267   0.925   9.551
 1315POPC   PO419500  18.755   1.332   9.415
 1315POPC   GL119501  19.076   1.298   9.157
 1315POPC   GL219502  19.053   0.947   9.094
 1315POPC   C1A19503  18.982   1.423   8.735
 1315POPC   D2A19504  19.237   1.436   8.355
 1315POPC   C3A19505  19.047   1.409   7.952
 1315POPC   C4A19506  18.782   1.421   7.620
 1315POPC   C1B19507  19.083   0.657   8.756
 1315POPC   C2B19508  19.214   0.784   8.382
 1315POPC   C3B19509  19.122   0.707   7.984
 1315POPC   C4B19510  19.103   0.983   7.651
 1316POPC   NC319511  18.070   2.331   9.507
 1316POPC   PO419512  18.659   2.015   9.505
 1316POPC   GL119513  18.483   2.117   9.141
 1316POPC   GL219514  18.146   2.132   9.045
 1316POPC   C1A19515  18.577   2.197   8.726
 1316POPC   D2A19516  18.425   2.314   8.321
 1316POPC   C3A19517  18.617   2.022   8.039
 1316POPC   C4A19518  18.493   1.850   7.630
 1316POPC   C1B19519  18.062   1.743   8.804
 1316POPC   C2B19520  18.064   1.656   8.360
 1316POPC   C3B19521  18.110   1.975   8.062
 1316POPC   C4B19522  17.926   2.062   7.687
 1317POPC   NC319523  21.458  16.270   9.593
 1317POPC   PO419524  21.149  15.689   9.527
 1317POPC   GL119525  21.456  15.916   9.184
 1317POPC   GL219526  21.625  16.280   9.135
 1317POPC   C1A19527  21.381  16.084   8.747
 1317POPC   D2A19528  21.270  15.920   8.317
 1317POPC   C3A19529  21.264  16.122   7.923
 1317POPC   C4A19530  21.252  16.080   7.469
 1317POPC   C1B19531  21.845  16.285   8.760
 1317POPC   C2B19532  21.747  16.073   8.369
 1317POPC   C3B19533  21.734  16.233   8.015
 1317POPC   C4B19534  21.722  16.062   7.641
 1318POPC   NC319535  28.651  19.447   9.488
 1318POPC   PO419536  29.283  19.710   9.491
 1318POPC   GL119537  29.035  19.610   9.141
 1318POPC   GL219538  28.783  19.877   9.099
 1318POPC   C1A19539  29.137  19.721   8.725
 1318POPC   D2A19540  29.161  19.957   8.373
 1318POPC   C3A19541  29.129  19.702   8.043
 1318POPC   C4A19542  29.225  19.768   7.616
 1318POPC   C1B19543  28.806  20.118   8.698
 1318POPC   C2B19544  28.709  20.208   8.268
 1318POPC   C3B19545  28.834  20.058   7.861
 1318POPC   C4B19546  28.892  20.080   7.404
 1319POPC   NC319547  17.680  14.300   9.575
 1319POPC   PO419548  17.015  14.422   9.499
 1319POPC   GL119549  17.360  14.301   9.182
 1319POPC   GL219550  17.597  14.597   9.134
 1319POPC   C1A19551  17.462  14.249   8.720
 1319POPC   D2A19552  17.439  14.538   8.311
 1319POPC   C3A19553  17.273  14.367   7.873
 1319POPC   C4A19554  16.883  14.177   7.700
 1319POPC   C1B19555  17.816  14.621   8.728
 1319POPC   C2B19556  17.970  14.593   8.293
 1319POPC   C3B19557  17.767  14.558   7.915
 1319POPC   C4B19558  17.698  14.220   7.610
 1320POPC   NC319559  22.702   4.556   9.690
 1320POPC   PO419560  22.977   3.982   9.738
 1320POPC   GL119561  22.844   4.169   9.360
 1320POPC   GL219562  22.957   4.516   9.253
 1320POPC   C1A19563  22.827   4.159   8.902
 1320POPC   D2A19564  22.782   4.265   8.476
 1320POPC   C3A19565  22.708   3.918   8.185
 1320POPC   C4A19566  22.652   3.975   7.741
 1320POPC   C1B19567  22.826   4.707   8.882
 1320POPC   C2B19568  23.043   4.769   8.506
 1320POPC   C3B19569  22.984   4.711   8.096
 1320POPC   C4B19570  22.921   4.610   7.647
 1321POPC   NC319571  44.463  40.843   9.591
 1321POPC   PO419572  43.826  40.811   9.702
 1321POPC   GL119573  43.958  40.715   9.280
 1321POPC   GL219574  44.193  40.910   9.164
 1321POPC   C1A19575  43.793  40.872   8.851
 1321POPC   D2A19576  43.873  40.713   8.454
 1321POPC   C3A19577  43.914  40.991   8.133
 1321POPC   C4A19578  43.942  40.780   7.769
 1321POPC   C1B19579  44.293  40.728   8.789
 1321POPC   C2B19580  44.374  40.870   8.373
 1321POPC   C3B19581  44.420  40.689   7.961
 1321POPC   C4B19582  44.412  40.891   7.593
 1322POPC   NC319583   1.532  14.293   9.556
 1322POPC   PO419584   2.129  14.514   9.470
 1322POPC   GL119585   1.839  14.404   9.165
 1322POPC   GL219586   1.534  14.666   9.196
 1322POPC   C1A19587   1.990  14.272   8.761
 1322POPC   D2A19588   2.258  14.290   8.359
 1322POPC   C3A19589   2.023  14.211   7.977
 1322POPC   C4A19590   1.559  14.171   7.922
 1322POPC   C1B19591   1.780  14.774   8.822
 1322POPC   C2B19592   1.665  14.925   8.394
 1322POPC   C3B19593   1.734  14.659   8.038
 1322POPC   C4B19594   2.091  14.661   7.760
 1323POPC   NC319595   5.511   1.312   9.414
 1323POPC   PO419596   6.095   0.973   9.389
 1323POPC   GL119597   5.814   1.092   9.056
 1323POPC   GL219598   5.839   1.473   9.030
 1323POPC   C1A19599   5.652   1.190   8.624
 1323POPC   D2A19600   5.436   1.145   8.253
 1323POPC   C3A19601   5.723   0.895   8.027
 1323POPC   C4A19602   6.017   1.106   7.733
 1323POPC   C1B19603   6.134   1.243   8.705
 1323POPC   C2B19604   6.045   1.195   8.277
 1323POPC   C3B19605   5.834   1.495   7.995
 1323POPC   C4B19606   6.071   1.646   7.622
 1324POPC   NC319607  25.750   7.041   9.490
 1324POPC   PO419608  25.965   7.651   9.593
 1324POPC   GL119609  26.053   7.413   9.198
 1324POPC   GL219610  25.825   7.171   9.025
 1324POPC   C1A19611  26.028   7.603   8.795
 1324POPC   D2A19612  26.223   7.808   8.471
 1324POPC   C3A19613  26.251   7.504   8.162
 1324POPC   C4A19614  26.085   7.599   7.758
 1324POPC   C1B19615  25.576   7.345   8.726
 1324POPC   C2B19616  25.723   7.503   8.330
 1324POPC   C3B19617  25.711   7.270   7.937
 1324POPC   C4B19618  25.865   7.211   7.518
 1325POPC   NC319619  35.820  44.057   9.443
 1325POPC   PO419620  36.494  44.183   9.460
 1325POPC   GL119621  36.269  44.134   9.094
 1325POPC   GL219622  36.077  43.850   9.032
 1325POPC   C1A19623  36.378  44.020   8.664
 1325POPC   D2A19624  36.144  43.792   8.331
 1325POPC   C3A19625  36.187  43.983   7.930
 1325POPC   C4A19626  36.591  44.171   7.846
 1325POPC   C1B19627  36.018  43.481   8.752
 1325POPC   C2B19628  36.106  43.284   8.345
 1325POPC   C3B19629  36.119  43.468   7.905
 1325POPC   C4B19630  35.968  43.684   7.540
 1326POPC   NC319631  37.920   0.747   9.618
 1326POPC   PO419632  37.562   0.245   9.562
 1326POPC   GL119633  37.803   0.375   9.221
 1326POPC   GL219634  37.706   0.717   9.169
 1326POPC   C1A19635  37.701   0.397   8.769
 1326POPC   D2A19636  37.565   0.206   8.402
 1326POPC   C3A19637  37.720   0.456   8.069
 1326POPC   C4A19638  38.018   0.304   7.786
 1326POPC   C1B19639  37.388   0.785   8.845
 1326POPC   C2B19640  37.516   0.805   8.426
 1326POPC   C3B19641  37.290   0.822   8.060
 1326POPC   C4B19642  37.431   0.686   7.688
 1327POPC   NC319643  14.811   7.330   9.449
 1327POPC   PO419644  14.294   7.208   9.792
 1327POPC   GL119645  14.304   7.376   9.219
 1327POPC   GL219646  14.505   7.627   9.160
 1327POPC   C1A19647  14.502   7.219   8.779
 1327POPC   D2A19648  14.373   7.102   8.339
 1327POPC   C3A19649  14.447   7.269   7.914
 1327POPC   C4A19650  14.782   7.604   7.842
 1327POPC   C1B19651  14.341   7.697   8.774
 1327POPC   C2B19652  14.061   7.524   8.486
 1327POPC   C3B19653  14.117   7.597   8.111
 1327POPC   C4B19654  14.278   7.725   7.765
 1328POPC   NC319655  27.747  25.990   9.610
 1328POPC   PO419656  27.103  25.911   9.508
 1328POPC   GL119657  27.443  25.926   9.192
 1328POPC   GL219658  27.663  26.180   9.156
 1328POPC   C1A19659  27.572  25.776   8.771
 1328POPC   D2A19660  27.739  25.862   8.353
 1328POPC   C3A19661  27.440  25.765   7.985
 1328POPC   C4A19662  27.364  25.995   7.619
 1328POPC   C1B19663  27.639  26.287   8.764
 1328POPC   C2B19664  27.539  26.430   8.377
 1328POPC   C3B19665  27.616  26.241   8.008
 1328POPC   C4B19666  27.911  26.127   7.716
 1329POPC   NC319667  22.821   9.633   9.656
 1329POPC   PO419668  22.937  10.303   9.621
 1329POPC   GL119669  22.890  10.085   9.214
 1329POPC   GL219670  22.755   9.759   9.154
 1329POPC   C1A19671  23.068   9.970   8.784
 1329POPC   D2A19672  22.870   9.916   8.371
 1329POPC   C3A19673  23.033   9.869   7.923
 1329POPC   C4A19674  22.964   9.919   7.456
 1329POPC   C1B19675  22.855   9.471   8.808
 1329POPC   C2B19676  22.911   9.308   8.386
 1329POPC   C3B19677  22.685   9.528   8.093
 1329POPC   C4B19678  22.654   9.567   7.677
 1330POPC   NC319679  20.149  16.280   9.572
 1330POPC   PO419680  19.631  15.826   9.541
 1330POPC   GL119681  19.749  16.139   9.210
 1330POPC   GL219682  19.526  16.380   9.046
 1330POPC   C1A19683  19.769  15.984   8.782
 1330POPC   D2A19684  19.903  15.673   8.482
 1330POPC   C3A19685  19.713  15.758   8.094
 1330POPC   C4A19686  20.074  15.724   7.918
 1330POPC   C1B19687  19.822  16.475   8.675
 1330POPC   C2B19688  19.905  16.211   8.310
 1330POPC   C3B19689  19.846  16.221   7.866
 1330POPC   C4B19690  19.464  16.363   7.653
 1331POPC   NC319691  32.009  21.002   9.479
 1331POPC   PO419692  32.623  21.225   9.528
 1331POPC   GL119693  32.575  21.462   9.187
 1331POPC   GL219694  32.253  21.292   9.121
 1331POPC   C1A19695  32.537  21.481   8.747
 1331POPC   D2A19696  32.212  21.520   8.417
 1331POPC   C3A19697  32.390  21.532   7.983
 1331POPC   C4A19698  32.383  21.459   7.512
 1331POPC   C1B19699  32.212  21.073   8.719
 1331POPC   C2B19700  32.254  21.049   8.256
 1331POPC   C3B19701  31.985  21.235   7.961
 1331POPC   C4B19702  31.976  21.174   7.540
 1332POPC   NC319703  38.618  28.021   9.319
 1332POPC   PO419704  38.390  28.620   9.518
 1332POPC   GL119705  38.300  28.460   9.105
 1332POPC   GL219706  38.135  28.130   9.131
 1332POPC   C1A19707  38.443  28.623   8.703
 1332POPC   D2A19708  38.632  28.592   8.291
 1332POPC   C3A19709  38.305  28.754   8.047
 1332POPC   C4A19710  37.978  28.522   7.849
 1332POPC   C1B19711  38.280  28.075   8.704
 1332POPC   C2B19712  38.303  28.140   8.256
 1332POPC   C3B19713  38.436  28.292   7.860
 1332POPC   C4B19714  38.621  28.134   7.495
 1333POPC   NC319715  23.795  40.283   9.695
 1333POPC   PO419716  23.390  40.725   9.552
 1333POPC   GL119717  23.643  40.572   9.210
 1333POPC   GL219718  23.501  40.250   9.192
 1333POPC   C1A19719  23.727  40.750   8.765
 1333POPC   D2A19720  23.513  40.894   8.362
 1333POPC   C3A19721  23.713  41.100   7.960
 1333POPC   C4A19722  23.832  41.133   7.490
 1333POPC   C1B19723  23.767  40.211   8.839
 1333POPC   C2B19724  23.816  40.381   8.431
 1333POPC   C3B19725  23.812  40.595   8.039
 1333POPC   C4B19726  23.760  40.648   7.610
 1334POPC   NC319727  22.251  11.535   9.742
 1334POPC   PO419728  21.825  11.052   9.483
 1334POPC   GL119729  22.009  11.358   9.188
 1334POPC   GL219730  22.147  11.683   9.261
 1334POPC   C1A19731  22.294  11.354   8.835
 1334POPC   D2A19732  22.288  11.069   8.517
 1334POPC   C3A19733  22.395  11.182   8.142
 1334POPC   C4A19734  22.288  11.103   7.724
 1334POPC   C1B19735  21.990  11.749   8.832
 1334POPC   C2B19736  22.117  11.603   8.410
 1334POPC   C3B19737  22.160  11.590   7.956
 1334POPC   C4B19738  22.455  11.672   7.607
 1335POPC   NC319739  37.279  12.104   9.422
 1335POPC   PO419740  36.676  11.822   9.596
 1335POPC   GL119741  36.837  11.925   9.177
 1335POPC   GL219742  36.817  12.292   9.214
 1335POPC   C1A19743  36.948  11.925   8.709
 1335POPC   D2A19744  37.262  11.933   8.335
 1335POPC   C3A19745  37.222  11.786   7.910
 1335POPC   C4A19746  36.915  11.721   7.577
 1335POPC   C1B19747  36.893  12.444   8.806
 1335POPC   C2B19748  36.856  12.311   8.377
 1335POPC   C3B19749  36.835  12.120   7.978
 1335POPC   C4B19750  36.764  12.404   7.664
 1336POPC   NC319751  13.170  42.935   9.431
 1336POPC   PO419752  13.742  43.453   9.497
 1336POPC   GL119753  13.692  43.283   9.143
 1336POPC   GL219754  13.614  42.985   9.185
 1336POPC   C1A19755  13.790  43.230   8.743
 1336POPC   D2A19756  13.578  43.316   8.403
 1336POPC   C3A19757  13.842  43.292   8.089
 1336POPC   C4A19758  13.622  43.339   7.763
 1336POPC   C1B19759  13.563  42.775   8.786
 1336POPC   C2B19760  13.735  42.827   8.378
 1336POPC   C3B19761  13.721  42.815   7.944
 1336POPC   C4B19762  13.903  42.685   7.626
 1337POPC   NC319763  30.629  39.703   9.677
 1337POPC   PO419764  30.666  40.465   9.695
 1337POPC   GL119765  30.682  40.191   9.291
 1337POPC   GL219766  30.593  39.812   9.179
 1337POPC   C1A19767  30.990  40.076   8.949
 1337POPC   D2A19768  30.955  40.181   8.495
 1337POPC   C3A19769  30.939  39.952   8.078
 1337POPC   C4A19770  30.731  40.081   7.695
 1337POPC   C1B19771  30.616  39.813   8.711
 1337POPC   C2B19772  30.545  39.667   8.274
 1337POPC   C3B19773  30.533  39.631   7.802
 1337POPC   C4B19774  30.443  39.724   7.356
 1338POPC   NC319775  29.743  44.212   9.546
 1338POPC   PO419776  30.389  44.059   9.469
 1338POPC   GL119777  30.063  43.974   9.157
 1338POPC   GL219778  29.794  43.741   9.227
 1338POPC   C1A19779  30.130  43.705   8.808
 1338POPC   D2A19780  30.447  43.813   8.504
 1338POPC   C3A19781  30.150  44.008   8.206
 1338POPC   C4A19782  29.981  44.129   7.781
 1338POPC   C1B19783  29.636  43.893   8.837
 1338POPC   C2B19784  29.775  43.749   8.439
 1338POPC   C3B19785  29.634  43.821   8.021
 1338POPC   C4B19786  29.562  43.662   7.592
 1339POPC   NC319787   5.121  12.261   9.679
 1339POPC   PO419788   4.851  12.869   9.576
 1339POPC   GL119789   5.031  12.679   9.247
 1339POPC   GL219790   4.753  12.872   9.084
 1339POPC   C1A19791   5.422  12.723   8.988
 1339POPC   D2A19792   5.472  13.015   8.632
 1339POPC   C3A19793   5.330  12.876   8.210
 1339POPC   C4A19794   5.223  12.902   7.777
 1339POPC   C1B19795   4.977  12.812   8.736
 1339POPC   C2B19796   4.797  12.901   8.383
 1339POPC   C3B19797   4.787  13.007   7.996
 1339POPC   C4B19798   4.740  12.580   7.786
 1340POPC   NC319799  23.306   3.699   9.558
 1340POPC   PO419800  23.804   3.308   9.784
 1340POPC   GL119801  23.602   3.350   9.314
 1340POPC   GL219802  23.582   3.683   9.100
 1340POPC   C1A19803  23.596   3.252   8.856
 1340POPC   D2A19804  23.629   3.546   8.517
 1340POPC   C3A19805  23.715   3.444   8.106
 1340POPC   C4A19806  23.454   3.359   7.762
 1340POPC   C1B19807  23.913   3.860   8.795
 1340POPC   C2B19808  24.118   3.705   8.387
 1340POPC   C3B19809  24.076   3.785   7.954
 1340POPC   C4B19810  23.753   3.770   7.695
 1341POPC   NC319811  43.712   1.923   9.239
 1341POPC   PO419812  43.066   2.046   9.487
 1341POPC   GL119813  42.993   1.755   9.152
 1341POPC   GL219814  43.320   1.633   9.084
 1341POPC   C1A19815  43.019   1.923   8.739
 1341POPC   D2A19816  43.274   2.162   8.467
 1341POPC   C3A19817  43.090   2.100   8.097
 1341POPC   C4A19818  43.321   1.853   7.833
 1341POPC   C1B19819  43.462   1.652   8.656
 1341POPC   C2B19820  43.189   1.622   8.309
 1341POPC   C3B19821  42.927   1.585   7.944
 1341POPC   C4B19822  43.029   1.659   7.469
 1342POPC   NC319823  36.865  13.890   9.442
 1342POPC   PO419824  36.516  13.287   9.435
 1342POPC   GL119825  36.704  13.510   9.113
 1342POPC   GL219826  36.443  13.804   9.140
 1342POPC   C1A19827  36.950  13.454   8.714
 1342POPC   D2A19828  36.829  13.233   8.331
 1342POPC   C3A19829  36.745  13.401   7.942
 1342POPC   C4A19830  37.044  13.721   7.877
 1342POPC   C1B19831  36.635  13.861   8.746
 1342POPC   C2B19832  36.747  13.774   8.332
 1342POPC   C3B19833  36.493  13.861   7.991
 1342POPC   C4B19834  36.611  13.787   7.578
 1343POPC   NC319835  32.892  35.018   9.516
 1343POPC   PO419836  33.296  35.603   9.412
 1343POPC   GL119837  33.144  35.297   9.138
 1343POPC   GL219838  33.041  35.565   8.962
 1343POPC   C1A19839  32.940  35.117   8.754
 1343POPC   D2A19840  32.800  35.199   8.298
 1343POPC   C3A19841  33.043  35.080   7.924
 1343POPC   C4A19842  33.177  34.834   7.510
 1343POPC   C1B19843  32.821  35.605   8.634
 1343POPC   C2B19844  33.102  35.631   8.316
 1343POPC   C3B19845  33.153  35.573   7.917
 1343POPC   C4B19846  32.725  35.502   7.847
 1344POPC   NC319847  10.679  28.025   9.368
 1344POPC   PO419848  10.308  28.540   9.466
 1344POPC   GL119849  10.435  28.484   9.064
 1344POPC   GL219850  10.400  28.151   8.947
 1344POPC   C1A19851  10.506  28.584   8.647
 1344POPC   D2A19852  10.500  28.322   8.300
 1344POPC   C3A19853  10.467  28.615   8.015
 1344POPC   C4A19854  10.618  28.450   7.649
 1344POPC   C1B19855  10.808  28.167   8.716
 1344POPC   C2B19856  10.922  27.978   8.314
 1344POPC   C3B19857  10.774  28.017   7.895
 1344POPC   C4B19858  10.913  28.078   7.461
 1345POPC   NC319859  18.085  23.385   9.862
 1345POPC   PO419860  18.273  23.935   9.434
 1345POPC   GL119861  18.334  23.790   9.056
 1345POPC   GL219862  18.370  23.457   9.112
 1345POPC   C1A19863  18.527  23.668   8.672
 1345POPC   D2A19864  18.382  23.539   8.276
 1345POPC   C3A19865  18.152  23.782   7.998
 1345POPC   C4A19866  18.321  23.793   7.572
 1345POPC   C1B19867  18.074  23.373   8.721
 1345POPC   C2B19868  17.985  23.228   8.257
 1345POPC   C3B19869  18.207  23.311   7.821
 1345POPC   C4B19870  18.305  23.293   7.366
 1346POPC   NC319871  24.086   9.836   9.414
 1346POPC   PO419872  24.630  10.125   9.692
 1346POPC   GL119873  24.547   9.934   9.245
 1346POPC   GL219874  24.501   9.627   9.207
 1346POPC   C1A19875  24.429   9.959   8.792
 1346POPC   D2A19876  24.246   9.679   8.470
 1346POPC   C3A19877  24.330   9.901   8.114
 1346POPC   C4A19878  24.029   9.977   7.835
 1346POPC   C1B19879  24.636   9.485   8.778
 1346POPC   C2B19880  24.735   9.644   8.350
 1346POPC   C3B19881  24.665   9.569   7.901
 1346POPC   C4B19882  24.403   9.742   7.609
 1347POPC   NC319883   3.612  38.348   9.668
 1347POPC   PO419884   3.119  38.583   9.340
 1347POPC   GL119885   3.435  38.401   9.086
 1347POPC   GL219886   3.806  38.393   9.182
 1347POPC   C1A19887   3.383  38.452   8.644
 1347POPC   D2A19888   3.555  38.634   8.291
 1347POPC   C3A19889   3.404  38.318   8.026
 1347POPC   C4A19890   3.383  38.435   7.625
 1347POPC   C1B19891   3.891  38.436   8.738
 1347POPC   C2B19892   3.876  38.247   8.302
 1347POPC   C3B19893   3.885  38.515   7.927
 1347POPC   C4B19894   3.850  38.558   7.477
 1348POPC   NC319895  16.972  37.989   9.416
 1348POPC   PO419896  16.399  37.660   9.584
 1348POPC   GL119897  16.657  37.598   9.168
 1348POPC   GL219898  16.731  37.915   8.992
 1348POPC   C1A19899  16.691  37.547   8.670
 1348POPC   D2A19900  17.028  37.578   8.335
 1348POPC   C3A19901  16.882  37.535   7.895
 1348POPC   C4A19902  16.490  37.328   7.729
 1348POPC   C1B19903  17.014  37.990   8.632
 1348POPC   C2B19904  17.004  38.050   8.128
 1348POPC   C3B19905  16.735  38.084   7.736
 1348POPC   C4B19906  16.594  38.135   7.249
 1349POPC   NC319907   1.504  28.073   9.414
 1349POPC   PO419908   2.190  28.012   9.245
 1349POPC   GL119909   2.083  28.405   9.136
 1349POPC   GL219910   1.736  28.420   9.109
 1349POPC   C1A19911   2.098  28.544   8.736
 1349POPC   D2A19912   2.233  28.485   8.345
 1349POPC   C3A19913   2.020  28.545   7.972
 1349POPC   C4A19914   2.107  28.260   7.660
 1349POPC   C1B19915   1.620  28.661   8.750
 1349POPC   C2B19916   1.690  28.758   8.320
 1349POPC   C3B19917   1.551  28.739   7.869
 1349POPC   C4B19918   1.724  28.545   7.491
 1350POPC   NC319919  38.272   2.317   9.468
 1350POPC   PO419920  38.755   1.965   9.761
 1350POPC   GL119921  38.637   2.026   9.280
 1350POPC   GL219922  38.742   2.311   9.226
 1350POPC   C1A19923  38.603   1.847   8.774
 1350POPC   D2A19924  38.796   1.757   8.304
 1350POPC   C3A19925  38.535   1.823   7.897
 1350POPC   C4A19926  38.214   1.952   7.532
 1350POPC   C1B19927  38.773   2.339   8.821
 1350POPC   C2B19928  38.614   2.221   8.423
 1350POPC   C3B19929  38.642   2.315   8.006
 1350POPC   C4B19930  38.652   2.231   7.554
 1351POPC   NC319931  25.936   6.161   9.282
 1351POPC   PO419932  26.330   5.672   9.420
 1351POPC   GL119933  26.126   5.719   9.017
 1351POPC   GL219934  26.141   6.036   8.817
 1351POPC   C1A19935  25.870   5.573   8.691
 1351POPC   D2A19936  25.904   5.773   8.324
 1351POPC   C3A19937  25.917   5.646   7.907
 1351POPC   C4A19938  26.067   6.051   7.745
 1351POPC   C1B19939  25.685   6.066   8.713
 1351POPC   C2B19940  25.445   5.978   8.384
 1351POPC   C3B19941  25.626   6.062   8.000
 1351POPC   C4B19942  25.593   5.861   7.571
 1352POPC   NC319943  33.585  25.131   9.536
 1352POPC   PO419944  32.956  25.133   9.469
 1352POPC   GL119945  33.125  25.227   9.107
 1352POPC   GL219946  32.858  25.190   8.866
 1352POPC   C1A19947  33.242  25.525   8.787
 1352POPC   D2A19948  33.041  25.580   8.428
 1352POPC   C3A19949  33.268  25.556   8.081
 1352POPC   C4A19950  33.104  25.352   7.770
 1352POPC   C1B19951  33.174  24.983   8.660
 1352POPC   C2B19952  33.211  25.083   8.240
 1352POPC   C3B19953  32.772  25.048   8.009
 1352POPC   C4B19954  32.548  24.630   7.956
 1353POPC   NC319955  14.996  35.782   9.562
 1353POPC   PO419956  15.022  35.114   9.699
 1353POPC   GL119957  15.139  35.257   9.271
 1353POPC   GL219958  15.464  35.091   9.221
 1353POPC   C1A19959  15.042  35.444   8.832
 1353POPC   D2A19960  14.868  35.595   8.416
 1353POPC   C3A19961  14.987  35.511   7.966
 1353POPC   C4A19962  14.931  35.539   7.487
 1353POPC   C1B19963  15.263  34.966   8.825
 1353POPC   C2B19964  15.024  35.064   8.425
 1353POPC   C3B19965  15.016  35.017   7.954
 1353POPC   C4B19966  15.304  35.239   7.655
 1354POPC   NC319967  12.285  40.222   9.493
 1354POPC   PO419968  11.644  39.911   9.538
 1354POPC   GL119969  11.954  39.816   9.163
 1354POPC   GL219970  12.141  40.076   9.048
 1354POPC   C1A19971  12.076  39.702   8.723
 1354POPC   D2A19972  12.252  39.550   8.308
 1354POPC   C3A19973  12.095  39.776   7.950
 1354POPC   C4A19974  11.665  39.809   7.893
 1354POPC   C1B19975  12.359  40.125   8.688
 1354POPC   C2B19976  12.044  40.077   8.365
 1354POPC   C3B19977  11.980  40.280   7.983
 1354POPC   C4B19978  12.400  40.304   7.825
 1355POPC   NC319979  31.290  43.870   9.310
 1355POPC   PO419980  31.815  43.677   9.540
 1355POPC   GL119981  31.639  43.564   9.101
 1355POPC   GL219982  31.283  43.431   9.098
 1355POPC   C1A19983  31.468  43.796   8.703
 1355POPC   D2A19984  31.577  44.164   8.449
 1355POPC   C3A19985  31.537  44.052   8.043
 1355POPC   C4A19986  31.279  43.837   7.760
 1355POPC   C1B19987  31.279  43.322   8.664
 1355POPC   C2B19988  31.339  43.481   8.257
 1355POPC   C3B19989  31.133  43.357   7.901
 1355POPC   C4B19990  31.149  43.454   7.450
 1356POPC   NC319991  27.912   0.534   9.481
 1356POPC   PO419992  27.264   0.214   9.585
 1356POPC   GL119993  27.347   0.328   9.141
 1356POPC   GL219994  27.695   0.283   9.047
 1356POPC   C1A19995  27.295   0.544   8.727
 1356POPC   D2A19996  27.115   0.492   8.331
 1356POPC   C3A19997  27.260   0.671   7.969
 1356POPC   C4A19998  27.625   0.571   7.777
 1356POPC   C1B19999  27.852   0.539   8.688
 1356POPC   C2B20000  27.626   0.610   8.322
 1356POPC   C3B20001  27.511   0.220   8.129
 1356POPC   C4B20002  27.755   0.007   7.829
 1357POPC   NC320003   9.541   3.372   9.475
 1357POPC   PO420004   9.911   3.945   9.566
 1357POPC   GL120005   9.917   3.649   9.213
 1357POPC   GL220006  10.039   3.282   9.282
 1357POPC   C1A20007   9.665   3.693   8.820
 1357POPC   D2A20008   9.921   3.628   8.444
 1357POPC   C3A20009   9.790   3.518   8.069
 1357POPC   C4A20010   9.547   3.864   8.014
 1357POPC   C1B20011   9.947   3.272   8.838
 1357POPC   C2B20012   9.716   3.150   8.467
 1357POPC   C3B20013   9.513   3.092   8.065
 1357POPC   C4B20014   9.324   3.453   7.822
 1358POPC   NC320015  20.865  12.840   9.497
 1358POPC   PO420016  20.440  13.281   9.572
 1358POPC   GL120017  20.562  13.125   9.157
 1358POPC   GL220018  20.497  12.782   9.137
 1358POPC   C1A20019  20.705  13.036   8.733
 1358POPC   D2A20020  20.932  13.142   8.395
 1358POPC   C3A20021  20.846  12.945   8.057
 1358POPC   C4A20022  20.588  13.035   7.783
 1358POPC   C1B20023  20.447  12.583   8.738
 1358POPC   C2B20024  20.452  12.785   8.364
 1358POPC   C3B20025  20.396  12.553   8.044
 1358POPC   C4B20026  20.628  12.534   7.720
 1359POPC   NC320027  28.928  14.261   9.633
 1359POPC   PO420028  29.496  14.580   9.431
 1359POPC   GL120029  29.271  14.194   9.246
 1359POPC   GL220030  29.473  13.928   9.050
 1359POPC   C1A20031  28.971  14.207   8.893
 1359POPC   D2A20032  29.044  14.266   8.442
 1359POPC   C3A20033  28.944  14.612   8.151
 1359POPC   C4A20034  29.068  14.657   7.686
 1359POPC   C1B20035  29.466  14.316   8.790
 1359POPC   C2B20036  29.515  14.506   8.396
 1359POPC   C3B20037  29.358  14.347   8.011
 1359POPC   C4B20038  29.548  14.436   7.633
 1360POPC   NC320039  38.668  15.358   9.347
 1360POPC   PO420040  39.254  15.091   9.611
 1360POPC   GL120041  39.262  15.016   9.174
 1360POPC   GL220042  38.934  15.007   9.104
 1360POPC   C1A20043  39.452  15.131   8.794
 1360POPC   D2A20044  39.318  15.275   8.406
 1360POPC   C3A20045  39.553  15.173   8.042
 1360POPC   C4A20046  39.436  15.254   7.641
 1360POPC   C1B20047  38.926  15.207   8.732
 1360POPC   C2B20048  38.916  14.981   8.354
 1360POPC   C3B20049  39.071  15.037   7.987
 1360POPC   C4B20050  39.100  14.874   7.618
 1361POPC   NC320051  16.126  29.008   9.544
 1361POPC   PO420052  15.898  29.586   9.521
 1361POPC   GL120053  16.178  29.370   9.178
 1361POPC   GL220054  16.075  29.007   9.046
 1361POPC   C1A20055  16.343  29.303   8.735
 1361POPC   D2A20056  16.337  29.521   8.323
 1361POPC   C3A20057  16.146  29.244   7.973
 1361POPC   C4A20058  15.875  29.272   7.603
 1361POPC   C1B20059  15.978  28.955   8.595
 1361POPC   C2B20060  15.783  28.950   8.179
 1361POPC   C3B20061  15.592  28.878   7.769
 1361POPC   C4B20062  15.356  28.806   7.379
 1362POPC   NC320063  22.338  14.801   9.329
 1362POPC   PO420064  21.887  14.277   9.470
 1362POPC   GL120065  21.989  14.421   9.077
 1362POPC   GL220066  21.928  14.771   9.036
 1362POPC   C1A20067  22.256  14.370   8.720
 1362POPC   D2A20068  22.438  14.618   8.399
 1362POPC   C3A20069  22.324  14.406   7.972
 1362POPC   C4A20070  22.118  14.057   7.717
 1362POPC   C1B20071  22.048  14.833   8.642
 1362POPC   C2B20072  21.944  14.561   8.314
 1362POPC   C3B20073  21.815  14.649   7.923
 1362POPC   C4B20074  21.790  14.395   7.560
 1363POPC   NC320075  14.555  35.127   9.773
 1363POPC   PO420076  14.165  35.612   9.604
 1363POPC   GL120077  14.325  35.338   9.304
 1363POPC   GL220078  14.046  35.459   9.098
 1363POPC   C1A20079  14.520  35.365   8.904
 1363POPC   D2A20080  14.374  35.418   8.489
 1363POPC   C3A20081  14.590  35.222   8.176
 1363POPC   C4A20082  14.569  35.223   7.743
 1363POPC   C1B20083  14.052  35.132   8.801
 1363POPC   C2B20084  13.900  35.214   8.382
 1363POPC   C3B20085  14.097  35.241   7.948
 1363POPC   C4B20086  14.076  34.895   7.578
 1364POPC   NC320087  43.541  21.860   9.592
 1364POPC   PO420088  43.118  22.279   9.765
 1364POPC   GL120089  43.302  22.184   9.298
 1364POPC   GL220090  43.066  21.949   9.227
 1364POPC   C1A20091  43.421  21.991   8.836
 1364POPC   D2A20092  43.153  21.938   8.457
 1364POPC   C3A20093  43.182  22.042   8.028
 1364POPC   C4A20094  42.982  22.262   7.726
 1364POPC   C1B20095  42.958  22.183   8.858
 1364POPC   C2B20096  42.723  22.360   8.523
 1364POPC   C3B20097  42.638  22.371   8.078
 1364POPC   C4B20098  42.525  22.531   7.652
 1365POPC   NC320099   4.534  39.859   9.483
 1365POPC   PO420100   4.077  40.331   9.449
 1365POPC   GL120101   4.395  40.224   9.101
 1365POPC   GL220102   4.353  39.863   9.020
 1365POPC   C1A20103   4.340  40.207   8.629
 1365POPC   D2A20104   3.983  40.088   8.352
 1365POPC   C3A20105   4.070  40.273   7.979
 1365POPC   C4A20106   4.201  40.314   7.583
 1365POPC   C1B20107   4.578  39.755   8.672
 1365POPC   C2B20108   4.380  39.762   8.264
 1365POPC   C3B20109   4.469  39.956   7.901
 1365POPC   C4B20110   4.873  39.865   7.777
 1366POPC   NC320111  11.579  24.999   9.367
 1366POPC   PO420112  11.440  24.395   9.543
 1366POPC   GL120113  11.286  24.570   9.154
 1366POPC   GL220114  11.078  24.864   9.173
 1366POPC   C1A20115  11.226  24.334   8.786
 1366POPC   D2A20116  11.329  24.198   8.370
 1366POPC   C3A20117  11.235  24.529   8.067
 1366POPC   C4A20118  11.275  24.423   7.656
 1366POPC   C1B20119  10.942  24.767   8.758
 1366POPC   C2B20120  10.921  24.921   8.335
 1366POPC   C3B20121  10.801  24.788   7.908
 1366POPC   C4B20122  10.838  24.589   7.528
 1367POPC   NC320123  15.717  35.584   9.314
 1367POPC   PO420124  16.274  35.482   9.613
 1367POPC   GL120125  16.281  35.565   9.182
 1367POPC   GL220126  16.071  35.303   9.059
 1367POPC   C1A20127  16.135  35.697   8.750
 1367POPC   D2A20128  15.817  35.545   8.426
 1367POPC   C3A20129  15.985  35.450   8.027
 1367POPC   C4A20130  16.191  35.752   7.849
 1367POPC   C1B20131  15.935  35.085   8.668
 1367POPC   C2B20132  15.806  35.033   8.241
 1367POPC   C3B20133  15.463  35.254   8.130
 1367POPC   C4B20134  15.516  35.647   7.932
 1368POPC   NC320135  19.045  22.170   9.507
 1368POPC   PO420136  18.812  21.479   9.591
 1368POPC   GL120137  19.024  21.723   9.257
 1368POPC   GL220138  18.734  21.872   9.192
 1368POPC   C1A20139  19.206  21.962   8.890
 1368POPC   D2A20140  19.336  21.883   8.457
 1368POPC   C3A20141  19.266  22.219   8.197
 1368POPC   C4A20142  19.255  22.135   7.767
 1368POPC   C1B20143  18.748  21.758   8.804
 1368POPC   C2B20144  18.853  22.022   8.496
 1368POPC   C3B20145  18.847  21.952   8.094
 1368POPC   C4B20146  18.752  22.077   7.719
 1369POPC   NC320147  41.778   0.228   9.586
 1369POPC   PO420148  41.449   0.822   9.562
 1369POPC   GL120149  41.778   0.683   9.273
 1369POPC   GL220150  41.596   0.396   9.148
 1369POPC   C1A20151  41.902   0.612   8.830
 1369POPC   D2A20152  41.601   0.694   8.483
 1369POPC   C3A20153  41.770   0.591   8.099
 1369POPC   C4A20154  41.644   0.615   7.696
 1369POPC   C1B20155  41.470   0.247   8.761
 1369POPC   C2B20156  41.394   0.138   8.341
 1369POPC   C3B20157  41.185   0.075   7.963
 1369POPC   C4B20158  41.499   0.137   7.689
 1370POPC   NC320159  41.715  24.063   9.603
 1370POPC   PO420160  41.716  24.582   9.214
 1370POPC   GL120161  41.495  24.286   9.078
 1370POPC   GL220162  41.819  24.076   9.114
 1370POPC   C1A20163  41.218  24.362   8.693
 1370POPC   D2A20164  41.347  24.416   8.256
 1370POPC   C3A20165  41.270  24.682   7.878
 1370POPC   C4A20166  41.427  24.617   7.451
 1370POPC   C1B20167  41.978  24.209   8.739
 1370POPC   C2B20168  41.802  24.177   8.366
 1370POPC   C3B20169  41.953  24.320   8.019
 1370POPC   C4B20170  41.836  24.589   7.731
 1371POPC   NC320171  42.041  26.877   9.505
 1371POPC   PO420172  42.497  26.427   9.526
 1371POPC   GL120173  42.376  26.631   9.166
 1371POPC   GL220174  42.052  26.503   9.156
 1371POPC   C1A20175  42.514  26.714   8.744
 1371POPC   D2A20176  42.723  26.940   8.410
 1371POPC   C3A20177  42.547  26.829   8.021
 1371POPC   C4A20178  42.568  26.743   7.562
 1371POPC   C1B20179  41.969  26.773   8.816
 1371POPC   C2B20180  42.122  26.863   8.438
 1371POPC   C3B20181  42.019  26.740   8.045
 1371POPC   C4B20182  42.065  26.807   7.610
 1372POPC   NC320183  36.033   2.798   9.503
 1372POPC   PO420184  36.648   2.540   9.675
 1372POPC   GL120185  36.486   2.729   9.245
 1372POPC   GL220186  36.213   2.568   9.065
 1372POPC   C1A20187  36.389   2.991   8.839
 1372POPC   D2A20188  36.237   2.726   8.527
 1372POPC   C3A20189  36.240   2.903   8.112
 1372POPC   C4A20190  36.458   2.914   7.707
 1372POPC   C1B20191  35.875   2.855   8.865
 1372POPC   C2B20192  35.834   3.040   8.448
 1372POPC   C3B20193  35.703   2.963   8.039
 1372POPC   C4B20194  35.943   2.776   7.712
 1373POPC   NC320195   6.331  42.559   9.506
 1373POPC   PO420196   6.363  41.824   9.535
 1373POPC   GL120197   6.641  42.109   9.240
 1373POPC   GL220198   6.557  42.431   9.069
 1373POPC   C1A20199   6.864  42.106   8.820
 1373POPC   D2A20200   6.629  42.134   8.439
 1373POPC   C3A20201   6.749  42.364   8.101
 1373POPC   C4A20202   6.629  42.275   7.719
 1373POPC   C1B20203   6.397  42.648   8.704
 1373POPC   C2B20204   6.282  42.516   8.290
 1373POPC   C3B20205   6.277  42.627   7.845
 1373POPC   C4B20206   6.193  42.613   7.396
 1374POPC   NC320207   6.138  13.312   9.377
 1374POPC   PO420208   6.728  13.590   9.654
 1374POPC   GL120209   6.782  13.758   9.258
 1374POPC   GL220210   6.571  13.494   9.142
 1374POPC   C1A20211   6.669  13.892   8.845
 1374POPC   D2A20212   6.659  13.717   8.469
 1374POPC   C3A20213   6.803  13.798   8.090
 1374POPC   C4A20214   6.659  13.843   7.688
 1374POPC   C1B20215   6.472  13.321   8.750
 1374POPC   C2B20216   6.745  13.242   8.405
 1374POPC   C3B20217   6.611  13.298   7.958
 1374POPC   C4B20218   6.758  13.286   7.535
 1375POPC   NC320219   8.585  21.023   9.753
 1375POPC   PO420220   7.963  21.207   9.442
 1375POPC   GL120221   8.148  21.361   9.123
 1375POPC   GL220222   8.471  21.306   9.160
 1375POPC   C1A20223   8.110  21.532   8.764
 1375POPC   D2A20224   8.125  21.359   8.374
 1375POPC   C3A20225   7.939  21.542   8.044
 1375POPC   C4A20226   8.136  21.495   7.663
 1375POPC   C1B20227   8.428  21.120   8.725
 1375POPC   C2B20228   8.600  21.053   8.308
 1375POPC   C3B20229   8.522  20.966   7.856
 1375POPC   C4B20230   8.633  21.034   7.432
 1376POPC   NC320231  14.916  40.846   9.418
 1376POPC   PO420232  15.379  40.444   9.471
 1376POPC   GL120233  15.252  40.624   9.105
 1376POPC   GL220234  15.332  40.935   9.102
 1376POPC   C1A20235  14.954  40.729   8.759
 1376POPC   D2A20236  15.088  40.628   8.321
 1376POPC   C3A20237  14.960  40.892   7.968
 1376POPC   C4A20238  14.886  40.957   7.526
 1376POPC   C1B20239  15.466  40.805   8.686
 1376POPC   C2B20240  15.425  41.036   8.308
 1376POPC   C3B20241  15.488  40.898   7.893
 1376POPC   C4B20242  15.312  41.177   7.629
 1377POPC   NC320243   1.439   5.274   9.489
 1377POPC   PO420244   1.569   4.692   9.400
 1377POPC   GL120245   1.299   4.986   9.124
 1377POPC   GL220246   0.957   5.099   9.261
 1377POPC   C1A20247   1.219   5.300   8.785
 1377POPC   D2A20248   1.074   5.454   8.363
 1377POPC   C3A20249   1.187   5.254   7.956
 1377POPC   C4A20250   1.194   5.307   7.488
 1377POPC   C1B20251   0.873   4.924   8.850
 1377POPC   C2B20252   0.990   4.837   8.430
 1377POPC   C3B20253   0.819   4.675   8.033
 1377POPC   C4B20254   0.993   4.859   7.683
 1378POPC   NC320255   4.409   6.196   9.362
 1378POPC   PO420256   4.380   5.546   9.501
 1378POPC   GL120257   4.407   5.586   9.092
 1378POPC   GL220258   4.603   5.858   8.973
 1378POPC   C1A20259   4.147   5.719   8.756
 1378POPC   D2A20260   4.027   5.894   8.389
 1378POPC   C3A20261   4.246   5.634   8.090
 1378POPC   C4A20262   4.554   5.747   7.810
 1378POPC   C1B20263   4.426   6.139   8.656
 1378POPC   C2B20264   4.284   6.318   8.278
 1378POPC   C3B20265   4.206   6.108   7.885
 1378POPC   C4B20266   4.401   6.061   7.458
 1379POPC   NC320267  15.986   3.068   9.449
 1379POPC   PO420268  16.249   2.363   9.456
 1379POPC   GL120269  16.131   2.660   9.168
 1379POPC   GL220270  15.780   2.694   9.117
 1379POPC   C1A20271  16.126   2.887   8.786
 1379POPC   D2A20272  15.901   2.978   8.410
 1379POPC   C3A20273  16.151   2.921   8.042
 1379POPC   C4A20274  16.154   2.683   7.653
 1379POPC   C1B20275  15.757   2.527   8.696
 1379POPC   C2B20276  15.586   2.556   8.290
 1379POPC   C3B20277  15.691   2.742   7.900
 1379POPC   C4B20278  15.444   2.775   7.538
 1380POPC   NC320279  20.787  40.272   9.561
 1380POPC   PO420280  20.899  39.662   9.494
 1380POPC   GL120281  20.738  39.711   9.077
 1380POPC   GL220282  20.596  40.053   9.104
 1380POPC   C1A20283  20.823  39.883   8.686
 1380POPC   D2A20284  20.639  39.977   8.311
 1380POPC   C3A20285  20.812  39.887   7.924
 1380POPC   C4A20286  20.451  39.844   7.707
 1380POPC   C1B20287  20.528  40.314   8.716
 1380POPC   C2B20288  20.532  40.465   8.299
 1380POPC   C3B20289  20.503  40.337   7.880
 1380POPC   C4B20290  20.392  40.286   7.439
 1381POPC   NC320291  20.487   9.312   9.835
 1381POPC   PO420292  20.799   9.883   9.788
 1381POPC   GL120293  20.575   9.813   9.375
 1381POPC   GL220294  20.459  10.111   9.202
 1381POPC   C1A20295  20.509   9.700   8.907
 1381POPC   D2A20296  20.482   9.664   8.437
 1381POPC   C3A20297  20.681   9.330   8.185
 1381POPC   C4A20298  20.907   9.351   7.795
 1381POPC   C1B20299  20.826  10.108   8.966
 1381POPC   C2B20300  20.770  10.116   8.542
 1381POPC   C3B20301  20.703  10.077   8.115
 1381POPC   C4B20302  20.608   9.757   7.823
 1382POPC   NC320303  37.034   1.207   9.569
 1382POPC   PO420304  36.469   1.572   9.502
 1382POPC   GL120305  36.710   1.321   9.177
 1382POPC   GL220306  37.077   1.393   9.092
 1382POPC   C1A20307  36.721   1.072   8.804
 1382POPC   D2A20308  36.983   0.981   8.453
 1382POPC   C3A20309  36.878   1.180   8.061
 1382POPC   C4A20310  36.954   0.975   7.685
 1382POPC   C1B20311  37.122   1.666   8.743
 1382POPC   C2B20312  36.970   1.645   8.350
 1382POPC   C3B20313  37.141   1.633   7.958
 1382POPC   C4B20314  36.964   1.489   7.620
 1383POPC   NC320315  10.038  34.235   9.652
 1383POPC   PO420316   9.773  34.946   9.503
 1383POPC   GL120317   9.816  34.709   9.141
 1383POPC   GL220318   9.785  34.355   9.187
 1383POPC   C1A20319   9.758  34.671   8.702
 1383POPC   D2A20320  10.005  34.673   8.339
 1383POPC   C3A20321   9.923  34.793   7.946
 1383POPC   C4A20322   9.585  34.629   7.754
 1383POPC   C1B20323   9.995  34.230   8.780
 1383POPC   C2B20324   9.793  34.225   8.391
 1383POPC   C3B20325   9.789  34.173   7.957
 1383POPC   C4B20326   9.970  34.330   7.571
 1384POPC   NC320327  32.673  27.375   9.582
 1384POPC   PO420328  32.998  28.005   9.512
 1384POPC   GL120329  32.911  27.673   9.205
 1384POPC   GL220330  33.236  27.666   9.116
 1384POPC   C1A20331  32.963  27.316   8.863
 1384POPC   D2A20332  33.122  27.331   8.415
 1384POPC   C3A20333  32.817  27.245   8.073
 1384POPC   C4A20334  32.951  27.111   7.647
 1384POPC   C1B20335  33.118  27.773   8.682
 1384POPC   C2B20336  33.220  27.849   8.249
 1384POPC   C3B20337  33.211  27.525   7.925
 1384POPC   C4B20338  32.844  27.604   7.702
 1385POPC   NC320339  44.447  20.115   9.626
 1385POPC   PO420340  44.597  19.513   9.445
 1385POPC   GL120341  44.609  19.871   9.181
 1385POPC   GL220342  44.269  19.981   9.167
 1385POPC   C1A20343  44.727  19.802   8.767
 1385POPC   D2A20344  44.680  19.608   8.394
 1385POPC   C3A20345  44.827  19.898   8.115
 1385POPC   C4A20346  44.968  19.840   7.719
 1385POPC   C1B20347  44.271  20.091   8.750
 1385POPC   C2B20348  44.317  19.950   8.335
 1385POPC   C3B20349  44.394  19.892   7.888
 1385POPC   C4B20350  44.367  20.110   7.476
 1386POPC   NC320351  42.327  44.201   9.569
 1386POPC   PO420352  42.052  44.846   9.557
 1386POPC   GL120353  42.096  44.665   9.171
 1386POPC   GL220354  42.441  44.528   9.165
 1386POPC   C1A20355  42.152  44.661   8.732
 1386POPC   D2A20356  42.435  44.574   8.422
 1386POPC   C3A20357  42.261  44.730   8.044
 1386POPC   C4A20358  42.521  44.867   7.688
 1386POPC   C1B20359  42.697  44.337   8.812
 1386POPC   C2B20360  42.568  44.056   8.422
 1386POPC   C3B20361  42.374  44.172   8.018
 1386POPC   C4B20362  42.234  44.413   7.657
 1387POPC   NC320363  36.077   3.789   9.625
 1387POPC   PO420364  36.419   3.200   9.438
 1387POPC   GL120365  36.114   3.376   9.167
 1387POPC   GL220366  36.096   3.756   9.124
 1387POPC   C1A20367  36.021   3.407   8.741
 1387POPC   D2A20368  35.688   3.533   8.430
 1387POPC   C3A20369  35.956   3.427   8.083
 1387POPC   C4A20370  36.124   3.460   7.676
 1387POPC   C1B20371  35.895   3.897   8.757
 1387POPC   C2B20372  36.049   3.879   8.324
 1387POPC   C3B20373  36.203   3.914   7.915
 1387POPC   C4B20374  36.529   3.778   7.641
 1388POPC   NC320375  10.271  27.325   9.859
 1388POPC   PO420376  10.852  27.603   9.534
 1388POPC   GL120377  10.580  27.434   9.229
 1388POPC   GL220378  10.294  27.227   9.334
 1388POPC   C1A20379  10.452  27.625   8.864
 1388POPC   D2A20380  10.447  27.868   8.521
 1388POPC   C3A20381  10.361  27.679   8.152
 1388POPC   C4A20382  10.492  27.620   7.752
 1388POPC   C1B20383  10.217  27.180   8.894
 1388POPC   C2B20384  10.337  27.262   8.492
 1388POPC   C3B20385  10.315  27.154   8.069
 1388POPC   C4B20386  10.047  27.313   7.768
 1389POPC   NC320387  13.523  41.458   9.571
 1389POPC   PO420388  13.772  42.032   9.335
 1389POPC   GL120389  13.603  41.772   9.020
 1389POPC   GL220390  13.424  41.430   9.090
 1389POPC   C1A20391  13.572  41.842   8.562
 1389POPC   D2A20392  13.588  41.939   8.112
 1389POPC   C3A20393  13.668  41.591   7.839
 1389POPC   C4A20394  13.556  41.153   7.893
 1389POPC   C1B20395  13.656  41.350   8.709
 1389POPC   C2B20396  13.851  41.440   8.321
 1389POPC   C3B20397  14.045  41.269   7.931
 1389POPC   C4B20398  13.937  41.247   7.481
 1390POPC   NC320399  32.164  34.276   9.586
 1390POPC   PO420400  32.623  34.646   9.408
 1390POPC   GL120401  32.445  34.360   9.164
 1390POPC   GL220402  32.094  34.552   9.165
 1390POPC   C1A20403  32.657  34.339   8.777
 1390POPC   D2A20404  32.617  34.759   8.572
 1390POPC   C3A20405  32.530  34.776   8.145
 1390POPC   C4A20406  32.452  34.487   7.807
 1390POPC   C1B20407  32.122  34.350   8.786
 1390POPC   C2B20408  32.312  34.344   8.410
 1390POPC   C3B20409  32.166  34.183   8.081
 1390POPC   C4B20410  31.963  34.333   7.712
 1391POPC   NC320411  27.330   4.643   9.698
 1391POPC   PO420412  26.625   4.495   9.657
 1391POPC   GL120413  26.590   4.531   9.208
 1391POPC   GL220414  26.854   4.252   9.161
 1391POPC   C1A20415  26.703   4.518   8.760
 1391POPC   D2A20416  26.937   4.253   8.493
 1391POPC   C3A20417  26.893   4.398   8.107
 1391POPC   C4A20418  26.483   4.565   7.997
 1391POPC   C1B20419  26.633   3.999   8.844
 1391POPC   C2B20420  26.454   3.941   8.457
 1391POPC   C3B20421  26.575   4.009   8.075
 1391POPC   C4B20422  26.619   3.777   7.735
 1392POPC   NC320423  29.563  11.700   9.731
 1392POPC   PO420424  28.916  12.038   9.758
 1392POPC   GL120425  28.992  12.050   9.297
 1392POPC   GL220426  29.231  11.784   9.194
 1392POPC   C1A20427  28.943  12.007   8.823
 1392POPC   D2A20428  28.921  11.723   8.452
 1392POPC   C3A20429  29.033  11.924   8.043
 1392POPC   C4A20430  28.804  12.190   7.780
 1392POPC   C1B20431  29.374  11.693   8.750
 1392POPC   C2B20432  29.427  11.796   8.338
 1392POPC   C3B20433  29.452  11.689   7.906
 1392POPC   C4B20434  29.444  12.141   7.792
 1393POPC   NC320435  23.044  35.089   9.464
 1393POPC   PO420436  22.538  35.623   9.515
 1393POPC   GL120437  22.828  35.523   9.204
 1393POPC   GL220438  22.721  35.199   9.082
 1393POPC   C1A20439  22.922  35.596   8.793
 1393POPC   D2A20440  22.965  35.654   8.402
 1393POPC   C3A20441  23.179  35.545   8.072
 1393POPC   C4A20442  22.935  35.529   7.697
 1393POPC   C1B20443  23.123  35.144   8.826
 1393POPC   C2B20444  23.142  35.126   8.392
 1393POPC   C3B20445  22.889  35.112   7.998
 1393POPC   C4B20446  23.016  35.046   7.564
 1394POPC   NC320447   4.861  23.214   9.211
 1394POPC   PO420448   5.047  22.816   9.657
 1394POPC   GL120449   5.068  22.742   9.205
 1394POPC   GL220450   5.305  23.033   9.163
 1394POPC   C1A20451   4.820  22.728   8.779
 1394POPC   D2A20452   4.750  22.978   8.363
 1394POPC   C3A20453   4.974  22.913   7.936
 1394POPC   C4A20454   4.912  23.172   7.547
 1394POPC   C1B20455   5.299  22.873   8.752
 1394POPC   C2B20456   5.284  23.075   8.337
 1394POPC   C3B20457   5.389  23.224   7.925
 1394POPC   C4B20458   5.375  23.005   7.549
 1395POPC   NC320459  17.424  33.459   9.901
 1395POPC   PO420460  17.209  34.087   9.602
 1395POPC   GL120461  17.422  34.062   9.180
 1395POPC   GL220462  17.173  34.287   9.054
 1395POPC   C1A20463  17.663  33.740   8.866
 1395POPC   D2A20464  17.680  33.380   8.550
 1395POPC   C3A20465  17.722  33.396   8.094
 1395POPC   C4A20466  17.492  33.619   7.776
 1395POPC   C1B20467  17.364  34.101   8.668
 1395POPC   C2B20468  17.455  33.913   8.264
 1395POPC   C3B20469  17.459  34.125   7.864
 1395POPC   C4B20470  17.596  34.012   7.437
 1396POPC   NC320471  34.974   8.612   9.343
 1396POPC   PO420472  35.409   9.068   9.492
 1396POPC   GL120473  35.389   9.058   9.058
 1396POPC   GL220474  35.624   9.281   8.939
 1396POPC   C1A20475  35.206   8.786   8.747
 1396POPC   D2A20476  35.276   8.541   8.400
 1396POPC   C3A20477  35.418   8.767   8.078
 1396POPC   C4A20478  35.439   8.721   7.653
 1396POPC   C1B20479  35.455   9.187   8.535
 1396POPC   C2B20480  35.150   9.405   8.300
 1396POPC   C3B20481  35.246   9.253   7.964
 1396POPC   C4B20482  35.650   9.169   7.833
 1397POPC   NC320483  30.862  22.241   9.526
 1397POPC   PO420484  30.220  22.252   9.334
 1397POPC   GL120485  30.590  22.078   9.108
 1397POPC   GL220486  30.755  22.386   9.023
 1397POPC   C1A20487  30.824  21.991   8.704
 1397POPC   D2A20488  30.888  22.310   8.395
 1397POPC   C3A20489  30.858  22.265   7.979
 1397POPC   C4A20490  30.929  22.168   7.563
 1397POPC   C1B20491  30.450  22.368   8.686
 1397POPC   C2B20492  30.419  22.094   8.349
 1397POPC   C3B20493  30.420  21.982   7.946
 1397POPC   C4B20494  30.428  22.367   7.727
 1398POPC   NC320495  35.310  13.807   9.592
 1398POPC   PO420496  34.955  13.344   9.291
 1398POPC   GL120497  35.322  13.561   9.119
 1398POPC   GL220498  35.507  13.886   9.136
 1398POPC   C1A20499  35.233  13.651   8.707
 1398POPC   D2A20500  35.119  13.372   8.403
 1398POPC   C3A20501  35.165  13.547   8.016
 1398POPC   C4A20502  35.175  13.827   7.675
 1398POPC   C1B20503  35.698  13.837   8.739
 1398POPC   C2B20504  35.486  13.938   8.339
 1398POPC   C3B20505  35.608  13.798   7.958
 1398POPC   C4B20506  35.680  13.893   7.558
 1399POPC   NC320507  39.721  29.244   9.493
 1399POPC   PO420508  40.290  28.953   9.644
 1399POPC   GL120509  40.107  28.978   9.238
 1399POPC   GL220510  39.803  28.770   9.289
 1399POPC   C1A20511  40.293  28.975   8.805
 1399POPC   D2A20512  40.388  29.067   8.382
 1399POPC   C3A20513  40.102  29.005   8.056
 1399POPC   C4A20514  39.909  29.422   7.950
 1399POPC   C1B20515  39.849  28.724   8.859
 1399POPC   C2B20516  39.840  29.018   8.499
 1399POPC   C3B20517  39.587  29.071   8.111
 1399POPC   C4B20518  39.578  29.197   7.651
 1400POPC   NC320519  11.848   9.920   9.425
 1400POPC   PO420520  12.158  10.572   9.442
 1400POPC   GL120521  12.007  10.606   9.089
 1400POPC   GL220522  11.717  10.379   9.146
 1400POPC   C1A20523  12.182  10.609   8.703
 1400POPC   D2A20524  12.007  10.447   8.348
 1400POPC   C3A20525  12.090  10.648   8.020
 1400POPC   C4A20526  12.199  10.490   7.661
 1400POPC   C1B20527  11.662  10.577   8.737
 1400POPC   C2B20528  11.800  10.893   8.447
 1400POPC   C3B20529  11.625  10.871   8.050
 1400POPC   C4B20530  11.726  10.676   7.669
 1401POPC   NC320531   0.404  35.041   9.454
 1401POPC   PO420532   0.294  35.767   9.507
 1401POPC   GL120533   0.383  35.481   9.184
 1401POPC   GL220534   0.727  35.449   9.337
 1401POPC   C1A20535   0.468  35.303   8.744
 1401POPC   D2A20536   0.670  35.098   8.386
 1401POPC   C3A20537   0.450  35.148   8.006
 1401POPC   C4A20538   0.127  35.486   7.918
 1401POPC   C1B20539   0.804  35.659   8.938
 1401POPC   C2B20540   0.827  35.583   8.493
 1401POPC   C3B20541   0.594  35.625   8.112
 1401POPC   C4B20542   0.713  35.688   7.706
 1402POPC   NC320543  35.209  37.321   9.518
 1402POPC   PO420544  35.522  37.869   9.691
 1402POPC   GL120545  35.345  37.810   9.288
 1402POPC   GL220546  35.583  37.565   9.252
 1402POPC   C1A20547  35.283  37.652   8.855
 1402POPC   D2A20548  35.206  37.838   8.467
 1402POPC   C3A20549  35.199  37.558   8.126
 1402POPC   C4A20550  35.186  37.766   7.752
 1402POPC   C1B20551  35.780  37.823   8.915
 1402POPC   C2B20552  35.734  37.721   8.484
 1402POPC   C3B20553  35.596  37.887   8.077
 1402POPC   C4B20554  35.631  37.538   7.802
 1403POPC   NC320555   3.975   4.296   9.386
 1403POPC   PO420556   3.438   4.675   9.584
 1403POPC   GL120557   3.448   4.522   9.149
 1403POPC   GL220558   3.798   4.512   8.959
 1403POPC   C1A20559   3.325   4.567   8.721
 1403POPC   D2A20560   3.345   4.348   8.345
 1403POPC   C3A20561   3.331   4.472   7.913
 1403POPC   C4A20562   3.185   4.172   7.601
 1403POPC   C1B20563   3.562   4.115   8.842
 1403POPC   C2B20564   3.402   3.866   8.491
 1403POPC   C3B20565   3.417   3.920   8.058
 1403POPC   C4B20566   3.656   3.903   7.705
 1404POPC   NC320567  16.706  34.068   9.542
 1404POPC   PO420568  16.485  33.399   9.550
 1404POPC   GL120569  16.452  33.726   9.175
 1404POPC   GL220570  16.754  33.963   9.056
 1404POPC   C1A20571  16.432  33.808   8.709
 1404POPC   D2A20572  16.599  33.891   8.263
 1404POPC   C3A20573  16.978  33.704   8.154
 1404POPC   C4A20574  16.991  33.504   7.769
 1404POPC   C1B20575  16.847  34.132   8.640
 1404POPC   C2B20576  17.020  34.241   8.254
 1404POPC   C3B20577  16.942  34.116   7.855
 1404POPC   C4B20578  16.686  34.163   7.527
 1405POPC   NC320579  23.994  16.774   9.468
 1405POPC   PO420580  23.471  16.488   9.471
 1405POPC   GL120581  23.631  16.683   9.101
 1405POPC   GL220582  23.969  16.756   8.970
 1405POPC   C1A20583  23.574  16.679   8.668
 1405POPC   D2A20584  23.781  16.705   8.330
 1405POPC   C3A20585  23.517  16.508   8.056
 1405POPC   C4A20586  23.541  16.609   7.658
 1405POPC   C1B20587  24.129  17.031   8.673
 1405POPC   C2B20588  24.126  17.077   8.219
 1405POPC   C3B20589  23.995  16.826   7.869
 1405POPC   C4B20590  23.931  16.899   7.436
 1406POPC   NC320591  22.749  15.188   9.819
 1406POPC   PO420592  23.233  14.862   9.483
 1406POPC   GL120593  22.946  15.079   9.239
 1406POPC   GL220594  22.618  15.294   9.346
 1406POPC   C1A20595  23.057  15.081   8.799
 1406POPC   D2A20596  23.358  14.932   8.489
 1406POPC   C3A20597  23.114  14.974   8.154
 1406POPC   C4A20598  22.946  15.008   7.751
 1406POPC   C1B20599  22.611  15.270   8.918
 1406POPC   C2B20600  22.601  15.100   8.500
 1406POPC   C3B20601  22.641  15.235   8.085
 1406POPC   C4B20602  22.636  15.403   7.676
 1407POPC   NC320603   5.215  22.375   9.624
 1407POPC   PO420604   4.809  21.845   9.677
 1407POPC   GL120605   5.064  22.028   9.279
 1407POPC   GL220606   4.991  21.724   9.159
 1407POPC   C1A20607   5.193  22.328   8.861
 1407POPC   D2A20608   5.095  22.544   8.400
 1407POPC   C3A20609   5.083  22.395   7.966
 1407POPC   C4A20610   5.392  22.369   7.598
 1407POPC   C1B20611   5.230  21.803   8.834
 1407POPC   C2B20612   5.202  22.011   8.434
 1407POPC   C3B20613   4.995  21.880   8.068
 1407POPC   C4B20614   5.117  21.964   7.685
 1408POPC   NC320615  43.694  13.141   9.438
 1408POPC   PO420616  44.328  12.960   9.531
 1408POPC   GL120617  44.109  12.962   9.177
 1408POPC   GL220618  44.074  13.333   9.151
 1408POPC   C1A20619  44.007  12.654   8.841
 1408POPC   D2A20620  43.942  12.476   8.413
 1408POPC   C3A20621  43.678  12.749   8.151
 1408POPC   C4A20622  43.684  12.789   7.724
 1408POPC   C1B20623  43.822  13.152   8.804
 1408POPC   C2B20624  43.997  12.992   8.454
 1408POPC   C3B20625  44.080  13.057   8.033
 1408POPC   C4B20626  43.766  13.261   7.854
 1409POPC   NC320627   2.543  41.582   9.541
 1409POPC   PO420628   3.213  41.456   9.521
 1409POPC   GL120629   2.932  41.627   9.200
 1409POPC   GL220630   2.749  41.321   9.159
 1409POPC   C1A20631   2.744  41.627   8.763
 1409POPC   D2A20632   2.881  41.753   8.335
 1409POPC   C3A20633   2.618  41.459   8.113
 1409POPC   C4A20634   2.312  41.255   7.844
 1409POPC   C1B20635   3.095  41.286   8.851
 1409POPC   C2B20636   3.114  41.281   8.403
 1409POPC   C3B20637   3.032  41.183   7.981
 1409POPC   C4B20638   2.946  40.966   7.629
 1410POPC   NC320639  25.420  18.089   9.451
 1410POPC   PO420640  25.091  18.642   9.547
 1410POPC   GL120641  25.289  18.523   9.164
 1410POPC   GL220642  25.598  18.344   9.025
 1410POPC   C1A20643  25.182  18.573   8.761
 1410POPC   D2A20644  24.987  18.305   8.468
 1410POPC   C3A20645  25.221  18.367   8.152
 1410POPC   C4A20646  25.296  18.587   7.783
 1410POPC   C1B20647  25.314  18.080   8.788
 1410POPC   C2B20648  25.345  17.861   8.375
 1410POPC   C3B20649  25.598  17.806   8.043
 1410POPC   C4B20650  25.342  18.028   7.806
 1411POPC   NC320651   0.734   2.735   9.546
 1411POPC   PO420652   0.034   2.468   9.487
 1411POPC   GL120653   0.351   2.660   9.197
 1411POPC   GL220654   0.684   2.488   9.108
 1411POPC   C1A20655   0.271   2.864   8.809
 1411POPC   D2A20656   0.025   2.714   8.468
 1411POPC   C3A20657   0.174   2.897   8.092
 1411POPC   C4A20658   0.359   2.765   7.710
 1411POPC   C1B20659   0.787   2.866   8.840
 1411POPC   C2B20660   0.632   2.945   8.398
 1411POPC   C3B20661   0.795   2.843   7.957
 1411POPC   C4B20662   0.815   2.520   7.603
 1412POPC   NC320663  17.678   3.024   9.517
 1412POPC   PO420664  17.270   2.470   9.553
 1412POPC   GL120665  17.489   2.651   9.181
 1412POPC   GL220666  17.848   2.634   9.171
 1412POPC   C1A20667  17.631   2.870   8.785
 1412POPC   D2A20668  17.537   2.726   8.380
 1412POPC   C3A20669  17.675   2.920   8.016
 1412POPC   C4A20670  17.469   2.986   7.615
 1412POPC   C1B20671  17.785   2.390   8.797
 1412POPC   C2B20672  17.917   2.353   8.376
 1412POPC   C3B20673  17.738   2.418   7.984
 1412POPC   C4B20674  17.821   2.605   7.586
 1413POPC   NC320675  24.455  14.944   9.586
 1413POPC   PO420676  25.091  15.285   9.588
 1413POPC   GL120677  24.819  15.144   9.180
 1413POPC   GL220678  24.467  15.217   9.172
 1413POPC   C1A20679  24.629  15.278   8.720
 1413POPC   D2A20680  24.575  15.628   8.433
 1413POPC   C3A20681  24.515  15.415   8.051
 1413POPC   C4A20682  24.505  14.968   7.947
 1413POPC   C1B20683  24.293  14.907   8.906
 1413POPC   C2B20684  24.315  14.931   8.446
 1413POPC   C3B20685  24.062  15.125   8.120
 1413POPC   C4B20686  24.010  14.946   7.706
 1414POPC   NC320687  29.943  34.080   9.487
 1414POPC   PO420688  30.124  34.699   9.521
 1414POPC   GL120689  30.001  34.472   9.151
 1414POPC   GL220690  29.627  34.424   9.225
 1414POPC   C1A20691  30.088  34.559   8.702
 1414POPC   D2A20692  29.926  34.734   8.337
 1414POPC   C3A20693  30.124  34.696   7.966
 1414POPC   C4A20694  29.954  34.477   7.653
 1414POPC   C1B20695  29.662  34.744   8.900
 1414POPC   C2B20696  29.684  35.094   8.602
 1414POPC   C3B20697  29.570  35.108   8.188
 1414POPC   C4B20698  29.576  34.896   7.813
 1415POPC   NC320699  34.204  30.680   9.498
 1415POPC   PO420700  34.694  31.153   9.565
 1415POPC   GL120701  34.618  30.888   9.228
 1415POPC   GL220702  34.459  31.117   9.033
 1415POPC   C1A20703  34.565  30.604   8.874
 1415POPC   D2A20704  34.524  30.729   8.448
 1415POPC   C3A20705  34.653  30.447   8.138
 1415POPC   C4A20706  34.539  30.516   7.737
 1415POPC   C1B20707  34.163  30.930   8.768
 1415POPC   C2B20708  34.050  30.970   8.326
 1415POPC   C3B20709  34.337  31.036   7.990
 1415POPC   C4B20710  34.389  30.945   7.530
 1416POPC   NC320711   7.627   3.117   9.487
 1416POPC   PO420712   7.257   2.572   9.461
 1416POPC   GL120713   7.541   2.607   9.127
 1416POPC   GL220714   7.674   2.922   9.026
 1416POPC   C1A20715   7.369   2.615   8.726
 1416POPC   D2A20716   7.276   2.845   8.364
 1416POPC   C3A20717   7.251   2.595   7.988
 1416POPC   C4A20718   6.929   2.377   7.783
 1416POPC   C1B20719   7.828   2.821   8.621
 1416POPC   C2B20720   7.742   2.982   8.213
 1416POPC   C3B20721   7.640   2.905   7.765
 1416POPC   C4B20722   7.564   3.032   7.310
 1417POPC   NC320723  39.075  21.321   9.581
 1417POPC   PO420724  39.531  21.872   9.662
 1417POPC   GL120725  39.415  21.602   9.264
 1417POPC   GL220726  39.611  21.296   9.338
 1417POPC   C1A20727  39.169  21.627   8.828
 1417POPC   D2A20728  39.060  21.760   8.370
 1417POPC   C3A20729  39.058  21.433   8.101
 1417POPC   C4A20730  39.202  21.394   7.675
 1417POPC   C1B20731  39.514  21.218   8.893
 1417POPC   C2B20732  39.272  21.217   8.521
 1417POPC   C3B20733  39.481  21.171   8.137
 1417POPC   C4B20734  39.474  20.981   7.748
 1418POPC   NC320735  35.553  41.788   9.421
 1418POPC   PO420736  35.112  41.429   9.718
 1418POPC   GL120737  35.228  41.423   9.268
 1418POPC   GL220738  35.097  41.697   9.079
 1418POPC   C1A20739  35.450  41.386   8.852
 1418POPC   D2A20740  35.481  41.529   8.415
 1418POPC   C3A20741  35.478  41.229   8.123
 1418POPC   C4A20742  35.642  41.261   7.735
 1418POPC   C1B20743  35.370  41.903   8.766
 1418POPC   C2B20744  35.575  42.028   8.379
 1418POPC   C3B20745  35.491  41.864   7.972
 1418POPC   C4B20746  35.252  41.603   7.708
 1419POPC   NC320747   1.277  40.822   9.574
 1419POPC   PO420748   1.094  40.174   9.522
 1419POPC   GL120749   0.948  40.491   9.174
 1419POPC   GL220750   1.193  40.752   9.088
 1419POPC   C1A20751   0.951  40.545   8.684
 1419POPC   D2A20752   1.242  40.626   8.305
 1419POPC   C3A20753   1.106  40.527   7.867
 1419POPC   C4A20754   1.089  40.839   7.531
 1419POPC   C1B20755   1.278  40.979   8.706
 1419POPC   C2B20756   1.442  41.139   8.300
 1419POPC   C3B20757   1.311  41.140   7.866
 1419POPC   C4B20758   1.493  41.144   7.413
 1420POPC   NC320759   5.594  20.931   9.260
 1420POPC   PO420760   6.078  20.556   9.455
 1420POPC   GL120761   5.920  20.587   9.066
 1420POPC   GL220762   5.995  20.909   8.935
 1420POPC   C1A20763   5.672  20.571   8.689
 1420POPC   D2A20764   5.696  20.720   8.316
 1420POPC   C3A20765   5.596  20.528   7.973
 1420POPC   C4A20766   5.949  20.543   7.826
 1420POPC   C1B20767   5.825  21.156   8.593
 1420POPC   C2B20768   5.555  21.189   8.222
 1420POPC   C3B20769   5.501  21.043   7.823
 1420POPC   C4B20770   5.647  21.089   7.394
 1421POPC   NC320771  41.030   9.696   9.778
 1421POPC   PO420772  40.623  10.090   9.435
 1421POPC   GL120773  40.891  10.027   9.099
 1421POPC   GL220774  41.023   9.686   9.105
 1421POPC   C1A20775  40.950   9.951   8.653
 1421POPC   D2A20776  41.132   9.894   8.216
 1421POPC   C3A20777  40.799   9.787   7.911
 1421POPC   C4A20778  40.402   9.978   7.816
 1421POPC   C1B20779  40.812   9.471   8.730
 1421POPC   C2B20780  40.587   9.561   8.335
 1421POPC   C3B20781  40.544   9.332   7.929
 1421POPC   C4B20782  40.922   9.345   7.641
 1422POPC   NC320783   9.677  14.945   9.362
 1422POPC   PO420784   9.960  15.533   9.526
 1422POPC   GL120785   9.752  15.414   9.143
 1422POPC   GL220786   9.390  15.399   9.163
 1422POPC   C1A20787   9.648  15.471   8.708
 1422POPC   D2A20788   9.725  15.092   8.553
 1422POPC   C3A20789   9.809  15.103   8.179
 1422POPC   C4A20790   9.784  15.287   7.813
 1422POPC   C1B20791   9.314  15.109   8.842
 1422POPC   C2B20792   9.223  15.176   8.414
 1422POPC   C3B20793   9.336  15.028   8.013
 1422POPC   C4B20794   9.310  15.231   7.642
 1423POPC   NC320795  18.508  35.888   9.563
 1423POPC   PO420796  18.528  35.237   9.545
 1423POPC   GL120797  18.346  35.466   9.162
 1423POPC   GL220798  18.097  35.761   9.203
 1423POPC   C1A20799  18.326  35.302   8.718
 1423POPC   D2A20800  18.355  35.045   8.349
 1423POPC   C3A20801  18.233  35.258   7.981
 1423POPC   C4A20802  18.483  35.438   7.659
 1423POPC   C1B20803  17.917  35.570   8.828
 1423POPC   C2B20804  17.891  35.398   8.412
 1423POPC   C3B20805  17.879  35.608   7.994
 1423POPC   C4B20806  17.981  35.467   7.550
 1424POPC   NC320807  10.780  32.882   9.455
 1424POPC   PO420808  10.070  33.138   9.471
 1424POPC   GL120809  10.397  33.163   9.253
 1424POPC   GL220810  10.373  32.857   9.130
 1424POPC   C1A20811  10.544  33.266   8.846
 1424POPC   D2A20812  10.567  33.029   8.461
 1424POPC   C3A20813  10.613  33.223   8.031
 1424POPC   C4A20814  10.450  33.116   7.610
 1424POPC   C1B20815  10.676  32.694   8.843
 1424POPC   C2B20816  10.768  32.463   8.474
 1424POPC   C3B20817  10.750  32.718   8.119
 1424POPC   C4B20818  10.888  32.840   7.750
 1425POPC   NC320819  37.590  30.393   9.569
 1425POPC   PO420820  37.848  31.017   9.497
 1425POPC   GL120821  37.654  30.937   9.154
 1425POPC   GL220822  37.906  31.089   8.985
 1425POPC   C1A20823  37.553  30.565   8.929
 1425POPC   D2A20824  37.606  30.344   8.552
 1425POPC   C3A20825  37.561  30.536   8.133
 1425POPC   C4A20826  37.803  30.627   7.753
 1425POPC   C1B20827  37.920  30.788   8.646
 1425POPC   C2B20828  38.157  30.984   8.332
 1425POPC   C3B20829  37.939  31.024   8.040
 1425POPC   C4B20830  37.769  31.164   7.724
 1426POPC   NC320831  34.709   1.448   9.476
 1426POPC   PO420832  34.124   1.200   9.619
 1426POPC   GL120833  34.394   1.151   9.211
 1426POPC   GL220834  34.606   1.385   8.973
 1426POPC   C1A20835  34.458   0.964   8.793
 1426POPC   D2A20836  34.338   1.131   8.419
 1426POPC   C3A20837  34.626   1.224   8.101
 1426POPC   C4A20838  34.455   1.177   7.701
 1426POPC   C1B20839  34.379   1.608   8.605
 1426POPC   C2B20840  34.370   1.693   8.145
 1426POPC   C3B20841  34.633   1.642   7.778
 1426POPC   C4B20842  34.938   1.287   7.642
 1427POPC   NC320843   4.246  31.986   9.993
 1427POPC   PO420844   4.622  32.236   9.443
 1427POPC   GL120845   4.487  32.413   9.080
 1427POPC   GL220846   4.223  32.611   9.195
 1427POPC   C1A20847   4.498  32.261   8.675
 1427POPC   D2A20848   4.326  32.321   8.283
 1427POPC   C3A20849   4.333  32.038   7.962
 1427POPC   C4A20850   4.573  32.083   7.569
 1427POPC   C1B20851   4.028  32.490   8.806
 1427POPC   C2B20852   3.833  32.433   8.404
 1427POPC   C3B20853   3.961  32.574   8.031
 1427POPC   C4B20854   4.223  32.450   7.688
 1428POPC   NC320855  16.495  22.526   9.513
 1428POPC   PO420856  17.058  22.179   9.585
 1428POPC   GL120857  16.832  22.201   9.155
 1428POPC   GL220858  16.525  22.361   9.042
 1428POPC   C1A20859  16.918  21.978   8.740
 1428POPC   D2A20860  16.712  21.928   8.290
 1428POPC   C3A20861  16.908  22.149   7.926
 1428POPC   C4A20862  16.887  22.091   7.433
 1428POPC   C1B20863  16.537  22.283   8.636
 1428POPC   C2B20864  16.329  22.310   8.277
 1428POPC   C3B20865  16.316  22.528   7.900
 1428POPC   C4B20866  16.675  22.498   7.645
 1429POPC   NC320867  31.449  21.785   9.225
 1429POPC   PO420868  31.298  22.447   9.427
 1429POPC   GL120869  31.242  22.224   9.047
 1429POPC   GL220870  31.607  22.266   9.016
 1429POPC   C1A20871  31.338  22.162   8.590
 1429POPC   D2A20872  31.705  22.405   8.393
 1429POPC   C3A20873  31.746  22.277   7.966
 1429POPC   C4A20874  31.445  22.296   7.620
 1429POPC   C1B20875  31.799  21.998   8.694
 1429POPC   C2B20876  31.880  21.890   8.289
 1429POPC   C3B20877  31.736  21.760   7.895
 1429POPC   C4B20878  31.698  21.914   7.444
 1430POPC   NC320879   0.637  36.796   9.550
 1430POPC   PO420880   0.145  37.317   9.531
 1430POPC   GL120881   0.193  36.872   9.283
 1430POPC   GL220882  44.980  36.554   9.202
 1430POPC   C1A20883   0.439  36.727   8.908
 1430POPC   D2A20884   0.606  36.973   8.559
 1430POPC   C3A20885   0.787  36.881   8.161
 1430POPC   C4A20886   0.793  37.042   7.766
 1430POPC   C1B20887   0.060  36.409   8.741
 1430POPC   C2B20888   0.356  36.536   8.385
 1430POPC   C3B20889   0.295  36.866   8.065
 1430POPC   C4B20890   0.022  36.804   7.746
 1431POPC   NC320891  42.521  10.137   9.438
 1431POPC   PO420892  42.081   9.593   9.287
 1431POPC   GL120893  42.300   9.839   9.077
 1431POPC   GL220894  42.074  10.137   9.113
 1431POPC   C1A20895  42.544   9.744   8.724
 1431POPC   D2A20896  42.756   9.925   8.371
 1431POPC   C3A20897  42.538   9.697   8.077
 1431POPC   C4A20898  42.429   9.608   7.684
 1431POPC   C1B20899  42.317  10.196   8.721
 1431POPC   C2B20900  42.256  10.077   8.290
 1431POPC   C3B20901  42.235  10.049   7.840
 1431POPC   C4B20902  42.114   9.913   7.429
 1432POPC   NC320903  31.410  41.217   9.378
 1432POPC   PO420904  31.342  41.863   9.629
 1432POPC   GL120905  31.631  41.725   9.330
 1432POPC   GL220906  31.320  41.787   9.129
 1432POPC   C1A20907  31.770  41.757   8.886
 1432POPC   D2A20908  31.583  41.890   8.468
 1432POPC   C3A20909  31.769  41.738   8.085
 1432POPC   C4A20910  31.955  41.506   7.780
 1432POPC   C1B20911  31.142  41.710   8.738
 1432POPC   C2B20912  31.278  41.471   8.376
 1432POPC   C3B20913  31.301  41.584   7.954
 1432POPC   C4B20914  31.103  41.610   7.536
 1433POPC   NC320915   5.210  41.258   9.490
 1433POPC   PO420916   4.721  41.705   9.381
 1433POPC   GL120917   5.126  41.688   9.196
 1433POPC   GL220918   5.326  42.010   9.196
 1433POPC   C1A20919   5.133  41.447   8.830
 1433POPC   D2A20920   4.851  41.514   8.473
 1433POPC   C3A20921   5.035  41.374   8.091
 1433POPC   C4A20922   4.950  41.623   7.740
 1433POPC   C1B20923   5.493  41.832   8.805
 1433POPC   C2B20924   5.378  41.636   8.423
 1433POPC   C3B20925   5.119  41.874   8.181
 1433POPC   C4B20926   5.282  42.050   7.836
 1434POPC   NC320927  11.560   3.354   9.562
 1434POPC   PO420928  12.229   3.313   9.456
 1434POPC   GL120929  12.026   3.523   9.155
 1434POPC   GL220930  12.299   3.461   8.924
 1434POPC   C1A20931  11.961   3.839   8.837
 1434POPC   D2A20932  11.724   3.799   8.483
 1434POPC   C3A20933  11.967   3.628   8.127
 1434POPC   C4A20934  11.716   3.547   7.762
 1434POPC   C1B20935  11.934   3.283   8.700
 1434POPC   C2B20936  11.922   2.978   8.372
 1434POPC   C3B20937  11.946   3.106   7.939
 1434POPC   C4B20938  12.269   3.371   7.772
 1435POPC   NC320939  15.347  19.749   9.401
 1435POPC   PO420940  14.728  19.618   9.325
 1435POPC   GL120941  14.907  19.966   9.113
 1435POPC   GL220942  15.180  20.188   9.216
 1435POPC   C1A20943  15.007  19.860   8.705
 1435POPC   D2A20944  14.991  19.565   8.382
 1435POPC   C3A20945  14.849  19.772   7.989
 1435POPC   C4A20946  15.120  19.856   7.646
 1435POPC   C1B20947  15.318  20.245   8.789
 1435POPC   C2B20948  15.351  20.028   8.360
 1435POPC   C3B20949  15.355  20.224   7.947
 1435POPC   C4B20950  15.459  20.187   7.504
 1436POPC   NC320951  38.249   5.664   9.443
 1436POPC   PO420952  38.824   6.023   9.296
 1436POPC   GL120953  38.549   5.782   9.027
 1436POPC   GL220954  38.198   5.938   9.023
 1436POPC   C1A20955  38.589   5.718   8.583
 1436POPC   D2A20956  38.949   5.562   8.340
 1436POPC   C3A20957  38.830   5.569   7.906
 1436POPC   C4A20958  38.693   5.978   7.735
 1436POPC   C1B20959  38.132   6.075   8.605
 1436POPC   C2B20960  38.296   5.975   8.216
 1436POPC   C3B20961  38.321   5.676   7.923
 1436POPC   C4B20962  38.188   5.752   7.519
 1437POPC   NC320963  14.565  23.088   9.744
 1437POPC   PO420964  14.268  22.613   9.423
 1437POPC   GL120965  14.456  22.756   9.088
 1437POPC   GL220966  14.515  23.116   9.205
 1437POPC   C1A20967  14.244  22.756   8.684
 1437POPC   D2A20968  14.175  22.945   8.288
 1437POPC   C3A20969  14.298  22.698   7.926
 1437POPC   C4A20970  14.101  22.646   7.519
 1437POPC   C1B20971  14.627  23.104   8.748
 1437POPC   C2B20972  14.555  23.285   8.354
 1437POPC   C3B20973  14.477  23.168   7.930
 1437POPC   C4B20974  14.514  22.942   7.506
 1438POPC   NC320975  21.455  32.156   9.583
 1438POPC   PO420976  20.743  32.127   9.494
 1438POPC   GL120977  21.127  32.231   9.198
 1438POPC   GL220978  21.510  32.335   9.120
 1438POPC   C1A20979  21.128  32.410   8.795
 1438POPC   D2A20980  21.448  32.465   8.503
 1438POPC   C3A20981  21.326  32.352   8.084
 1438POPC   C4A20982  21.500  32.413   7.692
 1438POPC   C1B20983  21.453  32.005   8.788
 1438POPC   C2B20984  21.586  31.967   8.361
 1438POPC   C3B20985  21.640  31.957   7.900
 1438POPC   C4B20986  21.806  31.876   7.462
 1439POPC   NC320987   7.064  39.736   9.424
 1439POPC   PO420988   7.419  40.269   9.635
 1439POPC   GL120989   7.510  40.039   9.242
 1439POPC   GL220990   7.831  39.837   9.286
 1439POPC   C1A20991   7.452  40.174   8.796
 1439POPC   D2A20992   7.555  40.198   8.354
 1439POPC   C3A20993   7.318  39.894   8.122
 1439POPC   C4A20994   6.968  39.961   7.831
 1439POPC   C1B20995   7.833  39.833   8.850
 1439POPC   C2B20996   7.869  39.776   8.389
 1439POPC   C3B20997   7.809  39.926   7.951
 1439POPC   C4B20998   7.483  39.841   7.621
 1440POPC   NC320999  38.557  20.769   9.766
 1440POPC   PO421000  39.281  20.921   9.691
 1440POPC   GL121001  39.131  20.784   9.295
 1440POPC   GL221002  39.456  20.627   9.210
 1440POPC   C1A21003  39.113  20.801   8.834
 1440POPC   D2A21004  38.943  20.850   8.412
 1440POPC   C3A21005  39.231  20.719   8.108
 1440POPC   C4A21006  39.167  20.585   7.654
 1440POPC   C1B21007  39.450  20.392   8.799
 1440POPC   C2B21008  39.597  20.358   8.354
 1440POPC   C3B21009  39.571  20.412   7.912
 1440POPC   C4B21010  39.719  20.602   7.552
 1441POPC   NC321011  14.073  33.582   9.578
 1441POPC   PO421012  14.728  33.611   9.552
 1441POPC   GL121013  14.438  33.709   9.194
 1441POPC   GL221014  14.239  34.027   9.273
 1441POPC   C1A21015  14.525  33.789   8.748
 1441POPC   D2A21016  14.757  33.735   8.335
 1441POPC   C3A21017  14.459  33.598   7.988
 1441POPC   C4A21018  14.489  33.617   7.485
 1441POPC   C1B21019  14.075  34.040   8.866
 1441POPC   C2B21020  14.120  33.890   8.457
 1441POPC   C3B21021  13.997  33.870   8.062
 1441POPC   C4B21022  14.180  33.983   7.685
 1442POPC   NC321023  41.519  42.258   9.561
 1442POPC   PO421024  41.520  42.957   9.627
 1442POPC   GL121025  41.380  42.653   9.224
 1442POPC   GL221026  41.584  42.356   9.057
 1442POPC   C1A21027  41.320  42.668   8.736
 1442POPC   D2A21028  41.107  42.616   8.312
 1442POPC   C3A21029  41.313  42.547   7.894
 1442POPC   C4A21030  41.670  42.309   7.800
 1442POPC   C1B21031  41.609  42.090   8.676
 1442POPC   C2B21032  41.467  42.220   8.272
 1442POPC   C3B21033  41.258  42.018   7.914
 1442POPC   C4B21034  41.473  41.793   7.594
 1443POPC   NC321035  27.174  24.505   9.496
 1443POPC   PO421036  26.462  24.442   9.465
 1443POPC   GL121037  26.654  24.299   9.107
 1443POPC   GL221038  26.983  24.448   9.036
 1443POPC   C1A21039  26.707  24.269   8.658
 1443POPC   D2A21040  26.928  24.411   8.315
 1443POPC   C3A21041  26.684  24.377   7.962
 1443POPC   C4A21042  26.384  24.448   7.654
 1443POPC   C1B21043  26.895  24.769   8.708
 1443POPC   C2B21044  26.886  24.945   8.287
 1443POPC   C3B21045  27.092  24.764   7.938
 1443POPC   C4B21046  27.145  24.781   7.496
 1444POPC   NC321047  39.698  26.981   9.476
 1444POPC   PO421048  40.148  26.584   9.608
 1444POPC   GL121049  40.337  26.746   9.216
 1444POPC   GL221050  40.214  27.108   9.163
 1444POPC   C1A21051  40.220  26.757   8.784
 1444POPC   D2A21052  40.180  27.052   8.432
 1444POPC   C3A21053  40.211  26.845   8.032
 1444POPC   C4A21054  39.938  26.865   7.659
 1444POPC   C1B21055  39.841  27.111   8.833
 1444POPC   C2B21056  39.669  27.194   8.411
 1444POPC   C3B21057  39.821  27.234   7.970
 1444POPC   C4B21058  39.818  27.343   7.497
 1445POPC   NC321059   8.511   8.112   9.632
 1445POPC   PO421060   9.009   8.581   9.471
 1445POPC   GL121061   9.038   8.350   9.080
 1445POPC   GL221062   8.719   8.158   9.148
 1445POPC   C1A21063   9.067   8.177   8.670
 1445POPC   D2A21064   8.997   8.091   8.223
 1445POPC   C3A21065   9.116   8.227   7.818
 1445POPC   C4A21066   9.167   7.996   7.413
 1445POPC   C1B21067   8.613   8.452   8.824
 1445POPC   C2B21068   8.764   8.518   8.423
 1445POPC   C3B21069   8.625   8.390   7.999
 1445POPC   C4B21070   8.687   8.357   7.559
 1446POPC   NC321071  24.625  37.231   9.561
 1446POPC   PO421072  24.246  36.707   9.519
 1446POPC   GL121073  24.445  36.850   9.136
 1446POPC   GL221074  24.738  36.999   9.111
 1446POPC   C1A21075  24.563  36.644   8.734
 1446POPC   D2A21076  24.525  36.797   8.294
 1446POPC   C3A21077  24.805  37.048   8.046
 1446POPC   C4A21078  24.824  36.749   7.710
 1446POPC   C1B21079  24.477  37.136   8.710
 1446POPC   C2B21080  24.541  37.375   8.353
 1446POPC   C3B21081  24.376  37.353   7.980
 1446POPC   C4B21082  24.344  36.985   7.785
 1447POPC   NC321083  43.401  36.465   9.529
 1447POPC   PO421084  43.317  35.787   9.463
 1447POPC   GL121085  43.098  36.143   9.253
 1447POPC   GL221086  43.419  36.199   9.078
 1447POPC   C1A21087  43.004  36.364   8.854
 1447POPC   D2A21088  43.179  36.211   8.468
 1447POPC   C3A21089  43.239  36.466   8.101
 1447POPC   C4A21090  43.019  36.382   7.756
 1447POPC   C1B21091  43.255  35.815   8.814
 1447POPC   C2B21092  43.198  35.675   8.363
 1447POPC   C3B21093  43.333  35.958   8.034
 1447POPC   C4B21094  43.263  35.977   7.591
 1448POPC   NC321095  22.084   3.893   9.397
 1448POPC   PO421096  22.281   3.302   9.507
 1448POPC   GL121097  22.280   3.475   9.134
 1448POPC   GL221098  22.633   3.408   9.134
 1448POPC   C1A21099  22.087   3.587   8.727
 1448POPC   D2A21100  22.234   3.757   8.333
 1448POPC   C3A21101  22.004   3.623   7.998
 1448POPC   C4A21102  21.924   3.195   7.859
 1448POPC   C1B21103  22.628   3.569   8.728
 1448POPC   C2B21104  22.676   3.377   8.335
 1448POPC   C3B21105  22.482   3.446   7.931
 1448POPC   C4B21106  22.354   3.209   7.546
 1449POPC   NC321107  20.389  11.981   9.308
 1449POPC   PO421108  20.877  12.471   9.221
 1449POPC   GL121109  20.756  12.083   8.967
 1449POPC   GL221110  20.884  11.786   9.199
 1449POPC   C1A21111  20.363  11.966   8.675
 1449POPC   D2A21112  20.247  12.065   8.247
 1449POPC   C3A21113  20.626  12.061   7.989
 1449POPC   C4A21114  20.959  12.150   7.725
 1449POPC   C1B21115  20.829  11.601   8.811
 1449POPC   C2B21116  20.756  11.776   8.432
 1449POPC   C3B21117  20.515  11.580   8.156
 1449POPC   C4B21118  20.674  11.557   7.776
 1450POPC   NC321119  41.256  38.264   9.463
 1450POPC   PO421120  41.766  38.701   9.635
 1450POPC   GL121121  41.583  38.609   9.252
 1450POPC   GL221122  41.830  38.373   9.149
 1450POPC   C1A21123  41.549  38.655   8.813
 1450POPC   D2A21124  41.843  38.559   8.518
 1450POPC   C3A21125  41.729  38.405   8.135
 1450POPC   C4A21126  41.616  38.593   7.794
 1450POPC   C1B21127  41.952  38.103   8.824
 1450POPC   C2B21128  42.049  38.105   8.401
 1450POPC   C3B21129  41.945  37.962   7.986
 1450POPC   C4B21130  41.761  38.138   7.613
 1451POPC   NC321131  31.639  14.824   9.872
 1451POPC   PO421132  31.330  15.243   9.438
 1451POPC   GL121133  31.452  15.174   9.054
 1451POPC   GL221134  31.789  15.272   9.099
 1451POPC   C1A21135  31.173  15.107   8.713
 1451POPC   D2A21136  31.249  15.261   8.300
 1451POPC   C3A21137  31.151  15.054   7.937
 1451POPC   C4A21138  31.312  15.351   7.647
 1451POPC   C1B21139  32.054  15.263   8.736
 1451POPC   C2B21140  32.045  15.416   8.313
 1451POPC   C3B21141  31.734  15.382   7.969
 1451POPC   C4B21142  31.840  15.312   7.513
 1452POPC   NC321143  38.491  32.083   9.488
 1452POPC   PO421144  38.360  32.704   9.398
 1452POPC   GL121145  38.299  32.332   9.077
 1452POPC   GL221146  38.232  31.927   9.100
 1452POPC   C1A21147  38.452  32.382   8.654
 1452POPC   D2A21148  38.735  32.430   8.310
 1452POPC   C3A21149  38.498  32.330   7.951
 1452POPC   C4A21150  38.382  32.430   7.537
 1452POPC   C1B21151  38.457  31.844   8.725
 1452POPC   C2B21152  38.396  31.966   8.321
 1452POPC   C3B21153  38.574  31.807   7.958
 1452POPC   C4B21154  38.618  31.982   7.594
 1453POPC   NC321155  10.536  20.139   9.525
 1453POPC   PO421156  10.089  19.588   9.584
 1453POPC   GL121157  10.235  19.769   9.221
 1453POPC   GL221158  10.161  20.098   9.172
 1453POPC   C1A21159  10.283  19.675   8.792
 1453POPC   D2A21160  10.203  19.916   8.422
 1453POPC   C3A21161  10.498  19.961   8.116
 1453POPC   C4A21162  10.537  19.862   7.719
 1453POPC   C1B21163  10.432  20.157   8.849
 1453POPC   C2B21164  10.303  20.435   8.554
 1453POPC   C3B21165  10.132  20.365   8.187
 1453POPC   C4B21166  10.249  20.394   7.778
 1454POPC   NC321167  17.109  32.018   9.507
 1454POPC   PO421168  17.713  32.393   9.356
 1454POPC   GL121169  17.424  32.151   9.104
 1454POPC   GL221170  17.191  32.413   9.212
 1454POPC   C1A21171  17.386  32.102   8.642
 1454POPC   D2A21172  17.533  31.882   8.305
 1454POPC   C3A21173  17.467  32.040   7.928
 1454POPC   C4A21174  17.723  32.235   7.654
 1454POPC   C1B21175  17.236  32.545   8.827
 1454POPC   C2B21176  17.046  32.474   8.435
 1454POPC   C3B21177  17.209  32.497   8.013
 1454POPC   C4B21178  17.121  32.401   7.583
 1455POPC   NC321179  38.680  27.909   9.857
 1455POPC   PO421180  38.094  27.711   9.520
 1455POPC   GL121181  38.346  27.599   9.140
 1455POPC   GL221182  38.140  27.279   9.084
 1455POPC   C1A21183  38.623  27.683   8.744
 1455POPC   D2A21184  38.847  27.651   8.333
 1455POPC   C3A21185  38.733  27.900   8.000
 1455POPC   C4A21186  38.394  27.788   7.769
 1455POPC   C1B21187  38.492  27.195   8.822
 1455POPC   C2B21188  38.719  27.154   8.413
 1455POPC   C3B21189  38.589  27.240   8.001
 1455POPC   C4B21190  38.398  27.291   7.615
 1456POPC   NC321191   3.770  13.154   9.452
 1456POPC   PO421192   3.222  12.844   9.746
 1456POPC   GL121193   3.400  12.877   9.239
 1456POPC   GL221194   3.514  12.559   9.084
 1456POPC   C1A21195   3.548  13.044   8.811
 1456POPC   D2A21196   3.734  12.949   8.378
 1456POPC   C3A21197   3.468  12.985   7.998
 1456POPC   C4A21198   3.521  13.220   7.616
 1456POPC   C1B21199   3.613  12.557   8.684
 1456POPC   C2B21200   4.004  12.523   8.450
 1456POPC   C3B21201   3.881  12.565   8.037
 1456POPC   C4B21202   3.471  12.437   7.841
 1457POPC   NC321203  10.281  24.182   9.456
 1457POPC   PO421204   9.673  24.571   9.509
 1457POPC   GL121205   9.949  24.516   9.198
 1457POPC   GL221206   9.737  24.727   9.024
 1457POPC   C1A21207   9.960  24.298   8.810
 1457POPC   D2A21208   9.908  24.519   8.413
 1457POPC   C3A21209   9.917  24.310   8.028
 1457POPC   C4A21210   9.744  24.230   7.642
 1457POPC   C1B21211   9.409  24.906   8.785
 1457POPC   C2B21212   9.364  25.057   8.356
 1457POPC   C3B21213   9.541  24.929   7.951
 1457POPC   C4B21214   9.404  24.742   7.551
 1458POPC   NC321215  19.581  23.014   9.464
 1458POPC   PO421216  20.145  22.649   9.498
 1458POPC   GL121217  20.028  22.894   9.121
 1458POPC   GL221218  19.682  22.864   8.991
 1458POPC   C1A21219  20.069  22.853   8.671
 1458POPC   D2A21220  19.706  22.704   8.432
 1458POPC   C3A21221  19.805  22.820   8.022
 1458POPC   C4A21222  20.115  22.944   7.712
 1458POPC   C1B21223  19.437  23.192   8.778
 1458POPC   C2B21224  19.284  23.180   8.367
 1458POPC   C3B21225  19.400  23.144   7.943
 1458POPC   C4B21226  19.600  22.934   7.565
 1459POPC   NC321227  30.187  42.664   9.280
 1459POPC   PO421228  29.832  42.210   9.618
 1459POPC   GL121229  29.922  42.241   9.182
 1459POPC   GL221230  29.589  42.192   9.158
 1459POPC   C1A21231  29.875  42.463   8.767
 1459POPC   D2A21232  30.103  42.690   8.480
 1459POPC   C3A21233  30.052  42.433   8.144
 1459POPC   C4A21234  29.871  42.517   7.772
 1459POPC   C1B21235  29.596  42.052   8.773
 1459POPC   C2B21236  29.510  42.259   8.405
 1459POPC   C3B21237  29.584  42.102   8.025
 1459POPC   C4B21238  29.687  42.053   7.616
 1460POPC   NC321239  32.718  37.869   9.521
 1460POPC   PO421240  31.993  37.743   9.555
 1460POPC   GL121241  32.182  37.663   9.192
 1460POPC   GL221242  32.362  37.962   9.155
 1460POPC   C1A21243  31.988  37.682   8.797
 1460POPC   D2A21244  32.061  37.918   8.429
 1460POPC   C3A21245  32.168  37.728   8.064
 1460POPC   C4A21246  31.907  37.589   7.769
 1460POPC   C1B21247  32.502  37.751   8.793
 1460POPC   C2B21248  32.571  37.881   8.381
 1460POPC   C3B21249  32.631  37.967   7.963
 1460POPC   C4B21250  32.425  37.777   7.619
 1461POPC   NC321251  20.043  28.642   9.708
 1461POPC   PO421252  20.170  27.953   9.538
 1461POPC   GL121253  19.936  28.337   9.292
 1461POPC   GL221254  19.578  28.383   9.193
 1461POPC   C1A21255  20.017  28.563   8.873
 1461POPC   D2A21256  20.094  28.523   8.409
 1461POPC   C3A21257  19.855  28.219   8.142
 1461POPC   C4A21258  19.921  28.177   7.698
 1461POPC   C1B21259  19.531  28.418   8.730
 1461POPC   C2B21260  19.573  28.625   8.316
 1461POPC   C3B21261  19.613  28.567   7.866
 1461POPC   C4B21262  19.494  28.404   7.440
 1462POPC   NC321263  13.570  10.924   9.297
 1462POPC   PO421264  13.497  11.593   9.411
 1462POPC   GL121265  13.743  11.397   9.111
 1462POPC   GL221266  13.423  11.307   8.995
 1462POPC   C1A21267  13.718  11.515   8.657
 1462POPC   D2A21268  13.498  11.395   8.324
 1462POPC   C3A21269  13.803  11.168   8.112
 1462POPC   C4A21270  13.883  10.976   7.745
 1462POPC   C1B21271  13.436  11.006   8.667
 1462POPC   C2B21272  13.220  10.965   8.297
 1462POPC   C3B21273  13.367  11.003   7.891
 1462POPC   C4B21274  13.493  11.361   7.705
 1463POPC   NC321275  13.995  34.427   9.566
 1463POPC   PO421276  13.528  34.922   9.506
 1463POPC   GL121277  13.671  34.695   9.156
 1463POPC   GL221278  13.742  34.315   9.158
 1463POPC   C1A21279  13.533  34.514   8.757
 1463POPC   D2A21280  13.742  34.610   8.397
 1463POPC   C3A21281  13.419  34.495   8.079
 1463POPC   C4A21282  13.345  34.494   7.619
 1463POPC   C1B21283  14.047  34.558   8.856
 1463POPC   C2B21284  14.200  34.389   8.477
 1463POPC   C3B21285  14.072  34.395   8.059
 1463POPC   C4B21286  13.781  34.302   7.794
 1464POPC   NC321287   8.665  33.494   9.313
 1464POPC   PO421288   8.246  33.026   9.576
 1464POPC   GL121289   8.091  33.040   9.181
 1464POPC   GL221290   8.092  33.391   9.218
 1464POPC   C1A21291   8.173  32.866   8.791
 1464POPC   D2A21292   7.975  32.821   8.415
 1464POPC   C3A21293   8.192  32.957   8.099
 1464POPC   C4A21294   8.535  32.980   7.843
 1464POPC   C1B21295   7.931  33.356   8.814
 1464POPC   C2B21296   8.087  33.387   8.412
 1464POPC   C3B21297   7.913  33.444   8.018
 1464POPC   C4B21298   8.038  33.216   7.699
 1465POPC   NC321299  33.924   1.622   9.440
 1465POPC   PO421300  33.830   2.355   9.442
 1465POPC   GL121301  33.995   2.050   9.148
 1465POPC   GL221302  33.676   1.850   9.069
 1465POPC   C1A21303  34.031   2.011   8.709
 1465POPC   D2A21304  33.741   2.203   8.413
 1465POPC   C3A21305  33.888   2.157   8.009
 1465POPC   C4A21306  33.750   2.123   7.601
 1465POPC   C1B21307  33.690   1.626   8.691
 1465POPC   C2B21308  33.874   1.697   8.272
 1465POPC   C3B21309  33.935   1.698   7.796
 1465POPC   C4B21310  33.665   1.672   7.396
 1466POPC   NC321311  28.606  42.049   9.868
 1466POPC   PO421312  28.432  41.523   9.446
 1466POPC   GL121313  28.497  41.609   9.039
 1466POPC   GL221314  28.257  41.924   9.008
 1466POPC   C1A21315  28.594  41.771   8.662
 1466POPC   D2A21316  28.403  41.493   8.386
 1466POPC   C3A21317  28.363  41.539   7.975
 1466POPC   C4A21318  28.337  41.764   7.634
 1466POPC   C1B21319  28.066  41.616   8.768
 1466POPC   C2B21320  27.853  41.597   8.387
 1466POPC   C3B21321  27.890  41.730   7.971
 1466POPC   C4B21322  27.922  41.490   7.604
 1467POPC   NC321323   6.720  12.508   9.501
 1467POPC   PO421324   6.547  11.872   9.646
 1467POPC   GL121325   6.508  11.971   9.235
 1467POPC   GL221326   6.271  12.230   9.217
 1467POPC   C1A21327   6.690  11.966   8.831
 1467POPC   D2A21328   6.862  12.212   8.490
 1467POPC   C3A21329   6.731  12.106   8.086
 1467POPC   C4A21330   6.601  11.905   7.697
 1467POPC   C1B21331   6.241  12.314   8.753
 1467POPC   C2B21332   6.369  12.423   8.292
 1467POPC   C3B21333   6.401  12.365   7.788
 1467POPC   C4B21334   6.352  12.513   7.363
 1468POPC   NC321335  11.458  40.344   9.419
 1468POPC   PO421336  10.904  40.103   9.693
 1468POPC   GL121337  11.110  40.024   9.206
 1468POPC   GL221338  11.431  39.847   9.088
 1468POPC   C1A21339  11.168  40.094   8.722
 1468POPC   D2A21340  11.401  39.874   8.359
 1468POPC   C3A21341  11.146  39.827   7.972
 1468POPC   C4A21342  10.907  40.120   7.763
 1468POPC   C1B21343  11.696  40.105   8.781
 1468POPC   C2B21344  11.632  40.379   8.413
 1468POPC   C3B21345  11.462  40.274   8.006
 1468POPC   C4B21346  11.389  40.104   7.577
 1469POPC   NC321347  35.738   9.416   9.426
 1469POPC   PO421348  35.418   9.937   9.712
 1469POPC   GL121349  35.364   9.836   9.230
 1469POPC   GL221350  35.272   9.542   9.182
 1469POPC   C1A21351  35.191  10.043   8.801
 1469POPC   D2A21352  35.043   9.906   8.350
 1469POPC   C3A21353  35.224  10.008   7.937
 1469POPC   C4A21354  35.527  10.046   7.610
 1469POPC   C1B21355  35.228   9.552   8.784
 1469POPC   C2B21356  35.523   9.710   8.466
 1469POPC   C3B21357  35.607   9.679   7.994
 1469POPC   C4B21358  35.340   9.591   7.624
 1470POPC   NC321359  25.622  11.493   9.424
 1470POPC   PO421360  25.081  11.188   9.393
 1470POPC   GL121361  25.289  11.261   9.032
 1470POPC   GL221362  25.637  11.153   9.053
 1470POPC   C1A21363  25.233  11.132   8.604
 1470POPC   D2A21364  25.309  10.994   8.191
 1470POPC   C3A21365  24.977  10.986   7.877
 1470POPC   C4A21366  24.972  11.304   7.522
 1470POPC   C1B21367  25.651  11.469   8.734
 1470POPC   C2B21368  25.697  11.327   8.335
 1470POPC   C3B21369  25.580  11.359   7.901
 1470POPC   C4B21370  25.441  11.014   7.678
 1471POPC   NC321371  24.459  31.016   9.593
 1471POPC   PO421372  24.314  30.358   9.580
 1471POPC   GL121373  24.407  30.444   9.153
 1471POPC   GL221374  24.620  30.734   9.181
 1471POPC   C1A21375  24.590  30.443   8.718
 1471POPC   D2A21376  24.657  30.399   8.261
 1471POPC   C3A21377  24.392  30.678   8.042
 1471POPC   C4A21378  24.366  30.786   7.621
 1471POPC   C1B21379  24.723  30.994   8.821
 1471POPC   C2B21380  24.729  30.889   8.400
 1471POPC   C3B21381  24.789  31.054   8.000
 1471POPC   C4B21382  24.879  30.897   7.634
 1472POPC   NC321383   2.940  25.916   9.766
 1472POPC   PO421384   2.387  26.211   9.447
 1472POPC   GL121385   2.566  26.116   9.049
 1472POPC   GL221386   2.721  25.750   9.084
 1472POPC   C1A21387   2.499  26.458   8.735
 1472POPC   D2A21388   2.346  26.563   8.309
 1472POPC   C3A21389   2.549  26.200   8.133
 1472POPC   C4A21390   2.792  26.047   7.797
 1472POPC   C1B21391   3.048  25.549   8.746
 1472POPC   C2B21392   3.046  25.727   8.344
 1472POPC   C3B21393   3.114  25.619   7.925
 1472POPC   C4B21394   3.021  25.612   7.481
 1473POPC   NC321395  15.723  10.403   9.588
 1473POPC   PO421396  16.366  10.675   9.474
 1473POPC   GL121397  15.997  10.611   9.171
 1473POPC   GL221398  15.667  10.390   9.092
 1473POPC   C1A21399  16.031  10.406   8.750
 1473POPC   D2A21400  15.897  10.145   8.407
 1473POPC   C3A21401  16.246  10.175   8.130
 1473POPC   C4A21402  16.306  10.497   7.824
 1473POPC   C1B21403  15.570  10.653   8.710
 1473POPC   C2B21404  15.480  10.530   8.300
 1473POPC   C3B21405  15.715  10.372   7.977
 1473POPC   C4B21406  15.856  10.567   7.634
 1474POPC   NC321407  18.143  19.311   9.751
 1474POPC   PO421408  18.546  19.083   9.250
 1474POPC   GL121409  18.299  18.839   9.040
 1474POPC   GL221410  18.003  18.987   9.173
 1474POPC   C1A21411  18.367  18.725   8.595
 1474POPC   D2A21412  18.264  18.826   8.192
 1474POPC   C3A21413  18.594  18.993   7.966
 1474POPC   C4A21414  18.622  19.368   7.758
 1474POPC   C1B21415  18.023  19.087   8.719
 1474POPC   C2B21416  17.946  19.262   8.368
 1474POPC   C3B21417  18.178  19.332   8.037
 1474POPC   C4B21418  18.165  19.044   7.707
 1475POPC   NC321419  39.667  24.779   9.483
 1475POPC   PO421420  39.118  24.304   9.415
 1475POPC   GL121421  39.430  24.457   9.162
 1475POPC   GL221422  39.324  24.827   9.113
 1475POPC   C1A21423  39.340  24.430   8.749
 1475POPC   D2A21424  38.990  24.350   8.482
 1475POPC   C3A21425  39.128  24.213   8.090
 1475POPC   C4A21426  39.393  24.454   7.809
 1475POPC   C1B21427  39.451  24.945   8.700
 1475POPC   C2B21428  39.406  24.698   8.321
 1475POPC   C3B21429  39.060  24.718   8.090
 1475POPC   C4B21430  39.065  24.880   7.723
 1476POPC   NC321431  29.850  35.065   9.550
 1476POPC   PO421432  30.040  35.691   9.513
 1476POPC   GL121433  29.866  35.494   9.144
 1476POPC   GL221434  29.651  35.195   9.112
 1476POPC   C1A21435  29.993  35.512   8.707
 1476POPC   D2A21436  29.747  35.563   8.348
 1476POPC   C3A21437  29.948  35.694   8.005
 1476POPC   C4A21438  29.740  35.726   7.643
 1476POPC   C1B21439  30.079  35.049   8.939
 1476POPC   C2B21440  30.247  35.081   8.540
 1476POPC   C3B21441  30.071  35.182   8.147
 1476POPC   C4B21442  29.938  35.248   7.730
 1477POPC   NC321443  25.745  16.709   9.674
 1477POPC   PO421444  26.245  16.430   9.430
 1477POPC   GL121445  26.001  16.710   9.216
 1477POPC   GL221446  25.782  16.454   9.112
 1477POPC   C1A21447  25.968  16.942   8.828
 1477POPC   D2A21448  25.978  17.128   8.421
 1477POPC   C3A21449  26.050  16.931   8.012
 1477POPC   C4A21450  26.352  16.685   7.825
 1477POPC   C1B21451  26.051  16.438   8.720
 1477POPC   C2B21452  26.205  16.410   8.249
 1477POPC   C3B21453  26.069  16.268   7.814
 1477POPC   C4B21454  25.805  16.518   7.486
 1478POPC   NC321455  43.471  16.838   9.535
 1478POPC   PO421456  42.835  16.837   9.578
 1478POPC   GL121457  42.889  16.855   9.139
 1478POPC   GL221458  43.240  16.867   9.069
 1478POPC   C1A21459  42.900  16.656   8.723
 1478POPC   D2A21460  43.153  16.535   8.365
 1478POPC   C3A21461  43.058  16.769   7.991
 1478POPC   C4A21462  42.779  16.793   7.629
 1478POPC   C1B21463  43.494  17.055   8.739
 1478POPC   C2B21464  43.524  16.937   8.278
 1478POPC   C3B21465  43.504  16.956   7.813
 1478POPC   C4B21466  43.350  16.946   7.359
 1479POPC   NC321467  42.138  26.118   9.522
 1479POPC   PO421468  41.885  25.730   9.079
 1479POPC   GL121469  42.353  25.800   9.093
 1479POPC   GL221470  42.426  26.135   9.106
 1479POPC   C1A21471  42.697  25.912   8.763
 1479POPC   D2A21472  42.467  25.918   8.406
 1479POPC   C3A21473  42.600  25.968   8.019
 1479POPC   C4A21474  42.293  25.898   7.703
 1479POPC   C1B21475  42.232  26.277   8.725
 1479POPC   C2B21476  42.347  26.418   8.300
 1479POPC   C3B21477  42.306  26.381   7.851
 1479POPC   C4B21478  42.257  26.347   7.415
 1480POPC   NC321479   0.777  32.194   9.543
 1480POPC   PO421480   0.227  32.494   9.507
 1480POPC   GL121481   0.483  32.372   9.153
 1480POPC   GL221482   0.334  32.036   9.026
 1480POPC   C1A21483   0.517  32.379   8.710
 1480POPC   D2A21484   0.137  32.268   8.526
 1480POPC   C3A21485   0.269  32.176   8.116
 1480POPC   C4A21486   0.572  32.479   7.907
 1480POPC   C1B21487   0.364  31.818   8.617
 1480POPC   C2B21488   0.681  31.879   8.285
 1480POPC   C3B21489   0.860  31.935   7.878
 1480POPC   C4B21490   0.639  32.144   7.516
 1481POPC   NC321491  14.188   8.474   9.589
 1481POPC   PO421492  14.621   7.956   9.557
 1481POPC   GL121493  14.288   8.087   9.231
 1481POPC   GL221494  14.034   7.830   9.180
 1481POPC   C1A21495  14.303   8.213   8.802
 1481POPC   D2A21496  14.317   8.390   8.404
 1481POPC   C3A21497  14.384   8.175   8.031
 1481POPC   C4A21498  14.576   8.378   7.716
 1481POPC   C1B21499  13.877   7.908   8.775
 1481POPC   C2B21500  13.937   8.039   8.352
 1481POPC   C3B21501  13.910   8.047   7.908
 1481POPC   C4B21502  14.169   8.135   7.501
 1482POPC   NC321503   7.418   9.283   9.447
 1482POPC   PO421504   7.242   8.665   9.740
 1482POPC   GL121505   7.324   8.717   9.237
 1482POPC   GL221506   7.607   8.899   9.137
 1482POPC   C1A21507   7.214   8.949   8.829
 1482POPC   D2A21508   7.044   9.068   8.442
 1482POPC   C3A21509   7.255   9.068   8.055
 1482POPC   C4A21510   7.151   9.398   7.793
 1482POPC   C1B21511   7.727   9.050   8.753
 1482POPC   C2B21512   7.944   9.007   8.380
 1482POPC   C3B21513   7.772   9.024   7.989
 1482POPC   C4B21514   7.630   9.298   7.658
 1483POPC   NC321515  39.881  39.915   9.467
 1483POPC   PO421516  40.421  39.514   9.506
 1483POPC   GL121517  40.223  39.780   9.133
 1483POPC   GL221518  40.150  40.143   9.115
 1483POPC   C1A21519  39.907  39.769   8.798
 1483POPC   D2A21520  39.913  39.625   8.359
 1483POPC   C3A21521  39.892  39.939   8.055
 1483POPC   C4A21522  39.882  40.006   7.614
 1483POPC   C1B21523  40.010  40.333   8.739
 1483POPC   C2B21524  39.991  40.397   8.298
 1483POPC   C3B21525  40.220  40.324   7.892
 1483POPC   C4B21526  40.211  40.372   7.453
 1484POPC   NC321527   1.951  24.970   9.342
 1484POPC   PO421528   1.551  24.484   9.574
 1484POPC   GL121529   1.826  24.500   9.189
 1484POPC   GL221530   1.631  24.728   9.062
 1484POPC   C1A21531   2.019  24.377   8.772
 1484POPC   D2A21532   2.034  24.111   8.388
 1484POPC   C3A21533   2.140  24.335   8.011
 1484POPC   C4A21534   1.992  24.194   7.625
 1484POPC   C1B21535   1.772  24.838   8.676
 1484POPC   C2B21536   1.992  24.745   8.289
 1484POPC   C3B21537   1.783  24.805   7.911
 1484POPC   C4B21538   1.725  24.618   7.487
 1485POPC   NC321539  43.501  27.458   9.570
 1485POPC   PO421540  42.928  27.697   9.827
 1485POPC   GL121541  42.945  27.587   9.332
 1485POPC   GL221542  43.186  27.370   9.152
 1485POPC   C1A21543  42.873  27.674   8.865
 1485POPC   D2A21544  42.834  27.505   8.438
 1485POPC   C3A21545  43.015  27.739   8.066
 1485POPC   C4A21546  43.326  28.058   7.916
 1485POPC   C1B21547  43.308  27.307   8.700
 1485POPC   C2B21548  43.238  27.272   8.240
 1485POPC   C3B21549  43.394  27.407   7.838
 1485POPC   C4B21550  43.348  27.213   7.391
 1486POPC   NC321551   5.773  42.061   9.569
 1486POPC   PO421552   5.873  42.693   9.471
 1486POPC   GL121553   6.009  42.490   9.095
 1486POPC   GL221554   6.120  42.151   9.197
 1486POPC   C1A21555   5.781  42.333   8.726
 1486POPC   D2A21556   5.560  42.145   8.368
 1486POPC   C3A21557   5.735  42.281   7.978
 1486POPC   C4A21558   5.707  42.545   7.617
 1486POPC   C1B21559   6.252  42.149   8.781
 1486POPC   C2B21560   6.075  42.043   8.397
 1486POPC   C3B21561   6.215  42.084   8.010
 1486POPC   C4B21562   6.104  42.185   7.637
 1487POPC   NC321563   2.785  10.829   9.885
 1487POPC   PO421564   2.666  11.357   9.581
 1487POPC   GL121565   2.574  11.310   9.162
 1487POPC   GL221566   2.842  11.056   9.091
 1487POPC   C1A21567   2.669  11.472   8.751
 1487POPC   D2A21568   2.862  11.472   8.319
 1487POPC   C3A21569   2.600  11.243   8.002
 1487POPC   C4A21570   2.318  11.351   7.669
 1487POPC   C1B21571   2.539  10.944   8.775
 1487POPC   C2B21572   2.429  10.770   8.391
 1487POPC   C3B21573   2.687  10.743   8.024
 1487POPC   C4B21574   2.558  10.875   7.627
 1488POPC   NC321575  18.457  11.649   9.420
 1488POPC   PO421576  18.345  10.963   9.532
 1488POPC   GL121577  18.340  11.232   9.146
 1488POPC   GL221578  18.018  11.266   8.947
 1488POPC   C1A21579  18.418  11.530   8.792
 1488POPC   D2A21580  18.316  11.577   8.400
 1488POPC   C3A21581  18.586  11.415   8.114
 1488POPC   C4A21582  18.386  11.288   7.765
 1488POPC   C1B21583  18.293  10.978   8.712
 1488POPC   C2B21584  18.379  10.937   8.286
 1488POPC   C3B21585  18.208  10.849   7.905
 1488POPC   C4B21586  18.495  10.809   7.570
 1489POPC   NC321587  38.412  43.720   9.519
 1489POPC   PO421588  38.940  44.203   9.631
 1489POPC   GL121589  38.652  44.113   9.289
 1489POPC   GL221590  38.699  43.769   9.118
 1489POPC   C1A21591  38.481  44.259   8.909
 1489POPC   D2A21592  38.591  44.307   8.480
 1489POPC   C3A21593  38.334  44.124   8.148
 1489POPC   C4A21594  38.372  43.898   7.766
 1489POPC   C1B21595  38.309  43.770   8.829
 1489POPC   C2B21596  38.126  43.702   8.390
 1489POPC   C3B21597  38.063  43.384   8.078
 1489POPC   C4B21598  38.049  43.491   7.645
 1490POPC   NC321599  20.183   0.524   9.562
 1490POPC   PO421600  20.818   0.295   9.491
 1490POPC   GL121601  20.685   0.379   9.141
 1490POPC   GL221602  20.324   0.285   9.118
 1490POPC   C1A21603  20.723   0.287   8.725
 1490POPC   D2A21604  20.559   0.226   8.321
 1490POPC   C3A21605  20.818   0.536   8.123
 1490POPC   C4A21606  20.860   0.676   7.745
 1490POPC   C1B21607  20.370   0.684   8.903
 1490POPC   C2B21608  20.505   0.743   8.478
 1490POPC   C3B21609  20.315   0.628   8.097
 1490POPC   C4B21610  20.402   0.887   7.801
 1491POPC   NC321611  19.466  13.894   9.388
 1491POPC   PO421612  20.032  13.769   9.763
 1491POPC   GL121613  19.994  13.705   9.324
 1491POPC   GL221614  20.213  13.940   9.204
 1491POPC   C1A21615  19.908  13.522   8.908
 1491POPC   D2A21616  19.893  13.331   8.497
 1491POPC   C3A21617  19.712  13.564   8.142
 1491POPC   C4A21618  19.846  13.367   7.740
 1491POPC   C1B21619  20.322  13.943   8.797
 1491POPC   C2B21620  20.176  13.756   8.415
 1491POPC   C3B21621  20.083  13.873   8.005
 1491POPC   C4B21622  20.162  13.788   7.562
 1492POPC   NC321623  40.042  41.549   9.393
 1492POPC   PO421624  39.455  41.902   9.349
 1492POPC   GL121625  39.766  41.799   9.024
 1492POPC   GL221626  40.122  41.954   9.062
 1492POPC   C1A21627  39.799  41.434   8.741
 1492POPC   D2A21628  39.651  41.347   8.324
 1492POPC   C3A21629  39.726  41.581   7.947
 1492POPC   C4A21630  39.760  41.324   7.589
 1492POPC   C1B21631  40.251  41.684   8.721
 1492POPC   C2B21632  40.173  41.469   8.308
 1492POPC   C3B21633  40.196  41.472   7.835
 1492POPC   C4B21634  40.032  41.753   7.535
 1493POPC   NC321635  33.249  22.482   9.510
 1493POPC   PO421636  32.858  21.963   9.523
 1493POPC   GL121637  32.771  22.110   9.117
 1493POPC   GL221638  32.934  22.424   9.105
 1493POPC   C1A21639  32.683  22.236   8.697
 1493POPC   D2A21640  32.941  22.229   8.316
 1493POPC   C3A21641  32.789  22.212   7.909
 1493POPC   C4A21642  32.673  21.842   7.698
 1493POPC   C1B21643  33.194  22.265   8.783
 1493POPC   C2B21644  33.381  22.467   8.436
 1493POPC   C3B21645  33.439  22.522   8.014
 1493POPC   C4B21646  33.243  22.341   7.663
 1494POPC   NC321647  42.541  27.738   9.593
 1494POPC   PO421648  42.045  27.326   9.540
 1494POPC   GL121649  42.295  27.447   9.211
 1494POPC   GL221650  42.244  27.112   9.093
 1494POPC   C1A21651  42.344  27.701   8.816
 1494POPC   D2A21652  42.171  27.758   8.390
 1494POPC   C3A21653  42.482  27.630   8.062
 1494POPC   C4A21654  42.204  27.712   7.781
 1494POPC   C1B21655  42.563  27.228   8.824
 1494POPC   C2B21656  42.368  27.306   8.458
 1494POPC   C3B21657  42.208  27.210   8.065
 1494POPC   C4B21658  42.442  27.226   7.709
 1495POPC   NC321659  12.447  13.184   9.540
 1495POPC   PO421660  13.065  12.957   9.577
 1495POPC   GL121661  13.004  12.751   9.193
 1495POPC   GL221662  12.661  12.819   9.219
 1495POPC   C1A21663  12.855  12.671   8.759
 1495POPC   D2A21664  12.606  12.860   8.430
 1495POPC   C3A21665  12.722  12.824   8.029
 1495POPC   C4A21666  12.769  12.512   7.785
 1495POPC   C1B21667  12.566  13.094   8.872
 1495POPC   C2B21668  12.374  13.311   8.532
 1495POPC   C3B21669  12.489  13.289   8.121
 1495POPC   C4B21670  12.580  13.285   7.714
 1496POPC   NC321671   1.357  30.593   9.586
 1496POPC   PO421672   0.827  31.000   9.535
 1496POPC   GL121673   1.072  30.719   9.198
 1496POPC   GL221674   1.422  30.872   9.166
 1496POPC   C1A21675   1.219  30.565   8.784
 1496POPC   D2A21676   1.312  30.378   8.390
 1496POPC   C3A21677   1.194  30.501   7.977
 1496POPC   C4A21678   1.120  30.754   7.605
 1496POPC   C1B21679   1.679  30.781   8.807
 1496POPC   C2B21680   1.476  30.875   8.428
 1496POPC   C3B21681   1.433  30.964   8.008
 1496POPC   C4B21682   1.619  30.720   7.712
 1497POPC   NC321683  20.222  33.187   9.555
 1497POPC   PO421684  19.561  33.427   9.391
 1497POPC   GL121685  19.928  33.300   9.131
 1497POPC   GL221686  19.997  32.954   9.076
 1497POPC   C1A21687  19.981  33.246   8.685
 1497POPC   D2A21688  19.777  33.350   8.362
 1497POPC   C3A21689  20.016  33.301   8.028
 1497POPC   C4A21690  19.756  33.098   7.805
 1497POPC   C1B21691  20.033  32.750   8.685
 1497POPC   C2B21692  19.929  32.850   8.292
 1497POPC   C3B21693  20.018  32.681   7.919
 1497POPC   C4B21694  19.798  32.669   7.511
 1498POPC   NC321695  27.462   5.514   9.551
 1498POPC   PO421696  27.818   4.862   9.619
 1498POPC   GL121697  27.721   5.014   9.210
 1498POPC   GL221698  27.400   5.150   9.174
 1498POPC   C1A21699  27.612   4.828   8.799
 1498POPC   D2A21700  27.442   5.058   8.455
 1498POPC   C3A21701  27.484   4.903   8.083
 1498POPC   C4A21702  27.496   4.992   7.659
 1498POPC   C1B21703  27.124   5.372   8.874
 1498POPC   C2B21704  26.971   5.341   8.459
 1498POPC   C3B21705  27.134   5.313   8.032
 1498POPC   C4B21706  27.257   5.437   7.581
 1499POPC   NC321707  11.691   5.027   9.251
 1499POPC   PO421708  11.285   5.377   9.643
 1499POPC   GL121709  11.230   5.267   9.194
 1499POPC   GL221710  11.170   4.908   9.160
 1499POPC   C1A21711  11.365   5.284   8.733
 1499POPC   D2A21712  11.668   5.201   8.365
 1499POPC   C3A21713  11.506   5.239   7.957
 1499POPC   C4A21714  11.105   5.398   7.945
 1499POPC   C1B21715  11.109   4.842   8.705
 1499POPC   C2B21716  11.165   5.004   8.273
 1499POPC   C3B21717  11.263   4.780   7.840
 1499POPC   C4B21718  11.110   4.678   7.370
 1500POPC   NC321719   1.403  39.286   9.652
 1500POPC   PO421720   1.097  38.820   9.332
 1500POPC   GL121721   1.392  39.109   9.179
 1500POPC   GL221722   1.139  39.332   9.152
 1500POPC   C1A21723   1.552  39.384   8.837
 1500POPC   D2A21724   1.318  39.463   8.444
 1500POPC   C3A21725   1.337  39.240   8.037
 1500POPC   C4A21726   1.344  39.168   7.563
 1500POPC   C1B21727   1.122  39.088   8.727
 1500POPC   C2B21728   0.999  38.964   8.297
 1500POPC   C3B21729   0.850  39.159   7.883
 1500POPC   C4B21730   0.848  39.135   7.407
 1501POPC   NC321731  35.102   9.415   9.616
 1501POPC   PO421732  34.634   8.824   9.629
 1501POPC   GL121733  34.549   9.101   9.255
 1501POPC   GL221734  34.872   9.075   9.113
 1501POPC   C1A21735  34.366   9.103   8.807
 1501POPC   D2A21736  34.470   8.930   8.388
 1501POPC   C3A21737  34.467   9.125   7.988
 1501POPC   C4A21738  34.070   9.258   7.790
 1501POPC   C1B21739  34.868   9.184   8.676
 1501POPC   C2B21740  34.970   8.935   8.295
 1501POPC   C3B21741  34.974   8.855   7.853
 1501POPC   C4B21742  34.699   8.929   7.534
 1502POPC   NC321743  28.345  36.686   9.490
 1502POPC   PO421744  28.297  37.387   9.650
 1502POPC   GL121745  28.468  37.190   9.272
 1502POPC   GL221746  28.172  37.025   9.158
 1502POPC   C1A21747  28.513  37.268   8.813
 1502POPC   D2A21748  28.351  37.152   8.389
 1502POPC   C3A21749  28.588  37.248   7.989
 1502POPC   C4A21750  28.541  37.531   7.654
 1502POPC   C1B21751  28.315  36.798   8.785
 1502POPC   C2B21752  28.241  36.647   8.365
 1502POPC   C3B21753  28.307  36.836   7.988
 1502POPC   C4B21754  28.355  36.797   7.543
 1503POPC   NC321755  31.610  18.447   9.463
 1503POPC   PO421756  31.346  17.797   9.524
 1503POPC   GL121757  31.213  18.031   9.164
 1503POPC   GL221758  31.544  18.181   9.021
 1503POPC   C1A21759  31.147  18.117   8.728
 1503POPC   D2A21760  31.477  18.254   8.461
 1503POPC   C3A21761  31.407  18.102   8.067
 1503POPC   C4A21762  31.720  17.975   7.755
 1503POPC   C1B21763  31.340  18.577   8.850
 1503POPC   C2B21764  31.148  18.637   8.457
 1503POPC   C3B21765  31.345  18.622   8.065
 1503POPC   C4B21766  31.310  18.394   7.666
 1504POPC   NC321767  36.535  32.327   9.454
 1504POPC   PO421768  37.073  31.834   9.512
 1504POPC   GL121769  37.001  32.163   9.213
 1504POPC   GL221770  37.295  32.362   9.155
 1504POPC   C1A21771  36.932  32.251   8.762
 1504POPC   D2A21772  36.652  32.267   8.436
 1504POPC   C3A21773  36.886  32.336   8.076
 1504POPC   C4A21774  36.744  32.389   7.628
 1504POPC   C1B21775  37.344  31.995   8.862
 1504POPC   C2B21776  37.181  31.865   8.512
 1504POPC   C3B21777  37.156  31.828   8.092
 1504POPC   C4B21778  37.081  32.016   7.723
 1505POPC   NC321779   4.614  14.053   9.417
 1505POPC   PO421780   4.076  13.522   9.448
 1505POPC   GL121781   4.410  13.612   9.139
 1505POPC   GL221782   4.702  13.377   9.186
 1505POPC   C1A21783   4.461  13.878   8.764
 1505POPC   D2A21784   4.538  13.933   8.321
 1505POPC   C3A21785   4.260  13.682   8.013
 1505POPC   C4A21786   4.404  13.297   7.780
 1505POPC   C1B21787   4.577  13.237   8.755
 1505POPC   C2B21788   4.551  13.367   8.318
 1505POPC   C3B21789   4.777  13.581   8.008
 1505POPC   C4B21790   4.589  13.741   7.617
 1506POPC   NC321791   2.333   7.259   9.591
 1506POPC   PO421792   1.765   7.581   9.259
 1506POPC   GL121793   1.888   7.351   8.959
 1506POPC   GL221794   2.206   7.245   9.100
 1506POPC   C1A21795   1.894   7.447   8.492
 1506POPC   D2A21796   2.165   7.708   8.196
 1506POPC   C3A21797   2.185   7.564   7.787
 1506POPC   C4A21798   1.895   7.322   7.563
 1506POPC   C1B21799   2.336   7.306   8.719
 1506POPC   C2B21800   2.359   7.222   8.297
 1506POPC   C3B21801   2.193   7.082   7.932
 1506POPC   C4B21802   2.335   7.073   7.489
 1507POPC   NC321803  23.912  11.910   9.760
 1507POPC   PO421804  24.539  11.989   9.560
 1507POPC   GL121805  24.551  11.927   9.154
 1507POPC   GL221806  24.443  12.265   9.046
 1507POPC   C1A21807  24.758  11.994   8.766
 1507POPC   D2A21808  24.652  12.217   8.412
 1507POPC   C3A21809  24.669  12.095   7.994
 1507POPC   C4A21810  24.596  12.482   7.748
 1507POPC   C1B21811  24.234  12.056   8.777
 1507POPC   C2B21812  24.127  12.164   8.402
 1507POPC   C3B21813  24.199  12.315   8.031
 1507POPC   C4B21814  24.244  12.017   7.705
 1508POPC   NC321815  34.392   6.215   9.518
 1508POPC   PO421816  34.835   5.759   9.318
 1508POPC   GL121817  34.640   6.066   9.061
 1508POPC   GL221818  34.272   6.066   9.060
 1508POPC   C1A21819  34.521   5.983   8.626
 1508POPC   D2A21820  34.691   5.673   8.403
 1508POPC   C3A21821  34.613   5.742   7.993
 1508POPC   C4A21822  34.753   6.091   7.802
 1508POPC   C1B21823  34.318   5.613   8.898
 1508POPC   C2B21824  34.188   5.546   8.467
 1508POPC   C3B21825  34.153   5.884   8.177
 1508POPC   C4B21826  34.219   6.063   7.760
 1509POPC   NC321827   2.030   4.687   9.463
 1509POPC   PO421828   1.890   5.402   9.520
 1509POPC   GL121829   1.839   5.112   9.187
 1509POPC   GL221830   2.192   5.116   9.156
 1509POPC   C1A21831   1.660   5.028   8.766
 1509POPC   D2A21832   1.446   5.093   8.364
 1509POPC   C3A21833   1.720   5.021   8.012
 1509POPC   C4A21834   2.078   5.280   7.807
 1509POPC   C1B21835   2.378   4.836   8.866
 1509POPC   C2B21836   2.298   4.616   8.473
 1509POPC   C3B21837   2.170   4.736   8.065
 1509POPC   C4B21838   2.028   4.808   7.645
 1510POPC   NC321839  16.575  40.590   9.270
 1510POPC   PO421840  16.967  41.031   9.515
 1510POPC   GL121841  17.002  40.894   9.072
 1510POPC   GL221842  16.942  40.565   8.926
 1510POPC   C1A21843  17.015  40.939   8.593
 1510POPC   D2A21844  16.810  40.626   8.322
 1510POPC   C3A21845  16.957  40.561   7.917
 1510POPC   C4A21846  16.926  40.963   7.737
 1510POPC   C1B21847  16.534  40.839   8.710
 1510POPC   C2B21848  16.421  41.002   8.307
 1510POPC   C3B21849  16.471  40.776   7.912
 1510POPC   C4B21850  16.514  40.879   7.458
 1511POPC   NC321851   3.062  42.680   9.537
 1511POPC   PO421852   2.754  42.015   9.534
 1511POPC   GL121853   2.723  42.116   9.134
 1511POPC   GL221854   3.029  42.290   9.162
 1511POPC   C1A21855   2.755  42.108   8.700
 1511POPC   D2A21856   2.847  42.310   8.347
 1511POPC   C3A21857   2.774  42.136   7.979
 1511POPC   C4A21858   2.522  42.245   7.638
 1511POPC   C1B21859   3.178  42.387   8.758
 1511POPC   C2B21860   3.167  42.690   8.440
 1511POPC   C3B21861   3.269  42.590   7.998
 1511POPC   C4B21862   3.015  42.462   7.680
 1512POPC   NC321863  28.347  23.460   9.411
 1512POPC   PO421864  28.615  24.089   9.490
 1512POPC   GL121865  28.464  23.882   9.134
 1512POPC   GL221866  28.116  23.810   9.054
 1512POPC   C1A21867  28.515  23.759   8.729
 1512POPC   D2A21868  28.461  23.538   8.370
 1512POPC   C3A21869  28.186  23.803   8.166
 1512POPC   C4A21870  28.416  23.881   7.824
 1512POPC   C1B21871  27.984  23.476   8.750
 1512POPC   C2B21872  27.991  23.341   8.328
 1512POPC   C3B21873  28.209  23.358   7.927
 1512POPC   C4B21874  28.092  23.346   7.474
 1513POPC   NC321875   8.341  38.529   9.477
 1513POPC   PO421876   7.766  38.953   9.344
 1513POPC   GL121877   8.012  38.589   9.091
 1513POPC   GL221878   8.387  38.623   8.983
 1513POPC   C1A21879   8.076  38.434   8.632
 1513POPC   D2A21880   7.878  38.663   8.271
 1513POPC   C3A21881   8.154  38.575   7.921
 1513POPC   C4A21882   8.615  38.548   7.987
 1513POPC   C1B21883   8.582  38.331   8.689
 1513POPC   C2B21884   8.421  38.038   8.368
 1513POPC   C3B21885   8.333  38.088   7.919
 1513POPC   C4B21886   8.138  38.245   7.519
 1514POPC   NC321887  37.318  21.607   9.527
 1514POPC   PO421888  37.926  21.198   9.494
 1514POPC   GL121889  37.635  21.329   9.220
 1514POPC   GL221890  37.829  21.611   9.075
 1514POPC   C1A21891  37.489  21.337   8.799
 1514POPC   D2A21892  37.745  21.395   8.432
 1514POPC   C3A21893  37.595  21.266   8.033
 1514POPC   C4A21894  37.606  21.048   7.654
 1514POPC   C1B21895  37.993  21.229   8.850
 1514POPC   C2B21896  38.299  21.104   8.577
 1514POPC   C3B21897  38.150  21.191   8.196
 1514POPC   C4B21898  38.080  21.167   7.807
 1515POPC   NC321899  44.307  31.560   9.850
 1515POPC   PO421900  44.094  31.114   9.371
 1515POPC   GL121901  43.858  31.337   9.063
 1515POPC   GL221902  43.524  31.388   9.108
 1515POPC   C1A21903  43.994  31.307   8.643
 1515POPC   D2A21904  44.159  31.403   8.238
 1515POPC   C3A21905  43.996  31.284   7.835
 1515POPC   C4A21906  44.038  31.345   7.383
 1515POPC   C1B21907  43.599  31.691   8.792
 1515POPC   C2B21908  43.817  31.733   8.404
 1515POPC   C3B21909  43.626  31.684   8.008
 1515POPC   C4B21910  43.744  31.703   7.588
 1516POPC   NC321911  33.429  31.030   9.378
 1516POPC   PO421912  33.783  30.482   9.633
 1516POPC   GL121913  33.790  30.580   9.212
 1516POPC   GL221914  33.454  30.564   9.167
 1516POPC   C1A21915  34.017  30.441   8.820
 1516POPC   D2A21916  33.872  30.486   8.393
 1516POPC   C3A21917  34.119  30.523   8.040
 1516POPC   C4A21918  33.941  30.375   7.632
 1516POPC   C1B21919  33.654  30.840   8.798
 1516POPC   C2B21920  33.515  30.885   8.391
 1516POPC   C3B21921  33.602  30.779   8.000
 1516POPC   C4B21922  33.926  30.886   7.745
 1517POPC   NC321923  25.724   8.026   9.663
 1517POPC   PO421924  25.549   8.586   9.445
 1517POPC   GL121925  25.917   8.279   9.255
 1517POPC   GL221926  25.856   7.901   9.170
 1517POPC   C1A21927  26.100   8.180   8.832
 1517POPC   D2A21928  26.015   8.499   8.529
 1517POPC   C3A21929  25.963   8.433   8.090
 1517POPC   C4A21930  26.259   8.360   7.746
 1517POPC   C1B21931  25.601   7.869   8.782
 1517POPC   C2B21932  25.745   8.037   8.388
 1517POPC   C3B21933  25.749   7.966   7.929
 1517POPC   C4B21934  25.939   8.031   7.492
 1518POPC   NC321935  13.234  22.233   9.618
 1518POPC   PO421936  12.720  21.802   9.567
 1518POPC   GL121937  12.911  21.999   9.227
 1518POPC   GL221938  13.044  22.346   9.172
 1518POPC   C1A21939  12.739  21.987   8.829
 1518POPC   D2A21940  12.589  22.119   8.424
 1518POPC   C3A21941  12.936  21.974   8.164
 1518POPC   C4A21942  13.071  22.078   7.748
 1518POPC   C1B21943  12.849  22.485   8.847
 1518POPC   C2B21944  12.957  22.498   8.457
 1518POPC   C3B21945  12.833  22.443   8.066
 1518POPC   C4B21946  12.967  22.589   7.722
 1519POPC   NC321947  36.611  36.375   9.507
 1519POPC   PO421948  35.947  36.068   9.435
 1519POPC   GL121949  35.717  36.202   9.084
 1519POPC   GL221950  36.045  36.370   9.007
 1519POPC   C1A21951  35.708  36.320   8.647
 1519POPC   D2A21952  35.999  36.268   8.325
 1519POPC   C3A21953  35.967  36.064   7.952
 1519POPC   C4A21954  35.902  36.138   7.488
 1519POPC   C1B21955  36.079  35.958   8.738
 1519POPC   C2B21956  36.347  35.872   8.359
 1519POPC   C3B21957  36.473  35.887   7.917
 1519POPC   C4B21958  36.402  36.037   7.485
 1520POPC   NC321959  22.232  40.630   9.691
 1520POPC   PO421960  21.913  41.203   9.452
 1520POPC   GL121961  22.137  40.890   9.188
 1520POPC   GL221962  22.189  40.544   9.191
 1520POPC   C1A21963  22.394  40.898   8.799
 1520POPC   D2A21964  22.464  40.761   8.362
 1520POPC   C3A21965  22.509  40.919   7.916
 1520POPC   C4A21966  22.521  40.894   7.383
 1520POPC   C1B21967  21.953  40.609   8.809
 1520POPC   C2B21968  21.833  40.660   8.388
 1520POPC   C3B21969  21.975  40.795   8.014
 1520POPC   C4B21970  22.146  40.709   7.648
 1521POPC   NC321971  40.304   0.848   9.516
 1521POPC   PO421972  40.920   1.243   9.465
 1521POPC   GL121973  40.725   1.187   9.102
 1521POPC   GL221974  40.461   1.424   9.187
 1521POPC   C1A21975  40.754   0.936   8.738
 1521POPC   D2A21976  40.577   0.867   8.358
 1521POPC   C3A21977  40.814   0.879   8.002
 1521POPC   C4A21978  40.790   0.893   7.568
 1521POPC   C1B21979  40.613   1.621   8.828
 1521POPC   C2B21980  40.773   1.412   8.514
 1521POPC   C3B21981  40.695   1.383   8.132
 1521POPC   C4B21982  40.896   1.340   7.764
 1522POPC   NC321983  35.638  21.369   9.388
 1522POPC   PO421984  36.214  21.242   9.589
 1522POPC   GL121985  36.152  21.627   9.264
 1522POPC   GL221986  36.464  21.659   9.102
 1522POPC   C1A21987  36.103  21.823   8.792
 1522POPC   D2A21988  36.074  21.553   8.384
 1522POPC   C3A21989  35.795  21.577   7.994
 1522POPC   C4A21990  35.733  21.547   7.526
 1522POPC   C1B21991  36.532  21.483   8.681
 1522POPC   C2B21992  36.564  21.565   8.240
 1522POPC   C3B21993  36.315  21.319   7.959
 1522POPC   C4B21994  36.342  21.076   7.574
 1523POPC   NC321995   5.455  14.287   9.494
 1523POPC   PO421996   4.824  14.345   9.726
 1523POPC   GL121997   4.805  14.511   9.257
 1523POPC   GL221998   5.089  14.780   9.191
 1523POPC   C1A21999   4.770  14.336   8.810
 1523POPC   D2A22000   5.008  14.238   8.460
 1523POPC   C3A22001   4.923  14.298   8.058
 1523POPC   C4A22002   4.963  14.008   7.786
 1523POPC   C1B22003   5.239  14.570   8.792
 1523POPC   C2B22004   5.377  14.711   8.337
 1523POPC   C3B22005   5.178  14.692   7.884
 1523POPC   C4B22006   5.216  14.850   7.447
 1524POPC   NC322007  35.030  43.286   9.808
 1524POPC   PO422008  34.525  42.968   9.556
 1524POPC   GL122009  34.515  43.101   9.134
 1524POPC   GL222010  34.300  42.843   9.077
 1524POPC   C1A22011  34.687  43.194   8.713
 1524POPC   D2A22012  34.874  43.277   8.303
 1524POPC   C3A22013  34.759  43.083   7.923
 1524POPC   C4A22014  34.694  43.146   7.496
 1524POPC   C1B22015  34.189  43.060   8.696
 1524POPC   C2B22016  34.306  43.333   8.366
 1524POPC   C3B22017  34.271  43.140   7.978
 1524POPC   C4B22018  34.211  43.025   7.580
 1525POPC   NC322019  32.590  24.910   9.734
 1525POPC   PO422020  32.105  25.337   9.445
 1525POPC   GL122021  32.410  25.312   9.145
 1525POPC   GL222022  32.696  25.545   9.219
 1525POPC   C1A22023  32.281  25.189   8.728
 1525POPC   D2A22024  32.046  25.247   8.334
 1525POPC   C3A22025  32.255  25.149   7.930
 1525POPC   C4A22026  32.237  25.304   7.506
 1525POPC   C1B22027  32.591  25.597   8.764
 1525POPC   C2B22028  32.546  25.426   8.326
 1525POPC   C3B22029  32.598  25.530   7.873
 1525POPC   C4B22030  32.721  25.379   7.449
 1526POPC   NC322031  29.785   4.182   9.534
 1526POPC   PO422032  30.413   4.226   9.246
 1526POPC   GL122033  30.115   4.428   8.985
 1526POPC   GL222034  29.782   4.278   9.042
 1526POPC   C1A22035  29.903   4.385   8.575
 1526POPC   D2A22036  29.672   4.235   8.261
 1526POPC   C3A22037  29.774   4.435   7.891
 1526POPC   C4A22038  30.065   4.399   7.555
 1526POPC   C1B22039  30.008   3.941   8.777
 1526POPC   C2B22040  30.123   3.932   8.328
 1526POPC   C3B22041  29.907   3.904   7.931
 1526POPC   C4B22042  29.763   3.990   7.503
 1527POPC   NC322043  28.049   9.116   9.850
 1527POPC   PO422044  28.415   9.712   9.541
 1527POPC   GL122045  28.232   9.833   9.167
 1527POPC   GL222046  28.469  10.078   9.054
 1527POPC   C1A22047  28.232   9.731   8.739
 1527POPC   D2A22048  28.473   9.687   8.391
 1527POPC   C3A22049  28.299   9.684   8.020
 1527POPC   C4A22050  28.380   9.580   7.618
 1527POPC   C1B22051  28.660  10.095   8.663
 1527POPC   C2B22052  28.858   9.999   8.273
 1527POPC   C3B22053  28.636  10.059   7.882
 1527POPC   C4B22054  28.804  10.229   7.491
 1528POPC   NC322055  28.259  14.634   9.825
 1528POPC   PO422056  28.536  14.203   9.393
 1528POPC   GL122057  28.471  14.409   9.027
 1528POPC   GL222058  28.167  14.293   8.840
 1528POPC   C1A22059  28.600  14.496   8.619
 1528POPC   D2A22060  28.291  14.462   8.334
 1528POPC   C3A22061  28.475  14.531   7.987
 1528POPC   C4A22062  28.707  14.304   7.727
 1528POPC   C1B22063  28.520  13.990   8.722
 1528POPC   C2B22064  28.618  14.027   8.296
 1528POPC   C3B22065  28.328  14.044   7.968
 1528POPC   C4B22066  28.304  14.051   7.518
 1529POPC   NC322067  34.079  33.806   9.419
 1529POPC   PO422068  33.457  34.039   9.559
 1529POPC   GL122069  33.717  34.085   9.217
 1529POPC   GL222070  33.684  33.748   9.111
 1529POPC   C1A22071  33.824  34.080   8.763
 1529POPC   D2A22072  33.675  33.837   8.417
 1529POPC   C3A22073  33.893  33.913   8.031
 1529POPC   C4A22074  33.684  34.037   7.665
 1529POPC   C1B22075  33.925  33.552   8.789
 1529POPC   C2B22076  34.071  33.530   8.366
 1529POPC   C3B22077  33.989  33.414   7.967
 1529POPC   C4B22078  33.970  33.643   7.588
 1530POPC   NC322079  18.741  36.489   9.530
 1530POPC   PO422080  18.119  36.150   9.536
 1530POPC   GL122081  18.310  36.392   9.226
 1530POPC   GL222082  18.478  36.113   9.093
 1530POPC   C1A22083  18.346  36.481   8.782
 1530POPC   D2A22084  18.262  36.239   8.433
 1530POPC   C3A22085  18.453  36.333   8.061
 1530POPC   C4A22086  18.179  36.443   7.729
 1530POPC   C1B22087  18.369  35.820   8.750
 1530POPC   C2B22088  18.311  35.701   8.312
 1530POPC   C3B22089  18.329  35.855   7.885
 1530POPC   C4B22090  18.371  35.854   7.391
 1531POPC   NC322091  26.583  28.808   9.500
 1531POPC   PO422092  27.223  29.068   9.444
 1531POPC   GL122093  26.950  29.111   9.075
 1531POPC   GL222094  26.624  28.927   9.011
 1531POPC   C1A22095  26.969  28.996   8.641
 1531POPC   D2A22096  26.714  29.018   8.273
 1531POPC   C3A22097  27.021  28.864   7.956
 1531POPC   C4A22098  27.326  28.699   7.641
 1531POPC   C1B22099  26.582  29.297   8.726
 1531POPC   C2B22100  26.635  29.613   8.428
 1531POPC   C3B22101  26.534  29.504   8.060
 1531POPC   C4B22102  26.658  29.170   7.783
 1532POPC   NC322103   5.259  19.412   9.418
 1532POPC   PO422104   4.773  18.961   9.330
 1532POPC   GL122105   5.097  19.038   9.055
 1532POPC   GL222106   4.939  19.356   8.998
 1532POPC   C1A22107   5.179  19.109   8.600
 1532POPC   D2A22108   5.440  19.226   8.237
 1532POPC   C3A22109   5.331  18.975   7.905
 1532POPC   C4A22110   5.027  18.766   7.724
 1532POPC   C1B22111   4.653  19.497   8.677
 1532POPC   C2B22112   4.827  19.454   8.265
 1532POPC   C3B22113   4.859  19.237   7.843
 1532POPC   C4B22114   5.092  19.404   7.467
 1533POPC   NC322115  27.483  11.713   9.627
 1533POPC   PO422116  27.948  12.215   9.581
 1533POPC   GL122117  27.585  12.095   9.269
 1533POPC   GL222118  27.263  12.282   9.215
 1533POPC   C1A22119  27.595  12.017   8.816
 1533POPC   D2A22120  27.800  12.214   8.432
 1533POPC   C3A22121  27.631  12.134   8.025
 1533POPC   C4A22122  27.543  11.885   7.665
 1533POPC   C1B22123  27.099  12.193   8.782
 1533POPC   C2B22124  27.275  12.137   8.386
 1533POPC   C3B22125  27.132  12.162   7.953
 1533POPC   C4B22126  27.049  11.919   7.562
 1534POPC   NC322127  17.642  21.110   9.557
 1534POPC   PO422128  17.112  21.500   9.577
 1534POPC   GL122129  17.400  21.569   9.250
 1534POPC   GL222130  17.458  21.241   9.096
 1534POPC   C1A22131  17.443  21.690   8.815
 1534POPC   D2A22132  17.505  21.423   8.440
 1534POPC   C3A22133  17.453  21.674   8.058
 1534POPC   C4A22134  17.293  21.898   7.695
 1534POPC   C1B22135  17.150  21.054   8.818
 1534POPC   C2B22136  16.973  21.041   8.411
 1534POPC   C3B22137  17.244  21.178   8.096
 1534POPC   C4B22138  17.664  21.238   7.898
 1535POPC   NC322139  13.877  18.828   9.569
 1535POPC   PO422140  13.415  19.316   9.485
 1535POPC   GL122141  13.340  19.147   9.066
 1535POPC   GL222142  13.507  18.809   9.022
 1535POPC   C1A22143  13.404  19.152   8.640
 1535POPC   D2A22144  13.438  18.852   8.336
 1535POPC   C3A22145  13.534  19.085   7.985
 1535POPC   C4A22146  13.368  19.359   7.632
 1535POPC   C1B22147  13.836  18.829   8.666
 1535POPC   C2B22148  13.941  18.792   8.213
 1535POPC   C3B22149  13.929  18.814   7.754
 1535POPC   C4B22150  13.954  18.734   7.272
 1536POPC   NC322151  11.160  39.697   9.589
 1536POPC   PO422152  11.651  39.198   9.571
 1536POPC   GL122153  11.460  39.307   9.168
 1536POPC   GL222154  11.100  39.447   9.135
 1536POPC   C1A22155  11.356  39.152   8.746
 1536POPC   D2A22156  11.175  39.391   8.440
 1536POPC   C3A22157  11.381  39.387   8.053
 1536POPC   C4A22158  11.333  39.457   7.640
 1536POPC   C1B22159  10.931  39.037   8.997
 1536POPC   C2B22160  10.912  38.929   8.535
 1536POPC   C3B22161  11.088  38.977   8.122
 1536POPC   C4B22162  10.980  39.070   7.711
 1537POPC   NC322163  29.913  28.215   9.540
 1537POPC   PO422164  30.140  28.872   9.503
 1537POPC   GL122165  29.904  28.568   9.148
 1537POPC   GL222166  29.634  28.235   9.122
 1537POPC   C1A22167  29.956  28.288   8.754
 1537POPC   D2A22168  29.716  28.146   8.397
 1537POPC   C3A22169  29.889  28.227   8.006
 1537POPC   C4A22170  30.002  28.398   7.606
 1537POPC   C1B22171  29.487  27.932   8.794
 1537POPC   C2B22172  29.389  27.736   8.383
 1537POPC   C3B22173  29.358  28.015   8.046
 1537POPC   C4B22174  29.490  28.271   7.709
 1538POPC   NC322175   2.139  37.802   9.467
 1538POPC   PO422176   1.716  37.183   9.507
 1538POPC   GL122177   2.076  37.349   9.202
 1538POPC   GL222178   1.956  37.664   9.023
 1538POPC   C1A22179   2.284  37.359   8.784
 1538POPC   D2A22180   2.191  37.611   8.400
 1538POPC   C3A22181   1.997  37.458   7.993
 1538POPC   C4A22182   1.589  37.351   7.768
 1538POPC   C1B22183   1.753  37.791   8.649
 1538POPC   C2B22184   1.569  37.633   8.235
 1538POPC   C3B22185   1.650  37.894   7.861
 1538POPC   C4B22186   1.625  38.021   7.421
 1539POPC   NC322187   9.186  44.010   9.630
 1539POPC   PO422188   8.721  44.279   9.273
 1539POPC   GL122189   9.146  44.176   9.162
 1539POPC   GL222190   9.140  43.834   9.153
 1539POPC   C1A22191   9.345  44.206   8.806
 1539POPC   D2A22192   9.129  43.987   8.528
 1539POPC   C3A22193   9.146  43.942   8.116
 1539POPC   C4A22194   8.987  44.033   7.724
 1539POPC   C1B22195   8.971  43.607   8.808
 1539POPC   C2B22196   8.971  43.473   8.388
 1539POPC   C3B22197   8.800  43.550   7.968
 1539POPC   C4B22198   8.952  43.574   7.541
 1540POPC   NC322199  41.743   7.314   9.342
 1540POPC   PO422200  41.170   7.581   9.568
 1540POPC   GL122201  41.323   7.759   9.194
 1540POPC   GL222202  41.642   7.830   9.164
 1540POPC   C1A22203  41.344   7.607   8.773
 1540POPC   D2A22204  41.272   7.667   8.343
 1540POPC   C3A22205  41.440   7.332   8.077
 1540POPC   C4A22206  41.396   7.288   7.642
 1540POPC   C1B22207  41.840   7.746   8.782
 1540POPC   C2B22208  41.773   7.533   8.400
 1540POPC   C3B22209  41.752   7.731   7.958
 1540POPC   C4B22210  41.838   7.529   7.549
 1541POPC   NC322211   9.943   9.334   9.808
 1541POPC   PO422212   9.703   9.759   9.368
 1541POPC   GL122213   9.908   9.836   9.012
 1541POPC   GL222214   9.974  10.177   9.040
 1541POPC   C1A22215   9.882   9.716   8.589
 1541POPC   D2A22216   9.936   9.753   8.162
 1541POPC   C3A22217   9.640   9.538   7.903
 1541POPC   C4A22218   9.680   9.373   7.512
 1541POPC   C1B22219   9.596  10.142   8.738
 1541POPC   C2B22220   9.491  10.006   8.318
 1541POPC   C3B22221   9.640  10.069   7.895
 1541POPC   C4B22222   9.907   9.839   7.582
 1542POPC   NC322223  24.698   1.710   9.365
 1542POPC   PO422224  24.252   2.224   9.510
 1542POPC   GL122225  24.427   2.075   9.127
 1542POPC   GL222226  24.189   1.853   9.128
 1542POPC   C1A22227  24.637   2.197   8.737
 1542POPC   D2A22228  24.750   2.475   8.370
 1542POPC   C3A22229  24.819   2.285   7.971
 1542POPC   C4A22230  24.889   2.168   7.542
 1542POPC   C1B22231  24.046   2.084   8.792
 1542POPC   C2B22232  24.261   2.053   8.423
 1542POPC   C3B22233  24.433   1.924   8.075
 1542POPC   C4B22234  24.434   1.990   7.672
 1543POPC   NC322235  36.616   6.140   9.547
 1543POPC   PO422236  37.025   5.587   9.634
 1543POPC   GL122237  36.847   5.794   9.260
 1543POPC   GL222238  36.510   5.685   9.225
 1543POPC   C1A22239  36.718   5.970   8.829
 1543POPC   D2A22240  36.660   6.142   8.388
 1543POPC   C3A22241  36.963   6.103   8.063
 1543POPC   C4A22242  37.130   6.036   7.689
 1543POPC   C1B22243  36.378   5.574   8.800
 1543POPC   C2B22244  36.575   5.641   8.411
 1543POPC   C3B22245  36.552   5.804   8.002
 1543POPC   C4B22246  36.483   5.917   7.595
 1544POPC   NC322247  39.744  26.317   9.614
 1544POPC   PO422248  40.195  25.862   9.441
 1544POPC   GL122249  39.869  26.025   9.208
 1544POPC   GL222250  40.003  26.343   9.176
 1544POPC   C1A22251  39.808  26.037   8.769
 1544POPC   D2A22252  40.093  25.876   8.468
 1544POPC   C3A22253  39.966  25.944   8.050
 1544POPC   C4A22254  40.250  25.765   7.770
 1544POPC   C1B22255  39.757  26.556   8.874
 1544POPC   C2B22256  39.794  26.709   8.438
 1544POPC   C3B22257  39.824  26.475   8.020
 1544POPC   C4B22258  39.994  26.326   7.605
 1545POPC   NC322259  32.721  31.376   9.384
 1545POPC   PO422260  33.332  31.502   9.523
 1545POPC   GL122261  33.136  31.658   9.159
 1545POPC   GL222262  33.104  31.291   9.080
 1545POPC   C1A22263  32.961  31.609   8.728
 1545POPC   D2A22264  32.918  31.254   8.448
 1545POPC   C3A22265  32.884  31.472   8.073
 1545POPC   C4A22266  32.860  31.283   7.698
 1545POPC   C1B22267  33.456  31.369   8.857
 1545POPC   C2B22268  33.401  31.358   8.498
 1545POPC   C3B22269  33.392  31.318   8.097
 1545POPC   C4B22270  33.290  31.520   7.750
 1546POPC   NC322271  22.703   1.219   9.351
 1546POPC   PO422272  22.102   1.035   9.539
 1546POPC   GL122273  22.212   1.087   9.120
 1546POPC   GL222274  22.278   1.404   9.109
 1546POPC   C1A22275  22.026   1.092   8.705
 1546POPC   D2A22276  22.100   1.273   8.299
 1546POPC   C3A22277  21.873   1.243   7.953
 1546POPC   C4A22278  21.924   1.101   7.546
 1546POPC   C1B22279  22.231   1.565   8.698
 1546POPC   C2B22280  22.464   1.627   8.323
 1546POPC   C3B22281  22.488   1.407   7.959
 1546POPC   C4B22282  22.424   1.726   7.695
 1547POPC   NC322283  13.324  10.482   9.634
 1547POPC   PO422284  13.977  10.717   9.386
 1547POPC   GL122285  13.749  10.465   9.117
 1547POPC   GL222286  13.410  10.386   9.153
 1547POPC   C1A22287  13.920  10.338   8.751
 1547POPC   D2A22288  13.725  10.268   8.375
 1547POPC   C3A22289  13.655  10.632   8.133
 1547POPC   C4A22290  13.588  10.569   7.714
 1547POPC   C1B22291  13.381  10.491   8.727
 1547POPC   C2B22292  12.993  10.540   8.470
 1547POPC   C3B22293  13.128  10.539   8.037
 1547POPC   C4B22294  13.093  10.651   7.637
 1548POPC   NC322295  42.414  13.837   9.756
 1548POPC   PO422296  42.093  13.219   9.531
 1548POPC   GL122297  42.241  13.432   9.174
 1548POPC   GL222298  42.539  13.258   9.123
 1548POPC   C1A22299  42.127  13.644   8.786
 1548POPC   D2A22300  42.014  13.813   8.370
 1548POPC   C3A22301  42.125  13.647   7.981
 1548POPC   C4A22302  42.258  13.846   7.635
 1548POPC   C1B22303  42.587  13.415   8.671
 1548POPC   C2B22304  42.574  13.538   8.220
 1548POPC   C3B22305  42.544  13.407   7.777
 1548POPC   C4B22306  42.524  13.315   7.328
 1549POPC   NC322307  40.798  11.101   9.536
 1549POPC   PO422308  40.329  11.493   9.507
 1549POPC   GL122309  40.523  11.323   9.145
 1549POPC   GL222310  40.851  11.357   9.058
 1549POPC   C1A22311  40.534  11.308   8.664
 1549POPC   D2A22312  40.566  11.497   8.259
 1549POPC   C3A22313  40.689  11.181   7.955
 1549POPC   C4A22314  40.549  10.881   7.640
 1549POPC   C1B22315  40.970  11.612   8.662
 1549POPC   C2B22316  41.104  11.499   8.209
 1549POPC   C3B22317  41.160  11.308   7.785
 1549POPC   C4B22318  41.244  11.429   7.374
 1550POPC   NC322319  20.846  17.899   9.462
 1550POPC   PO422320  20.385  17.422   9.490
 1550POPC   GL122321  20.478  17.257   9.080
 1550POPC   GL222322  20.687  17.538   9.063
 1550POPC   C1A22323  20.596  17.230   8.659
 1550POPC   D2A22324  20.343  17.319   8.334
 1550POPC   C3A22325  20.503  17.402   7.917
 1550POPC   C4A22326  20.812  17.341   7.617
 1550POPC   C1B22327  20.711  17.856   8.762
 1550POPC   C2B22328  20.610  17.749   8.367
 1550POPC   C3B22329  20.789  17.820   7.994
 1550POPC   C4B22330  20.625  17.832   7.624
 1551POPC   NC322331  29.472  25.033   9.637
 1551POPC   PO422332  28.969  25.490   9.615
 1551POPC   GL122333  29.151  25.499   9.193
 1551POPC   GL222334  29.433  25.298   9.175
 1551POPC   C1A22335  29.257  25.551   8.740
 1551POPC   D2A22336  29.190  25.458   8.290
 1551POPC   C3A22337  28.907  25.161   8.091
 1551POPC   C4A22338  28.927  25.499   7.819
 1551POPC   C1B22339  29.565  25.127   8.746
 1551POPC   C2B22340  29.485  25.027   8.280
 1551POPC   C3B22341  29.345  25.141   7.835
 1551POPC   C4B22342  29.475  25.194   7.375
 1552POPC   NC322343   3.940  18.280   9.443
 1552POPC   PO422344   4.574  18.089   9.543
 1552POPC   GL122345   4.486  18.050   9.124
 1552POPC   GL222346   4.362  18.378   9.147
 1552POPC   C1A22347   4.321  18.118   8.692
 1552POPC   D2A22348   4.023  18.200   8.339
 1552POPC   C3A22349   4.294  18.307   7.999
 1552POPC   C4A22350   4.501  18.066   7.683
 1552POPC   C1B22351   4.588  18.555   8.826
 1552POPC   C2B22352   4.672  18.454   8.422
 1552POPC   C3B22353   4.625  18.698   8.041
 1552POPC   C4B22354   4.558  18.588   7.625
 1553POPC   NC322355   5.145  13.206   9.430
 1553POPC   PO422356   5.151  13.908   9.366
 1553POPC   GL122357   4.911  13.811   9.023
 1553POPC   GL222358   5.187  13.532   8.991
 1553POPC   C1A22359   4.879  13.640   8.595
 1553POPC   D2A22360   5.111  13.320   8.369
 1553POPC   C3A22361   5.253  13.401   7.931
 1553POPC   C4A22362   4.995  13.418   7.528
 1553POPC   C1B22363   5.298  13.907   8.718
 1553POPC   C2B22364   5.240  13.822   8.276
 1553POPC   C3B22365   5.428  13.930   7.932
 1553POPC   C4B22366   5.374  13.772   7.555
 1554POPC   NC322367  20.598  22.551   9.581
 1554POPC   PO422368  20.969  23.141   9.617
 1554POPC   GL122369  20.684  22.961   9.282
 1554POPC   GL222370  20.463  23.160   9.135
 1554POPC   C1A22371  20.523  22.717   8.897
 1554POPC   D2A22372  20.560  22.842   8.451
 1554POPC   C3A22373  20.493  22.726   8.015
 1554POPC   C4A22374  20.832  22.880   7.745
 1554POPC   C1B22375  20.431  23.250   8.730
 1554POPC   C2B22376  20.307  23.246   8.290
 1554POPC   C3B22377  20.498  23.242   7.877
 1554POPC   C4B22378  20.475  23.287   7.396
 1555POPC   NC322379  17.133  14.852   9.419
 1555POPC   PO422380  17.578  15.236   9.639
 1555POPC   GL122381  17.689  15.157   9.208
 1555POPC   GL222382  17.394  15.362   9.130
 1555POPC   C1A22383  17.588  15.071   8.759
 1555POPC   D2A22384  17.442  15.393   8.456
 1555POPC   C3A22385  17.401  15.317   8.021
 1555POPC   C4A22386  17.634  15.041   7.790
 1555POPC   C1B22387  17.099  15.202   8.796
 1555POPC   C2B22388  17.128  14.993   8.368
 1555POPC   C3B22389  17.180  14.855   7.941
 1555POPC   C4B22390  17.059  14.772   7.521
 1556POPC   NC322391  20.537  28.180   9.723
 1556POPC   PO422392  20.700  28.799   9.472
 1556POPC   GL122393  20.585  28.688   9.083
 1556POPC   GL222394  20.420  28.410   9.205
 1556POPC   C1A22395  20.448  28.819   8.678
 1556POPC   D2A22396  20.557  28.766   8.235
 1556POPC   C3A22397  20.857  28.552   7.960
 1556POPC   C4A22398  20.902  28.479   7.512
 1556POPC   C1B22399  20.451  28.303   8.745
 1556POPC   C2B22400  20.569  28.274   8.313
 1556POPC   C3B22401  20.340  28.361   7.948
 1556POPC   C4B22402  20.404  28.353   7.499
 1557POPC   NC322403  10.274  11.000   9.572
 1557POPC   PO422404  10.802  11.460   9.569
 1557POPC   GL122405  10.649  11.238   9.238
 1557POPC   GL222406  10.318  11.337   9.185
 1557POPC   C1A22407  10.649  11.340   8.801
 1557POPC   D2A22408  10.510  11.141   8.412
 1557POPC   C3A22409  10.589  11.338   8.029
 1557POPC   C4A22410  10.932  11.222   7.789
 1557POPC   C1B22411  10.188  11.084   8.851
 1557POPC   C2B22412  10.023  10.966   8.433
 1557POPC   C3B22413  10.149  11.020   7.988
 1557POPC   C4B22414  10.290  11.251   7.623
 1558POPC   NC322415   1.328  14.990   9.562
 1558POPC   PO422416   0.938  15.478   9.320
 1558POPC   GL122417   1.171  15.141   9.121
 1558POPC   GL222418   1.001  14.858   9.195
 1558POPC   C1A22419   1.299  14.918   8.770
 1558POPC   D2A22420   1.121  15.009   8.383
 1558POPC   C3A22421   1.337  15.114   8.025
 1558POPC   C4A22422   1.082  15.269   7.706
 1558POPC   C1B22423   0.770  14.928   8.810
 1558POPC   C2B22424   0.626  14.865   8.370
 1558POPC   C3B22425   0.787  14.937   7.938
 1558POPC   C4B22426   0.804  14.939   7.434
 1559POPC   NC322427  44.492  37.921   9.613
 1559POPC   PO422428  44.269  37.232   9.562
 1559POPC   GL122429  44.341  37.565   9.284
 1559POPC   GL222430  44.714  37.572   9.225
 1559POPC   C1A22431  44.346  37.797   8.908
 1559POPC   D2A22432  44.559  37.919   8.541
 1559POPC   C3A22433  44.425  37.825   8.133
 1559POPC   C4A22434  44.672  37.761   7.783
 1559POPC   C1B22435  44.849  37.541   8.758
 1559POPC   C2B22436  44.741  37.445   8.295
 1559POPC   C3B22437  44.976  37.343   7.887
 1559POPC   C4B22438  44.958  37.512   7.456
 1560POPC   NC322439  15.299  18.001   9.649
 1560POPC   PO422440  15.172  18.567   9.576
 1560POPC   GL122441  15.306  18.423   9.201
 1560POPC   GL222442  15.322  18.076   9.125
 1560POPC   C1A22443  15.427  18.579   8.819
 1560POPC   D2A22444  15.246  18.555   8.410
 1560POPC   C3A22445  15.392  18.569   8.034
 1560POPC   C4A22446  15.252  18.346   7.728
 1560POPC   C1B22447  15.045  18.217   8.743
 1560POPC   C2B22448  14.743  18.414   8.399
 1560POPC   C3B22449  14.673  18.339   7.934
 1560POPC   C4B22450  14.875  18.024   7.618
 1561POPC   NC322451  14.518  20.306   9.346
 1561POPC   PO422452  14.135  20.855   9.466
 1561POPC   GL122453  14.370  20.862   9.035
 1561POPC   GL222454  14.698  20.721   9.014
 1561POPC   C1A22455  14.513  20.907   8.589
 1561POPC   D2A22456  14.531  20.558   8.279
 1561POPC   C3A22457  14.238  20.599   7.945
 1561POPC   C4A22458  14.012  20.611   7.546
 1561POPC   C1B22459  14.797  20.349   8.730
 1561POPC   C2B22460  14.887  20.188   8.296
 1561POPC   C3B22461  14.869  20.353   7.891
 1561POPC   C4B22462  14.737  20.763   7.839
 1562POPC   NC322463  36.736   2.199   9.383
 1562POPC   PO422464  37.132   1.677   9.535
 1562POPC   GL122465  37.107   1.933   9.167
 1562POPC   GL222466  36.769   1.812   9.088
 1562POPC   C1A22467  36.964   2.157   8.772
 1562POPC   D2A22468  37.115   2.223   8.378
 1562POPC   C3A22469  36.901   2.072   8.039
 1562POPC   C4A22470  36.674   2.082   7.660
 1562POPC   C1B22471  36.614   1.603   8.748
 1562POPC   C2B22472  36.457   1.700   8.368
 1562POPC   C3B22473  36.620   1.666   7.963
 1562POPC   C4B22474  36.334   1.696   7.647
 1563POPC   NC322475  33.626  21.027   9.717
 1563POPC   PO422476  33.793  21.625   9.631
 1563POPC   GL122477  33.557  21.445   9.266
 1563POPC   GL222478  33.776  21.224   9.083
 1563POPC   C1A22479  33.475  21.548   8.798
 1563POPC   D2A22480  33.724  21.663   8.398
 1563POPC   C3A22481  33.608  21.539   7.943
 1563POPC   C4A22482  33.657  21.554   7.437
 1563POPC   C1B22483  33.821  21.194   8.607
 1563POPC   C2B22484  34.045  21.312   8.205
 1563POPC   C3B22485  34.043  21.337   7.748
 1563POPC   C4B22486  33.790  21.063   7.490
 1564POPC   NC322487  19.793  44.417   9.468
 1564POPC   PO422488  20.024   0.082   9.497
 1564POPC   GL122489  19.864  44.855   9.187
 1564POPC   GL222490  20.139  44.669   9.101
 1564POPC   C1A22491  19.682  44.794   8.803
 1564POPC   D2A22492  19.934  44.864   8.469
 1564POPC   C3A22493  19.794  44.809   8.013
 1564POPC   C4A22494  20.204  44.911   7.791
 1564POPC   C1B22495  20.019  44.401   8.749
 1564POPC   C2B22496  19.998  44.397   8.298
 1564POPC   C3B22497  20.069  44.399   7.877
 1564POPC   C4B22498  19.695  44.187   7.779
 1565POPC   NC322499  43.373  19.475   9.334
 1565POPC   PO422500  42.819  19.722   9.586
 1565POPC   GL122501  43.023  19.829   9.204
 1565POPC   GL222502  43.286  20.036   9.282
 1565POPC   C1A22503  43.112  19.815   8.757
 1565POPC   D2A22504  43.062  19.525   8.412
 1565POPC   C3A22505  43.052  19.728   8.022
 1565POPC   C4A22506  43.130  19.600   7.587
 1565POPC   C1B22507  43.398  20.214   8.886
 1565POPC   C2B22508  43.219  20.250   8.464
 1565POPC   C3B22509  43.245  20.201   8.018
 1565POPC   C4B22510  43.047  20.107   7.631
 1566POPC   NC322511  18.627  20.476   9.328
 1566POPC   PO422512  19.156  20.244   9.534
 1566POPC   GL122513  19.106  20.495   9.120
 1566POPC   GL222514  18.885  20.813   9.037
 1566POPC   C1A22515  19.012  20.529   8.663
 1566POPC   D2A22516  18.816  20.843   8.406
 1566POPC   C3A22517  18.882  20.721   8.006
 1566POPC   C4A22518  19.064  20.657   7.579
 1566POPC   C1B22519  19.259  20.960   8.709
 1566POPC   C2B22520  19.298  20.884   8.254
 1566POPC   C3B22521  19.308  21.061   7.837
 1566POPC   C4B22522  19.482  20.948   7.448
 1567POPC   NC322523  26.617  36.067   9.465
 1567POPC   PO422524  27.333  36.275   9.585
 1567POPC   GL122525  27.037  36.266   9.219
 1567POPC   GL222526  26.965  35.907   9.129
 1567POPC   C1A22527  26.909  36.280   8.777
 1567POPC   D2A22528  27.153  36.324   8.397
 1567POPC   C3A22529  26.857  36.243   8.097
 1567POPC   C4A22530  26.857  35.948   7.774
 1567POPC   C1B22531  26.623  35.835   8.803
 1567POPC   C2B22532  26.504  35.850   8.351
 1567POPC   C3B22533  26.570  35.581   7.980
 1567POPC   C4B22534  26.516  35.623   7.500
 1568POPC   NC322535  20.294  29.025   9.375
 1568POPC   PO422536  20.696  29.547   9.577
 1568POPC   GL122537  20.539  29.419   9.147
 1568POPC   GL222538  20.782  29.183   9.109
 1568POPC   C1A22539  20.531  29.329   8.664
 1568POPC   D2A22540  20.257  29.167   8.323
 1568POPC   C3A22541  20.426  29.146   7.940
 1568POPC   C4A22542  20.527  28.809   7.691
 1568POPC   C1B22543  20.975  29.082   8.721
 1568POPC   C2B22544  21.068  28.900   8.331
 1568POPC   C3B22545  20.959  29.077   7.973
 1568POPC   C4B22546  20.826  29.385   7.730
 1569POPC   NC322547   8.098  28.696   9.933
 1569POPC   PO422548   8.511  28.596   9.386
 1569POPC   GL122549   8.371  28.331   9.052
 1569POPC   GL222550   8.004  28.211   9.043
 1569POPC   C1A22551   8.251  28.436   8.632
 1569POPC   D2A22552   8.073  28.257   8.261
 1569POPC   C3A22553   8.087  28.527   7.894
 1569POPC   C4A22554   8.179  28.371   7.493
 1569POPC   C1B22555   7.761  28.491   8.740
 1569POPC   C2B22556   7.790  28.668   8.323
 1569POPC   C3B22557   7.593  28.498   7.955
 1569POPC   C4B22558   7.665  28.376   7.502
 1570POPC   NC322559  41.884  13.636   9.498
 1570POPC   PO422560  41.225  13.841   9.466
 1570POPC   GL122561  41.469  13.591   9.225
 1570POPC   GL222562  41.446  13.218   9.259
 1570POPC   C1A22563  41.630  13.792   8.877
 1570POPC   D2A22564  41.359  13.854   8.543
 1570POPC   C3A22565  41.515  13.819   8.130
 1570POPC   C4A22566  41.410  13.632   7.749
 1570POPC   C1B22567  41.737  13.292   8.906
 1570POPC   C2B22568  41.676  13.458   8.493
 1570POPC   C3B22569  41.737  13.343   8.058
 1570POPC   C4B22570  41.593  13.164   7.701
 1571POPC   NC322571  26.569  11.313   9.691
 1571POPC   PO422572  26.041  11.696   9.499
 1571POPC   GL122573  26.101  11.391   9.200
 1571POPC   GL222574  26.239  11.644   9.014
 1571POPC   C1A22575  26.078  11.176   8.788
 1571POPC   D2A22576  26.224  11.198   8.347
 1571POPC   C3A22577  25.998  11.070   7.999
 1571POPC   C4A22578  26.286  10.959   7.717
 1571POPC   C1B22579  26.145  11.679   8.617
 1571POPC   C2B22580  26.072  11.653   8.227
 1571POPC   C3B22581  26.211  11.517   7.882
 1571POPC   C4B22582  25.913  11.624   7.596
 1572POPC   NC322583  25.341  25.710   9.562
 1572POPC   PO422584  25.553  26.313   9.845
 1572POPC   GL122585  25.297  26.298   9.325
 1572POPC   GL222586  25.298  25.987   9.131
 1572POPC   C1A22587  25.312  26.344   8.798
 1572POPC   D2A22588  25.211  26.098   8.412
 1572POPC   C3A22589  25.339  26.134   8.017
 1572POPC   C4A22590  25.526  25.961   7.686
 1572POPC   C1B22591  25.475  25.818   8.761
 1572POPC   C2B22592  25.456  25.620   8.339
 1572POPC   C3B22593  25.312  25.540   7.906
 1572POPC   C4B22594  25.481  25.491   7.486
 1573POPC   NC322595  27.409   6.511   9.504
 1573POPC   PO422596  27.727   7.133   9.634
 1573POPC   GL122597  27.810   6.782   9.265
 1573POPC   GL222598  27.778   6.394   9.190
 1573POPC   C1A22599  27.711   6.762   8.813
 1573POPC   D2A22600  27.560   7.014   8.456
 1573POPC   C3A22601  27.707   6.933   8.014
 1573POPC   C4A22602  27.482   6.886   7.599
 1573POPC   C1B22603  27.848   6.263   8.740
 1573POPC   C2B22604  27.750   6.516   8.340
 1573POPC   C3B22605  27.538   6.437   7.903
 1573POPC   C4B22606  27.593   6.401   7.423
 1574POPC   NC322607  18.552   0.039   9.365
 1574POPC   PO422608  18.955   0.574   9.440
 1574POPC   GL122609  18.861   0.348   9.091
 1574POPC   GL222610  19.105   0.080   9.142
 1574POPC   C1A22611  18.870   0.150   8.681
 1574POPC   D2A22612  19.058   0.279   8.305
 1574POPC   C3A22613  18.787   0.307   7.972
 1574POPC   C4A22614  18.720   0.603   7.661
 1574POPC   C1B22615  19.369   0.214   8.780
 1574POPC   C2B22616  19.509   0.091   8.369
 1574POPC   C3B22617  19.452   0.246   7.933
 1574POPC   C4B22618  19.549   0.046   7.514
 1575POPC   NC322619  37.317   2.095   9.684
 1575POPC   PO422620  37.909   1.860   9.487
 1575POPC   GL122621  37.764   2.083   9.121
 1575POPC   GL222622  37.886   1.767   8.941
 1575POPC   C1A22623  37.471   2.058   8.758
 1575POPC   D2A22624  37.445   1.809   8.358
 1575POPC   C3A22625  37.420   2.071   7.993
 1575POPC   C4A22626  37.769   2.203   7.776
 1575POPC   C1B22627  37.815   1.508   8.578
 1575POPC   C2B22628  37.830   1.517   8.102
 1575POPC   C3B22629  37.614   1.677   7.733
 1575POPC   C4B22630  37.394   1.551   7.342
 1576POPC   NC322631   5.608   0.328   9.564
 1576POPC   PO422632   6.196   0.360   9.752
 1576POPC   GL122633   6.024   0.307   9.259
 1576POPC   GL222634   5.688   0.125   9.106
 1576POPC   C1A22635   5.904   0.531   8.886
 1576POPC   D2A22636   5.933   0.756   8.523
 1576POPC   C3A22637   6.057   0.522   8.177
 1576POPC   C4A22638   6.022   0.588   7.742
 1576POPC   C1B22639   5.487   0.214   8.752
 1576POPC   C2B22640   5.569   0.388   8.354
 1576POPC   C3B22641   5.596   0.403   7.944
 1576POPC   C4B22642   5.458   0.191   7.624
 1577POPC   NC322643  29.035  33.520   9.708
 1577POPC   PO422644  28.807  34.155   9.686
 1577POPC   GL122645  28.983  33.956   9.244
 1577POPC   GL222646  29.014  33.621   9.178
 1577POPC   C1A22647  29.201  33.946   8.793
 1577POPC   D2A22648  29.388  34.013   8.358
 1577POPC   C3A22649  29.284  33.761   7.970
 1577POPC   C4A22650  29.380  33.836   7.547
 1577POPC   C1B22651  28.755  33.691   8.787
 1577POPC   C2B22652  28.885  33.829   8.349
 1577POPC   C3B22653  28.773  33.755   7.885
 1577POPC   C4B22654  28.629  33.340   7.713
 1578POPC   NC322655   8.359  14.491   9.509
 1578POPC   PO422656   7.755  14.802   9.278
 1578POPC   GL122657   8.073  14.472   9.071
 1578POPC   GL222658   8.486  14.468   9.018
 1578POPC   C1A22659   7.937  14.367   8.662
 1578POPC   D2A22660   7.883  14.708   8.366
 1578POPC   C3A22661   7.971  14.592   7.959
 1578POPC   C4A22662   7.772  14.196   7.865
 1578POPC   C1B22663   8.388  14.147   8.666
 1578POPC   C2B22664   8.186  14.189   8.243
 1578POPC   C3B22665   8.304  14.221   7.816
 1578POPC   C4B22666   8.473  14.296   7.406
 1579POPC   NC322667  26.354  30.559   9.287
 1579POPC   PO422668  25.675  30.685   9.570
 1579POPC   GL122669  25.859  30.506   9.254
 1579POPC   GL222670  25.956  30.832   9.120
 1579POPC   C1A22671  25.857  30.422   8.827
 1579POPC   D2A22672  26.158  30.310   8.512
 1579POPC   C3A22673  25.982  30.265   8.075
 1579POPC   C4A22674  26.133  30.423   7.682
 1579POPC   C1B22675  26.162  30.820   8.696
 1579POPC   C2B22676  26.131  31.061   8.284
 1579POPC   C3B22677  26.153  30.963   7.832
 1579POPC   C4B22678  26.309  30.995   7.409
 1580POPC   NC322679   4.733  17.662   9.509
 1580POPC   PO422680   4.305  17.127   9.599
 1580POPC   GL122681   4.303  17.450   9.312
 1580POPC   GL222682   4.550  17.308   9.129
 1580POPC   C1A22683   4.230  17.649   8.908
 1580POPC   D2A22684   4.291  17.530   8.464
 1580POPC   C3A22685   4.214  17.771   8.086
 1580POPC   C4A22686   4.189  17.622   7.648
 1580POPC   C1B22687   4.800  17.129   8.773
 1580POPC   C2B22688   4.760  17.307   8.359
 1580POPC   C3B22689   4.479  17.233   8.028
 1580POPC   C4B22690   4.679  17.151   7.629
 1581POPC   NC322691   6.977  36.080   9.166
 1581POPC   PO422692   6.492  36.076   9.696
 1581POPC   GL122693   6.411  36.090   9.219
 1581POPC   GL222694   6.308  35.753   9.195
 1581POPC   C1A22695   6.506  36.267   8.765
 1581POPC   D2A22696   6.776  36.138   8.391
 1581POPC   C3A22697   6.730  36.372   7.977
 1581POPC   C4A22698   6.555  36.281   7.558
 1581POPC   C1B22699   6.444  35.758   8.779
 1581POPC   C2B22700   6.273  35.955   8.421
 1581POPC   C3B22701   6.419  35.984   8.018
 1581POPC   C4B22702   6.512  35.740   7.693
 1582POPC   NC322703  26.422  18.412   9.844
 1582POPC   PO422704  25.857  18.264   9.472
 1582POPC   GL122705  26.087  18.175   9.102
 1582POPC   GL222706  26.375  18.407   8.978
 1582POPC   C1A22707  25.992  18.191   8.681
 1582POPC   D2A22708  25.646  18.252   8.431
 1582POPC   C3A22709  25.706  18.340   8.009
 1582POPC   C4A22710  26.087  18.363   7.808
 1582POPC   C1B22711  26.096  18.671   8.739
 1582POPC   C2B22712  26.037  18.595   8.293
 1582POPC   C3B22713  26.200  18.828   7.947
 1582POPC   C4B22714  26.511  18.668   7.696
 1583POPC   NC322715  35.620  28.619   9.506
 1583POPC   PO422716  35.665  27.911   9.437
 1583POPC   GL122717  35.490  28.256   9.167
 1583POPC   GL222718  35.717  28.550   9.019
 1583POPC   C1A22719  35.222  28.523   8.879
 1583POPC   D2A22720  34.916  28.694   8.564
 1583POPC   C3A22721  34.913  28.676   8.115
 1583POPC   C4A22722  35.194  28.692   7.754
 1583POPC   C1B22723  35.626  28.239   8.688
 1583POPC   C2B22724  35.264  28.324   8.413
 1583POPC   C3B22725  35.226  28.264   8.006
 1583POPC   C4B22726  35.579  28.227   7.753
 1584POPC   NC322727  35.601   7.877   9.574
 1584POPC   PO422728  35.020   8.186   9.555
 1584POPC   GL122729  35.093   8.128   9.147
 1584POPC   GL222730  35.446   8.090   9.123
 1584POPC   C1A22731  35.024   8.256   8.746
 1584POPC   D2A22732  35.074   8.073   8.345
 1584POPC   C3A22733  35.104   8.319   7.956
 1584POPC   C4A22734  35.029   7.966   7.698
 1584POPC   C1B22735  35.551   8.191   8.675
 1584POPC   C2B22736  35.760   8.397   8.311
 1584POPC   C3B22737  35.638   8.346   7.894
 1584POPC   C4B22738  35.826   8.475   7.457
 1585POPC   NC322739  15.283   0.642   9.919
 1585POPC   PO422740  15.410   0.106   9.425
 1585POPC   GL122741  15.073   0.215   9.076
 1585POPC   GL222742  14.973   0.574   9.015
 1585POPC   C1A22743  15.042   0.276   8.635
 1585POPC   D2A22744  15.060   0.019   8.357
 1585POPC   C3A22745  14.974   0.258   8.087
 1585POPC   C4A22746  15.069   0.355   7.722
 1585POPC   C1B22747  15.252   0.763   8.700
 1585POPC   C2B22748  15.262   0.648   8.271
 1585POPC   C3B22749  15.341   0.765   7.850
 1585POPC   C4B22750  15.436   0.593   7.438
 1586POPC   NC322751   0.161  31.265   9.645
 1586POPC   PO422752   0.519  31.810   9.476
 1586POPC   GL122753   0.256  31.562   9.236
 1586POPC   GL222754   0.468  31.274   9.222
 1586POPC   C1A22755   0.064  31.455   8.857
 1586POPC   D2A22756   0.051  31.318   8.428
 1586POPC   C3A22757   0.282  31.574   8.145
 1586POPC   C4A22758   0.372  31.778   7.774
 1586POPC   C1B22759   0.482  31.191   8.766
 1586POPC   C2B22760   0.521  31.087   8.335
 1586POPC   C3B22761   0.315  31.113   7.934
 1586POPC   C4B22762   0.452  31.329   7.551
 1587POPC   NC322763  17.443  26.652   9.578
 1587POPC   PO422764  17.644  27.294   9.520
 1587POPC   GL122765  17.511  26.972   9.202
 1587POPC   GL222766  17.677  26.632   9.144
 1587POPC   C1A22767  17.326  26.832   8.835
 1587POPC   D2A22768  17.510  27.107   8.542
 1587POPC   C3A22769  17.478  26.964   8.145
 1587POPC   C4A22770  17.290  26.651   7.849
 1587POPC   C1B22771  17.833  26.723   8.765
 1587POPC   C2B22772  17.712  26.558   8.393
 1587POPC   C3B22773  17.836  26.641   7.967
 1587POPC   C4B22774  17.690  26.969   7.688
 1588POPC   NC322775   9.283  26.283   9.291
 1588POPC   PO422776   8.715  25.879   9.460
 1588POPC   GL122777   8.896  25.758   9.078
 1588POPC   GL222778   8.864  26.117   9.008
 1588POPC   C1A22779   9.221  25.864   8.770
 1588POPC   D2A22780   9.256  26.140   8.415
 1588POPC   C3A22781   9.119  25.998   8.002
 1588POPC   C4A22782   9.138  26.076   7.557
 1588POPC   C1B22783   8.733  25.983   8.588
 1588POPC   C2B22784   8.657  25.859   8.140
 1588POPC   C3B22785   8.670  26.050   7.734
 1588POPC   C4B22786   8.773  26.398   7.382
 1589POPC   NC322787  36.713  12.912   9.584
 1589POPC   PO422788  37.261  12.618   9.437
 1589POPC   GL122789  36.971  12.829   9.164
 1589POPC   GL222790  37.191  13.130   9.116
 1589POPC   C1A22791  36.716  12.997   8.824
 1589POPC   D2A22792  36.433  12.961   8.458
 1589POPC   C3A22793  36.630  12.812   8.096
 1589POPC   C4A22794  36.773  12.927   7.683
 1589POPC   C1B22795  37.284  12.793   8.788
 1589POPC   C2B22796  37.044  12.789   8.437
 1589POPC   C3B22797  37.116  12.717   8.010
 1589POPC   C4B22798  37.241  12.683   7.606
 1590POPC   NC322799  20.627  10.984   9.451
 1590POPC   PO422800  20.500  11.587   9.500
 1590POPC   GL122801  20.500  11.368   9.132
 1590POPC   GL222802  20.206  11.537   9.057
 1590POPC   C1A22803  20.710  11.070   8.806
 1590POPC   D2A22804  20.896  10.964   8.388
 1590POPC   C3A22805  20.679  11.042   7.990
 1590POPC   C4A22806  20.615  11.106   7.534
 1590POPC   C1B22807  20.359  11.423   8.641
 1590POPC   C2B22808  20.251  11.156   8.273
 1590POPC   C3B22809  20.209  11.216   7.813
 1590POPC   C4B22810  20.298  11.506   7.425
 1591POPC   NC322811  32.832   3.585   9.614
 1591POPC   PO422812  33.512   3.735   9.478
 1591POPC   GL122813  33.233   3.545   9.122
 1591POPC   GL222814  32.846   3.508   9.126
 1591POPC   C1A22815  33.346   3.453   8.688
 1591POPC   D2A22816  33.420   3.745   8.325
 1591POPC   C3A22817  33.183   3.686   7.914
 1591POPC   C4A22818  33.098   3.261   7.776
 1591POPC   C1B22819  32.888   3.733   8.743
 1591POPC   C2B22820  32.943   3.505   8.361
 1591POPC   C3B22821  32.713   3.491   8.014
 1591POPC   C4B22822  32.613   3.901   7.866
 1592POPC   NC322823  13.504  24.929   9.566
 1592POPC   PO422824  13.925  25.382   9.196
 1592POPC   GL122825  13.573  25.120   9.109
 1592POPC   GL222826  13.727  24.827   9.105
 1592POPC   C1A22827  13.388  25.119   8.712
 1592POPC   D2A22828  13.465  25.481   8.424
 1592POPC   C3A22829  13.625  25.390   7.976
 1592POPC   C4A22830  13.710  25.625   7.580
 1592POPC   C1B22831  13.886  24.936   8.714
 1592POPC   C2B22832  13.879  25.033   8.302
 1592POPC   C3B22833  13.831  24.876   7.886
 1592POPC   C4B22834  13.705  25.104   7.534
 1593POPC   NC322835   3.366  10.372   9.550
 1593POPC   PO422836   3.543  10.984   9.622
 1593POPC   GL122837   3.609  10.713   9.229
 1593POPC   GL222838   3.789  10.378   9.223
 1593POPC   C1A22839   3.532  10.521   8.806
 1593POPC   D2A22840   3.808  10.402   8.436
 1593POPC   C3A22841   3.588  10.428   8.034
 1593POPC   C4A22842   3.454  10.798   7.806
 1593POPC   C1B22843   3.767  10.070   8.859
 1593POPC   C2B22844   3.758   9.874   8.473
 1593POPC   C3B22845   3.925  10.031   8.081
 1593POPC   C4B22846   3.743  10.052   7.677
 1594POPC   NC322847   1.998   0.356   9.453
 1594POPC   PO422848   2.158   0.962   9.472
 1594POPC   GL122849   2.093   0.853   9.056
 1594POPC   GL222850   1.788   0.655   9.045
 1594POPC   C1A22851   1.984   0.872   8.611
 1594POPC   D2A22852   2.168   0.735   8.242
 1594POPC   C3A22853   1.947   0.565   7.879
 1594POPC   C4A22854   1.925   0.557   7.428
 1594POPC   C1B22855   2.045   0.380   8.778
 1594POPC   C2B22856   2.272   0.248   8.400
 1594POPC   C3B22857   2.252   0.168   7.950
 1594POPC   C4B22858   1.828   0.098   7.724
 1595POPC   NC322859  17.176  34.540   9.522
 1595POPC   PO422860  17.678  34.948   9.406
 1595POPC   GL122861  17.508  34.663   9.140
 1595POPC   GL222862  17.285  34.838   8.988
 1595POPC   C1A22863  17.638  34.546   8.727
 1595POPC   D2A22864  17.501  34.434   8.297
 1595POPC   C3A22865  17.571  34.644   7.919
 1595POPC   C4A22866  17.871  34.416   7.691
 1595POPC   C1B22867  17.153  34.581   8.643
 1595POPC   C2B22868  17.118  34.755   8.240
 1595POPC   C3B22869  17.016  34.634   7.846
 1595POPC   C4B22870  17.134  34.879   7.491
 1596POPC   NC322871  36.310  35.773   9.360
 1596POPC   PO422872  36.606  35.220   9.618
 1596POPC   GL122873  36.322  35.304   9.205
 1596POPC   GL222874  36.026  35.127   9.128
 1596POPC   C1A22875  36.241  35.403   8.745
 1596POPC   D2A22876  35.975  35.519   8.411
 1596POPC   C3A22877  36.134  35.471   8.021
 1596POPC   C4A22878  36.067  35.667   7.657
 1596POPC   C1B22879  36.113  34.907   8.748
 1596POPC   C2B22880  36.258  35.055   8.345
 1596POPC   C3B22881  36.368  35.021   7.922
 1596POPC   C4B22882  36.122  35.143   7.563
 1597POPC   NC322883  20.716  44.033   9.428
 1597POPC   PO422884  20.297  43.410   9.346
 1597POPC   GL122885  20.607  43.616   9.097
 1597POPC   GL222886  20.674  43.314   8.920
 1597POPC   C1A22887  20.634  43.899   8.748
 1597POPC   D2A22888  20.367  44.069   8.447
 1597POPC   C3A22889  20.489  44.180   8.059
 1597POPC   C4A22890  20.658  44.078   7.674
 1597POPC   C1B22891  20.922  43.510   8.597
 1597POPC   C2B22892  20.851  43.768   8.227
 1597POPC   C3B22893  20.510  43.674   7.958
 1597POPC   C4B22894  20.392  43.486   7.588
 1598POPC   NC322895  12.733  25.017   9.581
 1598POPC   PO422896  13.324  25.301   9.791
 1598POPC   GL122897  13.101  25.445   9.329
 1598POPC   GL222898  12.716  25.365   9.211
 1598POPC   C1A22899  13.037  25.477   8.847
 1598POPC   D2A22900  12.928  25.223   8.471
 1598POPC   C3A22901  13.136  25.264   8.103
 1598POPC   C4A22902  13.237  25.097   7.699
 1598POPC   C1B22903  12.615  25.084   8.836
 1598POPC   C2B22904  12.411  25.206   8.434
 1598POPC   C3B22905  12.521  25.062   8.056
 1598POPC   C4B22906  12.765  25.284   7.771
 1599POPC   NC322907  34.836  40.133   9.524
 1599POPC   PO422908  34.278  39.726   9.572
 1599POPC   GL122909  34.236  39.940   9.132
 1599POPC   GL222910  34.564  40.015   9.121
 1599POPC   C1A22911  34.357  40.034   8.667
 1599POPC   D2A22912  34.777  39.955   8.414
 1599POPC   C3A22913  34.636  39.886   8.002
 1599POPC   C4A22914  34.196  40.055   7.940
 1599POPC   C1B22915  34.768  40.262   8.827
 1599POPC   C2B22916  34.629  40.463   8.446
 1599POPC   C3B22917  34.688  40.404   8.000
 1599POPC   C4B22918  34.970  40.210   7.711
 1600POPC   NC322919  30.873  17.803   9.578
 1600POPC   PO422920  30.517  18.357   9.529
 1600POPC   GL122921  30.728  18.241   9.179
 1600POPC   GL222922  30.573  17.931   9.125
 1600POPC   C1A22923  30.814  18.482   8.820
 1600POPC   D2A22924  30.677  18.443   8.404
 1600POPC   C3A22925  30.906  18.391   8.034
 1600POPC   C4A22926  30.800  18.381   7.613
 1600POPC   C1B22927  30.635  18.012   8.696
 1600POPC   C2B22928  30.878  17.965   8.313
 1600POPC   C3B22929  30.743  17.925   7.880
 1600POPC   C4B22930  30.454  17.981   7.538
 1601POPC   NC322931  13.068  20.817   9.565
 1601POPC   PO422932  13.219  20.128   9.592
 1601POPC   GL122933  12.985  20.298   9.224
 1601POPC   GL222934  12.784  20.630   9.193
 1601POPC   C1A22935  12.931  20.360   8.770
 1601POPC   D2A22936  13.171  20.625   8.498
 1601POPC   C3A22937  13.145  20.656   8.032
 1601POPC   C4A22938  12.791  20.545   7.773
 1601POPC   C1B22939  12.743  20.914   8.840
 1601POPC   C2B22940  12.745  20.873   8.395
 1601POPC   C3B22941  12.732  21.006   7.985
 1601POPC   C4B22942  12.509  20.946   7.615
 1602POPC   NC322943  43.658   5.631   9.443
 1602POPC   PO422944  43.041   5.939   9.445
 1602POPC   GL122945  43.028   5.890   9.059
 1602POPC   GL222946  43.346   5.719   9.058
 1602POPC   C1A22947  42.866   5.984   8.672
 1602POPC   D2A22948  42.826   5.647   8.416
 1602POPC   C3A22949  42.953   5.668   8.044
 1602POPC   C4A22950  43.191   5.964   7.821
 1602POPC   C1B22951  43.283   5.686   8.642
 1602POPC   C2B22952  43.288   5.403   8.351
 1602POPC   C3B22953  43.412   5.469   7.954
 1602POPC   C4B22954  43.132   5.467   7.619
 1603POPC   NC322955  32.827  29.839   9.537
 1603POPC   PO422956  33.172  30.395   9.583
 1603POPC   GL122957  33.159  30.081   9.191
 1603POPC   GL222958  32.835  29.966   9.042
 1603POPC   C1A22959  33.319  29.871   8.812
 1603POPC   D2A22960  33.282  29.619   8.459
 1603POPC   C3A22961  33.132  29.882   8.125
 1603POPC   C4A22962  32.894  30.136   7.820
 1603POPC   C1B22963  32.821  29.640   8.708
 1603POPC   C2B22964  32.812  29.484   8.271
 1603POPC   C3B22965  32.644  29.695   7.881
 1603POPC   C4B22966  32.780  29.798   7.447
 1604POPC   NC322967  17.195  27.353   9.637
 1604POPC   PO422968  17.542  27.873   9.794
 1604POPC   GL122969  17.469  27.731   9.292
 1604POPC   GL222970  17.301  27.440   9.124
 1604POPC   C1A22971  17.713  27.616   8.862
 1604POPC   D2A22972  17.712  27.564   8.369
 1604POPC   C3A22973  17.497  27.798   8.030
 1604POPC   C4A22974  17.456  27.817   7.546
 1604POPC   C1B22975  17.251  27.576   8.672
 1604POPC   C2B22976  17.204  27.433   8.255
 1604POPC   C3B22977  17.354  27.348   7.827
 1604POPC   C4B22978  17.300  27.207   7.412
 1605POPC   NC322979  11.948   4.117   9.489
 1605POPC   PO422980  12.014   4.755   9.448
 1605POPC   GL122981  12.278   4.544   9.097
 1605POPC   GL222982  12.079   4.291   9.038
 1605POPC   C1A22983  12.455   4.185   8.756
 1605POPC   D2A22984  12.211   3.997   8.419
 1605POPC   C3A22985  12.199   4.129   8.007
 1605POPC   C4A22986  12.251   3.874   7.682
 1605POPC   C1B22987  12.033   4.454   8.624
 1605POPC   C2B22988  11.786   4.271   8.314
 1605POPC   C3B22989  11.693   4.029   7.975
 1605POPC   C4B22990  11.812   4.079   7.545
 1606POPC   NC322991  13.171   7.201   9.396
 1606POPC   PO422992  12.859   7.737   9.518
 1606POPC   GL122993  12.684   7.705   9.113
 1606POPC   GL222994  12.743   7.367   9.141
 1606POPC   C1A22995  12.771   7.533   8.677
 1606POPC   D2A22996  13.088   7.500   8.362
 1606POPC   C3A22997  13.013   7.526   7.931
 1606POPC   C4A22998  12.714   7.639   7.602
 1606POPC   C1B22999  12.843   7.013   8.852
 1606POPC   C2B23000  12.745   7.028   8.447
 1606POPC   C3B23001  12.570   7.009   8.078
 1606POPC   C4B23002  12.851   7.079   7.748
 1607POPC   NC323003  41.539   7.814   9.727
 1607POPC   PO423004  41.288   8.406   9.555
 1607POPC   GL123005  41.359   8.270   9.167
 1607POPC   GL223006  41.701   8.346   9.150
 1607POPC   C1A23007  41.487   8.144   8.755
 1607POPC   D2A23008  41.653   8.021   8.384
 1607POPC   C3A23009  41.602   8.238   8.037
 1607POPC   C4A23010  41.475   8.165   7.646
 1607POPC   C1B23011  41.846   8.601   8.830
 1607POPC   C2B23012  41.852   8.498   8.429
 1607POPC   C3B23013  41.903   8.636   8.030
 1607POPC   C4B23014  41.863   8.477   7.612
 1608POPC   NC323015  37.455   2.892   9.410
 1608POPC   PO423016  38.130   2.717   9.291
 1608POPC   GL123017  37.787   2.823   9.041
 1608POPC   GL223018  37.500   2.562   9.019
 1608POPC   C1A23019  37.666   2.925   8.638
 1608POPC   D2A23020  37.880   3.011   8.256
 1608POPC   C3A23021  37.566   3.121   7.994
 1608POPC   C4A23022  37.545   3.104   7.562
 1608POPC   C1B23023  37.202   2.652   8.683
 1608POPC   C2B23024  37.198   2.707   8.255
 1608POPC   C3B23025  37.521   2.595   8.012
 1608POPC   C4B23026  37.837   2.733   7.780
 1609POPC   NC323027  17.360  10.455   9.873
 1609POPC   PO423028  17.780  10.724   9.416
 1609POPC   GL123029  17.406  10.585   9.274
 1609POPC   GL223030  17.183  10.833   9.390
 1609POPC   C1A23031  17.424  10.419   8.861
 1609POPC   D2A23032  17.640  10.327   8.470
 1609POPC   C3A23033  17.457  10.474   8.102
 1609POPC   C4A23034  17.445  10.290   7.719
 1609POPC   C1B23035  17.169  10.850   8.907
 1609POPC   C2B23036  17.323  10.785   8.487
 1609POPC   C3B23037  17.165  10.882   8.057
 1609POPC   C4B23038  17.321  10.765   7.658
 1610POPC   NC323039   4.726   3.671   9.515
 1610POPC   PO423040   5.370   3.322   9.531
 1610POPC   GL123041   5.110   3.559   9.192
 1610POPC   GL223042   4.781   3.491   9.056
 1610POPC   C1A23043   5.130   3.683   8.750
 1610POPC   D2A23044   5.342   3.770   8.367
 1610POPC   C3A23045   5.240   3.566   8.014
 1610POPC   C4A23046   5.396   3.312   7.742
 1610POPC   C1B23047   4.725   3.296   8.677
 1610POPC   C2B23048   4.831   3.550   8.328
 1610POPC   C3B23049   4.698   3.544   7.899
 1610POPC   C4B23050   4.930   3.572   7.492
 1611POPC   NC323051  26.422  20.938   9.259
 1611POPC   PO423052  26.186  21.530   9.566
 1611POPC   GL123053  26.036  21.570   9.152
 1611POPC   GL223054  26.192  21.298   9.008
 1611POPC   C1A23055  26.131  21.712   8.737
 1611POPC   D2A23056  26.192  21.449   8.416
 1611POPC   C3A23057  26.020  21.641   8.069
 1611POPC   C4A23058  26.162  21.600   7.656
 1611POPC   C1B23059  25.881  21.157   8.725
 1611POPC   C2B23060  25.839  20.910   8.344
 1611POPC   C3B23061  25.606  21.045   7.988
 1611POPC   C4B23062  25.681  21.398   7.738
 1612POPC   NC323063  37.932  42.873   9.406
 1612POPC   PO423064  37.607  43.376   9.543
 1612POPC   GL123065  37.627  43.188   9.146
 1612POPC   GL223066  37.768  43.439   8.998
 1612POPC   C1A23067  37.640  42.989   8.752
 1612POPC   D2A23068  37.651  43.256   8.410
 1612POPC   C3A23069  37.593  43.151   7.987
 1612POPC   C4A23070  37.531  42.786   7.770
 1612POPC   C1B23071  38.064  43.301   8.720
 1612POPC   C2B23072  38.074  42.958   8.460
 1612POPC   C3B23073  37.958  42.802   8.090
 1612POPC   C4B23074  38.031  42.978   7.712
 1613POPC   NC323075  12.407  22.689   9.625
 1613POPC   PO423076  12.092  23.235   9.469
 1613POPC   GL123077  11.970  23.004   9.147
 1613POPC   GL223078  11.745  22.750   9.265
 1613POPC   C1A23079  12.058  23.016   8.718
 1613POPC   D2A23080  11.965  22.808   8.365
 1613POPC   C3A23081  12.065  23.086   8.038
 1613POPC   C4A23082  12.335  23.006   7.671
 1613POPC   C1B23083  11.619  22.757   8.808
 1613POPC   C2B23084  11.517  22.577   8.408
 1613POPC   C3B23085  11.642  22.656   7.976
 1613POPC   C4B23086  11.850  22.857   7.640
 1614POPC   NC323087  35.952  26.426   9.381
 1614POPC   PO423088  36.462  26.876   9.427
 1614POPC   GL123089  36.213  26.859   9.060
 1614POPC   GL223090  35.973  27.142   8.945
 1614POPC   C1A23091  36.293  26.906   8.633
 1614POPC   D2A23092  36.110  27.132   8.308
 1614POPC   C3A23093  36.340  27.001   7.971
 1614POPC   C4A23094  36.339  26.683   7.690
 1614POPC   C1B23095  35.740  26.893   8.638
 1614POPC   C2B23096  35.636  26.592   8.340
 1614POPC   C3B23097  35.920  26.701   8.034
 1614POPC   C4B23098  35.903  26.948   7.672
 1615POPC   NC323099  39.758  39.037   9.532
 1615POPC   PO423100  39.539  39.615   9.373
 1615POPC   GL123101  39.876  39.370   9.130
 1615POPC   GL223102  40.247  39.262   9.100
 1615POPC   C1A23103  39.897  39.216   8.697
 1615POPC   D2A23104  39.577  39.261   8.366
 1615POPC   C3A23105  39.750  39.268   7.961
 1615POPC   C4A23106  40.104  39.054   7.827
 1615POPC   C1B23107  40.353  39.500   8.713
 1615POPC   C2B23108  40.347  39.346   8.287
 1615POPC   C3B23109  40.202  39.542   7.920
 1615POPC   C4B23110  40.059  39.494   7.539
 1616POPC   NC323111  17.160  11.825   9.532
 1616POPC   PO423112  17.641  12.307   9.597
 1616POPC   GL123113  17.562  12.028   9.251
 1616POPC   GL223114  17.240  12.216   9.210
 1616POPC   C1A23115  17.599  12.008   8.795
 1616POPC   D2A23116  17.684  12.302   8.443
 1616POPC   C3A23117  17.715  12.108   8.041
 1616POPC   C4A23118  17.610  12.225   7.634
 1616POPC   C1B23119  17.176  12.281   8.786
 1616POPC   C2B23120  17.212  12.034   8.416
 1616POPC   C3B23121  17.194  12.174   7.993
 1616POPC   C4B23122  17.229  11.902   7.699
 1617POPC   NC323123   2.049  19.259   9.335
 1617POPC   PO423124   1.793  18.657   9.400
 1617POPC   GL123125   2.019  18.836   9.045
 1617POPC   GL223126   2.249  19.102   8.909
 1617POPC   C1A23127   2.045  18.707   8.648
 1617POPC   D2A23128   1.749  18.713   8.374
 1617POPC   C3A23129   1.947  18.702   7.991
 1617POPC   C4A23130   2.215  18.946   7.761
 1617POPC   C1B23131   1.896  19.187   8.646
 1617POPC   C2B23132   1.896  19.185   8.247
 1617POPC   C3B23133   1.745  19.411   7.982
 1617POPC   C4B23134   1.809  19.415   7.582
 1618POPC   NC323135  32.518   8.797   9.514
 1618POPC   PO423136  31.959   9.296   9.576
 1618POPC   GL123137  32.135   8.988   9.235
 1618POPC   GL223138  32.458   9.143   9.129
 1618POPC   C1A23139  32.203   8.841   8.784
 1618POPC   D2A23140  32.396   8.911   8.426
 1618POPC   C3A23141  32.176   8.797   8.039
 1618POPC   C4A23142  32.327   8.837   7.613
 1618POPC   C1B23143  32.083   9.314   8.875
 1618POPC   C2B23144  31.950   9.193   8.476
 1618POPC   C3B23145  31.855   9.212   8.058
 1618POPC   C4B23146  31.843   8.960   7.680
 1619POPC   NC323147   9.340  12.472   9.561
 1619POPC   PO423148   8.915  11.890   9.469
 1619POPC   GL123149   9.088  12.094   9.110
 1619POPC   GL223150   9.117  12.465   9.107
 1619POPC   C1A23151   9.093  12.159   8.663
 1619POPC   D2A23152   8.873  12.079   8.302
 1619POPC   C3A23153   9.118  12.019   7.995
 1619POPC   C4A23154   9.102  11.796   7.659
 1619POPC   C1B23155   8.722  12.435   8.886
 1619POPC   C2B23156   8.719  12.547   8.447
 1619POPC   C3B23157   9.029  12.548   8.138
 1619POPC   C4B23158   8.846  12.381   7.795
 1620POPC   NC323159  41.070  43.002   9.471
 1620POPC   PO423160  40.394  43.246   9.541
 1620POPC   GL123161  40.584  43.028   9.183
 1620POPC   GL223162  40.786  43.332   9.152
 1620POPC   C1A23163  40.457  43.085   8.719
 1620POPC   D2A23164  40.440  43.364   8.363
 1620POPC   C3A23165  40.564  43.106   8.003
 1620POPC   C4A23166  40.881  42.816   7.859
 1620POPC   C1B23167  40.960  43.121   8.810
 1620POPC   C2B23168  40.898  43.069   8.400
 1620POPC   C3B23169  41.149  43.190   8.081
 1620POPC   C4B23170  40.966  43.306   7.696
 1621POPC   NC323171  32.747  10.345   9.563
 1621POPC   PO423172  33.231  10.737   9.264
 1621POPC   GL123173  32.928  10.666   8.989
 1621POPC   GL223174  32.890  10.371   9.050
 1621POPC   C1A23175  32.797  10.908   8.630
 1621POPC   D2A23176  32.826  10.848   8.211
 1621POPC   C3A23177  33.062  10.520   8.035
 1621POPC   C4A23178  33.217  10.684   7.608
 1621POPC   C1B23179  32.925  10.353   8.597
 1621POPC   C2B23180  32.605  10.394   8.316
 1621POPC   C3B23181  32.640  10.209   7.930
 1621POPC   C4B23182  32.923  10.275   7.604
 1622POPC   NC323183  12.212  44.342   9.382
 1622POPC   PO423184  12.161  43.630   9.496
 1622POPC   GL123185  12.005  43.906   9.209
 1622POPC   GL223186  11.730  44.105   9.272
 1622POPC   C1A23187  12.117  43.888   8.803
 1622POPC   D2A23188  12.019  43.656   8.473
 1622POPC   C3A23189  12.138  43.769   8.037
 1622POPC   C4A23190  12.172  44.026   7.652
 1622POPC   C1B23191  11.752  44.236   8.819
 1622POPC   C2B23192  11.937  44.153   8.387
 1622POPC   C3B23193  11.848  44.273   7.972
 1622POPC   C4B23194  11.738  44.311   7.522
 1623POPC   NC323195  36.431  44.605   9.634
 1623POPC   PO423196  35.782  44.497   9.575
 1623POPC   GL123197  36.033  44.567   9.217
 1623POPC   GL223198  36.170  44.927   9.241
 1623POPC   C1A23199  35.905  44.363   8.796
 1623POPC   D2A23200  36.050  44.290   8.367
 1623POPC   C3A23201  36.211  44.499   7.986
 1623POPC   C4A23202  36.216  44.347   7.551
 1623POPC   C1B23203  35.954  44.876   8.822
 1623POPC   C2B23204  36.178  44.843   8.421
 1623POPC   C3B23205  36.111  44.990   8.022
 1623POPC   C4B23206  36.181  44.979   7.580
 1624POPC   NC323207  22.015  42.364   9.692
 1624POPC   PO423208  22.434  42.747   9.352
 1624POPC   GL123209  22.173  42.463   9.157
 1624POPC   GL223210  22.395  42.243   9.035
 1624POPC   C1A23211  22.100  42.423   8.687
 1624POPC   D2A23212  22.274  42.196   8.329
 1624POPC   C3A23213  22.130  42.252   7.918
 1624POPC   C4A23214  22.230  42.571   7.650
 1624POPC   C1B23215  22.598  42.013   8.708
 1624POPC   C2B23216  22.529  41.766   8.354
 1624POPC   C3B23217  22.591  41.958   7.917
 1624POPC   C4B23218  22.481  42.151   7.510
 1625POPC   NC323219  38.800  28.860   9.572
 1625POPC   PO423220  38.371  29.393   9.583
 1625POPC   GL123221  38.509  29.147   9.248
 1625POPC   GL223222  38.873  29.243   9.247
 1625POPC   C1A23223  38.376  29.167   8.819
 1625POPC   D2A23224  38.098  29.165   8.445
 1625POPC   C3A23225  38.226  29.267   8.001
 1625POPC   C4A23226  38.070  28.975   7.648
 1625POPC   C1B23227  38.855  28.929   8.897
 1625POPC   C2B23228  38.735  29.063   8.483
 1625POPC   C3B23229  38.712  29.092   8.058
 1625POPC   C4B23230  38.752  28.697   7.793
 1626POPC   NC323231  31.912  40.552   9.577
 1626POPC   PO423232  31.961  41.164   9.272
 1626POPC   GL123233  32.114  40.915   8.938
 1626POPC   GL223234  32.223  40.569   9.004
 1626POPC   C1A23235  32.173  40.825   8.539
 1626POPC   D2A23236  32.026  40.776   8.171
 1626POPC   C3A23237  32.093  41.021   7.816
 1626POPC   C4A23238  32.391  40.960   7.476
 1626POPC   C1B23239  31.949  40.337   8.774
 1626POPC   C2B23240  31.798  40.324   8.360
 1626POPC   C3B23241  31.950  40.349   7.938
 1626POPC   C4B23242  32.072  40.573   7.613
 1627POPC   NC323243  39.851   2.454   9.515
 1627POPC   PO423244  40.336   2.926   9.373
 1627POPC   GL123245  40.048   2.907   9.099
 1627POPC   GL223246  40.098   2.567   9.085
 1627POPC   C1A23247  40.072   2.883   8.669
 1627POPC   D2A23248  39.913   2.676   8.362
 1627POPC   C3A23249  39.805   2.965   8.058
 1627POPC   C4A23250  39.843   2.771   7.690
 1627POPC   C1B23251  40.086   2.345   8.730
 1627POPC   C2B23252  40.032   2.180   8.345
 1627POPC   C3B23253  39.934   2.305   7.931
 1627POPC   C4B23254  40.183   2.408   7.537
 1628POPC   NC323255  17.280  35.156   9.400
 1628POPC   PO423256  17.202  35.832   9.484
 1628POPC   GL123257  17.382  35.578   9.141
 1628POPC   GL223258  17.575  35.840   9.061
 1628POPC   C1A23259  17.521  35.253   8.793
 1628POPC   D2A23260  17.529  34.977   8.435
 1628POPC   C3A23261  17.670  35.134   8.026
 1628POPC   C4A23262  17.529  35.174   7.598
 1628POPC   C1B23263  17.422  35.736   8.655
 1628POPC   C2B23264  17.383  35.509   8.276
 1628POPC   C3B23265  17.407  35.590   7.831
 1628POPC   C4B23266  17.535  35.675   7.404
 1629POPC   NC323267   1.427  36.774   9.468
 1629POPC   PO423268   0.901  37.233   9.589
 1629POPC   GL123269   1.212  37.208   9.288
 1629POPC   GL223270   1.009  36.935   9.155
 1629POPC   C1A23271   1.372  37.174   8.877
 1629POPC   D2A23272   1.143  36.924   8.568
 1629POPC   C3A23273   1.284  37.010   8.156
 1629POPC   C4A23274   1.285  36.917   7.753
 1629POPC   C1B23275   0.937  36.582   8.893
 1629POPC   C2B23276   0.891  36.477   8.453
 1629POPC   C3B23277   1.043  36.463   8.029
 1629POPC   C4B23278   0.862  36.521   7.674
 1630POPC   NC323279  44.511  38.725   9.416
 1630POPC   PO423280  44.879  38.174   9.550
 1630POPC   GL123281  44.965  38.434   9.208
 1630POPC   GL223282   0.019  38.790   9.287
 1630POPC   C1A23283  44.755  38.294   8.848
 1630POPC   D2A23284  44.602  38.440   8.459
 1630POPC   C3A23285  44.792  38.181   8.151
 1630POPC   C4A23286  44.959  38.231   7.758
 1630POPC   C1B23287  44.894  38.775   8.822
 1630POPC   C2B23288   0.054  38.666   8.396
 1630POPC   C3B23289  44.837  38.687   8.034
 1630POPC   C4B23290  44.447  38.520   7.945
 1631POPC   NC323291  34.281  36.248   9.463
 1631POPC   PO423292  34.265  35.637   9.372
 1631POPC   GL123293  34.463  35.938   9.067
 1631POPC   GL223294  34.536  36.317   9.032
 1631POPC   C1A23295  34.814  35.957   8.786
 1631POPC   D2A23296  34.887  36.130   8.349
 1631POPC   C3A23297  34.827  35.835   8.011
 1631POPC   C4A23298  34.580  35.723   7.660
 1631POPC   C1B23299  34.415  36.181   8.602
 1631POPC   C2B23300  34.294  36.346   8.230
 1631POPC   C3B23301  34.587  36.283   7.896
 1631POPC   C4B23302  34.527  36.214   7.488
 1632POPC   NC323303  32.686   9.619   9.502
 1632POPC   PO423304  33.163  10.115   9.525
 1632POPC   GL123305  32.994   9.888   9.194
 1632POPC   GL223306  32.641   9.962   9.152
 1632POPC   C1A23307  32.970   9.826   8.765
 1632POPC   D2A23308  33.275   9.920   8.477
 1632POPC   C3A23309  33.093  10.014   8.098
 1632POPC   C4A23310  33.241   9.893   7.715
 1632POPC   C1B23311  32.499  10.084   8.774
 1632POPC   C2B23312  32.590   9.889   8.397
 1632POPC   C3B23313  32.765   9.607   8.138
 1632POPC   C4B23314  32.755   9.748   7.748
 1633POPC   NC323315   7.795  19.348   9.877
 1633POPC   PO423316   8.238  18.953   9.503
 1633POPC   GL123317   8.288  19.247   9.148
 1633POPC   GL223318   8.114  18.969   9.019
 1633POPC   C1A23319   8.381  19.202   8.681
 1633POPC   D2A23320   8.551  19.084   8.294
 1633POPC   C3A23321   8.459  19.265   7.925
 1633POPC   C4A23322   8.137  19.460   7.702
 1633POPC   C1B23323   7.875  19.076   8.676
 1633POPC   C2B23324   8.023  19.183   8.278
 1633POPC   C3B23325   8.066  18.952   7.932
 1633POPC   C4B23326   8.073  18.982   7.514
 1634POPC   NC323327  34.469  37.852   9.469
 1634POPC   PO423328  34.755  37.198   9.573
 1634POPC   GL123329  34.741  37.477   9.209
 1634POPC   GL223330  34.385  37.504   9.127
 1634POPC   C1A23331  34.749  37.719   8.803
 1634POPC   D2A23332  34.751  37.559   8.375
 1634POPC   C3A23333  34.733  37.760   7.957
 1634POPC   C4A23334  34.600  37.940   7.521
 1634POPC   C1B23335  34.234  37.811   8.849
 1634POPC   C2B23336  34.299  37.804   8.398
 1634POPC   C3B23337  34.221  37.694   7.949
 1634POPC   C4B23338  34.388  37.491   7.557
 1635POPC   NC323339  24.008  11.017   9.489
 1635POPC   PO423340  23.659  11.569   9.546
 1635POPC   GL123341  23.535  11.409   9.139
 1635POPC   GL223342  23.797  11.188   9.063
 1635POPC   C1A23343  23.466  11.559   8.702
 1635POPC   D2A23344  23.521  11.426   8.253
 1635POPC   C3A23345  23.249  11.436   7.860
 1635POPC   C4A23346  23.357  11.601   7.386
 1635POPC   C1B23347  24.173  11.105   8.841
 1635POPC   C2B23348  24.264  11.248   8.451
 1635POPC   C3B23349  24.006  11.259   8.099
 1635POPC   C4B23350  24.138  11.314   7.687
 1636POPC   NC323351   4.556  11.749  10.053
 1636POPC   PO423352   4.695  12.123   9.476
 1636POPC   GL123353   4.446  12.200   9.115
 1636POPC   GL223354   4.703  12.378   8.991
 1636POPC   C1A23355   4.407  12.037   8.705
 1636POPC   D2A23356   4.150  12.049   8.347
 1636POPC   C3A23357   4.214  11.773   8.045
 1636POPC   C4A23358   4.176  11.819   7.592
 1636POPC   C1B23359   4.818  12.343   8.581
 1636POPC   C2B23360   4.523  12.437   8.263
 1636POPC   C3B23361   4.302  12.291   7.902
 1636POPC   C4B23362   4.468  12.238   7.485
 1637POPC   NC323363   4.387  10.225   9.972
 1637POPC   PO423364   4.335   9.685   9.678
 1637POPC   GL123365   4.175   9.502   9.282
 1637POPC   GL223366   4.500   9.553   9.151
 1637POPC   C1A23367   4.008   9.600   8.870
 1637POPC   D2A23368   4.213   9.446   8.524
 1637POPC   C3A23369   4.244   9.623   8.116
 1637POPC   C4A23370   4.232   9.851   7.708
 1637POPC   C1B23371   4.433   9.925   8.886
 1637POPC   C2B23372   4.248  10.000   8.499
 1637POPC   C3B23373   4.482  10.077   8.140
 1637POPC   C4B23374   4.717  10.041   7.767
 1638POPC   NC323375   3.987  28.422   9.645
 1638POPC   PO423376   4.588  28.583   9.621
 1638POPC   GL123377   4.330  28.456   9.256
 1638POPC   GL223378   4.140  28.124   9.261
 1638POPC   C1A23379   4.387  28.360   8.817
 1638POPC   D2A23380   4.269  28.461   8.385
 1638POPC   C3A23381   4.417  28.332   7.917
 1638POPC   C4A23382   4.392  28.087   7.516
 1638POPC   C1B23383   3.943  28.130   8.845
 1638POPC   C2B23384   4.039  27.997   8.438
 1638POPC   C3B23385   3.944  28.235   8.070
 1638POPC   C4B23386   3.902  28.256   7.654
 1639POPC   NC323387  33.189  13.970   9.748
 1639POPC   PO423388  33.086  14.607   9.724
 1639POPC   GL123389  33.097  14.474   9.235
 1639POPC   GL223390  33.044  14.107   9.270
 1639POPC   C1A23391  33.236  14.567   8.774
 1639POPC   D2A23392  33.036  14.399   8.351
 1639POPC   C3A23393  33.074  14.469   7.903
 1639POPC   C4A23394  33.288  14.809   7.687
 1639POPC   C1B23395  33.029  14.106   8.837
 1639POPC   C2B23396  33.386  14.088   8.548
 1639POPC   C3B23397  33.277  14.001   8.121
 1639POPC   C4B23398  32.856  13.975   7.933
 1640POPC   NC323399   5.715  31.271   9.514
 1640POPC   PO423400   5.906  30.559   9.645
 1640POPC   GL123401   5.833  30.732   9.212
 1640POPC   GL223402   5.576  30.982   9.135
 1640POPC   C1A23403   5.977  30.568   8.810
 1640POPC   D2A23404   5.825  30.645   8.406
 1640POPC   C3A23405   5.871  30.387   8.070
 1640POPC   C4A23406   5.862  30.491   7.658
 1640POPC   C1B23407   5.768  31.046   8.744
 1640POPC   C2B23408   5.738  31.154   8.328
 1640POPC   C3B23409   5.716  30.909   7.953
 1640POPC   C4B23410   5.667  31.003   7.498
 1641POPC   NC323411  24.614   2.503   9.370
 1641POPC   PO423412  24.144   3.049   9.377
 1641POPC   GL123413  24.348   2.840   9.058
 1641POPC   GL223414  24.178   2.514   9.074
 1641POPC   C1A23415  24.665   2.876   8.722
 1641POPC   D2A23416  24.817   3.147   8.388
 1641POPC   C3A23417  24.723   2.972   8.029
 1641POPC   C4A23418  24.379   2.911   7.748
 1641POPC   C1B23419  24.272   2.532   8.644
 1641POPC   C2B23420  24.326   2.746   8.275
 1641POPC   C3B23421  24.324   2.443   7.966
 1641POPC   C4B23422  23.990   2.308   7.706
 1642POPC   NC323423  13.489   2.596   9.360
 1642POPC   PO423424  12.893   2.721   9.529
 1642POPC   GL123425  12.688   2.726   9.163
 1642POPC   GL223426  12.579   3.074   9.168
 1642POPC   C1A23427  12.912   2.703   8.794
 1642POPC   D2A23428  12.975   2.894   8.408
 1642POPC   C3A23429  13.044   2.656   8.050
 1642POPC   C4A23430  12.852   2.787   7.676
 1642POPC   C1B23431  12.682   3.162   8.769
 1642POPC   C2B23432  12.475   3.081   8.393
 1642POPC   C3B23433  12.665   3.119   8.017
 1642POPC   C4B23434  12.794   3.373   7.682
 1643POPC   NC323435  24.156  18.854   9.445
 1643POPC   PO423436  24.259  19.479   9.621
 1643POPC   GL123437  24.317  19.253   9.164
 1643POPC   GL223438  24.647  19.334   9.024
 1643POPC   C1A23439  24.359  19.057   8.718
 1643POPC   D2A23440  24.628  19.029   8.304
 1643POPC   C3A23441  24.416  18.913   7.874
 1643POPC   C4A23442  24.474  19.015   7.395
 1643POPC   C1B23443  24.586  19.504   8.636
 1643POPC   C2B23444  24.532  19.515   8.232
 1643POPC   C3B23445  24.614  19.372   7.861
 1643POPC   C4B23446  24.548  19.532   7.485
 1644POPC   NC323447  12.637   9.785   9.520
 1644POPC   PO423448  13.158   9.315   9.609
 1644POPC   GL123449  13.039   9.599   9.242
 1644POPC   GL223450  13.167   9.918   9.164
 1644POPC   C1A23451  12.737   9.656   8.872
 1644POPC   D2A23452  12.405   9.717   8.538
 1644POPC   C3A23453  12.599   9.659   8.126
 1644POPC   C4A23454  12.789   9.753   7.714
 1644POPC   C1B23455  13.060  10.097   8.799
 1644POPC   C2B23456  13.230  10.103   8.402
 1644POPC   C3B23457  12.954  10.074   8.067
 1644POPC   C4B23458  13.150  10.130   7.649
 1645POPC   NC323459   2.075  20.168   9.435
 1645POPC   PO423460   2.054  20.834   9.614
 1645POPC   GL123461   2.150  20.636   9.224
 1645POPC   GL223462   1.804  20.546   9.197
 1645POPC   C1A23463   2.284  20.569   8.791
 1645POPC   D2A23464   2.116  20.502   8.386
 1645POPC   C3A23465   2.211  20.725   8.021
 1645POPC   C4A23466   1.891  20.985   7.847
 1645POPC   C1B23467   1.763  20.480   8.772
 1645POPC   C2B23468   1.680  20.245   8.352
 1645POPC   C3B23469   1.796  20.408   7.950
 1645POPC   C4B23470   1.909  20.241   7.578
 1646POPC   NC323471  14.909  34.789   9.386
 1646POPC   PO423472  14.224  34.847   9.572
 1646POPC   GL123473  14.385  34.588   9.250
 1646POPC   GL223474  14.493  34.874   9.089
 1646POPC   C1A23475  14.513  34.311   8.899
 1646POPC   D2A23476  14.677  34.225   8.469
 1646POPC   C3A23477  14.490  34.110   8.093
 1646POPC   C4A23478  14.644  34.188   7.678
 1646POPC   C1B23479  14.540  34.894   8.662
 1646POPC   C2B23480  14.255  34.870   8.353
 1646POPC   C3B23481  14.359  34.799   7.966
 1646POPC   C4B23482  14.538  34.701   7.567
 1647POPC   NC323483  38.058  16.645   9.577
 1647POPC   PO423484  37.381  16.697   9.693
 1647POPC   GL123485  37.618  16.751   9.323
 1647POPC   GL223486  37.711  16.438   9.223
 1647POPC   C1A23487  37.754  16.832   8.899
 1647POPC   D2A23488  38.008  16.871   8.556
 1647POPC   C3A23489  37.961  16.684   8.148
 1647POPC   C4A23490  37.809  16.518   7.770
 1647POPC   C1B23491  37.409  16.450   8.868
 1647POPC   C2B23492  37.567  16.628   8.476
 1647POPC   C3B23493  37.437  16.658   8.074
 1647POPC   C4B23494  37.278  16.534   7.693
 1648POPC   NC323495  35.488  35.916   9.467
 1648POPC   PO423496  34.843  36.213   9.430
 1648POPC   GL123497  35.156  36.122   9.138
 1648POPC   GL223498  35.220  35.789   9.041
 1648POPC   C1A23499  35.237  36.215   8.718
 1648POPC   D2A23500  35.183  36.590   8.459
 1648POPC   C3A23501  35.172  36.454   8.028
 1648POPC   C4A23502  35.471  36.309   7.723
 1648POPC   C1B23503  35.566  35.788   8.775
 1648POPC   C2B23504  35.611  35.887   8.376
 1648POPC   C3B23505  35.341  35.929   8.055
 1648POPC   C4B23506  35.585  35.827   7.709
 1649POPC   NC323507   7.904  21.688   9.445
 1649POPC   PO423508   7.239  21.572   9.545
 1649POPC   GL123509   7.259  21.528   9.124
 1649POPC   GL223510   7.630  21.498   9.068
 1649POPC   C1A23511   7.299  21.704   8.719
 1649POPC   D2A23512   7.597  21.717   8.391
 1649POPC   C3A23513   7.458  21.715   7.982
 1649POPC   C4A23514   7.696  21.745   7.632
 1649POPC   C1B23515   7.657  21.304   8.702
 1649POPC   C2B23516   7.659  21.184   8.281
 1649POPC   C3B23517   7.532  21.228   7.876
 1649POPC   C4B23518   7.220  20.990   7.698
 1650POPC   NC323519  25.764  27.187   9.509
 1650POPC   PO423520  26.324  27.608   9.511
 1650POPC   GL123521  26.298  27.452   9.117
 1650POPC   GL223522  25.966  27.609   9.139
 1650POPC   C1A23523  26.228  27.614   8.692
 1650POPC   D2A23524  26.058  27.435   8.319
 1650POPC   C3A23525  26.305  27.523   7.971
 1650POPC   C4A23526  26.265  27.646   7.567
 1650POPC   C1B23527  25.745  27.705   8.744
 1650POPC   C2B23528  25.754  27.902   8.371
 1650POPC   C3B23529  25.865  27.813   7.963
 1650POPC   C4B23530  25.790  27.815   7.534
 1651POPC   NC323531   2.879  24.316   9.604
 1651POPC   PO423532   2.286  24.642   9.461
 1651POPC   GL123533   2.618  24.483   9.180
 1651POPC   GL223534   2.991  24.448   9.152
 1651POPC   C1A23535   2.705  24.208   8.822
 1651POPC   D2A23536   2.517  24.189   8.437
 1651POPC   C3A23537   2.685  24.247   8.046
 1651POPC   C4A23538   2.514  24.314   7.627
 1651POPC   C1B23539   3.195  24.463   8.816
 1651POPC   C2B23540   3.049  24.320   8.451
 1651POPC   C3B23541   3.167  24.400   8.067
 1651POPC   C4B23542   3.052  24.272   7.657
 1652POPC   NC323543  23.504  13.661   9.503
 1652POPC   PO423544  24.094  13.257   9.369
 1652POPC   GL123545  23.705  13.529   9.051
 1652POPC   GL223546  23.487  13.882   9.064
 1652POPC   C1A23547  23.510  13.639   8.623
 1652POPC   D2A23548  23.471  13.678   8.159
 1652POPC   C3A23549  23.814  13.623   7.903
 1652POPC   C4A23550  23.853  13.574   7.463
 1652POPC   C1B23551  23.386  14.139   8.723
 1652POPC   C2B23552  23.553  14.214   8.319
 1652POPC   C3B23553  23.379  14.120   7.925
 1652POPC   C4B23554  23.465  13.874   7.597
 1653POPC   NC323555   8.657  19.233   9.530
 1653POPC   PO423556   9.114  18.808   9.378
 1653POPC   GL123557   8.962  19.104   9.124
 1653POPC   GL223558   8.655  18.916   9.119
 1653POPC   C1A23559   8.882  19.110   8.687
 1653POPC   D2A23560   9.105  19.039   8.321
 1653POPC   C3A23561   8.925  19.034   7.939
 1653POPC   C4A23562   9.050  19.144   7.582
 1653POPC   C1B23563   8.558  18.688   8.779
 1653POPC   C2B23564   8.765  18.646   8.409
 1653POPC   C3B23565   8.630  18.649   8.006
 1653POPC   C4B23566   8.546  18.813   7.621
 1654POPC   NC323567  14.518  32.686   9.586
 1654POPC   PO423568  13.955  33.098   9.658
 1654POPC   GL123569  14.173  33.184   9.265
 1654POPC   GL223570  14.195  32.852   9.206
 1654POPC   C1A23571  14.338  33.287   8.827
 1654POPC   D2A23572  14.180  33.388   8.394
 1654POPC   C3A23573  14.290  33.104   8.066
 1654POPC   C4A23574  14.449  33.139   7.672
 1654POPC   C1B23575  14.495  32.792   8.880
 1654POPC   C2B23576  14.604  32.748   8.461
 1654POPC   C3B23577  14.690  32.786   8.060
 1654POPC   C4B23578  14.519  32.630   7.687
 1655POPC   NC323579   0.973   9.145   9.428
 1655POPC   PO423580   0.543   8.747   9.660
 1655POPC   GL123581   0.566   8.669   9.236
 1655POPC   GL223582   0.538   9.020   9.154
 1655POPC   C1A23583   0.561   8.675   8.794
 1655POPC   D2A23584   0.662   8.467   8.416
 1655POPC   C3A23585   0.672   8.800   8.140
 1655POPC   C4A23586   0.445   8.861   7.771
 1655POPC   C1B23587   0.672   9.253   8.799
 1655POPC   C2B23588   0.704   9.319   8.362
 1655POPC   C3B23589   0.850   9.553   8.021
 1655POPC   C4B23590   0.781   9.264   7.703
 1656POPC   NC323591  31.807  26.688   9.846
 1656POPC   PO423592  32.355  27.031   9.647
 1656POPC   GL123593  32.230  26.857   9.278
 1656POPC   GL223594  32.109  27.118   9.085
 1656POPC   C1A23595  32.214  26.623   8.895
 1656POPC   D2A23596  32.048  26.690   8.491
 1656POPC   C3A23597  32.285  26.704   8.131
 1656POPC   C4A23598  32.283  26.512   7.740
 1656POPC   C1B23599  32.226  27.123   8.658
 1656POPC   C2B23600  32.131  27.178   8.217
 1656POPC   C3B23601  32.146  27.029   7.779
 1656POPC   C4B23602  32.467  26.987   7.521
 1657POPC   NC323603   2.816  10.077  10.013
 1657POPC   PO423604   2.750   9.508   9.559
 1657POPC   GL123605   2.809   9.805   9.235
 1657POPC   GL223606   3.035   9.610   9.068
 1657POPC   C1A23607   2.757   9.983   8.825
 1657POPC   D2A23608   2.895  10.212   8.461
 1657POPC   C3A23609   2.888   9.973   8.079
 1657POPC   C4A23610   2.734   9.748   7.735
 1657POPC   C1B23611   2.869   9.502   8.683
 1657POPC   C2B23612   2.847   9.453   8.257
 1657POPC   C3B23613   3.099   9.471   7.914
 1657POPC   C4B23614   3.101   9.222   7.528
 1658POPC   NC323615  23.509  38.625   9.457
 1658POPC   PO423616  24.080  38.312   9.673
 1658POPC   GL123617  23.944  38.407   9.227
 1658POPC   GL223618  23.676  38.178   9.203
 1658POPC   C1A23619  23.953  38.627   8.791
 1658POPC   D2A23620  23.952  38.451   8.337
 1658POPC   C3A23621  23.984  38.710   7.944
 1658POPC   C4A23622  23.631  38.882   7.700
 1658POPC   C1B23623  23.672  38.208   8.765
 1658POPC   C2B23624  23.462  38.333   8.377
 1658POPC   C3B23625  23.618  38.354   7.947
 1658POPC   C4B23626  23.691  38.037   7.601
 1659POPC   NC323627   1.166  22.575   9.520
 1659POPC   PO423628   1.384  21.982   9.626
 1659POPC   GL123629   1.287  22.091   9.224
 1659POPC   GL223630   0.937  22.234   9.218
 1659POPC   C1A23631   1.286  22.241   8.816
 1659POPC   D2A23632   1.027  22.180   8.461
 1659POPC   C3A23633   1.268  22.279   8.142
 1659POPC   C4A23634   1.237  22.149   7.730
 1659POPC   C1B23635   0.894  21.898   8.916
 1659POPC   C2B23636   0.964  21.679   8.521
 1659POPC   C3B23637   1.066  21.777   8.091
 1659POPC   C4B23638   0.844  21.850   7.696
 1660POPC   NC323639  39.696   4.996   9.454
 1660POPC   PO423640  40.226   5.348   9.669
 1660POPC   GL123641  40.071   5.326   9.230
 1660POPC   GL223642  40.107   5.024   9.179
 1660POPC   C1A23643  39.818   5.236   8.822
 1660POPC   D2A23644  40.097   5.357   8.440
 1660POPC   C3A23645  40.038   5.138   8.055
 1660POPC   C4A23646  39.853   5.229   7.694
 1660POPC   C1B23647  40.295   5.067   8.816
 1660POPC   C2B23648  40.288   4.867   8.420
 1660POPC   C3B23649  40.288   4.697   8.010
 1660POPC   C4B23650  40.261   4.890   7.610
 1661POPC   NC323651  31.544  16.599   9.694
 1661POPC   PO423652  31.038  16.986   9.920
 1661POPC   GL123653  31.206  16.873   9.434
 1661POPC   GL223654  31.519  16.784   9.207
 1661POPC   C1A23655  31.115  16.789   8.950
 1661POPC   D2A23656  31.336  16.701   8.570
 1661POPC   C3A23657  31.182  16.594   8.170
 1661POPC   C4A23658  31.294  16.700   7.764
 1661POPC   C1B23659  31.782  16.693   8.843
 1661POPC   C2B23660  31.793  16.901   8.436
 1661POPC   C3B23661  31.829  16.782   8.010
 1661POPC   C4B23662  31.730  16.987   7.661
 1662POPC   NC323663  32.611  33.488  10.010
 1662POPC   PO423664  32.146  33.813   9.688
 1662POPC   GL123665  32.343  33.855   9.298
 1662POPC   GL223666  32.183  33.555   9.173
 1662POPC   C1A23667  32.360  33.908   8.852
 1662POPC   D2A23668  32.119  33.835   8.487
 1662POPC   C3A23669  32.335  33.650   8.138
 1662POPC   C4A23670  32.502  33.921   7.828
 1662POPC   C1B23671  31.935  33.420   8.821
 1662POPC   C2B23672  31.996  33.350   8.401
 1662POPC   C3B23673  31.846  33.500   8.028
 1662POPC   C4B23674  32.010  33.807   7.761
 1663POPC   NC323675   2.533   9.069   9.565
 1663POPC   PO423676   3.007   8.584   9.491
 1663POPC   GL123677   2.945   8.999   9.235
 1663POPC   GL223678   2.659   9.263   9.130
 1663POPC   C1A23679   2.901   8.997   8.792
 1663POPC   D2A23680   2.744   8.896   8.411
 1663POPC   C3A23681   2.943   8.975   8.027
 1663POPC   C4A23682   2.880   8.781   7.641
 1663POPC   C1B23683   2.409   9.248   8.792
 1663POPC   C2B23684   2.250   9.223   8.408
 1663POPC   C3B23685   2.392   9.372   8.079
 1663POPC   C4B23686   2.598   9.219   7.738
 1664POPC   NC323687  40.327   3.372   9.524
 1664POPC   PO423688  39.597   3.582   9.526
 1664POPC   GL123689  39.933   3.455   9.232
 1664POPC   GL223690  40.156   3.753   9.215
 1664POPC   C1A23691  40.174   3.354   8.851
 1664POPC   D2A23692  39.901   3.338   8.463
 1664POPC   C3A23693  39.903   3.468   8.023
 1664POPC   C4A23694  39.787   3.291   7.616
 1664POPC   C1B23695  39.893   3.759   8.827
 1664POPC   C2B23696  40.043   3.867   8.391
 1664POPC   C3B23697  40.269   3.817   7.987
 1664POPC   C4B23698  39.962   3.841   7.650
 1665POPC   NC323699  35.899  11.028   9.538
 1665POPC   PO423700  35.905  11.683   9.453
 1665POPC   GL123701  36.121  11.454   9.147
 1665POPC   GL223702  36.251  11.077   9.124
 1665POPC   C1A23703  36.032  11.504   8.733
 1665POPC   D2A23704  35.949  11.206   8.453
 1665POPC   C3A23705  36.079  11.306   8.063
 1665POPC   C4A23706  36.196  11.420   7.674
 1665POPC   C1B23707  36.419  11.147   8.681
 1665POPC   C2B23708  36.515  11.112   8.223
 1665POPC   C3B23709  36.427  10.877   7.842
 1665POPC   C4B23710  36.382  11.035   7.395
 1666POPC   NC323711   7.156  13.855   9.637
 1666POPC   PO423712   7.445  13.295   9.528
 1666POPC   GL123713   7.412  13.484   9.162
 1666POPC   GL223714   7.680  13.255   9.050
 1666POPC   C1A23715   7.076  13.535   8.854
 1666POPC   D2A23716   7.181  13.586   8.427
 1666POPC   C3A23717   7.107  13.349   8.060
 1666POPC   C4A23718   7.106  13.586   7.727
 1666POPC   C1B23719   7.657  13.434   8.673
 1666POPC   C2B23720   7.557  13.275   8.265
 1666POPC   C3B23721   7.609  13.310   7.818
 1666POPC   C4B23722   7.679  13.285   7.365
 1667POPC   NC323723  11.983  39.550   9.586
 1667POPC   PO423724  12.402  39.022   9.576
 1667POPC   GL123725  12.333  39.313   9.235
 1667POPC   GL223726  12.001  39.269   9.175
 1667POPC   C1A23727  12.373  39.301   8.779
 1667POPC   D2A23728  12.199  39.042   8.429
 1667POPC   C3A23729  12.352  39.111   8.003
 1667POPC   C4A23730  12.364  39.432   7.702
 1667POPC   C1B23731  11.851  39.244   8.793
 1667POPC   C2B23732  11.731  39.453   8.431
 1667POPC   C3B23733  11.881  39.302   8.062
 1667POPC   C4B23734  11.846  39.366   7.671
 1668POPC   NC323735  24.239   3.364   9.691
 1668POPC   PO423736  24.714   3.792   9.474
 1668POPC   GL123737  24.452   3.476   9.233
 1668POPC   GL223738  24.069   3.532   9.224
 1668POPC   C1A23739  24.621   3.389   8.830
 1668POPC   D2A23740  24.621   3.711   8.517
 1668POPC   C3A23741  24.633   3.560   8.113
 1668POPC   C4A23742  24.459   3.544   7.714
 1668POPC   C1B23743  24.106   3.394   8.811
 1668POPC   C2B23744  24.315   3.230   8.458
 1668POPC   C3B23745  24.208   3.269   8.057
 1668POPC   C4B23746  23.991   3.330   7.675
 1669POPC   NC323747  28.791  36.161   9.406
 1669POPC   PO423748  29.412  36.415   9.567
 1669POPC   GL123749  29.273  36.160   9.217
 1669POPC   GL223750  29.048  36.359   9.008
 1669POPC   C1A23751  29.132  35.899   8.846
 1669POPC   D2A23752  29.362  35.919   8.455
 1669POPC   C3A23753  29.152  36.074   8.099
 1669POPC   C4A23754  29.215  35.895   7.704
 1669POPC   C1B23755  28.782  36.507   8.683
 1669POPC   C2B23756  28.661  36.366   8.292
 1669POPC   C3B23757  28.715  36.545   7.899
 1669POPC   C4B23758  29.028  36.383   7.724
 1670POPC   NC323759  14.545  38.661   9.889
 1670POPC   PO423760  14.129  38.246   9.533
 1670POPC   GL123761  14.383  38.497   9.217
 1670POPC   GL223762  14.764  38.430   9.212
 1670POPC   C1A23763  14.520  38.593   8.779
 1670POPC   D2A23764  14.855  38.596   8.451
 1670POPC   C3A23765  14.659  38.818   8.102
 1670POPC   C4A23766  14.417  38.655   7.746
 1670POPC   C1B23767  14.772  38.169   8.809
 1670POPC   C2B23768  14.609  38.126   8.380
 1670POPC   C3B23769  14.575  38.188   7.941
 1670POPC   C4B23770  14.598  38.183   7.481
 1671POPC   NC323771  12.321   5.035   9.291
 1671POPC   PO423772  13.000   4.957   9.530
 1671POPC   GL123773  12.992   4.883   9.130
 1671POPC   GL223774  12.769   5.170   9.098
 1671POPC   C1A23775  13.021   5.032   8.695
 1671POPC   D2A23776  12.686   5.033   8.363
 1671POPC   C3A23777  12.849   4.859   7.967
 1671POPC   C4A23778  13.261   4.768   7.786
 1671POPC   C1B23779  12.527   5.345   8.765
 1671POPC   C2B23780  12.559   5.543   8.408
 1671POPC   C3B23781  12.458   5.602   8.012
 1671POPC   C4B23782  12.463   5.212   7.833
 1672POPC   NC323783  26.206   0.505   9.470
 1672POPC   PO423784  25.578   0.642   9.726
 1672POPC   GL123785  25.797   0.247   9.365
 1672POPC   GL223786  25.970   0.359   9.049
 1672POPC   C1A23787  25.715  44.931   8.985
 1672POPC   D2A23788  25.761   0.040   8.532
 1672POPC   C3A23789  25.794  44.926   8.087
 1672POPC   C4A23790  25.879   0.188   7.733
 1672POPC   C1B23791  26.209   0.071   8.775
 1672POPC   C2B23792  26.249   0.239   8.361
 1672POPC   C3B23793  26.266   0.436   7.942
 1672POPC   C4B23794  26.156   0.555   7.488
 1673POPC   NC323795  13.822  20.505   9.420
 1673POPC   PO423796  13.461  21.061   9.500
 1673POPC   GL123797  13.531  20.835   9.083
 1673POPC   GL223798  13.884  20.744   8.991
 1673POPC   C1A23799  13.606  20.852   8.604
 1673POPC   D2A23800  13.629  20.510   8.318
 1673POPC   C3A23801  13.708  20.635   7.955
 1673POPC   C4A23802  13.509  20.798   7.643
 1673POPC   C1B23803  14.079  20.597   8.578
 1673POPC   C2B23804  14.070  20.239   8.278
 1673POPC   C3B23805  13.933  20.185   7.851
 1673POPC   C4B23806  13.674  20.262   7.469
 1674POPC   NC323807  20.729  17.088   9.467
 1674POPC   PO423808  21.240  16.670   9.699
 1674POPC   GL123809  21.397  16.728   9.275
 1674POPC   GL223810  21.191  17.010   9.211
 1674POPC   C1A23811  21.497  16.678   8.827
 1674POPC   D2A23812  21.448  16.473   8.430
 1674POPC   C3A23813  21.407  16.628   8.049
 1674POPC   C4A23814  21.431  16.520   7.641
 1674POPC   C1B23815  21.027  16.978   8.831
 1674POPC   C2B23816  21.146  16.912   8.401
 1674POPC   C3B23817  21.057  16.973   7.935
 1674POPC   C4B23818  21.160  16.947   7.498
 1675POPC   NC323819   8.364   5.558   9.252
 1675POPC   PO423820   7.986   5.130   9.590
 1675POPC   GL123821   8.159   5.080   9.164
 1675POPC   GL223822   8.523   5.056   9.132
 1675POPC   C1A23823   8.157   4.860   8.782
 1675POPC   D2A23824   8.059   5.091   8.428
 1675POPC   C3A23825   8.164   4.995   8.028
 1675POPC   C4A23826   8.153   5.277   7.667
 1675POPC   C1B23827   8.511   5.239   8.688
 1675POPC   C2B23828   8.614   5.192   8.229
 1675POPC   C3B23829   8.615   5.096   7.800
 1675POPC   C4B23830   8.475   4.991   7.362
 1676POPC   NC323831  10.117   4.983   9.362
 1676POPC   PO423832   9.500   5.350   9.485
 1676POPC   GL123833   9.763   5.291   9.132
 1676POPC   GL223834   9.607   4.965   9.104
 1676POPC   C1A23835   9.972   5.127   8.733
 1676POPC   D2A23836   9.909   4.817   8.381
 1676POPC   C3A23837   9.985   5.045   8.007
 1676POPC   C4A23838   9.859   5.060   7.561
 1676POPC   C1B23839   9.458   5.173   8.723
 1676POPC   C2B23840   9.647   5.271   8.321
 1676POPC   C3B23841   9.540   5.293   7.877
 1676POPC   C4B23842   9.472   5.354   7.401
 1677POPC   NC323843  36.288  38.656   9.642
 1677POPC   PO423844  35.837  38.266   9.420
 1677POPC   GL123845  36.199  38.194   9.193
 1677POPC   GL223846  36.264  38.551   9.140
 1677POPC   C1A23847  36.182  38.173   8.755
 1677POPC   D2A23848  36.386  38.104   8.398
 1677POPC   C3A23849  36.145  38.253   8.081
 1677POPC   C4A23850  36.273  38.411   7.735
 1677POPC   C1B23851  35.914  38.591   8.826
 1677POPC   C2B23852  36.041  38.628   8.407
 1677POPC   C3B23853  35.973  38.739   7.972
 1677POPC   C4B23854  35.923  38.762   7.494
 1678POPC   NC323855  16.765   5.659   9.435
 1678POPC   PO423856  16.846   6.309   9.425
 1678POPC   GL123857  16.560   6.047   9.099
 1678POPC   GL223858  16.694   5.738   8.958
 1678POPC   C1A23859  16.451   5.986   8.608
 1678POPC   D2A23860  16.640   6.222   8.265
 1678POPC   C3A23861  16.667   6.075   7.869
 1678POPC   C4A23862  16.594   5.727   7.637
 1678POPC   C1B23863  16.676   5.498   8.610
 1678POPC   C2B23864  16.743   5.654   8.164
 1678POPC   C3B23865  17.055   5.616   7.812
 1678POPC   C4B23866  17.057   5.681   7.329
 1679POPC   NC323867  44.880  25.162   9.502
 1679POPC   PO423868  44.284  24.828   9.349
 1679POPC   GL123869  44.548  25.126   9.113
 1679POPC   GL223870  44.487  25.474   9.158
 1679POPC   C1A23871  44.713  25.190   8.704
 1679POPC   D2A23872  44.482  25.103   8.325
 1679POPC   C3A23873  44.750  25.181   7.991
 1679POPC   C4A23874  44.874  25.021   7.608
 1679POPC   C1B23875  44.223  25.374   8.769
 1679POPC   C2B23876  44.051  25.383   8.329
 1679POPC   C3B23877  44.295  25.486   7.948
 1679POPC   C4B23878  44.565  25.432   7.588
 1680POPC   NC323879  29.662  28.912   9.485
 1680POPC   PO423880  29.781  29.488   9.491
 1680POPC   GL123881  29.914  29.171   9.113
 1680POPC   GL223882  30.235  28.980   9.030
 1680POPC   C1A23883  29.783  29.040   8.669
 1680POPC   D2A23884  29.907  29.237   8.273
 1680POPC   C3A23885  30.064  29.101   7.893
 1680POPC   C4A23886  29.972  29.373   7.561
 1680POPC   C1B23887  30.187  28.729   8.665
 1680POPC   C2B23888  29.910  28.679   8.276
 1680POPC   C3B23889  29.734  28.731   7.837
 1680POPC   C4B23890  29.971  28.884   7.422
 1681POPC   NC323891  23.907  18.152   9.523
 1681POPC   PO423892  23.768  18.712   9.208
 1681POPC   GL123893  23.781  18.268   9.052
 1681POPC   GL223894  23.481  18.111   8.955
 1681POPC   C1A23895  23.946  18.036   8.718
 1681POPC   D2A23896  24.092  18.259   8.347
 1681POPC   C3A23897  24.024  18.077   7.960
 1681POPC   C4A23898  24.064  18.137   7.486
 1681POPC   C1B23899  23.595  18.412   8.594
 1681POPC   C2B23900  23.658  18.673   8.228
 1681POPC   C3B23901  23.772  18.499   7.854
 1681POPC   C4B23902  23.556  18.136   7.671
 1682POPC   NC323903   6.526  20.428   9.427
 1682POPC   PO423904   6.514  21.082   9.587
 1682POPC   GL123905   6.470  20.854   9.161
 1682POPC   GL223906   6.808  20.623   9.071
 1682POPC   C1A23907   6.360  20.592   8.793
 1682POPC   D2A23908   6.201  20.697   8.394
 1682POPC   C3A23909   6.397  20.502   8.045
 1682POPC   C4A23910   6.389  20.458   7.588
 1682POPC   C1B23911   6.822  20.452   8.640
 1682POPC   C2B23912   6.792  20.729   8.280
 1682POPC   C3B23913   6.791  20.748   7.829
 1682POPC   C4B23914   6.846  20.615   7.403
 1683POPC   NC323915  40.368   4.403   9.654
 1683POPC   PO423916  39.695   4.271   9.748
 1683POPC   GL123917  39.917   4.230   9.274
 1683POPC   GL223918  40.105   4.516   9.170
 1683POPC   C1A23919  40.014   4.231   8.780
 1683POPC   D2A23920  40.263   4.348   8.415
 1683POPC   C3A23921  40.032   4.262   8.035
 1683POPC   C4A23922  39.665   4.222   7.811
 1683POPC   C1B23923  39.920   4.724   8.770
 1683POPC   C2B23924  39.808   4.665   8.296
 1683POPC   C3B23925  39.800   4.732   7.828
 1683POPC   C4B23926  39.824   4.842   7.358
 1684POPC   NC323927  19.585  37.774   9.342
 1684POPC   PO423928  19.672  38.502   9.378
 1684POPC   GL123929  19.789  38.557   9.036
 1684POPC   GL223930  19.994  38.235   9.011
 1684POPC   C1A23931  19.744  38.536   8.611
 1684POPC   D2A23932  19.717  38.140   8.428
 1684POPC   C3A23933  19.894  38.215   8.069
 1684POPC   C4A23934  19.811  38.446   7.687
 1684POPC   C1B23935  20.222  38.570   8.801
 1684POPC   C2B23936  20.316  38.756   8.418
 1684POPC   C3B23937  20.197  38.632   8.010
 1684POPC   C4B23938  20.285  38.278   7.742
 1685POPC   NC323939  39.830  43.541   9.985
 1685POPC   PO423940  40.216  43.926   9.574
 1685POPC   GL123941  40.153  43.839   9.153
 1685POPC   GL223942  39.821  43.726   9.084
 1685POPC   C1A23943  40.336  43.961   8.801
 1685POPC   D2A23944  40.425  44.112   8.457
 1685POPC   C3A23945  40.323  43.852   8.099
 1685POPC   C4A23946  40.096  43.874   7.713
 1685POPC   C1B23947  39.836  44.084   8.810
 1685POPC   C2B23948  39.930  44.029   8.406
 1685POPC   C3B23949  39.746  44.023   8.028
 1685POPC   C4B23950  39.607  43.623   7.909
 1686POPC   NC323951  26.994  19.290   9.550
 1686POPC   PO423952  26.464  18.871   9.687
 1686POPC   GL123953  26.663  18.832   9.268
 1686POPC   GL223954  27.044  18.822   9.306
 1686POPC   C1A23955  26.543  18.991   8.845
 1686POPC   D2A23956  26.607  19.321   8.530
 1686POPC   C3A23957  26.643  19.093   8.126
 1686POPC   C4A23958  26.654  19.291   7.752
 1686POPC   C1B23959  27.100  19.033   8.909
 1686POPC   C2B23960  26.956  18.927   8.489
 1686POPC   C3B23961  27.112  18.866   8.066
 1686POPC   C4B23962  27.181  19.230   7.801
 1687POPC   NC323963  30.041   9.397   9.395
 1687POPC   PO423964  30.129   8.749   9.534
 1687POPC   GL123965  29.949   8.912   9.173
 1687POPC   GL223966  29.616   9.098   9.193
 1687POPC   C1A23967  29.810   8.895   8.755
 1687POPC   D2A23968  29.796   8.983   8.335
 1687POPC   C3A23969  29.964   8.705   8.056
 1687POPC   C4A23970  29.726   8.730   7.718
 1687POPC   C1B23971  29.444   9.256   8.751
 1687POPC   C2B23972  29.378   9.257   8.298
 1687POPC   C3B23973  29.588   9.196   7.888
 1687POPC   C4B23974  29.504   9.113   7.429
 1688POPC   NC323975  40.764   7.216   9.521
 1688POPC   PO423976  40.535   7.757   9.451
 1688POPC   GL123977  40.840   7.576   9.126
 1688POPC   GL223978  41.087   7.311   9.129
 1688POPC   C1A23979  40.830   7.550   8.664
 1688POPC   D2A23980  40.777   7.780   8.254
 1688POPC   C3A23981  40.760   7.572   7.835
 1688POPC   C4A23982  40.599   7.776   7.405
 1688POPC   C1B23983  41.083   7.114   8.713
 1688POPC   C2B23984  41.008   7.217   8.300
 1688POPC   C3B23985  41.015   7.049   7.894
 1688POPC   C4B23986  40.986   7.021   7.445
 1689POPC   NC323987  37.537   3.656   9.552
 1689POPC   PO423988  37.869   3.108   9.521
 1689POPC   GL123989  37.618   3.304   9.166
 1689POPC   GL223990  37.820   3.570   9.138
 1689POPC   C1A23991  37.383   3.336   8.760
 1689POPC   D2A23992  37.453   3.567   8.381
 1689POPC   C3A23993  37.264   3.522   7.971
 1689POPC   C4A23994  37.633   3.600   7.703
 1689POPC   C1B23995  37.891   3.419   8.722
 1689POPC   C2B23996  37.982   3.514   8.324
 1689POPC   C3B23997  38.051   3.423   7.929
 1689POPC   C4B23998  38.124   3.805   7.711
 1690POPC   NC323999  20.737   1.491   9.530
 1690POPC   PO424000  20.490   0.873   9.553
 1690POPC   GL124001  20.654   1.036   9.204
 1690POPC   GL224002  20.394   1.304   9.170
 1690POPC   C1A24003  20.863   0.868   8.832
 1690POPC   D2A24004  20.873   1.141   8.481
 1690POPC   C3A24005  20.837   1.080   8.067
 1690POPC   C4A24006  20.910   1.494   7.946
 1690POPC   C1B24007  20.433   1.192   8.749
 1690POPC   C2B24008  20.441   1.389   8.348
 1690POPC   C3B24009  20.410   1.389   7.899
 1690POPC   C4B24010  20.324   1.250   7.457
 1691POPC   NC324011  40.293  38.132   9.222
 1691POPC   PO424012  40.183  38.757   9.528
 1691POPC   GL124013  40.000  38.552   9.149
 1691POPC   GL224014  39.648  38.409   9.125
 1691POPC   C1A24015  39.920  38.558   8.684
 1691POPC   D2A24016  39.860  38.829   8.301
 1691POPC   C3A24017  39.970  38.577   7.967
 1691POPC   C4A24018  40.344  38.619   7.744
 1691POPC   C1B24019  39.713  38.071   8.812
 1691POPC   C2B24020  39.622  38.068   8.368
 1691POPC   C3B24021  39.792  38.077   7.943
 1691POPC   C4B24022  39.840  38.293   7.566
 1692POPC   NC324023   4.340  34.268   9.552
 1692POPC   PO424024   4.371  34.884   9.599
 1692POPC   GL124025   4.088  34.713   9.202
 1692POPC   GL224026   4.101  34.333   9.119
 1692POPC   C1A24027   4.031  34.621   8.721
 1692POPC   D2A24028   4.215  34.789   8.340
 1692POPC   C3A24029   4.081  34.836   7.892
 1692POPC   C4A24030   4.225  34.835   7.436
 1692POPC   C1B24031   4.470  34.339   8.804
 1692POPC   C2B24032   4.433  34.333   8.336
 1692POPC   C3B24033   4.455  34.502   7.899
 1692POPC   C4B24034   4.586  34.472   7.427
 1693POPC   NC324035   2.478  17.180   9.411
 1693POPC   PO424036   2.869  17.708   9.542
 1693POPC   GL124037   2.738  17.538   9.148
 1693POPC   GL224038   2.942  17.254   9.163
 1693POPC   C1A24039   2.935  17.693   8.756
 1693POPC   D2A24040   3.121  17.826   8.342
 1693POPC   C3A24041   2.849  17.788   8.000
 1693POPC   C4A24042   2.813  17.496   7.686
 1693POPC   C1B24043   2.787  17.184   8.746
 1693POPC   C2B24044   2.695  17.441   8.361
 1693POPC   C3B24045   2.418  17.442   7.997
 1693POPC   C4B24046   2.522  17.069   7.744
 1694POPC   NC324047  20.904  41.667   9.829
 1694POPC   PO424048  20.402  41.337   9.450
 1694POPC   GL124049  20.778  41.442   9.195
 1694POPC   GL224050  20.995  41.118   9.142
 1694POPC   C1A24051  20.711  41.692   8.781
 1694POPC   D2A24052  20.377  41.727   8.458
 1694POPC   C3A24053  20.561  41.791   8.050
 1694POPC   C4A24054  20.442  41.684   7.642
 1694POPC   C1B24055  20.723  41.195   8.768
 1694POPC   C2B24056  20.796  41.373   8.335
 1694POPC   C3B24057  20.691  41.326   7.888
 1694POPC   C4B24058  20.896  41.451   7.471
 1695POPC   NC324059  12.261  38.574   9.506
 1695POPC   PO424060  11.704  38.426   9.177
 1695POPC   GL124061  12.157  38.354   9.046
 1695POPC   GL224062  12.402  38.136   9.247
 1695POPC   C1A24063  12.320  38.471   8.630
 1695POPC   D2A24064  12.296  38.587   8.187
 1695POPC   C3A24065  11.939  38.780   7.975
 1695POPC   C4A24066  11.788  38.685   7.559
 1695POPC   C1B24067  12.580  38.073   8.827
 1695POPC   C2B24068  12.454  38.036   8.382
 1695POPC   C3B24069  12.365  38.129   7.939
 1695POPC   C4B24070  12.327  38.037   7.469
 1696POPC   NC324071  29.586  10.044   9.461
 1696POPC   PO424072  30.191   9.787   9.594
 1696POPC   GL124073  30.037   9.872   9.122
 1696POPC   GL224074  29.690  10.003   8.978
 1696POPC   C1A24075  30.058   9.637   8.710
 1696POPC   D2A24076  29.815   9.505   8.342
 1696POPC   C3A24077  29.909   9.631   7.917
 1696POPC   C4A24078  30.256   9.545   7.654
 1696POPC   C1B24079  29.880  10.119   8.663
 1696POPC   C2B24080  29.997   9.992   8.288
 1696POPC   C3B24081  29.759  10.137   7.965
 1696POPC   C4B24082  29.596   9.977   7.603
 1697POPC   NC324083  18.768  31.671   9.556
 1697POPC   PO424084  18.268  31.209   9.579
 1697POPC   GL124085  18.133  31.488   9.238
 1697POPC   GL224086  18.460  31.455   9.172
 1697POPC   C1A24087  18.039  31.389   8.797
 1697POPC   D2A24088  18.035  31.162   8.413
 1697POPC   C3A24089  18.175  31.353   8.034
 1697POPC   C4A24090  18.004  31.315   7.636
 1697POPC   C1B24091  18.525  31.611   8.800
 1697POPC   C2B24092  18.485  31.518   8.406
 1697POPC   C3B24093  18.580  31.680   8.000
 1697POPC   C4B24094  18.427  31.589   7.582
 1698POPC   NC324095  15.074  13.348   9.483
 1698POPC   PO424096  15.306  12.729   9.355
 1698POPC   GL124097  15.173  12.826   8.995
 1698POPC   GL224098  15.024  13.118   9.029
 1698POPC   C1A24099  15.175  12.860   8.581
 1698POPC   D2A24100  15.096  12.576   8.331
 1698POPC   C3A24101  15.203  12.672   7.939
 1698POPC   C4A24102  15.055  12.738   7.550
 1698POPC   C1B24103  14.736  13.049   8.700
 1698POPC   C2B24104  14.796  13.017   8.242
 1698POPC   C3B24105  14.910  13.124   7.838
 1698POPC   C4B24106  15.139  13.436   7.595
 1699POPC   NC324107  43.417   0.401   9.402
 1699POPC   PO424108  44.019   0.637   9.293
 1699POPC   GL124109  43.953   0.470   8.934
 1699POPC   GL224110  43.824   0.179   9.089
 1699POPC   C1A24111  44.156   0.163   8.664
 1699POPC   D2A24112  44.172   0.102   8.217
 1699POPC   C3A24113  43.961   0.476   8.065
 1699POPC   C4A24114  43.642   0.550   7.783
 1699POPC   C1B24115  43.551   0.222   8.727
 1699POPC   C2B24116  43.594   0.098   8.285
 1699POPC   C3B24117  43.777   0.034   7.872
 1699POPC   C4B24118  43.706   0.034   7.392
 1700POPC   NC324119  25.776  12.098   9.559
 1700POPC   PO424120  26.413  12.266   9.512
 1700POPC   GL124121  26.163  12.134   9.173
 1700POPC   GL224122  25.895  12.364   9.137
 1700POPC   C1A24123  26.117  12.266   8.701
 1700POPC   D2A24124  26.267  12.111   8.319
 1700POPC   C3A24125  26.104  12.038   7.904
 1700POPC   C4A24126  25.835  12.151   7.599
 1700POPC   C1B24127  25.802  11.931   8.905
 1700POPC   C2B24128  25.733  11.977   8.447
 1700POPC   C3B24129  25.771  12.330   8.145
 1700POPC   C4B24130  25.500  12.506   7.815
 1701POPC   NC324131  34.223  10.623   9.592
 1701POPC   PO424132  34.875  10.598   9.465
 1701POPC   GL124133  34.520  10.611   9.183
 1701POPC   GL224134  34.409  10.257   9.238
 1701POPC   C1A24135  34.343  10.645   8.754
 1701POPC   D2A24136  34.129  10.415   8.424
 1701POPC   C3A24137  34.371  10.313   8.028
 1701POPC   C4A24138  34.623  10.612   7.709
 1701POPC   C1B24139  34.713  10.235   8.894
 1701POPC   C2B24140  34.699  10.283   8.460
 1701POPC   C3B24141  34.880  10.348   8.056
 1701POPC   C4B24142  34.734  10.118   7.688
 1702POPC   NC324143   2.971  33.032   9.289
 1702POPC   PO424144   2.439  33.202   9.713
 1702POPC   GL124145   2.527  32.798   9.320
 1702POPC   GL224146   2.754  32.607   9.094
 1702POPC   C1A24147   2.522  32.864   8.753
 1702POPC   D2A24148   2.700  33.271   8.546
 1702POPC   C3A24149   2.652  33.271   8.079
 1702POPC   C4A24150   2.430  33.127   7.714
 1702POPC   C1B24151   3.002  32.686   8.731
 1702POPC   C2B24152   2.886  32.841   8.352
 1702POPC   C3B24153   3.045  32.955   7.978
 1702POPC   C4B24154   2.912  32.847   7.588
 1703POPC   NC324155  42.805   8.487   9.268
 1703POPC   PO424156  43.100   8.941   9.654
 1703POPC   GL124157  43.011   8.945   9.159
 1703POPC   GL224158  42.828   9.240   9.022
 1703POPC   C1A24159  42.970   8.756   8.684
 1703POPC   D2A24160  42.920   9.091   8.335
 1703POPC   C3A24161  42.843   9.008   7.905
 1703POPC   C4A24162  43.155   8.743   7.721
 1703POPC   C1B24163  43.217   9.182   8.738
 1703POPC   C2B24164  43.462   9.190   8.360
 1703POPC   C3B24165  43.268   9.286   7.919
 1703POPC   C4B24166  43.321   9.176   7.473
 1704POPC   NC324167  34.774  44.900   9.452
 1704POPC   PO424168  34.070  44.664   9.439
 1704POPC   GL124169  34.416  44.742   9.140
 1704POPC   GL224170  34.576   0.080   9.036
 1704POPC   C1A24171  34.530  44.706   8.715
 1704POPC   D2A24172  34.222  44.722   8.386
 1704POPC   C3A24173  34.338  44.636   7.984
 1704POPC   C4A24174  34.438  44.265   7.801
 1704POPC   C1B24175  34.937   0.070   8.814
 1704POPC   C2B24176  35.015  44.772   8.559
 1704POPC   C3B24177  34.763  44.768   8.240
 1704POPC   C4B24178  34.823  44.773   7.849
 1705POPC   NC324179  38.151  24.772   9.404
 1705POPC   PO424180  37.568  24.462   9.564
 1705POPC   GL124181  37.801  24.387   9.212
 1705POPC   GL224182  37.700  24.736   9.125
 1705POPC   C1A24183  37.715  24.324   8.791
 1705POPC   D2A24184  37.609  24.443   8.413
 1705POPC   C3A24185  37.686  24.206   8.086
 1705POPC   C4A24186  37.727  24.394   7.698
 1705POPC   C1B24187  37.836  24.826   8.721
 1705POPC   C2B24188  38.125  24.563   8.507
 1705POPC   C3B24189  38.148  24.496   8.070
 1705POPC   C4B24190  38.073  24.765   7.723
 1706POPC   NC324191   1.002  41.638   9.286
 1706POPC   PO424192   0.320  41.577   9.544
 1706POPC   GL124193   0.435  41.433   9.139
 1706POPC   GL224194   0.112  41.288   9.138
 1706POPC   C1A24195   0.658  41.488   8.707
 1706POPC   D2A24196   0.693  41.394   8.238
 1706POPC   C3A24197   0.884  41.588   7.865
 1706POPC   C4A24198   0.792  41.708   7.428
 1706POPC   C1B24199   0.032  41.432   8.781
 1706POPC   C2B24200   0.220  41.434   8.430
 1706POPC   C3B24201   0.189  41.616   8.053
 1706POPC   C4B24202   0.338  41.479   7.671
 1707POPC   NC324203  34.267  15.121   9.569
 1707POPC   PO424204  34.960  14.983   9.489
 1707POPC   GL124205  34.735  15.191   9.158
 1707POPC   GL224206  34.409  15.266   9.048
 1707POPC   C1A24207  34.743  14.996   8.766
 1707POPC   D2A24208  34.540  14.944   8.405
 1707POPC   C3A24209  34.689  15.059   8.035
 1707POPC   C4A24210  34.385  15.126   7.729
 1707POPC   C1B24211  34.776  15.516   8.791
 1707POPC   C2B24212  34.686  15.732   8.406
 1707POPC   C3B24213  34.435  15.582   8.068
 1707POPC   C4B24214  34.732  15.506   7.797
 1708POPC   NC324215  19.910   2.517   9.116
 1708POPC   PO424216  19.642   3.032   9.419
 1708POPC   GL124217  19.875   3.009   9.024
 1708POPC   GL224218  20.227   2.940   9.024
 1708POPC   C1A24219  19.982   2.985   8.585
 1708POPC   D2A24220  19.744   3.081   8.234
 1708POPC   C3A24221  19.769   2.672   8.117
 1708POPC   C4A24222  19.797   2.510   7.678
 1708POPC   C1B24223  20.383   2.607   8.696
 1708POPC   C2B24224  20.224   2.485   8.282
 1708POPC   C3B24225  20.202   2.731   7.892
 1708POPC   C4B24226  20.216   2.741   7.447
 1709POPC   NC324227  34.904  31.560   9.679
 1709POPC   PO424228  35.562  31.609   9.673
 1709POPC   GL124229  35.286  31.565   9.290
 1709POPC   GL224230  35.081  31.247   9.242
 1709POPC   C1A24231  35.351  31.585   8.832
 1709POPC   D2A24232  35.693  31.603   8.502
 1709POPC   C3A24233  35.547  31.746   8.074
 1709POPC   C4A24234  35.142  31.593   7.860
 1709POPC   C1B24235  35.447  31.103   8.979
 1709POPC   C2B24236  35.532  31.071   8.528
 1709POPC   C3B24237  35.425  31.255   8.143
 1709POPC   C4B24238  35.367  31.166   7.710
 1710POPC   NC324239  41.492  37.187   9.687
 1710POPC   PO424240  41.422  37.796   9.405
 1710POPC   GL124241  41.531  37.904   9.017
 1710POPC   GL224242  41.362  38.213   8.964
 1710POPC   C1A24243  41.679  37.665   8.655
 1710POPC   D2A24244  41.503  37.382   8.323
 1710POPC   C3A24245  41.800  37.481   8.006
 1710POPC   C4A24246  41.852  37.625   7.552
 1710POPC   C1B24247  41.500  38.155   8.545
 1710POPC   C2B24248  41.454  37.889   8.188
 1710POPC   C3B24249  41.416  37.755   7.762
 1710POPC   C4B24250  41.420  37.969   7.285
 1711POPC   NC324251  25.925   5.452   9.398
 1711POPC   PO424252  26.055   4.838   9.575
 1711POPC   GL124253  26.025   4.985   9.176
 1711POPC   GL224254  26.310   5.224   9.145
 1711POPC   C1A24255  25.874   4.788   8.805
 1711POPC   D2A24256  26.056   4.630   8.424
 1711POPC   C3A24257  26.108   4.918   8.098
 1711POPC   C4A24258  25.806   5.055   7.793
 1711POPC   C1B24259  26.188   5.186   8.688
 1711POPC   C2B24260  26.220   5.378   8.252
 1711POPC   C3B24261  26.251   5.292   7.759
 1711POPC   C4B24262  26.363   5.324   7.311
 1712POPC   NC324263  27.514  14.683   9.503
 1712POPC   PO424264  27.853  14.188   9.690
 1712POPC   GL124265  27.712  14.280   9.209
 1712POPC   GL224266  27.340  14.141   9.178
 1712POPC   C1A24267  27.731  14.550   8.764
 1712POPC   D2A24268  27.810  14.645   8.297
 1712POPC   C3A24269  27.981  14.409   7.892
 1712POPC   C4A24270  27.897  14.299   7.409
 1712POPC   C1B24271  27.261  14.361   8.779
 1712POPC   C2B24272  27.396  14.290   8.369
 1712POPC   C3B24273  27.476  14.432   7.955
 1712POPC   C4B24274  27.324  14.068   7.756
 1713POPC   NC324275   0.124  12.311   9.436
 1713POPC   PO424276   0.016  11.661   9.604
 1713POPC   GL124277   0.253  11.761   9.224
 1713POPC   GL224278   0.603  11.884   9.250
 1713POPC   C1A24279   0.271  11.795   8.762
 1713POPC   D2A24280   0.459  11.864   8.344
 1713POPC   C3A24281   0.391  12.202   8.027
 1713POPC   C4A24282   0.163  12.209   7.627
 1713POPC   C1B24283   0.675  12.121   8.831
 1713POPC   C2B24284   0.937  12.166   8.434
 1713POPC   C3B24285   1.105  12.269   8.044
 1713POPC   C4B24286   0.862  12.229   7.694
 1714POPC   NC324287  10.170   0.776   9.457
 1714POPC   PO424288  10.671   0.274   9.482
 1714POPC   GL124289  10.413   0.268   9.119
 1714POPC   GL224290  10.428   0.599   9.047
 1714POPC   C1A24291  10.261   0.249   8.674
 1714POPC   D2A24292  10.249   0.308   8.217
 1714POPC   C3A24293  10.618   0.541   8.051
 1714POPC   C4A24294  10.906   0.415   7.775
 1714POPC   C1B24295  10.151   0.759   8.751
 1714POPC   C2B24296  10.277   0.820   8.306
 1714POPC   C3B24297  10.230   0.771   7.833
 1714POPC   C4B24298  10.246   0.807   7.335
 1715POPC   NC324299  27.774  18.080   9.488
 1715POPC   PO424300  27.427  18.617   9.606
 1715POPC   GL124301  27.691  18.525   9.256
 1715POPC   GL224302  27.521  18.732   9.092
 1715POPC   C1A24303  27.663  18.274   8.882
 1715POPC   D2A24304  27.823  18.105   8.516
 1715POPC   C3A24305  27.535  18.049   8.200
 1715POPC   C4A24306  27.676  18.103   7.790
 1715POPC   C1B24307  27.372  18.656   8.676
 1715POPC   C2B24308  27.562  18.567   8.274
 1715POPC   C3B24309  27.649  18.613   7.835
 1715POPC   C4B24310  27.367  18.652   7.492
 1716POPC   NC324311  16.066  13.459   9.565
 1716POPC   PO424312  15.455  13.612   9.507
 1716POPC   GL124313  15.754  13.369   9.181
 1716POPC   GL224314  16.036  13.621   9.080
 1716POPC   C1A24315  15.999  13.198   8.815
 1716POPC   D2A24316  15.765  13.235   8.403
 1716POPC   C3A24317  16.043  13.276   8.040
 1716POPC   C4A24318  16.208  13.493   7.655
 1716POPC   C1B24319  15.711  13.639   8.727
 1716POPC   C2B24320  15.721  13.728   8.270
 1716POPC   C3B24321  15.789  13.712   7.846
 1716POPC   C4B24322  16.059  14.013   7.622
 1717POPC   NC324323  33.345   2.390   9.525
 1717POPC   PO424324  33.110   3.101   9.421
 1717POPC   GL124325  33.142   2.755   9.148
 1717POPC   GL224326  32.843   2.522   9.126
 1717POPC   C1A24327  33.326   2.919   8.775
 1717POPC   D2A24328  33.198   3.038   8.363
 1717POPC   C3A24329  33.129   2.679   8.098
 1717POPC   C4A24330  33.076   2.754   7.678
 1717POPC   C1B24331  32.872   2.652   8.658
 1717POPC   C2B24332  32.658   2.509   8.256
 1717POPC   C3B24333  32.666   2.476   7.782
 1717POPC   C4B24334  32.683   2.700   7.354
 1718POPC   NC324335  25.711  13.830   9.616
 1718POPC   PO424336  25.011  13.639   9.488
 1718POPC   GL124337  25.181  13.630   9.131
 1718POPC   GL224338  25.489  13.572   9.236
 1718POPC   C1A24339  24.983  13.673   8.745
 1718POPC   D2A24340  25.022  13.492   8.348
 1718POPC   C3A24341  25.074  13.869   8.116
 1718POPC   C4A24342  24.843  14.001   7.750
 1718POPC   C1B24343  25.641  13.501   8.869
 1718POPC   C2B24344  25.494  13.603   8.469
 1718POPC   C3B24345  25.454  13.518   8.032
 1718POPC   C4B24346  25.335  13.785   7.692
 1719POPC   NC324347   2.383  43.160   9.484
 1719POPC   PO424348   1.968  42.631   9.481
 1719POPC   GL124349   2.077  42.889   9.161
 1719POPC   GL224350   1.880  43.169   9.217
 1719POPC   C1A24351   1.934  42.911   8.735
 1719POPC   D2A24352   2.011  42.863   8.317
 1719POPC   C3A24353   1.666  42.899   7.966
 1719POPC   C4A24354   1.827  42.977   7.491
 1719POPC   C1B24355   2.021  43.406   8.843
 1719POPC   C2B24356   1.811  43.367   8.437
 1719POPC   C3B24357   1.980  43.286   8.024
 1719POPC   C4B24358   2.212  43.487   7.733
 1720POPC   NC324359  31.844  29.737   9.379
 1720POPC   PO424360  32.385  30.115   9.603
 1720POPC   GL124361  32.332  29.972   9.200
 1720POPC   GL224362  32.431  30.312   9.125
 1720POPC   C1A24363  32.395  29.972   8.741
 1720POPC   D2A24364  32.461  29.854   8.329
 1720POPC   C3A24365  32.119  29.818   7.960
 1720POPC   C4A24366  32.290  29.878   7.520
 1720POPC   C1B24367  32.549  30.471   8.736
 1720POPC   C2B24368  32.354  30.364   8.377
 1720POPC   C3B24369  32.400  30.211   7.978
 1720POPC   C4B24370  32.461  30.388   7.628
 1721POPC   NC324371  22.416  29.682   9.616
 1721POPC   PO424372  21.987  30.117   9.479
 1721POPC   GL124373  22.059  30.063   9.061
 1721POPC   GL224374  22.396  30.072   9.099
 1721POPC   C1A24375  21.882  29.859   8.689
 1721POPC   D2A24376  21.874  29.621   8.314
 1721POPC   C3A24377  21.972  29.913   7.996
 1721POPC   C4A24378  21.945  30.109   7.597
 1721POPC   C1B24379  22.405  29.827   8.737
 1721POPC   C2B24380  22.386  29.842   8.307
 1721POPC   C3B24381  22.512  29.881   7.900
 1721POPC   C4B24382  22.563  29.530   7.598
 1722POPC   NC324383   4.890  20.328   9.263
 1722POPC   PO424384   4.817  19.673   9.379
 1722POPC   GL124385   5.020  19.872   9.060
 1722POPC   GL224386   5.351  19.977   9.190
 1722POPC   C1A24387   5.054  19.857   8.624
 1722POPC   D2A24388   5.389  19.738   8.356
 1722POPC   C3A24389   5.201  19.606   7.960
 1722POPC   C4A24390   4.796  19.744   7.813
 1722POPC   C1B24391   5.492  20.094   8.767
 1722POPC   C2B24392   5.348  20.266   8.354
 1722POPC   C3B24393   5.423  20.060   7.936
 1722POPC   C4B24394   5.414  19.820   7.535
 1723POPC   NC324395  35.066   6.954   9.527
 1723POPC   PO424396  35.461   6.438   9.545
 1723POPC   GL124397  35.241   6.584   9.206
 1723POPC   GL224398  35.470   6.878   9.193
 1723POPC   C1A24399  35.362   6.512   8.795
 1723POPC   D2A24400  35.164   6.489   8.397
 1723POPC   C3A24401  35.420   6.312   8.117
 1723POPC   C4A24402  35.456   6.439   7.721
 1723POPC   C1B24403  35.439   7.049   8.787
 1723POPC   C2B24404  35.261   7.039   8.380
 1723POPC   C3B24405  35.291   6.864   7.988
 1723POPC   C4B24406  35.643   6.959   7.744
 1724POPC   NC324407  27.437  23.930   9.891
 1724POPC   PO424408  27.906  23.598   9.463
 1724POPC   GL124409  27.551  23.569   9.197
 1724POPC   GL224410  27.315  23.707   9.425
 1724POPC   C1A24411  27.436  23.556   8.754
 1724POPC   D2A24412  27.673  23.758   8.435
 1724POPC   C3A24413  27.671  23.599   8.033
 1724POPC   C4A24414  27.922  23.737   7.719
 1724POPC   C1B24415  27.211  23.946   9.045
 1724POPC   C2B24416  27.121  23.959   8.615
 1724POPC   C3B24417  27.308  24.074   8.261
 1724POPC   C4B24418  27.272  23.872   7.891
 1725POPC   NC324419  12.926  32.054   9.536
 1725POPC   PO424420  12.557  32.587   9.415
 1725POPC   GL124421  12.767  32.380   9.094
 1725POPC   GL224422  13.119  32.290   9.146
 1725POPC   C1A24423  12.779  32.061   8.746
 1725POPC   D2A24424  12.601  31.923   8.317
 1725POPC   C3A24425  12.816  32.160   7.957
 1725POPC   C4A24426  12.588  32.520   7.769
 1725POPC   C1B24427  13.124  32.457   8.753
 1725POPC   C2B24428  13.275  32.430   8.395
 1725POPC   C3B24429  13.298  32.329   8.012
 1725POPC   C4B24430  13.150  32.587   7.680
 1726POPC   NC324431  18.324  37.286   9.343
 1726POPC   PO424432  18.337  37.913   9.547
 1726POPC   GL124433  18.250  37.745   9.155
 1726POPC   GL224434  17.934  37.560   9.102
 1726POPC   C1A24435  18.339  37.547   8.752
 1726POPC   D2A24436  18.382  37.717   8.357
 1726POPC   C3A24437  18.454  37.431   8.038
 1726POPC   C4A24438  18.459  37.626   7.662
 1726POPC   C1B24439  17.897  37.875   8.820
 1726POPC   C2B24440  17.876  37.815   8.411
 1726POPC   C3B24441  17.998  37.707   8.006
 1726POPC   C4B24442  18.047  37.891   7.610
 1727POPC   NC324443  26.307  24.008   9.499
 1727POPC   PO424444  25.722  23.667   9.678
 1727POPC   GL124445  25.958  23.678   9.240
 1727POPC   GL224446  26.338  23.624   9.164
 1727POPC   C1A24447  25.982  23.528   8.805
 1727POPC   D2A24448  26.128  23.667   8.395
 1727POPC   C3A24449  25.860  23.949   8.130
 1727POPC   C4A24450  25.853  23.671   7.769
 1727POPC   C1B24451  26.240  23.982   8.835
 1727POPC   C2B24452  26.279  24.153   8.408
 1727POPC   C3B24453  26.346  23.975   7.995
 1727POPC   C4B24454  26.255  23.945   7.551
 1728POPC   NC324455  33.837  38.954   9.396
 1728POPC   PO424456  33.546  39.572   9.427
 1728POPC   GL124457  33.546  39.406   9.049
 1728POPC   GL224458  33.629  39.056   8.941
 1728POPC   C1A24459  33.704  39.463   8.653
 1728POPC   D2A24460  33.858  39.267   8.299
 1728POPC   C3A24461  33.684  39.372   7.910
 1728POPC   C4A24462  33.733  39.388   7.453
 1728POPC   C1B24463  34.073  39.133   8.781
 1728POPC   C2B24464  34.312  39.074   8.398
 1728POPC   C3B24465  34.146  38.917   8.021
 1728POPC   C4B24466  34.137  39.146   7.654
 1729POPC   NC324467  13.355  13.341   9.527
 1729POPC   PO424468  12.715  13.645   9.541
 1729POPC   GL124469  12.691  13.484   9.165
 1729POPC   GL224470  12.951  13.270   9.180
 1729POPC   C1A24471  12.798  13.565   8.751
 1729POPC   D2A24472  12.901  13.419   8.358
 1729POPC   C3A24473  12.900  13.616   7.943
 1729POPC   C4A24474  13.091  13.733   7.552
 1729POPC   C1B24475  13.072  13.135   8.764
 1729POPC   C2B24476  13.108  12.971   8.354
 1729POPC   C3B24477  13.073  13.154   7.925
 1729POPC   C4B24478  13.014  13.234   7.457
 1730POPC   NC324479   7.197   0.431   9.481
 1730POPC   PO424480   7.725   0.812   9.461
 1730POPC   GL124481   7.520   0.603   9.135
 1730POPC   GL224482   7.217   0.791   9.122
 1730POPC   C1A24483   7.636   0.276   8.842
 1730POPC   D2A24484   7.510   0.323   8.413
 1730POPC   C3A24485   7.594   0.211   7.989
 1730POPC   C4A24486   7.206   0.139   7.759
 1730POPC   C1B24487   7.286   0.814   8.686
 1730POPC   C2B24488   7.271   0.754   8.264
 1730POPC   C3B24489   7.345   0.644   7.847
 1730POPC   C4B24490   7.436   0.868   7.467
 1731POPC   NC324491  43.234  33.639   9.397
 1731POPC   PO424492  43.471  34.280   9.597
 1731POPC   GL124493  43.297  34.101   9.193
 1731POPC   GL224494  43.433  33.831   8.984
 1731POPC   C1A24495  43.042  34.136   8.799
 1731POPC   D2A24496  42.988  34.334   8.396
 1731POPC   C3A24497  43.028  34.083   8.037
 1731POPC   C4A24498  43.037  33.811   7.647
 1731POPC   C1B24499  43.547  34.165   8.729
 1731POPC   C2B24500  43.470  34.054   8.305
 1731POPC   C3B24501  43.491  33.844   7.916
 1731POPC   C4B24502  43.538  33.825   7.495
 1732POPC   NC324503  10.505  14.458   9.640
 1732POPC   PO424504  11.082  14.313   9.395
 1732POPC   GL124505  10.666  14.448   9.145
 1732POPC   GL224506  10.335  14.244   9.201
 1732POPC   C1A24507  10.431  14.749   8.819
 1732POPC   D2A24508  10.205  14.752   8.375
 1732POPC   C3A24509  10.475  14.542   8.043
 1732POPC   C4A24510  10.721  14.433   7.679
 1732POPC   C1B24511  10.228  14.237   8.778
 1732POPC   C2B24512  10.083  14.042   8.405
 1732POPC   C3B24513  10.041  14.262   8.014
 1732POPC   C4B24514  10.293  14.166   7.679
 1733POPC   NC324515  23.733  25.100   9.617
 1733POPC   PO424516  24.189  25.446   9.534
 1733POPC   GL124517  23.978  25.191   9.167
 1733POPC   GL224518  23.614  25.037   9.105
 1733POPC   C1A24519  23.968  25.107   8.743
 1733POPC   D2A24520  23.855  25.294   8.380
 1733POPC   C3A24521  23.857  25.174   7.973
 1733POPC   C4A24522  23.746  25.439   7.599
 1733POPC   C1B24523  23.331  25.031   8.699
 1733POPC   C2B24524  23.386  25.097   8.251
 1733POPC   C3B24525  23.363  25.118   7.819
 1733POPC   C4B24526  23.245  25.471   7.544
 1734POPC   NC324527  37.477  26.528   9.463
 1734POPC   PO424528  38.027  26.965   9.466
 1734POPC   GL124529  37.727  26.881   9.144
 1734POPC   GL224530  37.474  27.146   9.087
 1734POPC   C1A24531  37.768  26.552   8.811
 1734POPC   D2A24532  37.646  26.443   8.374
 1734POPC   C3A24533  37.670  26.838   8.140
 1734POPC   C4A24534  37.510  26.955   7.720
 1734POPC   C1B24535  37.321  26.786   8.826
 1734POPC   C2B24536  37.223  26.738   8.403
 1734POPC   C3B24537  37.279  26.557   7.972
 1734POPC   C4B24538  37.096  26.648   7.572
 1735POPC   NC324539  11.080  11.018   9.560
 1735POPC   PO424540  11.648  11.444   9.496
 1735POPC   GL124541  11.443  11.166   9.235
 1735POPC   GL224542  11.150  11.349   9.170
 1735POPC   C1A24543  11.552  11.057   8.859
 1735POPC   D2A24544  11.464  11.315   8.537
 1735POPC   C3A24545  11.316  11.278   8.127
 1735POPC   C4A24546  11.533  11.280   7.743
 1735POPC   C1B24547  11.115  11.597   8.813
 1735POPC   C2B24548  10.930  11.551   8.402
 1735POPC   C3B24549  10.950  11.713   7.990
 1735POPC   C4B24550  11.204  11.643   7.672
 1736POPC   NC324551  11.930   0.189   9.834
 1736POPC   PO424552  11.807  44.564   9.464
 1736POPC   GL124553  11.981  44.642   9.037
 1736POPC   GL224554  12.347  44.650   8.952
 1736POPC   C1A24555  12.026  44.608   8.584
 1736POPC   D2A24556  12.375  44.725   8.350
 1736POPC   C3A24557  12.203  44.916   7.980
 1736POPC   C4A24558  11.812  44.764   7.844
 1736POPC   C1B24559  12.418  44.294   8.689
 1736POPC   C2B24560  12.447  44.157   8.272
 1736POPC   C3B24561  12.391  44.416   7.923
 1736POPC   C4B24562  12.182  44.549   7.569
 1737POPC   NC324563  44.184  43.898   9.601
 1737POPC   PO424564  43.585  44.300   9.572
 1737POPC   GL124565  43.714  44.019   9.184
 1737POPC   GL224566  44.010  43.757   9.150
 1737POPC   C1A24567  43.869  44.015   8.724
 1737POPC   D2A24568  44.116  44.107   8.340
 1737POPC   C3A24569  43.849  44.066   7.990
 1737POPC   C4A24570  43.527  43.763   7.909
 1737POPC   C1B24571  43.972  43.523   8.759
 1737POPC   C2B24572  43.791  43.636   8.364
 1737POPC   C3B24573  43.972  43.530   7.995
 1737POPC   C4B24574  44.038  43.732   7.620
 1738POPC   NC324575   4.737   5.275   9.573
 1738POPC   PO424576   5.060   4.707   9.595
 1738POPC   GL124577   5.272   4.906   9.206
 1738POPC   GL224578   5.126   5.220   9.218
 1738POPC   C1A24579   5.150   4.988   8.764
 1738POPC   D2A24580   5.202   5.373   8.486
 1738POPC   C3A24581   5.283   5.350   8.032
 1738POPC   C4A24582   5.107   5.061   7.722
 1738POPC   C1B24583   4.853   5.402   8.890
 1738POPC   C2B24584   4.714   5.568   8.436
 1738POPC   C3B24585   4.766   5.345   8.021
 1738POPC   C4B24586   4.843   5.437   7.549
 1739POPC   NC324587  19.288  12.989   9.525
 1739POPC   PO424588  18.832  12.593   9.551
 1739POPC   GL124589  19.060  12.678   9.203
 1739POPC   GL224590  19.347  12.499   9.312
 1739POPC   C1A24591  19.082  13.007   8.873
 1739POPC   D2A24592  18.987  12.913   8.427
 1739POPC   C3A24593  18.844  13.159   8.085
 1739POPC   C4A24594  19.125  13.046   7.768
 1739POPC   C1B24595  19.422  12.581   8.877
 1739POPC   C2B24596  19.360  12.497   8.459
 1739POPC   C3B24597  19.298  12.669   8.072
 1739POPC   C4B24598  19.310  12.555   7.648
 1740POPC   NC324599  17.368  21.849   9.735
 1740POPC   PO424600  17.631  22.451   9.547
 1740POPC   GL124601  17.578  22.469   9.136
 1740POPC   GL224602  17.228  22.524   9.135
 1740POPC   C1A24603  17.785  22.259   8.777
 1740POPC   D2A24604  17.549  22.054   8.428
 1740POPC   C3A24605  17.800  22.070   8.049
 1740POPC   C4A24606  17.788  22.350   7.722
 1740POPC   C1B24607  16.993  22.536   8.768
 1740POPC   C2B24608  17.079  22.345   8.378
 1740POPC   C3B24609  17.368  22.370   8.032
 1740POPC   C4B24610  17.238  22.424   7.611
 1741POPC   NC324611   2.418   5.413   9.546
 1741POPC   PO424612   2.270   6.097   9.536
 1741POPC   GL124613   2.130   5.745   9.199
 1741POPC   GL224614   1.853   5.970   9.023
 1741POPC   C1A24615   2.212   5.747   8.755
 1741POPC   D2A24616   2.077   6.072   8.456
 1741POPC   C3A24617   1.898   5.933   8.067
 1741POPC   C4A24618   2.039   5.781   7.671
 1741POPC   C1B24619   1.667   5.615   8.814
 1741POPC   C2B24620   1.584   5.584   8.365
 1741POPC   C3B24621   1.613   5.526   7.898
 1741POPC   C4B24622   1.616   5.596   7.453
 1742POPC   NC324623   1.546  20.903   9.482
 1742POPC   PO424624   1.555  20.179   9.477
 1742POPC   GL124625   1.383  20.252   9.068
 1742POPC   GL224626   1.257  20.582   9.143
 1742POPC   C1A24627   1.279  20.380   8.642
 1742POPC   D2A24628   1.514  20.738   8.411
 1742POPC   C3A24629   1.393  20.710   8.003
 1742POPC   C4A24630   1.249  20.755   7.616
 1742POPC   C1B24631   0.986  20.761   8.820
 1742POPC   C2B24632   1.012  20.742   8.364
 1742POPC   C3B24633   0.863  20.857   7.946
 1742POPC   C4B24634   0.524  21.034   7.670
 1743POPC   NC324635   6.947  19.522   9.460
 1743POPC   PO424636   6.935  20.198   9.382
 1743POPC   GL124637   6.660  20.054   9.056
 1743POPC   GL224638   6.491  19.714   9.166
 1743POPC   C1A24639   6.799  19.893   8.640
 1743POPC   D2A24640   6.630  19.618   8.299
 1743POPC   C3A24641   6.855  19.737   7.903
 1743POPC   C4A24642   6.807  20.184   7.698
 1743POPC   C1B24643   6.323  19.787   8.759
 1743POPC   C2B24644   6.374  20.111   8.421
 1743POPC   C3B24645   6.429  20.002   8.000
 1743POPC   C4B24646   6.359  19.607   7.833
 1744POPC   NC324647  13.977  44.788   9.510
 1744POPC   PO424648  13.447  44.407   9.435
 1744POPC   GL124649  13.675  44.573   9.089
 1744POPC   GL224650  14.031  44.529   9.061
 1744POPC   C1A24651  13.694  44.769   8.665
 1744POPC   D2A24652  13.804  44.645   8.258
 1744POPC   C3A24653  13.521  44.592   7.973
 1744POPC   C4A24654  13.521  44.328   7.630
 1744POPC   C1B24655  14.128  44.950   8.866
 1744POPC   C2B24656  14.052   0.108   8.445
 1744POPC   C3B24657  14.196  44.922   8.056
 1744POPC   C4B24658  14.000  44.621   7.745
 1745POPC   NC324659   3.219  17.978   9.402
 1745POPC   PO424660   3.567  18.610   9.458
 1745POPC   GL124661   3.526  18.342   9.141
 1745POPC   GL224662   3.184  18.405   9.111
 1745POPC   C1A24663   3.617  18.195   8.728
 1745POPC   D2A24664   3.361  18.271   8.356
 1745POPC   C3A24665   3.530  18.014   8.036
 1745POPC   C4A24666   3.905  18.064   7.772
 1745POPC   C1B24667   3.381  18.645   8.747
 1745POPC   C2B24668   3.726  18.617   8.423
 1745POPC   C3B24669   3.684  18.493   7.997
 1745POPC   C4B24670   3.267  18.535   7.781
 1746POPC   NC324671  42.196  33.779   9.661
 1746POPC   PO424672  42.808  34.051   9.421
 1746POPC   GL124673  42.363  34.001   9.222
 1746POPC   GL224674  42.364  33.621   9.193
 1746POPC   C1A24675  42.046  33.820   8.872
 1746POPC   D2A24676  41.933  33.588   8.452
 1746POPC   C3A24677  42.088  33.740   8.019
 1746POPC   C4A24678  42.105  33.672   7.546
 1746POPC   C1B24679  42.564  33.802   8.808
 1746POPC   C2B24680  42.787  33.854   8.442
 1746POPC   C3B24681  42.771  33.655   8.071
 1746POPC   C4B24682  42.547  33.739   7.752
 1747POPC   NC324683  21.530   7.032   9.737
 1747POPC   PO424684  22.163   6.821   9.477
 1747POPC   GL124685  22.202   6.564   9.116
 1747POPC   GL224686  21.916   6.403   9.153
 1747POPC   C1A24687  22.209   6.539   8.660
 1747POPC   D2A24688  22.073   6.797   8.294
 1747POPC   C3A24689  22.402   6.855   8.000
 1747POPC   C4A24690  22.580   6.450   7.871
 1747POPC   C1B24691  21.764   6.293   8.746
 1747POPC   C2B24692  21.759   6.363   8.311
 1747POPC   C3B24693  22.018   6.348   7.964
 1747POPC   C4B24694  22.049   6.657   7.686
 1748POPC   NC324695  27.622  17.337   9.552
 1748POPC   PO424696  27.328  17.929   9.470
 1748POPC   GL124697  27.646  17.693   9.164
 1748POPC   GL224698  27.572  17.316   9.050
 1748POPC   C1A24699  27.867  17.640   8.760
 1748POPC   D2A24700  28.023  17.664   8.321
 1748POPC   C3A24701  27.725  17.619   7.972
 1748POPC   C4A24702  27.293  17.762   7.822
 1748POPC   C1B24703  27.826  17.110   8.734
 1748POPC   C2B24704  27.819  17.185   8.312
 1748POPC   C3B24705  27.759  17.037   7.911
 1748POPC   C4B24706  27.440  17.267   7.730
 1749POPC   NC324707  25.097  44.158   9.385
 1749POPC   PO424708  25.369  43.531   9.589
 1749POPC   GL124709  25.402  43.766   9.251
 1749POPC   GL224710  25.629  44.064   9.360
 1749POPC   C1A24711  25.120  43.774   8.866
 1749POPC   D2A24712  24.980  43.833   8.451
 1749POPC   C3A24713  24.929  43.557   8.114
 1749POPC   C4A24714  25.006  43.813   7.765
 1749POPC   C1B24715  25.663  44.008   8.908
 1749POPC   C2B24716  25.475  44.006   8.520
 1749POPC   C3B24717  25.312  44.030   8.113
 1749POPC   C4B24718  25.491  44.085   7.712
 1750POPC   NC324719   8.717  43.112   9.601
 1750POPC   PO424720   9.211  43.552   9.613
 1750POPC   GL124721   9.055  43.336   9.241
 1750POPC   GL224722   8.702  43.469   9.215
 1750POPC   C1A24723   9.051  43.079   8.850
 1750POPC   D2A24724   8.826  42.961   8.462
 1750POPC   C3A24725   9.017  43.065   8.087
 1750POPC   C4A24726   9.156  42.958   7.717
 1750POPC   C1B24727   8.574  43.293   8.797
 1750POPC   C2B24728   8.467  43.365   8.384
 1750POPC   C3B24729   8.504  43.121   8.020
 1750POPC   C4B24730   8.704  43.136   7.607
 1751POPC   NC324731  22.779   5.480   9.571
 1751POPC   PO424732  23.140   4.804   9.633
 1751POPC   GL124733  23.027   5.101   9.298
 1751POPC   GL224734  22.682   5.189   9.154
 1751POPC   C1A24735  23.118   5.137   8.876
 1751POPC   D2A24736  22.734   5.153   8.620
 1751POPC   C3A24737  22.832   5.174   8.219
 1751POPC   C4A24738  22.736   5.056   7.805
 1751POPC   C1B24739  22.503   5.525   8.868
 1751POPC   C2B24740  22.572   5.640   8.410
 1751POPC   C3B24741  22.696   5.588   7.981
 1751POPC   C4B24742  22.753   5.492   7.562
 1752POPC   NC324743  16.603  32.941   9.616
 1752POPC   PO424744  17.239  33.114   9.646
 1752POPC   GL124745  17.019  32.913   9.250
 1752POPC   GL224746  16.629  32.961   9.127
 1752POPC   C1A24747  17.007  32.982   8.791
 1752POPC   D2A24748  16.737  32.902   8.476
 1752POPC   C3A24749  16.750  32.722   8.072
 1752POPC   C4A24750  16.852  32.831   7.631
 1752POPC   C1B24751  16.579  33.305   8.870
 1752POPC   C2B24752  16.672  33.419   8.477
 1752POPC   C3B24753  16.679  33.246   8.090
 1752POPC   C4B24754  16.560  33.244   7.695
 1753POPC   NC324755   8.121  10.657   9.317
 1753POPC   PO424756   8.476  10.210   9.683
 1753POPC   GL124757   8.552  10.400   9.238
 1753POPC   GL224758   8.682  10.178   9.042
 1753POPC   C1A24759   8.455  10.632   8.800
 1753POPC   D2A24760   8.186  10.719   8.414
 1753POPC   C3A24761   8.014  10.445   8.171
 1753POPC   C4A24762   8.043  10.597   7.771
 1753POPC   C1B24763   8.645  10.196   8.643
 1753POPC   C2B24764   8.596  10.428   8.345
 1753POPC   C3B24765   8.483  10.499   7.987
 1753POPC   C4B24766   8.298  10.160   7.810
 1754POPC   NC324767  37.427  25.734   9.474
 1754POPC   PO424768  37.849  26.216   9.451
 1754POPC   GL124769  37.692  26.090   9.067
 1754POPC   GL224770  37.381  26.289   9.026
 1754POPC   C1A24771  37.919  26.094   8.658
 1754POPC   D2A24772  38.035  26.109   8.227
 1754POPC   C3A24773  37.850  25.918   7.916
 1754POPC   C4A24774  37.587  25.825   7.632
 1754POPC   C1B24775  37.377  26.097   8.661
 1754POPC   C2B24776  37.564  25.883   8.350
 1754POPC   C3B24777  37.404  26.091   8.038
 1754POPC   C4B24778  37.202  26.156   7.641
 1755POPC   NC324779  11.286  27.387   9.655
 1755POPC   PO424780  11.802  27.343   9.360
 1755POPC   GL124781  11.441  27.478   9.089
 1755POPC   GL224782  11.122  27.421   9.161
 1755POPC   C1A24783  11.178  27.700   8.740
 1755POPC   D2A24784  11.236  27.546   8.314
 1755POPC   C3A24785  11.496  27.677   8.011
 1755POPC   C4A24786  11.336  27.959   7.725
 1755POPC   C1B24787  10.874  27.301   8.813
 1755POPC   C2B24788  10.771  27.488   8.469
 1755POPC   C3B24789  10.798  27.346   8.093
 1755POPC   C4B24790  11.027  27.554   7.808
 1756POPC   NC324791   1.088  24.237   9.581
 1756POPC   PO424792   1.145  24.938   9.491
 1756POPC   GL124793   1.193  24.531   9.189
 1756POPC   GL224794   1.400  24.218   9.166
 1756POPC   C1A24795   0.996  24.352   8.834
 1756POPC   D2A24796   0.939  24.522   8.438
 1756POPC   C3A24797   1.150  24.327   8.114
 1756POPC   C4A24798   1.029  24.365   7.716
 1756POPC   C1B24799   1.495  24.361   8.746
 1756POPC   C2B24800   1.625  24.418   8.347
 1756POPC   C3B24801   1.613  24.329   7.927
 1756POPC   C4B24802   1.436  24.021   7.683
 1757POPC   NC324803  30.927  33.187   9.620
 1757POPC   PO424804  30.292  33.000   9.585
 1757POPC   GL124805  30.567  32.895   9.213
 1757POPC   GL224806  30.779  33.129   9.119
 1757POPC   C1A24807  30.746  32.773   8.763
 1757POPC   D2A24808  30.940  32.787   8.335
 1757POPC   C3A24809  30.692  32.744   7.943
 1757POPC   C4A24810  30.362  32.765   7.611
 1757POPC   C1B24811  30.641  33.274   8.675
 1757POPC   C2B24812  30.605  33.236   8.202
 1757POPC   C3B24813  30.591  33.246   7.741
 1757POPC   C4B24814  30.939  33.335   7.439
 1758POPC   NC324815  21.132  38.457   9.490
 1758POPC   PO424816  21.710  38.290   9.497
 1758POPC   GL124817  21.517  38.525   9.122
 1758POPC   GL224818  21.149  38.632   9.013
 1758POPC   C1A24819  21.623  38.414   8.687
 1758POPC   D2A24820  21.476  38.361   8.246
 1758POPC   C3A24821  21.730  38.427   7.870
 1758POPC   C4A24822  21.562  38.313   7.429
 1758POPC   C1B24823  21.163  38.599   8.575
 1758POPC   C2B24824  21.286  38.875   8.247
 1758POPC   C3B24825  21.335  38.741   7.850
 1758POPC   C4B24826  21.357  38.772   7.403
 1759POPC   NC324827  32.853  40.404   9.504
 1759POPC   PO424828  32.593  39.732   9.522
 1759POPC   GL124829  32.951  39.927   9.303
 1759POPC   GL224830  33.061  39.675   9.081
 1759POPC   C1A24831  32.978  40.139   8.874
 1759POPC   D2A24832  32.913  39.931   8.431
 1759POPC   C3A24833  33.167  40.095   8.039
 1759POPC   C4A24834  32.992  40.242   7.643
 1759POPC   C1B24835  33.306  39.771   8.772
 1759POPC   C2B24836  33.370  39.725   8.383
 1759POPC   C3B24837  33.227  39.593   8.017
 1759POPC   C4B24838  33.300  39.769   7.635
 1760POPC   NC324839   0.455  11.406   9.607
 1760POPC   PO424840   0.300  10.807   9.503
 1760POPC   GL124841   0.579  11.030   9.164
 1760POPC   GL224842   0.575  11.379   9.122
 1760POPC   C1A24843   0.754  11.112   8.754
 1760POPC   D2A24844   0.514  11.363   8.472
 1760POPC   C3A24845   0.586  11.355   8.041
 1760POPC   C4A24846   0.417  10.999   7.834
 1760POPC   C1B24847   0.803  11.624   8.844
 1760POPC   C2B24848   0.923  11.656   8.431
 1760POPC   C3B24849   0.855  11.814   8.020
 1760POPC   C4B24850   0.521  11.800   7.730
 1761POPC   NC324851   2.780  19.551   9.429
 1761POPC   PO424852   2.550  20.270   9.450
 1761POPC   GL124853   2.711  20.098   9.095
 1761POPC   GL224854   2.489  19.822   9.097
 1761POPC   C1A24855   2.950  19.932   8.729
 1761POPC   D2A24856   2.766  19.885   8.335
 1761POPC   C3A24857   2.948  19.968   7.930
 1761POPC   C4A24858   2.996  19.554   7.699
 1761POPC   C1B24859   2.402  20.063   8.714
 1761POPC   C2B24860   2.245  20.018   8.335
 1761POPC   C3B24861   2.422  19.901   7.959
 1761POPC   C4B24862   2.602  19.885   7.567
 1762POPC   NC324863  13.463  43.955   9.542
 1762POPC   PO424864  14.132  44.255   9.513
 1762POPC   GL124865  13.800  44.069   9.169
 1762POPC   GL224866  13.407  44.111   9.036
 1762POPC   C1A24867  13.661  43.722   8.876
 1762POPC   D2A24868  13.437  43.804   8.516
 1762POPC   C3A24869  13.644  43.766   8.129
 1762POPC   C4A24870  13.541  43.837   7.720
 1762POPC   C1B24871  13.724  44.234   8.704
 1762POPC   C2B24872  14.012  44.138   8.377
 1762POPC   C3B24873  13.947  44.138   7.931
 1762POPC   C4B24874  13.958  44.060   7.491
 1763POPC   NC324875  41.212  21.850   9.451
 1763POPC   PO424876  40.994  22.448   9.476
 1763POPC   GL124877  40.804  22.272   9.158
 1763POPC   GL224878  40.716  21.939   9.226
 1763POPC   C1A24879  40.946  22.123   8.798
 1763POPC   D2A24880  40.764  21.934   8.485
 1763POPC   C3A24881  40.944  22.044   8.169
 1763POPC   C4A24882  40.764  22.176   7.843
 1763POPC   C1B24883  40.514  21.693   8.878
 1763POPC   C2B24884  40.381  21.619   8.434
 1763POPC   C3B24885  40.402  21.880   8.077
 1763POPC   C4B24886  40.406  21.819   7.629
 1764POPC   NC324887   4.866   0.611   9.480
 1764POPC   PO424888   5.233   0.068   9.503
 1764POPC   GL124889   5.250   0.412   9.183
 1764POPC   GL224890   5.530   0.663   9.184
 1764POPC   C1A24891   5.028   0.427   8.785
 1764POPC   D2A24892   5.089   0.161   8.403
 1764POPC   C3A24893   5.077   0.302   7.968
 1764POPC   C4A24894   4.899   0.276   7.536
 1764POPC   C1B24895   5.439   0.726   8.733
 1764POPC   C2B24896   5.172   0.704   8.358
 1764POPC   C3B24897   5.231   0.786   7.924
 1764POPC   C4B24898   5.057   0.756   7.523
 1765POPC   NC324899  43.243   2.541   9.560
 1765POPC   PO424900  42.786   3.000   9.592
 1765POPC   GL124901  43.040   2.909   9.243
 1765POPC   GL224902  42.839   2.604   9.219
 1765POPC   C1A24903  43.211   2.823   8.819
 1765POPC   D2A24904  43.028   3.030   8.417
 1765POPC   C3A24905  43.282   3.096   8.043
 1765POPC   C4A24906  43.579   2.874   7.820
 1765POPC   C1B24907  42.698   2.764   8.821
 1765POPC   C2B24908  42.918   2.534   8.495
 1765POPC   C3B24909  43.158   2.608   8.138
 1765POPC   C4B24910  43.241   2.463   7.743
 1766POPC   NC324911  44.994   5.807   9.719
 1766POPC   PO424912   0.611   6.093   9.562
 1766POPC   GL124913   0.445   6.010   9.170
 1766POPC   GL224914   0.133   6.088   9.188
 1766POPC   C1A24915   0.617   5.859   8.779
 1766POPC   D2A24916   0.577   5.571   8.433
 1766POPC   C3A24917   0.745   5.723   8.062
 1766POPC   C4A24918   0.555   5.806   7.686
 1766POPC   C1B24919   0.096   5.995   8.758
 1766POPC   C2B24920   0.083   5.727   8.386
 1766POPC   C3B24921   0.176   5.624   7.952
 1766POPC   C4B24922   0.031   5.748   7.499
 1767POPC   NC324923  10.440  15.458   9.649
 1767POPC   PO424924  10.703  14.870   9.609
 1767POPC   GL124925  10.631  15.194   9.242
 1767POPC   GL224926  10.333  15.472   9.163
 1767POPC   C1A24927  10.662  15.301   8.813
 1767POPC   D2A24928  10.547  15.137   8.435
 1767POPC   C3A24929  10.760  15.211   8.056
 1767POPC   C4A24930  10.586  14.958   7.737
 1767POPC   C1B24931  10.144  15.267   8.818
 1767POPC   C2B24932  10.106  15.428   8.420
 1767POPC   C3B24933  10.256  15.311   8.016
 1767POPC   C4B24934  10.476  15.502   7.703
 1768POPC   NC324935  28.263  11.102   9.494
 1768POPC   PO424936  28.539  11.679   9.285
 1768POPC   GL124937  28.525  11.267   9.064
 1768POPC   GL224938  28.187  11.349   9.033
 1768POPC   C1A24939  28.349  11.053   8.674
 1768POPC   D2A24940  28.252  10.851   8.295
 1768POPC   C3A24941  28.566  10.975   8.055
 1768POPC   C4A24942  28.586  11.222   7.759
 1768POPC   C1B24943  28.452  11.561   8.664
 1768POPC   C2B24944  28.506  11.425   8.279
 1768POPC   C3B24945  28.163  11.301   8.047
 1768POPC   C4B24946  28.174  11.545   7.723
 1769POPC   NC324947  29.556  16.908   9.636
 1769POPC   PO424948  30.186  16.660   9.738
 1769POPC   GL124949  29.912  16.560   9.339
 1769POPC   GL224950  29.809  16.855   9.178
 1769POPC   C1A24951  29.854  16.497   8.839
 1769POPC   D2A24952  30.010  16.401   8.420
 1769POPC   C3A24953  30.110  16.724   8.134
 1769POPC   C4A24954  30.260  16.534   7.768
 1769POPC   C1B24955  29.638  17.004   8.784
 1769POPC   C2B24956  29.651  16.903   8.348
 1769POPC   C3B24957  29.561  16.994   7.928
 1769POPC   C4B24958  29.901  16.894   7.678
 1770POPC   NC324959  44.332   3.967   9.864
 1770POPC   PO424960  44.007   4.330   9.413
 1770POPC   GL124961  43.944   4.461   9.050
 1770POPC   GL224962  43.609   4.508   9.093
 1770POPC   C1A24963  43.852   4.162   8.740
 1770POPC   D2A24964  44.086   3.964   8.395
 1770POPC   C3A24965  44.202   4.272   8.090
 1770POPC   C4A24966  44.179   4.410   7.680
 1770POPC   C1B24967  43.696   4.663   8.669
 1770POPC   C2B24968  43.776   4.438   8.314
 1770POPC   C3B24969  43.740   4.510   7.930
 1770POPC   C4B24970  43.707   4.396   7.527
 1771POPC   NC324971  19.294  17.199   9.522
 1771POPC   PO424972  18.849  17.670   9.757
 1771POPC   GL124973  18.958  17.555   9.293
 1771POPC   GL224974  18.901  17.211   9.152
 1771POPC   C1A24975  19.187  17.521   8.866
 1771POPC   D2A24976  19.006  17.605   8.462
 1771POPC   C3A24977  19.059  17.480   8.068
 1771POPC   C4A24978  19.213  17.833   7.845
 1771POPC   C1B24979  18.890  17.021   8.727
 1771POPC   C2B24980  19.009  16.959   8.296
 1771POPC   C3B24981  18.910  17.036   7.849
 1771POPC   C4B24982  18.937  17.362   7.566
 1772POPC   NC324983  31.105   7.199   9.295
 1772POPC   PO424984  30.562   7.245   9.755
 1772POPC   GL124985  30.715   7.480   9.261
 1772POPC   GL224986  30.671   7.206   9.009
 1772POPC   C1A24987  30.651   7.667   8.812
 1772POPC   D2A24988  30.484   7.704   8.356
 1772POPC   C3A24989  30.638   7.545   7.924
 1772POPC   C4A24990  31.014   7.338   7.767
 1772POPC   C1B24991  30.540   6.999   8.634
 1772POPC   C2B24992  30.487   7.180   8.239
 1772POPC   C3B24993  30.592   7.016   7.818
 1772POPC   C4B24994  30.541   7.203   7.398
 1773POPC   NC324995  32.314  44.281   9.354
 1773POPC   PO424996  31.846  44.673   9.634
 1773POPC   GL124997  32.110  44.790   9.255
 1773POPC   GL224998  31.791  44.719   9.087
 1773POPC   C1A24999  32.466  44.873   8.885
 1773POPC   D2A25000  32.383  44.871   8.396
 1773POPC   C3A25001  32.481  44.894   7.951
 1773POPC   C4A25002  32.038  44.917   7.804
 1773POPC   C1B25003  31.993  44.864   8.742
 1773POPC   C2B25004  32.051  44.490   8.453
 1773POPC   C3B25005  32.227  44.475   8.056
 1773POPC   C4B25006  32.100  44.442   7.654
 1774POPC   NC325007  11.324  44.421   9.625
 1774POPC   PO425008  11.499   0.058   9.687
 1774POPC   GL125009  11.423  44.828   9.239
 1774POPC   GL225010  11.420  44.489   9.133
 1774POPC   C1A25011  11.584  44.799   8.771
 1774POPC   D2A25012  11.541  44.495   8.418
 1774POPC   C3A25013  11.366  44.656   8.050
 1774POPC   C4A25014  11.141   0.019   7.966
 1774POPC   C1B25015  11.125  44.611   8.823
 1774POPC   C2B25016  10.996  44.729   8.421
 1774POPC   C3B25017  10.856  44.580   8.045
 1774POPC   C4B25018  11.031  44.400   7.661
 1775POPC   NC325019  44.168  28.348   9.567
 1775POPC   PO425020  43.709  27.897   9.755
 1775POPC   GL125021  43.858  28.047   9.301
 1775POPC   GL225022  43.836  28.436   9.188
 1775POPC   C1A25023  44.057  28.048   8.884
 1775POPC   D2A25024  43.975  27.954   8.443
 1775POPC   C3A25025  44.020  28.221   8.119
 1775POPC   C4A25026  43.700  28.447   7.978
 1775POPC   C1B25027  44.117  28.594   8.844
 1775POPC   C2B25028  44.298  28.552   8.406
 1775POPC   C3B25029  44.156  28.691   7.998
 1775POPC   C4B25030  44.084  28.906   7.636
 1776POPC   NC325031   6.424   0.778   9.649
 1776POPC   PO425032   6.769   0.235   9.412
 1776POPC   GL125033   6.724   0.616   9.234
 1776POPC   GL225034   6.383   0.658   9.104
 1776POPC   C1A25035   6.815   0.656   8.811
 1776POPC   D2A25036   6.956   0.408   8.476
 1776POPC   C3A25037   6.825   0.578   8.086
 1776POPC   C4A25038   6.817   0.483   7.683
 1776POPC   C1B25039   6.370   0.412   8.701
 1776POPC   C2B25040   6.475   0.252   8.286
 1776POPC   C3B25041   6.392   0.251   7.828
 1776POPC   C4B25042   6.369   0.496   7.405
 1777POPC   NC325043   8.274   4.753   9.527
 1777POPC   PO425044   8.302   4.129   9.355
 1777POPC   GL125045   8.289   4.467   9.086
 1777POPC   GL225046   7.938   4.561   9.175
 1777POPC   C1A25047   8.327   4.356   8.648
 1777POPC   D2A25048   8.073   4.029   8.428
 1777POPC   C3A25049   8.061   4.093   7.991
 1777POPC   C4A25050   8.419   4.250   7.763
 1777POPC   C1B25051   7.824   4.439   8.756
 1777POPC   C2B25052   7.959   4.567   8.345
 1777POPC   C3B25053   7.874   4.557   7.918
 1777POPC   C4B25054   8.161   4.685   7.627
 1778POPC   NC325055  17.331  19.471   9.579
 1778POPC   PO425056  17.720  19.978   9.513
 1778POPC   GL125057  17.695  19.616   9.223
 1778POPC   GL225058  17.374  19.756   9.108
 1778POPC   C1A25059  17.621  19.381   8.827
 1778POPC   D2A25060  17.499  19.527   8.434
 1778POPC   C3A25061  17.451  19.325   8.052
 1778POPC   C4A25062  17.721  19.315   7.709
 1778POPC   C1B25063  17.635  19.898   8.756
 1778POPC   C2B25064  17.554  20.013   8.318
 1778POPC   C3B25065  17.606  19.788   7.891
 1778POPC   C4B25066  17.795  20.019   7.516
 1779POPC   NC325067  19.854  19.631   9.515
 1779POPC   PO425068  20.031  18.994   9.602
 1779POPC   GL125069  19.838  19.151   9.219
 1779POPC   GL225070  19.492  19.074   9.175
 1779POPC   C1A25071  19.846  18.967   8.790
 1779POPC   D2A25072  19.732  18.778   8.398
 1779POPC   C3A25073  19.927  18.970   8.007
 1779POPC   C4A25074  19.920  18.845   7.581
 1779POPC   C1B25075  19.484  19.325   8.790
 1779POPC   C2B25076  19.583  19.266   8.324
 1779POPC   C3B25077  19.516  19.331   7.872
 1779POPC   C4B25078  19.564  19.196   7.433
 1780POPC   NC325079   3.005   4.500   9.513
 1780POPC   PO425080   2.743   3.927   9.540
 1780POPC   GL125081   2.768   4.163   9.203
 1780POPC   GL225082   2.530   4.481   9.231
 1780POPC   C1A25083   3.047   4.112   8.838
 1780POPC   D2A25084   2.899   3.956   8.454
 1780POPC   C3A25085   2.956   4.151   8.075
 1780POPC   C4A25086   2.667   4.064   7.760
 1780POPC   C1B25087   2.646   4.407   8.794
 1780POPC   C2B25088   2.855   4.479   8.459
 1780POPC   C3B25089   2.648   4.537   8.089
 1780POPC   C4B25090   2.862   4.579   7.699
 1781POPC   NC325091  36.447   0.413   9.413
 1781POPC   PO425092  35.768   0.488   9.438
 1781POPC   GL125093  36.051   0.490   9.111
 1781POPC   GL225094  35.831   0.594   8.862
 1781POPC   C1A25095  36.233   0.283   8.756
 1781POPC   D2A25096  35.919   0.306   8.430
 1781POPC   C3A25097  36.137   0.499   8.120
 1781POPC   C4A25098  36.480   0.304   7.846
 1781POPC   C1B25099  36.242   0.784   8.682
 1781POPC   C2B25100  36.445   0.914   8.282
 1781POPC   C3B25101  36.381   0.811   7.801
 1781POPC   C4B25102  35.953   0.633   7.668
 1782POPC   NC325103  31.957   6.847   9.474
 1782POPC   PO425104  32.529   6.559   9.564
 1782POPC   GL125105  32.399   6.745   9.188
 1782POPC   GL225106  32.147   6.486   9.142
 1782POPC   C1A25107  32.236   6.802   8.757
 1782POPC   D2A25108  32.327   6.927   8.351
 1782POPC   C3A25109  32.102   6.803   8.001
 1782POPC   C4A25110  32.358   6.620   7.726
 1782POPC   C1B25111  32.212   6.283   8.717
 1782POPC   C2B25112  32.218   6.380   8.270
 1782POPC   C3B25113  31.955   6.307   7.899
 1782POPC   C4B25114  32.078   6.285   7.457
 1783POPC   NC325115   8.788  42.454   9.493
 1783POPC   PO425116   9.142  42.936   9.548
 1783POPC   GL125117   9.183  42.603   9.166
 1783POPC   GL225118   8.882  42.409   8.997
 1783POPC   C1A25119   9.318  42.390   8.747
 1783POPC   D2A25120   9.010  42.354   8.453
 1783POPC   C3A25121   9.051  42.527   8.059
 1783POPC   C4A25122   8.729  42.692   7.860
 1783POPC   C1B25123   9.000  41.964   8.872
 1783POPC   C2B25124   9.121  41.820   8.470
 1783POPC   C3B25125   9.007  41.994   8.085
 1783POPC   C4B25126   8.857  42.203   7.710
 1784POPC   NC325127  17.869  23.706   9.332
 1784POPC   PO425128  17.310  24.027   9.688
 1784POPC   GL125129  17.224  23.822   9.237
 1784POPC   GL225130  17.400  23.511   9.264
 1784POPC   C1A25131  17.379  23.878   8.755
 1784POPC   D2A25132  17.742  23.733   8.540
 1784POPC   C3A25133  17.660  23.664   8.120
 1784POPC   C4A25134  17.743  23.961   7.746
 1784POPC   C1B25135  17.499  23.364   8.854
 1784POPC   C2B25136  17.294  23.389   8.446
 1784POPC   C3B25137  17.306  23.230   8.010
 1784POPC   C4B25138  17.703  23.265   7.815
 1785POPC   NC325139  41.271  28.319   9.934
 1785POPC   PO425140  41.738  28.537   9.579
 1785POPC   GL125141  41.519  28.651   9.169
 1785POPC   GL225142  41.835  28.796   9.114
 1785POPC   C1A25143  41.283  28.629   8.733
 1785POPC   D2A25144  41.114  28.668   8.274
 1785POPC   C3A25145  41.342  28.493   7.891
 1785POPC   C4A25146  41.557  28.100   7.897
 1785POPC   C1B25147  41.810  28.569   8.742
 1785POPC   C2B25148  41.603  28.478   8.359
 1785POPC   C3B25149  41.828  28.583   8.034
 1785POPC   C4B25150  41.744  28.758   7.661
 1786POPC   NC325151  16.090   9.352   9.504
 1786POPC   PO425152  15.714   9.945   9.571
 1786POPC   GL125153  15.830   9.781   9.220
 1786POPC   GL225154  16.186   9.748   9.164
 1786POPC   C1A25155  15.784   9.895   8.835
 1786POPC   D2A25156  15.853   9.605   8.509
 1786POPC   C3A25157  15.640   9.591   8.114
 1786POPC   C4A25158  15.597   9.912   7.782
 1786POPC   C1B25159  16.287   9.908   8.759
 1786POPC   C2B25160  16.338   9.696   8.384
 1786POPC   C3B25161  16.163   9.671   7.997
 1786POPC   C4B25162  16.154   9.477   7.616
 1787POPC   NC325163  12.802  35.281   9.601
 1787POPC   PO425164  12.842  35.891   9.476
 1787POPC   GL125165  12.989  35.491   9.179
 1787POPC   GL225166  12.726  35.208   9.110
 1787POPC   C1A25167  13.088  35.269   8.760
 1787POPC   D2A25168  12.949  35.127   8.345
 1787POPC   C3A25169  13.125  35.358   7.992
 1787POPC   C4A25170  13.206  35.366   7.558
 1787POPC   C1B25171  12.600  35.475   8.783
 1787POPC   C2B25172  12.514  35.376   8.375
 1787POPC   C3B25173  12.625  35.390   7.991
 1787POPC   C4B25174  12.763  35.588   7.635
 1788POPC   NC325175  33.556  13.958   9.257
 1788POPC   PO425176  34.105  13.674   9.409
 1788POPC   GL125177  33.830  13.562   9.118
 1788POPC   GL225178  33.574  13.272   9.201
 1788POPC   C1A25179  33.859  13.755   8.713
 1788POPC   D2A25180  33.923  13.555   8.348
 1788POPC   C3A25181  33.759  13.815   8.030
 1788POPC   C4A25182  33.958  13.924   7.686
 1788POPC   C1B25183  33.512  13.369   8.785
 1788POPC   C2B25184  33.422  13.594   8.427
 1788POPC   C3B25185  33.514  13.384   8.067
 1788POPC   C4B25186  33.672  13.423   7.664
 1789POPC   NC325187  14.875   6.834   9.612
 1789POPC   PO425188  15.498   6.791   9.415
 1789POPC   GL125189  15.344   6.637   9.124
 1789POPC   GL225190  15.065   6.441   9.265
 1789POPC   C1A25191  15.337   6.878   8.761
 1789POPC   D2A25192  15.119   6.903   8.403
 1789POPC   C3A25193  15.381   6.999   8.080
 1789POPC   C4A25194  15.247   6.874   7.710
 1789POPC   C1B25195  14.993   6.500   8.805
 1789POPC   C2B25196  15.272   6.413   8.464
 1789POPC   C3B25197  15.152   6.492   8.036
 1789POPC   C4B25198  15.002   6.319   7.642
 1790POPC   NC325199   0.297   6.449   9.496
 1790POPC   PO425200   0.861   6.875   9.560
 1790POPC   GL125201   0.627   6.794   9.217
 1790POPC   GL225202   0.673   6.468   9.169
 1790POPC   C1A25203   0.458   6.876   8.815
 1790POPC   D2A25204   0.239   6.762   8.418
 1790POPC   C3A25205   0.414   6.919   8.038
 1790POPC   C4A25206   0.576   6.812   7.650
 1790POPC   C1B25207   0.442   6.373   8.811
 1790POPC   C2B25208   0.456   6.193   8.414
 1790POPC   C3B25209   0.315   6.369   8.065
 1790POPC   C4B25210   0.458   6.307   7.658
 1791POPC   NC325211  13.648  16.970   9.759
 1791POPC   PO425212  13.900  17.516   9.522
 1791POPC   GL125213  13.624  17.555   9.105
 1791POPC   GL225214  13.268  17.577   9.184
 1791POPC   C1A25215  13.645  17.513   8.629
 1791POPC   D2A25216  13.700  17.773   8.214
 1791POPC   C3A25217  13.824  17.570   7.824
 1791POPC   C4A25218  13.927  17.750   7.427
 1791POPC   C1B25219  13.142  17.467   8.784
 1791POPC   C2B25220  13.214  17.644   8.359
 1791POPC   C3B25221  13.304  17.567   7.904
 1791POPC   C4B25222  13.451  17.508   7.463
 1792POPC   NC325223  26.016  27.985   9.551
 1792POPC   PO425224  26.168  28.591   9.408
 1792POPC   GL125225  26.415  28.333   9.159
 1792POPC   GL225226  26.310  27.985   9.116
 1792POPC   C1A25227  26.433  28.497   8.743
 1792POPC   D2A25228  26.571  28.424   8.317
 1792POPC   C3A25229  26.458  28.673   7.960
 1792POPC   C4A25230  26.017  28.693   7.810
 1792POPC   C1B25231  26.036  28.139   8.798
 1792POPC   C2B25232  25.857  28.406   8.460
 1792POPC   C3B25233  25.737  28.327   8.030
 1792POPC   C4B25234  26.046  28.210   7.701
 1793POPC   NC325235  21.331  13.261   9.450
 1793POPC   PO425236  21.268  12.667   9.658
 1793POPC   GL125237  21.322  12.835   9.184
 1793POPC   GL225238  21.069  13.038   9.070
 1793POPC   C1A25239  21.272  12.737   8.720
 1793POPC   D2A25240  20.924  12.609   8.463
 1793POPC   C3A25241  21.075  12.497   8.067
 1793POPC   C4A25242  21.452  12.634   7.909
 1793POPC   C1B25243  21.336  13.247   8.728
 1793POPC   C2B25244  21.411  13.070   8.284
 1793POPC   C3B25245  21.295  13.102   7.844
 1793POPC   C4B25246  21.030  12.844   7.571
 1794POPC   NC325247  30.288  27.586   9.518
 1794POPC   PO425248  29.635  27.820   9.500
 1794POPC   GL125249  29.723  27.656   9.122
 1794POPC   GL225250  30.015  27.535   9.107
 1794POPC   C1A25251  29.709  27.478   8.707
 1794POPC   D2A25252  29.893  27.626   8.362
 1794POPC   C3A25253  29.705  27.636   7.970
 1794POPC   C4A25254  29.902  27.302   7.746
 1794POPC   C1B25255  30.182  27.823   8.792
 1794POPC   C2B25256  30.202  28.020   8.367
 1794POPC   C3B25257  30.182  27.812   7.959
 1794POPC   C4B25258  30.270  27.623   7.555
 1795POPC   NC325259  21.453   6.221   9.953
 1795POPC   PO425260  21.282   5.796   9.493
 1795POPC   GL125261  21.350   5.759   9.097
 1795POPC   GL225262  21.373   5.426   9.117
 1795POPC   C1A25263  21.385   5.948   8.704
 1795POPC   D2A25264  21.688   5.841   8.406
 1795POPC   C3A25265  21.653   5.960   7.982
 1795POPC   C4A25266  21.267   6.113   7.811
 1795POPC   C1B25267  21.146   5.489   8.703
 1795POPC   C2B25268  21.107   5.555   8.247
 1795POPC   C3B25269  21.300   5.590   7.834
 1795POPC   C4B25270  21.743   5.492   7.726
 1796POPC   NC325271  27.346  36.718   9.470
 1796POPC   PO425272  26.672  36.583   9.428
 1796POPC   GL125273  26.939  36.801   9.152
 1796POPC   GL225274  26.682  37.071   9.068
 1796POPC   C1A25275  27.165  36.717   8.766
 1796POPC   D2A25276  26.875  36.748   8.383
 1796POPC   C3A25277  26.966  36.723   7.920
 1796POPC   C4A25278  26.664  36.445   7.663
 1796POPC   C1B25279  26.998  37.181   8.787
 1796POPC   C2B25280  27.079  37.206   8.379
 1796POPC   C3B25281  26.777  37.202   8.055
 1796POPC   C4B25282  26.869  37.204   7.638
 1797POPC   NC325283   8.884  28.882   9.343
 1797POPC   PO425284   9.034  29.388   9.702
 1797POPC   GL125285   9.186  29.350   9.233
 1797POPC   GL225286   8.864  29.399   9.172
 1797POPC   C1A25287   9.264  29.155   8.781
 1797POPC   D2A25288   9.206  28.875   8.400
 1797POPC   C3A25289   8.927  28.925   8.043
 1797POPC   C4A25290   8.542  28.753   7.897
 1797POPC   C1B25291   8.963  29.554   8.763
 1797POPC   C2B25292   8.938  29.336   8.387
 1797POPC   C3B25293   9.101  29.403   8.004
 1797POPC   C4B25294   8.894  29.638   7.700
 1798POPC   NC325295  22.845  33.355   9.517
 1798POPC   PO425296  23.104  32.766   9.714
 1798POPC   GL125297  22.894  32.906   9.292
 1798POPC   GL225298  22.614  32.674   9.338
 1798POPC   C1A25299  22.922  33.094   8.825
 1798POPC   D2A25300  23.115  33.004   8.394
 1798POPC   C3A25301  23.034  33.247   7.997
 1798POPC   C4A25302  22.709  33.462   7.703
 1798POPC   C1B25303  22.659  32.654   8.904
 1798POPC   C2B25304  22.769  32.637   8.470
 1798POPC   C3B25305  22.705  32.854   8.057
 1798POPC   C4B25306  22.930  32.803   7.668
 1799POPC   NC325307  24.702  19.424   9.512
 1799POPC   PO425308  24.417  20.141   9.667
 1799POPC   GL125309  24.339  20.055   9.231
 1799POPC   GL225310  24.349  19.749   9.210
 1799POPC   C1A25311  24.461  20.009   8.778
 1799POPC   D2A25312  24.723  19.962   8.429
 1799POPC   C3A25313  24.505  20.003   8.041
 1799POPC   C4A25314  24.734  20.026   7.665
 1799POPC   C1B25315  24.150  19.619   8.829
 1799POPC   C2B25316  24.163  19.807   8.402
 1799POPC   C3B25317  24.119  19.648   7.978
 1799POPC   C4B25318  24.176  19.861   7.609
 1800POPC   NC325319  10.103  35.095   9.816
 1800POPC   PO425320  10.656  35.069   9.388
 1800POPC   GL125321  10.597  35.433   9.123
 1800POPC   GL225322  10.568  35.170   8.884
 1800POPC   C1A25323  10.669  35.616   8.697
 1800POPC   D2A25324  10.627  35.326   8.351
 1800POPC   C3A25325  10.395  35.460   7.989
 1800POPC   C4A25326  10.528  35.653   7.656
 1800POPC   C1B25327  10.225  34.988   8.666
 1800POPC   C2B25328  10.126  35.151   8.291
 1800POPC   C3B25329  10.427  34.949   8.036
 1800POPC   C4B25330  10.790  35.159   7.850
 1801POPC   NC325331  31.939   0.115   9.747
 1801POPC   PO425332  32.346   0.608   9.629
 1801POPC   GL125333  32.304   0.604   9.211
 1801POPC   GL225334  32.031   0.324   9.226
 1801POPC   C1A25335  32.473   0.649   8.831
 1801POPC   D2A25336  32.363   0.317   8.594
 1801POPC   C3A25337  32.420   0.360   8.148
 1801POPC   C4A25338  32.298   0.676   7.839
 1801POPC   C1B25339  31.925   0.518   8.820
 1801POPC   C2B25340  32.040   0.628   8.380
 1801POPC   C3B25341  31.919   0.366   8.010
 1801POPC   C4B25342  31.877   0.361   7.562
 1802POPC   NC325343  16.899  41.552   9.494
 1802POPC   PO425344  16.320  41.710   9.740
 1802POPC   GL125345  16.514  41.345   9.289
 1802POPC   GL225346  16.284  41.202   9.078
 1802POPC   C1A25347  16.743  41.299   8.873
 1802POPC   D2A25348  16.972  41.449   8.509
 1802POPC   C3A25349  16.854  41.297   8.115
 1802POPC   C4A25350  16.792  41.534   7.733
 1802POPC   C1B25351  16.222  41.337   8.682
 1802POPC   C2B25352  16.438  41.527   8.348
 1802POPC   C3B25353  16.582  41.852   8.084
 1802POPC   C4B25354  16.476  41.918   7.664
 1803POPC   NC325355  15.000  33.979   9.610
 1803POPC   PO425356  15.494  33.502   9.472
 1803POPC   GL125357  15.349  33.823   9.213
 1803POPC   GL225358  14.996  33.755   9.137
 1803POPC   C1A25359  15.433  33.800   8.791
 1803POPC   D2A25360  15.252  33.526   8.480
 1803POPC   C3A25361  15.241  33.659   8.052
 1803POPC   C4A25362  14.889  33.728   7.785
 1803POPC   C1B25363  14.982  34.026   8.817
 1803POPC   C2B25364  15.178  34.061   8.432
 1803POPC   C3B25365  15.024  34.126   8.058
 1803POPC   C4B25366  15.181  34.123   7.664
 1804POPC   NC325367  17.402  41.202   9.583
 1804POPC   PO425368  17.718  40.670   9.824
 1804POPC   GL125369  17.505  40.736   9.358
 1804POPC   GL225370  17.675  41.046   9.197
 1804POPC   C1A25371  17.448  40.755   8.854
 1804POPC   D2A25372  17.343  40.584   8.416
 1804POPC   C3A25373  17.308  40.875   8.088
 1804POPC   C4A25374  17.406  40.795   7.652
 1804POPC   C1B25375  17.890  41.049   8.800
 1804POPC   C2B25376  17.799  40.858   8.407
 1804POPC   C3B25377  17.800  40.972   7.983
 1804POPC   C4B25378  17.726  41.197   7.609
 1805POPC   NC325379  27.915  24.787  10.105
 1805POPC   PO425380  27.663  24.297   9.690
 1805POPC   GL125381  27.565  24.260   9.232
 1805POPC   GL225382  27.701  24.557   9.137
 1805POPC   C1A25383  27.407  24.375   8.761
 1805POPC   D2A25384  27.359  24.676   8.388
 1805POPC   C3A25385  27.500  24.464   8.002
 1805POPC   C4A25386  27.778  24.114   8.060
 1805POPC   C1B25387  27.793  24.740   8.726
 1805POPC   C2B25388  27.938  24.568   8.338
 1805POPC   C3B25389  27.949  24.669   7.903
 1805POPC   C4B25390  27.609  24.937   7.793
 1806POPC   NC325391  21.095   8.637   9.559
 1806POPC   PO425392  20.699   9.232   9.412
 1806POPC   GL125393  21.117   9.132   9.230
 1806POPC   GL225394  21.401   8.856   9.188
 1806POPC   C1A25395  21.154   9.047   8.791
 1806POPC   D2A25396  21.116   8.783   8.434
 1806POPC   C3A25397  21.163   9.027   8.071
 1806POPC   C4A25398  21.238   9.010   7.612
 1806POPC   C1B25399  21.465   8.631   8.763
 1806POPC   C2B25400  21.653   8.617   8.329
 1806POPC   C3B25401  21.588   8.803   7.932
 1806POPC   C4B25402  21.745   9.246   7.856
 1807POPC   NC325403  17.985  22.747   9.588
 1807POPC   PO425404  18.455  23.181   9.684
 1807POPC   GL125405  18.316  22.980   9.286
 1807POPC   GL225406  17.991  23.120   9.189
 1807POPC   C1A25407  18.403  23.000   8.844
 1807POPC   D2A25408  18.549  22.813   8.486
 1807POPC   C3A25409  18.409  22.937   8.114
 1807POPC   C4A25410  18.508  22.923   7.684
 1807POPC   C1B25411  17.936  22.784   8.900
 1807POPC   C2B25412  18.052  22.670   8.496
 1807POPC   C3B25413  18.087  22.526   8.098
 1807POPC   C4B25414  18.025  22.813   7.754
 1808POPC   NC325415   2.236   7.736   9.306
 1808POPC   PO425416   2.054   8.320   9.645
 1808POPC   GL125417   1.974   8.358   9.173
 1808POPC   GL225418   1.731   8.618   9.043
 1808POPC   C1A25419   2.056   8.379   8.719
 1808POPC   D2A25420   2.224   8.200   8.333
 1808POPC   C3A25421   2.126   8.355   7.949
 1808POPC   C4A25422   2.005   8.037   7.685
 1808POPC   C1B25423   1.519   8.376   8.721
 1808POPC   C2B25424   1.671   8.244   8.315
 1808POPC   C3B25425   1.620   8.328   7.882
 1808POPC   C4B25426   1.619   8.238   7.430
 1809POPC   NC325427   8.898   5.802   9.560
 1809POPC   PO425428   9.429   6.236   9.553
 1809POPC   GL125429   9.239   5.937   9.209
 1809POPC   GL225430   8.844   5.838   9.079
 1809POPC   C1A25431   9.192   6.021   8.798
 1809POPC   D2A25432   8.935   6.144   8.509
 1809POPC   C3A25433   8.966   6.134   8.075
 1809POPC   C4A25434   8.738   6.206   7.689
 1809POPC   C1B25435   8.635   5.772   8.702
 1809POPC   C2B25436   8.824   5.660   8.332
 1809POPC   C3B25437   8.647   5.718   7.947
 1809POPC   C4B25438   8.590   5.535   7.558
 1810POPC   NC325439   5.279  40.521   9.404
 1810POPC   PO425440   4.851  40.945   9.603
 1810POPC   GL125441   4.933  40.901   9.187
 1810POPC   GL225442   4.791  41.249   9.178
 1810POPC   C1A25443   5.062  40.678   8.782
 1810POPC   D2A25444   4.984  40.532   8.337
 1810POPC   C3A25445   5.178  40.829   8.028
 1810POPC   C4A25446   5.346  40.690   7.633
 1810POPC   C1B25447   4.721  41.123   8.785
 1810POPC   C2B25448   4.853  41.006   8.419
 1810POPC   C3B25449   4.682  40.997   8.034
 1810POPC   C4B25450   4.922  41.094   7.649
 1811POPC   NC325451   3.543  35.182   9.707
 1811POPC   PO425452   3.943  35.606   9.717
 1811POPC   GL125453   3.616  35.391   9.277
 1811POPC   GL225454   3.647  35.053   9.191
 1811POPC   C1A25455   3.472  35.495   8.843
 1811POPC   D2A25456   3.572  35.565   8.401
 1811POPC   C3A25457   3.320  35.308   8.161
 1811POPC   C4A25458   3.342  35.204   7.748
 1811POPC   C1B25459   3.782  35.097   8.756
 1811POPC   C2B25460   3.779  35.090   8.314
 1811POPC   C3B25461   3.824  35.296   7.938
 1811POPC   C4B25462   3.791  35.086   7.528
 1812POPC   NC325463  44.643  30.778   9.480
 1812POPC   PO425464  44.922  30.174   9.538
 1812POPC   GL125465  44.849  30.431   9.183
 1812POPC   GL225466  44.490  30.465   9.114
 1812POPC   C1A25467  44.845  30.701   8.809
 1812POPC   D2A25468   0.149  30.816   8.544
 1812POPC   C3A25469  44.919  30.874   8.179
 1812POPC   C4A25470  44.826  30.954   7.791
 1812POPC   C1B25471  44.350  30.806   8.835
 1812POPC   C2B25472  44.470  31.031   8.461
 1812POPC   C3B25473  44.390  31.001   8.047
 1812POPC   C4B25474  44.407  30.652   7.825
 1813POPC   NC325475  41.057   0.801   9.339
 1813POPC   PO425476  40.550   0.373   9.460
 1813POPC   GL125477  40.723   0.292   9.060
 1813POPC   GL225478  41.084   0.331   9.094
 1813POPC   C1A25479  40.631   0.355   8.631
 1813POPC   D2A25480  40.738   0.099   8.256
 1813POPC   C3A25481  40.739   0.380   7.917
 1813POPC   C4A25482  40.681   0.378   7.474
 1813POPC   C1B25483  41.141   0.618   8.740
 1813POPC   C2B25484  41.025   0.536   8.356
 1813POPC   C3B25485  41.256   0.561   8.036
 1813POPC   C4B25486  41.151   0.529   7.618
 1814POPC   NC325487  36.634  39.354   9.866
 1814POPC   PO425488  36.855  39.953   9.543
 1814POPC   GL125489  36.845  40.061   9.115
 1814POPC   GL225490  36.709  39.735   9.023
 1814POPC   C1A25491  37.085  39.962   8.733
 1814POPC   D2A25492  36.962  39.874   8.346
 1814POPC   C3A25493  37.034  40.109   7.995
 1814POPC   C4A25494  37.169  39.843   7.696
 1814POPC   C1B25495  36.537  39.999   8.689
 1814POPC   C2B25496  36.468  39.952   8.247
 1814POPC   C3B25497  36.693  39.746   7.922
 1814POPC   C4B25498  36.691  39.934   7.531
 1815POPC   NC325499  23.949  12.896   9.597
 1815POPC   PO425500  23.332  13.171   9.550
 1815POPC   GL125501  23.637  13.051   9.205
 1815POPC   GL225502  23.744  12.718   9.153
 1815POPC   C1A25503  23.763  13.098   8.761
 1815POPC   D2A25504  23.776  13.310   8.349
 1815POPC   C3A25505  23.591  13.176   7.975
 1815POPC   C4A25506  23.747  13.015   7.620
 1815POPC   C1B25507  23.943  12.555   8.798
 1815POPC   C2B25508  23.736  12.480   8.410
 1815POPC   C3B25509  23.774  12.640   7.998
 1815POPC   C4B25510  23.843  12.347   7.674
 1816POPC   NC325511  36.968  35.444   9.444
 1816POPC   PO425512  36.589  34.886   9.197
 1816POPC   GL125513  36.796  35.187   9.031
 1816POPC   GL225514  37.112  35.118   9.076
 1816POPC   C1A25515  36.826  35.316   8.621
 1816POPC   D2A25516  36.630  35.436   8.257
 1816POPC   C3A25517  36.879  35.574   7.916
 1816POPC   C4A25518  36.536  35.434   7.668
 1816POPC   C1B25519  37.147  34.933   8.700
 1816POPC   C2B25520  37.197  35.114   8.290
 1816POPC   C3B25521  36.932  35.066   7.907
 1816POPC   C4B25522  36.981  35.244   7.501
 1817POPC   NC325523  41.693  44.448   9.489
 1817POPC   PO425524  41.357   0.075   9.472
 1817POPC   GL125525  41.582  44.852   9.154
 1817POPC   GL225526  41.417  44.523   9.093
 1817POPC   C1A25527  41.588  44.768   8.699
 1817POPC   D2A25528  41.785  44.720   8.354
 1817POPC   C3A25529  41.544  44.703   8.006
 1817POPC   C4A25530  41.829  44.723   7.702
 1817POPC   C1B25531  41.271  44.342   8.749
 1817POPC   C2B25532  41.418  44.318   8.323
 1817POPC   C3B25533  41.324  44.207   7.910
 1817POPC   C4B25534  41.421  44.457   7.538
 1818POPC   NC325535  11.115  13.865   9.309
 1818POPC   PO425536  11.198  13.373   9.718
 1818POPC   GL125537  11.242  13.387   9.200
 1818POPC   GL225538  11.565  13.335   9.103
 1818POPC   C1A25539  11.338  13.617   8.743
 1818POPC   D2A25540  11.560  13.785   8.378
 1818POPC   C3A25541  11.314  13.763   8.060
 1818POPC   C4A25542  11.336  13.576   7.696
 1818POPC   C1B25543  11.542  13.145   8.770
 1818POPC   C2B25544  11.794  13.153   8.420
 1818POPC   C3B25545  11.646  13.346   8.078
 1818POPC   C4B25546  11.749  13.287   7.660
 1819POPC   NC325547  34.644  32.399   9.465
 1819POPC   PO425548  34.163  31.884   9.490
 1819POPC   GL125549  34.279  32.229   9.167
 1819POPC   GL225550  34.455  32.566   9.062
 1819POPC   C1A25551  34.464  32.220   8.719
 1819POPC   D2A25552  34.544  32.060   8.314
 1819POPC   C3A25553  34.507  32.329   7.979
 1819POPC   C4A25554  34.477  32.222   7.550
 1819POPC   C1B25555  34.773  32.635   8.770
 1819POPC   C2B25556  34.676  32.728   8.365
 1819POPC   C3B25557  34.931  32.690   8.008
 1819POPC   C4B25558  34.909  32.455   7.640
 1820POPC   NC325559  44.569  10.493   9.689
 1820POPC   PO425560  44.975  10.035   9.337
 1820POPC   GL125561  44.579  10.327   9.159
 1820POPC   GL225562  44.247  10.382   9.287
 1820POPC   C1A25563  44.644  10.577   8.755
 1820POPC   D2A25564  44.965  10.468   8.455
 1820POPC   C3A25565  44.884  10.390   8.011
 1820POPC   C4A25566  44.988  10.712   7.735
 1820POPC   C1B25567  44.146  10.499   8.849
 1820POPC   C2B25568  44.197  10.600   8.379
 1820POPC   C3B25569  44.438  10.618   7.974
 1820POPC   C4B25570  44.395  10.553   7.525
 1821POPC   NC325571  15.166   8.675   9.647
 1821POPC   PO425572  15.592   9.177   9.421
 1821POPC   GL125573  15.197   9.136   9.203
 1821POPC   GL225574  14.976   8.826   9.118
 1821POPC   C1A25575  15.126   9.176   8.779
 1821POPC   D2A25576  15.103   8.938   8.414
 1821POPC   C3A25577  15.204   9.125   8.043
 1821POPC   C4A25578  15.039   9.110   7.654
 1821POPC   C1B25579  14.755   8.686   8.706
 1821POPC   C2B25580  14.786   8.565   8.232
 1821POPC   C3B25581  15.034   8.599   7.825
 1821POPC   C4B25582  14.863   8.692   7.400
 1822POPC   NC325583  11.619  33.129   9.585
 1822POPC   PO425584  10.948  33.310   9.557
 1822POPC   GL125585  11.202  33.301   9.216
 1822POPC   GL225586  11.259  32.948   9.198
 1822POPC   C1A25587  11.064  33.227   8.805
 1822POPC   D2A25588  11.052  32.903   8.517
 1822POPC   C3A25589  11.097  33.119   8.150
 1822POPC   C4A25590  11.302  33.132   7.773
 1822POPC   C1B25591  11.479  32.901   8.810
 1822POPC   C2B25592  11.555  32.982   8.375
 1822POPC   C3B25593  11.779  32.880   8.003
 1822POPC   C4B25594  11.780  33.242   7.773
 1823POPC   NC325595  16.584   4.170   9.480
 1823POPC   PO425596  16.906   4.681   9.723
 1823POPC   GL125597  16.743   4.583   9.247
 1823POPC   GL225598  16.998   4.732   9.085
 1823POPC   C1A25599  16.486   4.368   8.842
 1823POPC   D2A25600  16.473   4.099   8.443
 1823POPC   C3A25601  16.499   4.256   8.008
 1823POPC   C4A25602  16.648   4.029   7.633
 1823POPC   C1B25603  16.918   4.568   8.693
 1823POPC   C2B25604  16.681   4.576   8.377
 1823POPC   C3B25605  16.850   4.618   7.990
 1823POPC   C4B25606  16.799   4.485   7.589
 1824POPC   NC325607  38.725  38.961   9.719
 1824POPC   PO425608  39.382  38.806   9.680
 1824POPC   GL125609  39.312  39.052   9.278
 1824POPC   GL225610  39.026  39.250   9.304
 1824POPC   C1A25611  39.383  39.172   8.833
 1824POPC   D2A25612  39.135  39.026   8.445
 1824POPC   C3A25613  39.335  38.964   8.045
 1824POPC   C4A25614  39.282  39.217   7.662
 1824POPC   C1B25615  38.882  39.218   8.860
 1824POPC   C2B25616  38.950  39.502   8.503
 1824POPC   C3B25617  39.057  39.446   8.075
 1824POPC   C4B25618  38.778  39.345   7.731
 1825POPC   NC325619  28.050  39.269   9.657
 1825POPC   PO425620  28.658  39.513   9.563
 1825POPC   GL125621  28.513  39.386   9.160
 1825POPC   GL225622  28.185  39.291   9.174
 1825POPC   C1A25623  28.591  39.117   8.810
 1825POPC   D2A25624  28.531  38.845   8.460
 1825POPC   C3A25625  28.545  39.023   8.051
 1825POPC   C4A25626  28.644  39.343   7.748
 1825POPC   C1B25627  28.180  39.435   8.759
 1825POPC   C2B25628  28.406  39.395   8.374
 1825POPC   C3B25629  28.338  39.627   8.011
 1825POPC   C4B25630  28.093  39.606   7.658
 1826POPC   NC325631  40.900   0.045   9.483
 1826POPC   PO425632  40.406  44.588   9.515
 1826POPC   GL125633  40.585  44.771   9.161
 1826POPC   GL225634  40.917  44.610   9.216
 1826POPC   C1A25635  40.617  44.854   8.721
 1826POPC   D2A25636  40.572  44.587   8.365
 1826POPC   C3A25637  40.527  44.693   7.943
 1826POPC   C4A25638  40.778  44.914   7.687
 1826POPC   C1B25639  41.098  44.848   8.873
 1826POPC   C2B25640  41.091  44.740   8.452
 1826POPC   C3B25641  41.025  44.602   8.055
 1826POPC   C4B25642  40.927  44.419   7.661
 1827POPC   NC325643  22.518  16.125   9.886
 1827POPC   PO425644  21.898  16.040   9.513
 1827POPC   GL125645  22.024  15.958   9.092
 1827POPC   GL225646  22.330  16.071   9.004
 1827POPC   C1A25647  22.054  15.820   8.648
 1827POPC   D2A25648  22.267  16.055   8.297
 1827POPC   C3A25649  22.168  15.989   7.895
 1827POPC   C4A25650  21.814  15.709   7.974
 1827POPC   C1B25651  22.511  15.745   8.823
 1827POPC   C2B25652  22.554  15.612   8.428
 1827POPC   C3B25653  22.626  15.766   8.021
 1827POPC   C4B25654  22.665  16.005   7.630
 1828POPC   NC325655   8.052  26.873   9.633
 1828POPC   PO425656   7.891  26.354   9.417
 1828POPC   GL125657   8.197  26.625   9.173
 1828POPC   GL225658   8.321  26.975   9.115
 1828POPC   C1A25659   8.307  26.654   8.715
 1828POPC   D2A25660   8.480  26.757   8.284
 1828POPC   C3A25661   8.181  26.626   7.930
 1828POPC   C4A25662   7.827  26.390   7.670
 1828POPC   C1B25663   8.634  27.045   8.760
 1828POPC   C2B25664   8.629  27.252   8.342
 1828POPC   C3B25665   8.435  27.162   7.927
 1828POPC   C4B25666   8.575  27.383   7.545
 1829POPC   NC325667   0.365  29.279   9.638
 1829POPC   PO425668   0.571  28.598   9.604
 1829POPC   GL125669   0.417  28.909   9.276
 1829POPC   GL225670   0.553  29.255   9.178
 1829POPC   C1A25671   0.378  28.902   8.821
 1829POPC   D2A25672   0.500  29.060   8.417
 1829POPC   C3A25673   0.247  29.035   8.057
 1829POPC   C4A25674   0.163  29.154   7.635
 1829POPC   C1B25675   0.386  29.434   8.767
 1829POPC   C2B25676   0.115  29.435   8.383
 1829POPC   C3B25677   0.211  29.560   7.960
 1829POPC   C4B25678   0.591  29.401   7.820
 1830POPC   NC325679   5.544  16.079   9.496
 1830POPC   PO425680   6.173  16.196   9.549
 1830POPC   GL125681   5.989  15.902   9.217
 1830POPC   GL225682   5.762  16.116   9.053
 1830POPC   C1A25683   5.939  15.781   8.744
 1830POPC   D2A25684   5.864  16.089   8.431
 1830POPC   C3A25685   5.887  15.963   8.031
 1830POPC   C4A25686   5.531  15.827   7.790
 1830POPC   C1B25687   6.114  16.276   8.844
 1830POPC   C2B25688   6.187  16.488   8.443
 1830POPC   C3B25689   5.984  16.488   8.026
 1830POPC   C4B25690   5.819  16.296   7.651
 1831POPC   NC325691  18.342  14.211   9.361
 1831POPC   PO425692  17.946  14.676   9.506
 1831POPC   GL125693  18.162  14.621   9.099
 1831POPC   GL225694  18.530  14.607   9.084
 1831POPC   C1A25695  18.310  14.662   8.654
 1831POPC   D2A25696  18.438  14.852   8.301
 1831POPC   C3A25697  18.496  14.551   8.007
 1831POPC   C4A25698  18.181  14.262   7.861
 1831POPC   C1B25699  18.744  14.388   8.687
 1831POPC   C2B25700  18.874  14.249   8.249
 1831POPC   C3B25701  18.679  14.104   7.826
 1831POPC   C4B25702  18.523  14.408   7.479
 1832POPC   NC325703  27.102  15.175   9.385
 1832POPC   PO425704  26.656  15.565   9.717
 1832POPC   GL125705  26.596  15.265   9.222
 1832POPC   GL225706  26.725  14.959   9.112
 1832POPC   C1A25707  26.883  15.258   8.750
 1832POPC   D2A25708  27.142  15.263   8.375
 1832POPC   C3A25709  26.938  15.356   7.978
 1832POPC   C4A25710  26.742  15.433   7.567
 1832POPC   C1B25711  26.930  14.760   8.744
 1832POPC   C2B25712  26.781  14.881   8.375
 1832POPC   C3B25713  26.658  14.922   7.977
 1832POPC   C4B25714  26.865  14.941   7.625
 1833POPC   NC325715  26.189   1.903   9.659
 1833POPC   PO425716  25.590   2.172   9.898
 1833POPC   GL125717  25.797   1.910   9.354
 1833POPC   GL225718  26.120   2.013   9.183
 1833POPC   C1A25719  25.807   1.876   8.836
 1833POPC   D2A25720  25.676   1.829   8.373
 1833POPC   C3A25721  25.882   2.108   8.040
 1833POPC   C4A25722  26.264   2.205   7.766
 1833POPC   C1B25723  26.309   1.753   8.892
 1833POPC   C2B25724  26.193   1.830   8.454
 1833POPC   C3B25725  26.346   1.809   8.047
 1833POPC   C4B25726  26.648   1.845   7.702
 1834POPC   NC325727  40.332  28.487   9.724
 1834POPC   PO425728  39.742  28.186   9.581
 1834POPC   GL125729  39.965  28.289   9.192
 1834POPC   GL225730  40.271  28.499   9.221
 1834POPC   C1A25731  39.857  28.208   8.755
 1834POPC   D2A25732  40.055  28.067   8.387
 1834POPC   C3A25733  39.823  28.155   8.042
 1834POPC   C4A25734  39.975  28.227   7.623
 1834POPC   C1B25735  40.311  28.450   8.787
 1834POPC   C2B25736  40.111  28.584   8.421
 1834POPC   C3B25737  40.208  28.490   8.015
 1834POPC   C4B25738  40.305  28.687   7.641
 1835POPC   NC325739  38.135   1.420   9.588
 1835POPC   PO425740  38.729   1.547   9.326
 1835POPC   GL125741  38.410   1.350   9.145
 1835POPC   GL225742  38.476   1.030   9.112
 1835POPC   C1A25743  38.298   1.307   8.719
 1835POPC   D2A25744  38.294   1.531   8.343
 1835POPC   C3A25745  38.298   1.261   7.981
 1835POPC   C4A25746  38.350   1.463   7.589
 1835POPC   C1B25747  38.665   0.925   8.748
 1835POPC   C2B25748  38.409   0.817   8.402
 1835POPC   C3B25749  38.179   0.738   8.042
 1835POPC   C4B25750  38.394   0.789   7.717
 1836POPC   NC325751  41.565  21.407   9.604
 1836POPC   PO425752  41.053  21.002   9.421
 1836POPC   GL125753  41.385  21.252   9.152
 1836POPC   GL225754  41.742  21.206   9.170
 1836POPC   C1A25755  41.491  21.470   8.750
 1836POPC   D2A25756  41.443  21.248   8.360
 1836POPC   C3A25757  41.369  21.469   7.984
 1836POPC   C4A25758  41.727  21.596   7.709
 1836POPC   C1B25759  41.705  21.028   8.771
 1836POPC   C2B25760  41.929  21.136   8.394
 1836POPC   C3B25761  41.788  21.164   7.964
 1836POPC   C4B25762  41.869  21.018   7.541
 1837POPC   NC325763  29.606  19.981   9.663
 1837POPC   PO425764  30.031  20.356   9.336
 1837POPC   GL125765  30.096  19.889   9.291
 1837POPC   GL225766  29.816  19.647   9.309
 1837POPC   C1A25767  30.176  19.595   8.939
 1837POPC   D2A25768  30.142  19.358   8.560
 1837POPC   C3A25769  30.038  19.616   8.227
 1837POPC   C4A25770  30.048  19.841   7.844
 1837POPC   C1B25771  29.638  19.598   8.906
 1837POPC   C2B25772  29.659  19.859   8.541
 1837POPC   C3B25773  29.604  19.866   8.101
 1837POPC   C4B25774  29.618  19.514   7.841
 1838POPC   NC325775   7.143  32.781   9.505
 1838POPC   PO425776   6.453  32.907   9.622
 1838POPC   GL125777   6.702  33.040   9.273
 1838POPC   GL225778   6.475  33.308   9.166
 1838POPC   C1A25779   6.686  32.917   8.852
 1838POPC   D2A25780   6.606  32.992   8.433
 1838POPC   C3A25781   6.624  32.841   8.002
 1838POPC   C4A25782   6.819  32.985   7.614
 1838POPC   C1B25783   6.272  33.245   8.745
 1838POPC   C2B25784   6.118  33.042   8.347
 1838POPC   C3B25785   6.323  33.235   8.076
 1838POPC   C4B25786   6.369  33.306   7.697
 1839POPC   NC325787  38.634  11.294   9.700
 1839POPC   PO425788  38.045  11.142   9.619
 1839POPC   GL125789  38.319  11.414   9.262
 1839POPC   GL225790  38.719  11.394   9.187
 1839POPC   C1A25791  38.403  11.492   8.779
 1839POPC   D2A25792  38.205  11.577   8.358
 1839POPC   C3A25793  38.439  11.471   7.974
 1839POPC   C4A25794  38.410  11.351   7.567
 1839POPC   C1B25795  38.725  11.108   8.797
 1839POPC   C2B25796  38.547  11.151   8.373
 1839POPC   C3B25797  38.643  10.999   7.958
 1839POPC   C4B25798  38.889  11.271   7.728
 1840POPC   NC325799  20.330  35.624   9.867
 1840POPC   PO425800  20.813  35.290   9.468
 1840POPC   GL125801  20.777  35.358   9.076
 1840POPC   GL225802  20.928  35.667   9.128
 1840POPC   C1A25803  20.505  35.272   8.752
 1840POPC   D2A25804  20.623  35.367   8.377
 1840POPC   C3A25805  20.408  35.229   8.063
 1840POPC   C4A25806  20.422  35.474   7.695
 1840POPC   C1B25807  20.736  35.737   8.732
 1840POPC   C2B25808  20.900  35.813   8.335
 1840POPC   C3B25809  20.851  35.589   7.973
 1840POPC   C4B25810  20.860  35.180   7.865
 1841POPC   NC325811  27.159  13.257   9.279
 1841POPC   PO425812  26.529  13.021   9.567
 1841POPC   GL125813  26.733  12.907   9.150
 1841POPC   GL225814  27.009  12.678   8.988
 1841POPC   C1A25815  26.698  12.984   8.705
 1841POPC   D2A25816  26.814  13.124   8.295
 1841POPC   C3A25817  26.494  12.993   8.017
 1841POPC   C4A25818  26.498  12.815   7.622
 1841POPC   C1B25819  27.218  12.972   8.678
 1841POPC   C2B25820  27.332  13.154   8.263
 1841POPC   C3B25821  27.186  13.115   7.818
 1841POPC   C4B25822  27.109  12.767   7.504
 1842POPC   NC325823  34.166  32.263   9.749
 1842POPC   PO425824  33.505  32.342   9.560
 1842POPC   GL125825  33.760  32.194   9.228
 1842POPC   GL225826  33.532  32.390   9.019
 1842POPC   C1A25827  33.952  32.190   8.801
 1842POPC   D2A25828  33.774  32.123   8.423
 1842POPC   C3A25829  34.045  32.075   8.103
 1842POPC   C4A25830  34.001  32.133   7.693
 1842POPC   C1B25831  33.711  32.623   8.681
 1842POPC   C2B25832  33.659  32.592   8.276
 1842POPC   C3B25833  33.613  32.348   7.952
 1842POPC   C4B25834  33.663  32.482   7.559
 1843POPC   NC325835  26.508  11.817   9.429
 1843POPC   PO425836  26.927  11.244   9.394
 1843POPC   GL125837  26.615  11.319   9.147
 1843POPC   GL225838  26.752  11.624   9.040
 1843POPC   C1A25839  26.552  11.354   8.690
 1843POPC   D2A25840  26.626  11.530   8.278
 1843POPC   C3A25841  26.877  11.196   8.055
 1843POPC   C4A25842  26.813  11.109   7.620
 1843POPC   C1B25843  26.943  11.714   8.646
 1843POPC   C2B25844  27.162  11.479   8.399
 1843POPC   C3B25845  27.215  11.658   8.030
 1843POPC   C4B25846  27.204  11.431   7.701
 1844POPC   NC325847  20.868  25.047   9.478
 1844POPC   PO425848  20.358  25.496   9.480
 1844POPC   GL125849  20.632  25.375   9.159
 1844POPC   GL225850  20.556  25.014   9.071
 1844POPC   C1A25851  20.609  25.380   8.718
 1844POPC   D2A25852  20.874  25.311   8.371
 1844POPC   C3A25853  20.680  25.446   8.000
 1844POPC   C4A25854  20.397  25.530   7.666
 1844POPC   C1B25855  20.864  24.931   8.749
 1844POPC   C2B25856  20.814  24.788   8.325
 1844POPC   C3B25857  20.852  24.933   7.918
 1844POPC   C4B25858  20.757  24.789   7.521
 1845POPC   NC325859   9.566  10.914   9.684
 1845POPC   PO425860   9.987  11.449   9.556
 1845POPC   GL125861   9.830  11.150   9.273
 1845POPC   GL225862   9.679  11.418   9.109
 1845POPC   C1A25863   9.688  11.025   8.831
 1845POPC   D2A25864   9.524  11.289   8.507
 1845POPC   C3A25865   9.664  11.140   8.108
 1845POPC   C4A25866   9.780  11.088   7.641
 1845POPC   C1B25867   9.921  11.529   8.753
 1845POPC   C2B25868   9.851  11.656   8.313
 1845POPC   C3B25869   9.904  11.517   7.871
 1845POPC   C4B25870   9.900  11.555   7.407
 1846POPC   NC325871   1.777   5.887   9.508
 1846POPC   PO425872   1.109   5.580   9.428
 1846POPC   GL125873   1.338   5.831   9.164
 1846POPC   GL225874   1.160   6.158   9.186
 1846POPC   C1A25875   1.166   5.813   8.744
 1846POPC   D2A25876   1.013   6.045   8.412
 1846POPC   C3A25877   1.259   5.867   8.084
 1846POPC   C4A25878   1.143   5.754   7.699
 1846POPC   C1B25879   1.424   6.227   8.834
 1846POPC   C2B25880   1.552   6.105   8.434
 1846POPC   C3B25881   1.547   6.296   7.998
 1846POPC   C4B25882   1.387   6.233   7.573
 1847POPC   NC325883  39.792  35.900   9.384
 1847POPC   PO425884  39.246  36.403   9.429
 1847POPC   GL125885  39.147  36.153   9.085
 1847POPC   GL225886  39.334  35.905   9.167
 1847POPC   C1A25887  39.326  36.180   8.689
 1847POPC   D2A25888  39.167  36.187   8.256
 1847POPC   C3A25889  39.409  36.342   7.901
 1847POPC   C4A25890  39.310  36.297   7.443
 1847POPC   C1B25891  39.555  35.701   8.819
 1847POPC   C2B25892  39.460  35.544   8.446
 1847POPC   C3B25893  39.434  35.748   8.052
 1847POPC   C4B25894  39.196  35.899   7.758
 1848POPC   NC325895  13.482   4.899   9.525
 1848POPC   PO425896  13.922   5.345   9.551
 1848POPC   GL125897  13.643   5.260   9.185
 1848POPC   GL225898  13.261   5.326   9.226
 1848POPC   C1A25899  13.734   5.096   8.749
 1848POPC   D2A25900  14.050   5.094   8.396
 1848POPC   C3A25901  13.922   4.975   7.976
 1848POPC   C4A25902  13.672   5.049   7.626
 1848POPC   C1B25903  13.402   5.504   8.811
 1848POPC   C2B25904  13.586   5.466   8.397
 1848POPC   C3B25905  13.425   5.203   8.081
 1848POPC   C4B25906  13.287   5.351   7.710
 1849POPC   NC325907   9.257   4.934   9.525
 1849POPC   PO425908   8.682   5.396   9.540
 1849POPC   GL125909   9.013   5.350   9.245
 1849POPC   GL225910   9.036   4.985   9.082
 1849POPC   C1A25911   8.996   5.411   8.818
 1849POPC   D2A25912   8.982   5.053   8.558
 1849POPC   C3A25913   9.144   5.233   8.219
 1849POPC   C4A25914   9.035   5.377   7.830
 1849POPC   C1B25915   9.268   4.686   8.819
 1849POPC   C2B25916   9.378   4.757   8.380
 1849POPC   C3B25917   9.124   4.786   7.989
 1849POPC   C4B25918   9.288   4.939   7.590
 1850POPC   NC325919  40.793  21.095   9.796
 1850POPC   PO425920  40.708  20.471   9.569
 1850POPC   GL125921  40.762  20.387   9.112
 1850POPC   GL225922  40.906  20.725   9.002
 1850POPC   C1A25923  40.796  20.389   8.645
 1850POPC   D2A25924  40.562  20.748   8.513
 1850POPC   C3A25925  40.418  20.704   8.127
 1850POPC   C4A25926  40.580  20.374   7.868
 1850POPC   C1B25927  41.176  21.011   8.749
 1850POPC   C2B25928  41.034  20.949   8.386
 1850POPC   C3B25929  40.921  20.655   8.122
 1850POPC   C4B25930  40.752  20.893   7.785
 1851POPC   NC325931   7.528   5.181   9.678
 1851POPC   PO425932   7.098   5.552   9.367
 1851POPC   GL125933   7.353   5.180   9.179
 1851POPC   GL225934   7.649   4.992   9.211
 1851POPC   C1A25935   7.343   4.950   8.792
 1851POPC   D2A25936   7.158   5.110   8.437
 1851POPC   C3A25937   7.322   5.046   8.044
 1851POPC   C4A25938   7.226   5.248   7.621
 1851POPC   C1B25939   7.776   5.251   8.849
 1851POPC   C2B25940   7.642   5.388   8.425
 1851POPC   C3B25941   7.772   5.341   8.010
 1851POPC   C4B25942   7.709   5.002   7.718
 1852POPC   NC325943  42.156   1.127   9.453
 1852POPC   PO425944  42.746   1.464   9.515
 1852POPC   GL125945  42.474   1.437   9.117
 1852POPC   GL225946  42.091   1.403   9.042
 1852POPC   C1A25947  42.402   1.174   8.725
 1852POPC   D2A25948  42.083   0.936   8.481
 1852POPC   C3A25949  42.184   0.889   8.048
 1852POPC   C4A25950  42.288   1.142   7.696
 1852POPC   C1B25951  42.068   1.570   8.668
 1852POPC   C2B25952  42.116   1.411   8.280
 1852POPC   C3B25953  41.917   1.566   7.926
 1852POPC   C4B25954  42.092   1.603   7.532
 1853POPC   NC325955   7.508  21.145   9.408
 1853POPC   PO425956   7.765  20.466   9.432
 1853POPC   GL125957   7.471  20.575   9.154
 1853POPC   GL225958   7.617  20.849   8.993
 1853POPC   C1A25959   7.310  20.370   8.799
 1853POPC   D2A25960   7.303  20.574   8.414
 1853POPC   C3A25961   7.119  20.341   8.090
 1853POPC   C4A25962   7.236  20.493   7.708
 1853POPC   C1B25963   7.815  20.468   8.774
 1853POPC   C2B25964   7.856  20.472   8.337
 1853POPC   C3B25965   7.629  20.737   8.025
 1853POPC   C4B25966   7.671  20.817   7.580
 1854POPC   NC325967  36.625  21.429   9.540
 1854POPC   PO425968  37.208  21.136   9.594
 1854POPC   GL125969  37.125  21.316   9.152
 1854POPC   GL225970  36.808  21.279   9.095
 1854POPC   C1A25971  37.024  21.582   8.744
 1854POPC   D2A25972  37.070  21.429   8.336
 1854POPC   C3A25973  36.978  21.615   7.944
 1854POPC   C4A25974  37.156  21.348   7.627
 1854POPC   C1B25975  36.903  21.089   8.701
 1854POPC   C2B25976  36.689  21.067   8.299
 1854POPC   C3B25977  36.785  21.090   7.854
 1854POPC   C4B25978  36.813  21.059   7.370
 1855POPC   NC325979  30.277   3.287  10.008
 1855POPC   PO425980  30.716   3.437   9.520
 1855POPC   GL125981  30.690   3.530   9.072
 1855POPC   GL225982  31.023   3.619   9.048
 1855POPC   C1A25983  30.520   3.831   8.739
 1855POPC   D2A25984  30.649   3.974   8.314
 1855POPC   C3A25985  30.537   3.669   7.979
 1855POPC   C4A25986  30.486   3.235   7.811
 1855POPC   C1B25987  31.005   3.769   8.648
 1855POPC   C2B25988  30.854   3.486   8.384
 1855POPC   C3B25989  30.976   3.321   8.026
 1855POPC   C4B25990  30.925   3.438   7.600
 1856POPC   NC325991  35.183  11.968   9.626
 1856POPC   PO425992  35.020  11.538   9.158
 1856POPC   GL125993  35.140  12.021   9.073
 1856POPC   GL225994  35.232  11.836   8.776
 1856POPC   C1A25995  35.425  12.294   8.768
 1856POPC   D2A25996  35.424  12.100   8.336
 1856POPC   C3A25997  35.365  12.232   7.910
 1856POPC   C4A25998  34.964  12.123   7.724
 1856POPC   C1B25999  35.508  11.533   8.578
 1856POPC   C2B26000  35.773  11.662   8.264
 1856POPC   C3B26001  35.680  11.843   7.888
 1856POPC   C4B26002  35.386  11.779   7.575
 1857POPC   NC326003  30.230  41.111   9.363
 1857POPC   PO426004  29.864  40.613   9.548
 1857POPC   GL126005  29.907  40.646   9.142
 1857POPC   GL226006  30.226  40.479   9.135
 1857POPC   C1A26007  29.821  40.495   8.715
 1857POPC   D2A26008  29.483  40.629   8.434
 1857POPC   C3A26009  29.606  40.878   8.072
 1857POPC   C4A26010  29.486  40.761   7.684
 1857POPC   C1B26011  30.231  40.778   8.779
 1857POPC   C2B26012  29.909  40.964   8.526
 1857POPC   C3B26013  30.059  40.708   8.201
 1857POPC   C4B26014  30.142  40.696   7.770
 1858POPC   NC326015  41.864  35.812   9.353
 1858POPC   PO426016  41.433  36.289   9.348
 1858POPC   GL126017  41.471  35.995   9.047
 1858POPC   GL226018  41.535  36.281   8.839
 1858POPC   C1A26019  41.504  35.816   8.636
 1858POPC   D2A26020  41.770  36.035   8.342
 1858POPC   C3A26021  41.579  36.032   7.973
 1858POPC   C4A26022  41.165  35.970   8.002
 1858POPC   C1B26023  41.880  36.484   8.635
 1858POPC   C2B26024  41.971  36.516   8.196
 1858POPC   C3B26025  41.807  36.434   7.775
 1858POPC   C4B26026  41.583  36.346   7.380
 1859POPC   NC326027  22.817  24.574   9.887
 1859POPC   PO426028  23.164  24.189   9.553
 1859POPC   GL126029  23.040  24.325   9.139
 1859POPC   GL226030  23.249  24.610   9.022
 1859POPC   C1A26031  22.790  24.328   8.756
 1859POPC   D2A26032  22.994  24.389   8.350
 1859POPC   C3A26033  23.063  24.711   8.017
 1859POPC   C4A26034  22.900  24.746   7.581
 1859POPC   C1B26035  23.406  24.283   8.755
 1859POPC   C2B26036  23.397  24.070   8.393
 1859POPC   C3B26037  23.346  24.249   8.022
 1859POPC   C4B26038  23.069  24.186   7.696
 1860POPC   NC326039  38.681  42.115   9.429
 1860POPC   PO426040  38.211  42.583   9.620
 1860POPC   GL126041  38.303  42.466   9.203
 1860POPC   GL226042  38.617  42.578   9.217
 1860POPC   C1A26043  38.439  42.390   8.738
 1860POPC   D2A26044  38.325  42.529   8.306
 1860POPC   C3A26045  38.395  42.343   7.883
 1860POPC   C4A26046  38.273  42.192   7.468
 1860POPC   C1B26047  38.838  42.681   8.868
 1860POPC   C2B26048  38.965  42.530   8.469
 1860POPC   C3B26049  38.811  42.617   8.075
 1860POPC   C4B26050  39.009  42.628   7.678
 1861POPC   NC326051  38.593  42.775   9.792
 1861POPC   PO426052  38.770  43.363   9.511
 1861POPC   GL126053  38.444  43.046   9.339
 1861POPC   GL226054  38.201  43.289   9.231
 1861POPC   C1A26055  38.332  42.868   8.893
 1861POPC   D2A26056  38.596  42.921   8.504
 1861POPC   C3A26057  38.450  43.032   8.105
 1861POPC   C4A26058  38.519  42.841   7.722
 1861POPC   C1B26059  38.540  43.317   8.912
 1861POPC   C2B26060  38.531  43.423   8.507
 1861POPC   C3B26061  38.556  43.552   8.114
 1861POPC   C4B26062  38.556  43.406   7.733
 1862POPC   NC326063  40.968  13.450   9.389
 1862POPC   PO426064  40.537  14.024   9.335
 1862POPC   GL126065  40.725  13.748   9.035
 1862POPC   GL226066  41.080  13.814   8.982
 1862POPC   C1A26067  40.801  13.671   8.599
 1862POPC   D2A26068  40.970  13.760   8.224
 1862POPC   C3A26069  40.709  13.602   7.911
 1862POPC   C4A26070  40.548  13.477   7.537
 1862POPC   C1B26071  41.229  13.411   8.806
 1862POPC   C2B26072  41.101  13.197   8.475
 1862POPC   C3B26073  41.166  13.323   8.071
 1862POPC   C4B26074  41.017  13.246   7.670
 1863POPC   NC326075  18.388   1.639   9.420
 1863POPC   PO426076  18.104   1.033   9.387
 1863POPC   GL126077  18.322   1.245   9.085
 1863POPC   GL226078  18.314   0.954   8.902
 1863POPC   C1A26079  18.416   1.394   8.663
 1863POPC   D2A26080  18.317   1.164   8.290
 1863POPC   C3A26081  18.397   1.464   7.982
 1863POPC   C4A26082  18.073   1.582   7.744
 1863POPC   C1B26083  18.708   0.997   8.731
 1863POPC   C2B26084  18.832   1.137   8.332
 1863POPC   C3B26085  18.690   1.039   7.934
 1863POPC   C4B26086  18.282   1.029   7.721
 1864POPC   NC326087  17.944  39.424   9.451
 1864POPC   PO426088  17.324  39.215   9.679
 1864POPC   GL126089  17.563  39.117   9.273
 1864POPC   GL226090  17.518  39.426   9.150
 1864POPC   C1A26091  17.654  38.989   8.832
 1864POPC   D2A26092  17.397  39.139   8.487
 1864POPC   C3A26093  17.506  38.982   8.086
 1864POPC   C4A26094  17.398  39.171   7.714
 1864POPC   C1B26095  17.812  39.469   8.794
 1864POPC   C2B26096  17.668  39.581   8.377
 1864POPC   C3B26097  17.761  39.450   7.966
 1864POPC   C4B26098  17.999  39.615   7.650
 1865POPC   NC326099  29.084  24.114   9.564
 1865POPC   PO426100  29.470  23.577   9.583
 1865POPC   GL126101  29.241  23.710   9.274
 1865POPC   GL226102  29.455  23.982   9.200
 1865POPC   C1A26103  28.949  23.593   8.981
 1865POPC   D2A26104  28.967  23.624   8.541
 1865POPC   C3A26105  29.037  23.605   8.103
 1865POPC   C4A26106  28.930  23.805   7.712
 1865POPC   C1B26107  29.322  23.904   8.793
 1865POPC   C2B26108  29.219  24.041   8.409
 1865POPC   C3B26109  29.233  24.084   8.026
 1865POPC   C4B26110  29.450  23.861   7.724
 1866POPC   NC326111  32.649  30.531   9.582
 1866POPC   PO426112  32.016  30.746   9.860
 1866POPC   GL126113  32.177  30.679   9.396
 1866POPC   GL226114  32.481  30.853   9.229
 1866POPC   C1A26115  32.123  30.671   8.911
 1866POPC   D2A26116  31.966  30.671   8.454
 1866POPC   C3A26117  32.199  30.698   8.025
 1866POPC   C4A26118  32.084  30.716   7.588
 1866POPC   C1B26119  32.625  30.980   8.827
 1866POPC   C2B26120  32.490  30.889   8.423
 1866POPC   C3B26121  32.556  31.079   8.065
 1866POPC   C4B26122  32.534  30.918   7.682
 1867POPC   NC326123  44.931   1.360   9.703
 1867POPC   PO426124  44.314   1.067   9.657
 1867POPC   GL126125  44.572   1.373   9.307
 1867POPC   GL226126  44.942   1.542   9.232
 1867POPC   C1A26127  44.490   1.450   8.838
 1867POPC   D2A26128  44.391   1.163   8.474
 1867POPC   C3A26129  44.604   1.227   8.077
 1867POPC   C4A26130  44.727   0.980   7.715
 1867POPC   C1B26131  44.984   1.351   8.836
 1867POPC   C2B26132  44.896   1.513   8.426
 1867POPC   C3B26133   0.052   1.524   8.007
 1867POPC   C4B26134  44.805   1.463   7.641
 1868POPC   NC326135  25.464  17.182   9.490
 1868POPC   PO426136  25.098  17.729   9.453
 1868POPC   GL126137  25.316  17.560   9.151
 1868POPC   GL226138  25.150  17.247   9.091
 1868POPC   C1A26139  25.170  17.590   8.740
 1868POPC   D2A26140  25.037  17.370   8.380
 1868POPC   C3A26141  25.193  17.515   8.004
 1868POPC   C4A26142  25.083  17.191   7.801
 1868POPC   C1B26143  25.546  17.269   8.784
 1868POPC   C2B26144  25.546  17.379   8.378
 1868POPC   C3B26145  25.609  17.198   8.005
 1868POPC   C4B26146  25.547  17.349   7.608
 1869POPC   NC326147  15.322  44.004   9.577
 1869POPC   PO426148  15.408  43.390   9.289
 1869POPC   GL126149  15.241  43.817   9.108
 1869POPC   GL226150  15.377  44.193   9.116
 1869POPC   C1A26151  15.234  43.932   8.682
 1869POPC   D2A26152  14.996  43.809   8.335
 1869POPC   C3A26153  15.132  43.880   7.915
 1869POPC   C4A26154  14.939  43.737   7.532
 1869POPC   C1B26155  15.533  44.363   8.731
 1869POPC   C2B26156  15.603  44.169   8.319
 1869POPC   C3B26157  15.453  44.278   7.898
 1869POPC   C4B26158  15.413  44.306   7.440
 1870POPC   NC326159  15.535  11.986   9.678
 1870POPC   PO426160  16.119  12.258   9.554
 1870POPC   GL126161  15.870  12.273   9.193
 1870POPC   GL226162  15.812  11.920   9.165
 1870POPC   C1A26163  15.741  12.354   8.752
 1870POPC   D2A26164  15.755  12.232   8.308
 1870POPC   C3A26165  15.661  12.428   7.884
 1870POPC   C4A26166  15.879  12.508   7.480
 1870POPC   C1B26167  16.140  11.703   8.867
 1870POPC   C2B26168  16.060  11.813   8.428
 1870POPC   C3B26169  16.006  11.919   7.989
 1870POPC   C4B26170  16.317  11.854   7.664
 1871POPC   NC326171  22.244   7.368   9.493
 1871POPC   PO426172  21.595   7.538   9.748
 1871POPC   GL126173  21.807   7.550   9.276
 1871POPC   GL226174  22.010   7.286   9.060
 1871POPC   C1A26175  21.763   7.623   8.793
 1871POPC   D2A26176  21.898   7.247   8.532
 1871POPC   C3A26177  21.868   7.250   8.093
 1871POPC   C4A26178  21.930   7.657   7.949
 1871POPC   C1B26179  22.274   7.520   8.737
 1871POPC   C2B26180  22.271   7.559   8.314
 1871POPC   C3B26181  22.410   7.430   7.939
 1871POPC   C4B26182  22.651   7.216   7.653
 1872POPC   NC326183  43.226  18.844   9.805
 1872POPC   PO426184  42.843  18.751   9.352
 1872POPC   GL126185  43.159  19.008   9.101
 1872POPC   GL226186  43.075  19.343   8.934
 1872POPC   C1A26187  43.375  19.006   8.692
 1872POPC   D2A26188  43.476  19.232   8.303
 1872POPC   C3A26189  43.218  19.230   8.000
 1872POPC   C4A26190  43.428  19.200   7.669
 1872POPC   C1B26191  42.679  19.529   8.731
 1872POPC   C2B26192  42.571  19.614   8.269
 1872POPC   C3B26193  42.721  19.364   7.924
 1872POPC   C4B26194  42.947  19.129   7.559
 1873POPC   NC326195  28.142  17.035   9.359
 1873POPC   PO426196  27.997  17.672   9.556
 1873POPC   GL126197  28.258  17.753   9.155
 1873POPC   GL226198  28.638  17.756   9.230
 1873POPC   C1A26199  28.372  17.556   8.716
 1873POPC   D2A26200  28.328  17.210   8.389
 1873POPC   C3A26201  28.164  17.322   7.971
 1873POPC   C4A26202  27.925  17.379   7.568
 1873POPC   C1B26203  28.865  17.545   8.868
 1873POPC   C2B26204  28.818  17.420   8.431
 1873POPC   C3B26205  28.591  17.574   8.059
 1873POPC   C4B26206  28.417  17.488   7.586
 1874POPC   NC326207  28.238  44.143   9.584
 1874POPC   PO426208  28.767  43.677   9.379
 1874POPC   GL126209  28.485  43.902   9.158
 1874POPC   GL226210  28.171  43.795   9.193
 1874POPC   C1A26211  28.505  43.904   8.736
 1874POPC   D2A26212  28.318  43.753   8.387
 1874POPC   C3A26213  28.524  43.898   8.027
 1874POPC   C4A26214  28.438  43.682   7.680
 1874POPC   C1B26215  28.063  44.152   8.910
 1874POPC   C2B26216  27.904  44.123   8.488
 1874POPC   C3B26217  28.000  44.016   8.057
 1874POPC   C4B26218  28.136  44.188   7.682
 1875POPC   NC326219  14.371  25.424   9.314
 1875POPC   PO426220  13.992  24.940   9.558
 1875POPC   GL126221  14.234  24.956   9.095
 1875POPC   GL226222  14.577  24.765   9.082
 1875POPC   C1A26223  14.285  25.284   8.674
 1875POPC   D2A26224  14.478  25.633   8.391
 1875POPC   C3A26225  14.524  25.475   7.958
 1875POPC   C4A26226  14.132  25.291   7.779
 1875POPC   C1B26227  14.728  25.082   8.830
 1875POPC   C2B26228  14.739  25.192   8.407
 1875POPC   C3B26229  14.797  25.016   8.015
 1875POPC   C4B26230  14.560  25.007   7.681
 1876POPC   NC326231  36.650  25.709   9.366
 1876POPC   PO426232  37.146  26.175   9.464
 1876POPC   GL126233  36.917  26.070   9.123
 1876POPC   GL226234  37.104  25.785   9.075
 1876POPC   C1A26235  36.836  26.134   8.700
 1876POPC   D2A26236  37.000  26.291   8.320
 1876POPC   C3A26237  36.820  26.083   7.965
 1876POPC   C4A26238  36.763  25.815   7.590
 1876POPC   C1B26239  37.203  25.626   8.692
 1876POPC   C2B26240  37.060  25.787   8.304
 1876POPC   C3B26241  37.154  25.699   7.869
 1876POPC   C4B26242  37.189  25.658   7.392
 1877POPC   NC326243  42.452  36.928   9.583
 1877POPC   PO426244  41.816  37.191   9.369
 1877POPC   GL126245  42.044  36.948   9.049
 1877POPC   GL226246  42.363  36.806   9.112
 1877POPC   C1A26247  42.292  36.997   8.661
 1877POPC   D2A26248  42.439  36.811   8.299
 1877POPC   C3A26249  42.405  37.107   7.937
 1877POPC   C4A26250  42.037  37.153   7.687
 1877POPC   C1B26251  42.378  36.506   8.782
 1877POPC   C2B26252  42.645  36.340   8.475
 1877POPC   C3B26253  42.602  36.419   8.027
 1877POPC   C4B26254  42.266  36.643   7.790
 1878POPC   NC326255  23.932  31.798   9.593
 1878POPC   PO426256  23.408  31.363   9.759
 1878POPC   GL126257  23.342  31.392   9.311
 1878POPC   GL226258  23.720  31.433   9.220
 1878POPC   C1A26259  23.391  31.373   8.858
 1878POPC   D2A26260  23.603  31.275   8.479
 1878POPC   C3A26261  23.393  31.262   8.118
 1878POPC   C4A26262  23.473  31.450   7.719
 1878POPC   C1B26263  23.945  31.301   8.840
 1878POPC   C2B26264  24.072  31.500   8.453
 1878POPC   C3B26265  23.871  31.497   8.063
 1878POPC   C4B26266  23.982  31.412   7.655
 1879POPC   NC326267  33.042  41.233   9.510
 1879POPC   PO426268  32.584  41.664   9.605
 1879POPC   GL126269  32.927  41.716   9.254
 1879POPC   GL226270  32.933  41.405   9.039
 1879POPC   C1A26271  33.167  41.776   8.825
 1879POPC   D2A26272  32.826  41.591   8.554
 1879POPC   C3A26273  32.861  41.550   8.098
 1879POPC   C4A26274  33.234  41.778   7.907
 1879POPC   C1B26275  33.225  41.258   8.680
 1879POPC   C2B26276  33.110  41.113   8.230
 1879POPC   C3B26277  33.201  41.278   7.779
 1879POPC   C4B26278  33.340  41.141   7.349
 1880POPC   NC326279  16.637   0.002   9.447
 1880POPC   PO426280  17.056  44.762   9.928
 1880POPC   GL126281  16.769  44.529   9.377
 1880POPC   GL226282  16.625  44.711   9.055
 1880POPC   C1A26283  16.904  44.339   8.899
 1880POPC   D2A26284  16.859  44.282   8.421
 1880POPC   C3A26285  16.725  44.538   8.093
 1880POPC   C4A26286  16.679  44.482   7.651
 1880POPC   C1B26287  16.774  44.802   8.646
 1880POPC   C2B26288  16.534  44.970   8.300
 1880POPC   C3B26289  16.369  44.848   7.886
 1880POPC   C4B26290  16.438  44.960   7.441
 1881POPC   NC326291  13.962  42.263   9.704
 1881POPC   PO426292  13.357  42.540   9.636
 1881POPC   GL126293  13.477  42.488   9.195
 1881POPC   GL226294  13.840  42.533   9.150
 1881POPC   C1A26295  13.351  42.251   8.816
 1881POPC   D2A26296  13.181  42.187   8.410
 1881POPC   C3A26297  13.379  42.469   8.128
 1881POPC   C4A26298  13.567  42.302   7.735
 1881POPC   C1B26299  13.832  42.361   8.674
 1881POPC   C2B26300  13.873  42.357   8.202
 1881POPC   C3B26301  14.049  42.226   7.817
 1881POPC   C4B26302  13.952  42.203   7.386
 1882POPC   NC326303  32.246   8.053   9.349
 1882POPC   PO426304  32.162   7.299   9.502
 1882POPC   GL126305  32.300   7.252   9.116
 1882POPC   GL226306  32.386   7.617   9.085
 1882POPC   C1A26307  32.333   7.310   8.683
 1882POPC   D2A26308  32.054   7.372   8.344
 1882POPC   C3A26309  32.236   7.292   7.967
 1882POPC   C4A26310  32.438   7.133   7.603
 1882POPC   C1B26311  32.157   7.798   8.728
 1882POPC   C2B26312  32.289   7.810   8.309
 1882POPC   C3B26313  32.068   7.797   7.907
 1882POPC   C4B26314  32.168   7.578   7.505
 1883POPC   NC326315  18.170  38.451   9.495
 1883POPC   PO426316  18.786  38.790   9.372
 1883POPC   GL126317  18.497  38.583   9.131
 1883POPC   GL226318  18.450  38.226   9.149
 1883POPC   C1A26319  18.416  38.570   8.724
 1883POPC   D2A26320  18.489  38.784   8.383
 1883POPC   C3A26321  18.375  38.602   8.036
 1883POPC   C4A26322  18.468  38.863   7.713
 1883POPC   C1B26323  18.377  38.064   8.756
 1883POPC   C2B26324  18.222  38.194   8.364
 1883POPC   C3B26325  18.385  38.083   7.960
 1883POPC   C4B26326  18.341  38.336   7.594
 1884POPC   NC326327  43.072  20.977   9.594
 1884POPC   PO426328  43.020  21.590   9.592
 1884POPC   GL126329  43.195  21.419   9.212
 1884POPC   GL226330  43.133  21.077   9.090
 1884POPC   C1A26331  43.060  21.607   8.843
 1884POPC   D2A26332  42.823  21.546   8.487
 1884POPC   C3A26333  43.099  21.514   8.145
 1884POPC   C4A26334  42.920  21.640   7.758
 1884POPC   C1B26335  43.135  21.150   8.635
 1884POPC   C2B26336  43.468  21.107   8.337
 1884POPC   C3B26337  43.449  21.199   7.927
 1884POPC   C4B26338  43.060  21.124   7.783
 1885POPC   NC326339   9.286  38.658   9.430
 1885POPC   PO426340   8.747  38.327   9.659
 1885POPC   GL126341   8.752  38.307   9.214
 1885POPC   GL226342   8.855  38.642   9.164
 1885POPC   C1A26343   9.063  38.285   8.872
 1885POPC   D2A26344   9.178  38.057   8.532
 1885POPC   C3A26345   8.987  38.224   8.153
 1885POPC   C4A26346   9.246  38.451   7.858
 1885POPC   C1B26347   9.095  38.800   8.783
 1885POPC   C2B26348   8.917  38.782   8.375
 1885POPC   C3B26349   8.974  38.914   7.962
 1885POPC   C4B26350   9.008  38.733   7.532
 1886POPC   NC326351   8.565  25.418   9.513
 1886POPC   PO426352   7.992  25.040   9.602
 1886POPC   GL126353   8.133  24.938   9.184
 1886POPC   GL226354   8.502  25.021   9.152
 1886POPC   C1A26355   8.051  25.125   8.766
 1886POPC   D2A26356   8.257  25.084   8.369
 1886POPC   C3A26357   8.020  25.016   7.997
 1886POPC   C4A26358   8.117  25.152   7.610
 1886POPC   C1B26359   8.504  25.403   8.855
 1886POPC   C2B26360   8.378  25.566   8.445
 1886POPC   C3B26361   8.358  25.442   7.980
 1886POPC   C4B26362   8.450  25.533   7.520
 1887POPC   NC326363   1.504  42.687   9.472
 1887POPC   PO426364   1.154  42.060   9.375
 1887POPC   GL126365   1.208  42.446   9.120
 1887POPC   GL226366   0.955  42.726   9.199
 1887POPC   C1A26367   1.276  42.509   8.667
 1887POPC   D2A26368   0.970  42.237   8.403
 1887POPC   C3A26369   1.085  42.052   8.003
 1887POPC   C4A26370   1.138  42.056   7.589
 1887POPC   C1B26371   0.794  42.656   8.778
 1887POPC   C2B26372   0.949  42.739   8.329
 1887POPC   C3B26373   1.187  42.598   7.934
 1887POPC   C4B26374   1.070  42.551   7.460
 1888POPC   NC326375   0.537  18.515   9.557
 1888POPC   PO426376   0.441  17.854   9.673
 1888POPC   GL126377   0.390  18.117   9.262
 1888POPC   GL226378   0.658  18.202   9.152
 1888POPC   C1A26379   0.192  18.156   8.825
 1888POPC   D2A26380   0.204  18.389   8.381
 1888POPC   C3A26381   0.332  18.140   7.969
 1888POPC   C4A26382   0.229  17.895   7.579
 1888POPC   C1B26383   0.623  18.414   8.745
 1888POPC   C2B26384   0.846  18.744   8.567
 1888POPC   C3B26385   0.781  18.872   8.153
 1888POPC   C4B26386   0.650  18.552   7.857
 1889POPC   NC326387   2.995  13.585   9.492
 1889POPC   PO426388   2.568  14.069   9.423
 1889POPC   GL126389   2.685  13.759   9.130
 1889POPC   GL226390   3.046  13.787   9.026
 1889POPC   C1A26391   2.663  13.596   8.735
 1889POPC   D2A26392   2.392  13.678   8.403
 1889POPC   C3A26393   2.635  13.557   8.076
 1889POPC   C4A26394   2.822  13.610   7.708
 1889POPC   C1B26395   3.160  13.421   8.766
 1889POPC   C2B26396   2.971  13.355   8.400
 1889POPC   C3B26397   2.907  13.114   8.083
 1889POPC   C4B26398   3.038  13.142   7.710
 1890POPC   NC326399   2.505  12.734   9.506
 1890POPC   PO426400   3.005  13.171   9.315
 1890POPC   GL126401   2.869  12.843   9.152
 1890POPC   GL226402   2.545  13.015   9.083
 1890POPC   C1A26403   3.125  12.730   8.824
 1890POPC   D2A26404   3.217  12.904   8.451
 1890POPC   C3A26405   3.122  12.635   8.143
 1890POPC   C4A26406   2.945  12.649   7.771
 1890POPC   C1B26407   2.723  13.008   8.683
 1890POPC   C2B26408   2.655  12.742   8.333
 1890POPC   C3B26409   2.497  12.863   7.924
 1890POPC   C4B26410   2.516  13.198   7.685
 1891POPC   NC326411  16.016  18.630   9.533
 1891POPC   PO426412  15.734  18.011   9.550
 1891POPC   GL126413  15.809  18.303   9.162
 1891POPC   GL226414  16.149  18.429   9.075
 1891POPC   C1A26415  15.838  18.327   8.686
 1891POPC   D2A26416  15.827  18.581   8.299
 1891POPC   C3A26417  15.814  18.308   7.901
 1891POPC   C4A26418  16.009  17.911   7.766
 1891POPC   C1B26419  16.266  18.607   8.671
 1891POPC   C2B26420  16.204  18.925   8.357
 1891POPC   C3B26421  16.281  18.744   7.964
 1891POPC   C4B26422  16.367  18.287   7.893
 1892POPC   NC326423  26.057  30.931   9.703
 1892POPC   PO426424  26.084  31.590   9.689
 1892POPC   GL126425  26.213  31.660   9.296
 1892POPC   GL226426  26.083  31.324   9.222
 1892POPC   C1A26427  26.092  31.727   8.880
 1892POPC   D2A26428  26.149  31.550   8.473
 1892POPC   C3A26429  26.005  31.729   8.149
 1892POPC   C4A26430  25.940  31.720   7.719
 1892POPC   C1B26431  25.927  31.247   8.804
 1892POPC   C2B26432  25.685  31.303   8.418
 1892POPC   C3B26433  25.764  31.303   7.976
 1892POPC   C4B26434  25.840  31.250   7.522
 1893POPC   NC326435   3.652  33.573   9.412
 1893POPC   PO426436   3.082  34.037   9.585
 1893POPC   GL126437   3.270  33.869   9.212
 1893POPC   GL226438   3.613  34.008   9.126
 1893POPC   C1A26439   3.361  33.714   8.781
 1893POPC   D2A26440   3.401  33.970   8.412
 1893POPC   C3A26441   3.441  33.863   7.981
 1893POPC   C4A26442   3.443  33.608   7.633
 1893POPC   C1B26443   3.746  34.186   8.756
 1893POPC   C2B26444   3.939  34.143   8.357
 1893POPC   C3B26445   3.823  34.253   7.948
 1893POPC   C4B26446   3.711  34.041   7.562
 1894POPC   NC326447   9.867  38.548   9.670
 1894POPC   PO426448   9.394  38.195   9.461
 1894POPC   GL126449   9.663  38.430   9.183
 1894POPC   GL226450  10.012  38.415   9.202
 1894POPC   C1A26451   9.527  38.503   8.786
 1894POPC   D2A26452   9.369  38.513   8.369
 1894POPC   C3A26453   9.523  38.117   8.144
 1894POPC   C4A26454   9.653  38.150   7.715
 1894POPC   C1B26455  10.042  38.584   8.787
 1894POPC   C2B26456   9.871  38.434   8.409
 1894POPC   C3B26457   9.770  38.543   8.001
 1894POPC   C4B26458  10.040  38.665   7.666
 1895POPC   NC326459  27.443  27.099   9.361
 1895POPC   PO426460  27.551  26.433   9.613
 1895POPC   GL126461  27.353  26.584   9.247
 1895POPC   GL226462  27.659  26.700   9.096
 1895POPC   C1A26463  27.241  26.615   8.803
 1895POPC   D2A26464  27.382  26.911   8.500
 1895POPC   C3A26465  27.413  26.827   8.077
 1895POPC   C4A26466  27.723  26.695   7.824
 1895POPC   C1B26467  27.847  26.753   8.676
 1895POPC   C2B26468  27.876  26.938   8.281
 1895POPC   C3B26469  27.858  27.233   7.936
 1895POPC   C4B26470  28.011  27.355   7.524
 1896POPC   NC326471  38.610  18.437   9.486
 1896POPC   PO426472  38.217  17.870   9.520
 1896POPC   GL126473  38.327  18.129   9.178
 1896POPC   GL226474  38.639  18.010   9.102
 1896POPC   C1A26475  38.457  18.389   8.801
 1896POPC   D2A26476  38.567  18.644   8.435
 1896POPC   C3A26477  38.346  18.462   8.092
 1896POPC   C4A26478  38.215  18.040   8.020
 1896POPC   C1B26479  38.845  18.028   8.718
 1896POPC   C2B26480  38.609  18.090   8.364
 1896POPC   C3B26481  38.718  18.107   7.947
 1896POPC   C4B26482  38.905  17.945   7.579
 1897POPC   NC326483  29.423  25.774   9.528
 1897POPC   PO426484  29.263  26.446   9.607
 1897POPC   GL126485  29.288  26.207   9.220
 1897POPC   GL226486  28.999  26.003   9.319
 1897POPC   C1A26487  29.181  26.186   8.762
 1897POPC   D2A26488  29.056  26.281   8.302
 1897POPC   C3A26489  29.140  25.991   7.942
 1897POPC   C4A26490  29.111  26.043   7.504
 1897POPC   C1B26491  28.863  25.831   8.939
 1897POPC   C2B26492  28.894  25.835   8.507
 1897POPC   C3B26493  28.713  25.837   8.140
 1897POPC   C4B26494  28.570  25.857   7.741
 1898POPC   NC326495  15.154  41.817   9.434
 1898POPC   PO426496  14.700  41.245   9.527
 1898POPC   GL126497  14.986  41.319   9.173
 1898POPC   GL226498  15.330  41.433   9.158
 1898POPC   C1A26499  15.106  41.240   8.741
 1898POPC   D2A26500  14.902  41.465   8.426
 1898POPC   C3A26501  15.088  41.406   8.035
 1898POPC   C4A26502  15.151  41.653   7.679
 1898POPC   C1B26503  15.357  41.714   8.818
 1898POPC   C2B26504  15.401  41.650   8.397
 1898POPC   C3B26505  15.435  41.884   8.039
 1898POPC   C4B26506  15.640  41.842   7.672
 1899POPC   NC326507  16.306  11.783   9.548
 1899POPC   PO426508  16.835  12.198   9.549
 1899POPC   GL126509  16.756  11.991   9.208
 1899POPC   GL226510  16.418  12.083   9.158
 1899POPC   C1A26511  16.846  11.838   8.813
 1899POPC   D2A26512  16.562  11.877   8.478
 1899POPC   C3A26513  16.776  11.881   8.085
 1899POPC   C4A26514  16.774  12.115   7.692
 1899POPC   C1B26515  16.205  12.182   8.802
 1899POPC   C2B26516  16.253  12.343   8.420
 1899POPC   C3B26517  16.391  12.228   8.052
 1899POPC   C4B26518  16.356  12.404   7.669
 1900POPC   NC326519   9.189  25.723   9.530
 1900POPC   PO426520   8.898  25.096   9.537
 1900POPC   GL126521   9.131  25.127   9.189
 1900POPC   GL226522   8.986  24.843   9.063
 1900POPC   C1A26523   9.162  25.353   8.825
 1900POPC   D2A26524   8.908  25.516   8.515
 1900POPC   C3A26525   9.066  25.511   8.111
 1900POPC   C4A26526   8.932  25.594   7.686
 1900POPC   C1B26527   8.786  25.011   8.705
 1900POPC   C2B26528   8.841  25.068   8.276
 1900POPC   C3B26529   9.045  25.060   7.885
 1900POPC   C4B26530   8.733  25.108   7.597
 1901POPC   NC326531   7.146  44.519   9.695
 1901POPC   PO426532   7.481   0.052   9.547
 1901POPC   GL126533   7.437  44.708   9.194
 1901POPC   GL226534   7.220  44.416   9.174
 1901POPC   C1A26535   7.482  44.585   8.744
 1901POPC   D2A26536   7.337  44.821   8.368
 1901POPC   C3A26537   7.440  44.723   7.945
 1901POPC   C4A26538   7.615  44.887   7.538
 1901POPC   C1B26539   7.040  44.300   8.755
 1901POPC   C2B26540   6.983  44.351   8.317
 1901POPC   C3B26541   7.149  44.313   7.890
 1901POPC   C4B26542   7.308  44.482   7.493
 1902POPC   NC326543  26.648  26.419   9.409
 1902POPC   PO426544  27.039  26.909   9.502
 1902POPC   GL126545  26.854  26.798   9.128
 1902POPC   GL226546  26.524  26.912   9.191
 1902POPC   C1A26547  26.735  26.613   8.735
 1902POPC   D2A26548  26.908  26.688   8.318
 1902POPC   C3A26549  26.623  26.577   7.992
 1902POPC   C4A26550  26.746  26.550   7.586
 1902POPC   C1B26551  26.502  27.060   8.799
 1902POPC   C2B26552  26.921  27.098   8.618
 1902POPC   C3B26553  27.058  27.171   8.188
 1902POPC   C4B26554  27.023  26.961   7.775
 1903POPC   NC326555   9.494  22.400   9.514
 1903POPC   PO426556   9.995  22.092   9.302
 1903POPC   GL126557   9.782  22.255   8.983
 1903POPC   GL226558   9.411  22.293   9.022
 1903POPC   C1A26559   9.878  22.014   8.638
 1903POPC   D2A26560  10.042  21.975   8.266
 1903POPC   C3A26561   9.812  22.063   7.891
 1903POPC   C4A26562   9.968  22.135   7.478
 1903POPC   C1B26563   9.382  21.940   8.744
 1903POPC   C2B26564   9.498  21.903   8.304
 1903POPC   C3B26565   9.321  22.175   8.012
 1903POPC   C4B26566   9.547  22.540   7.844
 1904POPC   NC326567  20.617   3.924   9.577
 1904POPC   PO426568  20.595   3.304   9.483
 1904POPC   GL126569  20.777   3.567   9.190
 1904POPC   GL226570  20.511   3.756   9.080
 1904POPC   C1A26571  20.909   3.435   8.792
 1904POPC   D2A26572  20.645   3.548   8.470
 1904POPC   C3A26573  20.590   3.344   8.092
 1904POPC   C4A26574  20.592   3.675   7.810
 1904POPC   C1B26575  20.379   3.943   8.671
 1904POPC   C2B26576  20.330   3.880   8.212
 1904POPC   C3B26577  20.205   4.018   7.793
 1904POPC   C4B26578  20.194   3.705   7.433
 1905POPC   NC326579  10.171  43.949   9.471
 1905POPC   PO426580   9.600  44.156   9.734
 1905POPC   GL126581   9.628  43.998   9.290
 1905POPC   GL226582   9.610  43.618   9.268
 1905POPC   C1A26583   9.820  44.058   8.855
 1905POPC   D2A26584   9.626  44.011   8.419
 1905POPC   C3A26585   9.844  44.165   8.053
 1905POPC   C4A26586   9.807  43.839   7.773
 1905POPC   C1B26587   9.488  43.662   8.826
 1905POPC   C2B26588   9.482  43.491   8.409
 1905POPC   C3B26589   9.332  43.462   7.980
 1905POPC   C4B26590   9.467  43.518   7.571
 1906POPC   NC326591  44.375  35.099   9.471
 1906POPC   PO426592  43.696  35.254   9.561
 1906POPC   GL126593  43.929  35.231   9.163
 1906POPC   GL226594  44.085  35.543   9.046
 1906POPC   C1A26595  44.219  35.101   8.829
 1906POPC   D2A26596  44.323  35.054   8.402
 1906POPC   C3A26597  44.102  35.285   8.097
 1906POPC   C4A26598  43.906  35.122   7.719
 1906POPC   C1B26599  43.944  35.477   8.598
 1906POPC   C2B26600  43.629  35.424   8.278
 1906POPC   C3B26601  43.592  35.514   7.850
 1906POPC   C4B26602  44.018  35.619   7.709
 1907POPC   NC326603  22.458  40.151   9.393
 1907POPC   PO426604  21.880  40.319   9.600
 1907POPC   GL126605  21.965  40.085   9.207
 1907POPC   GL226606  22.241  39.871   9.046
 1907POPC   C1A26607  21.855  40.101   8.776
 1907POPC   D2A26608  21.797  39.858   8.422
 1907POPC   C3A26609  21.953  40.076   8.056
 1907POPC   C4A26610  22.061  40.214   7.631
 1907POPC   C1B26611  22.347  40.256   8.787
 1907POPC   C2B26612  22.215  40.308   8.416
 1907POPC   C3B26613  22.330  40.418   8.027
 1907POPC   C4B26614  22.545  40.360   7.689
 1908POPC   NC326615  10.334  20.888   9.492
 1908POPC   PO426616  10.848  20.508   9.586
 1908POPC   GL126617  10.669  20.486   9.184
 1908POPC   GL226618  10.359  20.602   9.079
 1908POPC   C1A26619  10.782  20.538   8.767
 1908POPC   D2A26620  10.764  20.235   8.441
 1908POPC   C3A26621  10.700  20.435   8.019
 1908POPC   C4A26622  10.594  20.755   7.675
 1908POPC   C1B26623  10.434  20.903   8.751
 1908POPC   C2B26624  10.631  20.797   8.355
 1908POPC   C3B26625  10.307  20.846   8.074
 1908POPC   C4B26626  10.126  21.033   7.699
 1909POPC   NC326627  27.307   9.200   9.551
 1909POPC   PO426628  27.920   8.936   9.438
 1909POPC   GL126629  27.744   9.182   9.138
 1909POPC   GL226630  27.422   9.262   9.034
 1909POPC   C1A26631  27.902   9.161   8.759
 1909POPC   D2A26632  27.963   8.827   8.505
 1909POPC   C3A26633  27.794   9.062   8.204
 1909POPC   C4A26634  27.713   8.882   7.847
 1909POPC   C1B26635  27.475   8.850   8.760
 1909POPC   C2B26636  27.463   8.678   8.306
 1909POPC   C3B26637  27.256   8.664   7.904
 1909POPC   C4B26638  27.322   8.929   7.502
 1910POPC   NC326639  12.370  36.554   9.495
 1910POPC   PO426640  12.034  37.178   9.512
 1910POPC   GL126641  12.043  36.847   9.191
 1910POPC   GL226642  12.367  36.821   9.041
 1910POPC   C1A26643  11.908  36.768   8.758
 1910POPC   D2A26644  12.016  36.664   8.316
 1910POPC   C3A26645  11.820  36.903   7.986
 1910POPC   C4A26646  12.019  37.086   7.583
 1910POPC   C1B26647  12.386  37.151   8.741
 1910POPC   C2B26648  12.365  37.181   8.311
 1910POPC   C3B26649  12.328  36.970   7.976
 1910POPC   C4B26650  12.593  36.793   7.685
 1911POPC   NC326651   5.731  37.035   9.689
 1911POPC   PO426652   5.957  36.444   9.494
 1911POPC   GL126653   5.802  36.739   9.169
 1911POPC   GL226654   5.857  37.095   9.204
 1911POPC   C1A26655   5.704  36.775   8.735
 1911POPC   D2A26656   5.931  36.908   8.366
 1911POPC   C3A26657   6.027  36.649   7.991
 1911POPC   C4A26658   5.679  36.458   7.737
 1911POPC   C1B26659   5.993  37.198   8.804
 1911POPC   C2B26660   6.093  37.417   8.430
 1911POPC   C3B26661   5.844  37.322   8.068
 1911POPC   C4B26662   5.599  36.924   7.939
 1912POPC   NC326663  34.698   2.225   9.342
 1912POPC   PO426664  34.363   1.687   9.296
 1912POPC   GL126665  34.570   1.887   8.994
 1912POPC   GL226666  34.893   1.783   9.131
 1912POPC   C1A26667  34.539   2.119   8.623
 1912POPC   D2A26668  34.246   2.406   8.436
 1912POPC   C3A26669  34.355   2.352   8.030
 1912POPC   C4A26670  34.319   2.046   7.738
 1912POPC   C1B26671  35.018   2.045   8.810
 1912POPC   C2B26672  35.074   2.079   8.435
 1912POPC   C3B26673  34.773   2.032   8.151
 1912POPC   C4B26674  34.854   2.108   7.759
 1913POPC   NC326675  29.660  13.632   9.446
 1913POPC   PO426676  29.023  13.791   9.519
 1913POPC   GL126677  28.992  13.724   9.111
 1913POPC   GL226678  29.097  13.379   9.173
 1913POPC   C1A26679  29.084  13.760   8.655
 1913POPC   D2A26680  29.358  13.891   8.299
 1913POPC   C3A26681  29.054  13.864   7.948
 1913POPC   C4A26682  28.947  13.442   7.750
 1913POPC   C1B26683  29.409  13.410   8.850
 1913POPC   C2B26684  29.348  13.337   8.403
 1913POPC   C3B26685  29.390  13.477   7.996
 1913POPC   C4B26686  29.698  13.361   7.769
 1914POPC   NC326687  28.350   3.289   9.607
 1914POPC   PO426688  28.544   4.015   9.580
 1914POPC   GL126689  28.405   3.665   9.236
 1914POPC   GL226690  28.614   3.408   9.178
 1914POPC   C1A26691  28.161   3.374   8.935
 1914POPC   D2A26692  28.264   3.299   8.501
 1914POPC   C3A26693  28.120   3.511   8.124
 1914POPC   C4A26694  28.181   3.316   7.734
 1914POPC   C1B26695  28.612   3.582   8.760
 1914POPC   C2B26696  28.586   3.691   8.328
 1914POPC   C3B26697  28.642   3.533   7.909
 1914POPC   C4B26698  28.725   3.196   7.590
 1915POPC   NC326699  11.141  17.083   9.459
 1915POPC   PO426700  11.122  16.372   9.470
 1915POPC   GL126701  11.241  16.662   9.194
 1915POPC   GL226702  10.887  16.748   9.186
 1915POPC   C1A26703  11.448  16.861   8.843
 1915POPC   D2A26704  11.461  16.542   8.515
 1915POPC   C3A26705  11.357  16.611   8.129
 1915POPC   C4A26706  11.501  16.909   7.810
 1915POPC   C1B26707  10.954  16.691   8.760
 1915POPC   C2B26708  11.089  16.995   8.471
 1915POPC   C3B26709  11.038  17.002   8.035
 1915POPC   C4B26710  11.048  16.666   7.738
 1916POPC   NC326711  10.682   6.994   9.851
 1916POPC   PO426712  10.411   7.428   9.396
 1916POPC   GL126713  10.544   7.456   9.037
 1916POPC   GL226714  10.849   7.568   9.128
 1916POPC   C1A26715  10.323   7.535   8.695
 1916POPC   D2A26716  10.324   7.308   8.332
 1916POPC   C3A26717  10.420   7.521   7.948
 1916POPC   C4A26718  10.367   7.421   7.507
 1916POPC   C1B26719  10.969   7.299   8.800
 1916POPC   C2B26720  10.797   7.099   8.465
 1916POPC   C3B26721  10.853   7.287   8.091
 1916POPC   C4B26722  10.742   7.128   7.695
 1917POPC   NC326723  41.418  34.918   9.307
 1917POPC   PO426724  41.471  35.538   9.333
 1917POPC   GL126725  41.476  35.280   8.967
 1917POPC   GL226726  41.232  35.020   8.858
 1917POPC   C1A26727  41.526  35.293   8.542
 1917POPC   D2A26728  41.870  35.499   8.398
 1917POPC   C3A26729  41.899  35.632   8.018
 1917POPC   C4A26730  41.571  35.569   7.736
 1917POPC   C1B26731  41.083  35.485   8.744
 1917POPC   C2B26732  41.125  35.552   8.313
 1917POPC   C3B26733  41.378  35.237   8.058
 1917POPC   C4B26734  41.376  35.107   7.636
 1918POPC   NC326735   0.595  34.117   9.565
 1918POPC   PO426736   0.795  34.785   9.688
 1918POPC   GL126737   0.531  34.553   9.338
 1918POPC   GL226738   0.796  34.387   9.179
 1918POPC   C1A26739   0.370  34.536   8.882
 1918POPC   D2A26740   0.215  34.786   8.525
 1918POPC   C3A26741   0.204  34.621   8.100
 1918POPC   C4A26742   0.158  34.846   7.714
 1918POPC   C1B26743   0.859  34.405   8.758
 1918POPC   C2B26744   0.692  34.579   8.374
 1918POPC   C3B26745   0.695  34.666   7.929
 1918POPC   C4B26746   0.913  34.473   7.565
 1919POPC   NC326747  26.686  27.242   9.552
 1919POPC   PO426748  27.155  27.812   9.479
 1919POPC   GL126749  27.000  27.669   9.132
 1919POPC   GL226750  26.976  27.310   9.115
 1919POPC   C1A26751  27.134  27.829   8.759
 1919POPC   D2A26752  27.029  27.625   8.406
 1919POPC   C3A26753  27.002  27.794   8.026
 1919POPC   C4A26754  26.781  27.524   7.771
 1919POPC   C1B26755  26.706  27.521   8.784
 1919POPC   C2B26756  26.570  27.373   8.382
 1919POPC   C3B26757  26.591  27.089   8.066
 1919POPC   C4B26758  26.552  27.081   7.653
 1920POPC   NC326759  25.693   1.048   9.510
 1920POPC   PO426760  26.171   1.452   9.520
 1920POPC   GL126761  25.896   1.453   9.136
 1920POPC   GL226762  25.741   1.135   9.005
 1920POPC   C1A26763  25.987   1.416   8.682
 1920POPC   D2A26764  25.839   1.226   8.334
 1920POPC   C3A26765  26.094   1.354   8.023
 1920POPC   C4A26766  25.934   1.680   7.751
 1920POPC   C1B26767  26.040   0.900   8.761
 1920POPC   C2B26768  26.143   0.778   8.353
 1920POPC   C3B26769  25.972   0.857   7.975
 1920POPC   C4B26770  26.034   1.037   7.584
 1921POPC   NC326771  39.519  11.308   9.637
 1921POPC   PO426772  38.960  10.960   9.728
 1921POPC   GL126773  39.153  11.096   9.322
 1921POPC   GL226774  39.250  11.423   9.216
 1921POPC   C1A26775  39.223  11.069   8.851
 1921POPC   D2A26776  39.095  11.327   8.478
 1921POPC   C3A26777  39.215  11.172   8.079
 1921POPC   C4A26778  39.348  10.972   7.715
 1921POPC   C1B26779  39.356  11.595   8.838
 1921POPC   C2B26780  39.567  11.646   8.468
 1921POPC   C3B26781  39.332  11.675   8.106
 1921POPC   C4B26782  39.339  11.510   7.690
 1922POPC   NC326783  11.993  16.707   9.936
 1922POPC   PO426784  12.350  17.099   9.468
 1922POPC   GL126785  12.084  16.860   9.114
 1922POPC   GL226786  11.772  16.706   9.274
 1922POPC   C1A26787  11.949  16.909   8.637
 1922POPC   D2A26788  11.843  16.774   8.191
 1922POPC   C3A26789  12.167  16.725   7.921
 1922POPC   C4A26790  12.344  16.925   7.544
 1922POPC   C1B26791  11.806  16.483   8.871
 1922POPC   C2B26792  11.971  16.384   8.475
 1922POPC   C3B26793  11.951  16.261   8.072
 1922POPC   C4B26794  11.688  16.440   7.780
 1923POPC   NC326795  31.801   8.828   9.579
 1923POPC   PO426796  31.172   8.628   9.489
 1923POPC   GL126797  31.457   8.807   9.208
 1923POPC   GL226798  31.225   9.042   9.095
 1923POPC   C1A26799  31.680   8.985   8.872
 1923POPC   D2A26800  31.443   9.121   8.495
 1923POPC   C3A26801  31.589   8.814   8.216
 1923POPC   C4A26802  31.512   8.617   7.847
 1923POPC   C1B26803  31.060   9.345   8.813
 1923POPC   C2B26804  31.061   9.511   8.403
 1923POPC   C3B26805  31.123   9.219   8.077
 1923POPC   C4B26806  31.403   9.132   7.808
 1924POPC   NC326807   7.792  43.830   9.496
 1924POPC   PO426808   7.254  44.105   9.847
 1924POPC   GL126809   7.291  43.943   9.355
 1924POPC   GL226810   7.290  43.601   9.146
 1924POPC   C1A26811   7.421  44.014   8.888
 1924POPC   D2A26812   7.426  44.125   8.450
 1924POPC   C3A26813   7.215  43.865   8.129
 1924POPC   C4A26814   7.471  43.927   7.750
 1924POPC   C1B26815   7.649  43.581   8.772
 1924POPC   C2B26816   7.654  43.660   8.346
 1924POPC   C3B26817   7.533  43.469   7.991
 1924POPC   C4B26818   7.707  43.421   7.625
 1925POPC   NC326819   3.993   0.127   9.420
 1925POPC   PO426820   4.410   0.650   9.577
 1925POPC   GL126821   4.315   0.470   9.188
 1925POPC   GL226822   3.991   0.525   9.064
 1925POPC   C1A26823   4.510   0.367   8.799
 1925POPC   D2A26824   4.677   0.555   8.412
 1925POPC   C3A26825   4.574   0.368   8.020
 1925POPC   C4A26826   4.547   0.634   7.675
 1925POPC   C1B26827   4.013   0.216   8.747
 1925POPC   C2B26828   4.113   0.053   8.345
 1925POPC   C3B26829   3.885   0.051   7.962
 1925POPC   C4B26830   4.201   0.193   7.679
 1926POPC   NC326831   2.182  42.205   9.533
 1926POPC   PO426832   1.490  42.288   9.709
 1926POPC   GL126833   1.689  42.232   9.260
 1926POPC   GL226834   1.717  42.537   9.034
 1926POPC   C1A26835   1.817  42.084   8.833
 1926POPC   D2A26836   1.799  42.443   8.534
 1926POPC   C3A26837   1.824  42.427   8.096
 1926POPC   C4A26838   2.034  42.260   7.760
 1926POPC   C1B26839   2.171  42.458   8.890
 1926POPC   C2B26840   2.332  42.354   8.504
 1926POPC   C3B26841   2.362  42.475   8.089
 1926POPC   C4B26842   2.135  42.780   7.841
 1927POPC   NC326843  31.179  27.235   9.521
 1927POPC   PO426844  31.416  27.881   9.526
 1927POPC   GL126845  31.340  27.591   9.183
 1927POPC   GL226846  31.609  27.335   9.186
 1927POPC   C1A26847  31.427  27.545   8.747
 1927POPC   D2A26848  31.671  27.754   8.440
 1927POPC   C3A26849  31.481  27.678   8.048
 1927POPC   C4A26850  31.336  27.898   7.698
 1927POPC   C1B26851  31.677  27.093   8.790
 1927POPC   C2B26852  31.639  27.239   8.345
 1927POPC   C3B26853  31.746  27.291   7.896
 1927POPC   C4B26854  31.778  27.635   7.612
 1928POPC   NC326855  22.302  43.158   9.543
 1928POPC   PO426856  23.020  43.178   9.634
 1928POPC   GL126857  22.967  43.130   9.177
 1928POPC   GL226858  22.611  43.174   9.140
 1928POPC   C1A26859  23.000  42.901   8.762
 1928POPC   D2A26860  22.809  42.899   8.350
 1928POPC   C3A26861  22.915  43.012   7.913
 1928POPC   C4A26862  22.590  42.980   7.596
 1928POPC   C1B26863  22.715  43.339   8.758
 1928POPC   C2B26864  23.085  43.345   8.502
 1928POPC   C3B26865  23.125  43.474   8.107
 1928POPC   C4B26866  23.419  43.391   7.815
 1929POPC   NC326867  10.513  39.864   9.558
 1929POPC   PO426868  10.806  40.431   9.286
 1929POPC   GL126869  10.623  40.097   9.077
 1929POPC   GL226870  10.294  39.979   9.107
 1929POPC   C1A26871  10.641  40.167   8.649
 1929POPC   D2A26872  10.810  40.078   8.278
 1929POPC   C3A26873  10.513  40.301   8.050
 1929POPC   C4A26874  10.450  40.321   7.646
 1929POPC   C1B26875  10.361  39.754   8.736
 1929POPC   C2B26876  10.325  39.869   8.287
 1929POPC   C3B26877  10.463  39.825   7.853
 1929POPC   C4B26878  10.363  39.615   7.461
 1930POPC   NC326879  25.318  19.046   9.533
 1930POPC   PO426880  24.629  18.944   9.417
 1930POPC   GL126881  24.970  18.945   9.121
 1930POPC   GL226882  25.154  19.263   9.117
 1930POPC   C1A26883  25.016  19.066   8.683
 1930POPC   D2A26884  25.105  18.839   8.323
 1930POPC   C3A26885  25.082  19.097   7.986
 1930POPC   C4A26886  24.941  19.060   7.589
 1930POPC   C1B26887  25.491  19.345   8.831
 1930POPC   C2B26888  25.448  19.236   8.403
 1930POPC   C3B26889  25.460  19.445   7.996
 1930POPC   C4B26890  25.435  19.222   7.581
 1931POPC   NC326891  11.537  38.793   9.388
 1931POPC   PO426892  11.086  38.373   9.586
 1931POPC   GL126893  11.180  38.358   9.151
 1931POPC   GL226894  11.190  38.014   9.080
 1931POPC   C1A26895  11.214  38.639   8.819
 1931POPC   D2A26896  11.401  38.685   8.435
 1931POPC   C3A26897  11.240  38.481   8.079
 1931POPC   C4A26898  11.310  38.700   7.687
 1931POPC   C1B26899  11.334  38.156   8.663
 1931POPC   C2B26900  11.645  38.205   8.329
 1931POPC   C3B26901  11.673  38.308   7.881
 1931POPC   C4B26902  11.390  38.245   7.498
 1932POPC   NC326903  28.725  37.767   9.486
 1932POPC   PO426904  29.278  37.400   9.457
 1932POPC   GL126905  29.216  37.629   9.123
 1932POPC   GL226906  28.921  37.413   9.082
 1932POPC   C1A26907  29.509  37.692   8.783
 1932POPC   D2A26908  29.555  37.522   8.378
 1932POPC   C3A26909  29.299  37.816   8.181
 1932POPC   C4A26910  29.093  38.017   7.845
 1932POPC   C1B26911  29.045  37.510   8.652
 1932POPC   C2B26912  28.982  37.404   8.255
 1932POPC   C3B26913  29.027  37.499   7.845
 1932POPC   C4B26914  29.301  37.293   7.589
 1933POPC   NC326915   1.637   9.514   9.444
 1933POPC   PO426916   1.365   8.915   9.351
 1933POPC   GL126917   1.029   8.850   9.023
 1933POPC   GL226918   1.151   9.187   8.945
 1933POPC   C1A26919   0.964   8.885   8.563
 1933POPC   D2A26920   1.205   9.201   8.338
 1933POPC   C3A26921   1.227   9.154   7.915
 1933POPC   C4A26922   0.989   8.783   7.754
 1933POPC   C1B26923   1.438   8.895   8.718
 1933POPC   C2B26924   1.442   8.720   8.322
 1933POPC   C3B26925   1.625   8.837   7.950
 1933POPC   C4B26926   1.669   9.133   7.590
 1934POPC   NC326927   0.813  14.167   9.535
 1934POPC   PO426928   0.285  14.503   9.526
 1934POPC   GL126929   0.246  14.604   9.138
 1934POPC   GL226930  44.954  14.366   9.093
 1934POPC   C1A26931   0.426  14.535   8.724
 1934POPC   D2A26932   0.483  14.259   8.382
 1934POPC   C3A26933   0.739  14.432   8.084
 1934POPC   C4A26934   0.717  14.517   7.680
 1934POPC   C1B26935  44.939  14.663   8.754
 1934POPC   C2B26936   0.011  14.496   8.336
 1934POPC   C3B26937   0.244  14.518   7.951
 1934POPC   C4B26938   0.272  14.339   7.509
 1935POPC   NC326939  36.988   4.385   9.629
 1935POPC   PO426940  36.478   3.993   9.443
 1935POPC   GL126941  36.844   4.105   9.198
 1935POPC   GL226942  36.944   4.470   9.117
 1935POPC   C1A26943  36.810   4.104   8.766
 1935POPC   D2A26944  36.732   4.308   8.384
 1935POPC   C3A26945  36.700   3.993   8.083
 1935POPC   C4A26946  36.917   4.106   7.717
 1935POPC   C1B26947  37.229   4.391   8.762
 1935POPC   C2B26948  37.387   4.496   8.400
 1935POPC   C3B26949  37.134   4.469   8.049
 1935POPC   C4B26950  37.315   4.441   7.673
 1936POPC   NC326951  13.238  23.975   9.702
 1936POPC   PO426952  12.779  23.542   9.521
 1936POPC   GL126953  12.768  23.763   9.171
 1936POPC   GL226954  12.877  23.478   8.997
 1936POPC   C1A26955  12.680  23.910   8.759
 1936POPC   D2A26956  12.894  23.880   8.369
 1936POPC   C3A26957  12.564  23.875   8.087
 1936POPC   C4A26958  12.579  23.899   7.686
 1936POPC   C1B26959  12.548  23.371   8.706
 1936POPC   C2B26960  12.603  23.382   8.241
 1936POPC   C3B26961  12.931  23.548   7.941
 1936POPC   C4B26962  13.318  23.459   7.688
 1937POPC   NC326963   9.898   2.300   9.454
 1937POPC   PO426964   9.755   2.953   9.570
 1937POPC   GL126965   9.776   2.731   9.181
 1937POPC   GL226966   9.497   2.478   9.166
 1937POPC   C1A26967   9.987   2.748   8.771
 1937POPC   D2A26968   9.801   2.660   8.352
 1937POPC   C3A26969  10.015   2.719   7.980
 1937POPC   C4A26970   9.992   2.864   7.565
 1937POPC   C1B26971   9.600   2.403   8.780
 1937POPC   C2B26972   9.359   2.431   8.445
 1937POPC   C3B26973   9.499   2.312   8.108
 1937POPC   C4B26974   9.531   2.596   7.790
 1938POPC   NC326975   5.043  15.215   9.534
 1938POPC   PO426976   5.567  14.921   9.415
 1938POPC   GL126977   5.377  15.253   9.116
 1938POPC   GL226978   4.993  15.300   9.036
 1938POPC   C1A26979   5.328  15.529   8.732
 1938POPC   D2A26980   5.041  15.521   8.357
 1938POPC   C3A26981   5.153  15.133   8.144
 1938POPC   C4A26982   5.535  15.040   7.842
 1938POPC   C1B26983   5.130  15.049   8.675
 1938POPC   C2B26984   4.887  14.732   8.416
 1938POPC   C3B26985   4.714  14.867   8.065
 1938POPC   C4B26986   4.797  15.111   7.732
 1939POPC   NC326987   4.189  21.656   9.793
 1939POPC   PO426988   4.683  21.308   9.548
 1939POPC   GL126989   4.282  21.253   9.282
 1939POPC   GL226990   4.050  21.589   9.229
 1939POPC   C1A26991   4.231  21.085   8.858
 1939POPC   D2A26992   4.015  21.035   8.431
 1939POPC   C3A26993   4.260  21.129   8.071
 1939POPC   C4A26994   4.366  21.308   7.674
 1939POPC   C1B26995   4.234  21.637   8.797
 1939POPC   C2B26996   4.351  21.539   8.388
 1939POPC   C3B26997   4.189  21.658   7.993
 1939POPC   C4B26998   4.086  21.924   7.659
 1940POPC   NC326999  28.171   6.074   9.511
 1940POPC   PO427000  28.838   6.000   9.457
 1940POPC   GL127001  28.538   5.913   9.108
 1940POPC   GL227002  28.176   5.809   9.101
 1940POPC   C1A27003  28.383   6.035   8.683
 1940POPC   D2A27004  28.188   5.932   8.307
 1940POPC   C3A27005  28.447   6.140   8.022
 1940POPC   C4A27006  28.357   6.180   7.615
 1940POPC   C1B27007  28.151   5.573   8.758
 1940POPC   C2B27008  27.972   5.443   8.400
 1940POPC   C3B27009  28.156   5.434   8.038
 1940POPC   C4B27010  28.227   5.734   7.787
 1941POPC   NC327011  13.331  33.581   9.581
 1941POPC   PO427012  13.869  33.990   9.634
 1941POPC   GL127013  13.743  33.801   9.228
 1941POPC   GL227014  13.702  33.440   9.233
 1941POPC   C1A27015  13.576  33.949   8.808
 1941POPC   D2A27016  13.646  34.119   8.394
 1941POPC   C3A27017  13.456  33.930   8.029
 1941POPC   C4A27018  13.685  33.826   7.656
 1941POPC   C1B27019  13.899  33.555   8.816
 1941POPC   C2B27020  13.686  33.594   8.409
 1941POPC   C3B27021  13.680  33.455   7.992
 1941POPC   C4B27022  14.056  33.481   7.713
 1942POPC   NC327023  13.888  11.851   9.492
 1942POPC   PO427024  13.333  12.260   9.550
 1942POPC   GL127025  13.599  12.212   9.191
 1942POPC   GL227026  13.677  11.888   9.034
 1942POPC   C1A27027  13.443  12.225   8.773
 1942POPC   D2A27028  13.656  12.308   8.420
 1942POPC   C3A27029  13.692  12.445   8.006
 1942POPC   C4A27030  13.561  12.094   7.809
 1942POPC   C1B27031  13.942  11.965   8.685
 1942POPC   C2B27032  13.992  11.984   8.242
 1942POPC   C3B27033  13.801  11.687   7.999
 1942POPC   C4B27034  14.009  11.468   7.709
 1943POPC   NC327035  15.275  39.994   9.409
 1943POPC   PO427036  14.754  39.688   9.666
 1943POPC   GL127037  14.801  39.926   9.201
 1943POPC   GL227038  14.898  40.271   9.158
 1943POPC   C1A27039  14.892  39.840   8.764
 1943POPC   D2A27040  15.252  39.662   8.570
 1943POPC   C3A27041  15.240  39.641   8.135
 1943POPC   C4A27042  15.567  39.705   7.853
 1943POPC   C1B27043  15.175  40.262   8.759
 1943POPC   C2B27044  15.232  40.129   8.314
 1943POPC   C3B27045  15.045  40.183   7.882
 1943POPC   C4B27046  14.916  40.170   7.408
 1944POPC   NC327047  24.409   8.827   9.437
 1944POPC   PO427048  24.046   9.385   9.357
 1944POPC   GL127049  24.333   9.172   9.067
 1944POPC   GL227050  24.710   9.176   9.204
 1944POPC   C1A27051  24.276   8.828   8.784
 1944POPC   D2A27052  24.093   8.760   8.388
 1944POPC   C3A27053  24.284   8.919   8.034
 1944POPC   C4A27054  24.667   8.838   7.891
 1944POPC   C1B27055  24.767   8.962   8.833
 1944POPC   C2B27056  24.603   9.047   8.439
 1944POPC   C3B27057  24.886   9.203   8.169
 1944POPC   C4B27058  24.997   9.202   7.767
 1945POPC   NC327059  34.306  12.445   9.676
 1945POPC   PO427060  34.458  13.086   9.564
 1945POPC   GL127061  34.573  13.007   9.133
 1945POPC   GL227062  34.480  12.687   9.205
 1945POPC   C1A27063  34.645  13.051   8.717
 1945POPC   D2A27064  34.848  12.945   8.352
 1945POPC   C3A27065  34.823  13.163   7.992
 1945POPC   C4A27066  34.455  13.011   7.872
 1945POPC   C1B27067  34.841  12.601   8.900
 1945POPC   C2B27068  34.954  12.326   8.547
 1945POPC   C3B27069  35.004  12.493   8.142
 1945POPC   C4B27070  34.798  12.626   7.777
 1946POPC   NC327071  19.586  35.404   9.556
 1946POPC   PO427072  20.215  35.207   9.649
 1946POPC   GL127073  19.988  35.246   9.254
 1946POPC   GL227074  19.675  35.062   9.189
 1946POPC   C1A27075  20.044  35.432   8.851
 1946POPC   D2A27076  20.059  35.256   8.443
 1946POPC   C3A27077  19.961  35.462   8.071
 1946POPC   C4A27078  19.993  35.178   7.744
 1946POPC   C1B27079  19.606  35.208   8.771
 1946POPC   C2B27080  19.531  35.393   8.356
 1946POPC   C3B27081  19.496  35.256   7.926
 1946POPC   C4B27082  19.603  35.353   7.504
 1947POPC   NC327083  24.375  10.534   9.650
 1947POPC   PO427084  24.825  10.327   9.217
 1947POPC   GL127085  24.538  10.627   9.066
 1947POPC   GL227086  24.216  10.684   9.172
 1947POPC   C1A27087  24.343  10.636   8.661
 1947POPC   D2A27088  24.489  10.807   8.294
 1947POPC   C3A27089  24.650  10.558   7.961
 1947POPC   C4A27090  24.890  10.425   7.602
 1947POPC   C1B27091  24.048  10.308   8.941
 1947POPC   C2B27092  24.018  10.160   8.489
 1947POPC   C3B27093  24.171  10.400   8.117
 1947POPC   C4B27094  24.187  10.806   7.876
 1948POPC   NC327095  29.866  21.655   9.457
 1948POPC   PO427096  29.394  21.113   9.187
 1948POPC   GL127097  29.591  21.470   9.056
 1948POPC   GL227098  29.929  21.363   9.045
 1948POPC   C1A27099  29.658  21.530   8.636
 1948POPC   D2A27100  29.636  21.256   8.316
 1948POPC   C3A27101  29.750  21.329   7.920
 1948POPC   C4A27102  29.719  20.995   7.656
 1948POPC   C1B27103  30.232  21.389   8.728
 1948POPC   C2B27104  30.153  21.260   8.275
 1948POPC   C3B27105  30.231  21.482   7.867
 1948POPC   C4B27106  30.171  21.620   7.433
 1949POPC   NC327107   4.173  25.375   9.515
 1949POPC   PO427108   4.762  25.338   9.516
 1949POPC   GL127109   4.494  25.140   9.154
 1949POPC   GL227110   4.157  25.257   9.029
 1949POPC   C1A27111   4.404  24.919   8.743
 1949POPC   D2A27112   4.516  24.760   8.320
 1949POPC   C3A27113   4.511  25.071   7.958
 1949POPC   C4A27114   4.468  25.383   7.596
 1949POPC   C1B27115   4.001  25.546   8.702
 1949POPC   C2B27116   3.889  25.415   8.290
 1949POPC   C3B27117   4.056  25.334   7.885
 1949POPC   C4B27118   3.999  25.345   7.415
 1950POPC   NC327119  21.583  44.906   9.483
 1950POPC   PO427120  21.135  44.349   9.421
 1950POPC   GL127121  21.219  44.658   9.109
 1950POPC   GL227122  21.045  44.954   9.182
 1950POPC   C1A27123  21.405  44.633   8.700
 1950POPC   D2A27124  21.253  44.607   8.281
 1950POPC   C3A27125  21.492  44.500   7.891
 1950POPC   C4A27126  21.425  44.501   7.424
 1950POPC   C1B27127  21.237   0.109   8.805
 1950POPC   C2B27128  21.513   0.106   8.446
 1950POPC   C3B27129  21.442   0.004   8.021
 1950POPC   C4B27130  21.534  44.962   7.601
 1951POPC   NC327131   1.839  38.387   9.610
 1951POPC   PO427132   2.288  38.833   9.404
 1951POPC   GL127133   2.072  38.492   9.146
 1951POPC   GL227134   2.138  38.154   9.129
 1951POPC   C1A27135   1.844  38.359   8.785
 1951POPC   D2A27136   1.669  38.514   8.438
 1951POPC   C3A27137   1.844  38.417   8.017
 1951POPC   C4A27138   2.181  38.664   7.844
 1951POPC   C1B27139   2.262  38.030   8.747
 1951POPC   C2B27140   2.117  38.139   8.362
 1951POPC   C3B27141   2.160  37.949   7.981
 1951POPC   C4B27142   2.463  37.916   7.666
 1952POPC   NC327143   3.350  23.701   9.759
 1952POPC   PO427144   3.897  24.003   9.520
 1952POPC   GL127145   3.626  23.716   9.267
 1952POPC   GL227146   3.250  23.727   9.255
 1952POPC   C1A27147   3.633  23.601   8.841
 1952POPC   D2A27148   3.810  23.458   8.451
 1952POPC   C3A27149   3.786  23.721   8.098
 1952POPC   C4A27150   3.590  23.661   7.728
 1952POPC   C1B27151   3.233  23.940   8.846
 1952POPC   C2B27152   3.406  23.935   8.406
 1952POPC   C3B27153   3.239  23.912   7.966
 1952POPC   C4B27154   3.204  23.847   7.450
 1953POPC   NC327155   4.102   9.294   9.742
 1953POPC   PO427156   4.476   8.737   9.964
 1953POPC   GL127157   4.401   8.903   9.472
 1953POPC   GL227158   4.228   8.640   9.245
 1953POPC   C1A27159   4.386   9.070   9.003
 1953POPC   D2A27160   4.551   9.050   8.554
 1953POPC   C3A27161   4.293   9.092   8.164
 1953POPC   C4A27162   4.411   9.046   7.732
 1953POPC   C1B27163   4.099   8.462   8.839
 1953POPC   C2B27164   4.228   8.650   8.459
 1953POPC   C3B27165   4.171   8.592   8.046
 1953POPC   C4B27166   4.437   8.554   7.701
 1954POPC   NC327167  23.236  17.635   9.782
 1954POPC   PO427168  22.837  17.178   9.595
 1954POPC   GL127169  22.844  17.199   9.141
 1954POPC   GL227170  22.896  17.547   9.114
 1954POPC   C1A27171  22.829  17.321   8.657
 1954POPC   D2A27172  23.245  17.423   8.394
 1954POPC   C3A27173  23.146  17.387   7.970
 1954POPC   C4A27174  22.725  17.243   7.836
 1954POPC   C1B27175  23.085  17.746   8.743
 1954POPC   C2B27176  23.037  17.859   8.265
 1954POPC   C3B27177  23.101  17.898   7.836
 1954POPC   C4B27178  23.056  18.178   7.472
 1955POPC   NC327179  31.266  25.486   9.379
 1955POPC   PO427180  31.442  26.050   9.672
 1955POPC   GL127181  31.401  25.959   9.223
 1955POPC   GL227182  31.700  25.710   9.161
 1955POPC   C1A27183  31.310  26.178   8.828
 1955POPC   D2A27184  31.556  26.237   8.446
 1955POPC   C3A27185  31.461  26.080   8.045
 1955POPC   C4A27186  31.181  26.195   7.711
 1955POPC   C1B27187  31.828  26.080   8.918
 1955POPC   C2B27188  32.060  26.189   8.558
 1955POPC   C3B27189  31.996  26.282   8.127
 1955POPC   C4B27190  31.879  26.083   7.751
 1956POPC   NC327191  39.829  31.770   9.635
 1956POPC   PO427192  40.347  31.366   9.445
 1956POPC   GL127193  40.035  31.522   9.175
 1956POPC   GL227194  40.074  31.223   8.937
 1956POPC   C1A27195  39.947  31.699   8.780
 1956POPC   D2A27196  40.111  31.461   8.426
 1956POPC   C3A27197  40.127  31.659   8.061
 1956POPC   C4A27198  39.851  31.716   7.746
 1956POPC   C1B27199  39.692  31.281   8.680
 1956POPC   C2B27200  39.637  31.417   8.259
 1956POPC   C3B27201  39.858  31.244   7.935
 1956POPC   C4B27202  40.214  31.359   7.642
 1957POPC   NC327203  35.309  30.215   9.438
 1957POPC   PO427204  35.059  29.593   9.434
 1957POPC   GL127205  35.332  29.805   9.116
 1957POPC   GL227206  35.278  30.139   8.939
 1957POPC   C1A27207  35.485  29.768   8.688
 1957POPC   D2A27208  35.318  30.083   8.410
 1957POPC   C3A27209  35.465  29.892   8.034
 1957POPC   C4A27210  35.597  29.603   7.753
 1957POPC   C1B27211  35.697  30.224   8.788
 1957POPC   C2B27212  35.822  30.153   8.354
 1957POPC   C3B27213  35.607  30.367   8.049
 1957POPC   C4B27214  35.149  30.296   7.954
 1958POPC   NC327215  25.514   2.634   9.560
 1958POPC   PO427216  24.882   2.899   9.440
 1958POPC   GL127217  25.102   2.620   9.205
 1958POPC   GL227218  25.441   2.672   9.077
 1958POPC   C1A27219  25.049   2.519   8.793
 1958POPC   D2A27220  25.179   2.784   8.470
 1958POPC   C3A27221  25.179   2.649   8.061
 1958POPC   C4A27222  25.204   2.974   7.807
 1958POPC   C1B27223  25.630   2.779   8.724
 1958POPC   C2B27224  25.659   2.600   8.325
 1958POPC   C3B27225  25.668   2.854   7.959
 1958POPC   C4B27226  25.638   2.974   7.517
 1959POPC   NC327227  24.706  31.494   9.391
 1959POPC   PO427228  24.056  31.277   9.566
 1959POPC   GL127229  24.282  31.297   9.196
 1959POPC   GL227230  24.185  31.633   9.162
 1959POPC   C1A27231  24.455  31.421   8.781
 1959POPC   D2A27232  24.641  31.395   8.376
 1959POPC   C3A27233  24.361  31.338   8.028
 1959POPC   C4A27234  24.504  31.293   7.595
 1959POPC   C1B27235  24.256  31.920   8.856
 1959POPC   C2B27236  24.433  31.863   8.488
 1959POPC   C3B27237  24.336  31.869   8.100
 1959POPC   C4B27238  24.306  31.781   7.706
 1960POPC   NC327239  16.478  26.579   9.691
 1960POPC   PO427240  17.005  26.980   9.449
 1960POPC   GL127241  16.817  26.761   9.124
 1960POPC   GL227242  16.465  26.661   9.153
 1960POPC   C1A27243  16.831  26.910   8.726
 1960POPC   D2A27244  17.061  26.785   8.386
 1960POPC   C3A27245  16.968  27.021   8.051
 1960POPC   C4A27246  16.724  26.799   7.818
 1960POPC   C1B27247  16.432  26.618   8.713
 1960POPC   C2B27248  16.496  26.808   8.292
 1960POPC   C3B27249  16.251  26.666   7.925
 1960POPC   C4B27250  16.304  26.251   7.811
 1961POPC   NC327251  27.215   2.168   9.809
 1961POPC   PO427252  26.655   1.871   9.623
 1961POPC   GL127253  26.617   2.070   9.236
 1961POPC   GL227254  26.780   1.777   9.130
 1961POPC   C1A27255  26.645   2.114   8.780
 1961POPC   D2A27256  26.937   2.167   8.467
 1961POPC   C3A27257  26.697   2.237   8.089
 1961POPC   C4A27258  26.777   2.338   7.675
 1961POPC   C1B27259  27.070   1.750   8.794
 1961POPC   C2B27260  27.208   1.685   8.408
 1961POPC   C3B27261  27.056   1.869   8.056
 1961POPC   C4B27262  27.147   1.736   7.683
 1962POPC   NC327263  29.084   9.605   9.603
 1962POPC   PO427264  29.630   9.610   9.278
 1962POPC   GL127265  29.229   9.824   9.140
 1962POPC   GL227266  28.858   9.791   9.200
 1962POPC   C1A27267  29.152   9.956   8.735
 1962POPC   D2A27268  29.445  10.041   8.402
 1962POPC   C3A27269  29.388   9.762   8.082
 1962POPC   C4A27270  29.124   9.967   7.798
 1962POPC   C1B27271  28.786   9.604   8.805
 1962POPC   C2B27272  28.944   9.508   8.374
 1962POPC   C3B27273  28.821   9.593   7.926
 1962POPC   C4B27274  28.840   9.682   7.472
 1963POPC   NC327275  22.776  38.683   9.466
 1963POPC   PO427276  23.266  38.184   9.499
 1963POPC   GL127277  23.161  38.435   9.130
 1963POPC   GL227278  22.878  38.638   8.980
 1963POPC   C1A27279  23.347  38.640   8.781
 1963POPC   D2A27280  23.150  38.798   8.397
 1963POPC   C3A27281  23.070  38.466   8.084
 1963POPC   C4A27282  23.209  38.305   7.675
 1963POPC   C1B27283  22.776  38.482   8.561
 1963POPC   C2B27284  22.551  38.393   8.166
 1963POPC   C3B27285  22.692  38.434   7.746
 1963POPC   C4B27286  22.508  38.522   7.317
 1964POPC   NC327287  32.314  40.861   9.393
 1964POPC   PO427288  33.015  40.804   9.329
 1964POPC   GL127289  32.996  40.911   8.983
 1964POPC   GL227290  32.642  40.929   8.999
 1964POPC   C1A27291  33.123  40.758   8.620
 1964POPC   D2A27292  33.026  40.429   8.391
 1964POPC   C3A27293  32.977  40.605   7.975
 1964POPC   C4A27294  32.798  41.002   7.825
 1964POPC   C1B27295  32.631  40.681   8.691
 1964POPC   C2B27296  32.628  40.757   8.283
 1964POPC   C3B27297  32.455  40.664   7.912
 1964POPC   C4B27298  32.569  40.491   7.506
 1965POPC   NC327299  22.351  22.602   9.599
 1965POPC   PO427300  21.807  23.070   9.537
 1965POPC   GL127301  22.190  23.094   9.162
 1965POPC   GL227302  22.460  23.367   9.156
 1965POPC   C1A27303  22.456  22.975   8.754
 1965POPC   D2A27304  22.522  22.759   8.312
 1965POPC   C3A27305  22.194  22.778   7.968
 1965POPC   C4A27306  21.885  23.126   7.845
 1965POPC   C1B27307  22.254  23.439   8.743
 1965POPC   C2B27308  22.275  23.236   8.304
 1965POPC   C3B27309  22.432  23.202   7.875
 1965POPC   C4B27310  22.278  23.486   7.559
 1966POPC   NC327311  28.112  35.435   9.300
 1966POPC   PO427312  28.630  35.286   9.705
 1966POPC   GL127313  28.636  35.302   9.238
 1966POPC   GL227314  28.759  35.667   9.178
 1966POPC   C1A27315  28.416  35.131   8.837
 1966POPC   D2A27316  28.008  35.079   8.609
 1966POPC   C3A27317  28.198  35.004   8.228
 1966POPC   C4A27318  28.277  35.274   7.899
 1966POPC   C1B27319  28.793  35.479   8.768
 1966POPC   C2B27320  28.731  35.208   8.409
 1966POPC   C3B27321  28.749  35.435   8.029
 1966POPC   C4B27322  28.593  35.565   7.633
 1967POPC   NC327323  43.789  18.723   9.233
 1967POPC   PO427324  43.826  18.101   9.490
 1967POPC   GL127325  43.767  18.222   9.098
 1967POPC   GL227326  43.489  18.037   9.065
 1967POPC   C1A27327  43.946  18.273   8.682
 1967POPC   D2A27328  44.203  18.369   8.340
 1967POPC   C3A27329  44.015  18.454   7.949
 1967POPC   C4A27330  44.136  18.294   7.548
 1967POPC   C1B27331  43.433  18.203   8.690
 1967POPC   C2B27332  43.590  17.935   8.398
 1967POPC   C3B27333  43.591  17.833   8.002
 1967POPC   C4B27334  43.517  18.229   7.818
 1968POPC   NC327335  29.040   5.582   9.456
 1968POPC   PO427336  29.273   6.276   9.632
 1968POPC   GL127337  29.339   5.960   9.276
 1968POPC   GL227338  29.045   5.878   9.027
 1968POPC   C1A27339  29.490   5.771   8.868
 1968POPC   D2A27340  29.350   5.541   8.519
 1968POPC   C3A27341  29.300   5.781   8.142
 1968POPC   C4A27342  29.239   5.881   7.710
 1968POPC   C1B27343  28.943   5.987   8.602
 1968POPC   C2B27344  28.753   5.762   8.227
 1968POPC   C3B27345  28.745   5.824   7.767
 1968POPC   C4B27346  28.841   6.256   7.671
 1969POPC   NC327347   3.071  15.119   9.877
 1969POPC   PO427348   3.597  15.363   9.607
 1969POPC   GL127349   3.550  15.078   9.148
 1969POPC   GL227350   3.853  15.038   8.923
 1969POPC   C1A27351   3.471  14.964   8.641
 1969POPC   D2A27352   3.794  15.118   8.313
 1969POPC   C3A27353   3.738  14.975   7.884
 1969POPC   C4A27354   3.346  14.928   7.672
 1969POPC   C1B27355   3.666  15.433   8.695
 1969POPC   C2B27356   3.457  15.509   8.299
 1969POPC   C3B27357   3.300  15.367   7.898
 1969POPC   C4B27358   3.437  15.376   7.425
 1970POPC   NC327359  28.143   8.532   9.382
 1970POPC   PO427360  27.594   8.119   9.528
 1970POPC   GL127361  27.517   8.289   9.107
 1970POPC   GL227362  27.860   8.259   9.072
 1970POPC   C1A27363  27.379   8.292   8.639
 1970POPC   D2A27364  27.082   8.202   8.245
 1970POPC   C3A27365  27.298   8.156   7.832
 1970POPC   C4A27366  27.639   8.437   7.645
 1970POPC   C1B27367  27.986   8.023   8.755
 1970POPC   C2B27368  27.759   7.979   8.418
 1970POPC   C3B27369  27.760   8.214   8.076
 1970POPC   C4B27370  27.749   7.933   7.746
 1971POPC   NC327371  11.267  42.905   9.437
 1971POPC   PO427372  11.922  43.086   9.608
 1971POPC   GL127373  11.588  43.163   9.183
 1971POPC   GL227374  11.333  43.362   9.094
 1971POPC   C1A27375  11.347  42.957   8.788
 1971POPC   D2A27376  11.255  43.157   8.368
 1971POPC   C3A27377  11.146  42.905   8.025
 1971POPC   C4A27378  10.918  43.002   7.682
 1971POPC   C1B27379  11.159  43.562   8.702
 1971POPC   C2B27380  11.116  43.634   8.242
 1971POPC   C3B27381  11.253  43.388   7.868
 1971POPC   C4B27382  11.424  43.129   7.530
 1972POPC   NC327383   2.177  21.264   9.719
 1972POPC   PO427384   1.605  21.375   9.439
 1972POPC   GL127385   1.875  21.488   9.120
 1972POPC   GL227386   2.210  21.430   9.222
 1972POPC   C1A27387   1.913  21.483   8.669
 1972POPC   D2A27388   1.726  21.235   8.315
 1972POPC   C3A27389   1.793  21.472   7.947
 1972POPC   C4A27390   2.047  21.445   7.611
 1972POPC   C1B27391   2.153  21.066   8.934
 1972POPC   C2B27392   2.191  21.028   8.467
 1972POPC   C3B27393   2.272  21.261   8.060
 1972POPC   C4B27394   2.395  21.065   7.662
 1973POPC   NC327395  34.163   9.074   9.656
 1973POPC   PO427396  33.664   8.641   9.466
 1973POPC   GL127397  33.755   8.763   9.102
 1973POPC   GL227398  34.067   8.895   9.177
 1973POPC   C1A27399  33.806   9.062   8.770
 1973POPC   D2A27400  34.000   9.163   8.385
 1973POPC   C3A27401  33.663   9.112   8.104
 1973POPC   C4A27402  33.688   8.913   7.733
 1973POPC   C1B27403  34.137   8.604   8.802
 1973POPC   C2B27404  34.187   8.505   8.376
 1973POPC   C3B27405  34.097   8.782   8.043
 1973POPC   C4B27406  34.215   8.795   7.632
 1974POPC   NC327407  36.086   8.568   9.523
 1974POPC   PO427408  36.187   9.234   9.491
 1974POPC   GL127409  35.905   8.971   9.220
 1974POPC   GL227410  36.168   8.919   9.027
 1974POPC   C1A27411  35.748   8.806   8.766
 1974POPC   D2A27412  35.829   8.922   8.316
 1974POPC   C3A27413  35.935   8.760   7.912
 1974POPC   C4A27414  36.064   8.975   7.552
 1974POPC   C1B27415  36.256   8.822   8.591
 1974POPC   C2B27416  36.327   9.040   8.208
 1974POPC   C3B27417  36.510   8.968   7.808
 1974POPC   C4B27418  36.534   8.960   7.336
 1975POPC   NC327419  35.395   3.939   9.571
 1975POPC   PO427420  35.130   4.577   9.710
 1975POPC   GL127421  35.206   4.360   9.322
 1975POPC   GL227422  35.520   4.543   9.210
 1975POPC   C1A27423  35.147   4.334   8.877
 1975POPC   D2A27424  35.289   4.538   8.472
 1975POPC   C3A27425  35.155   4.346   8.074
 1975POPC   C4A27426  35.287   4.185   7.665
 1975POPC   C1B27427  35.637   4.346   8.796
 1975POPC   C2B27428  35.616   4.143   8.396
 1975POPC   C3B27429  35.733   4.188   7.979
 1975POPC   C4B27430  35.724   3.849   7.707
 1976POPC   NC327431  29.598  17.626   9.557
 1976POPC   PO427432  29.944  17.152   9.556
 1976POPC   GL127433  29.862  17.394   9.181
 1976POPC   GL227434  29.998  17.743   9.205
 1976POPC   C1A27435  29.866  17.456   8.746
 1976POPC   D2A27436  30.131  17.223   8.457
 1976POPC   C3A27437  30.005  17.234   8.044
 1976POPC   C4A27438  29.879  17.538   7.746
 1976POPC   C1B27439  30.053  17.929   8.785
 1976POPC   C2B27440  29.926  17.817   8.378
 1976POPC   C3B27441  30.111  17.909   8.009
 1976POPC   C4B27442  29.972  18.073   7.689
 1977POPC   NC327443  30.983  26.144   9.683
 1977POPC   PO427444  30.364  26.426   9.496
 1977POPC   GL127445  30.571  26.352   9.120
 1977POPC   GL227446  30.865  26.119   9.175
 1977POPC   C1A27447  30.593  26.142   8.734
 1977POPC   D2A27448  30.435  25.893   8.408
 1977POPC   C3A27449  30.395  26.124   8.043
 1977POPC   C4A27450  30.652  26.046   7.704
 1977POPC   C1B27451  30.955  25.790   8.850
 1977POPC   C2B27452  31.190  25.816   8.467
 1977POPC   C3B27453  30.982  25.906   8.085
 1977POPC   C4B27454  31.029  25.662   7.723
 1978POPC   NC327455  40.063  44.305   9.383
 1978POPC   PO427456  39.733  44.798   9.503
 1978POPC   GL127457  40.022  44.717   9.125
 1978POPC   GL227458  39.792  44.749   8.845
 1978POPC   C1A27459  40.249  44.501   8.795
 1978POPC   D2A27460  40.037  44.526   8.442
 1978POPC   C3A27461  40.167  44.354   8.081
 1978POPC   C4A27462  40.012  44.463   7.697
 1978POPC   C1B27463  40.128   0.039   8.754
 1978POPC   C2B27464  40.249  44.978   8.374
 1978POPC   C3B27465  40.059  44.893   8.009
 1978POPC   C4B27466  40.307   0.121   7.731
 1979POPC   NC327467  43.916  32.373   9.630
 1979POPC   PO427468  43.804  31.658   9.519
 1979POPC   GL127469  43.872  31.954   9.167
 1979POPC   GL227470  43.727  32.301   9.180
 1979POPC   C1A27471  43.874  32.136   8.732
 1979POPC   D2A27472  44.079  32.313   8.396
 1979POPC   C3A27473  43.912  32.113   8.037
 1979POPC   C4A27474  44.012  32.325   7.674
 1979POPC   C1B27475  43.671  32.616   8.871
 1979POPC   C2B27476  43.611  32.515   8.458
 1979POPC   C3B27477  43.708  32.588   8.049
 1979POPC   C4B27478  43.541  32.558   7.627
 1980POPC   NC327479  33.301  14.909   9.423
 1980POPC   PO427480  32.636  14.764   9.324
 1980POPC   GL127481  32.918  14.923   9.032
 1980POPC   GL227482  33.261  15.077   8.957
 1980POPC   C1A27483  32.910  14.997   8.619
 1980POPC   D2A27484  33.033  15.237   8.312
 1980POPC   C3A27485  32.936  14.947   8.041
 1980POPC   C4A27486  32.684  15.078   7.717
 1980POPC   C1B27487  33.388  15.407   8.686
 1980POPC   C2B27488  33.256  15.688   8.392
 1980POPC   C3B27489  33.059  15.677   8.000
 1980POPC   C4B27490  33.139  15.328   7.784
 1981POPC   NC327491  32.369   2.190   9.615
 1981POPC   PO427492  32.593   1.577   9.643
 1981POPC   GL127493  32.416   1.810   9.254
 1981POPC   GL227494  32.423   2.188   9.120
 1981POPC   C1A27495  32.453   1.793   8.809
 1981POPC   D2A27496  32.392   2.094   8.480
 1981POPC   C3A27497  32.422   1.932   8.084
 1981POPC   C4A27498  32.593   1.981   7.681
 1981POPC   C1B27499  32.053   2.120   8.872
 1981POPC   C2B27500  31.741   2.201   8.546
 1981POPC   C3B27501  31.777   2.225   8.113
 1981POPC   C4B27502  32.061   2.148   7.773
 1982POPC   NC327503   6.448  24.501   9.438
 1982POPC   PO427504   6.944  24.168   9.611
 1982POPC   GL127505   6.960  24.346   9.198
 1982POPC   GL227506   6.810  24.641   9.117
 1982POPC   C1A27507   6.841  24.289   8.757
 1982POPC   D2A27508   6.861  24.528   8.384
 1982POPC   C3A27509   6.827  24.308   8.019
 1982POPC   C4A27510   6.467  24.187   7.715
 1982POPC   C1B27511   6.507  24.698   8.747
 1982POPC   C2B27512   6.417  24.756   8.290
 1982POPC   C3B27513   6.564  24.709   7.881
 1982POPC   C4B27514   6.715  25.053   7.585
 1983POPC   NC327515   0.952   6.413   9.586
 1983POPC   PO427516   1.618   6.331   9.473
 1983POPC   GL127517   1.495   6.628   9.157
 1983POPC   GL227518   1.150   6.681   9.166
 1983POPC   C1A27519   1.429   6.727   8.712
 1983POPC   D2A27520   1.245   6.519   8.345
 1983POPC   C3A27521   1.250   6.718   7.934
 1983POPC   C4A27522   1.440   6.763   7.515
 1983POPC   C1B27523   0.973   6.466   8.783
 1983POPC   C2B27524   0.740   6.647   8.445
 1983POPC   C3B27525   0.784   6.563   8.044
 1983POPC   C4B27526   0.931   6.196   7.898
 1984POPC   NC327527  32.863  34.230   9.466
 1984POPC   PO427528  33.249  34.695   9.518
 1984POPC   GL127529  33.273  34.358   9.179
 1984POPC   GL227530  33.491  34.420   8.922
 1984POPC   C1A27531  33.146  34.112   8.748
 1984POPC   D2A27532  33.180  33.948   8.310
 1984POPC   C3A27533  32.889  34.194   8.038
 1984POPC   C4A27534  32.929  34.601   7.895
 1984POPC   C1B27535  33.109  34.637   8.784
 1984POPC   C2B27536  33.122  34.811   8.375
 1984POPC   C3B27537  33.417  34.736   8.049
 1984POPC   C4B27538  33.361  34.395   7.758
 1985POPC   NC327539   3.570   3.037   9.865
 1985POPC   PO427540   3.925   2.553   9.494
 1985POPC   GL127541   3.701   2.964   9.263
 1985POPC   GL227542   3.340   2.965   9.147
 1985POPC   C1A27543   3.685   3.008   8.777
 1985POPC   D2A27544   3.507   2.742   8.432
 1985POPC   C3A27545   3.538   2.884   8.018
 1985POPC   C4A27546   3.442   3.005   7.586
 1985POPC   C1B27547   3.153   2.614   8.888
 1985POPC   C2B27548   3.039   2.501   8.488
 1985POPC   C3B27549   3.068   2.377   8.070
 1985POPC   C4B27550   3.224   2.597   7.758
 1986POPC   NC327551  19.949  42.777   9.350
 1986POPC   PO427552  19.874  42.401   9.825
 1986POPC   GL127553  19.951  42.258   9.275
 1986POPC   GL227554  19.690  42.456   9.055
 1986POPC   C1A27555  19.788  42.038   8.817
 1986POPC   D2A27556  19.607  42.274   8.472
 1986POPC   C3A27557  19.544  42.075   8.096
 1986POPC   C4A27558  19.750  42.205   7.753
 1986POPC   C1B27559  19.916  42.639   8.699
 1986POPC   C2B27560  20.234  42.632   8.361
 1986POPC   C3B27561  20.105  42.594   7.950
 1986POPC   C4B27562  20.047  42.513   7.494
 1987POPC   NC327563  21.877  39.117   9.400
 1987POPC   PO427564  21.273  38.891   9.426
 1987POPC   GL127565  21.274  39.315   9.217
 1987POPC   GL227566  21.576  39.284   9.020
 1987POPC   C1A27567  21.155  39.501   8.812
 1987POPC   D2A27568  21.369  39.438   8.416
 1987POPC   C3A27569  21.158  39.432   8.006
 1987POPC   C4A27570  21.368  39.226   7.688
 1987POPC   C1B27571  21.526  38.930   8.760
 1987POPC   C2B27572  21.777  38.827   8.403
 1987POPC   C3B27573  21.753  39.075   8.036
 1987POPC   C4B27574  21.776  38.895   7.643
 1988POPC   NC327575  39.942  20.929   9.542
 1988POPC   PO427576  39.715  20.370   9.614
 1988POPC   GL127577  39.914  20.366   9.202
 1988POPC   GL227578  40.259  20.452   9.281
 1988POPC   C1A27579  39.858  20.685   8.872
 1988POPC   D2A27580  39.625  20.840   8.506
 1988POPC   C3A27581  39.858  20.831   8.093
 1988POPC   C4A27582  40.156  20.843   7.729
 1988POPC   C1B27583  40.302  20.403   8.833
 1988POPC   C2B27584  40.083  20.506   8.452
 1988POPC   C3B27585  40.052  20.363   8.038
 1988POPC   C4B27586  40.160  20.329   7.614
 1989POPC   NC327587   5.503  16.842   9.641
 1989POPC   PO427588   6.106  16.938   9.439
 1989POPC   GL127589   5.964  16.606   9.206
 1989POPC   GL227590   5.626  16.558   9.244
 1989POPC   C1A27591   5.930  16.751   8.800
 1989POPC   D2A27592   5.855  17.002   8.466
 1989POPC   C3A27593   6.036  17.001   8.076
 1989POPC   C4A27594   5.852  17.019   7.699
 1989POPC   C1B27595   5.494  16.505   8.842
 1989POPC   C2B27596   5.639  16.540   8.434
 1989POPC   C3B27597   5.553  16.789   8.101
 1989POPC   C4B27598   5.479  16.686   7.714
 1990POPC   NC327599   1.159  43.553   9.554
 1990POPC   PO427600   1.555  44.020   9.521
 1990POPC   GL127601   1.327  44.004   9.151
 1990POPC   GL227602   0.994  43.933   9.213
 1990POPC   C1A27603   1.216  44.094   8.729
 1990POPC   D2A27604   1.019  44.081   8.335
 1990POPC   C3A27605   1.319  43.997   8.063
 1990POPC   C4A27606   1.452  44.127   7.707
 1990POPC   C1B27607   1.035  43.634   8.860
 1990POPC   C2B27608   1.208  43.606   8.459
 1990POPC   C3B27609   0.992  43.618   8.044
 1990POPC   C4B27610   1.179  43.696   7.687
 1991POPC   NC327611  31.898  24.917   9.432
 1991POPC   PO427612  31.232  25.036   9.493
 1991POPC   GL127613  31.498  25.082   9.139
 1991POPC   GL227614  31.216  25.014   8.991
 1991POPC   C1A27615  31.669  25.330   8.766
 1991POPC   D2A27616  31.660  25.595   8.364
 1991POPC   C3A27617  31.649  25.306   7.991
 1991POPC   C4A27618  31.717  25.264   7.555
 1991POPC   C1B27619  31.135  25.311   8.721
 1991POPC   C2B27620  31.285  25.221   8.357
 1991POPC   C3B27621  31.117  25.236   7.978
 1991POPC   C4B27622  31.200  25.139   7.556
 1992POPC   NC327623  41.725  15.132   9.665
 1992POPC   PO427624  41.341  14.641   9.464
 1992POPC   GL127625  41.486  15.056   9.203
 1992POPC   GL227626  41.822  15.269   9.173
 1992POPC   C1A27627  41.478  15.283   8.791
 1992POPC   D2A27628  41.650  15.106   8.382
 1992POPC   C3A27629  41.549  15.294   7.966
 1992POPC   C4A27630  41.596  15.182   7.488
 1992POPC   C1B27631  41.977  14.982   8.866
 1992POPC   C2B27632  41.932  14.667   8.566
 1992POPC   C3B27633  41.885  14.708   8.113
 1992POPC   C4B27634  42.011  15.060   7.853
 1993POPC   NC327635  17.330  38.759   9.536
 1993POPC   PO427636  17.781  38.196   9.548
 1993POPC   GL127637  17.528  38.412   9.244
 1993POPC   GL227638  17.771  38.615   9.161
 1993POPC   C1A27639  17.303  38.611   8.860
 1993POPC   D2A27640  17.502  38.618   8.459
 1993POPC   C3A27641  17.357  38.454   8.054
 1993POPC   C4A27642  17.235  38.698   7.725
 1993POPC   C1B27643  17.925  38.424   8.799
 1993POPC   C2B27644  17.999  38.643   8.423
 1993POPC   C3B27645  17.876  38.450   8.062
 1993POPC   C4B27646  17.812  38.581   7.659
 1994POPC   NC327647   8.825   7.178   9.438
 1994POPC   PO427648   8.846   7.814   9.705
 1994POPC   GL127649   9.003   7.720   9.217
 1994POPC   GL227650   9.364   7.903   9.136
 1994POPC   C1A27651   8.784   7.528   8.791
 1994POPC   D2A27652   8.645   7.292   8.363
 1994POPC   C3A27653   8.905   7.307   7.962
 1994POPC   C4A27654   9.348   7.192   7.805
 1994POPC   C1B27655   9.266   7.710   8.750
 1994POPC   C2B27656   9.093   7.609   8.346
 1994POPC   C3B27657   9.203   7.719   7.913
 1994POPC   C4B27658   9.493   7.632   7.575
 1995POPC   NC327659   9.229  24.724   9.509
 1995POPC   PO427660   8.700  24.339   9.516
 1995POPC   GL127661   8.912  24.343   9.165
 1995POPC   GL227662   9.287  24.409   9.107
 1995POPC   C1A27663   8.798  24.481   8.776
 1995POPC   D2A27664   9.057  24.642   8.492
 1995POPC   C3A27665   8.964  24.591   8.086
 1995POPC   C4A27666   8.918  24.627   7.641
 1995POPC   C1B27667   9.465  24.407   8.691
 1995POPC   C2B27668   9.440  24.424   8.232
 1995POPC   C3B27669   9.318  24.349   7.828
 1995POPC   C4B27670   9.268  24.281   7.337
 1996POPC   NC327671  35.496  29.372   9.392
 1996POPC   PO427672  35.166  28.770   9.551
 1996POPC   GL127673  35.252  28.987   9.133
 1996POPC   GL227674  35.145  29.332   9.022
 1996POPC   C1A27675  35.287  29.033   8.663
 1996POPC   D2A27676  35.333  28.902   8.244
 1996POPC   C3A27677  35.482  29.110   7.872
 1996POPC   C4A27678  35.700  28.747   7.760
 1996POPC   C1B27679  34.996  29.585   8.684
 1996POPC   C2B27680  35.119  29.618   8.286
 1996POPC   C3B27681  35.047  29.627   7.867
 1996POPC   C4B27682  35.203  29.442   7.483
 1997POPC   NC327683   7.399  20.151   9.431
 1997POPC   PO427684   7.488  19.515   9.565
 1997POPC   GL127685   7.569  19.716   9.177
 1997POPC   GL227686   7.806  20.023   9.157
 1997POPC   C1A27687   7.251  19.704   8.831
 1997POPC   D2A27688   7.141  19.539   8.406
 1997POPC   C3A27689   7.349  19.748   8.048
 1997POPC   C4A27690   7.273  19.982   7.707
 1997POPC   C1B27691   7.668  19.980   8.745
 1997POPC   C2B27692   7.508  20.105   8.364
 1997POPC   C3B27693   7.621  20.247   7.942
 1997POPC   C4B27694   7.641  20.301   7.471
 1998POPC   NC327695  31.074   2.755  10.005
 1998POPC   PO427696  30.420   2.898   9.796
 1998POPC   GL127697  30.741   2.877   9.385
 1998POPC   GL227698  30.961   2.578   9.216
 1998POPC   C1A27699  30.820   3.017   8.913
 1998POPC   D2A27700  30.576   3.029   8.503
 1998POPC   C3A27701  30.723   2.854   8.107
 1998POPC   C4A27702  30.904   2.935   7.702
 1998POPC   C1B27703  30.830   2.524   8.756
 1998POPC   C2B27704  30.467   2.521   8.457
 1998POPC   C3B27705  30.426   2.448   8.019
 1998POPC   C4B27706  30.828   2.435   7.760
 1999POPC   NC327707  25.989  25.671   9.495
 1999POPC   PO427708  26.395  25.210   9.423
 1999POPC   GL127709  26.023  25.273   9.165
 1999POPC   GL227710  25.755  25.023   9.169
 1999POPC   C1A27711  25.901  25.510   8.800
 1999POPC   D2A27712  25.994  25.414   8.389
 1999POPC   C3A27713  25.807  25.448   8.005
 1999POPC   C4A27714  25.990  25.557   7.626
 1999POPC   C1B27715  25.918  24.989   8.746
 1999POPC   C2B27716  25.712  25.004   8.362
 1999POPC   C3B27717  25.876  24.901   7.981
 1999POPC   C4B27718  25.760  25.096   7.631
 2000POPC   NC327719  24.179   8.417   9.851
 2000POPC   PO427720  24.578   8.372   9.340
 2000POPC   GL127721  24.746   8.261   9.019
 2000POPC   GL227722  24.752   7.900   9.058
 2000POPC   C1A27723  24.643   8.454   8.640
 2000POPC   D2A27724  24.373   8.343   8.308
 2000POPC   C3A27725  24.642   8.349   7.971
 2000POPC   C4A27726  24.582   8.328   7.537
 2000POPC   C1B27727  24.497   7.956   8.684
 2000POPC   C2B27728  24.726   7.958   8.351
 2000POPC   C3B27729  24.600   7.840   7.983
 2000POPC   C4B27730  24.442   7.705   7.604
 2001POPC   NC327731   6.836  44.030   9.653
 2001POPC   PO427732   6.731  43.322   9.569
 2001POPC   GL127733   6.613  43.656   9.250
 2001POPC   GL227734   6.815  43.983   9.114
 2001POPC   C1A27735   6.427  43.754   8.845
 2001POPC   D2A27736   6.715  43.916   8.515
 2001POPC   C3A27737   6.591  43.858   8.096
 2001POPC   C4A27738   6.834  43.924   7.745
 2001POPC   C1B27739   6.546  44.291   8.823
 2001POPC   C2B27740   6.471  44.344   8.358
 2001POPC   C3B27741   6.627  44.348   7.936
 2001POPC   C4B27742   6.802  44.410   7.526
 2002POPC   NC327743  11.346  19.504   9.539
 2002POPC   PO427744  10.911  19.903   9.380
 2002POPC   GL127745  11.263  19.823   9.121
 2002POPC   GL227746  11.386  19.515   9.051
 2002POPC   C1A27747  11.167  19.815   8.689
 2002POPC   D2A27748  10.962  19.731   8.321
 2002POPC   C3A27749  11.025  20.042   8.039
 2002POPC   C4A27750  11.226  20.046   7.694
 2002POPC   C1B27751  11.290  19.273   8.718
 2002POPC   C2B27752  11.427  19.312   8.302
 2002POPC   C3B27753  11.320  19.589   7.986
 2002POPC   C4B27754  10.939  19.582   7.778
 2003POPC   NC327755  21.841   3.145   9.587
 2003POPC   PO427756  22.331   2.642   9.600
 2003POPC   GL127757  22.221   2.893   9.186
 2003POPC   GL227758  21.892   3.033   9.087
 2003POPC   C1A27759  22.307   3.117   8.775
 2003POPC   D2A27760  22.178   3.221   8.327
 2003POPC   C3A27761  22.353   2.952   7.988
 2003POPC   C4A27762  22.403   2.528   7.912
 2003POPC   C1B27763  21.970   2.694   8.752
 2003POPC   C2B27764  22.084   2.631   8.298
 2003POPC   C3B27765  21.914   2.653   7.837
 2003POPC   C4B27766  21.892   2.872   7.403
 2004POPC   NC327767   2.045  23.005   9.539
 2004POPC   PO427768   1.624  22.535   9.367
 2004POPC   GL127769   1.896  22.792   9.106
 2004POPC   GL227770   1.807  23.166   9.120
 2004POPC   C1A27771   2.102  22.917   8.740
 2004POPC   D2A27772   2.244  23.074   8.343
 2004POPC   C3A27773   2.047  22.798   8.027
 2004POPC   C4A27774   2.050  22.759   7.574
 2004POPC   C1B27775   1.935  23.429   8.796
 2004POPC   C2B27776   1.896  23.522   8.380
 2004POPC   C3B27777   1.716  23.186   8.165
 2004POPC   C4B27778   1.641  23.002   7.776
 2005POPC   NC327779  41.966  38.990   9.974
 2005POPC   PO427780  42.510  38.944   9.582
 2005POPC   GL127781  42.451  38.947   9.140
 2005POPC   GL227782  42.244  39.248   9.128
 2005POPC   C1A27783  42.494  39.069   8.725
 2005POPC   D2A27784  42.334  39.381   8.458
 2005POPC   C3A27785  42.495  39.156   8.132
 2005POPC   C4A27786  42.568  39.161   7.716
 2005POPC   C1B27787  42.004  38.969   8.843
 2005POPC   C2B27788  41.978  39.030   8.403
 2005POPC   C3B27789  42.006  39.233   8.045
 2005POPC   C4B27790  42.051  39.062   7.628
 2006POPC   NC327791  33.702  37.963   9.371
 2006POPC   PO427792  34.012  37.425   9.470
 2006POPC   GL127793  33.870  37.502   9.074
 2006POPC   GL227794  33.532  37.558   9.090
 2006POPC   C1A27795  33.920  37.491   8.627
 2006POPC   D2A27796  33.790  37.817   8.351
 2006POPC   C3A27797  33.510  37.590   8.101
 2006POPC   C4A27798  33.822  37.268   8.028
 2006POPC   C1B27799  33.441  37.804   8.729
 2006POPC   C2B27800  33.369  38.229   8.561
 2006POPC   C3B27801  33.510  38.202   8.179
 2006POPC   C4B27802  33.773  37.961   7.854
 2007POPC   NC327803  30.128  22.462   9.759
 2007POPC   PO427804  29.752  23.007   9.441
 2007POPC   GL127805  30.033  23.122   9.125
 2007POPC   GL227806  29.737  23.057   8.921
 2007POPC   C1A27807  30.131  23.301   8.729
 2007POPC   D2A27808  29.884  23.279   8.335
 2007POPC   C3A27809  30.020  23.206   7.912
 2007POPC   C4A27810  30.128  22.798   7.756
 2007POPC   C1B27811  29.973  22.821   8.658
 2007POPC   C2B27812  30.107  22.811   8.278
 2007POPC   C3B27813  29.718  22.801   8.095
 2007POPC   C4B27814  29.597  22.970   7.726
 2008POPC   NC327815  23.049   2.139   9.482
 2008POPC   PO427816  22.530   1.662   9.581
 2008POPC   GL127817  22.669   1.747   9.156
 2008POPC   GL227818  22.972   1.949   9.020
 2008POPC   C1A27819  22.766   1.621   8.710
 2008POPC   D2A27820  22.934   1.926   8.407
 2008POPC   C3A27821  22.924   1.807   7.969
 2008POPC   C4A27822  23.059   1.829   7.576
 2008POPC   C1B27823  23.146   2.326   8.790
 2008POPC   C2B27824  23.006   2.504   8.434
 2008POPC   C3B27825  22.988   2.337   8.025
 2008POPC   C4B27826  23.153   2.328   7.613
 2009POPC   NC327827  40.006  12.855   9.439
 2009POPC   PO427828  40.610  13.187   9.518
 2009POPC   GL127829  40.257  13.150   9.126
 2009POPC   GL227830  40.195  12.710   9.000
 2009POPC   C1A27831  40.144  13.085   8.678
 2009POPC   D2A27832  40.130  12.668   8.450
 2009POPC   C3A27833  40.214  12.812   8.058
 2009POPC   C4A27834  40.301  13.226   7.907
 2009POPC   C1B27835  39.774  12.650   8.830
 2009POPC   C2B27836  39.590  12.779   8.427
 2009POPC   C3B27837  39.689  12.911   8.012
 2009POPC   C4B27838  39.662  13.057   7.581
 2010POPC   NC327839   3.926  43.396   9.582
 2010POPC   PO427840   4.305  43.899   9.623
 2010POPC   GL127841   4.229  44.051   9.232
 2010POPC   GL227842   4.277  43.770   9.108
 2010POPC   C1A27843   4.119  44.155   8.795
 2010POPC   D2A27844   4.269  44.040   8.401
 2010POPC   C3A27845   4.102  44.145   8.019
 2010POPC   C4A27846   4.349  44.012   7.755
 2010POPC   C1B27847   4.409  43.660   8.717
 2010POPC   C2B27848   4.136  43.525   8.411
 2010POPC   C3B27849   4.148  43.640   8.047
 2010POPC   C4B27850   4.325  43.386   7.804
 2011POPC   NC327851  36.006  27.136   9.470
 2011POPC   PO427852  36.466  27.587   9.670
 2011POPC   GL127853  36.337  27.414   9.219
 2011POPC   GL227854  36.022  27.592   9.182
 2011POPC   C1A27855  36.337  27.452   8.721
 2011POPC   D2A27856  36.112  27.647   8.325
 2011POPC   C3A27857  36.253  27.494   7.917
 2011POPC   C4A27858  36.273  27.574   7.485
 2011POPC   C1B27859  35.848  27.621   8.776
 2011POPC   C2B27860  35.653  27.371   8.440
 2011POPC   C3B27861  35.729  27.393   8.010
 2011POPC   C4B27862  35.873  27.810   7.829
 2012POPC   NC327863  28.594  24.751   9.437
 2012POPC   PO427864  29.297  24.551   9.514
 2012POPC   GL127865  29.149  24.387   9.115
 2012POPC   GL227866  28.943  24.097   9.079
 2012POPC   C1A27867  29.314  24.435   8.709
 2012POPC   D2A27868  29.155  24.537   8.296
 2012POPC   C3A27869  29.444  24.634   7.950
 2012POPC   C4A27870  29.327  24.737   7.521
 2012POPC   C1B27871  28.808  24.177   8.675
 2012POPC   C2B27872  28.722  23.998   8.255
 2012POPC   C3B27873  28.775  24.281   7.929
 2012POPC   C4B27874  28.950  24.672   7.846
 2013POPC   NC327875   6.352  17.311   9.571
 2013POPC   PO427876   6.721  17.870   9.457
 2013POPC   GL127877   6.618  17.563   9.161
 2013POPC   GL227878   6.307  17.637   9.174
 2013POPC   C1A27879   6.731  17.425   8.738
 2013POPC   D2A27880   7.006  17.581   8.379
 2013POPC   C3A27881   6.856  17.434   7.995
 2013POPC   C4A27882   6.491  17.161   7.872
 2013POPC   C1B27883   6.316  17.761   8.747
 2013POPC   C2B27884   6.516  17.738   8.347
 2013POPC   C3B27885   6.394  17.666   7.893
 2013POPC   C4B27886   6.406  17.664   7.416
 2014POPC   NC327887   6.317  43.202   9.440
 2014POPC   PO427888   6.785  42.689   9.441
 2014POPC   GL127889   6.638  42.969   9.112
 2014POPC   GL227890   6.882  43.223   9.097
 2014POPC   C1A27891   6.354  43.186   8.780
 2014POPC   D2A27892   6.224  43.071   8.340
 2014POPC   C3A27893   6.614  42.887   8.147
 2014POPC   C4A27894   6.966  42.796   7.862
 2014POPC   C1B27895   6.853  43.488   8.774
 2014POPC   C2B27896   6.644  43.408   8.378
 2014POPC   C3B27897   6.495  43.344   7.961
 2014POPC   C4B27898   6.440  43.598   7.634
 2015POPC   NC327899  26.383  42.694   9.578
 2015POPC   PO427900  25.914  43.114   9.657
 2015POPC   GL127901  26.141  43.189   9.253
 2015POPC   GL227902  26.462  42.996   9.165
 2015POPC   C1A27903  26.049  43.033   8.833
 2015POPC   D2A27904  25.747  43.156   8.538
 2015POPC   C3A27905  25.850  43.216   8.136
 2015POPC   C4A27906  26.040  42.986   7.798
 2015POPC   C1B27907  26.480  43.316   8.816
 2015POPC   C2B27908  26.261  43.308   8.433
 2015POPC   C3B27909  26.366  43.304   8.022
 2015POPC   C4B27910  26.576  43.039   7.727
 2016POPC   NC327911   7.359  16.183   9.376
 2016POPC   PO427912   7.001  15.704   9.565
 2016POPC   GL127913   7.250  15.712   9.172
 2016POPC   GL227914   7.579  15.794   9.036
 2016POPC   C1A27915   7.147  15.754   8.733
 2016POPC   D2A27916   7.045  16.058   8.397
 2016POPC   C3A27917   7.271  15.946   7.982
 2016POPC   C4A27918   7.454  16.083   7.571
 2016POPC   C1B27919   7.827  15.620   8.659
 2016POPC   C2B27920   7.916  15.620   8.198
 2016POPC   C3B27921   7.875  15.861   7.795
 2016POPC   C4B27922   7.741  15.702   7.368
 2017POPC   NC327923  35.136   2.422   9.686
 2017POPC   PO427924  35.567   2.861   9.508
 2017POPC   GL127925  35.172   2.774   9.263
 2017POPC   GL227926  35.082   2.466   9.127
 2017POPC   C1A27927  35.093   2.918   8.845
 2017POPC   D2A27928  35.349   2.924   8.477
 2017POPC   C3A27929  35.198   2.855   8.077
 2017POPC   C4A27930  35.236   3.001   7.687
 2017POPC   C1B27931  35.304   2.463   8.722
 2017POPC   C2B27932  35.481   2.433   8.303
 2017POPC   C3B27933  35.495   2.522   7.853
 2017POPC   C4B27934  35.126   2.507   7.646
 2018POPC   NC327935  37.444  31.282   9.518
 2018POPC   PO427936  37.896  31.770   9.575
 2018POPC   GL127937  37.801  31.565   9.195
 2018POPC   GL227938  37.451  31.645   9.180
 2018POPC   C1A27939  37.751  31.690   8.746
 2018POPC   D2A27940  37.925  31.688   8.316
 2018POPC   C3A27941  37.590  31.531   8.049
 2018POPC   C4A27942  37.333  31.578   7.675
 2018POPC   C1B27943  37.439  31.304   8.855
 2018POPC   C2B27944  37.661  31.196   8.463
 2018POPC   C3B27945  37.433  31.034   8.087
 2018POPC   C4B27946  37.284  31.077   7.661
 2019POPC   NC327947  30.439   1.694   9.436
 2019POPC   PO427948  30.788   1.056   9.502
 2019POPC   GL127949  30.655   1.281   9.182
 2019POPC   GL227950  30.330   1.193   9.280
 2019POPC   C1A27951  30.820   1.152   8.811
 2019POPC   D2A27952  30.958   0.905   8.468
 2019POPC   C3A27953  30.883   1.154   8.122
 2019POPC   C4A27954  30.878   0.938   7.739
 2019POPC   C1B27955  30.314   1.030   8.849
 2019POPC   C2B27956  30.486   1.115   8.434
 2019POPC   C3B27957  30.409   1.093   7.976
 2019POPC   C4B27958  30.481   1.173   7.529
 2020POPC   NC327959  11.422  28.982   9.562
 2020POPC   PO427960  11.546  29.632   9.532
 2020POPC   GL127961  11.312  29.361   9.147
 2020POPC   GL227962  11.129  29.013   9.110
 2020POPC   C1A27963  11.173  29.271   8.677
 2020POPC   D2A27964  11.215  29.035   8.262
 2020POPC   C3A27965  11.283  29.249   7.861
 2020POPC   C4A27966  11.577  29.175   7.512
 2020POPC   C1B27967  10.994  28.759   8.708
 2020POPC   C2B27968  10.945  28.584   8.249
 2020POPC   C3B27969  10.893  28.867   7.849
 2020POPC   C4B27970  11.043  29.092   7.435
 2021POPC   NC327971   1.604  29.064   9.502
 2021POPC   PO427972   2.289  28.875   9.563
 2021POPC   GL127973   2.116  28.931   9.160
 2021POPC   GL227974   2.441  28.799   9.054
 2021POPC   C1A27975   1.814  29.134   8.846
 2021POPC   D2A27976   1.714  29.339   8.424
 2021POPC   C3A27977   1.838  29.141   8.026
 2021POPC   C4A27978   1.934  28.975   7.621
 2021POPC   C1B27979   2.280  29.011   8.683
 2021POPC   C2B27980   2.273  29.217   8.328
 2021POPC   C3B27981   2.329  29.131   7.894
 2021POPC   C4B27982   2.382  29.156   7.455
 2022POPC   NC327983  29.129   0.759   9.412
 2022POPC   PO427984  29.009   0.152   9.593
 2022POPC   GL127985  29.075   0.281   9.120
 2022POPC   GL227986  28.796   0.518   9.078
 2022POPC   C1A27987  29.373   0.301   8.719
 2022POPC   D2A27988  29.588   0.089   8.370
 2022POPC   C3A27989  29.517   0.324   8.020
 2022POPC   C4A27990  29.195   0.440   7.811
 2022POPC   C1B27991  28.958   0.597   8.687
 2022POPC   C2B27992  29.023   0.367   8.303
 2022POPC   C3B27993  28.816   0.667   8.056
 2022POPC   C4B27994  28.772   0.804   7.644
 2023POPC   NC327995  37.267  33.968   9.423
 2023POPC   PO427996  36.685  33.646   9.281
 2023POPC   GL127997  36.961  33.822   9.009
 2023POPC   GL227998  37.293  33.645   9.001
 2023POPC   C1A27999  36.933  33.687   8.581
 2023POPC   D2A28000  36.927  33.429   8.204
 2023POPC   C3A28001  36.939  33.695   7.845
 2023POPC   C4A28002  36.827  34.143   7.815
 2023POPC   C1B28003  37.385  33.992   8.758
 2023POPC   C2B28004  37.195  34.110   8.387
 2023POPC   C3B28005  37.368  34.157   8.005
 2023POPC   C4B28006  37.289  34.146   7.592
 2024POPC   NC328007  38.427  12.432   9.444
 2024POPC   PO428008  38.099  13.052   9.366
 2024POPC   GL128009  38.452  12.811   9.107
 2024POPC   GL228010  38.351  12.508   8.911
 2024POPC   C1A28011  38.717  12.818   8.728
 2024POPC   D2A28012  38.600  12.649   8.324
 2024POPC   C3A28013  38.685  12.881   7.963
 2024POPC   C4A28014  38.343  13.111   7.789
 2024POPC   C1B28015  38.202  12.904   8.676
 2024POPC   C2B28016  38.083  12.905   8.252
 2024POPC   C3B28017  38.205  12.595   7.968
 2024POPC   C4B28018  38.179  12.245   7.681
 2025POPC   NC328019   1.505   7.182   9.278
 2025POPC   PO428020   1.058   7.621   9.562
 2025POPC   GL128021   1.092   7.517   9.159
 2025POPC   GL228022   0.975   7.190   9.172
 2025POPC   C1A28023   1.103   7.461   8.720
 2025POPC   D2A28024   0.996   7.565   8.312
 2025POPC   C3A28025   1.356   7.407   8.135
 2025POPC   C4A28026   1.456   7.183   7.801
 2025POPC   C1B28027   0.966   6.975   8.788
 2025POPC   C2B28028   1.101   7.018   8.362
 2025POPC   C3B28029   0.910   7.103   7.964
 2025POPC   C4B28030   1.032   7.073   7.520
 2026POPC   NC328031  12.982  42.639   9.888
 2026POPC   PO428032  12.737  43.167   9.541
 2026POPC   GL128033  12.878  43.234   9.133
 2026POPC   GL228034  13.200  43.423   9.226
 2026POPC   C1A28035  12.780  43.088   8.702
 2026POPC   D2A28036  12.583  43.191   8.305
 2026POPC   C3A28037  12.793  43.162   7.930
 2026POPC   C4A28038  12.675  43.119   7.492
 2026POPC   C1B28039  13.281  43.199   8.819
 2026POPC   C2B28040  13.206  42.923   8.444
 2026POPC   C3B28041  13.283  43.054   8.035
 2026POPC   C4B28042  13.174  43.174   7.590
 2027POPC   NC328043  37.495  14.579   9.801
 2027POPC   PO428044  38.097  14.346   9.557
 2027POPC   GL128045  37.793  14.410   9.219
 2027POPC   GL228046  37.480  14.617   9.239
 2027POPC   C1A28047  37.620  14.241   8.828
 2027POPC   D2A28048  37.831  14.173   8.435
 2027POPC   C3A28049  37.618  14.274   8.049
 2027POPC   C4A28050  37.783  14.090   7.709
 2027POPC   C1B28051  37.583  14.744   8.801
 2027POPC   C2B28052  37.488  14.588   8.420
 2027POPC   C3B28053  37.508  14.779   7.997
 2027POPC   C4B28054  37.738  14.593   7.637
 2028POPC   NC328055  10.061  16.001   9.494
 2028POPC   PO428056   9.413  16.110   9.630
 2028POPC   GL128057   9.656  16.234   9.281
 2028POPC   GL228058   9.678  15.902   9.180
 2028POPC   C1A28059   9.616  16.241   8.814
 2028POPC   D2A28060   9.633  15.935   8.444
 2028POPC   C3A28061   9.555  16.084   8.010
 2028POPC   C4A28062   9.815  16.124   7.650
 2028POPC   C1B28063   9.971  15.850   8.837
 2028POPC   C2B28064  10.136  15.935   8.395
 2028POPC   C3B28065   9.972  15.756   8.011
 2028POPC   C4B28066  10.024  15.670   7.573
 2029POPC   NC328067  21.560  15.418   9.447
 2029POPC   PO428068  20.968  15.192   9.639
 2029POPC   GL128069  21.140  15.154   9.221
 2029POPC   GL228070  21.192  15.464   9.079
 2029POPC   C1A28071  21.168  15.095   8.734
 2029POPC   D2A28072  21.136  15.108   8.299
 2029POPC   C3A28073  21.365  14.927   7.964
 2029POPC   C4A28074  21.400  15.111   7.566
 2029POPC   C1B28075  21.353  15.585   8.723
 2029POPC   C2B28076  21.583  15.516   8.383
 2029POPC   C3B28077  21.355  15.467   7.993
 2029POPC   C4B28078  21.448  15.637   7.610
 2030POPC   NC328079  11.570  18.759   9.466
 2030POPC   PO428080  10.892  18.998   9.667
 2030POPC   GL128081  11.075  18.842   9.270
 2030POPC   GL228082  11.033  19.157   9.154
 2030POPC   C1A28083  11.316  18.736   8.871
 2030POPC   D2A28084  11.599  18.885   8.540
 2030POPC   C3A28085  11.480  18.824   8.097
 2030POPC   C4A28086  11.443  19.138   7.779
 2030POPC   C1B28087  10.868  18.965   8.780
 2030POPC   C2B28088  11.085  18.910   8.419
 2030POPC   C3B28089  10.997  19.160   8.086
 2030POPC   C4B28090  10.957  19.070   7.681
 2031POPC   NC328091  19.047   1.708   9.511
 2031POPC   PO428092  19.257   2.271   9.719
 2031POPC   GL128093  19.070   2.158   9.226
 2031POPC   GL228094  18.915   1.840   9.051
 2031POPC   C1A28095  19.117   2.221   8.756
 2031POPC   D2A28096  18.939   2.355   8.355
 2031POPC   C3A28097  19.123   2.392   7.948
 2031POPC   C4A28098  18.886   2.186   7.653
 2031POPC   C1B28099  19.349   1.748   8.861
 2031POPC   C2B28100  19.465   1.874   8.419
 2031POPC   C3B28101  19.210   1.885   7.998
 2031POPC   C4B28102  19.143   1.754   7.548
 2032POPC   NC328103  24.209  14.306   9.504
 2032POPC   PO428104  23.618  14.127   9.496
 2032POPC   GL128105  23.554  14.404   9.133
 2032POPC   GL228106  23.900  14.329   9.086
 2032POPC   C1A28107  23.670  14.567   8.698
 2032POPC   D2A28108  23.898  14.650   8.303
 2032POPC   C3A28109  23.702  14.539   7.915
 2032POPC   C4A28110  23.248  14.598   7.837
 2032POPC   C1B28111  23.879  14.009   8.780
 2032POPC   C2B28112  23.922  13.859   8.391
 2032POPC   C3B28113  24.021  14.087   8.069
 2032POPC   C4B28114  23.904  14.083   7.668
 2033POPC   NC328115  31.972  30.299   9.779
 2033POPC   PO428116  31.485  29.916   9.597
 2033POPC   GL128117  31.408  29.805   9.153
 2033POPC   GL228118  31.599  30.134   9.121
 2033POPC   C1A28119  31.582  29.826   8.723
 2033POPC   D2A28120  31.507  30.200   8.480
 2033POPC   C3A28121  31.373  30.030   8.118
 2033POPC   C4A28122  31.629  29.891   7.839
 2033POPC   C1B28123  31.941  30.189   8.826
 2033POPC   C2B28124  31.979  30.023   8.417
 2033POPC   C3B28125  31.894  30.275   8.071
 2033POPC   C4B28126  31.964  30.230   7.630
 2034POPC   NC328127  26.410  21.102   9.856
 2034POPC   PO428128  26.964  21.372   9.573
 2034POPC   GL128129  26.757  21.337   9.209
 2034POPC   GL228130  26.898  21.029   9.141
 2034POPC   C1A28131  26.612  21.523   8.834
 2034POPC   D2A28132  26.770  21.631   8.438
 2034POPC   C3A28133  26.557  21.523   8.061
 2034POPC   C4A28134  26.681  21.684   7.694
 2034POPC   C1B28135  26.868  20.989   8.717
 2034POPC   C2B28136  26.975  21.130   8.306
 2034POPC   C3B28137  26.815  21.088   7.880
 2034POPC   C4B28138  26.484  21.203   7.598
 2035POPC   NC328139   0.914  31.486   9.504
 2035POPC   PO428140   1.622  31.607   9.502
 2035POPC   GL128141   1.326  31.413   9.165
 2035POPC   GL228142   0.997  31.208   9.099
 2035POPC   C1A28143   1.206  31.471   8.722
 2035POPC   D2A28144   1.150  31.663   8.308
 2035POPC   C3A28145   1.331  31.456   7.942
 2035POPC   C4A28146   1.309  31.608   7.502
 2035POPC   C1B28147   0.963  30.995   8.720
 2035POPC   C2B28148   1.043  31.164   8.328
 2035POPC   C3B28149   0.804  31.389   8.000
 2035POPC   C4B28150   0.970  31.234   7.629
 2036POPC   NC328151  13.916  31.910   9.539
 2036POPC   PO428152  14.094  32.542   9.731
 2036POPC   GL128153  14.107  32.363   9.295
 2036POPC   GL228154  14.463  32.343   9.147
 2036POPC   C1A28155  14.064  32.493   8.863
 2036POPC   D2A28156  14.262  32.381   8.494
 2036POPC   C3A28157  14.213  32.557   8.094
 2036POPC   C4A28158  14.110  32.347   7.699
 2036POPC   C1B28159  14.608  32.112   8.759
 2036POPC   C2B28160  14.703  32.140   8.312
 2036POPC   C3B28161  14.786  31.899   7.911
 2036POPC   C4B28162  14.545  32.094   7.600
 2037POPC   NC328163  27.940  26.885   9.555
 2037POPC   PO428164  28.532  26.579   9.657
 2037POPC   GL128165  28.439  26.808   9.263
 2037POPC   GL228166  28.649  26.612   9.042
 2037POPC   C1A28167  28.335  26.937   8.825
 2037POPC   D2A28168  28.347  26.734   8.431
 2037POPC   C3A28169  28.307  26.920   7.997
 2037POPC   C4A28170  28.373  26.999   7.559
 2037POPC   C1B28171  28.208  26.451   8.885
 2037POPC   C2B28172  28.048  26.320   8.462
 2037POPC   C3B28173  28.086  26.460   8.070
 2037POPC   C4B28174  28.306  26.466   7.681
 2038POPC   NC328175  21.306  36.240   9.629
 2038POPC   PO428176  21.727  35.695   9.473
 2038POPC   GL128177  21.382  35.910   9.180
 2038POPC   GL228178  21.240  36.254   9.139
 2038POPC   C1A28179  21.202  35.936   8.750
 2038POPC   D2A28180  21.425  35.849   8.363
 2038POPC   C3A28181  21.434  36.127   8.011
 2038POPC   C4A28182  21.184  35.917   7.773
 2038POPC   C1B28183  21.189  36.517   8.805
 2038POPC   C2B28184  21.252  36.387   8.399
 2038POPC   C3B28185  21.153  36.585   8.008
 2038POPC   C4B28186  21.286  36.606   7.596
 2039POPC   NC328187   2.381  39.695   9.582
 2039POPC   PO428188   2.870  40.174   9.557
 2039POPC   GL128189   2.837  39.991   9.177
 2039POPC   GL228190   3.014  39.663   9.211
 2039POPC   C1A28191   2.679  40.153   8.776
 2039POPC   D2A28192   2.723  40.357   8.344
 2039POPC   C3A28193   2.632  40.093   8.017
 2039POPC   C4A28194   2.485  39.798   7.794
 2039POPC   C1B28195   3.085  39.818   8.774
 2039POPC   C2B28196   2.956  39.873   8.348
 2039POPC   C3B28197   3.023  39.703   7.929
 2039POPC   C4B28198   3.319  39.780   7.584
 2040POPC   NC328199  13.533  31.577  10.173
 2040POPC   PO428200  13.946  31.467   9.695
 2040POPC   GL128201  13.742  31.570   9.221
 2040POPC   GL228202  13.398  31.733   9.212
 2040POPC   C1A28203  13.705  31.652   8.742
 2040POPC   D2A28204  13.453  31.549   8.334
 2040POPC   C3A28205  13.650  31.475   7.889
 2040POPC   C4A28206  13.975  31.181   7.697
 2040POPC   C1B28207  13.274  31.941   8.800
 2040POPC   C2B28208  13.102  31.952   8.358
 2040POPC   C3B28209  13.232  31.803   7.946
 2040POPC   C4B28210  13.154  31.401   7.730
 2041POPC   NC328211   9.416  19.135   9.484
 2041POPC   PO428212  10.062  18.799   9.536
 2041POPC   GL128213   9.878  18.985   9.155
 2041POPC   GL228214   9.527  18.858   9.066
 2041POPC   C1A28215   9.855  19.028   8.702
 2041POPC   D2A28216   9.616  19.085   8.352
 2041POPC   C3A28217   9.786  18.923   8.013
 2041POPC   C4A28218  10.080  19.095   7.752
 2041POPC   C1B28219   9.372  19.222   8.800
 2041POPC   C2B28220   9.328  19.504   8.416
 2041POPC   C3B28221   9.345  19.351   7.971
 2041POPC   C4B28222   9.580  19.194   7.631
 2042POPC   NC328223  30.399   6.829   9.245
 2042POPC   PO428224  29.823   6.619   9.506
 2042POPC   GL128225  29.733   6.480   9.125
 2042POPC   GL228226  30.012   6.638   8.992
 2042POPC   C1A28227  29.607   6.656   8.715
 2042POPC   D2A28228  29.806   6.523   8.350
 2042POPC   C3A28229  29.619   6.649   7.997
 2042POPC   C4A28230  29.608   6.758   7.559
 2042POPC   C1B28231  30.041   6.901   8.603
 2042POPC   C2B28232  30.054   6.953   8.159
 2042POPC   C3B28233  30.084   6.744   7.772
 2042POPC   C4B28234  30.068   6.882   7.346
 2043POPC   NC328235  14.833  22.577   9.428
 2043POPC   PO428236  15.012  23.201   9.685
 2043POPC   GL128237  15.217  22.959   9.290
 2043POPC   GL228238  14.968  22.911   9.073
 2043POPC   C1A28239  15.409  22.785   8.851
 2043POPC   D2A28240  15.557  22.896   8.403
 2043POPC   C3A28241  15.366  22.919   7.973
 2043POPC   C4A28242  15.533  22.760   7.571
 2043POPC   C1B28243  15.130  23.205   8.778
 2043POPC   C2B28244  15.043  23.079   8.373
 2043POPC   C3B28245  14.855  22.866   8.033
 2043POPC   C4B28246  14.942  23.141   7.678
 2044POPC   NC328247  31.942  15.710   9.531
 2044POPC   PO428248  32.543  16.077   9.466
 2044POPC   GL128249  32.285  15.872   9.167
 2044POPC   GL228250  31.969  16.038   9.132
 2044POPC   C1A28251  32.300  15.740   8.750
 2044POPC   D2A28252  32.312  15.921   8.363
 2044POPC   C3A28253  32.469  15.647   8.062
 2044POPC   C4A28254  32.447  15.925   7.763
 2044POPC   C1B28255  32.094  16.218   8.751
 2044POPC   C2B28256  31.958  16.398   8.393
 2044POPC   C3B28257  31.808  16.288   7.998
 2044POPC   C4B28258  32.030  16.205   7.638
 2045POPC   NC328259   0.682  43.126   9.531
 2045POPC   PO428260   0.006  43.227   9.441
 2045POPC   GL128261   0.345  43.249   9.168
 2045POPC   GL228262   0.436  42.886   9.159
 2045POPC   C1A28263   0.531  43.378   8.787
 2045POPC   D2A28264   0.297  43.416   8.401
 2045POPC   C3A28265   0.503  43.354   7.996
 2045POPC   C4A28266   0.374  43.197   7.578
 2045POPC   C1B28267   0.329  42.899   8.759
 2045POPC   C2B28268   0.481  42.952   8.372
 2045POPC   C3B28269   0.530  42.839   7.973
 2045POPC   C4B28270   0.132  42.717   7.829
 2046POPC   NC328271  13.489   1.680   9.762
 2046POPC   PO428272  13.790   2.278   9.514
 2046POPC   GL128273  13.519   2.071   9.204
 2046POPC   GL228274  13.453   1.710   9.115
 2046POPC   C1A28275  13.364   2.089   8.784
 2046POPC   D2A28276  13.446   1.874   8.426
 2046POPC   C3A28277  13.319   2.010   8.046
 2046POPC   C4A28278  13.519   2.171   7.731
 2046POPC   C1B28279  13.801   1.673   8.737
 2046POPC   C2B28280  14.091   1.553   8.380
 2046POPC   C3B28281  13.949   1.449   7.956
 2046POPC   C4B28282  13.601   1.673   7.723
 2047POPC   NC328283   7.903   7.980   9.286
 2047POPC   PO428284   8.379   8.514   9.465
 2047POPC   GL128285   8.191   8.365   9.100
 2047POPC   GL228286   7.861   8.464   9.088
 2047POPC   C1A28287   8.230   8.097   8.742
 2047POPC   D2A28288   8.600   8.009   8.535
 2047POPC   C3A28289   8.597   7.766   8.180
 2047POPC   C4A28290   8.407   7.943   7.844
 2047POPC   C1B28291   7.978   8.535   8.637
 2047POPC   C2B28292   8.087   8.251   8.264
 2047POPC   C3B28293   7.919   8.168   7.851
 2047POPC   C4B28294   7.855   8.451   7.474
 2048POPC   NC328295  35.537   0.016   9.454
 2048POPC   PO428296  35.062  44.535   9.448
 2048POPC   GL128297  34.941  44.601   9.049
 2048POPC   GL228298  35.249  44.831   9.081
 2048POPC   C1A28299  35.004  44.282   8.706
 2048POPC   D2A28300  35.324  44.270   8.388
 2048POPC   C3A28301  35.249  44.624   8.132
 2048POPC   C4A28302  35.323  44.692   7.737
 2048POPC   C1B28303  35.472  44.664   8.752
 2048POPC   C2B28304  35.699  44.671   8.382
 2048POPC   C3B28305  35.711  44.450   8.003
 2048POPC   C4B28306  35.810  44.629   7.606
 2049POPC   NC328307  19.971  22.232   9.625
 2049POPC   PO428308  19.437  21.889   9.512
 2049POPC   GL128309  19.618  22.130   9.167
 2049POPC   GL228310  19.872  22.392   9.147
 2049POPC   C1A28311  19.568  22.300   8.742
 2049POPC   D2A28312  19.763  22.175   8.380
 2049POPC   C3A28313  19.702  22.336   7.981
 2049POPC   C4A28314  19.763  22.011   7.754
 2049POPC   C1B28315  20.102  22.346   8.767
 2049POPC   C2B28316  20.172  22.464   8.343
 2049POPC   C3B28317  20.179  22.185   8.027
 2049POPC   C4B28318  20.178  22.422   7.675
 2050POPC   NC328319   6.124  33.560   9.494
 2050POPC   PO428320   5.548  33.821   9.506
 2050POPC   GL128321   5.737  33.701   9.158
 2050POPC   GL228322   5.587  33.390   9.048
 2050POPC   C1A28323   5.986  33.982   8.858
 2050POPC   D2A28324   5.871  34.241   8.493
 2050POPC   C3A28325   6.061  34.184   8.075
 2050POPC   C4A28326   5.917  33.921   7.755
 2050POPC   C1B28327   5.753  33.571   8.681
 2050POPC   C2B28328   5.996  33.537   8.339
 2050POPC   C3B28329   5.891  33.447   7.913
 2050POPC   C4B28330   5.480  33.577   7.753
 2051POPC   NC328331  36.421  39.881   9.446
 2051POPC   PO428332  35.864  40.021   9.421
 2051POPC   GL128333  36.121  40.134   9.109
 2051POPC   GL228334  36.151  39.794   9.034
 2051POPC   C1A28335  36.054  40.203   8.699
 2051POPC   D2A28336  36.062  40.261   8.296
 2051POPC   C3A28337  35.883  39.975   8.031
 2051POPC   C4A28338  36.052  40.261   7.756
 2051POPC   C1B28339  36.279  39.518   8.776
 2051POPC   C2B28340  36.101  39.624   8.396
 2051POPC   C3B28341  36.235  39.552   7.989
 2051POPC   C4B28342  36.195  39.775   7.615
 2052POPC   NC328343  39.423   4.231   9.378
 2052POPC   PO428344  38.778   4.327   9.354
 2052POPC   GL128345  39.086   4.391   9.001
 2052POPC   GL228346  39.504   4.373   8.899
 2052POPC   C1A28347  39.108   4.367   8.577
 2052POPC   D2A28348  39.405   4.274   8.259
 2052POPC   C3A28349  39.165   4.148   7.845
 2052POPC   C4A28350  39.175   4.116   7.390
 2052POPC   C1B28351  39.428   4.754   8.655
 2052POPC   C2B28352  39.253   4.811   8.282
 2052POPC   C3B28353  39.307   4.628   7.913
 2052POPC   C4B28354  39.449   4.524   7.483
 2053POPC   NC328355  13.021  44.499   9.569
 2053POPC   PO428356  12.417  44.753   9.434
 2053POPC   GL128357  12.781  44.868   9.159
 2053POPC   GL228358  13.152  44.737   9.143
 2053POPC   C1A28359  12.814  44.765   8.728
 2053POPC   D2A28360  12.844  44.477   8.405
 2053POPC   C3A28361  12.801  44.718   8.044
 2053POPC   C4A28362  12.594  44.823   7.657
 2053POPC   C1B28363  13.263  44.516   8.759
 2053POPC   C2B28364  13.338  44.314   8.367
 2053POPC   C3B28365  13.098  44.296   7.974
 2053POPC   C4B28366  13.101  44.633   7.637
 2054POPC   NC328367  13.693   0.882   9.337
 2054POPC   PO428368  13.876   0.282   9.656
 2054POPC   GL128369  13.709   0.381   9.252
 2054POPC   GL228370  13.621   0.072   9.102
 2054POPC   C1A28371  13.573   0.490   8.815
 2054POPC   D2A28372  13.573   0.289   8.416
 2054POPC   C3A28373  13.498   0.583   8.106
 2054POPC   C4A28374  13.501   0.527   7.669
 2054POPC   C1B28375  13.272   0.055   8.775
 2054POPC   C2B28376  13.214  44.884   8.351
 2054POPC   C3B28377  13.372   0.080   7.966
 2054POPC   C4B28378  13.787   0.130   7.853
 2055POPC   NC328379  15.579   4.569   9.614
 2055POPC   PO428380  16.237   4.518   9.442
 2055POPC   GL128381  16.004   4.294   9.153
 2055POPC   GL228382  16.214   4.006   9.084
 2055POPC   C1A28383  15.911   4.405   8.727
 2055POPC   D2A28384  16.150   4.547   8.384
 2055POPC   C3A28385  16.033   4.445   7.935
 2055POPC   C4A28386  16.251   4.312   7.540
 2055POPC   C1B28387  16.049   3.915   8.681
 2055POPC   C2B28388  16.004   4.067   8.273
 2055POPC   C3B28389  16.148   3.923   7.899
 2055POPC   C4B28390  16.223   3.782   7.505
 2056POPC   NC328391  26.369  36.929   9.466
 2056POPC   PO428392  25.690  36.752   9.514
 2056POPC   GL128393  25.929  36.927   9.124
 2056POPC   GL228394  26.274  36.737   9.012
 2056POPC   C1A28395  26.189  37.196   8.814
 2056POPC   D2A28396  26.436  37.064   8.446
 2056POPC   C3A28397  26.227  37.171   8.035
 2056POPC   C4A28398  25.799  37.131   7.921
 2056POPC   C1B28399  26.027  36.722   8.635
 2056POPC   C2B28400  25.750  36.777   8.278
 2056POPC   C3B28401  26.020  36.663   7.941
 2056POPC   C4B28402  26.478  36.735   8.047
 2057POPC   NC328403   1.176  37.638   9.587
 2057POPC   PO428404   1.700  38.024   9.379
 2057POPC   GL128405   1.409  37.707   9.106
 2057POPC   GL228406   1.006  37.643   9.118
 2057POPC   C1A28407   1.240  37.667   8.663
 2057POPC   D2A28408   0.953  37.843   8.331
 2057POPC   C3A28409   1.153  37.945   7.941
 2057POPC   C4A28410   1.176  37.815   7.522
 2057POPC   C1B28411   0.892  37.324   8.814
 2057POPC   C2B28412   0.919  37.339   8.355
 2057POPC   C3B28413   1.078  37.436   7.927
 2057POPC   C4B28414   1.105  37.315   7.477
 2058POPC   NC328415  31.082   5.093   9.521
 2058POPC   PO428416  31.688   5.289   9.605
 2058POPC   GL128417  31.555   4.986   9.306
 2058POPC   GL228418  31.795   4.747   9.168
 2058POPC   C1A28419  31.409   5.006   8.883
 2058POPC   D2A28420  31.614   5.094   8.494
 2058POPC   C3A28421  31.377   5.153   8.113
 2058POPC   C4A28422  31.303   5.172   7.698
 2058POPC   C1B28423  31.966   4.673   8.747
 2058POPC   C2B28424  31.838   4.476   8.368
 2058POPC   C3B28425  31.735   4.776   8.110
 2058POPC   C4B28426  31.748   4.893   7.709
 2059POPC   NC328427  16.925  18.219   9.602
 2059POPC   PO428428  16.461  18.633   9.424
 2059POPC   GL128429  16.679  18.376   9.156
 2059POPC   GL228430  17.043  18.406   9.106
 2059POPC   C1A28431  16.500  18.091   8.875
 2059POPC   D2A28432  16.491  18.019   8.423
 2059POPC   C3A28433  16.879  18.065   8.172
 2059POPC   C4A28434  16.953  18.067   7.721
 2059POPC   C1B28435  16.896  18.322   8.658
 2059POPC   C2B28436  16.649  18.508   8.295
 2059POPC   C3B28437  16.780  18.590   7.836
 2059POPC   C4B28438  16.934  18.713   7.385
 2060POPC   NC328439   3.878   7.654   9.390
 2060POPC   PO428440   4.480   7.318   9.553
 2060POPC   GL128441   4.291   7.450   9.186
 2060POPC   GL228442   3.997   7.185   9.212
 2060POPC   C1A28443   4.258   7.660   8.779
 2060POPC   D2A28444   4.460   7.601   8.382
 2060POPC   C3A28445   4.319   7.736   7.957
 2060POPC   C4A28446   4.264   7.658   7.477
 2060POPC   C1B28447   3.843   7.104   8.796
 2060POPC   C2B28448   3.989   7.341   8.426
 2060POPC   C3B28449   4.246   7.255   8.061
 2060POPC   C4B28450   4.233   7.092   7.689
 2061POPC   NC328451   6.473  36.501   9.518
 2061POPC   PO428452   6.616  37.158   9.576
 2061POPC   GL128453   6.656  36.904   9.224
 2061POPC   GL228454   6.311  36.823   9.173
 2061POPC   C1A28455   6.745  36.721   8.812
 2061POPC   D2A28456   6.946  36.611   8.434
 2061POPC   C3A28457   6.853  36.847   8.080
 2061POPC   C4A28458   6.611  36.816   7.718
 2061POPC   C1B28459   6.215  36.694   8.783
 2061POPC   C2B28460   6.419  36.702   8.385
 2061POPC   C3B28461   6.348  37.048   8.111
 2061POPC   C4B28462   6.177  37.122   7.749
 2062POPC   NC328463  38.557  14.190   9.558
 2062POPC   PO428464  38.642  14.903   9.509
 2062POPC   GL128465  38.495  14.540   9.176
 2062POPC   GL228466  38.326  14.218   9.127
 2062POPC   C1A28467  38.631  14.321   8.753
 2062POPC   D2A28468  38.840  14.461   8.383
 2062POPC   C3A28469  38.650  14.470   7.982
 2062POPC   C4A28470  38.880  14.420   7.593
 2062POPC   C1B28471  38.118  14.404   8.817
 2062POPC   C2B28472  38.262  14.470   8.418
 2062POPC   C3B28473  38.117  14.430   8.001
 2062POPC   C4B28474  38.290  14.160   7.703
 2063POPC   NC328475  23.101  40.373   9.483
 2063POPC   PO428476  22.729  39.839   9.595
 2063POPC   GL128477  22.904  39.967   9.227
 2063POPC   GL228478  23.193  39.838   9.235
 2063POPC   C1A28479  22.831  40.086   8.819
 2063POPC   D2A28480  22.926  40.214   8.413
 2063POPC   C3A28481  22.682  40.037   8.101
 2063POPC   C4A28482  22.762  39.897   7.697
 2063POPC   C1B28483  23.320  39.920   8.814
 2063POPC   C2B28484  23.369  39.922   8.373
 2063POPC   C3B28485  23.205  39.898   7.948
 2063POPC   C4B28486  23.204  39.955   7.434
 2064POPC   NC328487   8.192   0.672   9.499
 2064POPC   PO428488   8.285   0.033   9.298
 2064POPC   GL128489   8.299   0.444   9.054
 2064POPC   GL228490   8.002   0.682   9.017
 2064POPC   C1A28491   8.190   0.399   8.629
 2064POPC   D2A28492   8.387   0.166   8.319
 2064POPC   C3A28493   8.183   0.214   7.931
 2064POPC   C4A28494   8.175   0.449   7.570
 2064POPC   C1B28495   7.794   0.715   8.622
 2064POPC   C2B28496   7.907   0.592   8.199
 2064POPC   C3B28497   7.862   0.787   7.803
 2064POPC   C4B28498   7.924   0.859   7.369
 2065POPC   NC328499  43.022  29.833   9.448
 2065POPC   PO428500  43.380  30.419   9.450
 2065POPC   GL128501  43.208  30.167   9.094
 2065POPC   GL228502  43.310  29.808   9.019
 2065POPC   C1A28503  43.061  30.227   8.680
 2065POPC   D2A28504  43.174  30.319   8.250
 2065POPC   C3A28505  43.231  29.966   7.952
 2065POPC   C4A28506  43.175  29.813   7.488
 2065POPC   C1B28507  42.975  29.700   8.703
 2065POPC   C2B28508  42.879  29.499   8.301
 2065POPC   C3B28509  42.876  29.597   7.854
 2065POPC   C4B28510  42.700  29.676   7.419
 2066POPC   NC328511  41.799  19.015   9.287
 2066POPC   PO428512  41.202  18.775   9.563
 2066POPC   GL128513  41.314  18.889   9.119
 2066POPC   GL228514  41.316  19.261   9.063
 2066POPC   C1A28515  41.432  18.961   8.654
 2066POPC   D2A28516  41.204  18.862   8.255
 2066POPC   C3A28517  41.290  19.032   7.841
 2066POPC   C4A28518  41.688  18.896   7.716
 2066POPC   C1B28519  41.634  19.431   8.743
 2066POPC   C2B28520  41.861  19.332   8.372
 2066POPC   C3B28521  41.703  19.373   7.944
 2066POPC   C4B28522  41.645  19.349   7.490
 2067POPC   NC328523  21.819   9.907   9.452
 2067POPC   PO428524  22.367   9.603   9.734
 2067POPC   GL128525  22.270   9.721   9.318
 2067POPC   GL228526  22.352  10.078   9.254
 2067POPC   C1A28527  22.274   9.672   8.879
 2067POPC   D2A28528  22.354   9.818   8.443
 2067POPC   C3A28529  22.046   9.758   8.093
 2067POPC   C4A28530  22.142   9.668   7.684
 2067POPC   C1B28531  22.578  10.161   8.823
 2067POPC   C2B28532  22.516  10.300   8.377
 2067POPC   C3B28533  22.505  10.029   7.987
 2067POPC   C4B28534  22.478  10.025   7.545
 2068POPC   NC328535  16.700  35.630   9.494
 2068POPC   PO428536  16.877  35.025   9.556
 2068POPC   GL128537  16.850  35.260   9.167
 2068POPC   GL228538  16.551  35.140   9.122
 2068POPC   C1A28539  17.018  35.422   8.772
 2068POPC   D2A28540  16.884  35.273   8.354
 2068POPC   C3A28541  17.106  35.191   7.955
 2068POPC   C4A28542  17.006  35.426   7.563
 2068POPC   C1B28543  16.497  35.334   8.753
 2068POPC   C2B28544  16.345  35.266   8.357
 2068POPC   C3B28545  16.535  35.400   7.979
 2068POPC   C4B28546  16.421  35.403   7.544
 2069POPC   NC328547  23.231  44.320   9.511
 2069POPC   PO428548  22.776  44.788   9.608
 2069POPC   GL128549  22.986  44.680   9.179
 2069POPC   GL228550  23.097  44.979   9.004
 2069POPC   C1A28551  23.049  44.590   8.702
 2069POPC   D2A28552  23.154  44.249   8.455
 2069POPC   C3A28553  23.227  44.334   8.026
 2069POPC   C4A28554  23.096  44.668   7.757
 2069POPC   C1B28555  22.846   0.051   8.693
 2069POPC   C2B28556  22.972   0.093   8.268
 2069POPC   C3B28557  22.934   0.131   7.806
 2069POPC   C4B28558  22.715  44.965   7.444
 2070POPC   NC328559  40.987   5.919   9.602
 2070POPC   PO428560  41.042   5.315   9.436
 2070POPC   GL128561  40.897   5.674   9.111
 2070POPC   GL228562  40.943   6.059   9.102
 2070POPC   C1A28563  40.564   5.655   8.770
 2070POPC   D2A28564  40.738   5.692   8.376
 2070POPC   C3A28565  40.600   5.756   7.977
 2070POPC   C4A28566  40.789   6.077   7.762
 2070POPC   C1B28567  40.765   6.118   8.695
 2070POPC   C2B28568  40.655   6.221   8.263
 2070POPC   C3B28569  40.467   6.446   7.907
 2070POPC   C4B28570  40.423   6.292   7.457
 2071POPC   NC328571  42.949  30.557   9.317
 2071POPC   PO428572  43.238  31.147   9.452
 2071POPC   GL128573  43.205  30.949   9.060
 2071POPC   GL228574  43.395  30.660   9.019
 2071POPC   C1A28575  43.044  30.755   8.653
 2071POPC   D2A28576  42.967  30.841   8.218
 2071POPC   C3A28577  42.881  30.534   7.899
 2071POPC   C4A28578  42.787  30.098   7.747
 2071POPC   C1B28579  43.519  30.545   8.623
 2071POPC   C2B28580  43.482  30.724   8.226
 2071POPC   C3B28581  43.469  30.532   7.822
 2071POPC   C4B28582  43.206  30.321   7.548
 2072POPC   NC328583  28.183  28.548   9.521
 2072POPC   PO428584  28.668  28.059   9.588
 2072POPC   GL128585  28.659  28.302   9.198
 2072POPC   GL228586  28.323  28.338   9.069
 2072POPC   C1A28587  28.705  28.445   8.744
 2072POPC   D2A28588  28.380  28.295   8.473
 2072POPC   C3A28589  28.330  28.401   8.079
 2072POPC   C4A28590  28.577  28.578   7.760
 2072POPC   C1B28591  27.990  28.191   8.809
 2072POPC   C2B28592  27.871  28.171   8.382
 2072POPC   C3B28593  27.859  28.279   7.958
 2072POPC   C4B28594  28.122  28.241   7.594
 2073POPC   NC328595   4.446   2.515   9.431
 2073POPC   PO428596   4.563   3.222   9.444
 2073POPC   GL128597   4.513   2.913   9.111
 2073POPC   GL228598   4.186   2.874   9.173
 2073POPC   C1A28599   4.485   2.567   8.779
 2073POPC   D2A28600   4.407   2.276   8.443
 2073POPC   C3A28601   4.465   2.471   8.040
 2073POPC   C4A28602   4.401   2.667   7.619
 2073POPC   C1B28603   3.995   2.616   8.857
 2073POPC   C2B28604   4.015   2.625   8.422
 2073POPC   C3B28605   4.028   2.721   7.996
 2073POPC   C4B28606   3.846   2.696   7.607
 2074POPC   NC328607  11.221  11.767   9.504
 2074POPC   PO428608  11.479  12.428   9.548
 2074POPC   GL128609  11.517  12.121   9.198
 2074POPC   GL228610  11.173  12.057   9.080
 2074POPC   C1A28611  11.525  11.984   8.744
 2074POPC   D2A28612  11.478  12.258   8.408
 2074POPC   C3A28613  11.405  12.037   8.040
 2074POPC   C4A28614  11.511  12.040   7.648
 2074POPC   C1B28615  11.056  12.292   8.730
 2074POPC   C2B28616  10.994  12.119   8.330
 2074POPC   C3B28617  10.952  12.223   7.900
 2074POPC   C4B28618  10.905  12.030   7.519
 2075POPC   NC328619  10.586  16.426   9.516
 2075POPC   PO428620  10.697  17.066   9.610
 2075POPC   GL128621  10.390  16.869   9.270
 2075POPC   GL228622  10.443  16.557   9.050
 2075POPC   C1A28623  10.307  16.955   8.786
 2075POPC   D2A28624  10.576  16.886   8.416
 2075POPC   C3A28625  10.492  17.042   7.998
 2075POPC   C4A28626  10.595  16.880   7.592
 2075POPC   C1B28627  10.247  16.303   8.759
 2075POPC   C2B28628  10.186  16.442   8.337
 2075POPC   C3B28629  10.189  16.244   7.968
 2075POPC   C4B28630  10.197  16.535   7.665
 2076POPC   NC328631   0.536   4.518   9.654
 2076POPC   PO428632   0.174   4.057   9.343
 2076POPC   GL128633   0.396   4.356   9.178
 2076POPC   GL228634   0.278   4.668   9.242
 2076POPC   C1A28635   0.648   4.477   8.862
 2076POPC   D2A28636   0.590   4.483   8.441
 2076POPC   C3A28637   0.727   4.147   8.178
 2076POPC   C4A28638   0.875   4.203   7.785
 2076POPC   C1B28639   0.144   4.650   8.839
 2076POPC   C2B28640   0.095   4.619   8.430
 2076POPC   C3B28641   0.269   4.716   8.052
 2076POPC   C4B28642   0.413   4.401   7.818
 2077POPC   NC328643  29.695  39.364   9.523
 2077POPC   PO428644  30.207  38.913   9.524
 2077POPC   GL128645  29.980  39.171   9.149
 2077POPC   GL228646  29.883  39.531   9.090
 2077POPC   C1A28647  29.828  39.177   8.728
 2077POPC   D2A28648  29.816  39.056   8.323
 2077POPC   C3A28649  30.007  38.848   8.017
 2077POPC   C4A28650  29.970  38.979   7.633
 2077POPC   C1B28651  30.215  39.498   8.792
 2077POPC   C2B28652  30.281  39.257   8.432
 2077POPC   C3B28653  30.142  39.353   8.027
 2077POPC   C4B28654  30.059  39.495   7.610
 2078POPC   NC328655  34.596  16.210   9.439
 2078POPC   PO428656  34.420  15.545   9.482
 2078POPC   GL128657  34.582  15.764   9.170
 2078POPC   GL228658  34.723  16.037   8.996
 2078POPC   C1A28659  34.332  15.748   8.830
 2078POPC   D2A28660  34.184  15.778   8.473
 2078POPC   C3A28661  34.354  16.104   8.224
 2078POPC   C4A28662  34.582  16.048   7.869
 2078POPC   C1B28663  34.604  16.221   8.642
 2078POPC   C2B28664  34.895  16.209   8.293
 2078POPC   C3B28665  34.933  16.406   7.929
 2078POPC   C4B28666  34.599  16.575   7.732
 2079POPC   NC328667  43.379  41.994   9.314
 2079POPC   PO428668  43.355  41.276   9.419
 2079POPC   GL128669  43.227  41.536   9.101
 2079POPC   GL228670  43.533  41.640   8.986
 2079POPC   C1A28671  43.102  41.548   8.684
 2079POPC   D2A28672  43.171  41.297   8.317
 2079POPC   C3A28673  42.806  41.349   8.080
 2079POPC   C4A28674  42.807  41.619   7.733
 2079POPC   C1B28675  43.528  41.875   8.627
 2079POPC   C2B28676  43.313  41.801   8.266
 2079POPC   C3B28677  43.286  41.844   7.854
 2079POPC   C4B28678  43.305  41.689   7.453
 2080POPC   NC328679  23.227  32.401   9.966
 2080POPC   PO428680  23.813  32.264   9.604
 2080POPC   GL128681  23.597  32.160   9.222
 2080POPC   GL228682  23.476  31.877   9.243
 2080POPC   C1A28683  23.613  32.295   8.792
 2080POPC   D2A28684  23.872  32.327   8.410
 2080POPC   C3A28685  23.645  32.485   8.066
 2080POPC   C4A28686  23.780  32.462   7.664
 2080POPC   C1B28687  23.740  31.786   8.851
 2080POPC   C2B28688  23.693  31.845   8.404
 2080POPC   C3B28689  23.835  32.003   7.992
 2080POPC   C4B28690  23.549  31.975   7.675
 2081POPC   NC328691   7.058  17.534   9.438
 2081POPC   PO428692   7.599  17.182   9.546
 2081POPC   GL128693   7.420  17.306   9.140
 2081POPC   GL228694   7.566  17.636   9.039
 2081POPC   C1A28695   7.324  17.329   8.691
 2081POPC   D2A28696   7.523  17.182   8.317
 2081POPC   C3A28697   7.434  17.385   7.923
 2081POPC   C4A28698   7.285  17.506   7.518
 2081POPC   C1B28699   7.359  17.833   8.702
 2081POPC   C2B28700   7.473  17.771   8.268
 2081POPC   C3B28701   7.267  17.908   7.877
 2081POPC   C4B28702   7.260  18.002   7.405
 2082POPC   NC328703  15.379  21.151   9.557
 2082POPC   PO428704  14.829  21.386   9.538
 2082POPC   GL128705  14.996  21.156   9.193
 2082POPC   GL228706  15.199  21.423   9.144
 2082POPC   C1A28707  14.930  21.235   8.727
 2082POPC   D2A28708  15.041  21.533   8.382
 2082POPC   C3A28709  14.976  21.328   8.009
 2082POPC   C4A28710  15.060  21.097   7.652
 2082POPC   C1B28711  15.425  21.323   8.783
 2082POPC   C2B28712  15.349  21.114   8.415
 2082POPC   C3B28713  15.492  21.164   8.013
 2082POPC   C4B28714  15.428  21.442   7.705
 2083POPC   NC328715   2.838  11.791   9.519
 2083POPC   PO428716   2.399  12.283   9.648
 2083POPC   GL128717   2.513  12.287   9.219
 2083POPC   GL228718   2.534  11.922   9.129
 2083POPC   C1A28719   2.660  12.498   8.841
 2083POPC   D2A28720   2.967  12.355   8.535
 2083POPC   C3A28721   2.824  12.187   8.155
 2083POPC   C4A28722   2.824  12.153   7.708
 2083POPC   C1B28723   2.658  11.983   8.707
 2083POPC   C2B28724   2.466  11.835   8.324
 2083POPC   C3B28725   2.615  11.739   7.936
 2083POPC   C4B28726   2.677  11.702   7.488
 2084POPC   NC328727  27.330   9.940   9.577
 2084POPC   PO428728  27.724   9.417   9.672
 2084POPC   GL128729  27.701   9.669   9.271
 2084POPC   GL228730  27.700  10.035   9.220
 2084POPC   C1A28731  27.724   9.642   8.809
 2084POPC   D2A28732  27.906   9.557   8.363
 2084POPC   C3A28733  27.820   9.827   7.966
 2084POPC   C4A28734  27.909   9.779   7.501
 2084POPC   C1B28735  27.464  10.083   8.821
 2084POPC   C2B28736  27.497   9.881   8.399
 2084POPC   C3B28737  27.316   9.693   8.027
 2084POPC   C4B28738  27.410   9.762   7.611
 2085POPC   NC328739  25.200  32.726   9.510
 2085POPC   PO428740  25.321  33.397   9.544
 2085POPC   GL128741  25.416  33.133   9.226
 2085POPC   GL228742  25.089  33.080   9.150
 2085POPC   C1A28743  25.421  33.059   8.777
 2085POPC   D2A28744  25.054  33.094   8.510
 2085POPC   C3A28745  25.193  33.143   8.096
 2085POPC   C4A28746  25.203  32.997   7.684
 2085POPC   C1B28747  25.013  32.700   8.867
 2085POPC   C2B28748  24.861  32.630   8.441
 2085POPC   C3B28749  24.969  32.685   8.025
 2085POPC   C4B28750  24.833  32.569   7.626
 2086POPC   NC328751  44.089  22.692   9.508
 2086POPC   PO428752  43.887  23.254   9.759
 2086POPC   GL128753  43.920  23.073   9.213
 2086POPC   GL228754  43.932  22.687   9.043
 2086POPC   C1A28755  43.650  22.983   8.751
 2086POPC   D2A28756  43.660  22.682   8.371
 2086POPC   C3A28757  43.813  22.912   8.022
 2086POPC   C4A28758  43.645  23.284   7.837
 2086POPC   C1B28759  44.088  22.762   8.632
 2086POPC   C2B28760  44.072  23.211   8.502
 2086POPC   C3B28761  44.053  23.400   8.101
 2086POPC   C4B28762  44.164  23.265   7.694
 2087POPC   NC328763  32.355  18.372   9.540
 2087POPC   PO428764  32.330  17.782   9.324
 2087POPC   GL128765  32.090  17.992   9.057
 2087POPC   GL228766  32.011  18.327   9.171
 2087POPC   C1A28767  32.177  17.953   8.626
 2087POPC   D2A28768  31.840  17.911   8.340
 2087POPC   C3A28769  31.906  18.271   8.116
 2087POPC   C4A28770  32.202  18.162   7.778
 2087POPC   C1B28771  32.222  18.438   8.848
 2087POPC   C2B28772  32.179  18.571   8.435
 2087POPC   C3B28773  32.296  18.632   8.013
 2087POPC   C4B28774  32.389  18.585   7.581
 2088POPC   NC328775  10.702  42.154   9.444
 2088POPC   PO428776  10.089  41.885   9.468
 2088POPC   GL128777  10.206  42.211   9.137
 2088POPC   GL228778  10.387  42.527   9.210
 2088POPC   C1A28779  10.357  42.277   8.683
 2088POPC   D2A28780  10.545  41.966   8.349
 2088POPC   C3A28781  10.627  42.129   7.965
 2088POPC   C4A28782  10.242  42.241   7.745
 2088POPC   C1B28783  10.658  42.675   8.890
 2088POPC   C2B28784  10.819  42.639   8.484
 2088POPC   C3B28785  10.689  42.639   8.056
 2088POPC   C4B28786  10.796  42.502   7.624
 2089POPC   NC328787  25.666  30.180   9.640
 2089POPC   PO428788  25.035  30.040   9.539
 2089POPC   GL128789  25.245  29.939   9.168
 2089POPC   GL228790  25.464  30.203   9.135
 2089POPC   C1A28791  25.310  29.725   8.772
 2089POPC   D2A28792  25.425  29.849   8.349
 2089POPC   C3A28793  25.184  29.641   8.050
 2089POPC   C4A28794  25.147  29.654   7.641
 2089POPC   C1B28795  25.385  30.246   8.728
 2089POPC   C2B28796  25.085  30.230   8.443
 2089POPC   C3B28797  25.092  30.138   8.011
 2089POPC   C4B28798  25.499  30.004   7.812
 2090POPC   NC328799  41.999   3.884   9.721
 2090POPC   PO428800  42.270   3.346   9.450
 2090POPC   GL128801  42.274   3.627   9.152
 2090POPC   GL228802  42.301   3.944   9.299
 2090POPC   C1A28803  42.307   3.551   8.737
 2090POPC   D2A28804  42.380   3.306   8.367
 2090POPC   C3A28805  42.248   3.392   7.940
 2090POPC   C4A28806  42.527   3.178   7.633
 2090POPC   C1B28807  42.202   4.062   8.870
 2090POPC   C2B28808  42.390   3.967   8.464
 2090POPC   C3B28809  42.235   3.971   8.070
 2090POPC   C4B28810  42.167   3.843   7.691
 2091POPC   NC328811   2.740  38.795   9.464
 2091POPC   PO428812   2.296  38.274   9.597
 2091POPC   GL128813   2.569  38.407   9.178
 2091POPC   GL228814   2.560  38.713   8.995
 2091POPC   C1A28815   2.710  38.311   8.736
 2091POPC   D2A28816   2.919  38.290   8.331
 2091POPC   C3A28817   2.585  38.320   7.998
 2091POPC   C4A28818   2.594  38.446   7.567
 2091POPC   C1B28819   2.954  38.792   8.747
 2091POPC   C2B28820   3.078  38.779   8.320
 2091POPC   C3B28821   2.993  38.615   7.895
 2091POPC   C4B28822   3.001  38.779   7.470
 2092POPC   NC328823  16.232  37.326   9.304
 2092POPC   PO428824  15.968  36.763   9.476
 2092POPC   GL128825  15.904  36.879   9.079
 2092POPC   GL228826  15.979  36.535   9.038
 2092POPC   C1A28827  16.049  37.096   8.695
 2092POPC   D2A28828  15.960  37.287   8.292
 2092POPC   C3A28829  16.090  37.021   7.971
 2092POPC   C4A28830  15.973  36.950   7.538
 2092POPC   C1B28831  15.921  36.595   8.645
 2092POPC   C2B28832  16.002  36.551   8.258
 2092POPC   C3B28833  15.845  36.567   7.883
 2092POPC   C4B28834  15.867  36.447   7.432
 2093POPC   NC328835   5.937  12.607   9.550
 2093POPC   PO428836   5.633  13.221   9.396
 2093POPC   GL128837   5.909  12.992   9.057
 2093POPC   GL228838   6.005  12.646   9.062
 2093POPC   C1A28839   5.974  13.156   8.634
 2093POPC   D2A28840   5.777  13.205   8.248
 2093POPC   C3A28841   6.020  13.153   7.923
 2093POPC   C4A28842   5.806  12.867   7.705
 2093POPC   C1B28843   5.836  12.641   8.653
 2093POPC   C2B28844   5.922  12.697   8.228
 2093POPC   C3B28845   5.909  12.420   7.899
 2093POPC   C4B28846   5.480  12.472   7.726
 2094POPC   NC328847  11.566  37.145   9.564
 2094POPC   PO428848  11.227  36.587   9.507
 2094POPC   GL128849  11.197  36.775   9.139
 2094POPC   GL228850  11.534  36.864   9.135
 2094POPC   C1A28851  11.136  36.653   8.707
 2094POPC   D2A28852  11.014  36.620   8.295
 2094POPC   C3A28853  11.117  36.909   7.975
 2094POPC   C4A28854  11.448  36.863   7.656
 2094POPC   C1B28855  11.460  37.048   8.758
 2094POPC   C2B28856  11.433  36.947   8.362
 2094POPC   C3B28857  11.450  37.270   8.070
 2094POPC   C4B28858  11.609  37.366   7.709
 2095POPC   NC328859  35.443   4.936   9.635
 2095POPC   PO428860  36.161   5.086   9.601
 2095POPC   GL128861  36.191   5.258   9.182
 2095POPC   GL228862  36.494   5.159   9.081
 2095POPC   C1A28863  36.089   5.161   8.733
 2095POPC   D2A28864  36.013   5.061   8.302
 2095POPC   C3A28865  35.790   5.256   7.973
 2095POPC   C4A28866  35.616   4.984   7.692
 2095POPC   C1B28867  36.534   4.796   8.805
 2095POPC   C2B28868  36.454   4.805   8.367
 2095POPC   C3B28869  36.466   5.209   8.138
 2095POPC   C4B28870  36.567   5.226   7.733
 2096POPC   NC328871   1.201  16.592   9.562
 2096POPC   PO428872   1.722  16.846   9.388
 2096POPC   GL128873   1.448  16.684   9.095
 2096POPC   GL228874   1.286  16.364   9.113
 2096POPC   C1A28875   1.239  16.707   8.695
 2096POPC   D2A28876   1.032  16.944   8.379
 2096POPC   C3A28877   1.250  17.031   8.026
 2096POPC   C4A28878   1.243  16.921   7.634
 2096POPC   C1B28879   0.894  16.389   8.866
 2096POPC   C2B28880   0.800  16.472   8.445
 2096POPC   C3B28881   1.077  16.532   8.085
 2096POPC   C4B28882   0.926  16.519   7.689
 2097POPC   NC328883  32.013  35.428   9.383
 2097POPC   PO428884  32.620  35.376   9.658
 2097POPC   GL128885  32.612  35.235   9.165
 2097POPC   GL228886  32.318  35.031   9.181
 2097POPC   C1A28887  32.451  35.253   8.710
 2097POPC   D2A28888  32.412  35.518   8.347
 2097POPC   C3A28889  32.274  35.342   7.982
 2097POPC   C4A28890  32.166  35.586   7.647
 2097POPC   C1B28891  32.049  34.967   8.810
 2097POPC   C2B28892  32.110  34.990   8.353
 2097POPC   C3B28893  32.103  34.877   7.881
 2097POPC   C4B28894  32.159  35.119   7.449
 2098POPC   NC328895  31.827  32.742   9.545
 2098POPC   PO428896  31.373  33.182   9.741
 2098POPC   GL128897  31.352  33.010   9.335
 2098POPC   GL228898  31.259  33.272   9.124
 2098POPC   C1A28899  31.572  32.919   8.937
 2098POPC   D2A28900  31.578  33.138   8.548
 2098POPC   C3A28901  31.467  32.970   8.164
 2098POPC   C4A28902  31.720  33.040   7.831
 2098POPC   C1B28903  31.126  33.098   8.750
 2098POPC   C2B28904  31.093  33.262   8.355
 2098POPC   C3B28905  31.042  33.124   7.933
 2098POPC   C4B28906  31.272  32.861   7.672
 2099POPC   NC328907  13.590   3.782   9.505
 2099POPC   PO428908  13.491   4.443   9.577
 2099POPC   GL128909  13.849   4.277   9.333
 2099POPC   GL228910  13.637   4.100   9.137
 2099POPC   C1A28911  13.996   4.346   8.885
 2099POPC   D2A28912  14.041   4.564   8.485
 2099POPC   C3A28913  13.946   4.371   8.070
 2099POPC   C4A28914  13.725   4.545   7.738
 2099POPC   C1B28915  13.497   4.256   8.773
 2099POPC   C2B28916  13.686   4.088   8.430
 2099POPC   C3B28917  13.546   4.012   8.053
 2099POPC   C4B28918  13.678   4.032   7.667
 2100POPC   NC328919  10.533   8.793   9.701
 2100POPC   PO428920  10.416   9.449   9.662
 2100POPC   GL128921  10.322   9.081   9.337
 2100POPC   GL228922  10.594   8.822   9.205
 2100POPC   C1A28923  10.262   8.995   8.869
 2100POPC   D2A28924  10.394   8.829   8.457
 2100POPC   C3A28925  10.302   9.018   8.068
 2100POPC   C4A28926  10.454   8.904   7.677
 2100POPC   C1B28927  10.766   8.888   8.790
 2100POPC   C2B28928  10.914   8.692   8.426
 2100POPC   C3B28929  10.831   8.716   7.990
 2100POPC   C4B28930  10.960   9.036   7.704
 2101POPC   NC328931  16.688  30.470   9.571
 2101POPC   PO428932  16.396  31.005   9.465
 2101POPC   GL128933  16.743  30.872   9.202
 2101POPC   GL228934  17.043  31.097   9.160
 2101POPC   C1A28935  16.910  30.641   8.850
 2101POPC   D2A28936  16.771  30.391   8.489
 2101POPC   C3A28937  16.856  30.542   8.095
 2101POPC   C4A28938  16.666  30.618   7.714
 2101POPC   C1B28939  16.780  31.160   8.788
 2101POPC   C2B28940  16.691  30.900   8.429
 2101POPC   C3B28941  16.785  31.046   7.993
 2101POPC   C4B28942  16.907  31.051   7.554
 2102POPC   NC328943  42.846   0.838   9.498
 2102POPC   PO428944  43.001   0.137   9.434
 2102POPC   GL128945  42.992   0.413   9.078
 2102POPC   GL228946  43.153   0.725   9.071
 2102POPC   C1A28947  43.111   0.487   8.624
 2102POPC   D2A28948  43.380   0.605   8.265
 2102POPC   C3A28949  43.221   0.323   7.983
 2102POPC   C4A28950  42.844   0.278   7.747
 2102POPC   C1B28951  42.745   0.802   8.844
 2102POPC   C2B28952  42.600   0.781   8.416
 2102POPC   C3B28953  42.861   0.701   8.060
 2102POPC   C4B28954  43.191   0.781   7.751
 2103POPC   NC328955  37.809  34.791   9.593
 2103POPC   PO428956  37.728  34.121   9.761
 2103POPC   GL128957  37.586  34.384   9.327
 2103POPC   GL228958  37.491  34.769   9.204
 2103POPC   C1A28959  37.774  34.477   8.897
 2103POPC   D2A28960  37.913  34.677   8.502
 2103POPC   C3A28961  37.673  34.697   8.115
 2103POPC   C4A28962  37.617  34.516   7.722
 2103POPC   C1B28963  37.643  34.987   8.814
 2103POPC   C2B28964  37.728  35.151   8.378
 2103POPC   C3B28965  37.872  35.113   7.922
 2103POPC   C4B28966  37.887  34.891   7.504
 2104POPC   NC328967  30.920  33.938   9.621
 2104POPC   PO428968  30.265  33.747   9.505
 2104POPC   GL128969  30.569  33.867   9.198
 2104POPC   GL228970  30.850  33.628   9.185
 2104POPC   C1A28971  30.580  33.796   8.753
 2104POPC   D2A28972  30.326  33.635   8.406
 2104POPC   C3A28973  30.444  33.712   7.963
 2104POPC   C4A28974  30.688  34.012   7.702
 2104POPC   C1B28975  31.033  33.594   8.747
 2104POPC   C2B28976  30.851  33.699   8.316
 2104POPC   C3B28977  30.944  33.620   7.870
 2104POPC   C4B28978  31.107  33.815   7.457
 2105POPC   NC328979  24.226  23.487   9.456
 2105POPC   PO428980  24.616  23.954   9.617
 2105POPC   GL128981  24.421  23.897   9.170
 2105POPC   GL228982  24.114  23.716   9.011
 2105POPC   C1A28983  24.434  23.929   8.708
 2105POPC   D2A28984  24.702  24.011   8.376
 2105POPC   C3A28985  24.402  23.947   8.064
 2105POPC   C4A28986  24.504  23.793   7.683
 2105POPC   C1B28987  24.336  23.409   8.770
 2105POPC   C2B28988  24.412  23.506   8.351
 2105POPC   C3B28989  24.184  23.470   7.974
 2105POPC   C4B28990  24.016  23.750   7.666
 2106POPC   NC328991  26.624   1.412   9.526
 2106POPC   PO428992  27.244   1.457   9.508
 2106POPC   GL128993  26.997   1.314   9.156
 2106POPC   GL228994  26.962   0.961   9.167
 2106POPC   C1A28995  26.702   1.397   8.803
 2106POPC   D2A28996  26.685   1.692   8.447
 2106POPC   C3A28997  26.718   1.472   8.062
 2106POPC   C4A28998  26.824   1.333   7.677
 2106POPC   C1B28999  26.861   0.908   8.720
 2106POPC   C2B29000  26.561   1.108   8.383
 2106POPC   C3B29001  26.518   0.985   7.918
 2106POPC   C4B29002  26.919   0.853   7.641
 2107POPC   NC329003   8.835   0.996   9.739
 2107POPC   PO429004   9.088   1.474   9.283
 2107POPC   GL129005   8.956   1.204   8.998
 2107POPC   GL229006   8.853   0.889   9.092
 2107POPC   C1A29007   8.914   1.259   8.594
 2107POPC   D2A29008   8.881   1.574   8.340
 2107POPC   C3A29009   9.015   1.342   8.038
 2107POPC   C4A29010   9.121   1.394   7.638
 2107POPC   C1B29011   9.074   0.792   8.705
 2107POPC   C2B29012   8.971   0.836   8.275
 2107POPC   C3B29013   9.190   0.891   7.891
 2107POPC   C4B29014   8.846   0.964   7.694
 2108POPC   NC329015   6.178  41.423   9.359
 2108POPC   PO429016   5.520  41.685   9.539
 2108POPC   GL129017   5.789  41.717   9.195
 2108POPC   GL229018   5.709  41.388   9.112
 2108POPC   C1A29019   5.993  41.704   8.790
 2108POPC   D2A29020   5.885  41.531   8.406
 2108POPC   C3A29021   5.749  41.772   8.062
 2108POPC   C4A29022   6.030  41.645   7.763
 2108POPC   C1B29023   5.602  41.233   8.718
 2108POPC   C2B29024   5.520  41.116   8.313
 2108POPC   C3B29025   5.730  41.269   7.961
 2108POPC   C4B29026   5.433  41.441   7.738
 2109POPC   NC329027  14.261   6.428   9.520
 2109POPC   PO429028  14.516   6.978   9.378
 2109POPC   GL129029  14.390   6.752   9.101
 2109POPC   GL229030  14.571   6.463   9.117
 2109POPC   C1A29031  14.070   6.664   8.845
 2109POPC   D2A29032  14.020   6.497   8.441
 2109POPC   C3A29033  14.242   6.672   8.093
 2109POPC   C4A29034  14.245   6.856   7.673
 2109POPC   C1B29035  14.513   6.514   8.659
 2109POPC   C2B29036  14.638   6.255   8.328
 2109POPC   C3B29037  14.572   6.323   7.912
 2109POPC   C4B29038  14.726   6.735   7.769
 2110POPC   NC329039  39.527  22.322   9.788
 2110POPC   PO429040  39.046  22.598   9.321
 2110POPC   GL129041  39.241  22.300   9.053
 2110POPC   GL229042  39.492  22.474   8.858
 2110POPC   C1A29043  39.160  22.146   8.662
 2110POPC   D2A29044  38.873  22.264   8.357
 2110POPC   C3A29045  39.021  22.220   7.960
 2110POPC   C4A29046  39.119  21.858   7.849
 2110POPC   C1B29047  39.640  22.308   8.512
 2110POPC   C2B29048  39.466  22.090   8.204
 2110POPC   C3B29049  39.551  22.116   7.778
 2110POPC   C4B29050  39.331  22.403   7.567
 2111POPC   NC329051  33.839   4.031   9.602
 2111POPC   PO429052  33.548   4.481   9.884
 2111POPC   GL129053  33.555   4.452   9.347
 2111POPC   GL229054  33.606   4.137   9.169
 2111POPC   C1A29055  33.481   4.588   8.853
 2111POPC   D2A29056  33.746   4.637   8.443
 2111POPC   C3A29057  33.588   4.623   8.029
 2111POPC   C4A29058  33.686   4.435   7.646
 2111POPC   C1B29059  33.811   4.213   8.764
 2111POPC   C2B29060  33.773   4.141   8.315
 2111POPC   C3B29061  33.516   4.091   7.963
 2111POPC   C4B29062  33.480   3.979   7.533
 2112POPC   NC329063  39.265  20.465   9.694
 2112POPC   PO429064  39.181  19.758   9.452
 2112POPC   GL129065  39.156  19.940   9.071
 2112POPC   GL229066  39.099  20.263   9.191
 2112POPC   C1A29067  39.364  19.905   8.678
 2112POPC   D2A29068  39.606  19.860   8.319
 2112POPC   C3A29069  39.328  19.971   8.003
 2112POPC   C4A29070  39.245  19.688   7.711
 2112POPC   C1B29071  38.927  20.313   8.795
 2112POPC   C2B29072  39.087  20.345   8.406
 2112POPC   C3B29073  38.898  20.309   7.994
 2112POPC   C4B29074  38.936  20.083   7.594
 2113POPC   NC329075  40.584   9.625   9.390
 2113POPC   PO429076  40.024   9.871   9.517
 2113POPC   GL129077  40.212  10.017   9.101
 2113POPC   GL229078  40.443   9.785   8.934
 2113POPC   C1A29079  40.017  10.252   8.748
 2113POPC   D2A29080  39.808  10.103   8.381
 2113POPC   C3A29081  39.981   9.835   8.074
 2113POPC   C4A29082  40.009   9.654   7.656
 2113POPC   C1B29083  40.155   9.740   8.570
 2113POPC   C2B29084  40.107   9.365   8.262
 2113POPC   C3B29085  39.885   9.216   7.897
 2113POPC   C4B29086  39.557   9.385   7.610
 2114POPC   NC329087  40.365  19.295   9.505
 2114POPC   PO429088  39.711  18.913   9.526
 2114POPC   GL129089  40.031  19.009   9.250
 2114POPC   GL229090  40.032  19.333   9.105
 2114POPC   C1A29091  40.123  18.877   8.871
 2114POPC   D2A29092  40.192  19.178   8.590
 2114POPC   C3A29093  40.301  19.071   8.180
 2114POPC   C4A29094  40.369  19.083   7.756
 2114POPC   C1B29095  39.675  19.140   8.889
 2114POPC   C2B29096  39.585  19.154   8.454
 2114POPC   C3B29097  39.780  19.068   8.094
 2114POPC   C4B29098  39.764  18.950   7.715
 2115POPC   NC329099  13.366   9.748   9.613
 2115POPC   PO429100  13.723  10.267   9.624
 2115POPC   GL129101  13.683   9.968   9.249
 2115POPC   GL229102  13.588   9.633   9.162
 2115POPC   C1A29103  13.570   9.990   8.806
 2115POPC   D2A29104  13.606   9.732   8.425
 2115POPC   C3A29105  13.928   9.844   8.177
 2115POPC   C4A29106  13.812  10.125   7.864
 2115POPC   C1B29107  13.252   9.603   8.783
 2115POPC   C2B29108  13.088   9.625   8.349
 2115POPC   C3B29109  13.270   9.705   7.925
 2115POPC   C4B29110  13.170   9.530   7.491
 2116POPC   NC329111  36.908  42.139   9.335
 2116POPC   PO429112  37.358  41.731   9.169
 2116POPC   GL129113  37.171  41.985   8.843
 2116POPC   GL229114  36.920  42.276   8.854
 2116POPC   C1A29115  37.237  42.175   8.443
 2116POPC   D2A29116  36.946  42.478   8.380
 2116POPC   C3A29117  36.604  42.204   8.271
 2116POPC   C4A29118  36.678  42.167   7.827
 2116POPC   C1B29119  36.532  42.497   8.705
 2116POPC   C2B29120  36.365  42.687   8.374
 2116POPC   C3B29121  36.620  42.631   8.008
 2116POPC   C4B29122  36.470  42.597   7.606
 2117POPC   NC329123  21.081   5.385   9.549
 2117POPC   PO429124  21.485   4.817   9.494
 2117POPC   GL129125  21.342   4.914   9.151
 2117POPC   GL229126  21.025   4.932   9.274
 2117POPC   C1A29127  21.453   5.097   8.758
 2117POPC   D2A29128  21.757   5.200   8.460
 2117POPC   C3A29129  21.529   5.200   8.085
 2117POPC   C4A29130  21.599   5.002   7.658
 2117POPC   C1B29131  20.956   4.946   8.830
 2117POPC   C2B29132  21.058   5.063   8.417
 2117POPC   C3B29133  21.149   4.884   8.033
 2117POPC   C4B29134  21.131   5.137   7.663
 2118POPC   NC329135  32.953  15.845   9.462
 2118POPC   PO429136  33.449  15.347   9.351
 2118POPC   GL129137  33.302  15.718   9.086
 2118POPC   GL229138  33.128  16.077   9.035
 2118POPC   C1A29139  32.937  15.669   8.815
 2118POPC   D2A29140  32.767  15.752   8.452
 2118POPC   C3A29141  32.781  16.067   8.162
 2118POPC   C4A29142  32.916  16.125   7.765
 2118POPC   C1B29143  33.367  16.106   8.655
 2118POPC   C2B29144  33.367  16.114   8.164
 2118POPC   C3B29145  33.420  16.150   7.718
 2118POPC   C4B29146  33.548  16.149   7.262
 2119POPC   NC329147  22.310  44.186   9.363
 2119POPC   PO429148  21.872  43.676   9.475
 2119POPC   GL129149  22.129  43.686   9.129
 2119POPC   GL229150  22.532  43.726   9.152
 2119POPC   C1A29151  21.885  43.813   8.754
 2119POPC   D2A29152  21.720  43.747   8.356
 2119POPC   C3A29153  21.892  43.938   8.033
 2119POPC   C4A29154  22.098  43.763   7.708
 2119POPC   C1B29155  22.382  43.900   8.759
 2119POPC   C2B29156  22.280  43.798   8.354
 2119POPC   C3B29157  22.422  44.015   8.011
 2119POPC   C4B29158  22.221  44.252   7.715
 2120POPC   NC329159  11.086  29.651   9.512
 2120POPC   PO429160  10.562  30.015   9.500
 2120POPC   GL129161  10.382  29.869   9.127
 2120POPC   GL229162  10.203  30.187   9.086
 2120POPC   C1A29163  10.245  29.528   8.830
 2120POPC   D2A29164  10.411  29.477   8.407
 2120POPC   C3A29165  10.270  29.640   7.988
 2120POPC   C4A29166  10.353  29.759   7.551
 2120POPC   C1B29167  10.236  30.019   8.670
 2120POPC   C2B29168  10.236  30.140   8.251
 2120POPC   C3B29169  10.487  30.115   7.894
 2120POPC   C4B29170  10.550  30.223   7.445
 2121POPC   NC329171  18.476  26.921   9.599
 2121POPC   PO429172  18.093  26.421   9.330
 2121POPC   GL129173  18.261  26.764   9.153
 2121POPC   GL229174  18.023  26.961   9.341
 2121POPC   C1A29175  18.371  26.852   8.746
 2121POPC   D2A29176  18.180  26.754   8.376
 2121POPC   C3A29177  18.383  26.626   8.029
 2121POPC   C4A29178  18.548  26.857   7.747
 2121POPC   C1B29179  17.990  27.169   8.952
 2121POPC   C2B29180  18.073  27.240   8.525
 2121POPC   C3B29181  17.985  27.122   8.087
 2121POPC   C4B29182  18.154  27.181   7.668
 2122POPC   NC329183  15.457  11.342   9.593
 2122POPC   PO429184  15.111  11.840   9.552
 2122POPC   GL129185  15.302  11.561   9.175
 2122POPC   GL229186  15.086  11.258   9.227
 2122POPC   C1A29187  15.244  11.298   8.736
 2122POPC   D2A29188  15.238  11.093   8.268
 2122POPC   C3A29189  15.419  11.347   7.878
 2122POPC   C4A29190  15.516  11.540   7.434
 2122POPC   C1B29191  14.847  11.545   8.957
 2122POPC   C2B29192  14.832  11.598   8.521
 2122POPC   C3B29193  14.754  11.282   8.213
 2122POPC   C4B29194  14.929  11.145   7.829
 2123POPC   NC329195  41.350  39.003   9.509
 2123POPC   PO429196  41.956  39.398   9.537
 2123POPC   GL129197  41.762  39.416   9.109
 2123POPC   GL229198  41.564  39.109   9.058
 2123POPC   C1A29199  41.742  39.396   8.654
 2123POPC   D2A29200  41.488  39.058   8.484
 2123POPC   C3A29201  41.528  39.028   8.041
 2123POPC   C4A29202  41.626  39.349   7.740
 2123POPC   C1B29203  41.279  39.403   8.854
 2123POPC   C2B29204  41.309  39.642   8.452
 2123POPC   C3B29205  41.253  39.478   8.058
 2123POPC   C4B29206  41.124  39.205   7.745
 2124POPC   NC329207  19.312   3.380   9.495
 2124POPC   PO429208  18.665   3.687   9.446
 2124POPC   GL129209  18.964   3.451   9.121
 2124POPC   GL229210  19.237   3.170   9.058
 2124POPC   C1A29211  19.221   3.569   8.751
 2124POPC   D2A29212  18.971   3.676   8.400
 2124POPC   C3A29213  19.189   3.765   8.027
 2124POPC   C4A29214  18.848   3.703   7.767
 2124POPC   C1B29215  19.024   3.115   8.667
 2124POPC   C2B29216  19.247   3.280   8.292
 2124POPC   C3B29217  19.142   3.283   7.864
 2124POPC   C4B29218  19.312   3.163   7.475
 2125POPC   NC329219   8.128   5.549   9.781
 2125POPC   PO429220   8.475   5.981   9.396
 2125POPC   GL129221   8.230   5.978   9.013
 2125POPC   GL229222   8.042   6.251   8.997
 2125POPC   C1A29223   8.076   5.685   8.688
 2125POPC   D2A29224   8.270   5.556   8.335
 2125POPC   C3A29225   8.090   5.768   8.034
 2125POPC   C4A29226   8.282   6.064   7.810
 2125POPC   C1B29227   8.010   6.198   8.577
 2125POPC   C2B29228   7.974   6.283   8.165
 2125POPC   C3B29229   7.827   6.259   7.772
 2125POPC   C4B29230   8.033   6.258   7.370
 2126POPC   NC329231  18.039  32.347   9.667
 2126POPC   PO429232  18.670  32.124   9.615
 2126POPC   GL129233  18.458  32.315   9.285
 2126POPC   GL229234  18.358  31.972   9.183
 2126POPC   C1A29235  18.305  32.381   8.860
 2126POPC   D2A29236  17.932  32.350   8.575
 2126POPC   C3A29237  18.002  32.462   8.135
 2126POPC   C4A29238  18.197  32.386   7.741
 2126POPC   C1B29239  18.094  31.900   8.809
 2126POPC   C2B29240  18.026  31.741   8.366
 2126POPC   C3B29241  18.092  31.872   7.902
 2126POPC   C4B29242  18.095  31.960   7.425
 2127POPC   NC329243   5.091   2.011   9.455
 2127POPC   PO429244   5.046   1.378   9.320
 2127POPC   GL129245   4.963   1.716   9.026
 2127POPC   GL229246   5.314   1.753   9.070
 2127POPC   C1A29247   4.909   1.834   8.539
 2127POPC   D2A29248   4.863   1.579   8.133
 2127POPC   C3A29249   4.876   1.809   7.735
 2127POPC   C4A29250   4.690   2.226   7.648
 2127POPC   C1B29251   5.260   2.123   8.822
 2127POPC   C2B29252   5.335   2.187   8.440
 2127POPC   C3B29253   5.127   2.082   8.088
 2127POPC   C4B29254   5.234   2.226   7.701
 2128POPC   NC329255  25.800  22.577   9.395
 2128POPC   PO429256  25.513  21.954   9.457
 2128POPC   GL129257  25.511  22.210   9.118
 2128POPC   GL229258  25.166  22.082   9.044
 2128POPC   C1A29259  25.441  22.347   8.709
 2128POPC   D2A29260  25.184  22.312   8.367
 2128POPC   C3A29261  25.445  22.263   8.044
 2128POPC   C4A29262  25.604  22.460   7.705
 2128POPC   C1B29263  24.835  22.218   8.750
 2128POPC   C2B29264  24.687  22.108   8.334
 2128POPC   C3B29265  24.995  21.985   8.012
 2128POPC   C4B29266  25.090  22.318   7.699
 2129POPC   NC329267  21.133  24.256   9.623
 2129POPC   PO429268  21.535  24.739   9.636
 2129POPC   GL129269  21.493  24.398   9.283
 2129POPC   GL229270  21.762  24.099   9.213
 2129POPC   C1A29271  21.273  24.404   8.893
 2129POPC   D2A29272  21.037  24.382   8.527
 2129POPC   C3A29273  21.253  24.509   8.133
 2129POPC   C4A29274  21.149  24.538   7.728
 2129POPC   C1B29275  21.762  24.271   8.841
 2129POPC   C2B29276  21.637  24.412   8.464
 2129POPC   C3B29277  21.723  24.257   8.070
 2129POPC   C4B29278  21.657  24.435   7.693
 2130POPC   NC329279   8.612  40.145   9.484
 2130POPC   PO429280   9.191  39.768   9.523
 2130POPC   GL129281   8.933  39.836   9.197
 2130POPC   GL229282   9.039  40.175   9.174
 2130POPC   C1A29283   8.788  39.901   8.790
 2130POPC   D2A29284   8.955  39.727   8.425
 2130POPC   C3A29285   8.782  39.881   8.071
 2130POPC   C4A29286   8.843  39.737   7.693
 2130POPC   C1B29287   9.049  40.354   8.773
 2130POPC   C2B29288   9.128  40.198   8.378
 2130POPC   C3B29289   9.244  40.013   7.990
 2130POPC   C4B29290   9.060  40.186   7.622
 2131POPC   NC329291   9.560  33.219   9.388
 2131POPC   PO429292   9.720  33.853   9.695
 2131POPC   GL129293   9.882  33.839   9.272
 2131POPC   GL229294   9.945  33.505   9.158
 2131POPC   C1A29295   9.698  33.825   8.848
 2131POPC   D2A29296   9.883  33.733   8.451
 2131POPC   C3A29297   9.692  33.645   8.040
 2131POPC   C4A29298   9.606  33.790   7.624
 2131POPC   C1B29299  10.034  33.286   8.764
 2131POPC   C2B29300  10.239  33.393   8.357
 2131POPC   C3B29301  10.122  33.360   7.922
 2131POPC   C4B29302   9.838  33.360   7.590
 2132POPC   NC329303  41.133  35.869   9.425
 2132POPC   PO429304  40.699  36.296   9.689
 2132POPC   GL129305  40.876  36.257   9.222
 2132POPC   GL229306  40.682  35.964   9.144
 2132POPC   C1A29307  41.022  36.009   8.792
 2132POPC   D2A29308  40.837  36.050   8.396
 2132POPC   C3A29309  40.868  36.374   8.055
 2132POPC   C4A29310  41.043  36.364   7.590
 2132POPC   C1B29311  40.464  36.108   8.765
 2132POPC   C2B29312  40.353  35.876   8.391
 2132POPC   C3B29313  40.663  35.707   8.081
 2132POPC   C4B29314  40.749  35.956   7.712
 2133POPC   NC329315   2.020  31.330   9.451
 2133POPC   PO429316   2.175  32.011   9.446
 2133POPC   GL129317   2.072  31.716   9.114
 2133POPC   GL229318   2.331  31.517   9.099
 2133POPC   C1A29319   1.728  31.482   8.847
 2133POPC   D2A29320   1.605  31.385   8.407
 2133POPC   C3A29321   1.868  31.355   8.045
 2133POPC   C4A29322   1.763  31.354   7.627
 2133POPC   C1B29323   2.200  31.425   8.710
 2133POPC   C2B29324   2.237  31.203   8.403
 2133POPC   C3B29325   2.464  31.082   8.091
 2133POPC   C4B29326   2.444  31.288   7.702
 2134POPC   NC329327  32.015  11.507   9.847
 2134POPC   PO429328  32.442  11.964   9.542
 2134POPC   GL129329  32.167  12.048   9.201
 2134POPC   GL229330  32.232  12.371   9.123
 2134POPC   C1A29331  32.024  11.904   8.801
 2134POPC   D2A29332  32.035  11.651   8.444
 2134POPC   C3A29333  32.352  11.744   8.132
 2134POPC   C4A29334  32.318  11.802   7.699
 2134POPC   C1B29335  32.115  12.385   8.704
 2134POPC   C2B29336  32.151  12.180   8.325
 2134POPC   C3B29337  32.271  12.281   7.897
 2134POPC   C4B29338  32.383  12.258   7.428
 2135POPC   NC329339  25.882  44.565   9.607
 2135POPC   PO429340  26.284   0.042   9.490
 2135POPC   GL129341  26.268  44.618   9.237
 2135POPC   GL229342  25.915  44.465   9.114
 2135POPC   C1A29343  26.291  44.538   8.788
 2135POPC   D2A29344  26.143  44.699   8.394
 2135POPC   C3A29345  26.357  44.879   8.021
 2135POPC   C4A29346  26.323  44.980   7.578
 2135POPC   C1B29347  25.778  44.439   8.666
 2135POPC   C2B29348  25.945  44.191   8.300
 2135POPC   C3B29349  26.151  44.412   7.966
 2135POPC   C4B29350  25.768  44.523   7.748
 2136POPC   NC329351   3.848  44.357   9.354
 2136POPC   PO429352   3.280  43.973   9.442
 2136POPC   GL129353   3.543  43.990   9.102
 2136POPC   GL229354   3.778  43.772   9.244
 2136POPC   C1A29355   3.414  43.935   8.676
 2136POPC   D2A29356   3.299  43.933   8.276
 2136POPC   C3A29357   3.143  43.591   8.131
 2136POPC   C4A29358   3.104  43.687   7.742
 2136POPC   C1B29359   3.863  43.713   8.794
 2136POPC   C2B29360   3.794  43.907   8.356
 2136POPC   C3B29361   3.648  43.726   7.957
 2136POPC   C4B29362   3.869  43.473   7.648
 2137POPC   NC329363   8.114  31.389   9.585
 2137POPC   PO429364   8.575  31.078   9.194
 2137POPC   GL129365   8.257  31.347   9.074
 2137POPC   GL229366   8.256  31.690   9.097
 2137POPC   C1A29367   8.196  31.409   8.637
 2137POPC   D2A29368   8.326  31.112   8.374
 2137POPC   C3A29369   8.210  31.251   7.996
 2137POPC   C4A29370   8.395  31.036   7.683
 2137POPC   C1B29371   8.105  31.916   8.741
 2137POPC   C2B29372   8.198  31.925   8.302
 2137POPC   C3B29373   8.343  31.733   7.919
 2137POPC   C4B29374   7.995  31.615   7.653
 2138POPC   NC329375  14.838  32.079   9.554
 2138POPC   PO429376  15.491  32.188   9.400
 2138POPC   GL129377  15.295  32.409   9.131
 2138POPC   GL229378  14.981  32.239   9.110
 2138POPC   C1A29379  15.428  32.556   8.739
 2138POPC   D2A29380  15.574  32.356   8.386
 2138POPC   C3A29381  15.321  32.136   8.113
 2138POPC   C4A29382  15.414  32.337   7.767
 2138POPC   C1B29383  14.922  32.503   8.777
 2138POPC   C2B29384  15.051  32.501   8.348
 2138POPC   C3B29385  14.922  32.376   7.874
 2138POPC   C4B29386  14.892  32.424   7.388
 2139POPC   NC329387  12.410  41.788   9.421
 2139POPC   PO429388  13.065  41.592   9.487
 2139POPC   GL129389  12.854  41.615   9.126
 2139POPC   GL229390  13.111  41.839   9.027
 2139POPC   C1A29391  12.639  41.441   8.773
 2139POPC   D2A29392  12.746  41.585   8.374
 2139POPC   C3A29393  12.693  41.329   8.019
 2139POPC   C4A29394  12.747  41.491   7.606
 2139POPC   C1B29395  13.159  41.541   8.685
 2139POPC   C2B29396  13.325  41.426   8.278
 2139POPC   C3B29397  13.150  41.626   7.920
 2139POPC   C4B29398  13.123  42.094   7.892
 2140POPC   NC329399  12.324  23.648   9.462
 2140POPC   PO429400  11.653  23.696   9.598
 2140POPC   GL129401  11.870  23.601   9.213
 2140POPC   GL229402  12.028  23.906   9.150
 2140POPC   C1A29403  12.051  23.532   8.811
 2140POPC   D2A29404  12.223  23.687   8.442
 2140POPC   C3A29405  12.003  23.618   8.081
 2140POPC   C4A29406  12.312  23.483   7.821
 2140POPC   C1B29407  12.163  24.086   8.751
 2140POPC   C2B29408  12.051  24.155   8.310
 2140POPC   C3B29409  12.135  24.085   7.894
 2140POPC   C4B29410  12.112  23.845   7.545
 2141POPC   NC329411  17.207   4.479   9.459
 2141POPC   PO429412  17.812   4.206   9.502
 2141POPC   GL129413  17.532   4.218   9.142
 2141POPC   GL229414  17.195   4.268   8.994
 2141POPC   C1A29415  17.644   4.245   8.727
 2141POPC   D2A29416  17.832   3.974   8.454
 2141POPC   C3A29417  17.673   4.120   8.089
 2141POPC   C4A29418  17.734   4.328   7.744
 2141POPC   C1B29419  16.926   4.061   8.684
 2141POPC   C2B29420  16.937   4.154   8.228
 2141POPC   C3B29421  17.144   4.202   7.831
 2141POPC   C4B29422  17.289   4.314   7.416
 2142POPC   NC329423  13.390  34.483   9.531
 2142POPC   PO429424  12.768  34.826   9.654
 2142POPC   GL129425  12.803  34.700   9.221
 2142POPC   GL229426  12.486  34.727   9.079
 2142POPC   C1A29427  12.917  34.390   8.891
 2142POPC   D2A29428  13.116  34.324   8.484
 2142POPC   C3A29429  12.931  34.621   8.193
 2142POPC   C4A29430  12.872  34.509   7.783
 2142POPC   C1B29431  12.666  34.862   8.708
 2142POPC   C2B29432  12.474  34.863   8.321
 2142POPC   C3B29433  12.537  34.891   7.888
 2142POPC   C4B29434  12.802  35.074   7.586
 2143POPC   NC329435  24.437  42.866   9.516
 2143POPC   PO429436  24.067  42.418   9.464
 2143POPC   GL129437  24.234  42.529   9.043
 2143POPC   GL229438  24.573  42.595   9.072
 2143POPC   C1A29439  24.295  42.606   8.571
 2143POPC   D2A29440  24.083  42.361   8.252
 2143POPC   C3A29441  24.260  42.258   7.845
 2143POPC   C4A29442  24.422  42.220   7.403
 2143POPC   C1B29443  24.664  42.289   8.718
 2143POPC   C2B29444  24.614  42.263   8.261
 2143POPC   C3B29445  24.780  42.207   7.831
 2143POPC   C4B29446  24.961  42.182   7.404
 2144POPC   NC329447  17.591  32.849   9.486
 2144POPC   PO429448  18.002  33.492   9.473
 2144POPC   GL129449  17.793  33.211   9.158
 2144POPC   GL229450  17.429  33.296   9.202
 2144POPC   C1A29451  17.533  32.976   8.831
 2144POPC   D2A29452  17.400  32.835   8.427
 2144POPC   C3A29453  17.639  32.846   8.055
 2144POPC   C4A29454  17.514  32.724   7.648
 2144POPC   C1B29455  17.230  33.441   8.802
 2144POPC   C2B29456  17.155  33.275   8.377
 2144POPC   C3B29457  17.165  33.049   7.988
 2144POPC   C4B29458  17.289  33.160   7.566
 2145POPC   NC329459  22.648  24.138   9.432
 2145POPC   PO429460  23.002  23.561   9.452
 2145POPC   GL129461  23.100  23.818   9.170
 2145POPC   GL229462  22.739  23.798   9.071
 2145POPC   C1A29463  23.082  23.905   8.746
 2145POPC   D2A29464  22.797  23.922   8.410
 2145POPC   C3A29465  23.061  23.824   8.075
 2145POPC   C4A29466  23.278  23.671   7.734
 2145POPC   C1B29467  22.771  23.493   8.728
 2145POPC   C2B29468  22.758  23.421   8.299
 2145POPC   C3B29469  22.601  23.654   7.975
 2145POPC   C4B29470  22.780  23.614   7.647
 2146POPC   NC329471  33.576  10.015   9.730
 2146POPC   PO429472  33.881   9.420   9.512
 2146POPC   GL129473  33.834   9.640   9.121
 2146POPC   GL229474  33.537   9.833   9.197
 2146POPC   C1A29475  33.945   9.575   8.706
 2146POPC   D2A29476  33.680   9.577   8.351
 2146POPC   C3A29477  33.617   9.931   8.090
 2146POPC   C4A29478  33.737   9.984   7.668
 2146POPC   C1B29479  33.422   9.541   8.845
 2146POPC   C2B29480  33.180   9.396   8.491
 2146POPC   C3B29481  33.261   9.509   8.062
 2146POPC   C4B29482  33.606   9.503   7.773
 2147POPC   NC329483   8.522  22.213   9.529
 2147POPC   PO429484   9.158  22.068   9.494
 2147POPC   GL129485   8.897  22.254   9.164
 2147POPC   GL229486   8.567  22.407   9.049
 2147POPC   C1A29487   8.879  22.069   8.782
 2147POPC   D2A29488   9.006  22.200   8.418
 2147POPC   C3A29489   8.796  22.013   8.104
 2147POPC   C4A29490   9.005  21.791   7.784
 2147POPC   C1B29491   8.867  22.616   8.739
 2147POPC   C2B29492   8.994  22.700   8.293
 2147POPC   C3B29493   8.963  22.534   7.874
 2147POPC   C4B29494   8.737  22.228   7.650
 2148POPC   NC329495  44.123   7.388   9.509
 2148POPC   PO429496  43.525   7.663   9.486
 2148POPC   GL129497  43.655   7.429   9.124
 2148POPC   GL229498  43.773   7.099   9.211
 2148POPC   C1A29499  43.986   7.458   8.827
 2148POPC   D2A29500  44.133   7.728   8.504
 2148POPC   C3A29501  43.960   7.589   8.109
 2148POPC   C4A29502  43.877   7.779   7.743
 2148POPC   C1B29503  43.827   6.967   8.768
 2148POPC   C2B29504  43.781   7.163   8.349
 2148POPC   C3B29505  43.939   7.109   7.919
 2148POPC   C4B29506  43.830   7.073   7.459
 2149POPC   NC329507   9.323  21.622   9.440
 2149POPC   PO429508   8.955  21.089   9.492
 2149POPC   GL129509   8.983  21.363   9.146
 2149POPC   GL229510   8.823  21.716   9.171
 2149POPC   C1A29511   9.187  21.463   8.774
 2149POPC   D2A29512   9.067  21.663   8.397
 2149POPC   C3A29513   9.017  21.314   8.128
 2149POPC   C4A29514   9.052  21.194   7.705
 2149POPC   C1B29515   8.689  21.551   8.751
 2149POPC   C2B29516   8.577  21.569   8.310
 2149POPC   C3B29517   8.610  21.480   7.851
 2149POPC   C4B29518   8.513  21.797   7.521
 2150POPC   NC329519  14.728  39.241   9.775
 2150POPC   PO429520  15.121  39.546   9.289
 2150POPC   GL129521  15.176  39.166   9.128
 2150POPC   GL229522  14.834  38.973   9.217
 2150POPC   C1A29523  15.402  39.176   8.724
 2150POPC   D2A29524  15.521  38.990   8.352
 2150POPC   C3A29525  15.423  39.180   7.958
 2150POPC   C4A29526  15.624  39.085   7.584
 2150POPC   C1B29527  14.881  39.022   8.749
 2150POPC   C2B29528  15.037  39.153   8.340
 2150POPC   C3B29529  14.901  39.298   7.941
 2150POPC   C4B29530  14.780  39.007   7.627
 2151POPC   NC329531  14.856  18.895   9.573
 2151POPC   PO429532  15.153  19.524   9.773
 2151POPC   GL129533  15.116  19.292   9.320
 2151POPC   GL229534  15.148  18.933   9.154
 2151POPC   C1A29535  15.187  19.360   8.857
 2151POPC   D2A29536  15.316  19.026   8.581
 2151POPC   C3A29537  15.343  19.079   8.131
 2151POPC   C4A29538  15.020  19.296   7.898
 2151POPC   C1B29539  14.936  18.736   8.782
 2151POPC   C2B29540  14.877  18.906   8.325
 2151POPC   C3B29541  14.936  18.763   7.916
 2151POPC   C4B29542  14.853  18.555   7.486
 2152POPC   NC329543  16.120  20.377   9.492
 2152POPC   PO429544  15.739  20.873   9.561
 2152POPC   GL129545  15.866  20.688   9.193
 2152POPC   GL229546  15.692  20.402   9.106
 2152POPC   C1A29547  16.128  20.640   8.854
 2152POPC   D2A29548  16.220  20.864   8.507
 2152POPC   C3A29549  16.180  20.609   8.144
 2152POPC   C4A29550  16.210  20.773   7.747
 2152POPC   C1B29551  15.820  20.231   8.712
 2152POPC   C2B29552  15.760  20.306   8.285
 2152POPC   C3B29553  15.858  20.187   7.891
 2152POPC   C4B29554  16.243  20.247   7.771
 2153POPC   NC329555  26.884  38.334   9.541
 2153POPC   PO429556  26.481  38.741   9.682
 2153POPC   GL129557  26.593  38.627   9.186
 2153POPC   GL229558  26.583  38.294   9.093
 2153POPC   C1A29559  26.582  38.516   8.655
 2153POPC   D2A29560  26.361  38.423   8.265
 2153POPC   C3A29561  26.524  38.478   7.835
 2153POPC   C4A29562  26.510  38.804   7.485
 2153POPC   C1B29563  27.008  38.454   8.912
 2153POPC   C2B29564  27.078  38.476   8.464
 2153POPC   C3B29565  26.949  38.297   8.055
 2153POPC   C4B29566  27.021  38.659   7.776
 2154POPC   NC329567  39.616  16.907   9.594
 2154POPC   PO429568  38.998  17.335   9.578
 2154POPC   GL129569  39.065  16.904   9.286
 2154POPC   GL229570  39.404  16.754   9.170
 2154POPC   C1A29571  39.035  16.657   8.848
 2154POPC   D2A29572  39.217  16.783   8.476
 2154POPC   C3A29573  38.979  16.799   8.098
 2154POPC   C4A29574  39.182  16.996   7.727
 2154POPC   C1B29575  39.586  16.592   8.783
 2154POPC   C2B29576  39.759  16.698   8.397
 2154POPC   C3B29577  39.502  16.760   8.041
 2154POPC   C4B29578  39.182  16.476   7.792
 2155POPC   NC329579  26.597  44.233   9.528
 2155POPC   PO429580  26.994  43.689   9.468
 2155POPC   GL129581  26.914  43.883   9.103
 2155POPC   GL229582  26.577  43.787   9.011
 2155POPC   C1A29583  27.083  43.912   8.704
 2155POPC   D2A29584  26.842  43.736   8.380
 2155POPC   C3A29585  26.991  43.774   7.992
 2155POPC   C4A29586  26.944  43.950   7.604
 2155POPC   C1B29587  26.632  44.154   8.740
 2155POPC   C2B29588  26.454  44.260   8.356
 2155POPC   C3B29589  26.626  44.144   7.995
 2155POPC   C4B29590  26.465  44.066   7.621
 2156POPC   NC329591   4.622   1.393   9.498
 2156POPC   PO429592   5.225   0.893   9.548
 2156POPC   GL129593   5.088   0.905   9.122
 2156POPC   GL229594   5.298   1.138   8.968
 2156POPC   C1A29595   4.844   0.912   8.765
 2156POPC   D2A29596   4.922   1.154   8.420
 2156POPC   C3A29597   4.748   1.020   8.039
 2156POPC   C4A29598   5.007   1.209   7.750
 2156POPC   C1B29599   5.249   1.475   8.667
 2156POPC   C2B29600   5.390   1.684   8.320
 2156POPC   C3B29601   5.324   1.572   7.921
 2156POPC   C4B29602   5.498   1.214   7.716
 2157POPC   NC329603  36.940  44.372   9.419
 2157POPC   PO429604  36.641   0.008   9.532
 2157POPC   GL129605  36.837  44.832   9.213
 2157POPC   GL229606  36.576  44.592   9.142
 2157POPC   C1A29607  37.035  44.799   8.822
 2157POPC   D2A29608  37.061  44.983   8.423
 2157POPC   C3A29609  37.226  44.833   8.062
 2157POPC   C4A29610  36.993  44.973   7.737
 2157POPC   C1B29611  36.377  44.534   8.782
 2157POPC   C2B29612  36.541  44.457   8.382
 2157POPC   C3B29613  36.678  44.746   8.094
 2157POPC   C4B29614  36.599  44.662   7.680
 2158POPC   NC329615  16.216   0.905   9.525
 2158POPC   PO429616  15.647   0.701   9.645
 2158POPC   GL129617  15.686   0.928   9.183
 2158POPC   GL229618  15.935   1.218   9.180
 2158POPC   C1A29619  15.667   1.176   8.728
 2158POPC   D2A29620  15.723   1.537   8.381
 2158POPC   C3A29621  15.775   1.446   7.918
 2158POPC   C4A29622  15.669   1.116   7.693
 2158POPC   C1B29623  16.116   0.947   8.825
 2158POPC   C2B29624  16.139   0.911   8.364
 2158POPC   C3B29625  16.249   0.852   7.936
 2158POPC   C4B29626  16.171   1.047   7.512
 2159POPC   NC329627  43.935  19.455  10.157
 2159POPC   PO429628  43.646  19.792   9.578
 2159POPC   GL129629  43.900  19.626   9.244
 2159POPC   GL229630  43.673  19.780   9.039
 2159POPC   C1A29631  44.077  19.586   8.794
 2159POPC   D2A29632  43.953  19.555   8.331
 2159POPC   C3A29633  43.910  19.923   8.032
 2159POPC   C4A29634  43.993  19.800   7.599
 2159POPC   C1B29635  43.550  19.557   8.691
 2159POPC   C2B29636  43.485  19.770   8.313
 2159POPC   C3B29637  43.532  19.635   7.908
 2159POPC   C4B29638  43.523  19.960   7.640
 2160POPC   NC329639   3.702  36.706   9.914
 2160POPC   PO429640   3.444  37.190   9.492
 2160POPC   GL129641   3.432  37.080   9.063
 2160POPC   GL229642   3.307  36.761   9.137
 2160POPC   C1A29643   3.709  36.926   8.725
 2160POPC   D2A29644   3.680  36.738   8.335
 2160POPC   C3A29645   3.819  37.014   8.039
 2160POPC   C4A29646   3.864  36.810   7.651
 2160POPC   C1B29647   3.261  36.686   8.709
 2160POPC   C2B29648   3.201  36.916   8.328
 2160POPC   C3B29649   3.325  36.927   7.898
 2160POPC   C4B29650   3.164  37.229   7.649
 2161POPC   NC329651   5.191   8.572   9.518
 2161POPC   PO429652   5.075   9.194   9.307
 2161POPC   GL129653   4.987   8.802   9.097
 2161POPC   GL229654   4.745   8.565   9.249
 2161POPC   C1A29655   5.020   8.828   8.660
 2161POPC   D2A29656   5.031   9.201   8.408
 2161POPC   C3A29657   5.217   9.114   8.034
 2161POPC   C4A29658   5.331   9.088   7.616
 2161POPC   C1B29659   4.580   8.612   8.846
 2161POPC   C2B29660   4.704   8.485   8.446
 2161POPC   C3B29661   4.683   8.749   8.116
 2161POPC   C4B29662   4.884   8.845   7.750
 2162POPC   NC329663  34.864  36.696   9.426
 2162POPC   PO429664  35.503  36.964   9.432
 2162POPC   GL129665  35.499  36.681   9.083
 2162POPC   GL229666  35.151  36.630   9.004
 2162POPC   C1A29667  35.530  36.878   8.713
 2162POPC   D2A29668  35.389  37.215   8.454
 2162POPC   C3A29669  35.537  37.098   8.037
 2162POPC   C4A29670  35.402  36.803   7.712
 2162POPC   C1B29671  35.066  37.059   8.842
 2162POPC   C2B29672  34.885  37.071   8.434
 2162POPC   C3B29673  35.033  36.972   8.029
 2162POPC   C4B29674  35.167  37.255   7.710
 2163POPC   NC329675   9.601  39.501   9.530
 2163POPC   PO429676   9.951  38.885   9.371
 2163POPC   GL129677   9.600  38.947   9.106
 2163POPC   GL229678   9.676  39.277   9.089
 2163POPC   C1A29679   9.634  38.978   8.656
 2163POPC   D2A29680   9.980  38.937   8.368
 2163POPC   C3A29681   9.828  39.036   7.975
 2163POPC   C4A29682   9.453  38.915   7.786
 2163POPC   C1B29683   9.655  39.490   8.728
 2163POPC   C2B29684   9.729  39.398   8.333
 2163POPC   C3B29685   9.598  39.489   7.939
 2163POPC   C4B29686   9.639  39.325   7.562
 2164POPC   NC329687  14.590  27.017   9.597
 2164POPC   PO429688  14.338  26.470   9.504
 2164POPC   GL129689  14.496  26.735   9.141
 2164POPC   GL229690  14.182  26.788   8.981
 2164POPC   C1A29691  14.563  26.633   8.669
 2164POPC   D2A29692  14.393  26.481   8.253
 2164POPC   C3A29693  14.444  26.691   7.845
 2164POPC   C4A29694  14.604  26.706   7.438
 2164POPC   C1B29695  14.085  26.815   8.518
 2164POPC   C2B29696  13.991  26.785   8.076
 2164POPC   C3B29697  13.968  26.569   7.682
 2164POPC   C4B29698  13.706  26.682   7.328
 2165POPC   NC329699  22.201  35.947   9.420
 2165POPC   PO429700  21.790  36.327   9.660
 2165POPC   GL129701  21.817  36.181   9.212
 2165POPC   GL229702  21.685  36.464   9.096
 2165POPC   C1A29703  22.085  36.037   8.807
 2165POPC   D2A29704  22.312  36.208   8.438
 2165POPC   C3A29705  22.283  35.991   8.077
 2165POPC   C4A29706  22.143  36.118   7.703
 2165POPC   C1B29707  21.614  36.219   8.744
 2165POPC   C2B29708  21.813  36.173   8.374
 2165POPC   C3B29709  21.969  36.425   8.078
 2165POPC   C4B29710  21.743  36.444   7.711
 2166POPC   NC329711  41.820  42.913   9.280
 2166POPC   PO429712  42.309  43.274   9.593
 2166POPC   GL129713  42.448  43.305   9.155
 2166POPC   GL229714  42.480  42.980   9.126
 2166POPC   C1A29715  42.262  43.249   8.744
 2166POPC   D2A29716  42.268  42.981   8.376
 2166POPC   C3A29717  42.169  43.220   8.030
 2166POPC   C4A29718  42.356  43.267   7.675
 2166POPC   C1B29719  42.711  42.971   8.740
 2166POPC   C2B29720  42.778  42.809   8.336
 2166POPC   C3B29721  42.749  43.053   7.957
 2166POPC   C4B29722  42.746  42.987   7.484
 2167POPC   NC329723  25.368  33.868   9.616
 2167POPC   PO429724  25.472  34.483   9.396
 2167POPC   GL129725  25.234  34.146   9.149
 2167POPC   GL229726  25.284  33.742   9.140
 2167POPC   C1A29727  25.277  34.005   8.713
 2167POPC   D2A29728  25.529  33.792   8.458
 2167POPC   C3A29729  25.421  33.838   8.059
 2167POPC   C4A29730  25.400  33.955   7.662
 2167POPC   C1B29731  25.144  33.514   8.776
 2167POPC   C2B29732  25.051  33.618   8.341
 2167POPC   C3B29733  25.030  33.577   7.880
 2167POPC   C4B29734  24.951  33.428   7.475
 2168POPC   NC329735  36.482  34.014   9.468
 2168POPC   PO429736  36.136  33.490   9.674
 2168POPC   GL129737  36.150  33.785   9.176
 2168POPC   GL229738  36.450  33.944   8.964
 2168POPC   C1A29739  36.021  34.056   8.773
 2168POPC   D2A29740  36.339  34.038   8.444
 2168POPC   C3A29741  36.188  34.066   8.022
 2168POPC   C4A29742  36.128  33.736   7.700
 2168POPC   C1B29743  36.294  33.560   8.764
 2168POPC   C2B29744  36.438  33.434   8.414
 2168POPC   C3B29745  36.476  33.624   8.046
 2168POPC   C4B29746  36.545  33.385   7.670
 2169POPC   NC329747  29.569   2.287   9.443
 2169POPC   PO429748  30.129   1.969   9.672
 2169POPC   GL129749  29.995   2.058   9.199
 2169POPC   GL229750  29.682   2.162   8.971
 2169POPC   C1A29751  30.116   2.000   8.758
 2169POPC   D2A29752  30.354   2.028   8.371
 2169POPC   C3A29753  30.087   2.030   8.012
 2169POPC   C4A29754  30.133   1.946   7.559
 2169POPC   C1B29755  29.648   1.757   8.724
 2169POPC   C2B29756  29.735   1.611   8.318
 2169POPC   C3B29757  29.714   1.695   7.890
 2169POPC   C4B29758  29.641   1.922   7.551
 2170POPC   NC329759   1.778  22.094   9.421
 2170POPC   PO429760   2.407  21.972   9.450
 2170POPC   GL129761   2.160  21.934   9.076
 2170POPC   GL229762   1.789  21.963   8.941
 2170POPC   C1A29763   2.207  21.983   8.659
 2170POPC   D2A29764   1.936  22.010   8.329
 2170POPC   C3A29765   2.082  21.927   7.888
 2170POPC   C4A29766   2.053  22.255   7.568
 2170POPC   C1B29767   1.808  22.367   8.736
 2170POPC   C2B29768   1.710  22.511   8.322
 2170POPC   C3B29769   1.678  22.447   7.860
 2170POPC   C4B29770   1.543  22.411   7.408
 2171POPC   NC329771  21.387  11.385   9.522
 2171POPC   PO429772  21.053  10.813   9.520
 2171POPC   GL129773  21.176  11.064   9.151
 2171POPC   GL229774  21.543  11.131   9.079
 2171POPC   C1A29775  21.192  11.258   8.733
 2171POPC   D2A29776  21.109  11.431   8.335
 2171POPC   C3A29777  21.346  11.323   8.031
 2171POPC   C4A29778  21.089  11.227   7.736
 2171POPC   C1B29779  21.707  11.334   8.684
 2171POPC   C2B29780  21.838  11.215   8.240
 2171POPC   C3B29781  21.790  11.204   7.785
 2171POPC   C4B29782  21.867  11.104   7.326
 2172POPC   NC329783  40.194  10.304   9.527
 2172POPC   PO429784  39.677  10.805   9.600
 2172POPC   GL129785  39.863  10.606   9.231
 2172POPC   GL229786  40.135  10.730   9.170
 2172POPC   C1A29787  39.810  10.756   8.789
 2172POPC   D2A29788  39.701  10.603   8.408
 2172POPC   C3A29789  39.743  10.817   8.019
 2172POPC   C4A29790  40.039  10.757   7.656
 2172POPC   C1B29791  40.317  10.706   8.740
 2172POPC   C2B29792  40.196  10.646   8.317
 2172POPC   C3B29793  40.009  10.384   8.014
 2172POPC   C4B29794  39.954  10.175   7.664
 2173POPC   NC329795  25.886  32.011   9.587
 2173POPC   PO429796  26.519  32.214   9.527
 2173POPC   GL129797  26.221  32.176   9.192
 2173POPC   GL229798  26.254  32.510   9.153
 2173POPC   C1A29799  25.943  32.212   8.809
 2173POPC   D2A29800  25.791  32.139   8.361
 2173POPC   C3A29801  26.071  32.203   7.974
 2173POPC   C4A29802  25.958  32.563   7.749
 2173POPC   C1B29803  26.389  32.492   8.733
 2173POPC   C2B29804  26.317  32.593   8.287
 2173POPC   C3B29805  26.463  32.792   7.908
 2173POPC   C4B29806  26.246  32.899   7.510
 2174POPC   NC329807  12.233  14.622   9.502
 2174POPC   PO429808  11.864  14.116   9.773
 2174POPC   GL129809  11.946  14.158   9.341
 2174POPC   GL229810  11.893  14.465   9.189
 2174POPC   C1A29811  11.977  14.072   8.894
 2174POPC   D2A29812  11.939  14.175   8.472
 2174POPC   C3A29813  12.257  14.189   8.196
 2174POPC   C4A29814  12.077  14.181   7.806
 2174POPC   C1B29815  11.824  14.585   8.780
 2174POPC   C2B29816  12.134  14.657   8.438
 2174POPC   C3B29817  12.137  14.650   8.001
 2174POPC   C4B29818  11.944  14.606   7.580
 2175POPC   NC329819   0.831  19.182   9.398
 2175POPC   PO429820   0.220  19.085   9.613
 2175POPC   GL129821   0.280  18.840   9.239
 2175POPC   GL229822   0.490  19.057   9.023
 2175POPC   C1A29823   0.186  18.717   8.816
 2175POPC   D2A29824   0.387  18.971   8.511
 2175POPC   C3A29825   0.199  18.897   8.138
 2175POPC   C4A29826   0.316  18.987   7.741
 2175POPC   C1B29827   0.484  19.448   8.845
 2175POPC   C2B29828   0.600  19.554   8.445
 2175POPC   C3B29829   0.536  19.320   8.076
 2175POPC   C4B29830   0.565  19.483   7.675
 2176POPC   NC329831  24.286  38.697   9.485
 2176POPC   PO429832  24.763  38.294   9.634
 2176POPC   GL129833  24.429  38.196   9.303
 2176POPC   GL229834  24.548  38.466   9.085
 2176POPC   C1A29835  24.243  38.160   8.851
 2176POPC   D2A29836  24.407  38.499   8.546
 2176POPC   C3A29837  24.417  38.405   8.096
 2176POPC   C4A29838  24.106  38.192   7.860
 2176POPC   C1B29839  24.819  38.266   8.733
 2176POPC   C2B29840  24.912  38.193   8.255
 2176POPC   C3B29841  25.089  38.224   7.815
 2176POPC   C4B29842  24.897  38.392   7.397
 2177POPC   NC329843  30.367  16.076   9.262
 2177POPC   PO429844  30.744  15.608   9.608
 2177POPC   GL129845  30.882  15.962   9.253
 2177POPC   GL229846  30.784  15.895   8.896
 2177POPC   C1A29847  30.990  16.317   8.899
 2177POPC   D2A29848  30.995  16.114   8.485
 2177POPC   C3A29849  30.961  16.131   8.067
 2177POPC   C4A29850  31.009  15.880   7.711
 2177POPC   C1B29851  30.506  16.167   8.646
 2177POPC   C2B29852  30.274  15.929   8.369
 2177POPC   C3B29853  30.378  15.709   8.012
 2177POPC   C4B29854  30.530  16.068   7.794
 2178POPC   NC329855  34.902  12.918   9.489
 2178POPC   PO429856  35.628  12.962   9.504
 2178POPC   GL129857  35.357  13.034   9.190
 2178POPC   GL229858  35.305  12.671   9.141
 2178POPC   C1A29859  35.172  13.022   8.793
 2178POPC   D2A29860  35.251  12.727   8.544
 2178POPC   C3A29861  35.350  12.945   8.225
 2178POPC   C4A29862  35.250  12.877   7.827
 2178POPC   C1B29863  35.657  12.778   8.833
 2178POPC   C2B29864  35.740  12.606   8.435
 2178POPC   C3B29865  35.772  12.763   8.029
 2178POPC   C4B29866  35.697  12.573   7.676
 2179POPC   NC329867  41.335   1.283   9.681
 2179POPC   PO429868  41.944   1.578   9.493
 2179POPC   GL129869  41.678   1.226   9.287
 2179POPC   GL229870  41.336   1.218   9.174
 2179POPC   C1A29871  41.705   1.084   8.855
 2179POPC   D2A29872  41.633   1.286   8.476
 2179POPC   C3A29873  41.719   1.098   8.131
 2179POPC   C4A29874  41.795   1.103   7.713
 2179POPC   C1B29875  41.193   1.233   8.753
 2179POPC   C2B29876  41.182   1.024   8.336
 2179POPC   C3B29877  41.286   1.030   7.879
 2179POPC   C4B29878  41.413   1.423   7.830
 2180POPC   NC329879  10.819   9.675   9.782
 2180POPC   PO429880  11.449   9.685   9.503
 2180POPC   GL129881  11.354   9.955   9.164
 2180POPC   GL229882  11.031   9.782   9.114
 2180POPC   C1A29883  11.466   9.893   8.730
 2180POPC   D2A29884  11.528   9.613   8.362
 2180POPC   C3A29885  11.484   9.848   7.980
 2180POPC   C4A29886  11.326   9.777   7.579
 2180POPC   C1B29887  10.930   9.883   8.687
 2180POPC   C2B29888  11.067   9.996   8.266
 2180POPC   C3B29889  10.908   9.852   7.861
 2180POPC   C4B29890  10.851  10.005   7.416
 2181POPC   NC329891  21.529   7.395  10.192
 2181POPC   PO429892  21.109   7.252   9.730
 2181POPC   GL129893  21.354   7.272   9.303
 2181POPC   GL229894  21.321   7.599   9.127
 2181POPC   C1A29895  21.444   7.195   8.821
 2181POPC   D2A29896  21.437   7.401   8.372
 2181POPC   C3A29897  21.361   7.154   7.965
 2181POPC   C4A29898  21.137   7.086   7.567
 2181POPC   C1B29899  21.266   7.772   8.704
 2181POPC   C2B29900  20.969   7.902   8.365
 2181POPC   C3B29901  21.122   7.978   7.971
 2181POPC   C4B29902  21.432   7.674   7.923
 2182POPC   NC329903  29.709   8.509   9.553
 2182POPC   PO429904  29.998   7.904   9.411
 2182POPC   GL129905  30.034   8.340   9.172
 2182POPC   GL229906  29.687   8.483   9.044
 2182POPC   C1A29907  30.096   8.468   8.726
 2182POPC   D2A29908  29.718   8.465   8.446
 2182POPC   C3A29909  29.675   8.279   8.032
 2182POPC   C4A29910  29.969   8.010   7.794
 2182POPC   C1B29911  29.739   8.091   8.824
 2182POPC   C2B29912  29.597   7.940   8.443
 2182POPC   C3B29913  29.600   7.762   8.040
 2182POPC   C4B29914  29.494   7.998   7.637
 2183POPC   NC329915  44.093   5.380   9.790
 2183POPC   PO429916  43.960   5.990   9.531
 2183POPC   GL129917  43.930   5.915   9.108
 2183POPC   GL229918  44.209   5.757   8.950
 2183POPC   C1A29919  43.751   5.873   8.722
 2183POPC   D2A29920  43.728   5.643   8.359
 2183POPC   C3A29921  43.859   5.812   8.006
 2183POPC   C4A29922  44.192   5.693   7.730
 2183POPC   C1B29923  44.193   6.129   8.700
 2183POPC   C2B29924  44.361   6.291   8.301
 2183POPC   C3B29925  44.215   6.176   7.904
 2183POPC   C4B29926  43.848   6.175   7.642
 2184POPC   NC329927  15.318  37.398   9.464
 2184POPC   PO429928  15.461  38.079   9.612
 2184POPC   GL129929  15.367  37.848   9.212
 2184POPC   GL229930  15.021  37.811   9.064
 2184POPC   C1A29931  15.443  37.702   8.798
 2184POPC   D2A29932  15.484  37.473   8.426
 2184POPC   C3A29933  15.341  37.690   8.090
 2184POPC   C4A29934  15.534  37.827   7.752
 2184POPC   C1B29935  14.996  37.458   8.799
 2184POPC   C2B29936  14.860  37.523   8.380
 2184POPC   C3B29937  14.969  37.357   7.980
 2184POPC   C4B29938  15.129  37.505   7.581
 2185POPC   NC329939  21.262  14.085   9.425
 2185POPC   PO429940  21.687  13.545   9.428
 2185POPC   GL129941  21.462  13.697   9.114
 2185POPC   GL229942  21.670  13.979   9.113
 2185POPC   C1A29943  21.413  13.808   8.695
 2185POPC   D2A29944  21.442  13.604   8.334
 2185POPC   C3A29945  21.069  13.597   8.190
 2185POPC   C4A29946  20.892  13.437   7.856
 2185POPC   C1B29947  21.901  14.000   8.744
 2185POPC   C2B29948  21.734  14.079   8.332
 2185POPC   C3B29949  21.693  13.862   7.949
 2185POPC   C4B29950  21.403  13.582   7.779
 2186POPC   NC329951  33.660  16.549   9.529
 2186POPC   PO429952  34.012  17.116   9.631
 2186POPC   GL129953  33.923  16.855   9.223
 2186POPC   GL229954  33.609  17.010   9.151
 2186POPC   C1A29955  33.705  16.562   8.886
 2186POPC   D2A29956  33.550  16.550   8.462
 2186POPC   C3A29957  33.752  16.836   8.204
 2186POPC   C4A29958  33.812  16.780   7.779
 2186POPC   C1B29959  33.366  16.927   8.738
 2186POPC   C2B29960  33.216  16.912   8.302
 2186POPC   C3B29961  33.345  16.616   7.968
 2186POPC   C4B29962  33.433  16.607   7.495
 2187POPC   NC329963  15.570  29.894   9.619
 2187POPC   PO429964  16.211  30.247   9.577
 2187POPC   GL129965  16.138  29.994   9.222
 2187POPC   GL229966  15.817  30.010   9.181
 2187POPC   C1A29967  16.178  29.770   8.861
 2187POPC   D2A29968  15.928  29.816   8.498
 2187POPC   C3A29969  16.082  29.978   8.125
 2187POPC   C4A29970  16.222  29.715   7.813
 2187POPC   C1B29971  15.670  30.173   8.792
 2187POPC   C2B29972  15.433  29.956   8.454
 2187POPC   C3B29973  15.552  30.037   8.054
 2187POPC   C4B29974  15.805  30.355   7.910
 2188POPC   NC329975  42.139  32.221   9.800
 2188POPC   PO429976  42.717  32.479   9.533
 2188POPC   GL129977  42.408  32.165   9.338
 2188POPC   GL229978  42.521  31.884   9.063
 2188POPC   C1A29979  42.199  32.280   8.979
 2188POPC   D2A29980  42.439  32.229   8.628
 2188POPC   C3A29981  42.430  32.333   8.225
 2188POPC   C4A29982  42.423  32.291   7.821
 2188POPC   C1B29983  42.129  31.825   8.792
 2188POPC   C2B29984  42.004  32.031   8.389
 2188POPC   C3B29985  42.106  31.889   7.974
 2188POPC   C4B29986  42.354  31.838   7.610
 2189POPC   NC329987  19.889  43.169   9.877
 2189POPC   PO429988  19.490  42.821   9.390
 2189POPC   GL129989  19.650  43.037   9.040
 2189POPC   GL229990  20.010  43.134   9.008
 2189POPC   C1A29991  19.695  43.098   8.632
 2189POPC   D2A29992  19.923  43.042   8.347
 2189POPC   C3A29993  19.687  43.094   8.021
 2189POPC   C4A29994  19.829  42.917   7.683
 2189POPC   C1B29995  20.111  43.425   8.686
 2189POPC   C2B29996  20.161  43.496   8.265
 2189POPC   C3B29997  19.956  43.468   7.825
 2189POPC   C4B29998  19.980  43.281   7.365
 2190POPC   NC329999  41.501   2.516   9.464
 2190POPC   PO430000  41.356   3.063   9.159
 2190POPC   GL130001  41.662   2.902   8.938
 2190POPC   GL230002  41.700   2.556   9.004
 2190POPC   C1A30003  41.584   2.776   8.530
 2190POPC   D2A30004  41.253   2.963   8.339
 2190POPC   C3A30005  41.371   3.076   7.960
 2190POPC   C4A30006  41.269   2.692   7.812
 2190POPC   C1B30007  42.031   2.602   8.712
 2190POPC   C2B30008  41.982   2.537   8.278
 2190POPC   C3B30009  41.759   2.709   7.912
 2190POPC   C4B30010  41.813   3.135   7.726
 2191POPC   NC330011  24.255  22.488   9.402
 2191POPC   PO430012  23.627  22.535   9.641
 2191POPC   GL130013  23.706  22.414   9.216
 2191POPC   GL230014  23.943  22.120   9.186
 2191POPC   C1A30015  23.829  22.460   8.777
 2191POPC   D2A30016  23.677  22.267   8.374
 2191POPC   C3A30017  23.737  22.471   7.965
 2191POPC   C4A30018  23.460  22.509   7.585
 2191POPC   C1B30019  23.999  21.868   8.799
 2191POPC   C2B30020  24.143  21.862   8.360
 2191POPC   C3B30021  23.948  21.842   7.940
 2191POPC   C4B30022  23.805  21.798   7.517
 2192POPC   NC330023  17.206  22.699   9.600
 2192POPC   PO430024  17.741  23.167   9.635
 2192POPC   GL130025  17.506  22.972   9.272
 2192POPC   GL230026  17.155  23.065   9.214
 2192POPC   C1A30027  17.442  22.853   8.823
 2192POPC   D2A30028  17.535  22.587   8.487
 2192POPC   C3A30029  17.649  22.823   8.140
 2192POPC   C4A30030  17.524  22.813   7.735
 2192POPC   C1B30031  16.987  23.061   8.777
 2192POPC   C2B30032  17.137  22.896   8.379
 2192POPC   C3B30033  17.040  22.765   7.958
 2192POPC   C4B30034  17.088  22.925   7.535
 2193POPC   NC330035  21.372   2.263   9.535
 2193POPC   PO430036  21.336   2.976   9.530
 2193POPC   GL130037  21.396   2.799   9.179
 2193POPC   GL230038  21.662   2.557   9.195
 2193POPC   C1A30039  21.218   2.982   8.838
 2193POPC   D2A30040  21.298   3.177   8.463
 2193POPC   C3A30041  21.586   2.939   8.185
 2193POPC   C4A30042  21.499   2.944   7.737
 2193POPC   C1B30043  21.472   2.503   8.772
 2193POPC   C2B30044  21.635   2.416   8.390
 2193POPC   C3B30045  21.438   2.469   8.002
 2193POPC   C4B30046  21.496   2.491   7.527
 2194POPC   NC330047   8.766   9.906   9.458
 2194POPC   PO430048   9.225   9.372   9.635
 2194POPC   GL130049   9.204   9.664   9.229
 2194POPC   GL230050   8.903   9.657   9.043
 2194POPC   C1A30051   9.416   9.631   8.785
 2194POPC   D2A30052   9.420   9.492   8.353
 2194POPC   C3A30053   9.126   9.604   7.990
 2194POPC   C4A30054   8.782   9.326   7.840
 2194POPC   C1B30055   9.064   9.966   8.781
 2194POPC   C2B30056   8.921   9.835   8.392
 2194POPC   C3B30057   8.787  10.056   8.043
 2194POPC   C4B30058   8.818  10.304   7.684
 2195POPC   NC330059  21.538  44.079   9.411
 2195POPC   PO430060  21.042  43.633   9.502
 2195POPC   GL130061  21.135  43.507   9.102
 2195POPC   GL230062  21.069  43.879   9.042
 2195POPC   C1A30063  21.392  43.625   8.743
 2195POPC   D2A30064  21.279  43.980   8.436
 2195POPC   C3A30065  21.361  43.893   7.996
 2195POPC   C4A30066  21.489  43.673   7.615
 2195POPC   C1B30067  21.026  44.258   8.789
 2195POPC   C2B30068  20.858  44.294   8.386
 2195POPC   C3B30069  21.014  44.298   7.949
 2195POPC   C4B30070  21.174  44.087   7.564
 2196POPC   NC330071   6.699  34.337   9.610
 2196POPC   PO430072   6.451  34.973   9.528
 2196POPC   GL130073   6.616  34.701   9.150
 2196POPC   GL230074   6.806  34.345   9.119
 2196POPC   C1A30075   6.794  34.734   8.715
 2196POPC   D2A30076   7.093  34.741   8.367
 2196POPC   C3A30077   6.959  34.779   7.930
 2196POPC   C4A30078   6.694  34.543   7.624
 2196POPC   C1B30079   6.516  34.277   8.792
 2196POPC   C2B30080   6.516  34.413   8.360
 2196POPC   C3B30081   6.599  34.201   7.992
 2196POPC   C4B30082   6.390  34.099   7.620
 2197POPC   NC330083   3.966  14.956   9.461
 2197POPC   PO430084   4.588  15.246   9.661
 2197POPC   GL130085   4.619  15.016   9.286
 2197POPC   GL230086   4.443  15.248   9.029
 2197POPC   C1A30087   4.698  14.857   8.867
 2197POPC   D2A30088   4.656  15.176   8.513
 2197POPC   C3A30089   4.313  15.144   8.217
 2197POPC   C4A30090   4.269  15.090   7.822
 2197POPC   C1B30091   4.171  15.342   8.649
 2197POPC   C2B30092   4.012  15.592   8.285
 2197POPC   C3B30093   3.798  15.492   7.890
 2197POPC   C4B30094   3.933  15.281   7.491
 2198POPC   NC330095   9.110  23.017   9.620
 2198POPC   PO430096   8.522  22.693   9.504
 2198POPC   GL130097   8.830  22.855   9.195
 2198POPC   GL230098   9.163  22.706   9.201
 2198POPC   C1A30099   8.829  23.146   8.829
 2198POPC   D2A30100   8.651  23.093   8.431
 2198POPC   C3A30101   8.864  23.153   8.077
 2198POPC   C4A30102   8.852  22.999   7.687
 2198POPC   C1B30103   9.313  23.025   8.896
 2198POPC   C2B30104   9.252  23.125   8.437
 2198POPC   C3B30105   9.342  23.045   7.977
 2198POPC   C4B30106   9.255  23.286   7.568
 2199POPC   NC330107  13.350  40.474   9.590
 2199POPC   PO430108  13.722  41.038   9.493
 2199POPC   GL130109  13.711  40.633   9.267
 2199POPC   GL230110  14.019  40.589   9.117
 2199POPC   C1A30111  13.436  40.494   8.924
 2199POPC   D2A30112  13.218  40.562   8.531
 2199POPC   C3A30113  13.436  40.443   8.164
 2199POPC   C4A30114  13.461  40.661   7.775
 2199POPC   C1B30115  13.775  40.871   8.826
 2199POPC   C2B30116  13.609  40.922   8.412
 2199POPC   C3B30117  13.853  40.751   8.099
 2199POPC   C4B30118  13.962  40.801   7.713
 2200POPC   NC330119  42.912  20.183   9.632
 2200POPC   PO430120  43.426  20.677   9.628
 2200POPC   GL130121  43.344  20.616   9.210
 2200POPC   GL230122  43.018  20.476   9.179
 2200POPC   C1A30123  43.372  20.717   8.762
 2200POPC   D2A30124  43.577  20.607   8.374
 2200POPC   C3A30125  43.322  20.710   7.998
 2200POPC   C4A30126  43.306  20.563   7.568
 2200POPC   C1B30127  42.863  20.712   8.834
 2200POPC   C2B30128  42.973  20.728   8.393
 2200POPC   C3B30129  42.747  20.778   8.009
 2200POPC   C4B30130  42.731  20.499   7.677
 2201POPC   NC330131  16.869   9.289   9.520
 2201POPC   PO430132  17.309   8.780   9.468
 2201POPC   GL130133  17.038   9.036   9.121
 2201POPC   GL230134  16.663   9.148   9.091
 2201POPC   C1A30135  16.970   9.224   8.708
 2201POPC   D2A30136  17.033   9.006   8.325
 2201POPC   C3A30137  16.744   8.875   8.000
 2201POPC   C4A30138  16.985   8.692   7.645
 2201POPC   C1B30139  16.411   9.348   8.784
 2201POPC   C2B30140  16.575   9.244   8.381
 2201POPC   C3B30141  16.778   9.376   8.021
 2201POPC   C4B30142  16.613   9.246   7.660
 2202POPC   NC330143  18.642  29.206   9.508
 2202POPC   PO430144  18.053  28.949   9.516
 2202POPC   GL130145  18.082  28.954   9.110
 2202POPC   GL230146  18.416  29.034   9.090
 2202POPC   C1A30147  18.002  29.124   8.713
 2202POPC   D2A30148  18.249  29.118   8.339
 2202POPC   C3A30149  18.088  29.152   7.920
 2202POPC   C4A30150  18.367  29.030   7.578
 2202POPC   C1B30151  18.455  29.392   8.789
 2202POPC   C2B30152  18.398  29.609   8.421
 2202POPC   C3B30153  18.515  29.454   7.987
 2202POPC   C4B30154  18.697  29.479   7.576
 2203POPC   NC330155  31.378   2.261   9.503
 2203POPC   PO430156  31.929   1.928   9.536
 2203POPC   GL130157  31.635   1.896   9.195
 2203POPC   GL230158  31.613   2.226   9.064
 2203POPC   C1A30159  31.463   1.817   8.787
 2203POPC   D2A30160  31.300   1.660   8.407
 2203POPC   C3A30161  31.480   1.785   8.028
 2203POPC   C4A30162  31.254   1.767   7.678
 2203POPC   C1B30163  31.333   2.395   8.793
 2203POPC   C2B30164  31.207   2.449   8.393
 2203POPC   C3B30165  31.272   2.271   7.988
 2203POPC   C4B30166  31.537   2.195   7.647
 2204POPC   NC330167  20.866   2.934   9.517
 2204POPC   PO430168  20.247   2.610   9.428
 2204POPC   GL130169  20.621   2.638   9.178
 2204POPC   GL230170  20.967   2.507   9.249
 2204POPC   C1A30171  20.707   2.972   8.879
 2204POPC   D2A30172  20.488   3.072   8.522
 2204POPC   C3A30173  20.613   2.817   8.212
 2204POPC   C4A30174  20.649   2.901   7.790
 2204POPC   C1B30175  20.942   2.525   8.798
 2204POPC   C2B30176  21.102   2.701   8.417
 2204POPC   C3B30177  21.086   2.953   8.057
 2204POPC   C4B30178  21.074   2.676   7.733
 2205POPC   NC330179   2.472  23.406   9.688
 2205POPC   PO430180   2.921  23.862   9.690
 2205POPC   GL130181   2.727  23.666   9.306
 2205POPC   GL230182   2.819  23.317   9.265
 2205POPC   C1A30183   2.761  23.694   8.854
 2205POPC   D2A30184   2.894  23.844   8.471
 2205POPC   C3A30185   2.816  23.665   8.116
 2205POPC   C4A30186   2.781  23.853   7.735
 2205POPC   C1B30187   3.133  23.355   8.921
 2205POPC   C2B30188   3.244  23.475   8.526
 2205POPC   C3B30189   3.344  23.420   8.125
 2205POPC   C4B30190   3.121  23.446   7.745
 2206POPC   NC330191  34.270  40.851   9.454
 2206POPC   PO430192  34.822  40.549   9.733
 2206POPC   GL130193  34.688  40.552   9.257
 2206POPC   GL230194  34.384  40.543   9.024
 2206POPC   C1A30195  34.811  40.751   8.858
 2206POPC   D2A30196  34.780  40.995   8.486
 2206POPC   C3A30197  34.581  40.897   8.106
 2206POPC   C4A30198  34.750  40.843   7.715
 2206POPC   C1B30199  34.361  40.991   8.825
 2206POPC   C2B30200  34.304  41.190   8.430
 2206POPC   C3B30201  34.097  41.089   8.079
 2206POPC   C4B30202  34.278  41.070   7.673
 2207POPC   NC330203  30.811  12.517   9.443
 2207POPC   PO430204  30.651  11.849   9.418
 2207POPC   GL130205  30.727  12.136   9.122
 2207POPC   GL230206  31.119  12.167   9.251
 2207POPC   C1A30207  30.425  12.036   8.806
 2207POPC   D2A30208  30.372  11.933   8.382
 2207POPC   C3A30209  30.722  11.891   8.133
 2207POPC   C4A30210  30.894  12.142   7.815
 2207POPC   C1B30211  31.095  11.920   8.878
 2207POPC   C2B30212  30.970  12.112   8.504
 2207POPC   C3B30213  31.258  12.160   8.156
 2207POPC   C4B30214  31.407  12.109   7.737
 2208POPC   NC330215  10.183  22.551   9.383
 2208POPC   PO430216   9.538  22.881   9.523
 2208POPC   GL130217   9.707  22.737   9.163
 2208POPC   GL230218   9.886  23.050   9.061
 2208POPC   C1A30219   9.647  22.684   8.729
 2208POPC   D2A30220   9.792  23.015   8.466
 2208POPC   C3A30221   9.861  22.923   8.038
 2208POPC   C4A30222   9.702  22.998   7.626
 2208POPC   C1B30223  10.150  22.798   8.778
 2208POPC   C2B30224  10.050  22.475   8.464
 2208POPC   C3B30225  10.160  22.450   8.018
 2208POPC   C4B30226  10.055  22.615   7.638
 2209POPC   NC330227  36.577   5.313   9.588
 2209POPC   PO430228  36.948   4.840   9.691
 2209POPC   GL130229  36.916   4.968   9.290
 2209POPC   GL230230  36.965   5.299   9.231
 2209POPC   C1A30231  37.038   4.945   8.852
 2209POPC   D2A30232  36.957   4.749   8.464
 2209POPC   C3A30233  36.878   4.914   8.041
 2209POPC   C4A30234  37.081   5.121   7.701
 2209POPC   C1B30235  36.869   5.449   8.836
 2209POPC   C2B30236  36.920   5.271   8.428
 2209POPC   C3B30237  36.956   5.488   8.029
 2209POPC   C4B30238  36.885   5.592   7.573
 2210POPC   NC330239   9.061  32.855   9.664
 2210POPC   PO430240   9.126  33.289   9.179
 2210POPC   GL130241   8.969  32.897   9.113
 2210POPC   GL230242   8.617  32.967   9.201
 2210POPC   C1A30243   8.987  32.890   8.674
 2210POPC   D2A30244   9.145  33.159   8.358
 2210POPC   C3A30245   9.031  33.014   7.981
 2210POPC   C4A30246   8.897  32.630   7.794
 2210POPC   C1B30247   8.566  33.169   8.777
 2210POPC   C2B30248   8.572  33.230   8.342
 2210POPC   C3B30249   8.453  33.450   8.002
 2210POPC   C4B30250   8.820  33.446   7.744
 2211POPC   NC330251   8.762  17.046   9.437
 2211POPC   PO430252   9.008  17.745   9.472
 2211POPC   GL130253   8.853  17.710   9.120
 2211POPC   GL230254   8.655  17.431   9.095
 2211POPC   C1A30255   9.051  17.607   8.769
 2211POPC   D2A30256   8.971  17.777   8.381
 2211POPC   C3A30257   9.159  17.500   8.133
 2211POPC   C4A30258   9.309  17.614   7.775
 2211POPC   C1B30259   8.537  17.650   8.699
 2211POPC   C2B30260   8.518  17.526   8.252
 2211POPC   C3B30261   8.727  17.379   7.879
 2211POPC   C4B30262   8.735  17.223   7.479
 2212POPC   NC330263  35.638  24.128   9.576
 2212POPC   PO430264  36.300  24.389   9.542
 2212POPC   GL130265  36.076  24.317   9.146
 2212POPC   GL230266  35.773  24.492   9.178
 2212POPC   C1A30267  36.148  24.532   8.747
 2212POPC   D2A30268  36.380  24.703   8.385
 2212POPC   C3A30269  36.221  24.646   7.988
 2212POPC   C4A30270  36.046  24.284   7.795
 2212POPC   C1B30271  35.599  24.642   8.794
 2212POPC   C2B30272  35.767  24.538   8.404
 2212POPC   C3B30273  35.701  24.593   7.993
 2212POPC   C4B30274  35.896  24.750   7.590
 2213POPC   NC330275   0.199  23.733   9.544
 2213POPC   PO430276   0.763  23.347   9.693
 2213POPC   GL130277   0.608  23.568   9.242
 2213POPC   GL230278   0.406  23.862   9.117
 2213POPC   C1A30279   0.391  23.483   8.800
 2213POPC   D2A30280   0.225  23.769   8.459
 2213POPC   C3A30281   0.337  23.706   8.028
 2213POPC   C4A30282   0.429  23.535   7.618
 2213POPC   C1B30283   0.617  23.999   8.748
 2213POPC   C2B30284   0.564  24.172   8.377
 2213POPC   C3B30285   0.717  24.059   8.005
 2213POPC   C4B30286   0.697  24.000   7.588
 2214POPC   NC330287   2.997  31.129   9.541
 2214POPC   PO430288   2.689  30.479   9.523
 2214POPC   GL130289   2.660  30.779   9.215
 2214POPC   GL230290   3.024  30.794   9.135
 2214POPC   C1A30291   2.642  30.856   8.784
 2214POPC   D2A30292   2.849  30.623   8.497
 2214POPC   C3A30293   2.589  30.578   8.151
 2214POPC   C4A30294   2.532  30.743   7.726
 2214POPC   C1B30295   3.105  31.068   8.769
 2214POPC   C2B30296   2.978  31.088   8.353
 2214POPC   C3B30297   2.955  30.877   7.968
 2214POPC   C4B30298   3.001  30.528   7.650
 2215POPC   NC330299  43.035  34.319   9.727
 2215POPC   PO430300  43.130  34.918   9.768
 2215POPC   GL130301  43.272  34.917   9.258
 2215POPC   GL230302  43.267  34.599   9.223
 2215POPC   C1A30303  43.061  34.827   8.767
 2215POPC   D2A30304  42.869  34.815   8.319
 2215POPC   C3A30305  43.069  34.639   7.934
 2215POPC   C4A30306  43.059  34.637   7.463
 2215POPC   C1B30307  43.524  34.677   8.856
 2215POPC   C2B30308  43.459  34.573   8.422
 2215POPC   C3B30309  43.564  34.479   8.014
 2215POPC   C4B30310  43.572  34.694   7.602
 2216POPC   NC330311  42.513   0.018   9.437
 2216POPC   PO430312  42.387   0.717   9.455
 2216POPC   GL130313  42.443   0.444   9.144
 2216POPC   GL230314  42.127   0.274   9.213
 2216POPC   C1A30315  42.379   0.377   8.720
 2216POPC   D2A30316  42.383   0.103   8.375
 2216POPC   C3A30317  42.359   0.357   8.002
 2216POPC   C4A30318  42.490   0.665   7.701
 2216POPC   C1B30319  41.950   0.100   8.877
 2216POPC   C2B30320  41.892   0.227   8.462
 2216POPC   C3B30321  41.890   0.106   8.039
 2216POPC   C4B30322  42.017   0.230   7.633
 2217POPC   NC330323  37.263   5.187   9.696
 2217POPC   PO430324  37.926   4.993   9.596
 2217POPC   GL130325  37.741   4.987   9.169
 2217POPC   GL230326  37.414   5.058   9.207
 2217POPC   C1A30327  37.558   4.869   8.754
 2217POPC   D2A30328  37.744   4.883   8.360
 2217POPC   C3A30329  37.445   4.909   8.022
 2217POPC   C4A30330  37.570   5.093   7.636
 2217POPC   C1B30331  37.372   5.344   8.829
 2217POPC   C2B30332  37.425   5.354   8.376
 2217POPC   C3B30333  37.706   5.361   8.037
 2217POPC   C4B30334  38.023   5.298   7.756
 2218POPC   NC330335  18.805  27.555   9.594
 2218POPC   PO430336  18.905  26.942   9.395
 2218POPC   GL130337  19.046  27.392   9.168
 2218POPC   GL230338  18.886  27.750   9.139
 2218POPC   C1A30339  19.163  27.554   8.744
 2218POPC   D2A30340  19.315  27.641   8.323
 2218POPC   C3A30341  19.146  27.405   8.014
 2218POPC   C4A30342  19.004  27.591   7.640
 2218POPC   C1B30343  18.707  27.798   8.771
 2218POPC   C2B30344  18.802  27.639   8.347
 2218POPC   C3B30345  18.967  27.901   8.038
 2218POPC   C4B30346  18.897  28.132   7.681
 2219POPC   NC330347  33.387  33.573   9.569
 2219POPC   PO430348  32.739  33.795   9.648
 2219POPC   GL130349  32.909  33.715   9.254
 2219POPC   GL230350  33.195  33.844   9.167
 2219POPC   C1A30351  32.824  33.723   8.822
 2219POPC   D2A30352  32.682  33.901   8.419
 2219POPC   C3A30353  32.862  33.647   8.036
 2219POPC   C4A30354  32.595  33.415   7.734
 2219POPC   C1B30355  33.333  33.598   8.778
 2219POPC   C2B30356  33.318  33.438   8.341
 2219POPC   C3B30357  33.461  33.629   7.959
 2219POPC   C4B30358  33.197  33.907   7.751
 2220POPC   NC330359  25.386  15.590   9.793
 2220POPC   PO430360  25.146  16.225   9.606
 2220POPC   GL130361  25.201  16.236   9.111
 2220POPC   GL230362  25.178  15.946   8.969
 2220POPC   C1A30363  25.105  16.392   8.705
 2220POPC   D2A30364  25.347  16.348   8.339
 2220POPC   C3A30365  25.195  16.247   7.942
 2220POPC   C4A30366  25.177  15.900   7.660
 2220POPC   C1B30367  25.364  15.664   8.716
 2220POPC   C2B30368  25.578  15.651   8.379
 2220POPC   C3B30369  25.354  15.592   8.051
 2220POPC   C4B30370  25.514  15.532   7.710
 2221POPC   NC330371  23.417   5.171   9.626
 2221POPC   PO430372  23.985   5.093   9.491
 2221POPC   GL130373  23.653   5.113   9.176
 2221POPC   GL230374  23.420   4.809   9.168
 2221POPC   C1A30375  23.614   5.323   8.781
 2221POPC   D2A30376  23.861   5.308   8.415
 2221POPC   C3A30377  23.644   5.374   8.057
 2221POPC   C4A30378  23.812   4.991   7.912
 2221POPC   C1B30379  23.609   4.802   8.772
 2221POPC   C2B30380  23.538   4.860   8.365
 2221POPC   C3B30381  23.481   4.624   8.024
 2221POPC   C4B30382  23.324   4.884   7.760
 2222POPC   NC330383  42.893  24.993   9.446
 2222POPC   PO430384  43.456  25.359   9.530
 2222POPC   GL130385  43.321  25.277   9.124
 2222POPC   GL230386  43.175  25.609   9.100
 2222POPC   C1A30387  43.259  25.038   8.730
 2222POPC   D2A30388  42.929  24.965   8.381
 2222POPC   C3A30389  43.038  25.104   7.954
 2222POPC   C4A30390  43.372  25.138   7.719
 2222POPC   C1B30391  43.003  25.481   8.707
 2222POPC   C2B30392  43.230  25.382   8.335
 2222POPC   C3B30393  43.281  25.568   7.964
 2222POPC   C4B30394  42.915  25.625   7.764
 2223POPC   NC330395  41.742  19.901   9.432
 2223POPC   PO430396  41.150  19.629   9.400
 2223POPC   GL130397  41.387  19.793   9.079
 2223POPC   GL230398  41.448  20.163   9.110
 2223POPC   C1A30399  41.379  19.870   8.675
 2223POPC   D2A30400  41.560  19.745   8.311
 2223POPC   C3A30401  41.367  19.897   7.981
 2223POPC   C4A30402  41.256  19.647   7.614
 2223POPC   C1B30403  41.814  20.069   8.816
 2223POPC   C2B30404  41.774  20.201   8.391
 2223POPC   C3B30405  41.820  20.164   7.978
 2223POPC   C4B30406  41.795  19.812   7.715
 2224POPC   NC330407  39.471  28.566   9.610
 2224POPC   PO430408  38.995  28.128   9.595
 2224POPC   GL130409  39.081  28.379   9.247
 2224POPC   GL230410  39.420  28.267   9.195
 2224POPC   C1A30411  38.899  28.374   8.818
 2224POPC   D2A30412  38.929  28.169   8.397
 2224POPC   C3A30413  39.095  28.331   7.977
 2224POPC   C4A30414  39.465  28.237   7.674
 2224POPC   C1B30415  39.410  28.449   8.819
 2224POPC   C2B30416  39.599  28.558   8.435
 2224POPC   C3B30417  39.575  28.582   8.023
 2224POPC   C4B30418  39.801  28.733   7.685
 2225POPC   NC330419  28.132   9.365   9.414
 2225POPC   PO430420  28.350   8.739   9.738
 2225POPC   GL130421  28.457   8.933   9.288
 2225POPC   GL230422  28.620   9.291   9.252
 2225POPC   C1A30423  28.401   8.777   8.825
 2225POPC   D2A30424  28.501   8.723   8.376
 2225POPC   C3A30425  28.220   8.834   8.035
 2225POPC   C4A30426  28.087   9.229   7.818
 2225POPC   C1B30427  28.403   9.274   8.846
 2225POPC   C2B30428  28.297   9.208   8.430
 2225POPC   C3B30429  28.539   9.222   8.103
 2225POPC   C4B30430  28.564   9.076   7.703
 2226POPC   NC330431  17.467  12.755   9.601
 2226POPC   PO430432  17.908  12.994   9.114
 2226POPC   GL130433  17.472  12.947   9.011
 2226POPC   GL230434  17.208  12.739   9.168
 2226POPC   C1A30435  17.447  12.737   8.635
 2226POPC   D2A30436  17.244  12.538   8.335
 2226POPC   C3A30437  17.504  12.589   7.983
 2226POPC   C4A30438  17.809  12.904   7.929
 2226POPC   C1B30439  16.978  12.757   8.797
 2226POPC   C2B30440  16.987  12.970   8.439
 2226POPC   C3B30441  17.106  12.921   8.047
 2226POPC   C4B30442  17.319  13.011   7.717
 2227POPC   NC330443  42.836  41.340   9.400
 2227POPC   PO430444  42.243  41.701   9.507
 2227POPC   GL130445  42.365  41.440   9.153
 2227POPC   GL230446  42.073  41.237   9.118
 2227POPC   C1A30447  42.505  41.558   8.708
 2227POPC   D2A30448  42.303  41.864   8.378
 2227POPC   C3A30449  42.361  41.692   7.970
 2227POPC   C4A30450  42.407  41.258   7.775
 2227POPC   C1B30451  42.201  41.163   8.708
 2227POPC   C2B30452  42.313  41.286   8.286
 2227POPC   C3B30453  41.971  41.350   7.965
 2227POPC   C4B30454  41.927  41.485   7.537
 2228POPC   NC330455  33.926  26.080   9.784
 2228POPC   PO430456  33.592  25.569   9.692
 2228POPC   GL130457  33.863  25.849   9.315
 2228POPC   GL230458  33.707  26.183   9.293
 2228POPC   C1A30459  33.965  26.109   8.868
 2228POPC   D2A30460  33.858  26.113   8.408
 2228POPC   C3A30461  34.083  26.048   7.992
 2228POPC   C4A30462  34.093  26.014   7.489
 2228POPC   C1B30463  33.474  25.974   8.939
 2228POPC   C2B30464  33.350  26.000   8.506
 2228POPC   C3B30465  33.447  26.034   8.086
 2228POPC   C4B30466  33.645  26.087   7.720
 2229POPC   NC330467   0.797  39.133   9.509
 2229POPC   PO430468   0.283  39.633   9.744
 2229POPC   GL130469   0.341  39.366   9.364
 2229POPC   GL230470   0.615  39.523   9.185
 2229POPC   C1A30471   0.231  39.125   8.974
 2229POPC   D2A30472   0.086  39.140   8.518
 2229POPC   C3A30473   0.387  39.199   8.165
 2229POPC   C4A30474   0.372  39.155   7.697
 2229POPC   C1B30475   0.848  39.515   8.785
 2229POPC   C2B30476   0.809  39.442   8.348
 2229POPC   C3B30477   0.759  39.682   7.970
 2229POPC   C4B30478   0.644  39.560   7.584
 2230POPC   NC330479  43.606   4.078   9.501
 2230POPC   PO430480  43.095   4.477   9.712
 2230POPC   GL130481  43.190   4.302   9.283
 2230POPC   GL230482  42.943   4.460   9.163
 2230POPC   C1A30483  43.256   4.200   8.835
 2230POPC   D2A30484  43.288   4.399   8.431
 2230POPC   C3A30485  43.317   4.208   8.004
 2230POPC   C4A30486  43.034   3.950   7.770
 2230POPC   C1B30487  42.739   4.630   8.813
 2230POPC   C2B30488  42.834   4.697   8.380
 2230POPC   C3B30489  43.085   4.665   8.050
 2230POPC   C4B30490  42.989   4.455   7.701
 2231POPC   NC330491  29.738   7.534   9.335
 2231POPC   PO430492  30.276   7.280   9.316
 2231POPC   GL130493  30.059   7.176   9.028
 2231POPC   GL230494  29.726   7.033   9.159
 2231POPC   C1A30495  30.170   7.398   8.666
 2231POPC   D2A30496  29.898   7.520   8.377
 2231POPC   C3A30497  30.108   7.552   8.022
 2231POPC   C4A30498  30.161   7.243   7.726
 2231POPC   C1B30499  29.639   7.202   8.739
 2231POPC   C2B30500  29.590   7.065   8.313
 2231POPC   C3B30501  29.677   7.169   7.872
 2231POPC   C4B30502  29.771   7.548   7.629
 2232POPC   NC330503   3.636  26.108   9.458
 2232POPC   PO430504   3.116  26.341   9.793
 2232POPC   GL130505   3.172  25.959   9.324
 2232POPC   GL230506   3.223  25.670   9.186
 2232POPC   C1A30507   3.519  25.887   8.872
 2232POPC   D2A30508   3.552  25.772   8.432
 2232POPC   C3A30509   3.856  25.908   8.110
 2232POPC   C4A30510   3.786  26.197   7.763
 2232POPC   C1B30511   3.050  26.045   8.841
 2232POPC   C2B30512   3.232  26.213   8.463
 2232POPC   C3B30513   3.363  26.061   8.062
 2232POPC   C4B30514   3.273  26.034   7.644
 2233POPC   NC330515  23.830  33.524   9.562
 2233POPC   PO430516  23.585  34.216   9.694
 2233POPC   GL130517  23.760  33.950   9.307
 2233POPC   GL230518  23.727  34.116   9.022
 2233POPC   C1A30519  23.815  33.632   8.904
 2233POPC   D2A30520  23.846  33.780   8.450
 2233POPC   C3A30521  23.779  33.506   8.082
 2233POPC   C4A30522  23.746  33.679   7.667
 2233POPC   C1B30523  23.407  33.909   8.738
 2233POPC   C2B30524  23.342  33.699   8.343
 2233POPC   C3B30525  23.522  33.941   8.020
 2233POPC   C4B30526  23.448  34.104   7.570
 2234POPC   NC330527  13.924   1.695   9.350
 2234POPC   PO430528  14.597   1.700   9.409
 2234POPC   GL130529  14.350   1.922   9.160
 2234POPC   GL230530  14.261   2.271   9.256
 2234POPC   C1A30531  14.353   1.843   8.746
 2234POPC   D2A30532  14.564   2.102   8.486
 2234POPC   C3A30533  14.478   1.896   8.123
 2234POPC   C4A30534  14.613   2.088   7.776
 2234POPC   C1B30535  13.982   2.159   8.897
 2234POPC   C2B30536  13.954   2.074   8.473
 2234POPC   C3B30537  13.840   1.946   8.098
 2234POPC   C4B30538  14.094   1.960   7.771
 2235POPC   NC330539  24.376  28.974   9.544
 2235POPC   PO430540  24.711  29.487   9.611
 2235POPC   GL130541  24.386  29.446   9.294
 2235POPC   GL230542  24.485  29.170   9.058
 2235POPC   C1A30543  24.260  29.595   8.881
 2235POPC   D2A30544  24.366  29.524   8.446
 2235POPC   C3A30545  24.362  29.419   8.029
 2235POPC   C4A30546  24.401  29.011   7.853
 2235POPC   C1B30547  24.740  28.968   8.680
 2235POPC   C2B30548  24.793  28.839   8.222
 2235POPC   C3B30549  24.874  28.828   7.781
 2235POPC   C4B30550  24.922  28.937   7.358
 2236POPC   NC330551  27.848  18.862   9.601
 2236POPC   PO430552  27.446  19.432   9.569
 2236POPC   GL130553  27.560  19.220   9.223
 2236POPC   GL230554  27.881  19.236   9.221
 2236POPC   C1A30555  27.642  19.096   8.787
 2236POPC   D2A30556  27.403  19.132   8.434
 2236POPC   C3A30557  27.600  19.060   8.070
 2236POPC   C4A30558  27.671  19.222   7.692
 2236POPC   C1B30559  28.068  19.400   8.862
 2236POPC   C2B30560  28.238  19.323   8.435
 2236POPC   C3B30561  28.053  19.356   8.025
 2236POPC   C4B30562  28.051  19.546   7.611
 2237POPC   NC330563  25.184  27.551   9.746
 2237POPC   PO430564  25.460  26.962   9.779
 2237POPC   GL130565  25.387  27.424   9.321
 2237POPC   GL230566  25.590  27.326   9.010
 2237POPC   C1A30567  25.266  27.694   8.932
 2237POPC   D2A30568  25.234  27.709   8.454
 2237POPC   C3A30569  25.083  27.337   8.136
 2237POPC   C4A30570  24.918  27.423   7.680
 2237POPC   C1B30571  25.492  27.279   8.588
 2237POPC   C2B30572  25.577  27.451   8.184
 2237POPC   C3B30573  25.416  27.530   7.806
 2237POPC   C4B30574  25.352  27.211   7.499
 2238POPC   NC330575  31.442  44.848   9.426
 2238POPC   PO430576  31.562  44.228   9.239
 2238POPC   GL130577  31.371  44.421   8.916
 2238POPC   GL230578  31.131  44.627   9.059
 2238POPC   C1A30579  31.572  44.648   8.604
 2238POPC   D2A30580  31.799  44.894   8.268
 2238POPC   C3A30581  31.722  44.551   7.994
 2238POPC   C4A30582  31.333  44.459   7.826
 2238POPC   C1B30583  31.135  44.875   8.675
 2238POPC   C2B30584  31.296  44.826   8.226
 2238POPC   C3B30585  31.458  44.963   7.831
 2238POPC   C4B30586  31.163  44.822   7.512
 2239POPC   NC330587   5.259  34.181   9.511
 2239POPC   PO430588   4.923  33.563   9.488
 2239POPC   GL130589   5.160  33.697   9.150
 2239POPC   GL230590   5.058  34.019   9.087
 2239POPC   C1A30591   5.215  33.570   8.741
 2239POPC   D2A30592   4.951  33.538   8.394
 2239POPC   C3A30593   5.073  33.795   8.046
 2239POPC   C4A30594   5.017  33.745   7.600
 2239POPC   C1B30595   5.436  34.037   8.830
 2239POPC   C2B30596   5.473  33.897   8.408
 2239POPC   C3B30597   5.499  34.095   8.039
 2239POPC   C4B30598   5.411  34.064   7.603
 2240POPC   NC330599   0.056  15.585   9.532
 2240POPC   PO430600   0.663  15.392   9.757
 2240POPC   GL130601   0.456  15.366   9.259
 2240POPC   GL230602   0.121  15.383   9.061
 2240POPC   C1A30603   0.575  15.442   8.795
 2240POPC   D2A30604   0.397  15.432   8.397
 2240POPC   C3A30605   0.694  15.427   8.069
 2240POPC   C4A30606   0.585  15.358   7.661
 2240POPC   C1B30607   0.261  15.043   8.812
 2240POPC   C2B30608   0.120  14.986   8.389
 2240POPC   C3B30609   0.295  15.050   8.016
 2240POPC   C4B30610   0.327  14.892   7.616
 2241POPC   NC330611  10.803   1.328   9.466
 2241POPC   PO430612  10.154   1.240   9.481
 2241POPC   GL130613  10.453   1.112   9.141
 2241POPC   GL230614  10.806   0.947   9.126
 2241POPC   C1A30615  10.532   1.105   8.711
 2241POPC   D2A30616  10.422   1.311   8.374
 2241POPC   C3A30617  10.531   1.149   8.011
 2241POPC   C4A30618  10.458   1.408   7.711
 2241POPC   C1B30619  10.870   0.715   8.739
 2241POPC   C2B30620  10.873   0.914   8.338
 2241POPC   C3B30621  10.964   0.898   7.912
 2241POPC   C4B30622  10.677   0.906   7.584
 2242POPC   NC330623  34.076  44.184   9.415
 2242POPC   PO430624  34.594  44.459   9.841
 2242POPC   GL130625  34.594  44.295   9.354
 2242POPC   GL230626  34.502  43.911   9.269
 2242POPC   C1A30627  34.512  44.218   8.863
 2242POPC   D2A30628  34.562  44.323   8.391
 2242POPC   C3A30629  34.871  44.265   8.095
 2242POPC   C4A30630  34.837  43.971   7.759
 2242POPC   C1B30631  34.648  43.707   8.857
 2242POPC   C2B30632  34.618  43.766   8.398
 2242POPC   C3B30633  34.597  43.580   7.985
 2242POPC   C4B30634  34.981  43.497   7.757
 2243POPC   NC330635  17.263   2.006   9.621
 2243POPC   PO430636  17.943   1.846   9.449
 2243POPC   GL130637  17.650   2.096   9.215
 2243POPC   GL230638  17.284   2.153   9.141
 2243POPC   C1A30639  17.571   1.923   8.802
 2243POPC   D2A30640  17.442   2.157   8.461
 2243POPC   C3A30641  17.602   1.938   8.134
 2243POPC   C4A30642  17.419   2.022   7.765
 2243POPC   C1B30643  17.077   1.809   8.890
 2243POPC   C2B30644  17.175   1.706   8.487
 2243POPC   C3B30645  17.079   1.829   8.090
 2243POPC   C4B30646  16.942   1.652   7.701
 2244POPC   NC330647  23.328  22.152   9.526
 2244POPC   PO430648  22.706  22.315   9.590
 2244POPC   GL130649  22.922  22.430   9.191
 2244POPC   GL230650  23.213  22.650   9.257
 2244POPC   C1A30651  22.808  22.337   8.733
 2244POPC   D2A30652  22.767  22.088   8.334
 2244POPC   C3A30653  22.680  22.252   7.923
 2244POPC   C4A30654  22.527  22.148   7.503
 2244POPC   C1B30655  23.313  22.469   8.832
 2244POPC   C2B30656  23.169  22.468   8.383
 2244POPC   C3B30657  23.204  22.283   7.962
 2244POPC   C4B30658  22.995  22.339   7.531
 2245POPC   NC330659  40.074  42.915   9.474
 2245POPC   PO430660  40.082  42.271   9.457
 2245POPC   GL130661  39.984  42.472   9.068
 2245POPC   GL230662  40.161  42.731   8.926
 2245POPC   C1A30663  39.841  42.407   8.647
 2245POPC   D2A30664  40.099  42.460   8.255
 2245POPC   C3A30665  39.920  42.388   7.870
 2245POPC   C4A30666  39.619  42.071   7.844
 2245POPC   C1B30667  40.348  42.332   8.706
 2245POPC   C2B30668  40.392  42.031   8.360
 2245POPC   C3B30669  40.157  41.964   7.992
 2245POPC   C4B30670  40.311  42.181   7.592
 2246POPC   NC330671  24.577  29.949   9.639
 2246POPC   PO430672  23.945  29.783   9.702
 2246POPC   GL130673  24.175  29.928   9.282
 2246POPC   GL230674  24.541  29.928   9.150
 2246POPC   C1A30675  24.164  30.109   8.855
 2246POPC   D2A30676  24.358  30.032   8.453
 2246POPC   C3A30677  24.273  30.172   8.015
 2246POPC   C4A30678  24.216  29.822   7.771
 2246POPC   C1B30679  24.836  29.979   8.829
 2246POPC   C2B30680  24.834  29.821   8.411
 2246POPC   C3B30681  24.667  29.834   8.052
 2246POPC   C4B30682  24.704  29.882   7.650
 2247POPC   NC330683  21.598  12.292   9.736
 2247POPC   PO430684  22.236  12.015   9.744
 2247POPC   GL130685  22.169  12.199   9.278
 2247POPC   GL230686  22.475  12.064   9.094
 2247POPC   C1A30687  22.110  12.258   8.794
 2247POPC   D2A30688  21.897  12.099   8.418
 2247POPC   C3A30689  21.949  12.247   8.017
 2247POPC   C4A30690  22.110  12.031   7.696
 2247POPC   C1B30691  22.465  11.894   8.666
 2247POPC   C2B30692  22.374  12.017   8.223
 2247POPC   C3B30693  22.600  12.108   7.854
 2247POPC   C4B30694  22.643  12.102   7.371
 2248POPC   NC330695  38.542  29.825   9.631
 2248POPC   PO430696  38.006  30.236   9.433
 2248POPC   GL130697  38.291  29.968   9.210
 2248POPC   GL230698  38.633  30.132   9.230
 2248POPC   C1A30699  38.378  29.735   8.828
 2248POPC   D2A30700  38.464  29.523   8.425
 2248POPC   C3A30701  38.356  29.801   8.094
 2248POPC   C4A30702  38.019  29.749   7.845
 2248POPC   C1B30703  38.837  30.239   8.814
 2248POPC   C2B30704  38.642  30.178   8.373
 2248POPC   C3B30705  38.696  30.147   7.906
 2248POPC   C4B30706  38.554  30.202   7.452
 2249POPC   NC330707  17.014  28.903   9.370
 2249POPC   PO430708  16.494  29.288   9.588
 2249POPC   GL130709  16.702  29.322   9.189
 2249POPC   GL230710  16.596  28.993   9.068
 2249POPC   C1A30711  16.768  29.561   8.790
 2249POPC   D2A30712  16.876  29.425   8.338
 2249POPC   C3A30713  16.635  29.368   7.935
 2249POPC   C4A30714  16.552  28.959   7.688
 2249POPC   C1B30715  16.920  29.060   8.732
 2249POPC   C2B30716  17.030  28.914   8.324
 2249POPC   C3B30717  17.024  29.060   7.902
 2249POPC   C4B30718  17.303  29.231   7.615
 2250POPC   NC330719   8.522  17.791   9.522
 2250POPC   PO430720   8.909  18.354   9.689
 2250POPC   GL130721   8.804  18.222   9.242
 2250POPC   GL230722   8.962  18.490   9.034
 2250POPC   C1A30723   8.853  18.089   8.778
 2250POPC   D2A30724   9.092  18.275   8.431
 2250POPC   C3A30725   8.963  18.281   8.015
 2250POPC   C4A30726   8.884  17.877   7.877
 2250POPC   C1B30727   9.210  18.696   8.695
 2250POPC   C2B30728   9.424  18.620   8.263
 2250POPC   C3B30729   9.331  18.748   7.843
 2250POPC   C4B30730   9.008  18.598   7.560
 2251POPC   NC330731  19.543   9.179   9.696
 2251POPC   PO430732  19.995   8.729   9.465
 2251POPC   GL130733  19.807   9.007   9.131
 2251POPC   GL230734  19.494   9.230   9.168
 2251POPC   C1A30735  19.877   9.001   8.687
 2251POPC   D2A30736  19.878   8.798   8.279
 2251POPC   C3A30737  19.838   8.906   7.829
 2251POPC   C4A30738  19.979   8.692   7.420
 2251POPC   C1B30739  19.442   9.260   8.690
 2251POPC   C2B30740  19.626   9.277   8.251
 2251POPC   C3B30741  19.446   9.257   7.811
 2251POPC   C4B30742  19.041   9.192   7.561
 2252POPC   NC330743  10.955  10.363   9.349
 2252POPC   PO430744  11.420  10.685   9.470
 2252POPC   GL130745  11.264  10.671   9.061
 2252POPC   GL230746  10.984  10.851   9.099
 2252POPC   C1A30747  11.183  10.376   8.695
 2252POPC   D2A30748  11.510  10.255   8.378
 2252POPC   C3A30749  11.448  10.387   7.995
 2252POPC   C4A30750  11.178  10.271   7.701
 2252POPC   C1B30751  11.062  11.044   8.734
 2252POPC   C2B30752  11.276  10.826   8.432
 2252POPC   C3B30753  11.086  10.746   8.046
 2252POPC   C4B30754  11.253  10.852   7.678
 2253POPC   NC330755  12.319  15.911   9.426
 2253POPC   PO430756  11.838  16.322   9.684
 2253POPC   GL130757  11.997  16.224   9.233
 2253POPC   GL230758  12.295  16.355   9.136
 2253POPC   C1A30759  12.007  16.004   8.800
 2253POPC   D2A30760  12.306  15.882   8.420
 2253POPC   C3A30761  12.112  15.778   7.996
 2253POPC   C4A30762  11.815  15.959   7.674
 2253POPC   C1B30763  12.416  16.348   8.703
 2253POPC   C2B30764  12.435  16.358   8.246
 2253POPC   C3B30765  12.497  16.084   7.902
 2253POPC   C4B30766  12.342  15.858   7.542
 2254POPC   NC330767  31.677  42.170   9.675
 2254POPC   PO430768  31.420  42.759   9.501
 2254POPC   GL130769  31.360  42.341   9.255
 2254POPC   GL230770  31.686  42.212   9.165
 2254POPC   C1A30771  31.324  42.197   8.798
 2254POPC   D2A30772  31.452  42.426   8.392
 2254POPC   C3A30773  31.491  42.172   8.018
 2254POPC   C4A30774  31.520  41.927   7.664
 2254POPC   C1B30775  31.639  42.578   8.859
 2254POPC   C2B30776  31.925  42.674   8.528
 2254POPC   C3B30777  31.931  42.709   8.103
 2254POPC   C4B30778  31.697  42.573   7.763
 2255POPC   NC330779   1.067  15.617   9.739
 2255POPC   PO430780   1.479  16.173   9.585
 2255POPC   GL130781   1.284  15.876   9.292
 2255POPC   GL230782   1.443  15.573   9.175
 2255POPC   C1A30783   1.166  15.941   8.855
 2255POPC   D2A30784   1.258  16.215   8.523
 2255POPC   C3A30785   1.087  16.036   8.176
 2255POPC   C4A30786   1.184  16.098   7.747
 2255POPC   C1B30787   1.262  15.453   8.745
 2255POPC   C2B30788   1.118  15.543   8.350
 2255POPC   C3B30789   1.323  15.632   7.973
 2255POPC   C4B30790   1.544  15.462   7.629
 2256POPC   NC330791   4.216  32.039   9.313
 2256POPC   PO430792   4.140  31.454   9.746
 2256POPC   GL130793   4.319  31.373   9.292
 2256POPC   GL230794   4.660  31.513   9.166
 2256POPC   C1A30795   4.279  31.556   8.847
 2256POPC   D2A30796   4.385  31.770   8.457
 2256POPC   C3A30797   4.295  31.537   8.090
 2256POPC   C4A30798   4.454  31.621   7.698
 2256POPC   C1B30799   4.643  31.186   8.849
 2256POPC   C2B30800   4.427  31.182   8.463
 2256POPC   C3B30801   4.659  31.170   8.074
 2256POPC   C4B30802   4.421  31.128   7.733
 2257POPC   NC330803   3.670  37.633   9.539
 2257POPC   PO430804   3.242  38.062   9.736
 2257POPC   GL130805   3.280  37.915   9.295
 2257POPC   GL230806   3.601  37.923   9.144
 2257POPC   C1A30807   3.271  37.577   8.926
 2257POPC   D2A30808   3.445  37.340   8.542
 2257POPC   C3A30809   3.373  37.451   8.081
 2257POPC   C4A30810   3.323  37.703   7.664
 2257POPC   C1B30811   3.634  37.992   8.738
 2257POPC   C2B30812   3.738  37.750   8.378
 2257POPC   C3B30813   3.679  37.874   7.969
 2257POPC   C4B30814   3.930  38.087   7.676
 2258POPC   NC330815   3.261  32.091   9.462
 2258POPC   PO430816   3.906  32.329   9.518
 2258POPC   GL130817   3.605  32.340   9.149
 2258POPC   GL230818   3.281  32.531   9.152
 2258POPC   C1A30819   3.374  32.131   8.788
 2258POPC   D2A30820   3.535  31.957   8.383
 2258POPC   C3A30821   3.463  32.223   8.050
 2258POPC   C4A30822   3.717  32.296   7.684
 2258POPC   C1B30823   3.499  32.620   8.728
 2258POPC   C2B30824   3.371  32.668   8.310
 2258POPC   C3B30825   3.480  32.709   7.882
 2258POPC   C4B30826   3.353  32.574   7.461
 2259POPC   NC330827  23.972   7.546   9.688
 2259POPC   PO430828  23.580   7.086   9.645
 2259POPC   GL130829  23.700   7.297   9.228
 2259POPC   GL230830  23.901   7.623   9.183
 2259POPC   C1A30831  23.591   7.419   8.788
 2259POPC   D2A30832  23.821   7.457   8.395
 2259POPC   C3A30833  23.593   7.366   7.997
 2259POPC   C4A30834  23.495   7.645   7.647
 2259POPC   C1B30835  23.913   7.838   8.767
 2259POPC   C2B30836  24.089   7.910   8.360
 2259POPC   C3B30837  24.057   7.664   7.975
 2259POPC   C4B30838  23.951   7.814   7.540
 2260POPC   NC330839  32.317   8.018   9.859
 2260POPC   PO430840  32.115   8.511   9.474
 2260POPC   GL130841  32.299   8.494   9.114
 2260POPC   GL230842  31.926   8.483   9.006
 2260POPC   C1A30843  32.325   8.322   8.689
 2260POPC   D2A30844  32.449   8.441   8.279
 2260POPC   C3A30845  32.469   8.145   7.988
 2260POPC   C4A30846  32.567   8.410   7.708
 2260POPC   C1B30847  31.817   8.216   8.660
 2260POPC   C2B30848  32.002   8.228   8.233
 2260POPC   C3B30849  32.039   8.329   7.794
 2260POPC   C4B30850  31.945   8.020   7.435
 2261POPC   NC330851  40.921  18.515   9.298
 2261POPC   PO430852  40.357  18.160   9.440
 2261POPC   GL130853  40.442  18.433   9.090
 2261POPC   GL230854  40.678  18.208   8.945
 2261POPC   C1A30855  40.516  18.628   8.685
 2261POPC   D2A30856  40.405  18.407   8.328
 2261POPC   C3A30857  40.739  18.311   8.082
 2261POPC   C4A30858  40.705  18.396   7.687
 2261POPC   C1B30859  40.416  17.972   8.638
 2261POPC   C2B30860  40.504  17.858   8.205
 2261POPC   C3B30861  40.618  17.909   7.747
 2261POPC   C4B30862  40.586  17.841   7.294
 2262POPC   NC330863  44.865  35.659   9.384
 2262POPC   PO430864  44.834  34.987   9.502
 2262POPC   GL130865  44.916  35.203   9.144
 2262POPC   GL230866  44.597  35.321   9.053
 2262POPC   C1A30867  44.981  35.422   8.758
 2262POPC   D2A30868   0.032  35.249   8.359
 2262POPC   C3A30869  44.654  35.350   8.106
 2262POPC   C4A30870  44.463  35.400   7.676
 2262POPC   C1B30871  44.481  35.513   8.632
 2262POPC   C2B30872  44.346  35.753   8.241
 2262POPC   C3B30873  44.446  35.918   7.799
 2262POPC   C4B30874  44.357  35.803   7.349
 2263POPC   NC330875  30.937  28.040   9.497
 2263POPC   PO430876  30.705  27.365   9.492
 2263POPC   GL130877  30.549  27.490   9.085
 2263POPC   GL230878  30.380  27.182   9.060
 2263POPC   C1A30879  30.695  27.747   8.736
 2263POPC   D2A30880  30.688  27.943   8.324
 2263POPC   C3A30881  30.983  27.789   8.065
 2263POPC   C4A30882  30.936  27.586   7.664
 2263POPC   C1B30883  30.218  27.317   8.680
 2263POPC   C2B30884  30.403  27.529   8.361
 2263POPC   C3B30885  30.558  27.455   7.970
 2263POPC   C4B30886  30.384  27.123   7.752
 2264POPC   NC330887  17.042   1.031   9.631
 2264POPC   PO430888  17.308   1.576   9.448
 2264POPC   GL130889  17.024   1.323   9.205
 2264POPC   GL230890  16.665   1.268   9.314
 2264POPC   C1A30891  16.883   1.251   8.813
 2264POPC   D2A30892  16.600   0.998   8.576
 2264POPC   C3A30893  16.687   1.084   8.147
 2264POPC   C4A30894  17.014   1.170   7.826
 2264POPC   C1B30895  16.388   1.363   8.947
 2264POPC   C2B30896  16.216   1.383   8.519
 2264POPC   C3B30897  16.233   1.328   8.079
 2264POPC   C4B30898  16.518   1.342   7.742
 2265POPC   NC330899  36.932  34.907   9.502
 2265POPC   PO430900  36.875  34.262   9.516
 2265POPC   GL130901  36.775  34.339   9.091
 2265POPC   GL230902  36.995  34.609   9.109
 2265POPC   C1A30903  36.840  34.513   8.637
 2265POPC   D2A30904  36.755  34.859   8.345
 2265POPC   C3A30905  36.659  34.614   7.967
 2265POPC   C4A30906  36.597  34.665   7.509
 2265POPC   C1B30907  37.275  34.452   8.891
 2265POPC   C2B30908  37.409  34.548   8.507
 2265POPC   C3B30909  37.168  34.623   8.118
 2265POPC   C4B30910  37.087  34.604   7.671
 2266POPC   NC330911  24.780  44.469   9.713
 2266POPC   PO430912  24.264  44.911   9.669
 2266POPC   GL130913  24.340  44.636   9.311
 2266POPC   GL230914  24.068  44.685   9.077
 2266POPC   C1A30915  24.590  44.521   8.927
 2266POPC   D2A30916  24.748  44.777   8.575
 2266POPC   C3A30917  24.611  44.662   8.153
 2266POPC   C4A30918  24.574  44.417   7.778
 2266POPC   C1B30919  24.138  44.769   8.632
 2266POPC   C2B30920  24.028  44.792   8.204
 2266POPC   C3B30921  24.114  44.652   7.783
 2266POPC   C4B30922  24.003  44.811   7.362
 2267POPC   NC330923   9.403  40.954   9.726
 2267POPC   PO430924   9.984  40.850   9.307
 2267POPC   GL130925   9.851  40.581   8.988
 2267POPC   GL230926   9.496  40.451   9.043
 2267POPC   C1A30927   9.832  40.740   8.552
 2267POPC   D2A30928   9.592  40.873   8.190
 2267POPC   C3A30929   9.790  40.774   7.790
 2267POPC   C4A30930   9.885  40.500   7.409
 2267POPC   C1B30931   9.566  40.313   8.645
 2267POPC   C2B30932   9.594  40.345   8.224
 2267POPC   C3B30933   9.321  40.512   7.937
 2267POPC   C4B30934   9.334  40.746   7.589
 2268POPC   NC330935   6.805   8.810   9.774
 2268POPC   PO430936   6.253   8.985   9.624
 2268POPC   GL130937   6.553   8.941   9.272
 2268POPC   GL230938   6.768   8.661   9.246
 2268POPC   C1A30939   6.651   8.958   8.819
 2268POPC   D2A30940   6.533   9.102   8.407
 2268POPC   C3A30941   6.718   9.000   8.021
 2268POPC   C4A30942   6.724   9.163   7.617
 2268POPC   C1B30943   6.938   8.525   8.845
 2268POPC   C2B30944   6.788   8.622   8.446
 2268POPC   C3B30945   6.780   8.501   8.056
 2268POPC   C4B30946   7.085   8.670   7.761
 2269POPC   NC330947  40.319  40.810   9.547
 2269POPC   PO430948  39.723  41.175   9.466
 2269POPC   GL130949  39.805  40.867   9.099
 2269POPC   GL230950  40.099  40.653   9.122
 2269POPC   C1A30951  39.929  40.842   8.649
 2269POPC   D2A30952  39.669  40.829   8.293
 2269POPC   C3A30953  39.823  40.679   7.903
 2269POPC   C4A30954  39.995  40.854   7.550
 2269POPC   C1B30955  40.329  41.008   8.915
 2269POPC   C2B30956  40.447  40.999   8.461
 2269POPC   C3B30957  40.308  40.815   8.075
 2269POPC   C4B30958  40.431  41.036   7.713
 2270POPC   NC330959  14.278  19.632   9.248
 2270POPC   PO430960  14.100  20.274   9.142
 2270POPC   GL130961  14.421  20.010   8.927
 2270POPC   GL230962  14.569  19.648   8.853
 2270POPC   C1A30963  14.480  19.986   8.509
 2270POPC   D2A30964  14.355  19.810   8.168
 2270POPC   C3A30965  14.434  20.105   7.902
 2270POPC   C4A30966  14.601  19.969   7.533
 2270POPC   C1B30967  14.354  19.455   8.533
 2270POPC   C2B30968  14.584  19.335   8.184
 2270POPC   C3B30969  14.472  19.447   7.797
 2270POPC   C4B30970  14.153  19.737   7.706
 2271POPC   NC330971  23.133  11.339   9.502
 2271POPC   PO430972  22.477  11.122   9.658
 2271POPC   GL130973  22.567  11.355   9.280
 2271POPC   GL230974  22.665  11.081   9.068
 2271POPC   C1A30975  22.796  11.550   8.899
 2271POPC   D2A30976  22.991  11.552   8.470
 2271POPC   C3A30977  22.692  11.600   8.115
 2271POPC   C4A30978  22.757  11.310   7.789
 2271POPC   C1B30979  22.983  11.040   8.725
 2271POPC   C2B30980  23.117  11.096   8.261
 2271POPC   C3B30981  23.044  10.885   7.857
 2271POPC   C4B30982  22.730  10.912   7.477
 2272POPC   NC330983  11.349  31.083   9.422
 2272POPC   PO430984  11.108  31.682   9.490
 2272POPC   GL130985  11.175  31.469   9.133
 2272POPC   GL230986  11.052  31.136   9.028
 2272POPC   C1A30987  11.362  31.539   8.774
 2272POPC   D2A30988  11.635  31.655   8.458
 2272POPC   C3A30989  11.506  31.675   8.046
 2272POPC   C4A30990  11.352  31.400   7.746
 2272POPC   C1B30991  11.364  31.047   8.688
 2272POPC   C2B30992  11.454  31.179   8.235
 2272POPC   C3B30993  11.676  31.040   7.839
 2272POPC   C4B30994  11.621  31.151   7.386
 2273POPC   NC330995   7.365  31.981   9.446
 2273POPC   PO430996   7.625  32.657   9.482
 2273POPC   GL130997   7.535  32.385   9.171
 2273POPC   GL230998   7.274  32.571   9.070
 2273POPC   C1A30999   7.601  32.037   8.842
 2273POPC   D2A31000   7.652  32.131   8.399
 2273POPC   C3A31001   7.255  32.090   8.150
 2273POPC   C4A31002   7.398  31.925   7.754
 2273POPC   C1B31003   7.414  32.496   8.685
 2273POPC   C2B31004   7.481  32.665   8.339
 2273POPC   C3B31005   7.513  32.477   7.971
 2273POPC   C4B31006   7.497  32.387   7.553
 2274POPC   NC331007  32.636   4.490   9.427
 2274POPC   PO431008  31.961   4.355   9.521
 2274POPC   GL131009  32.195   4.381   9.147
 2274POPC   GL231010  32.313   4.718   9.115
 2274POPC   C1A31011  32.424   4.158   8.820
 2274POPC   D2A31012  32.561   4.080   8.387
 2274POPC   C3A31013  32.211   4.124   8.113
 2274POPC   C4A31014  32.137   4.003   7.693
 2274POPC   C1B31015  32.495   4.664   8.709
 2274POPC   C2B31016  32.341   4.597   8.288
 2274POPC   C3B31017  32.215   4.790   7.898
 2274POPC   C4B31018  32.180   4.617   7.459
 2275POPC   NC331019   1.564  24.955   9.681
 2275POPC   PO431020   2.170  25.268   9.611
 2275POPC   GL131021   2.292  25.315   9.174
 2275POPC   GL231022   2.390  24.968   9.093
 2275POPC   C1A31023   2.091  25.335   8.744
 2275POPC   D2A31024   1.849  25.235   8.353
 2275POPC   C3A31025   1.819  25.461   7.972
 2275POPC   C4A31026   1.676  25.218   7.622
 2275POPC   C1B31027   2.288  24.847   8.702
 2275POPC   C2B31028   2.354  25.088   8.346
 2275POPC   C3B31029   2.194  25.118   7.939
 2275POPC   C4B31030   2.157  25.365   7.561
 2276POPC   NC331031  39.957   5.768   9.603
 2276POPC   PO431032  40.569   5.944   9.416
 2276POPC   GL131033  40.254   5.794   9.168
 2276POPC   GL231034  40.002   6.042   9.153
 2276POPC   C1A31035  39.977   5.702   8.796
 2276POPC   D2A31036  39.645   5.646   8.455
 2276POPC   C3A31037  39.845   5.613   8.060
 2276POPC   C4A31038  40.166   5.622   7.727
 2276POPC   C1B31039  40.261   6.124   8.781
 2276POPC   C2B31040  40.260   5.897   8.398
 2276POPC   C3B31041  40.169   6.042   8.008
 2276POPC   C4B31042  39.970   6.120   7.619
 2277POPC   NC331043  10.022  25.779   9.415
 2277POPC   PO431044  10.743  25.996   9.594
 2277POPC   GL131045  10.623  26.168   9.217
 2277POPC   GL231046  10.472  25.837   9.148
 2277POPC   C1A31047  10.763  26.113   8.799
 2277POPC   D2A31048  10.574  25.929   8.475
 2277POPC   C3A31049  10.632  26.137   8.106
 2277POPC   C4A31050  10.597  25.987   7.721
 2277POPC   C1B31051  10.203  25.641   8.818
 2277POPC   C2B31052  10.097  25.745   8.423
 2277POPC   C3B31053  10.175  25.928   8.040
 2277POPC   C4B31054  10.142  25.761   7.641
 2278POPC   NC331055  27.325  35.364   9.405
 2278POPC   PO431056  27.984  35.004   9.449
 2278POPC   GL131057  27.701  35.151   9.062
 2278POPC   GL231058  27.331  35.049   9.023
 2278POPC   C1A31059  27.626  35.451   8.665
 2278POPC   D2A31060  27.878  35.543   8.260
 2278POPC   C3A31061  27.656  35.611   7.850
 2278POPC   C4A31062  27.510  35.459   7.411
 2278POPC   C1B31063  27.459  34.973   8.624
 2278POPC   C2B31064  27.460  35.167   8.250
 2278POPC   C3B31065  27.770  35.130   7.975
 2278POPC   C4B31066  27.627  35.034   7.648
 2279POPC   NC331067   5.689  38.961   9.871
 2279POPC   PO431068   5.269  39.358   9.483
 2279POPC   GL131069   5.157  39.220   9.104
 2279POPC   GL231070   5.026  38.927   9.208
 2279POPC   C1A31071   5.027  39.402   8.711
 2279POPC   D2A31072   4.788  39.451   8.322
 2279POPC   C3A31073   5.047  39.420   7.982
 2279POPC   C4A31074   5.203  39.099   7.732
 2279POPC   C1B31075   4.860  38.903   8.828
 2279POPC   C2B31076   4.955  38.979   8.429
 2279POPC   C3B31077   4.773  38.990   8.018
 2279POPC   C4B31078   4.685  38.900   7.586
 2280POPC   NC331079  26.120  26.321   9.844
 2280POPC   PO431080  25.689  25.998   9.428
 2280POPC   GL131081  25.874  26.214   9.195
 2280POPC   GL231082  26.208  26.187   9.254
 2280POPC   C1A31083  25.866  26.183   8.769
 2280POPC   D2A31084  25.872  25.911   8.441
 2280POPC   C3A31085  25.845  26.098   8.056
 2280POPC   C4A31086  25.999  26.141   7.625
 2280POPC   C1B31087  26.238  25.861   8.931
 2280POPC   C2B31088  26.358  25.767   8.505
 2280POPC   C3B31089  26.232  25.767   8.078
 2280POPC   C4B31090  26.417  25.811   7.684
 2281POPC   NC331091  20.595  10.287   9.645
 2281POPC   PO431092  20.182  10.900   9.492
 2281POPC   GL131093  20.368  10.609   9.202
 2281POPC   GL231094  20.743  10.567   9.177
 2281POPC   C1A31095  20.422  10.439   8.787
 2281POPC   D2A31096  20.533  10.552   8.350
 2281POPC   C3A31097  20.318  10.396   7.975
 2281POPC   C4A31098  20.303  10.709   7.680
 2281POPC   C1B31099  20.914  10.576   8.739
 2281POPC   C2B31100  21.043  10.480   8.300
 2281POPC   C3B31101  20.809  10.535   7.894
 2281POPC   C4B31102  20.829  10.171   7.593
 2282POPC   NC331103  32.959  21.535   9.646
 2282POPC   PO431104  33.162  20.889   9.705
 2282POPC   GL131105  33.065  21.202   9.280
 2282POPC   GL231106  33.071  21.610   9.175
 2282POPC   C1A31107  33.031  21.279   8.813
 2282POPC   D2A31108  32.899  21.457   8.408
 2282POPC   C3A31109  33.110  21.389   8.064
 2282POPC   C4A31110  32.829  21.357   7.732
 2282POPC   C1B31111  32.987  21.797   8.776
 2282POPC   C2B31112  33.250  21.846   8.406
 2282POPC   C3B31113  33.177  21.890   7.961
 2282POPC   C4B31114  33.179  21.723   7.547
 2283POPC   NC331115  40.979  27.945   9.589
 2283POPC   PO431116  40.653  27.426   9.421
 2283POPC   GL131117  40.897  27.461   9.102
 2283POPC   GL231118  40.660  27.707   8.941
 2283POPC   C1A31119  41.032  27.426   8.693
 2283POPC   D2A31120  40.905  27.735   8.426
 2283POPC   C3A31121  40.896  27.513   8.053
 2283POPC   C4A31122  40.669  27.550   7.709
 2283POPC   C1B31123  41.061  27.920   8.917
 2283POPC   C2B31124  41.270  28.126   8.583
 2283POPC   C3B31125  41.100  28.167   8.194
 2283POPC   C4B31126  40.994  27.951   7.845
 2284POPC   NC331127  41.447  30.990   9.570
 2284POPC   PO431128  41.345  30.296   9.457
 2284POPC   GL131129  41.409  30.533   9.103
 2284POPC   GL231130  41.750  30.614   9.253
 2284POPC   C1A31131  41.363  30.635   8.650
 2284POPC   D2A31132  41.512  30.410   8.295
 2284POPC   C3A31133  41.502  30.546   7.876
 2284POPC   C4A31134  41.551  30.960   7.750
 2284POPC   C1B31135  41.776  30.837   8.886
 2284POPC   C2B31136  41.790  30.857   8.454
 2284POPC   C3B31137  41.962  30.632   8.134
 2284POPC   C4B31138  41.984  30.667   7.704
 2285POPC   NC331139  24.948   7.588   9.554
 2285POPC   PO431140  25.218   6.985   9.537
 2285POPC   GL131141  25.229   7.231   9.171
 2285POPC   GL231142  25.451   7.553   9.226
 2285POPC   C1A31143  25.083   7.131   8.727
 2285POPC   D2A31144  25.337   7.062   8.316
 2285POPC   C3A31145  25.191   7.159   7.875
 2285POPC   C4A31146  25.339   7.205   7.428
 2285POPC   C1B31147  25.158   7.632   8.873
 2285POPC   C2B31148  25.203   7.565   8.433
 2285POPC   C3B31149  25.325   7.633   8.008
 2285POPC   C4B31150  24.979   7.602   7.704
 2286POPC   NC331151   0.866  26.558   9.365
 2286POPC   PO431152   1.380  26.786   9.755
 2286POPC   GL131153   1.304  26.884   9.274
 2286POPC   GL231154   1.351  26.535   9.214
 2286POPC   C1A31155   1.082  27.127   8.853
 2286POPC   D2A31156   1.186  27.024   8.434
 2286POPC   C3A31157   0.926  27.038   8.073
 2286POPC   C4A31158   1.180  27.250   7.804
 2286POPC   C1B31159   1.211  26.650   8.809
 2286POPC   C2B31160   1.360  26.552   8.403
 2286POPC   C3B31161   1.220  26.634   8.002
 2286POPC   C4B31162   1.426  26.554   7.626
 2287POPC   NC331163  11.284   8.512   9.512
 2287POPC   PO431164  10.916   9.052   9.558
 2287POPC   GL131165  11.102   9.000   9.157
 2287POPC   GL231166  11.079   8.625   9.066
 2287POPC   C1A31167  11.125   9.252   8.749
 2287POPC   D2A31168  11.265   9.128   8.335
 2287POPC   C3A31169  11.216   9.392   7.961
 2287POPC   C4A31170  11.431   9.245   7.576
 2287POPC   C1B31171  11.357   8.776   8.732
 2287POPC   C2B31172  11.423   8.619   8.304
 2287POPC   C3B31173  11.355   8.827   7.918
 2287POPC   C4B31174  11.319   8.738   7.470
 2288POPC   NC331175  21.886   1.446   9.527
 2288POPC   PO431176  21.149   1.245   9.397
 2288POPC   GL131177  21.366   1.108   9.039
 2288POPC   GL231178  21.711   1.215   9.084
 2288POPC   C1A31179  21.336   0.999   8.600
 2288POPC   D2A31180  21.452   1.083   8.184
 2288POPC   C3A31181  21.347   0.897   7.801
 2288POPC   C4A31182  21.617   0.706   7.468
 2288POPC   C1B31183  21.626   1.407   8.651
 2288POPC   C2B31184  21.293   1.530   8.345
 2288POPC   C3B31185  21.408   1.558   7.895
 2288POPC   C4B31186  21.157   1.684   7.517
 2289POPC   NC331187   9.377  14.647   9.789
 2289POPC   PO431188   8.793  14.323   9.676
 2289POPC   GL131189   8.979  14.415   9.272
 2289POPC   GL231190   9.313  14.549   9.291
 2289POPC   C1A31191   8.971  14.316   8.833
 2289POPC   D2A31192   8.721  14.498   8.531
 2289POPC   C3A31193   8.650  14.370   8.146
 2289POPC   C4A31194   8.858  14.451   7.775
 2289POPC   C1B31195   9.406  14.607   8.875
 2289POPC   C2B31196   9.200  14.674   8.512
 2289POPC   C3B31197   9.150  14.369   8.208
 2289POPC   C4B31198   9.352  14.296   7.832
 2290POPC   NC331199  25.353  35.623   9.451
 2290POPC   PO431200  24.798  35.215   9.466
 2290POPC   GL131201  25.096  35.254   9.142
 2290POPC   GL231202  25.070  35.599   9.025
 2290POPC   C1A31203  25.103  35.215   8.690
 2290POPC   D2A31204  25.101  35.445   8.292
 2290POPC   C3A31205  25.318  35.161   8.014
 2290POPC   C4A31206  25.233  34.937   7.648
 2290POPC   C1B31207  25.466  35.623   8.767
 2290POPC   C2B31208  25.550  35.779   8.330
 2290POPC   C3B31209  25.623  35.551   7.946
 2290POPC   C4B31210  25.670  35.603   7.449
 2291POPC   NC331211  22.824  13.223   9.569
 2291POPC   PO431212  23.095  13.875   9.510
 2291POPC   GL131213  23.113  13.548   9.181
 2291POPC   GL231214  22.823  13.376   9.065
 2291POPC   C1A31215  23.030  13.762   8.786
 2291POPC   D2A31216  23.090  13.927   8.368
 2291POPC   C3A31217  22.915  13.675   8.030
 2291POPC   C4A31218  23.010  13.678   7.599
 2291POPC   C1B31219  23.150  13.270   8.714
 2291POPC   C2B31220  23.159  13.275   8.244
 2291POPC   C3B31221  22.998  13.220   7.803
 2291POPC   C4B31222  22.604  13.378   7.586
 2292POPC   NC331223  26.240  15.412   9.607
 2292POPC   PO431224  25.848  14.884   9.637
 2292POPC   GL131225  25.938  15.111   9.284
 2292POPC   GL231226  26.207  14.891   9.161
 2292POPC   C1A31227  26.100  15.343   8.941
 2292POPC   D2A31228  26.397  15.129   8.679
 2292POPC   C3A31229  26.478  15.303   8.286
 2292POPC   C4A31230  26.349  15.343   7.865
 2292POPC   C1B31231  25.970  14.847   8.771
 2292POPC   C2B31232  25.994  15.046   8.354
 2292POPC   C3B31233  25.873  15.321   8.041
 2292POPC   C4B31234  25.908  15.239   7.604
 2293POPC   NC331235  12.339  18.990   9.584
 2293POPC   PO431236  11.711  19.239   9.413
 2293POPC   GL131237  11.995  19.026   9.207
 2293POPC   GL231238  12.301  19.211   9.132
 2293POPC   C1A31239  12.045  18.883   8.806
 2293POPC   D2A31240  12.198  18.979   8.393
 2293POPC   C3A31241  11.881  19.139   8.116
 2293POPC   C4A31242  11.922  18.997   7.701
 2293POPC   C1B31243  12.412  19.420   8.767
 2293POPC   C2B31244  12.293  19.549   8.359
 2293POPC   C3B31245  12.333  19.317   7.987
 2293POPC   C4B31246  12.248  19.363   7.561
 2294POPC   NC331247  17.771   8.932   9.478
 2294POPC   PO431248  17.311   9.391   9.429
 2294POPC   GL131249  17.513   9.226   9.084
 2294POPC   GL231250  17.862   9.251   9.041
 2294POPC   C1A31251  17.486   9.196   8.637
 2294POPC   D2A31252  17.448   9.315   8.207
 2294POPC   C3A31253  17.264   9.068   7.874
 2294POPC   C4A31254  17.405   8.608   7.905
 2294POPC   C1B31255  17.929   9.528   8.678
 2294POPC   C2B31256  17.910   9.502   8.192
 2294POPC   C3B31257  17.784   9.184   7.834
 2294POPC   C4B31258  17.923   9.025   7.418
 2295POPC   NC331259  44.145   3.266   9.725
 2295POPC   PO431260  44.651   3.663   9.750
 2295POPC   GL131261  44.552   3.466   9.352
 2295POPC   GL231262  44.275   3.670   9.342
 2295POPC   C1A31263  44.754   3.523   8.916
 2295POPC   D2A31264   0.058   3.708   8.625
 2295POPC   C3A31265  44.991   3.642   8.178
 2295POPC   C4A31266  44.976   3.501   7.733
 2295POPC   C1B31267  44.244   3.568   8.898
 2295POPC   C2B31268  44.404   3.396   8.501
 2295POPC   C3B31269  44.246   3.502   8.107
 2295POPC   C4B31270  44.465   3.565   7.733
 2296POPC   NC331271  35.096  24.968   9.607
 2296POPC   PO431272  35.609  25.337   9.520
 2296POPC   GL131273  35.523  25.178   9.121
 2296POPC   GL231274  35.182  25.221   9.175
 2296POPC   C1A31275  35.536  25.272   8.673
 2296POPC   D2A31276  35.444  24.960   8.359
 2296POPC   C3A31277  35.530  25.055   7.932
 2296POPC   C4A31278  35.456  25.446   7.768
 2296POPC   C1B31279  35.066  25.143   8.781
 2296POPC   C2B31280  35.079  25.330   8.385
 2296POPC   C3B31281  35.045  25.176   8.002
 2296POPC   C4B31282  35.116  25.064   7.610
 2297POPC   NC331283  10.855  22.539   9.644
 2297POPC   PO431284  10.418  22.982   9.383
 2297POPC   GL131285  10.780  22.984   9.125
 2297POPC   GL231286  10.754  23.284   8.986
 2297POPC   C1A31287  10.708  22.909   8.668
 2297POPC   D2A31288  10.437  22.780   8.349
 2297POPC   C3A31289  10.696  22.656   8.043
 2297POPC   C4A31290  10.846  22.884   7.728
 2297POPC   C1B31291  10.392  23.391   8.769
 2297POPC   C2B31292  10.517  23.506   8.366
 2297POPC   C3B31293  10.642  23.182   8.110
 2297POPC   C4B31294  10.337  22.965   7.857
 2298POPC   NC331295  31.760  22.670   9.438
 2298POPC   PO431296  31.827  23.276   9.609
 2298POPC   GL131297  31.564  23.193   9.228
 2298POPC   GL231298  31.322  22.946   9.308
 2298POPC   C1A31299  31.579  23.254   8.771
 2298POPC   D2A31300  31.623  22.970   8.406
 2298POPC   C3A31301  31.599  23.076   7.993
 2298POPC   C4A31302  31.608  22.780   7.635
 2298POPC   C1B31303  31.440  22.758   8.868
 2298POPC   C2B31304  31.248  22.651   8.489
 2298POPC   C3B31305  31.327  22.576   8.064
 2298POPC   C4B31306  31.090  22.642   7.710
 2299POPC   NC331307  28.851  16.212   9.779
 2299POPC   PO431308  28.462  16.803   9.582
 2299POPC   GL131309  28.514  16.762   9.120
 2299POPC   GL231310  28.843  16.708   8.977
 2299POPC   C1A31311  28.225  16.752   8.779
 2299POPC   D2A31312  28.035  16.730   8.414
 2299POPC   C3A31313  28.223  16.824   8.025
 2299POPC   C4A31314  28.207  16.968   7.573
 2299POPC   C1B31315  28.687  16.924   8.631
 2299POPC   C2B31316  28.699  16.878   8.198
 2299POPC   C3B31317  28.635  17.080   7.812
 2299POPC   C4B31318  28.708  17.141   7.341
 2300POPC   NC331319   3.327  14.431   9.498
 2300POPC   PO431320   4.001  14.481   9.721
 2300POPC   GL131321   3.794  14.538   9.251
 2300POPC   GL231322   3.596  14.275   9.102
 2300POPC   C1A31323   3.834  14.557   8.777
 2300POPC   D2A31324   3.638  14.264   8.499
 2300POPC   C3A31325   3.647  14.372   8.079
 2300POPC   C4A31326   3.592  14.482   7.673
 2300POPC   C1B31327   3.288  14.508   8.814
 2300POPC   C2B31328   3.140  14.440   8.369
 2300POPC   C3B31329   3.201  14.111   8.032
 2300POPC   C4B31330   3.157  14.207   7.593
 2301POPC   NC331331  19.532  42.365   9.522
 2301POPC   PO431332  18.895  42.296   9.648
 2301POPC   GL131333  19.101  42.222   9.249
 2301POPC   GL231334  19.150  42.535   9.145
 2301POPC   C1A31335  19.265  42.162   8.827
 2301POPC   D2A31336  19.083  42.375   8.448
 2301POPC   C3A31337  19.123  42.346   8.014
 2301POPC   C4A31338  19.240  42.049   7.669
 2301POPC   C1B31339  19.349  42.679   8.768
 2301POPC   C2B31340  19.438  42.752   8.371
 2301POPC   C3B31341  19.590  42.596   8.036
 2301POPC   C4B31342  19.398  42.583   7.649
 2302POPC   NC331343  42.494  10.902   9.483
 2302POPC   PO431344  42.044  10.473   9.532
 2302POPC   GL131345  42.109  10.713   9.181
 2302POPC   GL231346  42.410  10.536   9.127
 2302POPC   C1A31347  41.996  10.748   8.746
 2302POPC   D2A31348  42.155  10.579   8.370
 2302POPC   C3A31349  42.103  10.758   7.976
 2302POPC   C4A31350  42.067  10.463   7.590
 2302POPC   C1B31351  42.496  10.662   8.754
 2302POPC   C2B31352  42.629  10.438   8.370
 2302POPC   C3B31353  42.502  10.446   7.936
 2302POPC   C4B31354  42.470  10.767   7.585
 2303POPC   NC331355  31.722  14.838   9.360
 2303POPC   PO431356  31.304  14.389   9.681
 2303POPC   GL131357  31.399  14.334   9.245
 2303POPC   GL231358  31.757  14.232   9.190
 2303POPC   C1A31359  31.339  14.550   8.857
 2303POPC   D2A31360  31.342  14.382   8.427
 2303POPC   C3A31361  31.176  14.545   8.035
 2303POPC   C4A31362  31.258  14.663   7.591
 2303POPC   C1B31363  31.809  14.400   8.727
 2303POPC   C2B31364  31.857  14.350   8.242
 2303POPC   C3B31365  31.645  14.390   7.814
 2303POPC   C4B31366  31.794  14.612   7.429
 2304POPC   NC331367   3.928  20.827   9.534
 2304POPC   PO431368   4.520  20.495   9.509
 2304POPC   GL131369   4.296  20.670   9.201
 2304POPC   GL231370   4.051  20.444   9.154
 2304POPC   C1A31371   4.413  20.538   8.806
 2304POPC   D2A31372   4.676  20.461   8.456
 2304POPC   C3A31373   4.406  20.616   8.175
 2304POPC   C4A31374   4.546  20.663   7.790
 2304POPC   C1B31375   3.901  20.679   8.803
 2304POPC   C2B31376   3.818  20.532   8.389
 2304POPC   C3B31377   3.933  20.633   7.975
 2304POPC   C4B31378   4.091  20.888   7.657
 2305POPC   NC331379  38.180  31.331   9.588
 2305POPC   PO431380  38.614  31.673   9.334
 2305POPC   GL131381  38.316  31.426   9.098
 2305POPC   GL231382  38.608  31.364   8.918
 2305POPC   C1A31383  38.165  31.401   8.668
 2305POPC   D2A31384  38.423  31.435   8.298
 2305POPC   C3A31385  38.241  31.399   7.868
 2305POPC   C4A31386  38.316  31.593   7.462
 2305POPC   C1B31387  38.840  31.050   8.697
 2305POPC   C2B31388  38.787  31.063   8.253
 2305POPC   C3B31389  38.765  31.334   7.865
 2305POPC   C4B31390  38.606  31.185   7.457
 2306POPC   NC331391  36.960  28.030   9.365
 2306POPC   PO431392  36.805  28.678   9.484
 2306POPC   GL131393  36.964  28.514   9.115
 2306POPC   GL231394  36.669  28.314   9.047
 2306POPC   C1A31395  37.148  28.487   8.702
 2306POPC   D2A31396  37.099  28.747   8.315
 2306POPC   C3A31397  36.970  28.625   7.881
 2306POPC   C4A31398  36.547  28.509   7.726
 2306POPC   C1B31399  36.747  28.120   8.681
 2306POPC   C2B31400  36.931  28.151   8.355
 2306POPC   C3B31401  36.821  28.165   7.982
 2306POPC   C4B31402  37.194  28.174   7.751
 2307POPC   NC331403  14.169  40.995   9.383
 2307POPC   PO431404  14.581  40.527   9.480
 2307POPC   GL131405  14.532  40.698   9.091
 2307POPC   GL231406  14.562  41.034   9.053
 2307POPC   C1A31407  14.318  40.676   8.710
 2307POPC   D2A31408  14.588  40.760   8.379
 2307POPC   C3A31409  14.393  40.681   7.997
 2307POPC   C4A31410  14.689  40.521   7.706
 2307POPC   C1B31411  14.191  41.164   8.766
 2307POPC   C2B31412  14.177  41.047   8.363
 2307POPC   C3B31413  14.519  41.163   8.053
 2307POPC   C4B31414  14.410  41.026   7.630
 2308POPC   NC331415  40.446  20.066   9.590
 2308POPC   PO431416  40.632  19.501   9.818
 2308POPC   GL131417  40.649  19.682   9.288
 2308POPC   GL231418  40.418  19.977   9.100
 2308POPC   C1A31419  40.871  19.935   8.905
 2308POPC   D2A31420  40.928  19.846   8.469
 2308POPC   C3A31421  40.707  19.957   8.139
 2308POPC   C4A31422  40.917  19.987   7.776
 2308POPC   C1B31423  40.354  19.666   8.804
 2308POPC   C2B31424  40.515  19.542   8.436
 2308POPC   C3B31425  40.514  19.497   8.025
 2308POPC   C4B31426  40.525  19.679   7.653
 2309POPC   NC331427   7.805  41.644   9.388
 2309POPC   PO431428   8.430  41.392   9.548
 2309POPC   GL131429   8.216  41.474   9.152
 2309POPC   GL231430   7.924  41.264   9.077
 2309POPC   C1A31431   8.064  41.752   8.794
 2309POPC   D2A31432   8.235  41.755   8.388
 2309POPC   C3A31433   8.066  41.732   8.004
 2309POPC   C4A31434   8.021  41.694   7.561
 2309POPC   C1B31435   8.161  41.263   8.672
 2309POPC   C2B31436   8.265  41.271   8.243
 2309POPC   C3B31437   8.227  41.273   7.802
 2309POPC   C4B31438   8.135  41.195   7.363
 2310POPC   NC331439  26.864  17.868   9.445
 2310POPC   PO431440  26.752  17.214   9.395
 2310POPC   GL131441  26.879  17.420   9.018
 2310POPC   GL231442  27.145  17.598   9.117
 2310POPC   C1A31443  26.866  17.461   8.544
 2310POPC   D2A31444  26.800  17.778   8.187
 2310POPC   C3A31445  26.430  17.751   7.894
 2310POPC   C4A31446  26.385  17.653   7.426
 2310POPC   C1B31447  27.351  17.692   8.730
 2310POPC   C2B31448  27.379  17.490   8.331
 2310POPC   C3B31449  27.051  17.330   8.070
 2310POPC   C4B31450  26.841  17.542   7.715
 2311POPC   NC331451  37.302  24.964   9.507
 2311POPC   PO431452  37.806  25.433   9.580
 2311POPC   GL131453  37.845  25.602   9.181
 2311POPC   GL231454  37.728  25.256   9.102
 2311POPC   C1A31455  37.722  25.630   8.762
 2311POPC   D2A31456  37.702  25.327   8.428
 2311POPC   C3A31457  37.575  25.472   8.040
 2311POPC   C4A31458  37.329  25.253   7.747
 2311POPC   C1B31459  37.404  25.135   8.813
 2311POPC   C2B31460  37.394  24.893   8.419
 2311POPC   C3B31461  37.570  24.810   7.995
 2311POPC   C4B31462  37.608  24.889   7.542
 2312POPC   NC331463  33.216  31.975   9.626
 2312POPC   PO431464  32.613  32.184   9.656
 2312POPC   GL131465  32.860  32.116   9.261
 2312POPC   GL231466  33.080  32.385   9.283
 2312POPC   C1A31467  33.086  32.124   8.838
 2312POPC   D2A31468  33.226  32.390   8.468
 2312POPC   C3A31469  33.122  32.210   8.049
 2312POPC   C4A31470  32.774  31.997   7.818
 2312POPC   C1B31471  32.832  32.571   8.952
 2312POPC   C2B31472  32.802  32.773   8.547
 2312POPC   C3B31473  32.808  32.634   8.113
 2312POPC   C4B31474  32.903  32.512   7.672
 2313POPC   NC331475  41.027  17.542   9.499
 2313POPC   PO431476  41.254  18.155   9.323
 2313POPC   GL131477  41.009  17.808   9.043
 2313POPC   GL231478  40.942  17.424   9.025
 2313POPC   C1A31479  40.851  17.673   8.609
 2313POPC   D2A31480  40.883  17.331   8.312
 2313POPC   C3A31481  40.912  17.589   7.978
 2313POPC   C4A31482  41.018  17.615   7.542
 2313POPC   C1B31483  40.634  17.217   8.757
 2313POPC   C2B31484  40.373  17.405   8.453
 2313POPC   C3B31485  40.426  17.397   8.003
 2313POPC   C4B31486  40.487  17.003   7.844
 2314POPC   NC331487  33.645   6.139   9.302
 2314POPC   PO431488  34.059   5.843   9.666
 2314POPC   GL131489  33.909   5.723   9.196
 2314POPC   GL231490  33.541   5.673   9.114
 2314POPC   C1A31491  33.911   5.895   8.734
 2314POPC   D2A31492  33.838   6.254   8.428
 2314POPC   C3A31493  33.755   6.170   7.985
 2314POPC   C4A31494  33.736   6.118   7.528
 2314POPC   C1B31495  33.479   5.648   8.666
 2314POPC   C2B31496  33.679   5.662   8.255
 2314POPC   C3B31497  33.600   5.692   7.784
 2314POPC   C4B31498  33.580   5.635   7.301
 2315POPC   NC331499  35.714  10.293   9.573
 2315POPC   PO431500  36.263  10.756   9.567
 2315POPC   GL131501  35.963  10.625   9.233
 2315POPC   GL231502  36.028  10.297   9.165
 2315POPC   C1A31503  35.960  10.746   8.807
 2315POPC   D2A31504  36.184  10.749   8.418
 2315POPC   C3A31505  35.863  10.822   8.099
 2315POPC   C4A31506  35.943  10.955   7.707
 2315POPC   C1B31507  36.193  10.286   8.772
 2315POPC   C2B31508  36.323  10.254   8.365
 2315POPC   C3B31509  36.172  10.432   7.998
 2315POPC   C4B31510  36.161  10.287   7.601
 2316POPC   NC331511   6.235  39.789   9.748
 2316POPC   PO431512   5.688  40.265   9.519
 2316POPC   GL131513   5.831  40.070   9.188
 2316POPC   GL231514   5.775  40.359   8.996
 2316POPC   C1A31515   5.818  39.918   8.780
 2316POPC   D2A31516   5.683  40.064   8.382
 2316POPC   C3A31517   5.985  39.922   8.108
 2316POPC   C4A31518   6.014  39.730   7.730
 2316POPC   C1B31519   6.101  40.335   8.638
 2316POPC   C2B31520   6.065  40.435   8.186
 2316POPC   C3B31521   5.810  40.306   7.810
 2316POPC   C4B31522   5.697  40.451   7.366
 2317POPC   NC331523  38.929  27.072   9.369
 2317POPC   PO431524  39.393  26.628   9.561
 2317POPC   GL131525  39.324  26.690   9.165
 2317POPC   GL231526  39.021  26.539   9.096
 2317POPC   C1A31527  39.371  26.883   8.775
 2317POPC   D2A31528  39.217  26.827   8.383
 2317POPC   C3A31529  39.481  26.864   8.029
 2317POPC   C4A31530  39.389  27.073   7.633
 2317POPC   C1B31531  38.892  26.438   8.679
 2317POPC   C2B31532  38.814  26.539   8.243
 2317POPC   C3B31533  38.973  26.827   7.927
 2317POPC   C4B31534  39.044  26.664   7.521
 2318POPC   NC331535  34.901  11.077   9.495
 2318POPC   PO431536  34.173  11.080   9.558
 2318POPC   GL131537  34.349  11.317   9.203
 2318POPC   GL231538  34.635  11.110   9.062
 2318POPC   C1A31539  34.453  11.489   8.793
 2318POPC   D2A31540  34.600  11.178   8.499
 2318POPC   C3A31541  34.505  11.263   8.076
 2318POPC   C4A31542  34.244  11.210   7.695
 2318POPC   C1B31543  34.827  10.779   8.804
 2318POPC   C2B31544  34.931  10.756   8.372
 2318POPC   C3B31545  34.924  10.952   7.950
 2318POPC   C4B31546  34.959  10.965   7.473
 2319POPC   NC331547  31.289  24.582   9.562
 2319POPC   PO431548  31.757  24.194   9.368
 2319POPC   GL131549  31.645  24.568   9.123
 2319POPC   GL231550  31.273  24.507   9.037
 2319POPC   C1A31551  31.583  24.787   8.714
 2319POPC   D2A31552  31.198  24.676   8.496
 2319POPC   C3A31553  31.221  24.694   8.052
 2319POPC   C4A31554  31.586  24.793   7.789
 2319POPC   C1B31555  31.501  24.280   8.709
 2319POPC   C2B31556  31.752  24.349   8.344
 2319POPC   C3B31557  31.606  24.275   7.938
 2319POPC   C4B31558  31.302  24.372   7.637
 2320POPC   NC331559  40.837  34.936   9.613
 2320POPC   PO431560  40.796  35.556   9.585
 2320POPC   GL131561  40.632  35.446   9.195
 2320POPC   GL231562  40.883  35.224   9.158
 2320POPC   C1A31563  40.566  35.566   8.734
 2320POPC   D2A31564  40.428  35.319   8.343
 2320POPC   C3A31565  40.770  35.224   7.998
 2320POPC   C4A31566  41.057  35.523   7.788
 2320POPC   C1B31567  40.762  35.102   8.706
 2320POPC   C2B31568  41.053  35.013   8.379
 2320POPC   C3B31569  41.075  34.810   7.968
 2320POPC   C4B31570  40.895  34.902   7.529
 2321POPC   NC331571   0.029  40.356   9.499
 2321POPC   PO431572  44.908  41.041   9.540
 2321POPC   GL131573  44.695  40.977   9.166
 2321POPC   GL231574  44.649  40.615   9.155
 2321POPC   C1A31575  44.706  41.034   8.754
 2321POPC   D2A31576   0.019  40.943   8.450
 2321POPC   C3A31577  44.826  40.988   8.063
 2321POPC   C4A31578  44.864  41.283   7.758
 2321POPC   C1B31579  44.868  40.522   8.769
 2321POPC   C2B31580  44.743  40.524   8.331
 2321POPC   C3B31581  44.936  40.532   7.889
 2321POPC   C4B31582  44.691  40.479   7.505
 2322POPC   NC331583  40.940   7.986   9.472
 2322POPC   PO431584  40.447   8.385   9.755
 2322POPC   GL131585  40.550   8.284   9.285
 2322POPC   GL231586  40.567   7.997   9.021
 2322POPC   C1A31587  40.714   8.447   8.881
 2322POPC   D2A31588  40.609   8.233   8.502
 2322POPC   C3A31589  40.705   8.401   8.122
 2322POPC   C4A31590  40.657   8.084   7.799
 2322POPC   C1B31591  40.989   8.009   8.816
 2322POPC   C2B31592  41.113   8.166   8.414
 2322POPC   C3B31593  41.116   8.094   8.005
 2322POPC   C4B31594  41.249   7.737   7.822
 2323POPC   NC331595   1.360  18.740   9.598
 2323POPC   PO431596   0.807  18.747   9.259
 2323POPC   GL131597   1.207  18.915   9.136
 2323POPC   GL231598   1.224  19.278   9.048
 2323POPC   C1A31599   1.479  18.931   8.781
 2323POPC   D2A31600   1.298  18.942   8.384
 2323POPC   C3A31601   1.480  18.953   7.991
 2323POPC   C4A31602   1.157  18.726   7.840
 2323POPC   C1B31603   0.958  19.218   8.706
 2323POPC   C2B31604   1.003  19.334   8.286
 2323POPC   C3B31605   1.018  19.288   7.899
 2323POPC   C4B31606   1.334  19.360   7.703
 2324POPC   NC331607  30.777  15.153   9.448
 2324POPC   PO431608  30.452  15.646   9.143
 2324POPC   GL131609  30.755  15.392   9.000
 2324POPC   GL231610  31.054  15.500   9.095
 2324POPC   C1A31611  30.628  15.115   8.716
 2324POPC   D2A31612  30.772  15.037   8.322
 2324POPC   C3A31613  30.416  15.068   8.063
 2324POPC   C4A31614  30.450  15.122   7.656
 2324POPC   C1B31615  31.127  15.624   8.653
 2324POPC   C2B31616  30.878  15.629   8.240
 2324POPC   C3B31617  30.824  15.428   7.814
 2324POPC   C4B31618  30.944  15.550   7.335
 2325POPC   NC331619  27.260   0.692   9.494
 2325POPC   PO431620  26.653   0.617   9.505
 2325POPC   GL131621  26.833   0.453   9.129
 2325POPC   GL231622  26.525   0.272   9.103
 2325POPC   C1A31623  26.853   0.274   8.702
 2325POPC   D2A31624  26.750   0.123   8.277
 2325POPC   C3A31625  27.050   0.123   7.932
 2325POPC   C4A31626  27.152   0.362   7.555
 2325POPC   C1B31627  26.431   0.556   8.770
 2325POPC   C2B31628  26.619   0.610   8.368
 2325POPC   C3B31629  26.756   0.529   7.973
 2325POPC   C4B31630  26.638   0.413   7.571
 2326POPC   NC331631   6.882  21.317   9.716
 2326POPC   PO431632   6.391  21.649   9.586
 2326POPC   GL131633   6.670  21.440   9.236
 2326POPC   GL231634   6.889  21.148   9.205
 2326POPC   C1A31635   6.813  21.533   8.826
 2326POPC   D2A31636   6.519  21.687   8.531
 2326POPC   C3A31637   6.533  21.616   8.075
 2326POPC   C4A31638   6.341  21.448   7.697
 2326POPC   C1B31639   6.775  21.010   8.753
 2326POPC   C2B31640   6.810  21.259   8.384
 2326POPC   C3B31641   7.045  21.349   8.043
 2326POPC   C4B31642   6.807  21.283   7.701
 2327POPC   NC331643  41.768  39.812   9.441
 2327POPC   PO431644  41.209  40.127   9.560
 2327POPC   GL131645  41.459  40.208   9.188
 2327POPC   GL231646  41.753  40.387   9.094
 2327POPC   C1A31647  41.387  40.062   8.764
 2327POPC   D2A31648  41.489  40.159   8.326
 2327POPC   C3A31649  41.620  39.846   8.002
 2327POPC   C4A31650  41.541  39.793   7.558
 2327POPC   C1B31651  41.888  40.234   8.709
 2327POPC   C2B31652  41.919  40.482   8.336
 2327POPC   C3B31653  41.798  40.351   7.947
 2327POPC   C4B31654  42.018  40.060   7.716
 2328POPC   NC331655  44.016   9.898   9.594
 2328POPC   PO431656  43.583   9.436   9.741
 2328POPC   GL131657  43.574   9.893   9.377
 2328POPC   GL231658  43.428   9.986   9.055
 2328POPC   C1A31659  43.930   9.975   8.959
 2328POPC   D2A31660  44.168   9.802   8.564
 2328POPC   C3A31661  44.104   9.821   8.076
 2328POPC   C4A31662  44.234   9.643   7.645
 2328POPC   C1B31663  43.527   9.852   8.652
 2328POPC   C2B31664  43.695   9.643   8.345
 2328POPC   C3B31665  43.595   9.673   7.943
 2328POPC   C4B31666  43.806   9.903   7.657
 2329POPC   NC331667  44.194  19.279   9.502
 2329POPC   PO431668  43.560  19.065   9.454
 2329POPC   GL131669  43.717  19.203   9.037
 2329POPC   GL231670  44.075  19.107   9.033
 2329POPC   C1A31671  43.859  19.117   8.598
 2329POPC   D2A31672  43.753  18.738   8.353
 2329POPC   C3A31673  43.748  18.919   7.951
 2329POPC   C4A31674  43.939  19.329   7.833
 2329POPC   C1B31675  44.214  18.772   8.684
 2329POPC   C2B31676  44.246  18.872   8.212
 2329POPC   C3B31677  44.226  18.885   7.746
 2329POPC   C4B31678  44.196  18.734   7.325
 2330POPC   NC331679  17.791  42.025   9.290
 2330POPC   PO431680  17.327  41.645   9.671
 2330POPC   GL131681  17.382  41.646   9.252
 2330POPC   GL231682  17.208  41.353   9.143
 2330POPC   C1A31683  17.199  41.782   8.844
 2330POPC   D2A31684  17.390  41.737   8.424
 2330POPC   C3A31685  17.131  41.753   8.058
 2330POPC   C4A31686  17.132  41.929   7.646
 2330POPC   C1B31687  17.488  41.361   8.829
 2330POPC   C2B31688  17.433  41.199   8.461
 2330POPC   C3B31689  17.489  41.363   8.079
 2330POPC   C4B31690  17.593  41.686   7.793
 2331POPC   NC331691  12.503   7.469   9.615
 2331POPC   PO431692  11.827   7.133   9.591
 2331POPC   GL131693  11.874   7.418   9.228
 2331POPC   GL231694  12.229   7.474   9.184
 2331POPC   C1A31695  11.953   7.460   8.766
 2331POPC   D2A31696  11.846   7.226   8.425
 2331POPC   C3A31697  11.979   7.428   8.085
 2331POPC   C4A31698  12.104   7.761   7.799
 2331POPC   C1B31699  12.378   7.213   8.829
 2331POPC   C2B31700  12.361   7.363   8.429
 2331POPC   C3B31701  12.501   7.520   8.056
 2331POPC   C4B31702  12.303   7.300   7.722
 2332POPC   NC331703  42.708  32.949   9.439
 2332POPC   PO431704  42.184  33.324   9.572
 2332POPC   GL131705  42.204  33.110   9.161
 2332POPC   GL231706  42.164  32.749   9.223
 2332POPC   C1A31707  42.278  33.320   8.766
 2332POPC   D2A31708  42.552  33.386   8.440
 2332POPC   C3A31709  42.393  33.308   8.027
 2332POPC   C4A31710  42.366  33.229   7.582
 2332POPC   C1B31711  42.364  32.752   8.807
 2332POPC   C2B31712  42.442  32.863   8.375
 2332POPC   C3B31713  42.305  32.798   7.948
 2332POPC   C4B31714  42.615  32.720   7.612
 2333POPC   NC331715  36.737  26.455   9.422
 2333POPC   PO431716  37.184  26.943   9.459
 2333POPC   GL131717  36.897  26.856   9.126
 2333POPC   GL231718  36.668  27.109   8.987
 2333POPC   C1A31719  36.803  26.693   8.720
 2333POPC   D2A31720  36.720  26.897   8.322
 2333POPC   C3A31721  36.761  26.597   7.967
 2333POPC   C4A31722  36.685  26.342   7.559
 2333POPC   C1B31723  37.045  27.208   8.754
 2333POPC   C2B31724  37.193  27.273   8.339
 2333POPC   C3B31725  37.090  27.007   7.995
 2333POPC   C4B31726  36.752  27.017   7.681
 2334POPC   NC331727  33.403  12.556   9.755
 2334POPC   PO431728  32.826  12.885   9.619
 2334POPC   GL131729  32.967  12.652   9.232
 2334POPC   GL231730  33.311  12.797   9.269
 2334POPC   C1A31731  32.950  12.458   8.790
 2334POPC   D2A31732  33.016  12.661   8.413
 2334POPC   C3A31733  33.143  12.521   8.013
 2334POPC   C4A31734  32.945  12.741   7.686
 2334POPC   C1B31735  33.194  12.915   8.849
 2334POPC   C2B31736  33.161  13.161   8.486
 2334POPC   C3B31737  33.167  13.019   8.085
 2334POPC   C4B31738  33.235  13.148   7.688
 2335POPC   NC331739  37.102   0.172   9.577
 2335POPC   PO431740  36.717   0.798   9.497
 2335POPC   GL131741  36.903   0.520   9.189
 2335POPC   GL231742  37.267   0.455   9.202
 2335POPC   C1A31743  36.726   0.539   8.772
 2335POPC   D2A31744  36.588   0.413   8.370
 2335POPC   C3A31745  36.807   0.638   8.047
 2335POPC   C4A31746  36.931   0.474   7.646
 2335POPC   C1B31747  37.190   0.301   8.811
 2335POPC   C2B31748  37.121   0.486   8.431
 2335POPC   C3B31749  37.216   0.331   8.039
 2335POPC   C4B31750  37.460   0.167   7.710
 2336POPC   NC331751  16.198  23.327   9.427
 2336POPC   PO431752  16.766  22.950   9.592
 2336POPC   GL131753  16.716  22.823   9.158
 2336POPC   GL231754  16.546  23.121   9.109
 2336POPC   C1A31755  16.537  22.795   8.728
 2336POPC   D2A31756  16.681  22.676   8.350
 2336POPC   C3A31757  16.568  22.934   8.088
 2336POPC   C4A31758  16.614  22.985   7.692
 2336POPC   C1B31759  16.571  23.378   8.758
 2336POPC   C2B31760  16.766  23.326   8.362
 2336POPC   C3B31761  16.629  23.440   7.945
 2336POPC   C4B31762  16.916  23.398   7.609
 2337POPC   NC331763  24.832  16.466   9.349
 2337POPC   PO431764  24.355  17.078   9.494
 2337POPC   GL131765  24.457  16.840   9.140
 2337POPC   GL231766  24.345  16.516   9.204
 2337POPC   C1A31767  24.627  16.951   8.731
 2337POPC   D2A31768  24.755  16.872   8.298
 2337POPC   C3A31769  24.549  17.023   7.930
 2337POPC   C4A31770  24.444  16.866   7.531
 2337POPC   C1B31771  24.390  16.446   8.773
 2337POPC   C2B31772  24.288  16.611   8.369
 2337POPC   C3B31773  24.420  16.527   7.944
 2337POPC   C4B31774  24.296  16.377   7.519
 2338POPC   NC331775  24.254   3.955   9.417
 2338POPC   PO431776  24.505   4.508   9.654
 2338POPC   GL131777  24.523   4.373   9.213
 2338POPC   GL231778  24.166   4.308   9.054
 2338POPC   C1A31779  24.575   4.366   8.756
 2338POPC   D2A31780  24.228   4.198   8.487
 2338POPC   C3A31781  24.448   4.069   8.137
 2338POPC   C4A31782  24.731   4.355   7.997
 2338POPC   C1B31783  24.109   4.648   8.741
 2338POPC   C2B31784  24.002   4.650   8.287
 2338POPC   C3B31785  24.173   4.506   7.885
 2338POPC   C4B31786  24.334   4.567   7.449
 2339POPC   NC331787  17.927  27.732   9.563
 2339POPC   PO431788  18.445  27.347   9.798
 2339POPC   GL131789  18.297  27.387   9.339
 2339POPC   GL231790  18.545  27.253   9.153
 2339POPC   C1A31791  18.231  27.610   8.896
 2339POPC   D2A31792  18.317  27.719   8.461
 2339POPC   C3A31793  18.185  27.576   8.104
 2339POPC   C4A31794  17.927  27.707   7.810
 2339POPC   C1B31795  18.600  27.302   8.700
 2339POPC   C2B31796  18.516  27.155   8.269
 2339POPC   C3B31797  18.609  27.363   7.901
 2339POPC   C4B31798  18.533  27.782   7.784
 2340POPC   NC331799   9.884  20.002   9.599
 2340POPC   PO431800   9.369  20.396   9.526
 2340POPC   GL131801   9.646  20.206   9.179
 2340POPC   GL231802   9.686  19.832   9.164
 2340POPC   C1A31803   9.860  20.123   8.769
 2340POPC   D2A31804   9.693  19.875   8.430
 2340POPC   C3A31805   9.713  20.081   8.080
 2340POPC   C4A31806  10.046  19.932   7.853
 2340POPC   C1B31807   9.785  19.545   8.826
 2340POPC   C2B31808   9.983  19.448   8.419
 2340POPC   C3B31809   9.842  19.476   7.996
 2340POPC   C4B31810   9.997  19.542   7.524
 2341POPC   NC331811  33.776  25.137  10.081
 2341POPC   PO431812  34.021  25.262   9.472
 2341POPC   GL131813  33.794  25.177   9.087
 2341POPC   GL231814  33.572  25.467   9.161
 2341POPC   C1A31815  33.623  25.197   8.667
 2341POPC   D2A31816  33.785  25.171   8.248
 2341POPC   C3A31817  33.583  25.152   7.846
 2341POPC   C4A31818  33.836  25.020   7.503
 2341POPC   C1B31819  33.812  25.623   8.828
 2341POPC   C2B31820  33.677  25.640   8.392
 2341POPC   C3B31821  33.740  25.630   7.923
 2341POPC   C4B31822  33.424  25.671   7.574
 2342POPC   NC331823  20.926  21.940   9.580
 2342POPC   PO431824  20.340  22.081   9.897
 2342POPC   GL131825  20.406  22.106   9.405
 2342POPC   GL231826  20.119  21.934   9.223
 2342POPC   C1A31827  20.550  22.185   8.974
 2342POPC   D2A31828  20.618  22.343   8.540
 2342POPC   C3A31829  20.677  22.245   8.088
 2342POPC   C4A31830  20.695  22.372   7.639
 2342POPC   C1B31831  20.224  21.826   8.791
 2342POPC   C2B31832  20.400  21.867   8.379
 2342POPC   C3B31833  20.541  21.765   7.960
 2342POPC   C4B31834  20.351  21.943   7.611
 2343POPC   NC331835  10.804  36.440   9.450
 2343POPC   PO431836  10.421  37.019   9.615
 2343POPC   GL131837  10.472  36.778   9.234
 2343POPC   GL231838  10.170  36.748   9.038
 2343POPC   C1A31839  10.645  36.647   8.835
 2343POPC   D2A31840  10.536  36.782   8.445
 2343POPC   C3A31841  10.612  36.688   7.995
 2343POPC   C4A31842  10.734  37.003   7.651
 2343POPC   C1B31843  10.023  36.911   8.615
 2343POPC   C2B31844  10.127  36.800   8.168
 2343POPC   C3B31845  10.195  36.868   7.716
 2343POPC   C4B31846  10.048  36.593   7.363
 2344POPC   NC331847   3.984  41.967   9.550
 2344POPC   PO431848   3.444  42.413   9.532
 2344POPC   GL131849   3.533  42.405   9.116
 2344POPC   GL231850   3.576  42.049   9.120
 2344POPC   C1A31851   3.712  42.616   8.742
 2344POPC   D2A31852   3.660  42.646   8.313
 2344POPC   C3A31853   3.733  42.329   7.966
 2344POPC   C4A31854   3.672  42.203   7.547
 2344POPC   C1B31855   3.616  42.129   8.679
 2344POPC   C2B31856   3.360  42.194   8.307
 2344POPC   C3B31857   3.283  42.081   7.869
 2344POPC   C4B31858   3.391  41.794   7.525
 2345POPC   NC331859  30.830  18.711   9.445
 2345POPC   PO431860  30.658  19.345   9.467
 2345POPC   GL131861  30.805  19.290   9.076
 2345POPC   GL231862  30.972  18.953   9.015
 2345POPC   C1A31863  30.660  19.458   8.695
 2345POPC   D2A31864  30.566  19.332   8.281
 2345POPC   C3A31865  30.829  19.358   7.935
 2345POPC   C4A31866  30.549  19.206   7.634
 2345POPC   C1B31867  30.746  18.948   8.611
 2345POPC   C2B31868  30.791  18.882   8.146
 2345POPC   C3B31869  30.970  18.867   7.733
 2345POPC   C4B31870  31.124  18.744   7.325
 2346POPC   NC331871  43.671  26.550   9.555
 2346POPC   PO431872  43.966  27.156   9.559
 2346POPC   GL131873  43.846  26.889   9.220
 2346POPC   GL231874  43.583  27.050   9.089
 2346POPC   C1A31875  43.908  26.631   8.840
 2346POPC   D2A31876  43.709  26.693   8.393
 2346POPC   C3A31877  43.954  26.630   7.989
 2346POPC   C4A31878  43.929  26.625   7.512
 2346POPC   C1B31879  43.822  27.113   8.729
 2346POPC   C2B31880  43.737  27.216   8.333
 2346POPC   C3B31881  43.626  27.002   7.990
 2346POPC   C4B31882  43.800  27.117   7.606
 2347POPC   NC331883  42.590  36.132   9.622
 2347POPC   PO431884  42.102  36.638   9.511
 2347POPC   GL131885  42.275  36.305   9.247
 2347POPC   GL231886  41.981  36.243   9.085
 2347POPC   C1A31887  42.591  36.077   8.961
 2347POPC   D2A31888  42.777  35.835   8.619
 2347POPC   C3A31889  42.807  35.953   8.178
 2347POPC   C4A31890  42.732  35.954   7.753
 2347POPC   C1B31891  42.151  36.040   8.694
 2347POPC   C2B31892  42.270  36.087   8.239
 2347POPC   C3B31893  42.230  36.117   7.797
 2347POPC   C4B31894  42.115  36.334   7.379
 2348POPC   NC331895   8.620  30.859   9.599
 2348POPC   PO431896   9.385  30.918   9.423
 2348POPC   GL131897   9.090  30.706   9.126
 2348POPC   GL231898   8.743  30.609   9.147
 2348POPC   C1A31899   8.934  30.805   8.681
 2348POPC   D2A31900   8.768  30.815   8.252
 2348POPC   C3A31901   8.947  30.876   7.836
 2348POPC   C4A31902   9.271  30.871   7.477
 2348POPC   C1B31903   8.809  30.331   8.809
 2348POPC   C2B31904   8.787  30.193   8.406
 2348POPC   C3B31905   8.910  30.351   7.997
 2348POPC   C4B31906   8.969  30.453   7.538
 2349POPC   NC331907  19.230  25.562   9.434
 2349POPC   PO431908  19.002  24.926   9.475
 2349POPC   GL131909  18.969  25.121   9.078
 2349POPC   GL231910  19.305  25.285   8.999
 2349POPC   C1A31911  19.078  25.012   8.644
 2349POPC   D2A31912  19.325  25.268   8.382
 2349POPC   C3A31913  19.099  25.281   8.032
 2349POPC   C4A31914  19.214  25.022   7.698
 2349POPC   C1B31915  19.008  25.528   8.734
 2349POPC   C2B31916  18.846  25.708   8.335
 2349POPC   C3B31917  19.012  25.794   7.921
 2349POPC   C4B31918  19.250  25.529   7.607
 2350POPC   NC331919   8.396  35.079   9.621
 2350POPC   PO431920   8.263  35.713   9.787
 2350POPC   GL131921   8.263  35.469   9.310
 2350POPC   GL231922   8.506  35.238   9.121
 2350POPC   C1A31923   8.148  35.476   8.820
 2350POPC   D2A31924   8.360  35.562   8.392
 2350POPC   C3A31925   8.223  35.352   7.998
 2350POPC   C4A31926   8.176  35.538   7.565
 2350POPC   C1B31927   8.497  35.111   8.647
 2350POPC   C2B31928   8.681  35.124   8.200
 2350POPC   C3B31929   8.611  35.117   7.729
 2350POPC   C4B31930   8.284  35.086   7.390
 2351POPC   NC331931   1.688   8.614   9.537
 2351POPC   PO431932   2.119   9.259   9.466
 2351POPC   GL131933   2.130   8.959   9.156
 2351POPC   GL231934   2.344   8.699   9.261
 2351POPC   C1A31935   1.954   8.948   8.725
 2351POPC   D2A31936   1.713   9.223   8.441
 2351POPC   C3A31937   1.858   9.282   8.044
 2351POPC   C4A31938   2.126   8.985   7.887
 2351POPC   C1B31939   2.417   8.746   8.802
 2351POPC   C2B31940   2.276   8.706   8.367
 2351POPC   C3B31941   2.521   8.668   7.992
 2351POPC   C4B31942   2.391   8.692   7.570
 2352POPC   NC331943  13.796  32.795   9.988
 2352POPC   PO431944  13.383  33.081   9.546
 2352POPC   GL131945  13.488  32.988   9.124
 2352POPC   GL231946  13.187  32.805   9.119
 2352POPC   C1A31947  13.865  33.055   8.876
 2352POPC   D2A31948  14.094  32.895   8.532
 2352POPC   C3A31949  13.816  33.016   8.211
 2352POPC   C4A31950  13.839  33.036   7.753
 2352POPC   C1B31951  13.108  32.973   8.742
 2352POPC   C2B31952  13.318  32.951   8.357
 2352POPC   C3B31953  13.350  32.984   7.920
 2352POPC   C4B31954  13.090  33.135   7.564
 2353POPC   NC331955  29.012  43.531   9.749
 2353POPC   PO431956  29.357  42.911   9.540
 2353POPC   GL131957  29.190  43.014   9.146
 2353POPC   GL231958  28.859  43.160   9.195
 2353POPC   C1A31959  29.162  42.987   8.707
 2353POPC   D2A31960  29.033  43.091   8.307
 2353POPC   C3A31961  29.312  42.914   8.010
 2353POPC   C4A31962  29.441  43.142   7.655
 2353POPC   C1B31963  28.866  43.390   8.783
 2353POPC   C2B31964  28.814  43.606   8.403
 2353POPC   C3B31965  28.721  43.425   8.044
 2353POPC   C4B31966  28.918  43.129   7.766
 2354POPC   NC331967   5.546   5.118   9.591
 2354POPC   PO431968   6.197   5.403   9.538
 2354POPC   GL131969   5.881   5.243   9.221
 2354POPC   GL231970   5.792   4.858   9.196
 2354POPC   C1A31971   5.636   5.194   8.828
 2354POPC   D2A31972   5.793   4.983   8.428
 2354POPC   C3A31973   6.042   5.236   8.137
 2354POPC   C4A31974   6.148   5.239   7.699
 2354POPC   C1B31975   5.578   4.671   8.807
 2354POPC   C2B31976   5.364   4.708   8.394
 2354POPC   C3B31977   5.486   4.875   8.001
 2354POPC   C4B31978   5.505   4.767   7.566
 2355POPC   NC331979  26.874   3.054   9.679
 2355POPC   PO431980  26.847   2.443   9.527
 2355POPC   GL131981  26.974   2.768   9.230
 2355POPC   GL231982  26.951   2.470   8.996
 2355POPC   C1A31983  27.081   2.918   8.801
 2355POPC   D2A31984  27.267   2.573   8.551
 2355POPC   C3A31985  27.102   2.566   8.132
 2355POPC   C4A31986  26.913   2.973   8.091
 2355POPC   C1B31987  26.674   2.611   8.647
 2355POPC   C2B31988  26.463   2.833   8.318
 2355POPC   C3B31989  26.511   2.775   7.871
 2355POPC   C4B31990  26.382   2.608   7.497
 2356POPC   NC331991  26.855  22.552   9.548
 2356POPC   PO431992  26.632  23.255   9.627
 2356POPC   GL131993  26.785  23.001   9.270
 2356POPC   GL231994  26.587  22.753   9.166
 2356POPC   C1A31995  27.009  22.957   8.855
 2356POPC   D2A31996  27.023  22.897   8.397
 2356POPC   C3A31997  26.827  23.001   7.961
 2356POPC   C4A31998  26.826  22.830   7.522
 2356POPC   C1B31999  26.547  22.739   8.761
 2356POPC   C2B32000  26.323  22.534   8.461
 2356POPC   C3B32001  26.384  22.605   8.059
 2356POPC   C4B32002  26.381  22.892   7.716
 2357POPC   NC332003  19.646  36.178   9.380
 2357POPC   PO432004  19.972  35.678   9.588
 2357POPC   GL132005  19.913  35.816   9.159
 2357POPC   GL232006  19.630  35.604   9.107
 2357POPC   C1A32007  19.860  36.178   8.790
 2357POPC   D2A32008  19.819  36.433   8.447
 2357POPC   C3A32009  20.044  36.214   8.136
 2357POPC   C4A32010  19.931  36.256   7.720
 2357POPC   C1B32011  19.659  35.734   8.709
 2357POPC   C2B32012  19.658  35.947   8.350
 2357POPC   C3B32013  19.616  35.816   7.950
 2357POPC   C4B32014  19.751  35.816   7.546
 2358POPC   NC332015   7.317  39.025   9.246
 2358POPC   PO432016   7.161  38.324   9.420
 2358POPC   GL132017   7.423  38.531   9.169
 2358POPC   GL232018   7.138  38.653   8.970
 2358POPC   C1A32019   7.615  38.516   8.799
 2358POPC   D2A32020   7.630  38.231   8.485
 2358POPC   C3A32021   7.550  38.307   8.074
 2358POPC   C4A32022   7.703  38.462   7.721
 2358POPC   C1B32023   7.165  38.289   8.739
 2358POPC   C2B32024   7.127  38.199   8.345
 2358POPC   C3B32025   7.049  38.286   7.956
 2358POPC   C4B32026   7.210  38.519   7.648
 2359POPC   NC332027  14.459  41.351   9.906
 2359POPC   PO432028  14.012  41.784   9.744
 2359POPC   GL132029  14.230  41.504   9.343
 2359POPC   GL232030  13.939  41.393   9.155
 2359POPC   C1A32031  14.524  41.512   8.916
 2359POPC   D2A32032  14.379  41.514   8.433
 2359POPC   C3A32033  14.617  41.663   8.042
 2359POPC   C4A32034  14.662  41.489   7.662
 2359POPC   C1B32035  14.051  41.680   8.813
 2359POPC   C2B32036  14.076  41.944   8.459
 2359POPC   C3B32037  14.110  41.793   8.065
 2359POPC   C4B32038  14.183  41.672   7.664
 2360POPC   NC332039   1.814  24.096   9.504
 2360POPC   PO432040   2.014  23.449   9.615
 2360POPC   GL132041   2.005  23.706   9.222
 2360POPC   GL232042   1.661  23.711   9.151
 2360POPC   C1A32043   2.254  23.847   8.829
 2360POPC   D2A32044   2.397  23.672   8.426
 2360POPC   C3A32045   2.343  23.860   8.021
 2360POPC   C4A32046   2.315  23.813   7.566
 2360POPC   C1B32047   1.748  23.909   8.757
 2360POPC   C2B32048   1.564  23.923   8.332
 2360POPC   C3B32049   1.838  23.847   7.977
 2360POPC   C4B32050   2.056  23.431   7.843
 2361POPC   NC332051   2.351  30.763   9.633
 2361POPC   PO432052   1.799  30.468   9.550
 2361POPC   GL132053   1.985  30.738   9.266
 2361POPC   GL232054   2.235  30.467   9.203
 2361POPC   C1A32055   2.160  30.928   8.904
 2361POPC   D2A32056   2.205  30.718   8.502
 2361POPC   C3A32057   1.944  30.859   8.153
 2361POPC   C4A32058   2.066  30.952   7.739
 2361POPC   C1B32059   2.411  30.365   8.802
 2361POPC   C2B32060   2.265  30.226   8.377
 2361POPC   C3B32061   2.145  30.432   7.957
 2361POPC   C4B32062   2.171  30.469   7.498
 2362POPC   NC332063   1.898  41.143   9.319
 2362POPC   PO432064   2.085  41.745   9.561
 2362POPC   GL132065   1.956  41.656   9.201
 2362POPC   GL232066   2.252  41.477   9.114
 2362POPC   C1A32067   1.838  41.546   8.797
 2362POPC   D2A32068   1.709  41.710   8.445
 2362POPC   C3A32069   1.937  41.546   8.129
 2362POPC   C4A32070   1.802  41.296   7.788
 2362POPC   C1B32071   2.299  41.875   8.872
 2362POPC   C2B32072   2.381  41.859   8.418
 2362POPC   C3B32073   2.336  41.880   7.976
 2362POPC   C4B32074   2.066  41.736   7.681
 2363POPC   NC332075  18.503  41.641   9.586
 2363POPC   PO432076  17.838  41.478   9.471
 2363POPC   GL132077  18.174  41.680   9.163
 2363POPC   GL232078  18.548  41.842   9.127
 2363POPC   C1A32079  18.147  41.693   8.724
 2363POPC   D2A32080  17.867  41.473   8.436
 2363POPC   C3A32081  18.004  41.445   8.012
 2363POPC   C4A32082  18.227  41.176   7.738
 2363POPC   C1B32083  18.563  41.424   8.923
 2363POPC   C2B32084  18.440  41.293   8.509
 2363POPC   C3B32085  18.558  41.371   8.079
 2363POPC   C4B32086  18.398  41.678   7.781
 2364POPC   NC332087  21.368  37.217   9.423
 2364POPC   PO432088  21.025  36.621   9.490
 2364POPC   GL132089  21.078  36.895   9.159
 2364POPC   GL232090  21.436  36.897   9.046
 2364POPC   C1A32091  21.067  37.113   8.769
 2364POPC   D2A32092  21.239  36.908   8.423
 2364POPC   C3A32093  21.179  37.128   8.054
 2364POPC   C4A32094  21.171  37.104   7.635
 2364POPC   C1B32095  21.631  37.197   8.771
 2364POPC   C2B32096  21.735  37.068   8.363
 2364POPC   C3B32097  21.613  36.831   8.030
 2364POPC   C4B32098  21.711  37.116   7.737
 2365POPC   NC332099   1.732  32.024   9.301
 2365POPC   PO432100   1.209  32.103   9.689
 2365POPC   GL132101   1.279  32.284   9.282
 2365POPC   GL232102   1.247  31.941   9.136
 2365POPC   C1A32103   1.203  32.364   8.832
 2365POPC   D2A32104   1.156  32.180   8.413
 2365POPC   C3A32105   1.312  32.424   8.079
 2365POPC   C4A32106   1.055  32.384   7.713
 2365POPC   C1B32107   1.469  31.917   8.727
 2365POPC   C2B32108   1.592  31.909   8.311
 2365POPC   C3B32109   1.391  31.951   7.918
 2365POPC   C4B32110   1.505  32.184   7.589
 2366POPC   NC332111  13.034   4.393   9.571
 2366POPC   PO432112  12.419   4.151   9.420
 2366POPC   GL132113  12.752   4.340   9.153
 2366POPC   GL232114  13.067   4.076   9.150
 2366POPC   C1A32115  12.695   4.637   8.779
 2366POPC   D2A32116  12.507   4.520   8.363
 2366POPC   C3A32117  12.656   4.363   7.943
 2366POPC   C4A32118  12.543   4.288   7.511
 2366POPC   C1B32119  12.977   4.214   8.721
 2366POPC   C2B32120  13.052   4.295   8.263
 2366POPC   C3B32121  13.143   4.238   7.801
 2366POPC   C4B32122  13.369   4.348   7.433
 2367POPC   NC332123  28.670  22.636   9.470
 2367POPC   PO432124  27.957  22.722   9.478
 2367POPC   GL132125  28.259  22.793   9.167
 2367POPC   GL232126  28.230  23.134   9.029
 2367POPC   C1A32127  28.471  22.765   8.785
 2367POPC   D2A32128  28.375  23.002   8.406
 2367POPC   C3A32129  28.419  22.800   8.035
 2367POPC   C4A32130  28.183  22.905   7.716
 2367POPC   C1B32131  28.624  23.257   8.772
 2367POPC   C2B32132  28.856  23.161   8.399
 2367POPC   C3B32133  28.706  23.229   7.998
 2367POPC   C4B32134  28.764  22.945   7.667
 2368POPC   NC332135  33.209  44.834   9.578
 2368POPC   PO432136  32.758  44.415   9.312
 2368POPC   GL132137  32.956  44.775   9.079
 2368POPC   GL232138  33.311  44.892   9.101
 2368POPC   C1A32139  32.904  44.737   8.626
 2368POPC   D2A32140  32.715  44.537   8.250
 2368POPC   C3A32141  32.963  44.670   7.906
 2368POPC   C4A32142  32.958  44.614   7.480
 2368POPC   C1B32143  33.282   0.071   8.747
 2368POPC   C2B32144  33.095   0.129   8.343
 2368POPC   C3B32145  33.343  44.999   8.016
 2368POPC   C4B32146  33.284   0.081   7.613
 2369POPC   NC332147  29.333  15.945   9.481
 2369POPC   PO432148  28.806  16.449   9.396
 2369POPC   GL132149  29.021  16.233   9.056
 2369POPC   GL232150  29.093  15.877   9.053
 2369POPC   C1A32151  28.890  16.078   8.643
 2369POPC   D2A32152  29.113  15.937   8.296
 2369POPC   C3A32153  28.980  16.160   7.942
 2369POPC   C4A32154  29.271  16.334   7.657
 2369POPC   C1B32155  29.050  15.589   8.711
 2369POPC   C2B32156  28.755  15.557   8.374
 2369POPC   C3B32157  28.855  15.629   7.953
 2369POPC   C4B32158  29.047  15.793   7.567
 2370POPC   NC332159  43.811  41.273   9.613
 2370POPC   PO432160  43.793  41.988   9.526
 2370POPC   GL132161  44.007  41.780   9.166
 2370POPC   GL232162  43.950  41.383   9.131
 2370POPC   C1A32163  43.989  41.685   8.724
 2370POPC   D2A32164  43.690  41.372   8.502
 2370POPC   C3A32165  43.616  41.421   8.038
 2370POPC   C4A32166  43.754  41.656   7.678
 2370POPC   C1B32167  44.163  41.215   8.753
 2370POPC   C2B32168  44.207  41.378   8.345
 2370POPC   C3B32169  44.360  41.224   7.976
 2370POPC   C4B32170  44.080  41.262   7.656
 2371POPC   NC332171  42.086  14.544   9.445
 2371POPC   PO432172  42.572  14.137   9.450
 2371POPC   GL132173  42.266  14.159   9.137
 2371POPC   GL232174  42.341  14.508   9.011
 2371POPC   C1A32175  42.095  14.178   8.719
 2371POPC   D2A32176  42.278  14.375   8.334
 2371POPC   C3A32177  42.153  14.310   7.895
 2371POPC   C4A32178  42.192  14.544   7.486
 2371POPC   C1B32179  42.626  14.251   8.744
 2371POPC   C2B32180  42.658  14.032   8.361
 2371POPC   C3B32181  42.680  14.292   8.009
 2371POPC   C4B32182  42.591  14.257   7.575
 2372POPC   NC332183   5.458  17.632   9.260
 2372POPC   PO432184   5.976  17.570   9.737
 2372POPC   GL132185   5.897  17.377   9.263
 2372POPC   GL232186   5.850  17.631   8.943
 2372POPC   C1A32187   6.144  17.240   8.854
 2372POPC   D2A32188   6.185  17.380   8.418
 2372POPC   C3A32189   5.912  17.533   8.101
 2372POPC   C4A32190   5.947  17.581   7.638
 2372POPC   C1B32191   5.661  17.450   8.597
 2372POPC   C2B32192   5.451  17.286   8.243
 2372POPC   C3B32193   5.511  17.370   7.812
 2372POPC   C4B32194   5.510  17.572   7.382
 2373POPC   NC332195   3.482  11.439   9.507
 2373POPC   PO432196   3.873  11.173   9.075
 2373POPC   GL132197   3.461  11.252   9.023
 2373POPC   GL232198   3.326  10.993   8.908
 2373POPC   C1A32199   3.391  11.485   8.648
 2373POPC   D2A32200   3.712  11.702   8.397
 2373POPC   C3A32201   3.592  11.606   7.994
 2373POPC   C4A32202   3.492  11.298   7.684
 2373POPC   C1B32203   3.573  10.951   8.532
 2373POPC   C2B32204   3.477  11.150   8.193
 2373POPC   C3B32205   3.092  11.099   8.011
 2373POPC   C4B32206   3.029  11.049   7.598
 2374POPC   NC332207  17.727   1.405   9.351
 2374POPC   PO432208  17.382   0.808   9.415
 2374POPC   GL132209  17.440   1.049   9.077
 2374POPC   GL232210  17.767   0.999   9.033
 2374POPC   C1A32211  17.403   1.289   8.702
 2374POPC   D2A32212  17.268   1.256   8.250
 2374POPC   C3A32213  17.437   1.517   7.873
 2374POPC   C4A32214  17.659   1.688   7.468
 2374POPC   C1B32215  17.929   1.222   8.713
 2374POPC   C2B32216  17.785   1.226   8.330
 2374POPC   C3B32217  17.820   1.181   7.932
 2374POPC   C4B32218  17.490   1.047   7.661
 2375POPC   NC332219   2.482   8.128   9.902
 2375POPC   PO432220   2.677   7.855   9.238
 2375POPC   GL132221   2.531   8.247   9.078
 2375POPC   GL232222   2.786   8.523   9.053
 2375POPC   C1A32223   2.601   8.308   8.643
 2375POPC   D2A32224   2.802   8.328   8.276
 2375POPC   C3A32225   2.603   8.051   7.990
 2375POPC   C4A32226   2.503   8.193   7.608
 2375POPC   C1B32227   3.069   8.514   8.699
 2375POPC   C2B32228   3.239   8.650   8.297
 2375POPC   C3B32229   3.139   8.415   7.903
 2375POPC   C4B32230   3.152   8.439   7.412
 2376POPC   NC332231  32.912  11.073   9.265
 2376POPC   PO432232  33.302  11.552   9.463
 2376POPC   GL132233  33.106  11.561   9.085
 2376POPC   GL232234  33.394  11.681   8.938
 2376POPC   C1A32235  32.968  11.443   8.678
 2376POPC   D2A32236  33.137  11.225   8.358
 2376POPC   C3A32237  33.017  11.246   7.899
 2376POPC   C4A32238  32.891  11.077   7.487
 2376POPC   C1B32239  33.460  11.232   8.808
 2376POPC   C2B32240  33.659  11.135   8.418
 2376POPC   C3B32241  33.512  11.376   8.076
 2376POPC   C4B32242  33.362  11.646   7.806
 2377POPC   NC332243  35.915   6.427   9.530
 2377POPC   PO432244  36.293   7.031   9.523
 2377POPC   GL132245  36.022   6.803   9.194
 2377POPC   GL232246  36.136   6.439   9.086
 2377POPC   C1A32247  35.863   6.721   8.760
 2377POPC   D2A32248  35.638   6.685   8.390
 2377POPC   C3A32249  35.852   6.584   8.020
 2377POPC   C4A32250  36.169   6.732   7.812
 2377POPC   C1B32251  36.270   6.345   8.664
 2377POPC   C2B32252  36.328   6.492   8.239
 2377POPC   C3B32253  36.515   6.343   7.857
 2377POPC   C4B32254  36.782   6.338   7.481
 2378POPC   NC332255   3.752  36.808   9.382
 2378POPC   PO432256   4.377  37.134   9.535
 2378POPC   GL132257   4.245  36.878   9.213
 2378POPC   GL232258   4.108  37.104   8.989
 2378POPC   C1A32259   4.148  36.638   8.833
 2378POPC   D2A32260   4.171  36.882   8.437
 2378POPC   C3A32261   4.211  36.680   8.054
 2378POPC   C4A32262   4.329  36.602   7.666
 2378POPC   C1B32263   4.536  36.945   8.792
 2378POPC   C2B32264   4.684  37.049   8.360
 2378POPC   C3B32265   4.619  36.969   7.922
 2378POPC   C4B32266   4.654  37.339   7.614
 2379POPC   NC332267  16.922  20.967   9.583
 2379POPC   PO432268  16.585  20.296   9.453
 2379POPC   GL132269  16.683  20.654   9.204
 2379POPC   GL232270  17.027  20.691   9.147
 2379POPC   C1A32271  16.659  20.836   8.776
 2379POPC   D2A32272  16.689  20.626   8.321
 2379POPC   C3A32273  16.736  20.886   7.909
 2379POPC   C4A32274  16.583  20.916   7.435
 2379POPC   C1B32275  17.087  20.547   8.710
 2379POPC   C2B32276  17.187  20.375   8.290
 2379POPC   C3B32277  17.064  20.449   7.871
 2379POPC   C4B32278  16.680  20.441   7.644
 2380POPC   NC332279   8.182  16.233   9.488
 2380POPC   PO432280   7.969  15.636   9.322
 2380POPC   GL132281   8.130  15.905   9.012
 2380POPC   GL232282   8.448  16.005   9.127
 2380POPC   C1A32283   8.291  15.859   8.582
 2380POPC   D2A32284   8.301  15.982   8.141
 2380POPC   C3A32285   8.334  15.621   7.882
 2380POPC   C4A32286   8.279  15.685   7.423
 2380POPC   C1B32287   8.479  16.301   8.829
 2380POPC   C2B32288   8.386  16.507   8.449
 2380POPC   C3B32289   8.558  16.455   8.022
 2380POPC   C4B32290   8.341  16.434   7.629
 2381POPC   NC332291  31.988   3.050   9.578
 2381POPC   PO432292  31.307   2.712   9.605
 2381POPC   GL132293  31.460   2.720   9.204
 2381POPC   GL232294  31.791   2.665   9.272
 2381POPC   C1A32295  31.346   2.897   8.812
 2381POPC   D2A32296  31.102   3.004   8.446
 2381POPC   C3A32297  31.244   2.817   8.064
 2381POPC   C4A32298  31.325   2.660   7.645
 2381POPC   C1B32299  31.836   2.644   8.819
 2381POPC   C2B32300  31.647   2.711   8.399
 2381POPC   C3B32301  31.742   2.719   7.946
 2381POPC   C4B32302  31.837   2.586   7.518
 2382POPC   NC332303  10.911   4.587   9.648
 2382POPC   PO432304  11.473   4.774   9.572
 2382POPC   GL132305  11.363   4.445   9.293
 2382POPC   GL232306  11.657   4.540   9.128
 2382POPC   C1A32307  11.060   4.381   8.947
 2382POPC   D2A32308  10.807   4.451   8.558
 2382POPC   C3A32309  10.864   4.614   8.159
 2382POPC   C4A32310  10.876   4.431   7.745
 2382POPC   C1B32311  11.588   4.262   8.816
 2382POPC   C2B32312  11.305   4.350   8.493
 2382POPC   C3B32313  11.259   4.298   8.087
 2382POPC   C4B32314  11.362   4.298   7.682
 2383POPC   NC332315   7.502   1.202   9.400
 2383POPC   PO432316   8.217   1.139   9.641
 2383POPC   GL132317   8.064   1.173   9.248
 2383POPC   GL232318   8.367   0.995   9.148
 2383POPC   C1A32319   8.072   1.199   8.792
 2383POPC   D2A32320   8.088   1.049   8.362
 2383POPC   C3A32321   7.991   1.391   8.090
 2383POPC   C4A32322   8.140   1.233   7.709
 2383POPC   C1B32323   8.489   0.901   8.721
 2383POPC   C2B32324   8.473   0.693   8.315
 2383POPC   C3B32325   8.375   0.804   7.900
 2383POPC   C4B32326   8.413   0.888   7.447
 2384POPC   NC332327  39.518   0.911   9.517
 2384POPC   PO432328  40.092   1.261   9.504
 2384POPC   GL132329  39.940   1.021   9.149
 2384POPC   GL232330  40.268   0.909   9.014
 2384POPC   C1A32331  39.841   1.149   8.704
 2384POPC   D2A32332  39.685   1.282   8.289
 2384POPC   C3A32333  39.809   1.035   7.952
 2384POPC   C4A32334  39.955   1.133   7.552
 2384POPC   C1B32335  40.332   1.220   8.705
 2384POPC   C2B32336  40.208   1.223   8.277
 2384POPC   C3B32337  40.352   1.106   7.888
 2384POPC   C4B32338  40.464   1.316   7.505
 2385POPC   NC332339  44.213  33.320   9.512
 2385POPC   PO432340  44.905  33.256   9.528
 2385POPC   GL132341  44.860  33.214   9.129
 2385POPC   GL232342  44.652  33.511   9.157
 2385POPC   C1A32343  44.793  32.949   8.746
 2385POPC   D2A32344  44.489  32.809   8.422
 2385POPC   C3A32345  44.609  32.932   7.979
 2385POPC   C4A32346   0.050  32.941   7.757
 2385POPC   C1B32347  44.770  33.474   8.719
 2385POPC   C2B32348  44.743  33.273   8.330
 2385POPC   C3B32349  44.731  33.441   7.903
 2385POPC   C4B32350  44.817  33.761   7.605
 2386POPC   NC332351  22.122  38.433   9.631
 2386POPC   PO432352  22.698  38.246   9.350
 2386POPC   GL132353  22.266  38.258   9.179
 2386POPC   GL232354  22.034  38.567   9.150
 2386POPC   C1A32355  22.078  38.180   8.784
 2386POPC   D2A32356  22.040  38.365   8.359
 2386POPC   C3A32357  22.103  38.079   8.009
 2386POPC   C4A32358  21.911  37.984   7.609
 2386POPC   C1B32359  22.361  38.624   8.837
 2386POPC   C2B32360  22.372  38.821   8.441
 2386POPC   C3B32361  22.182  38.774   8.060
 2386POPC   C4B32362  22.200  38.534   7.724
 2387POPC   NC332363  39.684  36.669   9.471
 2387POPC   PO432364  40.090  37.106   9.778
 2387POPC   GL132365  40.060  37.082   9.278
 2387POPC   GL232366  40.125  36.734   9.200
 2387POPC   C1A32367  39.936  37.003   8.806
 2387POPC   D2A32368  40.128  36.902   8.373
 2387POPC   C3A32369  40.079  37.149   7.957
 2387POPC   C4A32370  39.919  37.050   7.494
 2387POPC   C1B32371  40.218  36.568   8.788
 2387POPC   C2B32372  40.176  36.382   8.397
 2387POPC   C3B32373  40.256  36.558   7.995
 2387POPC   C4B32374  40.536  36.475   7.693
 2388POPC   NC332375  38.210  38.778   9.373
 2388POPC   PO432376  38.569  39.370   9.532
 2388POPC   GL132377  38.500  39.153   9.170
 2388POPC   GL232378  38.700  38.860   9.219
 2388POPC   C1A32379  38.289  39.139   8.751
 2388POPC   D2A32380  38.112  39.275   8.351
 2388POPC   C3A32381  38.326  39.387   7.961
 2388POPC   C4A32382  38.317  39.367   7.475
 2388POPC   C1B32383  38.587  38.756   8.813
 2388POPC   C2B32384  38.604  38.953   8.389
 2388POPC   C3B32385  38.513  38.885   7.956
 2388POPC   C4B32386  38.515  38.911   7.497
 2389POPC   NC332387   4.449   8.411   9.643
 2389POPC   PO432388   4.187   7.813   9.713
 2389POPC   GL132389   4.355   7.980   9.320
 2389POPC   GL232390   4.047   8.132   9.216
 2389POPC   C1A32391   4.511   8.103   8.893
 2389POPC   D2A32392   4.297   8.126   8.468
 2389POPC   C3A32393   4.512   8.208   8.065
 2389POPC   C4A32394   4.513   8.063   7.621
 2389POPC   C1B32395   3.855   7.985   8.810
 2389POPC   C2B32396   3.853   7.846   8.377
 2389POPC   C3B32397   3.983   8.098   8.023
 2389POPC   C4B32398   4.010   8.058   7.615
 2390POPC   NC332399  13.540   5.985   9.610
 2390POPC   PO432400  14.119   6.066   9.279
 2390POPC   GL132401  13.733   6.003   9.110
 2390POPC   GL232402  13.384   6.242   9.209
 2390POPC   C1A32403  13.748   5.930   8.631
 2390POPC   D2A32404  13.653   6.183   8.247
 2390POPC   C3A32405  13.742   5.932   7.901
 2390POPC   C4A32406  13.814   5.489   7.889
 2390POPC   C1B32407  13.313   6.001   8.862
 2390POPC   C2B32408  13.271   5.908   8.443
 2390POPC   C3B32409  13.283   5.747   8.040
 2390POPC   C4B32410  13.332   5.865   7.599
 2391POPC   NC332411  41.561   5.313   9.445
 2391POPC   PO432412  41.469   6.058   9.544
 2391POPC   GL132413  41.437   6.015   9.148
 2391POPC   GL232414  41.417   5.673   9.093
 2391POPC   C1A32415  41.571   6.200   8.783
 2391POPC   D2A32416  41.859   6.027   8.529
 2391POPC   C3A32417  41.623   5.830   8.249
 2391POPC   C4A32418  41.579   5.956   7.842
 2391POPC   C1B32419  41.205   5.833   8.715
 2391POPC   C2B32420  41.175   6.123   8.371
 2391POPC   C3B32421  41.136   5.842   8.047
 2391POPC   C4B32422  41.444   5.487   7.897
 2392POPC   NC332423   3.534  34.188   9.598
 2392POPC   PO432424   3.377  34.784   9.577
 2392POPC   GL132425   3.565  34.550   9.225
 2392POPC   GL232426   3.277  34.391   9.205
 2392POPC   C1A32427   3.515  34.657   8.781
 2392POPC   D2A32428   3.680  34.590   8.353
 2392POPC   C3A32429   3.585  34.767   7.933
 2392POPC   C4A32430   3.774  34.582   7.554
 2392POPC   C1B32431   3.224  34.233   8.830
 2392POPC   C2B32432   3.171  34.433   8.456
 2392POPC   C3B32433   3.317  34.353   8.086
 2392POPC   C4B32434   3.346  34.337   7.700
 2393POPC   NC332435  25.637  26.607   9.504
 2393POPC   PO432436  26.346  26.684   9.629
 2393POPC   GL132437  26.087  26.686   9.265
 2393POPC   GL232438  26.002  27.002   9.117
 2393POPC   C1A32439  26.200  26.605   8.812
 2393POPC   D2A32440  26.185  26.357   8.395
 2393POPC   C3A32441  26.058  26.554   7.987
 2393POPC   C4A32442  26.246  26.675   7.575
 2393POPC   C1B32443  25.982  27.093   8.708
 2393POPC   C2B32444  26.217  26.917   8.360
 2393POPC   C3B32445  26.108  27.047   7.922
 2393POPC   C4B32446  25.870  27.340   7.752
 2394POPC   NC332447   1.082   0.283   9.628
 2394POPC   PO432448   1.626   0.624   9.556
 2394POPC   GL132449   1.351   0.425   9.209
 2394POPC   GL232450   0.973   0.442   9.147
 2394POPC   C1A32451   1.462   0.302   8.783
 2394POPC   D2A32452   1.659   0.527   8.422
 2394POPC   C3A32453   1.449   0.505   8.019
 2394POPC   C4A32454   1.309   0.183   7.754
 2394POPC   C1B32455   1.118   0.683   8.778
 2394POPC   C2B32456   1.033   0.604   8.322
 2394POPC   C3B32457   0.930   0.532   7.871
 2394POPC   C4B32458   0.914   0.767   7.464
 2395POPC   NC332459  39.368  37.532   9.383
 2395POPC   PO432460  38.723  37.251   9.348
 2395POPC   GL132461  38.960  37.549   9.044
 2395POPC   GL232462  39.275  37.824   8.986
 2395POPC   C1A32463  39.245  37.422   8.712
 2395POPC   D2A32464  39.386  37.602   8.339
 2395POPC   C3A32465  39.210  37.318   8.043
 2395POPC   C4A32466  38.825  37.264   7.847
 2395POPC   C1B32467  38.985  37.895   8.645
 2395POPC   C2B32468  39.084  38.137   8.282
 2395POPC   C3B32469  39.306  37.955   7.954
 2395POPC   C4B32470  39.562  37.610   7.835
 2396POPC   NC332471  10.726   7.084   9.351
 2396POPC   PO432472  10.310   6.684   9.750
 2396POPC   GL132473  10.418   6.639   9.312
 2396POPC   GL232474  10.250   6.947   9.215
 2396POPC   C1A32475  10.606   6.562   8.882
 2396POPC   D2A32476  10.771   6.573   8.435
 2396POPC   C3A32477  10.599   6.364   8.090
 2396POPC   C4A32478  10.197   6.475   7.933
 2396POPC   C1B32479  10.364   7.020   8.792
 2396POPC   C2B32480  10.317   6.784   8.435
 2396POPC   C3B32481  10.486   6.884   8.060
 2396POPC   C4B32482  10.302   6.886   7.649
 2397POPC   NC332483   6.475   4.936   9.483
 2397POPC   PO432484   7.081   5.110   9.710
 2397POPC   GL132485   6.867   5.123   9.256
 2397POPC   GL232486   6.607   5.367   9.190
 2397POPC   C1A32487   6.809   5.012   8.809
 2397POPC   D2A32488   6.731   4.799   8.377
 2397POPC   C3A32489   6.492   4.971   8.003
 2397POPC   C4A32490   6.673   5.149   7.599
 2397POPC   C1B32491   6.771   5.528   8.796
 2397POPC   C2B32492   6.687   5.337   8.410
 2397POPC   C3B32493   6.878   5.305   8.042
 2397POPC   C4B32494   6.885   5.604   7.735
 2398POPC   NC332495  12.922  24.267   9.314
 2398POPC   PO432496  13.098  24.939   9.329
 2398POPC   GL132497  12.894  24.729   9.095
 2398POPC   GL232498  12.547  24.719   9.189
 2398POPC   C1A32499  12.987  24.727   8.687
 2398POPC   D2A32500  12.751  24.739   8.347
 2398POPC   C3A32501  12.936  24.758   7.938
 2398POPC   C4A32502  12.909  24.593   7.523
 2398POPC   C1B32503  12.555  24.449   8.803
 2398POPC   C2B32504  12.533  24.286   8.382
 2398POPC   C3B32505  12.565  24.386   7.915
 2398POPC   C4B32506  12.392  24.326   7.494
 2399POPC   NC332507  32.866  16.429   9.422
 2399POPC   PO432508  33.303  16.889   9.557
 2399POPC   GL132509  33.187  16.726   9.174
 2399POPC   GL232510  32.970  16.981   9.048
 2399POPC   C1A32511  33.055  16.518   8.802
 2399POPC   D2A32512  33.045  16.429   8.393
 2399POPC   C3A32513  32.809  16.593   8.062
 2399POPC   C4A32514  32.955  16.630   7.654
 2399POPC   C1B32515  32.781  16.892   8.602
 2399POPC   C2B32516  32.712  17.077   8.199
 2399POPC   C3B32517  32.982  17.083   7.860
 2399POPC   C4B32518  33.457  17.126   7.885
 2400POPC   NC332519  15.500  26.739   9.651
 2400POPC   PO432520  15.017  27.166   9.628
 2400POPC   GL132521  15.103  26.802   9.259
 2400POPC   GL232522  15.447  26.635   9.141
 2400POPC   C1A32523  15.087  26.689   8.773
 2400POPC   D2A32524  14.959  26.561   8.322
 2400POPC   C3A32525  14.949  26.818   7.898
 2400POPC   C4A32526  15.069  27.240   7.725
 2400POPC   C1B32527  15.531  26.403   8.725
 2400POPC   C2B32528  15.483  26.551   8.285
 2400POPC   C3B32529  15.283  26.419   7.884
 2400POPC   C4B32530  15.299  26.569   7.437
 2401POPC   NC332531  30.141  11.680   9.438
 2401POPC   PO432532  29.740  12.138   9.763
 2401POPC   GL132533  29.655  12.133   9.296
 2401POPC   GL232534  30.007  12.103   9.122
 2401POPC   C1A32535  29.609  12.142   8.816
 2401POPC   D2A32536  29.890  11.872   8.562
 2401POPC   C3A32537  29.895  11.828   8.100
 2401POPC   C4A32538  29.856  11.901   7.644
 2401POPC   C1B32539  30.063  12.364   8.701
 2401POPC   C2B32540  30.045  12.291   8.251
 2401POPC   C3B32541  30.284  12.096   7.900
 2401POPC   C4B32542  30.474  12.392   7.702
 2402POPC   NC332543  15.522  31.765   9.572
 2402POPC   PO432544  15.867  32.342   9.802
 2402POPC   GL132545  15.918  32.473   9.292
 2402POPC   GL232546  15.957  32.117   9.163
 2402POPC   C1A32547  15.940  32.488   8.820
 2402POPC   D2A32548  16.060  32.238   8.453
 2402POPC   C3A32549  16.095  32.530   8.123
 2402POPC   C4A32550  15.886  32.527   7.747
 2402POPC   C1B32551  15.714  32.022   8.778
 2402POPC   C2B32552  15.681  31.848   8.352
 2402POPC   C3B32553  15.831  32.070   7.985
 2402POPC   C4B32554  15.784  32.055   7.530
 2403POPC   NC332555  31.942  31.218   9.944
 2403POPC   PO432556  32.337  31.599   9.492
 2403POPC   GL132557  32.278  31.434   9.120
 2403POPC   GL232558  32.074  31.150   9.150
 2403POPC   C1A32559  32.234  31.626   8.753
 2403POPC   D2A32560  32.469  31.456   8.460
 2403POPC   C3A32561  32.348  31.550   8.092
 2403POPC   C4A32562  32.470  31.590   7.735
 2403POPC   C1B32563  32.130  31.130   8.691
 2403POPC   C2B32564  32.068  31.154   8.232
 2403POPC   C3B32565  32.120  31.199   7.761
 2403POPC   C4B32566  32.052  31.109   7.272
 2404POPC   NC332567   1.118   1.819   9.672
 2404POPC   PO432568   1.670   2.122   9.565
 2404POPC   GL132569   1.316   2.098   9.259
 2404POPC   GL232570   1.248   1.758   9.192
 2404POPC   C1A32571   1.242   2.098   8.796
 2404POPC   D2A32572   1.446   2.229   8.394
 2404POPC   C3A32573   1.191   2.180   8.026
 2404POPC   C4A32574   1.292   1.957   7.655
 2404POPC   C1B32575   1.415   1.577   8.833
 2404POPC   C2B32576   1.345   1.633   8.416
 2404POPC   C3B32577   1.412   1.373   8.080
 2404POPC   C4B32578   1.363   1.443   7.659
 2405POPC   NC332579  40.516  24.777   9.493
 2405POPC   PO432580  39.914  24.371   9.468
 2405POPC   GL132581  40.211  24.491   9.180
 2405POPC   GL232582  40.098  24.807   9.185
 2405POPC   C1A32583  40.412  24.630   8.815
 2405POPC   D2A32584  40.454  24.790   8.413
 2405POPC   C3A32585  40.350  24.492   8.101
 2405POPC   C4A32586  40.225  24.576   7.693
 2405POPC   C1B32587  39.844  24.623   8.848
 2405POPC   C2B32588  39.959  24.524   8.435
 2405POPC   C3B32589  39.826  24.621   8.025
 2405POPC   C4B32590  39.571  24.936   7.817
 2406POPC   NC332591  19.008  10.000   9.623
 2406POPC   PO432592  19.267  10.578   9.545
 2406POPC   GL132593  18.994  10.596   9.220
 2406POPC   GL232594  19.110  10.300   9.089
 2406POPC   C1A32595  18.967  10.735   8.805
 2406POPC   D2A32596  18.889  10.548   8.414
 2406POPC   C3A32597  18.893  10.765   8.038
 2406POPC   C4A32598  18.899  10.525   7.705
 2406POPC   C1B32599  19.332  10.399   8.689
 2406POPC   C2B32600  19.367  10.376   8.224
 2406POPC   C3B32601  19.260  10.163   7.853
 2406POPC   C4B32602  19.100  10.153   7.430
 2407POPC   NC332603   7.410  22.952   9.619
 2407POPC   PO432604   7.783  22.405   9.448
 2407POPC   GL132605   7.475  22.652   9.187
 2407POPC   GL232606   7.391  23.040   9.121
 2407POPC   C1A32607   7.481  22.672   8.747
 2407POPC   D2A32608   7.694  22.712   8.349
 2407POPC   C3A32609   7.477  22.697   7.941
 2407POPC   C4A32610   7.488  23.006   7.585
 2407POPC   C1B32611   7.164  23.064   8.743
 2407POPC   C2B32612   7.165  22.897   8.340
 2407POPC   C3B32613   7.182  23.110   7.963
 2407POPC   C4B32614   7.013  23.236   7.566
 2408POPC   NC332615   5.312  29.534   9.778
 2408POPC   PO432616   5.185  30.237   9.697
 2408POPC   GL132617   5.052  30.094   9.281
 2408POPC   GL232618   5.335  29.946   9.129
 2408POPC   C1A32619   4.815  29.839   8.933
 2408POPC   D2A32620   4.630  29.766   8.487
 2408POPC   C3A32621   4.889  29.819   8.076
 2408POPC   C4A32622   5.016  29.685   7.636
 2408POPC   C1B32623   5.170  30.200   8.776
 2408POPC   C2B32624   5.046  30.254   8.323
 2408POPC   C3B32625   4.972  30.277   7.839
 2408POPC   C4B32626   5.061  30.412   7.369
 2409POPC   NC332627  33.389  10.322   9.173
 2409POPC   PO432628  33.969  10.183   9.549
 2409POPC   GL132629  33.918  10.182   9.106
 2409POPC   GL232630  33.982  10.548   9.096
 2409POPC   C1A32631  33.759  10.090   8.671
 2409POPC   D2A32632  33.577  10.380   8.343
 2409POPC   C3A32633  33.592  10.427   7.889
 2409POPC   C4A32634  33.990  10.420   7.684
 2409POPC   C1B32635  33.727  10.722   8.740
 2409POPC   C2B32636  33.302  10.767   8.506
 2409POPC   C3B32637  33.387  10.889   8.054
 2409POPC   C4B32638  33.776  10.968   7.823
 2410POPC   NC332639  15.743  28.084   9.520
 2410POPC   PO432640  16.236  28.557   9.627
 2410POPC   GL132641  16.036  28.486   9.243
 2410POPC   GL232642  16.126  28.136   9.173
 2410POPC   C1A32643  16.176  28.514   8.798
 2410POPC   D2A32644  15.843  28.460   8.466
 2410POPC   C3A32645  15.836  28.473   8.011
 2410POPC   C4A32646  16.093  28.753   7.774
 2410POPC   C1B32647  16.023  28.024   8.726
 2410POPC   C2B32648  15.999  28.034   8.237
 2410POPC   C3B32649  15.630  27.990   7.946
 2410POPC   C4B32650  15.529  27.933   7.504
 2411POPC   NC332651  32.128   9.693   9.778
 2411POPC   PO432652  31.807  10.244   9.535
 2411POPC   GL132653  32.112   9.971   9.165
 2411POPC   GL232654  32.235   9.635   9.249
 2411POPC   C1A32655  32.053   9.780   8.728
 2411POPC   D2A32656  32.039   9.649   8.277
 2411POPC   C3A32657  32.269   9.801   7.944
 2411POPC   C4A32658  32.014   9.995   7.629
 2411POPC   C1B32659  32.515   9.577   8.866
 2411POPC   C2B32660  32.436   9.410   8.488
 2411POPC   C3B32661  32.368   9.284   8.074
 2411POPC   C4B32662  32.206   9.336   7.678
 2412POPC   NC332663   6.015  40.650   9.496
 2412POPC   PO432664   5.486  40.935   9.307
 2412POPC   GL132665   5.798  40.869   9.036
 2412POPC   GL232666   6.129  40.729   9.007
 2412POPC   C1A32667   5.755  40.717   8.624
 2412POPC   D2A32668   5.537  40.552   8.280
 2412POPC   C3A32669   5.725  40.773   7.962
 2412POPC   C4A32670   5.778  40.941   7.547
 2412POPC   C1B32671   6.142  41.093   8.742
 2412POPC   C2B32672   6.031  41.037   8.333
 2412POPC   C3B32673   6.226  40.918   7.988
 2412POPC   C4B32674   6.220  41.171   7.648
 2413POPC   NC332675   0.145  39.215   9.862
 2413POPC   PO432676  44.563  39.190   9.525
 2413POPC   GL132677  44.654  39.130   9.112
 2413POPC   GL232678  44.568  39.446   9.066
 2413POPC   C1A32679  44.387  38.958   8.766
 2413POPC   D2A32680  44.164  39.096   8.370
 2413POPC   C3A32681  44.481  39.302   8.129
 2413POPC   C4A32682  44.916  39.203   7.960
 2413POPC   C1B32683  44.650  39.410   8.649
 2413POPC   C2B32684  44.889  39.565   8.331
 2413POPC   C3B32685  44.747  39.684   7.938
 2413POPC   C4B32686  44.573  39.474   7.579
 2414POPC   NC332687  15.065  23.598   9.902
 2414POPC   PO432688  14.427  23.534   9.616
 2414POPC   GL132689  14.399  23.632   9.170
 2414POPC   GL232690  14.120  23.857   9.109
 2414POPC   C1A32691  14.252  23.462   8.762
 2414POPC   D2A32692  14.046  23.474   8.355
 2414POPC   C3A32693  14.222  23.600   7.932
 2414POPC   C4A32694  14.494  23.490   7.545
 2414POPC   C1B32695  14.393  23.950   8.737
 2414POPC   C2B32696  14.510  23.802   8.353
 2414POPC   C3B32697  14.561  23.981   7.956
 2414POPC   C4B32698  14.590  24.220   7.605
 2415POPC   NC332699  28.049   7.992   9.626
 2415POPC   PO432700  28.560   8.319   9.368
 2415POPC   GL132701  28.374   8.207   9.061
 2415POPC   GL232702  28.266   7.920   9.167
 2415POPC   C1A32703  28.443   8.277   8.669
 2415POPC   D2A32704  28.158   8.338   8.384
 2415POPC   C3A32705  28.367   8.330   8.041
 2415POPC   C4A32706  28.148   8.461   7.692
 2415POPC   C1B32707  28.440   7.763   8.806
 2415POPC   C2B32708  28.423   7.850   8.394
 2415POPC   C3B32709  28.151   7.867   8.104
 2415POPC   C4B32710  28.265   7.949   7.698
 2416POPC   NC332711  44.854  41.523   9.493
 2416POPC   PO432712  44.262  41.251   9.523
 2416POPC   GL132713  44.462  41.432   9.145
 2416POPC   GL232714  44.524  41.781   9.169
 2416POPC   C1A32715  44.531  41.566   8.710
 2416POPC   D2A32716  44.720  41.386   8.359
 2416POPC   C3A32717  44.641  41.648   8.042
 2416POPC   C4A32718  44.335  41.698   7.749
 2416POPC   C1B32719  44.881  41.904   8.880
 2416POPC   C2B32720  44.905  41.894   8.415
 2416POPC   C3B32721  44.942  42.052   7.956
 2416POPC   C4B32722  44.830  41.792   7.574
 2417POPC   NC332723  20.234   5.500  10.036
 2417POPC   PO432724  20.681   5.134   9.646
 2417POPC   GL132725  20.576   5.133   9.196
 2417POPC   GL232726  20.842   5.379   9.098
 2417POPC   C1A32727  20.464   4.847   8.837
 2417POPC   D2A32728  20.597   4.847   8.389
 2417POPC   C3A32729  20.330   4.992   8.073
 2417POPC   C4A32730  20.375   5.030   7.658
 2417POPC   C1B32731  20.647   5.325   8.702
 2417POPC   C2B32732  20.587   5.406   8.291
 2417POPC   C3B32733  20.762   5.259   7.955
 2417POPC   C4B32734  20.760   5.433   7.522
 2418POPC   NC332735  43.290  44.752   9.532
 2418POPC   PO432736  42.803  44.292   9.524
 2418POPC   GL132737  42.948  44.659   9.149
 2418POPC   GL232738  43.241  44.926   9.048
 2418POPC   C1A32739  43.105  44.609   8.679
 2418POPC   D2A32740  42.992  44.336   8.336
 2418POPC   C3A32741  42.756  44.535   8.028
 2418POPC   C4A32742  42.956  44.586   7.658
 2418POPC   C1B32743  42.844   0.033   8.776
 2418POPC   C2B32744  42.875  44.949   8.333
 2418POPC   C3B32745  43.204  44.781   8.089
 2418POPC   C4B32746  43.324  44.927   7.706
 2419POPC   NC332747  12.810  41.182   9.417
 2419POPC   PO432748  12.894  40.478   9.498
 2419POPC   GL132749  12.988  40.725   9.168
 2419POPC   GL232750  13.269  40.934   9.271
 2419POPC   C1A32751  12.785  40.723   8.775
 2419POPC   D2A32752  12.709  40.450   8.421
 2419POPC   C3A32753  12.679  40.736   8.069
 2419POPC   C4A32754  12.631  40.701   7.611
 2419POPC   C1B32755  13.253  41.019   8.830
 2419POPC   C2B32756  12.999  41.080   8.477
 2419POPC   C3B32757  13.155  40.918   8.118
 2419POPC   C4B32758  13.041  41.046   7.727
 2420POPC   NC332759  28.591  41.963   9.371
 2420POPC   PO432760  28.231  42.476   9.667
 2420POPC   GL132761  28.346  42.421   9.260
 2420POPC   GL232762  28.032  42.373   9.173
 2420POPC   C1A32763  28.462  42.382   8.845
 2420POPC   D2A32764  28.335  42.452   8.459
 2420POPC   C3A32765  28.633  42.409   8.189
 2420POPC   C4A32766  28.540  42.559   7.789
 2420POPC   C1B32767  27.954  42.222   8.731
 2420POPC   C2B32768  28.185  41.979   8.406
 2420POPC   C3B32769  28.245  42.114   8.004
 2420POPC   C4B32770  28.214  42.243   7.588
 2421POPC   NC332771   2.044  29.973   9.473
 2421POPC   PO432772   1.496  29.527   9.398
 2421POPC   GL132773   1.931  29.593   9.135
 2421POPC   GL232774   2.087  29.945   8.986
 2421POPC   C1A32775   2.107  29.534   8.713
 2421POPC   D2A32776   1.976  29.798   8.382
 2421POPC   C3A32777   2.097  29.570   8.032
 2421POPC   C4A32778   1.993  29.488   7.661
 2421POPC   C1B32779   1.905  30.309   8.797
 2421POPC   C2B32780   1.796  30.438   8.394
 2421POPC   C3B32781   1.647  30.260   8.031
 2421POPC   C4B32782   1.907  29.996   7.897
 2422POPC   NC332783  27.082  15.803   9.654
 2422POPC   PO432784  27.786  16.011   9.579
 2422POPC   GL132785  27.626  15.930   9.166
 2422POPC   GL232786  27.260  15.987   9.165
 2422POPC   C1A32787  27.665  15.834   8.718
 2422POPC   D2A32788  27.471  15.659   8.343
 2422POPC   C3A32789  27.607  15.826   7.939
 2422POPC   C4A32790  27.967  16.026   7.786
 2422POPC   C1B32791  27.362  16.241   8.815
 2422POPC   C2B32792  27.526  16.247   8.398
 2422POPC   C3B32793  27.374  16.313   7.984
 2422POPC   C4B32794  27.376  16.134   7.571
 2423POPC   NC332795   8.122  32.583   9.453
 2423POPC   PO432796   8.165  31.928   9.523
 2423POPC   GL132797   8.002  32.154   9.190
 2423POPC   GL232798   8.354  32.235   9.082
 2423POPC   C1A32799   7.927  32.425   8.830
 2423POPC   D2A32800   8.213  32.387   8.518
 2423POPC   C3A32801   8.004  32.405   8.118
 2423POPC   C4A32802   7.903  32.145   7.775
 2423POPC   C1B32803   8.608  32.566   8.869
 2423POPC   C2B32804   8.569  32.737   8.450
 2423POPC   C3B32805   8.496  32.533   8.093
 2423POPC   C4B32806   8.308  32.476   7.679
 2424POPC   NC332807  38.296   4.901   9.854
 2424POPC   PO432808  38.652   5.312   9.469
 2424POPC   GL132809  38.443   5.249   9.127
 2424POPC   GL232810  38.259   4.964   9.214
 2424POPC   C1A32811  38.517   5.219   8.699
 2424POPC   D2A32812  38.315   5.328   8.307
 2424POPC   C3A32813  38.476   5.160   7.928
 2424POPC   C4A32814  38.474   5.320   7.520
 2424POPC   C1B32815  38.173   4.829   8.784
 2424POPC   C2B32816  38.321   4.811   8.350
 2424POPC   C3B32817  38.083   4.832   7.968
 2424POPC   C4B32818  38.221   4.873   7.534
 2425POPC   NC332819  16.488  12.553   9.584
 2425POPC   PO432820  17.052  13.019   9.629
 2425POPC   GL132821  16.726  12.907   9.296
 2425POPC   GL232822  16.720  12.540   9.155
 2425POPC   C1A32823  16.524  12.977   8.911
 2425POPC   D2A32824  16.552  12.751   8.516
 2425POPC   C3A32825  16.567  12.962   8.128
 2425POPC   C4A32826  16.504  12.878   7.720
 2425POPC   C1B32827  16.675  12.330   8.785
 2425POPC   C2B32828  16.791  12.320   8.380
 2425POPC   C3B32829  16.796  12.523   8.013
 2425POPC   C4B32830  16.948  12.640   7.632
 2426POPC   NC332831  44.151   4.787   9.432
 2426POPC   PO432832  44.073   5.447   9.325
 2426POPC   GL132833  43.764   5.356   9.031
 2426POPC   GL232834  43.780   4.996   9.100
 2426POPC   C1A32835  43.683   5.203   8.630
 2426POPC   D2A32836  43.971   5.187   8.298
 2426POPC   C3A32837  43.885   5.302   7.861
 2426POPC   C4A32838  43.582   5.235   7.517
 2426POPC   C1B32839  44.130   4.927   8.787
 2426POPC   C2B32840  44.197   4.723   8.381
 2426POPC   C3B32841  44.129   4.843   7.954
 2426POPC   C4B32842  43.942   4.877   7.564
 2427POPC   NC332843   2.588  29.242   9.516
 2427POPC   PO432844   3.244  29.114   9.388
 2427POPC   GL132845   2.852  29.160   9.059
 2427POPC   GL232846   2.463  29.337   9.047
 2427POPC   C1A32847   2.767  28.874   8.654
 2427POPC   D2A32848   2.586  28.827   8.218
 2427POPC   C3A32849   2.814  28.958   7.854
 2427POPC   C4A32850   2.903  29.082   7.409
 2427POPC   C1B32851   2.650  29.376   8.662
 2427POPC   C2B32852   2.813  29.285   8.282
 2427POPC   C3B32853   2.704  29.457   7.907
 2427POPC   C4B32854   2.484  29.608   7.620
 2428POPC   NC332855   1.492  19.761   9.665
 2428POPC   PO432856   2.109  19.697   9.449
 2428POPC   GL132857   1.803  19.834   9.160
 2428POPC   GL232858   1.744  19.522   9.001
 2428POPC   C1A32859   1.885  19.995   8.752
 2428POPC   D2A32860   1.832  19.735   8.380
 2428POPC   C3A32861   1.911  19.893   7.966
 2428POPC   C4A32862   2.110  19.797   7.540
 2428POPC   C1B32863   2.171  19.589   8.759
 2428POPC   C2B32864   2.304  19.507   8.323
 2428POPC   C3B32865   2.241  19.436   7.866
 2428POPC   C4B32866   2.237  19.328   7.356
 2429POPC   NC332867  10.719  26.455   9.655
 2429POPC   PO432868  10.283  26.879   9.720
 2429POPC   GL132869  10.451  26.718   9.275
 2429POPC   GL232870  10.635  26.935   9.047
 2429POPC   C1A32871  10.349  26.641   8.796
 2429POPC   D2A32872  10.565  26.815   8.411
 2429POPC   C3A32873  10.449  26.627   8.020
 2429POPC   C4A32874  10.153  26.779   7.747
 2429POPC   C1B32875  10.862  26.616   8.788
 2429POPC   C2B32876  10.932  26.484   8.324
 2429POPC   C3B32877  10.935  26.771   7.941
 2429POPC   C4B32878  10.839  26.671   7.502
 2430POPC   NC332879  23.132   7.023   9.770
 2430POPC   PO432880  22.671   7.464   9.670
 2430POPC   GL132881  22.882   7.440   9.228
 2430POPC   GL232882  22.633   7.600   9.064
 2430POPC   C1A32883  22.977   7.497   8.726
 2430POPC   D2A32884  22.796   7.413   8.294
 2430POPC   C3A32885  23.075   7.430   7.904
 2430POPC   C4A32886  23.064   7.432   7.438
 2430POPC   C1B32887  22.641   7.947   8.765
 2430POPC   C2B32888  22.908   7.923   8.405
 2430POPC   C3B32889  22.760   7.820   7.993
 2430POPC   C4B32890  22.688   7.727   7.608
 2431POPC   NC332891  29.438   0.036   9.446
 2431POPC   PO432892  28.953  44.570   9.247
 2431POPC   GL132893  29.316  44.663   9.071
 2431POPC   GL232894  29.455  44.317   9.113
 2431POPC   C1A32895  29.281  44.790   8.649
 2431POPC   D2A32896  29.364  44.642   8.234
 2431POPC   C3A32897  29.172  44.937   7.969
 2431POPC   C4A32898  29.122  44.992   7.548
 2431POPC   C1B32899  29.323  44.287   8.674
 2431POPC   C2B32900  28.949  44.334   8.392
 2431POPC   C3B32901  29.003  44.425   7.934
 2431POPC   C4B32902  29.381  44.545   7.684
 2432POPC   NC332903  42.427  31.189   9.566
 2432POPC   PO432904  42.509  30.520   9.443
 2432POPC   GL132905  42.259  30.665   9.114
 2432POPC   GL232906  42.498  30.937   9.122
 2432POPC   C1A32907  42.197  30.567   8.670
 2432POPC   D2A32908  42.539  30.580   8.348
 2432POPC   C3A32909  42.417  30.362   8.021
 2432POPC   C4A32910  42.439  30.432   7.603
 2432POPC   C1B32911  42.546  30.951   8.706
 2432POPC   C2B32912  42.276  31.018   8.369
 2432POPC   C3B32913  42.360  30.894   7.963
 2432POPC   C4B32914  42.692  31.033   7.808
 2433POPC   NC332915  30.080  18.502   9.566
 2433POPC   PO432916  29.559  18.076   9.468
 2433POPC   GL132917  29.825  18.243   9.167
 2433POPC   GL232918  30.176  18.238   9.158
 2433POPC   C1A32919  29.855  18.604   8.928
 2433POPC   D2A32920  29.837  18.682   8.500
 2433POPC   C3A32921  29.726  18.383   8.185
 2433POPC   C4A32922  29.855  18.560   7.791
 2433POPC   C1B32923  30.299  18.398   8.774
 2433POPC   C2B32924  30.203  18.266   8.372
 2433POPC   C3B32925  30.372  18.362   7.960
 2433POPC   C4B32926  30.274  18.468   7.538
 2434POPC   NC332927   2.110  13.970   9.386
 2434POPC   PO432928   2.189  13.263   9.441
 2434POPC   GL132929   1.966  13.545   9.127
 2434POPC   GL232930   2.202  13.768   8.919
 2434POPC   C1A32931   1.750  13.622   8.743
 2434POPC   D2A32932   1.929  13.888   8.438
 2434POPC   C3A32933   1.863  13.747   8.068
 2434POPC   C4A32934   1.760  13.463   7.777
 2434POPC   C1B32935   2.253  13.315   8.774
 2434POPC   C2B32936   2.352  13.160   8.375
 2434POPC   C3B32937   2.175  13.328   8.062
 2434POPC   C4B32938   2.243  13.616   7.764
 2435POPC   NC332939  26.690  27.885   9.442
 2435POPC   PO432940  26.802  28.422   9.656
 2435POPC   GL132941  26.896  28.511   9.203
 2435POPC   GL232942  26.975  28.179   9.112
 2435POPC   C1A32943  26.953  28.488   8.720
 2435POPC   D2A32944  27.005  28.183   8.358
 2435POPC   C3A32945  26.889  28.350   7.901
 2435POPC   C4A32946  27.040  28.309   7.444
 2435POPC   C1B32947  26.675  28.042   8.766
 2435POPC   C2B32948  26.562  27.886   8.344
 2435POPC   C3B32949  26.515  27.992   7.893
 2435POPC   C4B32950  26.685  27.923   7.467
 2436POPC   NC332951  15.534  32.603   9.587
 2436POPC   PO432952  16.135  32.942   9.530
 2436POPC   GL132953  15.759  33.018   9.242
 2436POPC   GL232954  16.036  32.957   9.038
 2436POPC   C1A32955  15.631  33.043   8.768
 2436POPC   D2A32956  15.796  32.825   8.403
 2436POPC   C3A32957  15.685  32.954   7.958
 2436POPC   C4A32958  15.344  33.224   7.794
 2436POPC   C1B32959  16.294  32.857   8.726
 2436POPC   C2B32960  16.268  33.073   8.365
 2436POPC   C3B32961  16.164  33.087   7.967
 2436POPC   C4B32962  16.345  32.791   7.753
 2437POPC   NC332963   6.827  11.526   9.518
 2437POPC   PO432964   6.749  10.899   9.461
 2437POPC   GL132965   6.668  11.216   9.146
 2437POPC   GL232966   6.372  11.464   9.239
 2437POPC   C1A32967   6.816  11.443   8.769
 2437POPC   D2A32968   6.780  11.690   8.382
 2437POPC   C3A32969   6.915  11.583   7.959
 2437POPC   C4A32970   6.935  11.197   7.735
 2437POPC   C1B32971   6.299  11.287   8.801
 2437POPC   C2B32972   6.280  11.450   8.361
 2437POPC   C3B32973   6.402  11.483   7.918
 2437POPC   C4B32974   6.301  11.571   7.469
 2438POPC   NC332975  40.536  42.126   9.434
 2438POPC   PO432976  40.906  42.571   9.517
 2438POPC   GL132977  40.906  42.403   9.140
 2438POPC   GL232978  40.573  42.516   9.114
 2438POPC   C1A32979  41.110  42.185   8.800
 2438POPC   D2A32980  41.049  41.956   8.407
 2438POPC   C3A32981  40.826  42.229   8.124
 2438POPC   C4A32982  40.836  42.323   7.700
 2438POPC   C1B32983  40.760  42.651   8.712
 2438POPC   C2B32984  40.578  42.667   8.285
 2438POPC   C3B32985  40.407  42.631   7.839
 2438POPC   C4B32986  40.562  42.589   7.367
 2439POPC   NC332987   7.031  29.970   9.308
 2439POPC   PO432988   7.500  29.641   9.687
 2439POPC   GL132989   7.680  29.894   9.318
 2439POPC   GL232990   7.469  30.205   9.218
 2439POPC   C1A32991   7.732  29.981   8.860
 2439POPC   D2A32992   7.487  29.922   8.475
 2439POPC   C3A32993   7.738  29.946   8.129
 2439POPC   C4A32994   7.841  29.875   7.738
 2439POPC   C1B32995   7.366  30.324   8.783
 2439POPC   C2B32996   7.099  30.478   8.429
 2439POPC   C3B32997   7.201  30.396   7.997
 2439POPC   C4B32998   7.368  30.053   7.770
 2440POPC   NC332999  42.478  18.451   9.441
 2440POPC   PO433000  42.152  19.066   9.601
 2440POPC   GL133001  42.281  19.193   9.169
 2440POPC   GL233002  42.636  19.203   9.157
 2440POPC   C1A33003  42.246  19.266   8.729
 2440POPC   D2A33004  42.433  19.113   8.322
 2440POPC   C3A33005  42.109  19.055   8.010
 2440POPC   C4A33006  42.100  19.140   7.560
 2440POPC   C1B33007  42.715  18.997   8.762
 2440POPC   C2B33008  42.954  19.023   8.404
 2440POPC   C3B33009  42.846  18.883   8.017
 2440POPC   C4B33010  42.518  18.950   7.745
 2441POPC   NC333011   2.502  10.866   9.446
 2441POPC   PO433012   3.008  10.447   9.814
 2441POPC   GL133013   2.887  10.398   9.340
 2441POPC   GL233014   3.102  10.590   9.139
 2441POPC   C1A33015   2.620  10.453   8.947
 2441POPC   D2A33016   2.367  10.271   8.613
 2441POPC   C3A33017   2.476  10.302   8.177
 2441POPC   C4A33018   2.593  10.284   7.761
 2441POPC   C1B33019   3.010  10.671   8.689
 2441POPC   C2B33020   3.176  10.644   8.265
 2441POPC   C3B33021   3.070  10.451   7.860
 2441POPC   C4B33022   2.913  10.575   7.419
 2442POPC   NC333023  17.374  30.378   9.548
 2442POPC   PO433024  17.953  30.767   9.633
 2442POPC   GL133025  17.774  30.652   9.218
 2442POPC   GL233026  17.446  30.777   9.218
 2442POPC   C1A33027  17.775  30.863   8.777
 2442POPC   D2A33028  17.589  30.904   8.350
 2442POPC   C3A33029  17.775  30.909   7.967
 2442POPC   C4A33030  17.900  30.480   7.854
 2442POPC   C1B33031  17.410  30.495   8.863
 2442POPC   C2B33032  17.257  30.534   8.441
 2442POPC   C3B33033  17.351  30.602   7.985
 2442POPC   C4B33034  17.151  30.606   7.558
 2443POPC   NC333035   2.910  43.697   9.614
 2443POPC   PO433036   2.630  44.376   9.654
 2443POPC   GL133037   2.796  44.108   9.299
 2443POPC   GL233038   2.750  43.795   9.133
 2443POPC   C1A33039   3.012  44.168   8.877
 2443POPC   D2A33040   3.003  44.302   8.442
 2443POPC   C3A33041   2.850  44.072   8.066
 2443POPC   C4A33042   2.705  43.983   7.660
 2443POPC   C1B33043   2.530  43.596   8.790
 2443POPC   C2B33044   2.654  43.686   8.366
 2443POPC   C3B33045   2.653  43.583   7.951
 2443POPC   C4B33046   2.677  43.494   7.472
 2444POPC   NC333047   3.695   6.814   9.463
 2444POPC   PO433048   3.185   6.355   9.560
 2444POPC   GL133049   3.381   6.495   9.181
 2444POPC   GL233050   3.690   6.358   9.187
 2444POPC   C1A33051   3.541   6.669   8.786
 2444POPC   D2A33052   3.340   6.560   8.401
 2444POPC   C3A33053   3.458   6.663   7.957
 2444POPC   C4A33054   3.346   6.430   7.577
 2444POPC   C1B33055   3.961   6.334   8.831
 2444POPC   C2B33056   3.809   6.372   8.437
 2444POPC   C3B33057   3.759   6.276   8.038
 2444POPC   C4B33058   3.864   6.375   7.622
 2445POPC   NC333059  12.139  31.517   9.841
 2445POPC   PO433060  11.800  30.961   9.503
 2445POPC   GL133061  11.712  31.353   9.195
 2445POPC   GL233062  12.050  31.434   9.213
 2445POPC   C1A33063  11.783  31.782   8.947
 2445POPC   D2A33064  12.081  31.874   8.577
 2445POPC   C3A33065  12.005  31.766   8.119
 2445POPC   C4A33066  11.885  31.503   7.736
 2445POPC   C1B33067  12.031  31.368   8.743
 2445POPC   C2B33068  12.356  31.466   8.407
 2445POPC   C3B33069  12.413  31.486   7.969
 2445POPC   C4B33070  12.243  31.128   7.768
 2446POPC   NC333071  11.591  13.168   9.560
 2446POPC   PO433072  10.907  13.042   9.379
 2446POPC   GL133073  11.302  12.865   9.224
 2446POPC   GL233074  11.117  12.911   8.940
 2446POPC   C1A33075  11.469  12.562   8.891
 2446POPC   D2A33076  11.418  12.757   8.482
 2446POPC   C3A33077  11.199  12.620   8.122
 2446POPC   C4A33078  11.296  12.527   7.679
 2446POPC   C1B33079  10.934  12.901   8.565
 2446POPC   C2B33080  11.175  13.147   8.260
 2446POPC   C3B33081  11.287  13.067   7.836
 2446POPC   C4B33082  10.999  12.976   7.533
 2447POPC   NC333083  36.122  17.381   9.493
 2447POPC   PO433084  36.447  17.882   9.408
 2447POPC   GL133085  36.237  17.634   9.064
 2447POPC   GL233086  36.460  17.361   9.042
 2447POPC   C1A33087  36.055  17.304   8.762
 2447POPC   D2A33088  36.270  17.230   8.359
 2447POPC   C3A33089  36.254  17.346   7.921
 2447POPC   C4A33090  36.281  17.377   7.469
 2447POPC   C1B33091  36.601  17.605   8.682
 2447POPC   C2B33092  36.592  17.692   8.233
 2447POPC   C3B33093  36.609  17.749   7.786
 2447POPC   C4B33094  36.281  17.914   7.501
 2448POPC   NC333095  26.513  20.166   9.527
 2448POPC   PO433096  26.700  20.845   9.613
 2448POPC   GL133097  26.739  20.542   9.233
 2448POPC   GL233098  27.002  20.330   9.149
 2448POPC   C1A33099  26.650  20.508   8.781
 2448POPC   D2A33100  26.834  20.613   8.364
 2448POPC   C3A33101  26.554  20.514   8.078
 2448POPC   C4A33102  26.395  20.719   7.750
 2448POPC   C1B33103  27.153  20.492   8.742
 2448POPC   C2B33104  27.397  20.568   8.371
 2448POPC   C3B33105  27.248  20.600   7.967
 2448POPC   C4B33106  26.898  20.587   7.705
 2449POPC   NC333107  37.862  13.917   9.425
 2449POPC   PO433108  37.286  13.617   9.413
 2449POPC   GL133109  37.580  13.532   9.089
 2449POPC   GL233110  37.888  13.466   9.199
 2449POPC   C1A33111  37.586  13.738   8.701
 2449POPC   D2A33112  37.368  13.933   8.387
 2449POPC   C3A33113  37.655  13.768   8.106
 2449POPC   C4A33114  37.530  13.613   7.751
 2449POPC   C1B33115  38.023  13.417   8.758
 2449POPC   C2B33116  37.835  13.354   8.393
 2449POPC   C3B33117  37.810  13.252   7.988
 2449POPC   C4B33118  37.975  13.426   7.622
 2450POPC   NC333119  18.234  44.172   9.608
 2450POPC   PO433120  17.862  43.645   9.363
 2450POPC   GL133121  18.071  44.043   9.131
 2450POPC   GL233122  18.475  44.134   9.158
 2450POPC   C1A33123  18.014  44.141   8.690
 2450POPC   D2A33124  17.782  43.997   8.341
 2450POPC   C3A33125  18.039  43.955   7.977
 2450POPC   C4A33126  18.027  43.628   7.650
 2450POPC   C1B33127  18.625  43.902   8.794
 2450POPC   C2B33128  18.855  43.933   8.379
 2450POPC   C3B33129  18.580  43.816   8.040
 2450POPC   C4B33130  18.433  43.939   7.646
 2451POPC   NC333131  27.108  26.346   9.688
 2451POPC   PO433132  26.496  26.083   9.675
 2451POPC   GL133133  26.695  25.961   9.217
 2451POPC   GL233134  27.005  26.227   9.131
 2451POPC   C1A33135  26.645  26.108   8.794
 2451POPC   D2A33136  26.684  26.225   8.392
 2451POPC   C3A33137  26.722  25.947   8.087
 2451POPC   C4A33138  26.857  26.062   7.689
 2451POPC   C1B33139  27.161  26.071   8.785
 2451POPC   C2B33140  27.227  26.014   8.376
 2451POPC   C3B33141  27.112  26.289   8.069
 2451POPC   C4B33142  27.239  26.493   7.722
 2452POPC   NC333143   8.049  28.635   9.326
 2452POPC   PO433144   8.060  29.139   9.819
 2452POPC   GL133145   8.170  29.157   9.351
 2452POPC   GL233146   8.353  29.472   9.261
 2452POPC   C1A33147   8.023  29.153   8.888
 2452POPC   D2A33148   7.879  29.155   8.426
 2452POPC   C3A33149   8.086  29.028   8.034
 2452POPC   C4A33150   8.232  29.167   7.623
 2452POPC   C1B33151   8.502  29.308   8.829
 2452POPC   C2B33152   8.441  29.147   8.392
 2452POPC   C3B33153   8.577  29.304   7.986
 2452POPC   C4B33154   8.746  29.171   7.580
 2453POPC   NC333155  30.869  38.357   9.448
 2453POPC   PO433156  30.256  38.087   9.618
 2453POPC   GL133157  30.410  38.261   9.200
 2453POPC   GL233158  30.402  38.611   9.197
 2453POPC   C1A33159  30.622  38.431   8.801
 2453POPC   D2A33160  30.754  38.500   8.403
 2453POPC   C3A33161  30.669  38.251   8.051
 2453POPC   C4A33162  30.834  38.460   7.725
 2453POPC   C1B33163  30.309  38.893   8.829
 2453POPC   C2B33164  30.293  38.743   8.424
 2453POPC   C3B33165  30.506  38.742   8.039
 2453POPC   C4B33166  30.349  38.638   7.672
 2454POPC   NC333167  16.141  41.315   9.588
 2454POPC   PO433168  15.607  41.703   9.477
 2454POPC   GL133169  15.854  41.548   9.139
 2454POPC   GL233170  15.791  41.199   9.192
 2454POPC   C1A33171  15.865  41.730   8.722
 2454POPC   D2A33172  15.883  41.874   8.286
 2454POPC   C3A33173  16.104  41.624   7.955
 2454POPC   C4A33174  16.371  41.274   7.829
 2454POPC   C1B33175  15.647  41.272   8.759
 2454POPC   C2B33176  15.823  41.362   8.357
 2454POPC   C3B33177  15.635  41.406   7.959
 2454POPC   C4B33178  15.865  41.375   7.562
 2455POPC   NC333179  24.815  16.406   9.881
 2455POPC   PO433180  25.300  16.753   9.524
 2455POPC   GL133181  25.226  16.746   9.098
 2455POPC   GL233182  25.531  16.890   9.084
 2455POPC   C1A33183  25.147  16.935   8.658
 2455POPC   D2A33184  25.261  16.846   8.195
 2455POPC   C3A33185  24.948  16.699   7.830
 2455POPC   C4A33186  24.938  16.924   7.409
 2455POPC   C1B33187  25.560  16.649   8.713
 2455POPC   C2B33188  25.760  16.658   8.351
 2455POPC   C3B33189  25.648  16.549   7.964
 2455POPC   C4B33190  25.434  16.824   7.694
 2456POPC   NC333191  40.775  29.338   9.777
 2456POPC   PO433192  40.921  28.634   9.714
 2456POPC   GL133193  41.131  28.958   9.322
 2456POPC   GL233194  40.872  29.291   9.219
 2456POPC   C1A33195  41.114  29.091   8.845
 2456POPC   D2A33196  40.893  29.081   8.444
 2456POPC   C3A33197  41.000  29.248   8.064
 2456POPC   C4A33198  40.858  29.505   7.742
 2456POPC   C1B33199  40.669  29.374   8.790
 2456POPC   C2B33200  40.641  29.535   8.330
 2456POPC   C3B33201  40.422  29.391   7.937
 2456POPC   C4B33202  40.408  29.549   7.462
 2457POPC   NC333203  33.989  21.850   9.281
 2457POPC   PO433204  34.494  22.249   9.482
 2457POPC   GL133205  34.619  22.246   9.097
 2457POPC   GL233206  34.543  22.571   9.001
 2457POPC   C1A33207  34.629  22.086   8.690
 2457POPC   D2A33208  34.509  22.384   8.369
 2457POPC   C3A33209  34.507  22.126   8.050
 2457POPC   C4A33210  34.524  21.978   7.688
 2457POPC   C1B33211  34.885  22.509   8.737
 2457POPC   C2B33212  34.990  22.669   8.335
 2457POPC   C3B33213  34.786  22.552   7.961
 2457POPC   C4B33214  34.790  22.392   7.516
 2458POPC   NC333215  36.326  42.862   9.475
 2458POPC   PO433216  36.045  43.543   9.432
 2458POPC   GL133217  36.259  43.201   9.105
 2458POPC   GL233218  36.235  42.773   9.010
 2458POPC   C1A33219  36.502  43.091   8.712
 2458POPC   D2A33220  36.695  43.077   8.289
 2458POPC   C3A33221  36.357  43.037   7.967
 2458POPC   C4A33222  36.412  43.090   7.536
 2458POPC   C1B33223  35.973  42.961   8.738
 2458POPC   C2B33224  35.853  42.833   8.348
 2458POPC   C3B33225  35.773  43.059   8.002
 2458POPC   C4B33226  35.918  43.085   7.604
 2459POPC   NC333227  18.656  30.997   9.392
 2459POPC   PO433228  19.181  31.572   9.391
 2459POPC   GL133229  18.962  31.621   9.057
 2459POPC   GL233230  18.910  31.281   9.033
 2459POPC   C1A33231  19.033  31.754   8.644
 2459POPC   D2A33232  18.941  31.958   8.290
 2459POPC   C3A33233  19.101  31.733   7.989
 2459POPC   C4A33234  19.140  31.373   7.774
 2459POPC   C1B33235  18.888  31.265   8.622
 2459POPC   C2B33236  18.880  31.290   8.189
 2459POPC   C3B33237  18.662  31.198   7.811
 2459POPC   C4B33238  18.819  31.243   7.381
 2460POPC   NC333239  43.838   0.945   9.571
 2460POPC   PO433240  43.740   1.569   9.524
 2460POPC   GL133241  43.749   1.281   9.168
 2460POPC   GL233242  43.634   0.905   9.113
 2460POPC   C1A33243  43.845   1.243   8.740
 2460POPC   D2A33244  43.583   1.220   8.373
 2460POPC   C3A33245  43.679   1.529   8.058
 2460POPC   C4A33246  43.819   1.380   7.665
 2460POPC   C1B33247  43.603   0.766   8.702
 2460POPC   C2B33248  43.963   0.843   8.429
 2460POPC   C3B33249  44.019   1.091   8.049
 2460POPC   C4B33250  44.046   0.851   7.651
 2461POPC   NC333251   3.904  24.476   9.453
 2461POPC   PO433252   3.194  24.713   9.565
 2461POPC   GL133253   3.462  24.619   9.230
 2461POPC   GL233254   3.459  24.231   9.269
 2461POPC   C1A33255   3.634  24.776   8.838
 2461POPC   D2A33256   3.709  24.952   8.431
 2461POPC   C3A33257   3.555  24.754   8.065
 2461POPC   C4A33258   3.407  24.619   7.672
 2461POPC   C1B33259   3.654  24.247   8.859
 2461POPC   C2B33260   3.560  24.419   8.458
 2461POPC   C3B33261   3.652  24.239   8.069
 2461POPC   C4B33262   3.603  24.152   7.656
 2462POPC   NC333263   5.708   7.146   9.630
 2462POPC   PO433264   5.954   7.807   9.563
 2462POPC   GL133265   5.696   7.559   9.297
 2462POPC   GL233266   6.011   7.405   9.231
 2462POPC   C1A33267   5.701   7.491   8.835
 2462POPC   D2A33268   5.933   7.587   8.439
 2462POPC   C3A33269   5.828   7.391   8.010
 2462POPC   C4A33270   5.829   7.553   7.637
 2462POPC   C1B33271   6.215   7.397   8.831
 2462POPC   C2B33272   6.440   7.425   8.418
 2462POPC   C3B33273   6.331   7.265   8.015
 2462POPC   C4B33274   6.196   7.201   7.613
 2463POPC   NC333275  40.620  31.006   9.570
 2463POPC   PO433276  41.117  30.698   9.886
 2463POPC   GL133277  41.028  30.730   9.399
 2463POPC   GL233278  40.766  30.514   9.262
 2463POPC   C1A33279  40.987  30.842   8.949
 2463POPC   D2A33280  40.968  30.926   8.512
 2463POPC   C3A33281  41.094  30.682   8.165
 2463POPC   C4A33282  41.066  30.842   7.752
 2463POPC   C1B33283  40.729  30.390   8.824
 2463POPC   C2B33284  40.670  30.518   8.400
 2463POPC   C3B33285  40.618  30.610   7.979
 2463POPC   C4B33286  40.771  30.457   7.618
 2464POPC   NC333287  34.431   0.821   9.638
 2464POPC   PO433288  34.435   0.207   9.547
 2464POPC   GL133289  34.661   0.501   9.291
 2464POPC   GL233290  34.378   0.639   9.174
 2464POPC   C1A33291  34.720   0.515   8.808
 2464POPC   D2A33292  34.573   0.170   8.487
 2464POPC   C3A33293  34.677   0.268   8.031
 2464POPC   C4A33294  34.532   0.117   7.624
 2464POPC   C1B33295  34.208   0.527   8.793
 2464POPC   C2B33296  34.400   0.622   8.396
 2464POPC   C3B33297  34.322   0.776   8.014
 2464POPC   C4B33298  34.565   0.676   7.648
 2465POPC   NC333299  42.410  43.700   9.462
 2465POPC   PO433300  41.981  44.165   9.270
 2465POPC   GL133301  42.359  44.018   9.075
 2465POPC   GL233302  42.241  44.173   8.814
 2465POPC   C1A33303  42.576  43.681   8.795
 2465POPC   D2A33304  42.622  43.391   8.421
 2465POPC   C3A33305  42.587  43.630   8.064
 2465POPC   C4A33306  42.443  43.772   7.674
 2465POPC   C1B33307  42.082  43.796   8.716
 2465POPC   C2B33308  42.168  43.618   8.378
 2465POPC   C3B33309  42.075  43.753   8.004
 2465POPC   C4B33310  41.957  43.578   7.617
 2466POPC   NC333311  23.489  11.908   9.292
 2466POPC   PO433312  23.859  12.433   9.569
 2466POPC   GL133313  23.926  12.202   9.176
 2466POPC   GL233314  24.041  11.869   9.251
 2466POPC   C1A33315  23.731  12.079   8.737
 2466POPC   D2A33316  23.452  11.980   8.398
 2466POPC   C3A33317  23.449  12.251   8.033
 2466POPC   C4A33318  23.457  12.010   7.662
 2466POPC   C1B33319  23.989  11.618   8.871
 2466POPC   C2B33320  23.928  11.691   8.441
 2466POPC   C3B33321  23.844  11.895   8.052
 2466POPC   C4B33322  23.717  11.585   7.785
 2467POPC   NC333323  36.831  40.689   9.500
 2467POPC   PO433324  36.912  41.322   9.416
 2467POPC   GL133325  36.908  41.035   9.083
 2467POPC   GL233326  37.067  40.720   9.019
 2467POPC   C1A33327  36.731  40.934   8.681
 2467POPC   D2A33328  36.959  40.859   8.359
 2467POPC   C3A33329  36.927  41.097   8.005
 2467POPC   C4A33330  37.171  40.975   7.678
 2467POPC   C1B33331  36.879  40.430   8.732
 2467POPC   C2B33332  36.737  40.395   8.322
 2467POPC   C3B33333  36.885  40.585   7.932
 2467POPC   C4B33334  36.863  40.415   7.548
 2468POPC   NC333335  30.718  13.177   9.340
 2468POPC   PO433336  30.841  13.817   9.536
 2468POPC   GL133337  30.676  13.954   9.152
 2468POPC   GL233338  30.651  13.615   9.086
 2468POPC   C1A33339  30.570  13.905   8.668
 2468POPC   D2A33340  30.294  13.765   8.309
 2468POPC   C3A33341  30.568  13.711   7.992
 2468POPC   C4A33342  31.021  13.621   7.895
 2468POPC   C1B33343  30.944  13.563   8.760
 2468POPC   C2B33344  30.770  13.466   8.389
 2468POPC   C3B33345  30.712  13.214   8.036
 2468POPC   C4B33346  30.621  13.380   7.619
 2469POPC   NC333347  24.285  24.269   9.554
 2469POPC   PO433348  24.904  24.581   9.423
 2469POPC   GL133349  24.626  24.385   9.177
 2469POPC   GL233350  24.437  24.657   9.126
 2469POPC   C1A33351  24.627  24.391   8.733
 2469POPC   D2A33352  24.329  24.357   8.392
 2469POPC   C3A33353  24.502  24.507   8.055
 2469POPC   C4A33354  24.679  24.270   7.786
 2469POPC   C1B33355  24.193  24.667   8.759
 2469POPC   C2B33356  24.021  24.781   8.322
 2469POPC   C3B33357  24.095  24.750   7.888
 2469POPC   C4B33358  24.333  24.734   7.557
 2470POPC   NC333359  20.137  38.474   9.453
 2470POPC   PO433360  20.756  38.679   9.612
 2470POPC   GL133361  20.619  38.732   9.216
 2470POPC   GL233362  20.565  38.380   9.179
 2470POPC   C1A33363  20.702  38.690   8.777
 2470POPC   D2A33364  20.708  38.434   8.401
 2470POPC   C3A33365  20.950  38.476   8.073
 2470POPC   C4A33366  20.660  38.608   7.766
 2470POPC   C1B33367  20.522  38.178   8.795
 2470POPC   C2B33368  20.269  38.189   8.429
 2470POPC   C3B33369  20.510  38.012   8.103
 2470POPC   C4B33370  20.765  38.052   7.751
 2471POPC   NC333371   2.426  44.680   9.357
 2471POPC   PO433372   2.980  44.907   9.699
 2471POPC   GL133373   3.003  44.844   9.232
 2471POPC   GL233374   2.853  44.575   9.146
 2471POPC   C1A33375   3.093  44.716   8.747
 2471POPC   D2A33376   2.793  44.748   8.369
 2471POPC   C3A33377   2.995  44.605   7.988
 2471POPC   C4A33378   3.046  44.820   7.574
 2471POPC   C1B33379   2.597  44.445   8.775
 2471POPC   C2B33380   2.478  44.216   8.416
 2471POPC   C3B33381   2.463  44.422   8.021
 2471POPC   C4B33382   2.660  44.490   7.621
 2472POPC   NC333383  39.413  27.858   9.532
 2472POPC   PO433384  38.716  27.593   9.516
 2472POPC   GL133385  39.091  27.559   9.263
 2472POPC   GL233386  39.076  27.869   9.132
 2472POPC   C1A33387  39.335  27.427   8.880
 2472POPC   D2A33388  39.319  27.552   8.469
 2472POPC   C3A33389  39.206  27.295   8.139
 2472POPC   C4A33390  38.987  27.486   7.838
 2472POPC   C1B33391  39.313  27.956   8.794
 2472POPC   C2B33392  39.449  28.073   8.407
 2472POPC   C3B33393  39.302  27.870   8.062
 2472POPC   C4B33394  39.475  27.580   7.789
 2473POPC   NC333395  30.954  37.392   9.199
 2473POPC   PO433396  30.786  36.948   9.668
 2473POPC   GL133397  30.781  36.912   9.169
 2473POPC   GL233398  31.022  36.692   8.984
 2473POPC   C1A33399  30.487  36.675   8.885
 2473POPC   D2A33400  30.261  36.792   8.514
 2473POPC   C3A33401  30.446  36.690   8.131
 2473POPC   C4A33402  30.668  36.844   7.784
 2473POPC   C1B33403  30.856  36.929   8.635
 2473POPC   C2B33404  30.864  37.086   8.214
 2473POPC   C3B33405  31.152  36.974   7.891
 2473POPC   C4B33406  31.099  36.557   7.753
 2474POPC   NC333407  44.758  19.147   9.681
 2474POPC   PO433408  44.232  18.770   9.384
 2474POPC   GL133409  44.566  19.031   9.175
 2474POPC   GL233410  44.517  19.363   8.973
 2474POPC   C1A33411  44.693  18.930   8.747
 2474POPC   D2A33412  44.742  19.103   8.340
 2474POPC   C3A33413  44.525  19.261   7.975
 2474POPC   C4A33414  44.800  18.959   7.803
 2474POPC   C1B33415  44.967  19.350   8.819
 2474POPC   C2B33416   0.138  19.403   8.403
 2474POPC   C3B33417   0.032  19.390   7.966
 2474POPC   C4B33418   0.000  19.342   7.505
 2475POPC   NC333419  14.912   0.018   9.509
 2475POPC   PO433420  15.135  44.429   9.533
 2475POPC   GL133421  15.064  44.644   9.161
 2475POPC   GL233422  14.872  44.315   9.113
 2475POPC   C1A33423  15.311  44.828   8.772
 2475POPC   D2A33424  15.461  44.691   8.327
 2475POPC   C3A33425  15.260  44.817   7.938
 2475POPC   C4A33426  15.084  44.708   7.559
 2475POPC   C1B33427  15.019  44.382   8.727
 2475POPC   C2B33428  15.114  44.305   8.317
 2475POPC   C3B33429  14.949  44.392   7.945
 2475POPC   C4B33430  14.902  44.231   7.537
 2476POPC   NC333431  32.635  28.115   9.233
 2476POPC   PO433432  32.125  28.478   9.628
 2476POPC   GL133433  32.293  28.512   9.239
 2476POPC   GL233434  32.139  28.196   9.207
 2476POPC   C1A33435  32.413  28.627   8.808
 2476POPC   D2A33436  32.473  28.461   8.404
 2476POPC   C3A33437  32.580  28.642   8.016
 2476POPC   C4A33438  32.437  28.463   7.642
 2476POPC   C1B33439  31.887  28.472   8.936
 2476POPC   C2B33440  31.956  28.628   8.513
 2476POPC   C3B33441  31.973  28.535   8.079
 2476POPC   C4B33442  31.970  28.632   7.642
 2477POPC   NC333443  18.027   4.868   9.611
 2477POPC   PO433444  17.444   5.133   9.571
 2477POPC   GL133445  17.375   5.081   9.121
 2477POPC   GL233446  17.517   4.743   9.140
 2477POPC   C1A33447  17.493   5.194   8.661
 2477POPC   D2A33448  17.604   4.943   8.280
 2477POPC   C3A33449  17.628   5.096   7.833
 2477POPC   C4A33450  17.820   5.187   7.400
 2477POPC   C1B33451  17.397   4.694   8.721
 2477POPC   C2B33452  17.347   4.462   8.337
 2477POPC   C3B33453  17.376   4.639   7.933
 2477POPC   C4B33454  17.133   4.851   7.642
 2478POPC   NC333455   7.849  23.661   9.730
 2478POPC   PO433456   8.219  23.466   9.123
 2478POPC   GL133457   8.290  23.801   8.902
 2478POPC   GL233458   8.577  24.019   8.920
 2478POPC   C1A33459   8.058  23.780   8.533
 2478POPC   D2A33460   7.692  23.859   8.329
 2478POPC   C3A33461   7.902  23.945   7.962
 2478POPC   C4A33462   8.113  23.662   7.748
 2478POPC   C1B33463   8.735  23.659   8.676
 2478POPC   C2B33464   8.701  23.609   8.239
 2478POPC   C3B33465   8.520  23.894   7.942
 2478POPC   C4B33466   8.584  24.329   7.888
 2479POPC   NC333467  20.468  13.753   9.589
 2479POPC   PO433468  21.110  13.648   9.491
 2479POPC   GL133469  20.951  13.526   9.123
 2479POPC   GL233470  20.615  13.632   9.108
 2479POPC   C1A33471  20.919  13.549   8.693
 2479POPC   D2A33472  20.690  13.833   8.470
 2479POPC   C3A33473  20.583  13.766   8.095
 2479POPC   C4A33474  20.678  13.887   7.699
 2479POPC   C1B33475  20.404  13.441   8.755
 2479POPC   C2B33476  20.434  13.303   8.321
 2479POPC   C3B33477  20.304  13.417   7.901
 2479POPC   C4B33478  20.304  13.314   7.441
 2480POPC   NC333479   3.908  32.804   9.555
 2480POPC   PO433480   3.391  33.179   9.406
 2480POPC   GL133481   3.446  33.015   9.034
 2480POPC   GL233482   3.744  32.837   9.097
 2480POPC   C1A33483   3.309  33.102   8.618
 2480POPC   D2A33484   3.406  33.423   8.318
 2480POPC   C3A33485   3.519  33.226   7.946
 2480POPC   C4A33486   3.342  33.100   7.571
 2480POPC   C1B33487   3.908  32.994   8.743
 2480POPC   C2B33488   3.782  32.994   8.323
 2480POPC   C3B33489   4.017  33.085   7.942
 2480POPC   C4B33490   3.898  32.839   7.606
 2481POPC   NC333491  37.929  24.206   9.685
 2481POPC   PO433492  37.613  23.609   9.539
 2481POPC   GL133493  37.702  23.544   9.131
 2481POPC   GL233494  37.639  23.873   9.023
 2481POPC   C1A33495  37.917  23.524   8.761
 2481POPC   D2A33496  37.723  23.408   8.393
 2481POPC   C3A33497  37.804  23.685   8.066
 2481POPC   C4A33498  37.709  23.878   7.699
 2481POPC   C1B33499  37.358  23.749   8.719
 2481POPC   C2B33500  37.325  23.711   8.280
 2481POPC   C3B33501  37.302  23.641   7.849
 2481POPC   C4B33502  37.188  23.745   7.425
 2482POPC   NC333503  42.467  16.566   9.477
 2482POPC   PO433504  42.058  17.119   9.575
 2482POPC   GL133505  42.093  17.081   9.124
 2482POPC   GL233506  42.369  16.829   9.050
 2482POPC   C1A33507  42.056  16.920   8.681
 2482POPC   D2A33508  42.455  16.805   8.482
 2482POPC   C3A33509  42.516  16.692   8.059
 2482POPC   C4A33510  42.270  16.722   7.670
 2482POPC   C1B33511  42.439  16.420   8.814
 2482POPC   C2B33512  42.526  16.282   8.399
 2482POPC   C3B33513  42.343  16.217   8.003
 2482POPC   C4B33514  42.511  16.280   7.602
 2483POPC   NC333515  20.847   6.866   9.687
 2483POPC   PO433516  20.361   6.715   9.339
 2483POPC   GL133517  20.836   6.699   9.173
 2483POPC   GL233518  21.030   6.387   9.312
 2483POPC   C1A33519  20.983   6.833   8.715
 2483POPC   D2A33520  20.861   7.038   8.300
 2483POPC   C3A33521  20.657   6.778   7.970
 2483POPC   C4A33522  20.412   6.427   7.729
 2483POPC   C1B33523  20.951   6.307   8.855
 2483POPC   C2B33524  20.790   6.441   8.421
 2483POPC   C3B33525  20.838   6.307   7.985
 2483POPC   C4B33526  20.878   6.303   7.520
 2484POPC   NC333527   2.671  16.225   9.638
 2484POPC   PO433528   3.149  15.831   9.490
 2484POPC   GL133529   2.782  15.910   9.241
 2484POPC   GL233530   2.867  16.257   9.167
 2484POPC   C1A33531   2.641  15.909   8.813
 2484POPC   D2A33532   2.844  16.186   8.502
 2484POPC   C3A33533   2.728  16.092   8.092
 2484POPC   C4A33534   2.952  15.996   7.718
 2484POPC   C1B33535   2.479  16.367   8.941
 2484POPC   C2B33536   2.371  16.415   8.473
 2484POPC   C3B33537   2.222  16.258   8.043
 2484POPC   C4B33538   2.455  16.183   7.652
 2485POPC   NC333539  43.890  25.020   9.517
 2485POPC   PO433540  43.909  25.693   9.681
 2485POPC   GL133541  43.955  25.428   9.242
 2485POPC   GL233542  43.760  25.547   9.028
 2485POPC   C1A33543  43.784  25.090   8.854
 2485POPC   D2A33544  43.659  25.047   8.384
 2485POPC   C3A33545  44.031  24.901   8.096
 2485POPC   C4A33546  44.334  25.000   7.749
 2485POPC   C1B33547  43.528  25.539   8.706
 2485POPC   C2B33548  43.555  25.788   8.347
 2485POPC   C3B33549  43.792  25.675   7.977
 2485POPC   C4B33550  43.859  25.277   7.785
 2486POPC   NC333551  35.003  44.239   9.788
 2486POPC   PO433552  35.324  43.638   9.802
 2486POPC   GL133553  35.325  43.711   9.370
 2486POPC   GL233554  35.610  43.640   9.192
 2486POPC   C1A33555  35.148  43.804   8.959
 2486POPC   D2A33556  35.155  43.621   8.538
 2486POPC   C3A33557  35.179  43.832   8.128
 2486POPC   C4A33558  35.310  44.169   7.839
 2486POPC   C1B33559  35.625  43.817   8.776
 2486POPC   C2B33560  35.663  43.617   8.391
 2486POPC   C3B33561  35.695  43.761   7.990
 2486POPC   C4B33562  35.446  43.684   7.647
 2487POPC   NC333563  44.894  39.648   9.460
 2487POPC   PO433564  44.551  40.294   9.548
 2487POPC   GL133565  44.646  40.015   9.176
 2487POPC   GL233566  44.331  39.825   9.297
 2487POPC   C1A33567  44.818  39.948   8.724
 2487POPC   D2A33568  44.941  40.061   8.287
 2487POPC   C3A33569  44.619  40.161   7.970
 2487POPC   C4A33570  44.924  40.064   7.647
 2487POPC   C1B33571  44.295  39.788   8.822
 2487POPC   C2B33572  44.447  39.826   8.367
 2487POPC   C3B33573  44.252  39.790   7.941
 2487POPC   C4B33574  44.363  39.951   7.509
 2488POPC   NC333575  25.842  34.779   9.375
 2488POPC   PO433576  26.423  34.573   9.693
 2488POPC   GL133577  26.230  34.430   9.277
 2488POPC   GL233578  25.920  34.232   9.333
 2488POPC   C1A33579  26.094  34.579   8.833
 2488POPC   D2A33580  26.064  34.862   8.509
 2488POPC   C3A33581  26.043  34.613   8.148
 2488POPC   C4A33582  26.075  34.757   7.728
 2488POPC   C1B33583  25.728  34.033   8.961
 2488POPC   C2B33584  25.767  34.253   8.561
 2488POPC   C3B33585  25.634  34.286   8.140
 2488POPC   C4B33586  25.790  34.290   7.735
 2489POPC   NC333587  30.537   4.600   9.480
 2489POPC   PO433588  30.692   5.326   9.510
 2489POPC   GL133589  30.665   5.017   9.201
 2489POPC   GL233590  30.339   4.880   9.127
 2489POPC   C1A33591  30.890   4.976   8.839
 2489POPC   D2A33592  31.055   5.173   8.495
 2489POPC   C3A33593  30.912   4.979   8.081
 2489POPC   C4A33594  30.804   5.114   7.630
 2489POPC   C1B33595  30.305   5.135   8.789
 2489POPC   C2B33596  30.536   5.105   8.420
 2489POPC   C3B33597  30.443   5.110   7.985
 2489POPC   C4B33598  30.363   4.838   7.599
 2490POPC   NC333599  14.244   5.683   9.483
 2490POPC   PO433600  14.707   6.281   9.642
 2490POPC   GL133601  14.674   5.967   9.256
 2490POPC   GL233602  14.402   5.751   9.003
 2490POPC   C1A33603  14.715   6.057   8.811
 2490POPC   D2A33604  14.571   5.747   8.454
 2490POPC   C3A33605  14.721   5.825   8.017
 2490POPC   C4A33606  14.660   5.950   7.549
 2490POPC   C1B33607  14.235   6.073   8.653
 2490POPC   C2B33608  14.170   6.080   8.199
 2490POPC   C3B33609  14.234   5.898   7.822
 2490POPC   C4B33610  14.176   5.789   7.385
 2491POPC   NC333611  24.890  32.087   9.568
 2491POPC   PO433612  25.541  32.422   9.571
 2491POPC   GL133613  25.286  32.261   9.234
 2491POPC   GL233614  25.400  31.918   9.204
 2491POPC   C1A33615  25.407  32.219   8.784
 2491POPC   D2A33616  25.212  32.275   8.397
 2491POPC   C3A33617  25.395  32.361   7.970
 2491POPC   C4A33618  25.342  32.532   7.517
 2491POPC   C1B33619  25.060  31.852   8.880
 2491POPC   C2B33620  24.931  31.820   8.449
 2491POPC   C3B33621  25.071  31.948   8.059
 2491POPC   C4B33622  25.190  32.015   7.638
 2492POPC   NC333623  32.572  33.403   9.463
 2492POPC   PO433624  32.297  32.829   9.596
 2492POPC   GL133625  32.351  33.019   9.191
 2492POPC   GL233626  32.005  33.063   9.167
 2492POPC   C1A33627  32.422  33.262   8.794
 2492POPC   D2A33628  32.410  33.059   8.385
 2492POPC   C3A33629  32.241  33.146   7.995
 2492POPC   C4A33630  32.462  32.886   7.767
 2492POPC   C1B33631  32.047  32.911   8.727
 2492POPC   C2B33632  31.943  32.839   8.286
 2492POPC   C3B33633  32.019  32.657   7.871
 2492POPC   C4B33634  32.052  32.840   7.434
 2493POPC   NC333635  42.983  11.424   9.579
 2493POPC   PO433636  43.594  11.038   9.484
 2493POPC   GL133637  43.291  11.064   9.157
 2493POPC   GL233638  42.935  11.048   9.259
 2493POPC   C1A33639  43.188  11.423   8.880
 2493POPC   D2A33640  42.878  11.476   8.520
 2493POPC   C3A33641  43.060  11.265   8.143
 2493POPC   C4A33642  43.232  11.436   7.740
 2493POPC   C1B33643  42.824  11.069   8.847
 2493POPC   C2B33644  42.709  10.985   8.434
 2493POPC   C3B33645  42.717  10.884   8.028
 2493POPC   C4B33646  42.946  10.998   7.682
 2494POPC   NC333647  44.559  11.699   9.799
 2494POPC   PO433648  44.670  12.388   9.583
 2494POPC   GL133649  44.573  12.186   9.197
 2494POPC   GL233650  44.762  11.898   9.193
 2494POPC   C1A33651  44.656  12.159   8.743
 2494POPC   D2A33652  44.908  11.997   8.385
 2494POPC   C3A33653  44.850  12.293   8.039
 2494POPC   C4A33654  44.526  12.332   7.730
 2494POPC   C1B33655  44.752  11.660   8.788
 2494POPC   C2B33656  44.522  11.619   8.409
 2494POPC   C3B33657  44.606  11.608   7.990
 2494POPC   C4B33658  44.800  11.888   7.749
 2495POPC   NC333659  42.303  12.740   9.643
 2495POPC   PO433660  42.922  12.682   9.552
 2495POPC   GL133661  42.592  12.741   9.202
 2495POPC   GL233662  42.205  12.865   9.170
 2495POPC   C1A33663  42.459  12.670   8.793
 2495POPC   D2A33664  42.506  12.832   8.413
 2495POPC   C3A33665  42.360  12.554   8.108
 2495POPC   C4A33666  42.398  12.728   7.716
 2495POPC   C1B33667  42.187  13.099   8.787
 2495POPC   C2B33668  42.154  13.289   8.404
 2495POPC   C3B33669  42.238  13.102   8.045
 2495POPC   C4B33670  42.105  13.168   7.646
 2496POPC   NC333671  10.377  17.399   9.610
 2496POPC   PO433672  10.971  17.471   9.269
 2496POPC   GL133673  10.688  17.231   9.070
 2496POPC   GL233674  10.319  17.343   9.114
 2496POPC   C1A33675  10.661  17.344   8.653
 2496POPC   D2A33676  10.585  17.709   8.427
 2496POPC   C3A33677  10.591  17.628   7.999
 2496POPC   C4A33678  10.821  17.351   7.751
 2496POPC   C1B33679  10.157  17.478   8.731
 2496POPC   C2B33680  10.236  17.349   8.330
 2496POPC   C3B33681  10.105  17.450   7.938
 2496POPC   C4B33682  10.334  17.368   7.590
 2497POPC   NC333683   5.926  32.648   9.874
 2497POPC   PO433684   5.844  33.174   9.478
 2497POPC   GL133685   5.971  33.035   9.097
 2497POPC   GL233686   6.240  32.847   9.142
 2497POPC   C1A33687   5.781  33.061   8.715
 2497POPC   D2A33688   5.475  33.224   8.423
 2497POPC   C3A33689   5.643  33.038   8.084
 2497POPC   C4A33690   5.558  33.081   7.682
 2497POPC   C1B33691   6.240  32.706   8.722
 2497POPC   C2B33692   6.343  32.531   8.321
 2497POPC   C3B33693   6.167  32.561   7.938
 2497POPC   C4B33694   6.039  32.928   7.762
 2498POPC   NC333695  40.641   2.570   9.372
 2498POPC   PO433696  40.780   3.243   9.558
 2498POPC   GL133697  40.832   3.013   9.139
 2498POPC   GL233698  40.558   3.031   8.919
 2498POPC   C1A33699  41.000   2.724   8.778
 2498POPC   D2A33700  40.937   2.460   8.429
 2498POPC   C3A33701  40.805   2.723   8.089
 2498POPC   C4A33702  40.658   2.617   7.689
 2498POPC   C1B33703  40.507   2.637   8.748
 2498POPC   C2B33704  40.413   2.514   8.370
 2498POPC   C3B33705  40.266   2.691   7.993
 2498POPC   C4B33706  40.254   3.086   7.767
 2499POPC   NC333707  32.820  35.683   9.385
 2499POPC   PO433708  32.821  36.346   9.524
 2499POPC   GL133709  33.007  36.114   9.151
 2499POPC   GL233710  32.710  35.989   8.980
 2499POPC   C1A33711  33.127  35.995   8.712
 2499POPC   D2A33712  32.792  36.043   8.350
 2499POPC   C3A33713  32.938  36.040   7.946
 2499POPC   C4A33714  33.251  35.983   7.614
 2499POPC   C1B33715  32.401  35.959   8.641
 2499POPC   C2B33716  32.253  36.303   8.411
 2499POPC   C3B33717  32.488  36.515   8.127
 2499POPC   C4B33718  32.666  36.422   7.735
 2500POPC   NC333719   8.498  36.983   9.592
 2500POPC   PO433720   7.932  36.680   9.443
 2500POPC   GL133721   8.159  37.012   9.199
 2500POPC   GL233722   7.990  37.193   8.941
 2500POPC   C1A33723   8.475  37.037   8.852
 2500POPC   D2A33724   8.612  37.068   8.443
 2500POPC   C3A33725   8.435  36.773   8.199
 2500POPC   C4A33726   8.457  36.777   7.763
 2500POPC   C1B33727   8.037  36.754   8.767
 2500POPC   C2B33728   7.939  36.642   8.327
 2500POPC   C3B33729   7.749  36.804   7.966
 2500POPC   C4B33730   7.971  36.754   7.575
 2501POPC   NC333731  45.000  13.887   9.456
 2501POPC   PO433732   0.657  13.678   9.511
 2501POPC   GL133733   0.420  13.754   9.179
 2501POPC   GL233734   0.384  14.095   9.190
 2501POPC   C1A33735   0.307  13.591   8.806
 2501POPC   D2A33736   0.466  13.735   8.435
 2501POPC   C3A33737   0.270  13.527   8.112
 2501POPC   C4A33738   0.414  13.462   7.713
 2501POPC   C1B33739   0.196  14.081   8.771
 2501POPC   C2B33740   0.021  13.965   8.368
 2501POPC   C3B33741   0.252  14.015   7.994
 2501POPC   C4B33742   0.618  14.014   7.753
 2502POPC   NC333743  35.857  40.496   9.382
 2502POPC   PO433744  36.384  40.835   9.534
 2502POPC   GL133745  36.126  40.900   9.195
 2502POPC   GL233746  36.410  40.983   9.050
 2502POPC   C1A33747  35.954  40.992   8.769
 2502POPC   D2A33748  35.724  40.841   8.396
 2502POPC   C3A33749  36.005  40.733   8.046
 2502POPC   C4A33750  36.105  41.069   7.758
 2502POPC   C1B33751  36.392  40.570   8.887
 2502POPC   C2B33752  36.306  40.666   8.483
 2502POPC   C3B33753  36.490  40.852   8.128
 2502POPC   C4B33754  36.451  40.702   7.700
 2503POPC   NC333755   7.128  43.083   9.519
 2503POPC   PO433756   7.707  43.388   9.360
 2503POPC   GL133757   7.611  42.991   9.123
 2503POPC   GL233758   7.259  42.841   9.092
 2503POPC   C1A33759   7.651  42.835   8.728
 2503POPC   D2A33760   7.644  43.138   8.402
 2503POPC   C3A33761   7.416  42.972   8.069
 2503POPC   C4A33762   7.335  43.084   7.671
 2503POPC   C1B33763   7.293  43.208   8.793
 2503POPC   C2B33764   7.192  43.399   8.391
 2503POPC   C3B33765   7.014  43.367   7.983
 2503POPC   C4B33766   7.162  43.566   7.628
 2504POPC   NC333767  24.330  12.406   9.506
 2504POPC   PO433768  24.845  12.910   9.487
 2504POPC   GL133769  24.620  12.734   9.146
 2504POPC   GL233770  24.254  12.783   9.185
 2504POPC   C1A33771  24.753  12.662   8.699
 2504POPC   D2A33772  24.949  12.952   8.359
 2504POPC   C3A33773  24.667  12.998   7.971
 2504POPC   C4A33774  24.646  12.991   7.508
 2504POPC   C1B33775  24.280  12.961   8.786
 2504POPC   C2B33776  24.070  12.889   8.401
 2504POPC   C3B33777  24.108  13.021   8.004
 2504POPC   C4B33778  24.194  12.756   7.637
 2505POPC   NC333779  33.918  24.055   9.568
 2505POPC   PO433780  33.730  24.736   9.790
 2505POPC   GL133781  33.854  24.677   9.342
 2505POPC   GL233782  33.631  24.377   9.220
 2505POPC   C1A33783  34.039  24.473   8.948
 2505POPC   D2A33784  33.775  24.290   8.609
 2505POPC   C3A33785  33.852  24.257   8.154
 2505POPC   C4A33786  33.633  24.248   7.724
 2505POPC   C1B33787  33.584  24.710   8.896
 2505POPC   C2B33788  33.588  24.741   8.465
 2505POPC   C3B33789  33.616  24.694   8.065
 2505POPC   C4B33790  33.952  24.635   7.802
 2506POPC   NC333791  14.618  44.281   9.562
 2506POPC   PO433792  14.439  44.922   9.574
 2506POPC   GL133793  14.509  44.665   9.241
 2506POPC   GL233794  14.608  44.933   9.085
 2506POPC   C1A33795  14.476  44.466   8.828
 2506POPC   D2A33796  14.241  44.607   8.494
 2506POPC   C3A33797  14.342  44.433   8.088
 2506POPC   C4A33798  14.513  44.530   7.696
 2506POPC   C1B33799  14.801  44.844   8.765
 2506POPC   C2B33800  14.735  44.634   8.397
 2506POPC   C3B33801  14.698  44.818   8.059
 2506POPC   C4B33802  14.707   0.014   7.732
 2507POPC   NC333803   8.236  37.543   9.256
 2507POPC   PO433804   8.031  38.150   9.403
 2507POPC   GL133805   8.240  38.119   9.027
 2507POPC   GL233806   8.459  37.859   8.905
 2507POPC   C1A33807   8.009  37.946   8.694
 2507POPC   D2A33808   7.895  37.822   8.310
 2507POPC   C3A33809   8.153  37.614   8.076
 2507POPC   C4A33810   8.227  37.664   7.648
 2507POPC   C1B33811   8.263  37.510   8.610
 2507POPC   C2B33812   8.097  37.136   8.411
 2507POPC   C3B33813   8.135  37.115   7.980
 2507POPC   C4B33814   8.493  37.281   7.825
 2508POPC   NC333815   4.976  23.894   9.480
 2508POPC   PO433816   5.099  24.524   9.504
 2508POPC   GL133817   4.961  24.303   9.130
 2508POPC   GL233818   5.271  24.087   9.101
 2508POPC   C1A33819   4.782  24.491   8.726
 2508POPC   D2A33820   5.022  24.604   8.324
 2508POPC   C3A33821   4.876  24.704   7.887
 2508POPC   C4A33822   4.787  24.989   7.520
 2508POPC   C1B33823   5.258  24.275   8.697
 2508POPC   C2B33824   5.187  24.119   8.292
 2508POPC   C3B33825   5.229  24.337   7.922
 2508POPC   C4B33826   5.068  24.236   7.547
 2509POPC   NC333827  37.823  44.873   9.474
 2509POPC   PO433828  37.208  44.709   9.574
 2509POPC   GL133829  37.366  44.665   9.201
 2509POPC   GL233830  37.487  44.981   9.077
 2509POPC   C1A33831  37.415  44.456   8.818
 2509POPC   D2A33832  37.523  44.689   8.452
 2509POPC   C3A33833  37.550  44.440   8.073
 2509POPC   C4A33834  37.839  44.409   7.748
 2509POPC   C1B33835  37.877  44.919   8.802
 2509POPC   C2B33836  38.015  44.869   8.366
 2509POPC   C3B33837  37.794  44.883   7.970
 2509POPC   C4B33838  37.847  44.891   7.497
 2510POPC   NC333839  39.251   3.254   9.504
 2510POPC   PO433840  39.415   2.636   9.634
 2510POPC   GL133841  39.448   2.576   9.221
 2510POPC   GL233842  39.126   2.626   9.148
 2510POPC   C1A33843  39.629   2.651   8.822
 2510POPC   D2A33844  39.449   2.846   8.453
 2510POPC   C3A33845  39.485   2.577   8.101
 2510POPC   C4A33846  39.354   2.632   7.712
 2510POPC   C1B33847  39.041   2.871   8.781
 2510POPC   C2B33848  38.979   3.053   8.356
 2510POPC   C3B33849  38.973   2.797   7.998
 2510POPC   C4B33850  38.655   2.725   7.711
 2511POPC   NC333851  31.789  44.133   9.632
 2511POPC   PO433852  32.436  43.919   9.614
 2511POPC   GL133853  32.310  43.764   9.208
 2511POPC   GL233854  32.235  43.421   9.094
 2511POPC   C1A33855  32.424  43.890   8.765
 2511POPC   D2A33856  32.418  44.093   8.337
 2511POPC   C3A33857  32.066  43.986   8.040
 2511POPC   C4A33858  31.804  43.682   7.805
 2511POPC   C1B33859  32.464  43.388   8.689
 2511POPC   C2B33860  32.455  43.564   8.256
 2511POPC   C3B33861  32.498  43.656   7.797
 2511POPC   C4B33862  32.549  43.653   7.324
 2512POPC   NC333863  37.931   4.564   9.409
 2512POPC   PO433864  37.442   4.118   9.569
 2512POPC   GL133865  37.595   4.153   9.167
 2512POPC   GL233866  37.507   4.515   9.141
 2512POPC   C1A33867  37.771   3.935   8.810
 2512POPC   D2A33868  37.634   4.051   8.432
 2512POPC   C3A33869  37.851   3.967   8.093
 2512POPC   C4A33870  37.747   4.120   7.681
 2512POPC   C1B33871  37.820   4.439   8.777
 2512POPC   C2B33872  37.983   4.417   8.358
 2512POPC   C3B33873  37.717   4.477   8.016
 2512POPC   C4B33874  37.779   4.636   7.592
 2513POPC   NC333875  17.534   3.835   9.500
 2513POPC   PO433876  17.267   3.233   9.480
 2513POPC   GL133877  17.594   3.403   9.188
 2513POPC   GL233878  17.770   3.730   9.060
 2513POPC   C1A33879  17.453   3.333   8.811
 2513POPC   D2A33880  17.219   3.459   8.515
 2513POPC   C3A33881  17.351   3.278   8.177
 2513POPC   C4A33882  17.609   3.403   7.863
 2513POPC   C1B33883  17.386   3.825   8.845
 2513POPC   C2B33884  17.333   3.933   8.423
 2513POPC   C3B33885  17.237   3.751   8.027
 2513POPC   C4B33886  17.502   3.856   7.681
 2514POPC   NC333887  14.822  12.205   9.457
 2514POPC   PO433888  15.332  12.352   9.853
 2514POPC   GL133889  15.330  12.235   9.285
 2514POPC   GL233890  15.068  12.001   9.070
 2514POPC   C1A33891  15.249  12.356   8.796
 2514POPC   D2A33892  14.957  12.111   8.522
 2514POPC   C3A33893  15.006  12.170   8.059
 2514POPC   C4A33894  15.005  12.246   7.620
 2514POPC   C1B33895  15.349  11.821   8.742
 2514POPC   C2B33896  15.309  11.606   8.335
 2514POPC   C3B33897  15.016  11.656   7.996
 2514POPC   C4B33898  15.316  11.871   7.771
 2515POPC   NC333899  18.792  23.888   9.366
 2515POPC   PO433900  19.282  23.386   9.493
 2515POPC   GL133901  19.125  23.443   9.110
 2515POPC   GL233902  19.237  23.766   9.091
 2515POPC   C1A33903  19.065  23.579   8.675
 2515POPC   D2A33904  18.914  23.778   8.335
 2515POPC   C3A33905  19.152  23.589   8.061
 2515POPC   C4A33906  19.239  23.649   7.666
 2515POPC   C1B33907  19.328  24.054   8.770
 2515POPC   C2B33908  19.301  24.141   8.342
 2515POPC   C3B33909  19.146  24.098   7.939
 2515POPC   C4B33910  19.282  24.212   7.524
 2516POPC   NC333911  34.345  31.446   9.411
 2516POPC   PO433912  34.860  31.990   9.519
 2516POPC   GL133913  34.763  31.679   9.197
 2516POPC   GL233914  34.453  31.765   9.026
 2516POPC   C1A33915  34.794  31.424   8.821
 2516POPC   D2A33916  34.500  31.263   8.494
 2516POPC   C3A33917  34.703  31.414   8.105
 2516POPC   C4A33918  34.696  31.320   7.681
 2516POPC   C1B33919  34.240  31.763   8.612
 2516POPC   C2B33920  34.263  31.623   8.188
 2516POPC   C3B33921  34.423  31.792   7.818
 2516POPC   C4B33922  34.670  31.749   7.434
 2517POPC   NC333923  19.542   0.144   9.462
 2517POPC   PO433924  19.784   0.787   9.570
 2517POPC   GL133925  19.773   0.526   9.228
 2517POPC   GL233926  19.398   0.547   9.173
 2517POPC   C1A33927  19.877   0.278   8.863
 2517POPC   D2A33928  20.135   0.376   8.541
 2517POPC   C3A33929  19.984   0.252   8.147
 2517POPC   C4A33930  19.916   0.352   7.735
 2517POPC   C1B33931  19.589   0.696   8.796
 2517POPC   C2B33932  19.670   0.562   8.428
 2517POPC   C3B33933  19.746   0.699   8.055
 2517POPC   C4B33934  19.535   0.709   7.674
 2518POPC   NC333935  40.810  16.518   9.572
 2518POPC   PO433936  41.066  17.085   9.457
 2518POPC   GL133937  40.993  16.918   9.051
 2518POPC   GL233938  40.911  16.576   9.065
 2518POPC   C1A33939  41.106  16.826   8.619
 2518POPC   D2A33940  41.149  16.521   8.282
 2518POPC   C3A33941  40.920  16.741   7.957
 2518POPC   C4A33942  40.970  17.144   7.752
 2518POPC   C1B33943  40.612  16.702   8.731
 2518POPC   C2B33944  40.626  16.506   8.346
 2518POPC   C3B33945  40.436  16.523   7.967
 2518POPC   C4B33946  40.617  16.463   7.602
 2519POPC   NC333947  43.677  14.831   9.543
 2519POPC   PO433948  43.904  15.406   9.343
 2519POPC   GL133949  43.871  15.380   8.941
 2519POPC   GL233950  43.622  15.111   8.942
 2519POPC   C1A33951  43.991  15.187   8.557
 2519POPC   D2A33952  43.772  14.944   8.282
 2519POPC   C3A33953  44.049  14.939   7.949
 2519POPC   C4A33954  43.943  14.902   7.525
 2519POPC   C1B33955  43.507  15.392   8.592
 2519POPC   C2B33956  43.588  15.444   8.164
 2519POPC   C3B33957  43.618  15.195   7.812
 2519POPC   C4B33958  43.598  15.288   7.379
 2520POPC   NC333959  24.961  10.743   9.359
 2520POPC   PO433960  25.538  10.314   9.557
 2520POPC   GL133961  25.359  10.337   9.139
 2520POPC   GL233962  25.437  10.694   9.183
 2520POPC   C1A33963  25.155  10.398   8.710
 2520POPC   D2A33964  24.978  10.657   8.397
 2520POPC   C3A33965  25.161  10.517   8.019
 2520POPC   C4A33966  25.387  10.515   7.642
 2520POPC   C1B33967  25.512  10.748   8.763
 2520POPC   C2B33968  25.519  10.536   8.391
 2520POPC   C3B33969  25.667  10.672   8.030
 2520POPC   C4B33970  25.866  10.673   7.670
 2521POPC   NC333971  28.926  26.737   9.478
 2521POPC   PO433972  29.510  26.868   9.222
 2521POPC   GL133973  29.110  26.856   9.023
 2521POPC   GL233974  28.847  27.132   9.082
 2521POPC   C1A33975  29.062  26.666   8.650
 2521POPC   D2A33976  29.339  26.734   8.293
 2521POPC   C3A33977  29.202  26.579   7.898
 2521POPC   C4A33978  29.429  26.470   7.550
 2521POPC   C1B33979  28.777  27.079   8.615
 2521POPC   C2B33980  28.814  26.790   8.222
 2521POPC   C3B33981  28.786  26.838   7.778
 2521POPC   C4B33982  28.841  27.262   7.627
 2522POPC   NC333983  33.418  38.334   9.659
 2522POPC   PO433984  34.109  38.164   9.523
 2522POPC   GL133985  33.999  38.336   9.129
 2522POPC   GL233986  33.696  38.556   9.085
 2522POPC   C1A33987  33.869  38.170   8.734
 2522POPC   D2A33988  34.114  38.290   8.394
 2522POPC   C3A33989  33.943  38.428   8.003
 2522POPC   C4A33990  33.552  38.410   7.739
 2522POPC   C1B33991  33.796  38.675   8.637
 2522POPC   C2B33992  33.610  38.785   8.224
 2522POPC   C3B33993  33.648  38.894   7.786
 2522POPC   C4B33994  33.948  38.677   7.550
 2523POPC   NC333995  20.832  30.068   9.579
 2523POPC   PO433996  20.210  30.096   9.411
 2523POPC   GL133997  20.480  29.921   9.170
 2523POPC   GL233998  20.716  30.167   9.102
 2523POPC   C1A33999  20.478  29.914   8.727
 2523POPC   D2A34000  20.716  29.914   8.342
 2523POPC   C3A34001  20.505  29.940   7.958
 2523POPC   C4A34002  20.347  29.601   7.766
 2523POPC   C1B34003  20.930  30.159   8.743
 2523POPC   C2B34004  21.122  30.220   8.337
 2523POPC   C3B34005  20.912  30.280   7.915
 2523POPC   C4B34006  20.812  30.314   7.428
 2524POPC   NC334007  14.918   5.888   9.735
 2524POPC   PO434008  15.595   5.822   9.640
 2524POPC   GL134009  15.275   5.945   9.339
 2524POPC   GL234010  15.115   5.656   9.205
 2524POPC   C1A34011  15.215   6.061   8.899
 2524POPC   D2A34012  15.049   5.952   8.466
 2524POPC   C3A34013  15.246   5.978   8.087
 2524POPC   C4A34014  15.165   5.606   7.866
 2524POPC   C1B34015  14.916   5.559   8.815
 2524POPC   C2B34016  14.975   5.434   8.367
 2524POPC   C3B34017  14.829   5.252   7.966
 2524POPC   C4B34018  14.916   5.375   7.495
 2525POPC   NC334019  15.394   7.723   9.443
 2525POPC   PO434020  15.196   7.151   9.701
 2525POPC   GL134021  15.228   7.168   9.216
 2525POPC   GL234022  14.936   6.952   9.089
 2525POPC   C1A34023  15.450   7.394   8.866
 2525POPC   D2A34024  15.306   7.693   8.574
 2525POPC   C3A34025  15.313   7.522   8.165
 2525POPC   C4A34026  15.277   7.388   7.758
 2525POPC   C1B34027  14.991   7.258   8.743
 2525POPC   C2B34028  14.838   7.385   8.352
 2525POPC   C3B34029  14.910   7.141   7.999
 2525POPC   C4B34030  14.847   7.190   7.540
 2526POPC   NC334031  12.262  21.195   9.681
 2526POPC   PO434032  11.878  21.716   9.486
 2526POPC   GL134033  12.035  21.498   9.169
 2526POPC   GL234034  12.387  21.495   9.203
 2526POPC   C1A34035  11.859  21.468   8.758
 2526POPC   D2A34036  11.888  21.259   8.363
 2526POPC   C3A34037  11.870  21.551   7.997
 2526POPC   C4A34038  12.051  21.852   7.702
 2526POPC   C1B34039  12.328  21.256   8.790
 2526POPC   C2B34040  12.401  21.239   8.336
 2526POPC   C3B34041  12.187  21.131   7.962
 2526POPC   C4B34042  12.155  21.330   7.565
 2527POPC   NC334043   5.663  32.742   9.382
 2527POPC   PO434044   6.118  32.250   9.746
 2527POPC   GL134045   6.079  32.079   9.309
 2527POPC   GL234046   6.012  32.386   9.127
 2527POPC   C1A34047   5.978  31.920   8.875
 2527POPC   D2A34048   5.977  32.175   8.506
 2527POPC   C3A34049   6.085  32.075   8.108
 2527POPC   C4A34050   5.922  32.136   7.721
 2527POPC   C1B34051   5.765  32.549   8.791
 2527POPC   C2B34052   5.808  32.642   8.383
 2527POPC   C3B34053   5.667  32.380   8.093
 2527POPC   C4B34054   5.662  32.585   7.728
 2528POPC   NC334055  31.305  20.826   9.470
 2528POPC   PO434056  31.885  20.552   9.479
 2528POPC   GL134057  31.589  20.513   9.152
 2528POPC   GL234058  31.478  20.824   8.998
 2528POPC   C1A34059  31.460  20.416   8.715
 2528POPC   D2A34060  31.365  20.751   8.425
 2528POPC   C3A34061  31.425  20.580   8.051
 2528POPC   C4A34062  31.605  20.566   7.663
 2528POPC   C1B34063  31.698  21.081   8.663
 2528POPC   C2B34064  31.548  21.202   8.246
 2528POPC   C3B34065  31.532  21.026   7.830
 2528POPC   C4B34066  31.532  20.975   7.344
 2529POPC   NC334067  34.380  26.522   9.504
 2529POPC   PO434068  34.628  27.133   9.550
 2529POPC   GL134069  34.503  26.923   9.215
 2529POPC   GL234070  34.731  26.625   9.148
 2529POPC   C1A34071  34.328  26.977   8.855
 2529POPC   D2A34072  34.344  26.771   8.484
 2529POPC   C3A34073  34.416  26.992   8.075
 2529POPC   C4A34074  34.416  26.877   7.633
 2529POPC   C1B34075  34.484  26.381   8.852
 2529POPC   C2B34076  34.350  26.256   8.449
 2529POPC   C3B34077  34.309  26.494   8.060
 2529POPC   C4B34078  34.439  26.363   7.659
 2530POPC   NC334079  40.569  16.936   9.372
 2530POPC   PO434080  40.006  16.677   9.730
 2530POPC   GL134081  39.975  16.774   9.250
 2530POPC   GL234082  39.903  16.457   9.131
 2530POPC   C1A34083  40.098  16.956   8.803
 2530POPC   D2A34084  40.256  16.896   8.340
 2530POPC   C3A34085  40.013  16.814   7.930
 2530POPC   C4A34086  40.074  16.748   7.462
 2530POPC   C1B34087  40.124  16.458   8.739
 2530POPC   C2B34088  40.139  16.366   8.338
 2530POPC   C3B34089  39.865  16.336   7.999
 2530POPC   C4B34090  40.136  16.273   7.635
 2531POPC   NC334091  28.045   2.263   9.260
 2531POPC   PO434092  28.379   2.739   9.634
 2531POPC   GL134093  28.333   2.945   9.212
 2531POPC   GL234094  27.947   2.942   9.166
 2531POPC   C1A34095  28.611   3.044   8.832
 2531POPC   D2A34096  28.763   3.207   8.430
 2531POPC   C3A34097  28.530   3.055   8.070
 2531POPC   C4A34098  28.684   2.725   7.801
 2531POPC   C1B34099  28.111   2.854   8.745
 2531POPC   C2B34100  28.072   2.873   8.291
 2531POPC   C3B34101  28.181   2.640   7.924
 2531POPC   C4B34102  28.170   2.372   7.552
 2532POPC   NC334103  10.737   9.388   9.303
 2532POPC   PO434104  10.673  10.020   9.493
 2532POPC   GL134105  10.425   9.876   9.127
 2532POPC   GL234106  10.311   9.510   9.048
 2532POPC   C1A34107  10.385   9.835   8.668
 2532POPC   D2A34108  10.623   9.704   8.287
 2532POPC   C3A34109  10.383   9.800   7.930
 2532POPC   C4A34110  10.144   9.421   7.753
 2532POPC   C1B34111  10.579   9.349   8.667
 2532POPC   C2B34112  10.750   9.190   8.264
 2532POPC   C3B34113  10.652   9.383   7.853
 2532POPC   C4B34114  10.908   9.495   7.488
 2533POPC   NC334115  32.754  28.367   9.680
 2533POPC   PO434116  33.335  28.422   9.359
 2533POPC   GL134117  33.015  28.452   9.121
 2533POPC   GL234118  33.087  28.144   9.010
 2533POPC   C1A34119  32.958  28.633   8.716
 2533POPC   D2A34120  33.268  28.655   8.328
 2533POPC   C3A34121  33.096  28.557   7.920
 2533POPC   C4A34122  33.295  28.619   7.526
 2533POPC   C1B34123  33.278  28.245   8.628
 2533POPC   C2B34124  32.934  28.271   8.330
 2533POPC   C3B34125  32.803  28.136   7.947
 2533POPC   C4B34126  33.152  28.042   7.744
 2534POPC   NC334127   6.698  40.587   9.800
 2534POPC   PO434128   6.307  41.056   9.610
 2534POPC   GL134129   6.538  40.809   9.292
 2534POPC   GL234130   6.789  40.591   9.304
 2534POPC   C1A34131   6.612  40.718   8.843
 2534POPC   D2A34132   6.432  40.709   8.451
 2534POPC   C3A34133   6.733  40.803   8.149
 2534POPC   C4A34134   6.690  40.916   7.724
 2534POPC   C1B34135   7.049  40.473   8.957
 2534POPC   C2B34136   6.979  40.472   8.528
 2534POPC   C3B34137   7.095  40.394   8.135
 2534POPC   C4B34138   7.133  40.672   7.796
 2535POPC   NC334139  29.726  36.057   9.538
 2535POPC   PO434140  30.403  36.335   9.514
 2535POPC   GL134141  30.127  36.247   9.188
 2535POPC   GL234142  29.805  36.428   9.196
 2535POPC   C1A34143  30.093  36.326   8.751
 2535POPC   D2A34144  30.032  36.013   8.431
 2535POPC   C3A34145  30.114  36.265   8.079
 2535POPC   C4A34146  30.061  36.132   7.659
 2535POPC   C1B34147  29.594  36.247   8.824
 2535POPC   C2B34148  29.646  36.353   8.375
 2535POPC   C3B34149  29.640  36.112   7.988
 2535POPC   C4B34150  29.585  36.233   7.556
 2536POPC   NC334151   1.540   3.234   9.420
 2536POPC   PO434152   1.155   3.811   9.390
 2536POPC   GL134153   1.357   3.586   9.099
 2536POPC   GL234154   1.156   3.309   9.069
 2536POPC   C1A34155   1.390   3.671   8.701
 2536POPC   D2A34156   1.034   3.807   8.476
 2536POPC   C3A34157   1.080   3.788   8.062
 2536POPC   C4A34158   0.784   3.697   7.776
 2536POPC   C1B34159   0.964   3.322   8.650
 2536POPC   C2B34160   0.906   3.335   8.206
 2536POPC   C3B34161   1.095   3.251   7.827
 2536POPC   C4B34162   1.031   2.962   7.484
 2537POPC   NC334163  36.866  17.693   9.418
 2537POPC   PO434164  36.504  17.134   9.492
 2537POPC   GL134165  36.858  17.094   9.201
 2537POPC   GL234166  37.134  17.356   9.152
 2537POPC   C1A34167  36.865  17.167   8.750
 2537POPC   D2A34168  36.700  16.997   8.388
 2537POPC   C3A34169  36.741  17.239   8.016
 2537POPC   C4A34170  36.817  17.295   7.575
 2537POPC   C1B34171  37.256  17.579   8.765
 2537POPC   C2B34172  37.092  17.578   8.342
 2537POPC   C3B34173  37.142  17.533   7.883
 2537POPC   C4B34174  37.067  17.807   7.536
 2538POPC   NC334175  19.168  11.987   9.462
 2538POPC   PO434176  18.447  12.127   9.493
 2538POPC   GL134177  18.747  12.252   9.171
 2538POPC   GL234178  18.796  11.925   9.113
 2538POPC   C1A34179  19.065  12.215   8.809
 2538POPC   D2A34180  19.182  12.011   8.447
 2538POPC   C3A34181  19.106  12.199   8.084
 2538POPC   C4A34182  19.269  12.074   7.740
 2538POPC   C1B34183  18.882  11.723   8.769
 2538POPC   C2B34184  18.973  11.559   8.419
 2538POPC   C3B34185  19.002  11.698   7.976
 2538POPC   C4B34186  18.712  11.673   7.631
 2539POPC   NC334187  40.807   1.712   9.554
 2539POPC   PO434188  41.102   2.283   9.368
 2539POPC   GL134189  40.886   1.988   9.114
 2539POPC   GL234190  41.016   1.625   9.106
 2539POPC   C1A34191  40.609   2.129   8.775
 2539POPC   D2A34192  40.508   1.939   8.391
 2539POPC   C3A34193  40.584   2.205   8.016
 2539POPC   C4A34194  41.018   2.281   7.943
 2539POPC   C1B34195  41.122   1.762   8.702
 2539POPC   C2B34196  41.218   1.573   8.305
 2539POPC   C3B34197  41.004   1.777   7.980
 2539POPC   C4B34198  40.627   1.758   7.786
 2540POPC   NC334199  30.392  13.681   9.545
 2540POPC   PO434200  29.965  13.269   9.407
 2540POPC   GL134201  29.995  13.588   9.084
 2540POPC   GL234202  30.199  13.851   9.007
 2540POPC   C1A34203  29.822  13.681   8.684
 2540POPC   D2A34204  29.835  13.521   8.272
 2540POPC   C3A34205  29.906  13.791   7.949
 2540POPC   C4A34206  29.541  13.937   7.766
 2540POPC   C1B34207  30.318  13.471   8.726
 2540POPC   C2B34208  30.278  13.257   8.344
 2540POPC   C3B34209  30.198  13.332   7.913
 2540POPC   C4B34210  30.159  13.266   7.467
 2541POPC   NC334211   0.267  32.974   9.532
 2541POPC   PO434212   0.948  33.029   9.416
 2541POPC   GL134213   0.582  33.096   9.134
 2541POPC   GL234214   0.339  33.365   9.237
 2541POPC   C1A34215   0.311  32.853   8.848
 2541POPC   D2A34216   0.308  32.737   8.393
 2541POPC   C3A34217   0.598  33.017   8.200
 2541POPC   C4A34218   0.642  33.195   7.792
 2541POPC   C1B34219   0.273  33.443   8.865
 2541POPC   C2B34220   0.224  33.232   8.507
 2541POPC   C3B34221   0.200  33.308   8.080
 2541POPC   C4B34222   0.188  33.440   7.659
 2542POPC   NC334223  30.650  28.762   9.484
 2542POPC   PO434224  30.436  28.065   9.513
 2542POPC   GL134225  30.605  28.102   9.107
 2542POPC   GL234226  30.794  28.421   9.120
 2542POPC   C1A34227  30.507  28.249   8.708
 2542POPC   D2A34228  30.483  28.477   8.336
 2542POPC   C3A34229  30.413  28.286   7.953
 2542POPC   C4A34230  30.623  27.972   7.768
 2542POPC   C1B34231  30.834  28.654   8.719
 2542POPC   C2B34232  30.883  28.847   8.311
 2542POPC   C3B34233  30.748  28.691   7.942
 2542POPC   C4B34234  30.372  28.749   7.711
 2543POPC   NC334235   5.567  30.285   9.440
 2543POPC   PO434236   5.749  29.728   9.762
 2543POPC   GL134237   5.917  29.910   9.322
 2543POPC   GL234238   6.036  30.262   9.223
 2543POPC   C1A34239   6.166  29.920   8.891
 2543POPC   D2A34240   6.089  30.153   8.478
 2543POPC   C3A34241   5.916  29.881   8.169
 2543POPC   C4A34242   5.869  29.971   7.761
 2543POPC   C1B34243   5.715  30.146   8.845
 2543POPC   C2B34244   5.556  30.184   8.428
 2543POPC   C3B34245   5.410  29.999   8.027
 2543POPC   C4B34246   5.435  30.201   7.634
 2544POPC   NC334247  26.124   4.393   9.674
 2544POPC   PO434248  26.193   3.775   9.446
 2544POPC   GL134249  26.202   4.180   9.210
 2544POPC   GL234250  25.918   4.462   9.216
 2544POPC   C1A34251  26.211   4.304   8.797
 2544POPC   D2A34252  25.957   4.128   8.475
 2544POPC   C3A34253  26.094   4.201   8.107
 2544POPC   C4A34254  26.210   4.082   7.719
 2544POPC   C1B34255  25.691   4.299   8.865
 2544POPC   C2B34256  25.486   4.529   8.531
 2544POPC   C3B34257  25.633   4.678   8.125
 2544POPC   C4B34258  25.956   4.560   7.787
 2545POPC   NC334259  10.835  40.638   9.691
 2545POPC   PO434260  11.431  40.940   9.544
 2545POPC   GL134261  11.238  40.759   9.218
 2545POPC   GL234262  11.282  41.067   9.054
 2545POPC   C1A34263  11.369  40.593   8.817
 2545POPC   D2A34264  11.392  40.870   8.481
 2545POPC   C3A34265  11.247  40.752   8.090
 2545POPC   C4A34266  11.161  40.557   7.726
 2545POPC   C1B34267  11.010  41.204   8.768
 2545POPC   C2B34268  10.979  41.142   8.367
 2545POPC   C3B34269  11.208  41.261   8.051
 2545POPC   C4B34270  11.091  41.088   7.706
 2546POPC   NC334271   4.215  20.147   9.558
 2546POPC   PO434272   4.007  19.506   9.510
 2546POPC   GL134273   4.255  19.741   9.206
 2546POPC   GL234274   4.497  20.016   9.161
 2546POPC   C1A34275   4.131  19.802   8.818
 2546POPC   D2A34276   4.109  19.632   8.452
 2546POPC   C3A34277   4.400  19.748   8.193
 2546POPC   C4A34278   4.306  19.607   7.810
 2546POPC   C1B34279   4.566  20.033   8.730
 2546POPC   C2B34280   4.220  20.187   8.483
 2546POPC   C3B34281   4.137  20.192   8.087
 2546POPC   C4B34282   4.465  20.144   7.840
 2547POPC   NC334283  23.451  32.560   9.489
 2547POPC   PO434284  24.051  32.975   9.585
 2547POPC   GL134285  23.803  32.905   9.238
 2547POPC   GL234286  23.865  32.588   9.172
 2547POPC   C1A34287  23.611  32.986   8.833
 2547POPC   D2A34288  23.581  33.239   8.472
 2547POPC   C3A34289  23.520  33.022   8.072
 2547POPC   C4A34290  23.573  33.211   7.681
 2547POPC   C1B34291  24.004  32.674   8.759
 2547POPC   C2B34292  23.944  32.855   8.346
 2547POPC   C3B34293  23.979  32.857   7.896
 2547POPC   C4B34294  23.887  32.904   7.455
 2548POPC   NC334295  26.801  10.169   9.785
 2548POPC   PO434296  27.041   9.582   9.585
 2548POPC   GL134297  26.897   9.832   9.282
 2548POPC   GL234298  27.211   9.766   9.120
 2548POPC   C1A34299  26.785   9.952   8.858
 2548POPC   D2A34300  26.469   9.952   8.521
 2548POPC   C3A34301  26.467  10.148   8.113
 2548POPC   C4A34302  26.425   9.946   7.707
 2548POPC   C1B34303  27.188   9.624   8.725
 2548POPC   C2B34304  26.968   9.820   8.388
 2548POPC   C3B34305  26.781   9.714   8.008
 2548POPC   C4B34306  26.901   9.779   7.599
 2549POPC   NC334307  10.465   2.970   9.542
 2549POPC   PO434308  10.331   2.270   9.279
 2549POPC   GL134309  10.429   2.688   9.094
 2549POPC   GL234310  10.649   3.026   9.093
 2549POPC   C1A34311  10.650   2.662   8.726
 2549POPC   D2A34312  10.800   2.424   8.389
 2549POPC   C3A34313  10.585   2.512   8.006
 2549POPC   C4A34314  10.810   2.624   7.642
 2549POPC   C1B34315  10.418   3.130   8.758
 2549POPC   C2B34316  10.226   3.010   8.391
 2549POPC   C3B34317  10.442   3.000   8.020
 2549POPC   C4B34318  10.757   3.130   7.779
 2550POPC   NC334319  42.776   8.580   9.786
 2550POPC   PO434320  43.269   8.519   9.289
 2550POPC   GL134321  43.060   8.079   9.146
 2550POPC   GL234322  43.306   7.825   9.054
 2550POPC   C1A34323  42.791   8.110   8.746
 2550POPC   D2A34324  42.666   8.002   8.325
 2550POPC   C3A34325  42.803   8.332   8.049
 2550POPC   C4A34326  43.158   8.225   7.775
 2550POPC   C1B34327  43.315   8.158   8.721
 2550POPC   C2B34328  43.268   8.223   8.304
 2550POPC   C3B34329  43.595   8.353   8.026
 2550POPC   C4B34330  43.621   8.566   7.636
 2551POPC   NC334331  32.067  17.418   9.459
 2551POPC   PO434332  32.651  17.565   9.704
 2551POPC   GL134333  32.506  17.307   9.235
 2551POPC   GL234334  32.215  17.040   9.164
 2551POPC   C1A34335  32.340  17.396   8.791
 2551POPC   D2A34336  32.262  17.285   8.365
 2551POPC   C3A34337  32.218  17.669   8.056
 2551POPC   C4A34338  32.346  17.712   7.590
 2551POPC   C1B34339  31.891  17.196   8.861
 2551POPC   C2B34340  31.780  17.415   8.483
 2551POPC   C3B34341  31.873  17.282   8.062
 2551POPC   C4B34342  31.875  17.475   7.683
 2552POPC   NC334343  39.534   3.863   9.883
 2552POPC   PO434344  38.953   3.594   9.604
 2552POPC   GL134345  39.149   3.792   9.247
 2552POPC   GL234346  39.152   3.490   9.043
 2552POPC   C1A34347  39.275   3.924   8.803
 2552POPC   D2A34348  39.547   3.787   8.462
 2552POPC   C3A34349  39.504   3.800   8.042
 2552POPC   C4A34350  39.456   3.748   7.611
 2552POPC   C1B34351  39.162   3.469   8.584
 2552POPC   C2B34352  39.427   3.320   8.226
 2552POPC   C3B34353  39.337   3.150   7.827
 2552POPC   C4B34354  38.916   3.207   7.693
 2553POPC   NC334355  36.210  34.793   9.431
 2553POPC   PO434356  35.983  34.149   9.497
 2553POPC   GL134357  36.184  34.333   9.189
 2553POPC   GL234358  35.906  34.481   9.071
 2553POPC   C1A34359  36.348  34.433   8.807
 2553POPC   D2A34360  36.370  34.553   8.419
 2553POPC   C3A34361  36.086  34.569   8.156
 2553POPC   C4A34362  36.182  34.553   7.772
 2553POPC   C1B34363  35.812  34.516   8.630
 2553POPC   C2B34364  35.761  34.881   8.380
 2553POPC   C3B34365  35.840  35.001   7.981
 2553POPC   C4B34366  35.724  34.722   7.665
 2554POPC   NC334367  29.244  34.269   9.553
 2554POPC   PO434368  29.424  34.903   9.496
 2554POPC   GL134369  29.147  34.696   9.208
 2554POPC   GL234370  28.870  34.452   9.247
 2554POPC   C1A34371  29.237  34.461   8.847
 2554POPC   D2A34372  29.489  34.527   8.484
 2554POPC   C3A34373  29.403  34.509   8.072
 2554POPC   C4A34374  29.054  34.644   7.780
 2554POPC   C1B34375  28.783  34.234   8.844
 2554POPC   C2B34376  28.977  34.328   8.428
 2554POPC   C3B34377  29.032  34.188   7.995
 2554POPC   C4B34378  28.951  34.111   7.563
 2555POPC   NC334379  31.457  39.662   9.504
 2555POPC   PO434380  31.791  40.128   9.443
 2555POPC   GL134381  31.651  40.000   9.072
 2555POPC   GL234382  31.765  39.656   9.051
 2555POPC   C1A34383  31.433  40.244   8.723
 2555POPC   D2A34384  31.321  40.503   8.345
 2555POPC   C3A34385  31.424  40.277   7.971
 2555POPC   C4A34386  31.260  40.095   7.585
 2555POPC   C1B34387  31.680  39.802   8.619
 2555POPC   C2B34388  31.382  39.916   8.333
 2555POPC   C3B34389  31.392  39.729   7.943
 2555POPC   C4B34390  31.764  39.460   7.825
 2556POPC   NC334391   1.574  18.239   9.417
 2556POPC   PO434392   1.005  18.455   9.686
 2556POPC   GL134393   1.128  18.370   9.247
 2556POPC   GL234394   1.139  18.004   9.223
 2556POPC   C1A34395   1.237  18.473   8.808
 2556POPC   D2A34396   1.150  18.378   8.358
 2556POPC   C3A34397   1.502  18.395   8.073
 2556POPC   C4A34398   1.592  18.531   7.651
 2556POPC   C1B34399   0.966  18.036   8.794
 2556POPC   C2B34400   0.887  17.846   8.394
 2556POPC   C3B34401   0.836  18.095   8.048
 2556POPC   C4B34402   1.127  18.225   7.774
 2557POPC   NC334403  17.078  25.909   9.685
 2557POPC   PO434404  17.641  26.258   9.722
 2557POPC   GL134405  17.403  26.191   9.319
 2557POPC   GL234406  17.521  25.858   9.289
 2557POPC   C1A34407  17.426  26.280   8.845
 2557POPC   D2A34408  17.262  26.301   8.390
 2557POPC   C3A34409  17.563  26.216   8.045
 2557POPC   C4A34410  17.563  26.279   7.592
 2557POPC   C1B34411  17.825  25.947   8.944
 2557POPC   C2B34412  17.759  26.007   8.526
 2557POPC   C3B34413  17.886  25.831   8.151
 2557POPC   C4B34414  17.738  25.829   7.734
 2558POPC   NC334415  30.540   2.331   9.877
 2558POPC   PO434416  30.909   1.800   9.503
 2558POPC   GL134417  30.765   2.075   9.229
 2558POPC   GL234418  31.100   2.064   9.082
 2558POPC   C1A34419  30.635   2.042   8.817
 2558POPC   D2A34420  30.969   2.037   8.547
 2558POPC   C3A34421  30.813   2.167   8.187
 2558POPC   C4A34422  30.579   1.987   7.826
 2558POPC   C1B34423  30.965   1.651   8.883
 2558POPC   C2B34424  30.751   1.569   8.500
 2558POPC   C3B34425  30.889   1.670   8.097
 2558POPC   C4B34426  30.797   1.512   7.724
 2559POPC   NC334427  22.174  23.369   9.590
 2559POPC   PO434428  22.225  24.016   9.594
 2559POPC   GL134429  22.233  23.869   9.177
 2559POPC   GL234430  21.985  23.615   9.180
 2559POPC   C1A34431  22.376  23.943   8.750
 2559POPC   D2A34432  22.292  23.776   8.342
 2559POPC   C3A34433  22.256  24.025   7.919
 2559POPC   C4A34434  22.496  23.985   7.506
 2559POPC   C1B34435  21.834  23.759   8.788
 2559POPC   C2B34436  21.851  23.522   8.409
 2559POPC   C3B34437  21.976  23.602   7.972
 2559POPC   C4B34438  21.826  23.917   7.671
 2560POPC   NC334439   7.091  42.333   9.409
 2560POPC   PO434440   7.569  42.752   9.567
 2560POPC   GL134441   7.584  42.449   9.170
 2560POPC   GL234442   7.716  42.102   9.056
 2560POPC   C1A34443   7.360  42.320   8.765
 2560POPC   D2A34444   7.214  42.090   8.365
 2560POPC   C3A34445   7.264  42.379   7.982
 2560POPC   C4A34446   7.513  42.592   7.627
 2560POPC   C1B34447   7.547  41.825   8.749
 2560POPC   C2B34448   7.723  41.884   8.375
 2560POPC   C3B34449   7.581  41.872   7.979
 2560POPC   C4B34450   7.410  42.041   7.636
 2561POPC   NC334451  31.101  19.500   9.495
 2561POPC   PO434452  30.519  19.866   9.629
 2561POPC   GL134453  30.597  19.778   9.200
 2561POPC   GL234454  30.907  19.929   9.203
 2561POPC   C1A34455  30.514  19.971   8.795
 2561POPC   D2A34456  30.713  20.024   8.396
 2561POPC   C3A34457  30.513  19.809   8.055
 2561POPC   C4A34458  30.554  20.088   7.710
 2561POPC   C1B34459  31.021  19.812   8.784
 2561POPC   C2B34460  31.033  19.627   8.354
 2561POPC   C3B34461  30.998  19.852   7.938
 2561POPC   C4B34462  31.076  20.004   7.516
 2562POPC   NC334463  11.985   5.968   9.418
 2562POPC   PO434464  12.285   5.354   9.628
 2562POPC   GL134465  12.339   5.698   9.164
 2562POPC   GL234466  12.418   6.059   9.116
 2562POPC   C1A34467  11.983   5.906   8.798
 2562POPC   D2A34468  11.751   5.995   8.388
 2562POPC   C3A34469  11.802   5.642   8.105
 2562POPC   C4A34470  12.033   5.487   7.776
 2562POPC   C1B34471  12.467   5.948   8.705
 2562POPC   C2B34472  12.252   5.944   8.317
 2562POPC   C3B34473  12.092   5.995   7.881
 2562POPC   C4B34474  12.286   6.051   7.476
 2563POPC   NC334475  23.207   6.073   9.608
 2563POPC   PO434476  22.579   5.925   9.635
 2563POPC   GL134477  22.714   5.839   9.203
 2563POPC   GL234478  23.013   5.608   9.128
 2563POPC   C1A34479  22.679   6.014   8.776
 2563POPC   D2A34480  22.998   6.062   8.459
 2563POPC   C3A34481  22.882   6.051   8.040
 2563POPC   C4A34482  23.024   5.933   7.651
 2563POPC   C1B34483  23.000   5.595   8.682
 2563POPC   C2B34484  23.144   5.593   8.250
 2563POPC   C3B34485  23.174   5.424   7.818
 2563POPC   C4B34486  23.207   5.580   7.328
 2564POPC   NC334487   0.030  17.664   9.583
 2564POPC   PO434488  44.325  17.417   9.618
 2564POPC   GL134489  44.568  17.423   9.229
 2564POPC   GL234490  44.914  17.441   9.170
 2564POPC   C1A34491  44.503  17.507   8.801
 2564POPC   D2A34492  44.486  17.244   8.460
 2564POPC   C3A34493  44.418  17.506   8.128
 2564POPC   C4A34494  44.265  17.513   7.745
 2564POPC   C1B34495   0.009  17.660   8.821
 2564POPC   C2B34496  44.883  17.623   8.414
 2564POPC   C3B34497   0.060  17.681   8.007
 2564POPC   C4B34498  44.777  17.616   7.694
 2565POPC   NC334499  21.506  40.041   9.504
 2565POPC   PO434500  21.945  39.579   9.355
 2565POPC   GL134501  21.572  39.785   9.062
 2565POPC   GL234502  21.213  39.871   9.146
 2565POPC   C1A34503  21.357  39.943   8.670
 2565POPC   D2A34504  21.160  39.894   8.293
 2565POPC   C3A34505  21.481  39.817   8.027
 2565POPC   C4A34506  21.679  39.876   7.679
 2565POPC   C1B34507  21.053  40.245   8.943
 2565POPC   C2B34508  21.006  40.345   8.495
 2565POPC   C3B34509  21.011  40.360   8.057
 2565POPC   C4B34510  21.228  40.138   7.712
 2566POPC   NC334511  34.640  33.136   9.641
 2566POPC   PO434512  34.229  32.648   9.517
 2566POPC   GL134513  34.373  33.026   9.240
 2566POPC   GL234514  34.276  33.389   9.167
 2566POPC   C1A34515  34.575  33.091   8.851
 2566POPC   D2A34516  34.395  33.178   8.470
 2566POPC   C3A34517  34.370  33.007   8.068
 2566POPC   C4A34518  34.499  32.771   7.719
 2566POPC   C1B34519  34.437  33.597   8.765
 2566POPC   C2B34520  34.611  33.676   8.367
 2566POPC   C3B34521  34.498  33.513   8.011
 2566POPC   C4B34522  34.384  33.343   7.641
 2567POPC   NC334523  27.231  11.514   9.160
 2567POPC   PO434524  27.696  11.250   9.606
 2567POPC   GL134525  27.689  11.280   9.170
 2567POPC   GL234526  27.774  11.632   9.169
 2567POPC   C1A34527  27.550  11.107   8.755
 2567POPC   D2A34528  27.767  11.150   8.374
 2567POPC   C3A34529  27.440  11.155   8.083
 2567POPC   C4A34530  27.449  10.926   7.719
 2567POPC   C1B34531  27.808  11.541   8.732
 2567POPC   C2B34532  27.610  11.716   8.390
 2567POPC   C3B34533  27.734  11.596   8.018
 2567POPC   C4B34534  27.709  11.358   7.672
 2568POPC   NC334535  22.503  32.222   9.573
 2568POPC   PO434536  23.182  32.151   9.585
 2568POPC   GL134537  22.903  32.194   9.240
 2568POPC   GL234538  23.074  32.456   9.176
 2568POPC   C1A34539  22.894  32.232   8.769
 2568POPC   D2A34540  22.949  32.074   8.377
 2568POPC   C3A34541  23.288  32.050   8.113
 2568POPC   C4A34542  22.965  32.043   7.793
 2568POPC   C1B34543  23.203  32.656   8.825
 2568POPC   C2B34544  23.279  32.493   8.440
 2568POPC   C3B34545  23.107  32.522   8.055
 2568POPC   C4B34546  23.279  32.408   7.664
 2569POPC   NC334547   1.867  10.466   9.644
 2569POPC   PO434548   2.521  10.474   9.681
 2569POPC   GL134549   2.208  10.506   9.258
 2569POPC   GL234550   1.856  10.357   9.151
 2569POPC   C1A34551   2.084  10.671   8.822
 2569POPC   D2A34552   1.732  10.587   8.508
 2569POPC   C3A34553   1.794  10.652   8.068
 2569POPC   C4A34554   2.192  10.658   7.884
 2569POPC   C1B34555   1.882  10.147   8.722
 2569POPC   C2B34556   1.988  10.184   8.252
 2569POPC   C3B34557   2.005  10.209   7.764
 2569POPC   C4B34558   1.866  10.117   7.328
 2570POPC   NC334559  32.864  11.752   9.505
 2570POPC   PO434560  33.193  12.252   9.483
 2570POPC   GL134561  33.073  12.084   9.127
 2570POPC   GL234562  32.717  12.134   9.122
 2570POPC   C1A34563  33.053  11.956   8.701
 2570POPC   D2A34564  33.332  11.783   8.379
 2570POPC   C3A34565  33.140  12.010   8.043
 2570POPC   C4A34566  32.815  11.744   7.811
 2570POPC   C1B34567  32.554  12.121   8.688
 2570POPC   C2B34568  32.684  12.167   8.228
 2570POPC   C3B34569  32.770  12.256   7.761
 2570POPC   C4B34570  32.866  12.409   7.320
 2571POPC   NC334571  22.326  15.793   9.459
 2571POPC   PO434572  21.965  15.122   9.418
 2571POPC   GL134573  22.098  15.424   9.134
 2571POPC   GL234574  21.775  15.534   8.999
 2571POPC   C1A34575  22.165  15.338   8.712
 2571POPC   D2A34576  22.090  15.372   8.312
 2571POPC   C3A34577  22.195  14.976   8.129
 2571POPC   C4A34578  22.408  14.904   7.751
 2571POPC   C1B34579  21.677  15.164   8.771
 2571POPC   C2B34580  21.686  15.021   8.336
 2571POPC   C3B34581  21.789  15.190   7.918
 2571POPC   C4B34582  22.164  15.392   7.809
 2572POPC   NC334583  33.153  28.898   9.445
 2572POPC   PO434584  33.246  29.643   9.510
 2572POPC   GL134585  33.129  29.508   9.108
 2572POPC   GL234586  32.860  29.290   9.136
 2572POPC   C1A34587  33.213  29.201   8.756
 2572POPC   D2A34588  33.458  29.121   8.369
 2572POPC   C3A34589  33.454  29.432   8.017
 2572POPC   C4A34590  33.101  29.528   7.748
 2572POPC   C1B34591  32.694  29.122   8.729
 2572POPC   C2B34592  32.870  28.965   8.352
 2572POPC   C3B34593  33.069  29.065   7.989
 2572POPC   C4B34594  32.661  29.163   7.898
 2573POPC   NC334595  24.559  25.699   9.614
 2573POPC   PO434596  24.804  26.276   9.631
 2573POPC   GL134597  24.644  26.032   9.232
 2573POPC   GL234598  24.873  25.742   9.194
 2573POPC   C1A34599  24.381  26.033   8.799
 2573POPC   D2A34600  24.185  26.182   8.363
 2573POPC   C3A34601  24.362  26.015   7.960
 2573POPC   C4A34602  24.565  26.094   7.555
 2573POPC   C1B34603  24.899  25.996   8.796
 2573POPC   C2B34604  24.701  26.196   8.405
 2573POPC   C3B34605  24.825  26.248   7.978
 2573POPC   C4B34606  24.989  25.897   7.739
 2574POPC   NC334607  27.883  13.754   9.533
 2574POPC   PO434608  27.508  13.221   9.603
 2574POPC   GL134609  27.493  13.593   9.217
 2574POPC   GL234610  27.705  13.786   9.056
 2574POPC   C1A34611  27.487  13.445   8.751
 2574POPC   D2A34612  27.584  13.667   8.390
 2574POPC   C3A34613  27.360  13.605   7.979
 2574POPC   C4A34614  27.130  13.607   7.584
 2574POPC   C1B34615  27.663  14.045   8.752
 2574POPC   C2B34616  27.890  14.148   8.410
 2574POPC   C3B34617  27.731  14.009   8.066
 2574POPC   C4B34618  27.862  13.908   7.734
 2575POPC   NC334619  36.581  24.976   9.452
 2575POPC   PO434620  37.096  25.395   9.421
 2575POPC   GL134621  36.843  25.286   9.094
 2575POPC   GL234622  36.951  24.959   9.102
 2575POPC   C1A34623  36.915  25.209   8.654
 2575POPC   D2A34624  37.139  25.298   8.284
 2575POPC   C3A34625  36.816  25.360   7.995
 2575POPC   C4A34626  36.854  25.308   7.567
 2575POPC   C1B34627  37.041  24.729   8.775
 2575POPC   C2B34628  36.894  24.763   8.370
 2575POPC   C3B34629  37.042  24.891   7.989
 2575POPC   C4B34630  37.088  24.843   7.565
 2576POPC   NC334631  42.042   8.279   9.497
 2576POPC   PO434632  42.721   8.145   9.582
 2576POPC   GL134633  42.486   8.084   9.192
 2576POPC   GL234634  42.160   7.945   9.132
 2576POPC   C1A34635  42.318   8.357   8.850
 2576POPC   D2A34636  42.501   8.468   8.471
 2576POPC   C3A34637  42.259   8.290   8.184
 2576POPC   C4A34638  42.291   8.298   7.788
 2576POPC   C1B34639  42.346   7.834   8.722
 2576POPC   C2B34640  42.170   7.815   8.317
 2576POPC   C3B34641  42.310   7.812   7.916
 2576POPC   C4B34642  42.704   7.928   7.755
 2577POPC   NC334643  16.484  28.525  10.007
 2577POPC   PO434644  16.990  28.420   9.625
 2577POPC   GL134645  16.838  28.435   9.194
 2577POPC   GL234646  16.531  28.488   9.206
 2577POPC   C1A34647  16.746  28.569   8.758
 2577POPC   D2A34648  16.894  28.398   8.397
 2577POPC   C3A34649  16.813  28.574   7.987
 2577POPC   C4A34650  16.682  28.457   7.591
 2577POPC   C1B34651  16.540  28.122   8.897
 2577POPC   C2B34652  16.452  28.175   8.500
 2577POPC   C3B34653  16.333  28.435   8.175
 2577POPC   C4B34654  16.234  28.242   7.795
 2578POPC   NC334655   2.691  31.882   9.547
 2578POPC   PO434656   2.488  31.192   9.513
 2578POPC   GL134657   2.767  31.265   9.118
 2578POPC   GL234658   2.830  31.584   9.134
 2578POPC   C1A34659   2.697  31.366   8.680
 2578POPC   D2A34660   2.600  31.556   8.294
 2578POPC   C3A34661   2.847  31.423   8.005
 2578POPC   C4A34662   2.958  31.297   7.660
 2578POPC   C1B34663   3.034  31.736   8.781
 2578POPC   C2B34664   3.170  31.579   8.399
 2578POPC   C3B34665   3.248  31.734   8.000
 2578POPC   C4B34666   2.865  31.922   7.909
 2579POPC   NC334667  34.431  28.021   9.376
 2579POPC   PO434668  34.299  28.683   9.422
 2579POPC   GL134669  34.634  28.470   9.201
 2579POPC   GL234670  34.804  28.738   9.072
 2579POPC   C1A34671  34.749  28.245   8.800
 2579POPC   D2A34672  34.738  28.256   8.342
 2579POPC   C3A34673  34.583  27.967   8.030
 2579POPC   C4A34674  34.463  27.991   7.565
 2579POPC   C1B34675  34.449  28.696   8.766
 2579POPC   C2B34676  34.440  28.736   8.321
 2579POPC   C3B34677  34.463  28.473   7.948
 2579POPC   C4B34678  34.791  28.333   7.753
 2580POPC   NC334679  24.021   5.571   9.484
 2580POPC   PO434680  23.274   5.603   9.581
 2580POPC   GL134681  23.541   5.624   9.205
 2580POPC   GL234682  23.878   5.721   9.030
 2580POPC   C1A34683  23.445   5.823   8.802
 2580POPC   D2A34684  23.633   5.809   8.406
 2580POPC   C3A34685  23.408   5.980   8.040
 2580POPC   C4A34686  23.527   5.756   7.679
 2580POPC   C1B34687  23.968   6.070   8.750
 2580POPC   C2B34688  24.026   6.159   8.334
 2580POPC   C3B34689  23.921   5.908   7.993
 2580POPC   C4B34690  23.963   5.960   7.555
 2581POPC   NC334691  30.734  44.292   9.649
 2581POPC   PO434692  30.890  44.925   9.487
 2581POPC   GL134693  30.649  44.756   9.132
 2581POPC   GL234694  30.637  44.422   9.157
 2581POPC   C1A34695  30.692  44.640   8.694
 2581POPC   D2A34696  30.791  44.788   8.303
 2581POPC   C3A34697  30.843  44.624   7.910
 2581POPC   C4A34698  30.670  44.867   7.590
 2581POPC   C1B34699  30.392  44.246   8.788
 2581POPC   C2B34700  30.587  44.274   8.349
 2581POPC   C3B34701  30.508  44.187   7.917
 2581POPC   C4B34702  30.363  44.427   7.585
 2582POPC   NC334703   6.452  35.458   9.600
 2582POPC   PO434704   5.820  35.455   9.562
 2582POPC   GL134705   5.900  35.281   9.151
 2582POPC   GL234706   5.617  35.063   9.110
 2582POPC   C1A34707   6.019  35.483   8.771
 2582POPC   D2A34708   6.245  35.442   8.396
 2582POPC   C3A34709   6.038  35.637   8.050
 2582POPC   C4A34710   5.743  35.415   7.820
 2582POPC   C1B34711   5.541  35.305   8.734
 2582POPC   C2B34712   5.686  35.363   8.346
 2582POPC   C3B34713   5.964  35.101   8.148
 2582POPC   C4B34714   5.921  34.924   7.783
 2583POPC   NC334715   3.614  19.751   9.565
 2583POPC   PO434716   3.085  19.896   9.354
 2583POPC   GL134717   3.444  19.915   9.086
 2583POPC   GL234718   3.809  19.981   9.167
 2583POPC   C1A34719   3.631  19.677   8.772
 2583POPC   D2A34720   3.614  19.511   8.391
 2583POPC   C3A34721   3.349  19.769   8.162
 2583POPC   C4A34722   3.416  19.843   7.736
 2583POPC   C1B34723   3.782  20.181   8.783
 2583POPC   C2B34724   3.744  20.011   8.386
 2583POPC   C3B34725   3.849  19.794   8.013
 2583POPC   C4B34726   3.872  20.092   7.656
 2584POPC   NC334727  29.503   1.370   9.299
 2584POPC   PO434728  28.880   1.141   9.513
 2584POPC   GL134729  28.988   1.397   9.176
 2584POPC   GL234730  29.152   1.117   9.013
 2584POPC   C1A34731  29.017   1.551   8.758
 2584POPC   D2A34732  29.327   1.325   8.516
 2584POPC   C3A34733  29.295   1.419   8.099
 2584POPC   C4A34734  29.023   1.368   7.761
 2584POPC   C1B34735  29.419   0.861   8.751
 2584POPC   C2B34736  29.339   0.764   8.321
 2584POPC   C3B34737  29.220   0.933   7.915
 2584POPC   C4B34738  29.183   1.005   7.439
 2585POPC   NC334739  25.404  31.137   9.520
 2585POPC   PO434740  25.100  31.667   9.530
 2585POPC   GL134741  25.168  31.418   9.144
 2585POPC   GL234742  25.493  31.267   9.045
 2585POPC   C1A34743  25.098  31.341   8.707
 2585POPC   D2A34744  25.202  31.130   8.333
 2585POPC   C3A34745  25.161  31.430   8.026
 2585POPC   C4A34746  24.767  31.600   7.896
 2585POPC   C1B34747  25.560  31.636   8.810
 2585POPC   C2B34748  25.435  31.779   8.422
 2585POPC   C3B34749  25.537  31.815   7.994
 2585POPC   C4B34750  25.458  31.574   7.624
 2586POPC   NC334751  14.637  39.448   9.278
 2586POPC   PO434752  14.321  39.013   9.704
 2586POPC   GL134753  14.310  39.033   9.258
 2586POPC   GL234754  13.980  39.132   9.156
 2586POPC   C1A34755  14.387  39.072   8.828
 2586POPC   D2A34756  14.577  39.349   8.503
 2586POPC   C3A34757  14.322  39.485   8.175
 2586POPC   C4A34758  14.405  39.316   7.802
 2586POPC   C1B34759  13.947  39.295   8.744
 2586POPC   C2B34760  14.116  39.066   8.408
 2586POPC   C3B34761  14.104  38.973   8.007
 2586POPC   C4B34762  13.918  39.261   7.700
 2587POPC   NC334763  18.141  10.495   9.572
 2587POPC   PO434764  18.535   9.900   9.602
 2587POPC   GL134765  18.517  10.308   9.230
 2587POPC   GL234766  18.280  10.659   9.133
 2587POPC   C1A34767  18.520  10.455   8.763
 2587POPC   D2A34768  18.501  10.217   8.394
 2587POPC   C3A34769  18.485  10.455   8.055
 2587POPC   C4A34770  18.359  10.336   7.674
 2587POPC   C1B34771  17.994  10.546   8.808
 2587POPC   C2B34772  18.100  10.519   8.396
 2587POPC   C3B34773  17.944  10.429   8.005
 2587POPC   C4B34774  17.819  10.657   7.646
 2588POPC   NC334775  11.750   8.261   9.766
 2588POPC   PO434776  12.263   7.858   9.544
 2588POPC   GL134777  12.148   8.001   9.153
 2588POPC   GL234778  11.813   8.196   9.234
 2588POPC   C1A34779  12.337   7.859   8.761
 2588POPC   D2A34780  12.190   7.830   8.343
 2588POPC   C3A34781  12.332   8.134   8.049
 2588POPC   C4A34782  11.941   8.247   7.839
 2588POPC   C1B34783  11.986   8.465   8.892
 2588POPC   C2B34784  12.197   8.466   8.466
 2588POPC   C3B34785  12.232   8.639   8.042
 2588POPC   C4B34786  11.841   8.742   7.829
 2589POPC   NC334787  35.744  22.187   9.443
 2589POPC   PO434788  36.328  22.342   9.558
 2589POPC   GL134789  36.430  22.179   9.158
 2589POPC   GL234790  36.091  22.268   9.064
 2589POPC   C1A34791  36.610  22.003   8.756
 2589POPC   D2A34792  36.492  22.065   8.317
 2589POPC   C3A34793  36.155  21.953   8.074
 2589POPC   C4A34794  36.188  21.744   7.694
 2589POPC   C1B34795  36.261  22.367   8.672
 2589POPC   C2B34796  36.034  22.424   8.293
 2589POPC   C3B34797  36.075  22.422   7.876
 2589POPC   C4B34798  36.209  22.290   7.479
 2590POPC   NC334799  26.630  21.695   9.569
 2590POPC   PO434800  27.141  22.151   9.570
 2590POPC   GL134801  26.892  21.990   9.261
 2590POPC   GL234802  26.754  22.271   9.150
 2590POPC   C1A34803  26.968  21.902   8.842
 2590POPC   D2A34804  27.137  22.039   8.455
 2590POPC   C3A34805  26.870  22.005   8.088
 2590POPC   C4A34806  27.045  22.099   7.694
 2590POPC   C1B34807  26.976  22.431   8.819
 2590POPC   C2B34808  26.821  22.432   8.402
 2590POPC   C3B34809  26.892  22.510   7.976
 2590POPC   C4B34810  26.622  22.389   7.668
 2591POPC   NC334811  29.925  40.172   9.597
 2591POPC   PO434812  30.198  39.614   9.499
 2591POPC   GL134813  30.100  39.976   9.161
 2591POPC   GL234814  29.749  40.158   9.119
 2591POPC   C1A34815  29.971  39.945   8.717
 2591POPC   D2A34816  29.891  39.639   8.386
 2591POPC   C3A34817  29.892  39.841   7.970
 2591POPC   C4A34818  30.202  40.041   7.707
 2591POPC   C1B34819  29.489  40.125   8.738
 2591POPC   C2B34820  29.604  40.114   8.328
 2591POPC   C3B34821  29.712  40.377   7.985
 2591POPC   C4B34822  29.803  40.362   7.543
 2592POPC   NC334823  16.077  11.043   9.535
 2592POPC   PO434824  15.832  11.633   9.623
 2592POPC   GL134825  15.959  11.435   9.246
 2592POPC   GL234826  16.216  11.200   9.074
 2592POPC   C1A34827  15.726  11.403   8.875
 2592POPC   D2A34828  15.690  11.213   8.461
 2592POPC   C3A34829  15.876  11.423   8.128
 2592POPC   C4A34830  15.932  11.509   7.707
 2592POPC   C1B34831  15.975  10.950   8.791
 2592POPC   C2B34832  15.954  10.765   8.358
 2592POPC   C3B34833  16.047  10.948   7.945
 2592POPC   C4B34834  15.929  11.046   7.513
 2593POPC   NC334835  25.029  23.176   9.611
 2593POPC   PO434836  24.314  23.002   9.567
 2593POPC   GL134837  24.463  23.066   9.173
 2593POPC   GL234838  24.676  23.390   9.180
 2593POPC   C1A34839  24.492  22.760   8.816
 2593POPC   D2A34840  24.394  22.910   8.415
 2593POPC   C3A34841  24.607  22.645   8.135
 2593POPC   C4A34842  24.761  22.718   7.688
 2593POPC   C1B34843  24.800  23.152   8.792
 2593POPC   C2B34844  24.810  23.204   8.380
 2593POPC   C3B34845  24.624  23.143   7.988
 2593POPC   C4B34846  24.491  23.278   7.601
 2594POPC   NC334847  20.502   2.237   9.575
 2594POPC   PO434848  20.240   1.614   9.588
 2594POPC   GL134849  20.491   1.808   9.212
 2594POPC   GL234850  20.612   2.123   9.100
 2594POPC   C1A34851  20.716   1.629   8.849
 2594POPC   D2A34852  20.818   1.726   8.413
 2594POPC   C3A34853  20.520   1.881   8.128
 2594POPC   C4A34854  20.687   1.891   7.740
 2594POPC   C1B34855  20.501   2.095   8.680
 2594POPC   C2B34856  20.703   2.319   8.367
 2594POPC   C3B34857  20.688   2.375   7.936
 2594POPC   C4B34858  20.344   2.274   7.657
 2595POPC   NC334859   4.298  41.526   9.458
 2595POPC   PO434860   4.417  42.197   9.616
 2595POPC   GL134861   4.443  42.048   9.161
 2595POPC   GL234862   4.185  41.838   9.057
 2595POPC   C1A34863   4.595  41.864   8.761
 2595POPC   D2A34864   4.329  41.754   8.416
 2595POPC   C3A34865   4.556  41.656   8.056
 2595POPC   C4A34866   4.459  41.774   7.618
 2595POPC   C1B34867   4.315  41.434   8.811
 2595POPC   C2B34868   4.369  41.234   8.413
 2595POPC   C3B34869   4.166  41.329   8.029
 2595POPC   C4B34870   4.433  41.274   7.681
 2596POPC   NC334871  33.070  39.456   9.524
 2596POPC   PO434872  33.339  38.780   9.509
 2596POPC   GL134873  33.175  39.056   9.178
 2596POPC   GL234874  32.874  39.197   9.137
 2596POPC   C1A34875  33.183  39.235   8.741
 2596POPC   D2A34876  33.357  39.213   8.351
 2596POPC   C3A34877  33.138  39.090   7.992
 2596POPC   C4A34878  33.267  39.248   7.628
 2596POPC   C1B34879  32.711  39.417   8.783
 2596POPC   C2B34880  32.811  39.283   8.358
 2596POPC   C3B34881  32.728  39.453   7.957
 2596POPC   C4B34882  32.803  39.803   7.773
 2597POPC   NC334883  23.991  43.763   9.886
 2597POPC   PO434884  23.705  44.255   9.522
 2597POPC   GL134885  23.691  44.011   9.132
 2597POPC   GL234886  23.517  43.713   9.065
 2597POPC   C1A34887  23.969  43.839   8.761
 2597POPC   D2A34888  23.966  43.904   8.335
 2597POPC   C3A34889  24.134  43.640   8.035
 2597POPC   C4A34890  23.819  43.708   7.732
 2597POPC   C1B34891  23.495  43.930   8.656
 2597POPC   C2B34892  23.439  43.871   8.233
 2597POPC   C3B34893  23.315  43.880   7.823
 2597POPC   C4B34894  23.261  43.746   7.423
 2598POPC   NC334895  43.151  37.149   9.565
 2598POPC   PO434896  42.838  36.578   9.788
 2598POPC   GL134897  42.869  36.743   9.309
 2598POPC   GL234898  43.198  36.795   9.123
 2598POPC   C1A34899  42.777  36.827   8.841
 2598POPC   D2A34900  42.971  36.731   8.451
 2598POPC   C3A34901  42.883  36.951   8.090
 2598POPC   C4A34902  42.749  36.813   7.697
 2598POPC   C1B34903  43.217  37.074   8.729
 2598POPC   C2B34904  43.162  37.313   8.339
 2598POPC   C3B34905  43.290  37.369   7.939
 2598POPC   C4B34906  43.229  36.972   7.729
 2599POPC   NC334907  42.365  22.711   9.492
 2599POPC   PO434908  42.982  22.900   9.520
 2599POPC   GL134909  42.675  22.951   9.130
 2599POPC   GL234910  42.283  23.002   9.088
 2599POPC   C1A34911  42.566  22.844   8.704
 2599POPC   D2A34912  42.759  22.828   8.316
 2599POPC   C3A34913  42.474  22.877   8.010
 2599POPC   C4A34914  42.499  23.070   7.598
 2599POPC   C1B34915  42.034  22.870   8.749
 2599POPC   C2B34916  42.110  23.061   8.360
 2599POPC   C3B34917  41.973  22.917   7.968
 2599POPC   C4B34918  42.096  22.767   7.578
 2600POPC   NC334919  16.747  21.817   9.493
 2600POPC   PO434920  16.500  21.169   9.631
 2600POPC   GL134921  16.616  21.169   9.214
 2600POPC   GL234922  16.288  21.006   9.173
 2600POPC   C1A34923  16.818  21.430   8.876
 2600POPC   D2A34924  17.017  21.543   8.481
 2600POPC   C3A34925  16.822  21.442   8.092
 2600POPC   C4A34926  16.767  21.694   7.750
 2600POPC   C1B34927  16.335  21.271   8.812
 2600POPC   C2B34928  16.453  21.483   8.463
 2600POPC   C3B34929  16.329  21.591   8.073
 2600POPC   C4B34930  16.436  21.287   7.775
 2601POPC   NC334931  22.561   3.793   9.712
 2601POPC   PO434932  23.048   3.307   9.470
 2601POPC   GL134933  23.143   3.407   9.084
 2601POPC   GL234934  23.054   3.746   9.102
 2601POPC   C1A34935  23.137   3.429   8.657
 2601POPC   D2A34936  23.236   3.308   8.249
 2601POPC   C3A34937  22.989   3.498   7.951
 2601POPC   C4A34938  22.878   3.193   7.712
 2601POPC   C1B34939  23.302   3.920   8.752
 2601POPC   C2B34940  23.210   3.830   8.341
 2601POPC   C3B34941  23.359   3.832   7.966
 2601POPC   C4B34942  23.142   3.821   7.573
 2602POPC   NC334943  17.801  37.724   9.558
 2602POPC   PO434944  17.071  37.522   9.492
 2602POPC   GL134945  17.377  37.586   9.177
 2602POPC   GL234946  17.492  37.904   9.199
 2602POPC   C1A34947  17.420  37.651   8.725
 2602POPC   D2A34948  17.540  37.426   8.369
 2602POPC   C3A34949  17.363  37.392   7.991
 2602POPC   C4A34950  17.639  37.543   7.681
 2602POPC   C1B34951  17.470  38.144   8.833
 2602POPC   C2B34952  17.456  38.104   8.421
 2602POPC   C3B34953  17.486  37.879   8.072
 2602POPC   C4B34954  17.632  38.098   7.763
 2603POPC   NC334955  37.756  17.922   9.557
 2603POPC   PO434956  37.535  18.547   9.796
 2603POPC   GL134957  37.747  18.424   9.367
 2603POPC   GL234958  37.541  18.162   9.165
 2603POPC   C1A34959  37.948  18.361   8.940
 2603POPC   D2A34960  38.047  18.187   8.519
 2603POPC   C3A34961  37.781  18.250   8.150
 2603POPC   C4A34962  37.973  18.377   7.742
 2603POPC   C1B34963  37.466  18.264   8.713
 2603POPC   C2B34964  37.122  18.108   8.444
 2603POPC   C3B34965  37.162  18.002   8.038
 2603POPC   C4B34966  37.506  17.978   7.792
 2604POPC   NC334967  19.323  24.671   9.694
 2604POPC   PO434968  19.780  24.258   9.544
 2604POPC   GL134969  19.819  24.496   9.163
 2604POPC   GL234970  20.090  24.747   9.081
 2604POPC   C1A34971  20.060  24.321   8.812
 2604POPC   D2A34972  20.041  24.170   8.418
 2604POPC   C3A34973  19.742  24.360   8.186
 2604POPC   C4A34974  19.782  24.327   7.769
 2604POPC   C1B34975  19.791  24.781   8.735
 2604POPC   C2B34976  19.794  24.910   8.334
 2604POPC   C3B34977  19.933  24.783   7.963
 2604POPC   C4B34978  19.686  24.785   7.587
 2605POPC   NC334979  30.138  41.849   9.615
 2605POPC   PO434980  29.817  41.287   9.439
 2605POPC   GL134981  29.895  41.413   9.043
 2605POPC   GL234982  29.905  41.734   9.168
 2605POPC   C1A34983  29.866  41.492   8.601
 2605POPC   D2A34984  29.900  41.351   8.171
 2605POPC   C3A34985  29.654  41.599   7.886
 2605POPC   C4A34986  29.614  41.601   7.429
 2605POPC   C1B34987  30.089  41.893   8.826
 2605POPC   C2B34988  29.962  41.996   8.417
 2605POPC   C3B34989  30.046  41.906   8.008
 2605POPC   C4B34990  30.182  42.107   7.658
 2606POPC   NC334991  15.307  24.395   9.460
 2606POPC   PO434992  14.957  24.965   9.451
 2606POPC   GL134993  15.170  24.795   9.129
 2606POPC   GL234994  15.036  24.437   9.034
 2606POPC   C1A34995  15.144  24.806   8.709
 2606POPC   D2A34996  14.899  24.693   8.398
 2606POPC   C3A34997  15.177  24.659   8.052
 2606POPC   C4A34998  15.382  24.611   7.644
 2606POPC   C1B34999  14.983  24.068   8.718
 2606POPC   C2B35000  14.949  24.111   8.257
 2606POPC   C3B35001  15.085  24.213   7.818
 2606POPC   C4B35002  15.017  24.262   7.343
 2607POPC   NC335003  42.960  26.484   9.555
 2607POPC   PO435004  43.443  26.948   9.587
 2607POPC   GL135005  43.146  26.874   9.291
 2607POPC   GL235006  43.324  26.609   9.166
 2607POPC   C1A35007  43.000  26.917   8.867
 2607POPC   D2A35008  43.224  26.805   8.493
 2607POPC   C3A35009  43.095  26.813   8.060
 2607POPC   C4A35010  42.959  27.122   7.761
 2607POPC   C1B35011  43.446  26.435   8.772
 2607POPC   C2B35012  43.361  26.312   8.347
 2607POPC   C3B35013  43.450  26.475   7.919
 2607POPC   C4B35014  43.449  26.750   7.583
 2608POPC   NC335015   8.809   1.852   9.361
 2608POPC   PO435016   9.460   2.134   9.529
 2608POPC   GL135017   9.240   1.970   9.129
 2608POPC   GL235018   9.073   1.700   8.847
 2608POPC   C1A35019   9.087   2.192   8.790
 2608POPC   D2A35020   9.066   2.028   8.388
 2608POPC   C3A35021   9.017   2.255   8.028
 2608POPC   C4A35022   9.159   2.153   7.659
 2608POPC   C1B35023   8.661   1.882   8.740
 2608POPC   C2B35024   8.563   2.153   8.458
 2608POPC   C3B35025   8.619   1.975   8.095
 2608POPC   C4B35026   8.826   1.765   7.827
 2609POPC   NC335027  34.161  14.129   9.575
 2609POPC   PO435028  33.503  14.332   9.520
 2609POPC   GL135029  33.839  14.386   9.182
 2609POPC   GL235030  34.030  14.088   9.093
 2609POPC   C1A35031  33.849  14.358   8.704
 2609POPC   D2A35032  33.881  14.675   8.386
 2609POPC   C3A35033  33.549  14.581   8.091
 2609POPC   C4A35034  33.549  14.260   7.770
 2609POPC   C1B35035  34.291  14.113   8.726
 2609POPC   C2B35036  34.149  14.011   8.332
 2609POPC   C3B35037  33.976  14.288   8.061
 2609POPC   C4B35038  34.023  14.432   7.654
 2610POPC   NC335039  17.768  16.953   9.481
 2610POPC   PO435040  17.159  17.123   9.569
 2610POPC   GL135041  17.370  16.858   9.172
 2610POPC   GL235042  17.690  16.593   9.123
 2610POPC   C1A35043  17.380  16.692   8.731
 2610POPC   D2A35044  17.577  16.756   8.348
 2610POPC   C3A35045  17.341  16.838   7.972
 2610POPC   C4A35046  17.387  17.130   7.659
 2610POPC   C1B35047  17.867  16.883   8.780
 2610POPC   C2B35048  18.077  17.037   8.377
 2610POPC   C3B35049  17.903  16.877   7.987
 2610POPC   C4B35050  17.694  16.475   7.906
 2611POPC   NC335051  19.832  43.429   9.358
 2611POPC   PO435052  19.500  43.975   9.560
 2611POPC   GL135053  19.747  43.924   9.221
 2611POPC   GL235054  19.474  43.710   9.119
 2611POPC   C1A35055  20.083  43.905   8.905
 2611POPC   D2A35056  19.887  43.936   8.510
 2611POPC   C3A35057  20.018  43.926   8.074
 2611POPC   C4A35058  20.164  43.941   7.647
 2611POPC   C1B35059  19.587  43.574   8.734
 2611POPC   C2B35060  19.670  43.541   8.293
 2611POPC   C3B35061  19.511  43.721   7.929
 2611POPC   C4B35062  19.267  43.636   7.577
 2612POPC   NC335063  17.212  37.018   9.425
 2612POPC   PO435064  17.891  37.205   9.469
 2612POPC   GL135065  17.636  37.137   9.165
 2612POPC   GL235066  17.631  36.810   9.092
 2612POPC   C1A35067  17.437  37.137   8.776
 2612POPC   D2A35068  17.642  36.935   8.436
 2612POPC   C3A35069  17.409  36.865   8.083
 2612POPC   C4A35070  17.479  37.004   7.698
 2612POPC   C1B35071  17.844  36.615   8.786
 2612POPC   C2B35072  17.783  36.437   8.425
 2612POPC   C3B35073  17.857  36.636   8.064
 2612POPC   C4B35074  17.676  36.538   7.709
 2613POPC   NC335075   3.180  26.874   9.770
 2613POPC   PO435076   3.312  26.418   9.316
 2613POPC   GL135077   3.431  26.832   9.188
 2613POPC   GL235078   3.745  26.782   9.059
 2613POPC   C1A35079   3.358  26.991   8.754
 2613POPC   D2A35080   3.312  26.773   8.336
 2613POPC   C3A35081   3.352  27.034   7.969
 2613POPC   C4A35082   3.679  27.226   7.716
 2613POPC   C1B35083   3.576  26.502   8.714
 2613POPC   C2B35084   3.691  26.423   8.264
 2613POPC   C3B35085   3.834  26.761   7.969
 2613POPC   C4B35086   3.844  26.754   7.517
 2614POPC   NC335087   9.112   8.132   9.517
 2614POPC   PO435088   9.769   7.932   9.497
 2614POPC   GL135089   9.868   8.146   9.127
 2614POPC   GL235090   9.591   8.399   9.137
 2614POPC   C1A35091  10.115   8.088   8.746
 2614POPC   D2A35092   9.994   8.224   8.363
 2614POPC   C3A35093  10.121   8.022   8.004
 2614POPC   C4A35094  10.037   8.078   7.570
 2614POPC   C1B35095   9.578   8.190   8.720
 2614POPC   C2B35096   9.502   7.958   8.338
 2614POPC   C3B35097   9.620   8.021   7.907
 2614POPC   C4B35098   9.570   8.326   7.607
 2615POPC   NC335099  29.126  27.934   9.553
 2615POPC   PO435100  29.531  28.488   9.551
 2615POPC   GL135101  29.169  28.371   9.293
 2615POPC   GL235102  29.110  28.607   9.033
 2615POPC   C1A35103  29.040  28.106   8.936
 2615POPC   D2A35104  29.095  28.131   8.504
 2615POPC   C3A35105  28.838  28.207   8.165
 2615POPC   C4A35106  28.977  28.217   7.742
 2615POPC   C1B35107  29.433  28.466   8.706
 2615POPC   C2B35108  29.376  28.488   8.224
 2615POPC   C3B35109  29.216  28.684   7.827
 2615POPC   C4B35110  29.285  29.012   7.504
 2616POPC   NC335111  16.568  27.103   9.403
 2616POPC   PO435112  16.079  26.918   9.820
 2616POPC   GL135113  15.996  26.760   9.374
 2616POPC   GL235114  16.104  27.071   9.210
 2616POPC   C1A35115  15.913  26.746   8.888
 2616POPC   D2A35116  15.998  26.709   8.430
 2616POPC   C3A35117  15.823  26.906   8.059
 2616POPC   C4A35118  15.485  26.922   7.765
 2616POPC   C1B35119  16.318  27.113   8.784
 2616POPC   C2B35120  16.189  27.204   8.358
 2616POPC   C3B35121  16.341  27.197   7.925
 2616POPC   C4B35122  16.423  27.043   7.507
 2617POPC   NC335123  18.882   2.498   9.551
 2617POPC   PO435124  18.182   2.799   9.538
 2617POPC   GL135125  18.368   2.617   9.198
 2617POPC   GL235126  18.589   2.840   9.159
 2617POPC   C1A35127  18.262   2.600   8.776
 2617POPC   D2A35128  18.068   2.852   8.469
 2617POPC   C3A35129  18.162   2.745   8.048
 2617POPC   C4A35130  18.290   2.388   7.805
 2617POPC   C1B35131  18.463   3.090   8.815
 2617POPC   C2B35132  18.598   3.305   8.450
 2617POPC   C3B35133  18.667   3.180   8.026
 2617POPC   C4B35134  18.446   2.991   7.688
 2618POPC   NC335135   9.558  20.825   9.632
 2618POPC   PO435136  10.130  20.412   9.564
 2618POPC   GL135137   9.889  20.659   9.246
 2618POPC   GL235138   9.549  20.720   9.144
 2618POPC   C1A35139   9.922  20.730   8.777
 2618POPC   D2A35140   9.850  20.932   8.342
 2618POPC   C3A35141   9.832  20.675   7.924
 2618POPC   C4A35142   9.750  20.308   7.616
 2618POPC   C1B35143   9.454  21.006   8.824
 2618POPC   C2B35144   9.307  20.935   8.423
 2618POPC   C3B35145   9.441  21.015   8.023
 2618POPC   C4B35146   9.384  20.792   7.680
 2619POPC   NC335147   4.677  43.631   9.585
 2619POPC   PO435148   4.231  43.030   9.551
 2619POPC   GL135149   4.374  43.274   9.197
 2619POPC   GL235150   4.684  43.471   9.119
 2619POPC   C1A35151   4.182  43.198   8.800
 2619POPC   D2A35152   4.068  42.903   8.468
 2619POPC   C3A35153   4.215  42.935   8.042
 2619POPC   C4A35154   4.504  42.922   7.694
 2619POPC   C1B35155   4.704  43.238   8.765
 2619POPC   C2B35156   4.524  43.191   8.366
 2619POPC   C3B35157   4.760  43.235   7.984
 2619POPC   C4B35158   4.721  43.376   7.503
 2620POPC   NC335159  36.677  24.233   9.787
 2620POPC   PO435160  36.935  24.689   9.526
 2620POPC   GL135161  36.911  24.416   9.203
 2620POPC   GL235162  36.586  24.509   9.118
 2620POPC   C1A35163  37.196  24.260   8.875
 2620POPC   D2A35164  37.149  24.165   8.453
 2620POPC   C3A35165  37.196  24.406   8.088
 2620POPC   C4A35166  37.275  24.156   7.735
 2620POPC   C1B35167  36.669  24.377   8.700
 2620POPC   C2B35168  36.694  24.307   8.264
 2620POPC   C3B35169  36.709  24.486   7.874
 2620POPC   C4B35170  36.598  24.892   7.721
 2621POPC   NC335171  12.723   6.318   9.539
 2621POPC   PO435172  12.709   7.018   9.487
 2621POPC   GL135173  12.983   6.706   9.260
 2621POPC   GL235174  12.750   6.500   9.078
 2621POPC   C1A35175  13.182   6.599   8.853
 2621POPC   D2A35176  13.030   6.612   8.430
 2621POPC   C3A35177  13.232   6.486   8.076
 2621POPC   C4A35178  13.220   6.727   7.684
 2621POPC   C1B35179  12.585   6.588   8.687
 2621POPC   C2B35180  12.567   6.480   8.273
 2621POPC   C3B35181  12.762   6.579   7.890
 2621POPC   C4B35182  12.662   6.395   7.490
 2622POPC   NC335183  10.986  12.572   9.496
 2622POPC   PO435184  10.383  12.931   9.709
 2622POPC   GL135185  10.537  12.696   9.300
 2622POPC   GL235186  10.580  12.966   9.013
 2622POPC   C1A35187  10.581  12.482   8.888
 2622POPC   D2A35188  10.327  12.692   8.556
 2622POPC   C3A35189  10.291  12.582   8.121
 2622POPC   C4A35190  10.248  12.782   7.727
 2622POPC   C1B35191  10.411  13.209   8.689
 2622POPC   C2B35192  10.606  13.177   8.301
 2622POPC   C3B35193  10.731  12.933   7.975
 2622POPC   C4B35194  10.551  13.186   7.661
 2623POPC   NC335195  16.018   5.580   9.719
 2623POPC   PO435196  16.425   5.419   9.249
 2623POPC   GL135197  16.170   5.702   9.083
 2623POPC   GL235198  15.923   5.832   9.265
 2623POPC   C1A35199  16.019   5.706   8.683
 2623POPC   D2A35200  16.231   5.539   8.376
 2623POPC   C3A35201  16.277   5.824   8.088
 2623POPC   C4A35202  16.098   5.624   7.771
 2623POPC   C1B35203  15.601   5.738   8.969
 2623POPC   C2B35204  15.563   5.917   8.550
 2623POPC   C3B35205  15.770   5.787   8.184
 2623POPC   C4B35206  15.614   5.782   7.782
 2624POPC   NC335207  25.409  14.957   9.498
 2624POPC   PO435208  25.377  15.706   9.358
 2624POPC   GL135209  25.352  15.321   9.127
 2624POPC   GL235210  25.527  14.987   9.013
 2624POPC   C1A35211  25.125  15.210   8.783
 2624POPC   D2A35212  25.029  15.392   8.400
 2624POPC   C3A35213  24.990  15.136   8.050
 2624POPC   C4A35214  25.063  15.341   7.686
 2624POPC   C1B35215  25.627  15.220   8.662
 2624POPC   C2B35216  25.467  15.133   8.253
 2624POPC   C3B35217  25.468  15.025   7.813
 2624POPC   C4B35218  25.460  15.132   7.378
 2625POPC   NC335219  35.452  14.887   9.406
 2625POPC   PO435220  35.383  14.250   9.502
 2625POPC   GL135221  35.166  14.282   9.140
 2625POPC   GL235222  35.073  14.615   9.148
 2625POPC   C1A35223  35.384  14.237   8.752
 2625POPC   D2A35224  35.774  14.331   8.510
 2625POPC   C3A35225  35.708  14.464   8.076
 2625POPC   C4A35226  35.420  14.288   7.794
 2625POPC   C1B35227  35.132  14.673   8.734
 2625POPC   C2B35228  35.046  14.789   8.338
 2625POPC   C3B35229  34.812  14.563   8.073
 2625POPC   C4B35230  34.925  14.239   7.838
 2626POPC   NC335231   4.698  32.702   9.445
 2626POPC   PO435232   4.226  33.151   9.519
 2626POPC   GL135233   4.461  33.075   9.152
 2626POPC   GL235234   4.528  33.402   9.047
 2626POPC   C1A35235   4.482  32.823   8.771
 2626POPC   D2A35236   4.256  32.809   8.398
 2626POPC   C3A35237   4.464  32.803   8.015
 2626POPC   C4A35238   4.572  33.062   7.684
 2626POPC   C1B35239   4.447  33.343   8.588
 2626POPC   C2B35240   4.466  33.347   8.122
 2626POPC   C3B35241   4.547  33.563   7.714
 2626POPC   C4B35242   4.756  33.457   7.276
 2627POPC   NC335243  23.550   6.663   9.486
 2627POPC   PO435244  23.930   6.087   9.405
 2627POPC   GL135245  23.975   6.454   9.098
 2627POPC   GL235246  23.894   6.809   9.140
 2627POPC   C1A35247  23.858   6.568   8.638
 2627POPC   D2A35248  23.565   6.403   8.329
 2627POPC   C3A35249  23.721   6.378   7.914
 2627POPC   C4A35250  23.900   6.469   7.525
 2627POPC   C1B35251  23.576   6.924   8.866
 2627POPC   C2B35252  23.559   7.002   8.436
 2627POPC   C3B35253  23.448   6.838   8.051
 2627POPC   C4B35254  23.714   6.890   7.726
 2628POPC   NC335255  44.843  14.625   9.491
 2628POPC   PO435256  44.159  14.772   9.525
 2628POPC   GL135257  44.438  14.604   9.164
 2628POPC   GL235258  44.405  14.323   9.040
 2628POPC   C1A35259  44.440  14.702   8.677
 2628POPC   D2A35260  44.453  14.660   8.201
 2628POPC   C3A35261  44.800  14.824   7.970
 2628POPC   C4A35262  44.877  14.632   7.591
 2628POPC   C1B35263  44.696  14.255   8.685
 2628POPC   C2B35264  44.575  14.199   8.317
 2628POPC   C3B35265  44.785  14.223   7.942
 2628POPC   C4B35266  44.786  13.783   7.892
 2629POPC   NC335267  17.292  17.581   9.593
 2629POPC   PO435268  17.952  17.558   9.678
 2629POPC   GL135269  17.737  17.575   9.205
 2629POPC   GL235270  17.418  17.762   9.148
 2629POPC   C1A35271  17.691  17.671   8.720
 2629POPC   D2A35272  17.657  17.271   8.513
 2629POPC   C3A35273  17.580  17.275   8.112
 2629POPC   C4A35274  17.668  17.529   7.775
 2629POPC   C1B35275  17.336  17.397   8.887
 2629POPC   C2B35276  17.268  17.584   8.413
 2629POPC   C3B35277  17.204  17.683   7.948
 2629POPC   C4B35278  17.254  17.617   7.474
 2630POPC   NC335279   4.527  12.556   9.463
 2630POPC   PO435280   3.877  12.696   9.428
 2630POPC   GL135281   4.202  12.736   9.110
 2630POPC   GL235282   4.272  13.083   9.168
 2630POPC   C1A35283   4.417  12.726   8.713
 2630POPC   D2A35284   4.273  12.947   8.351
 2630POPC   C3A35285   4.320  12.812   7.958
 2630POPC   C4A35286   4.272  12.713   7.543
 2630POPC   C1B35287   4.053  13.173   8.772
 2630POPC   C2B35288   4.008  13.385   8.351
 2630POPC   C3B35289   3.945  13.164   7.932
 2630POPC   C4B35290   4.016  13.214   7.441
 2631POPC   NC335291  42.268   6.921   9.463
 2631POPC   PO435292  42.457   6.213   9.531
 2631POPC   GL135293  42.411   6.438   9.155
 2631POPC   GL235294  42.637   6.749   9.150
 2631POPC   C1A35295  42.053   6.398   8.848
 2631POPC   D2A35296  41.812   6.557   8.471
 2631POPC   C3A35297  42.047   6.624   8.082
 2631POPC   C4A35298  42.424   6.455   7.856
 2631POPC   C1B35299  42.317   6.831   8.820
 2631POPC   C2B35300  42.382   6.831   8.402
 2631POPC   C3B35301  42.399   6.970   7.993
 2631POPC   C4B35302  42.578   6.881   7.627
 2632POPC   NC335303  43.256  12.386   9.602
 2632POPC   PO435304  43.316  11.740   9.575
 2632POPC   GL135305  43.150  11.972   9.191
 2632POPC   GL235306  43.326  12.291   9.117
 2632POPC   C1A35307  43.112  11.915   8.726
 2632POPC   D2A35308  43.264  11.760   8.323
 2632POPC   C3A35309  42.907  11.743   8.061
 2632POPC   C4A35310  42.878  11.819   7.654
 2632POPC   C1B35311  43.200  12.406   8.735
 2632POPC   C2B35312  43.315  12.262   8.317
 2632POPC   C3B35313  43.260  12.073   7.890
 2632POPC   C4B35314  43.065  12.267   7.525
 2633POPC   NC335315   1.488   7.793   9.557
 2633POPC   PO435316   1.259   8.391   9.632
 2633POPC   GL135317   1.257   8.422   9.207
 2633POPC   GL235318   1.489   8.172   9.201
 2633POPC   C1A35319   0.993   8.367   8.839
 2633POPC   D2A35320   1.068   8.148   8.462
 2633POPC   C3A35321   1.092   8.393   8.107
 2633POPC   C4A35322   1.161   8.254   7.711
 2633POPC   C1B35323   1.299   7.928   8.887
 2633POPC   C2B35324   1.434   7.800   8.485
 2633POPC   C3B35325   1.343   7.909   8.055
 2633POPC   C4B35326   1.614   7.697   7.769
 2634POPC   NC335327  13.048  40.020   9.550
 2634POPC   PO435328  12.451  39.747   9.554
 2634POPC   GL135329  12.640  39.982   9.213
 2634POPC   GL235330  12.538  39.729   9.018
 2634POPC   C1A35331  12.885  40.100   8.837
 2634POPC   D2A35332  13.102  39.853   8.485
 2634POPC   C3A35333  13.027  40.103   8.137
 2634POPC   C4A35334  13.015  40.427   7.851
 2634POPC   C1B35335  12.628  39.714   8.597
 2634POPC   C2B35336  12.549  39.967   8.239
 2634POPC   C3B35337  12.620  39.850   7.841
 2634POPC   C4B35338  12.353  39.902   7.503
 2635POPC   NC335339  15.484  20.457   9.554
 2635POPC   PO435340  14.894  20.596   9.456
 2635POPC   GL135341  15.211  20.685   9.142
 2635POPC   GL235342  15.441  20.930   9.105
 2635POPC   C1A35343  15.120  20.753   8.721
 2635POPC   D2A35344  15.280  20.543   8.371
 2635POPC   C3A35345  15.212  20.741   8.017
 2635POPC   C4A35346  15.244  20.632   7.594
 2635POPC   C1B35347  15.621  20.726   8.726
 2635POPC   C2B35348  15.736  20.810   8.320
 2635POPC   C3B35349  15.708  20.706   7.890
 2635POPC   C4B35350  15.800  20.539   7.505
 2636POPC   NC335351  38.310  35.394   9.458
 2636POPC   PO435352  38.963  35.622   9.496
 2636POPC   GL135353  38.657  35.713   9.114
 2636POPC   GL235354  38.269  35.621   9.015
 2636POPC   C1A35355  38.613  35.527   8.681
 2636POPC   D2A35356  38.603  35.341   8.300
 2636POPC   C3A35357  38.463  35.610   8.001
 2636POPC   C4A35358  38.550  35.557   7.622
 2636POPC   C1B35359  38.221  35.176   8.760
 2636POPC   C2B35360  38.232  35.004   8.296
 2636POPC   C3B35361  38.383  35.111   7.861
 2636POPC   C4B35362  38.300  35.165   7.404
 2637POPC   NC335363  28.143  37.475  10.071
 2637POPC   PO435364  28.079  37.936   9.495
 2637POPC   GL135365  28.329  37.700   9.204
 2637POPC   GL235366  28.131  37.529   9.062
 2637POPC   C1A35367  28.650  37.763   8.845
 2637POPC   D2A35368  28.563  37.617   8.434
 2637POPC   C3A35369  28.640  37.837   8.061
 2637POPC   C4A35370  28.278  37.945   7.828
 2637POPC   C1B35371  28.006  37.282   8.750
 2637POPC   C2B35372  28.028  37.557   8.436
 2637POPC   C3B35373  28.174  37.513   8.052
 2637POPC   C4B35374  28.124  37.227   7.695
 2638POPC   NC335375  13.888  24.493   9.445
 2638POPC   PO435376  13.218  24.434   9.626
 2638POPC   GL135377  13.381  24.464   9.160
 2638POPC   GL235378  13.720  24.288   9.014
 2638POPC   C1A35379  13.494  24.593   8.701
 2638POPC   D2A35380  13.826  24.485   8.369
 2638POPC   C3A35381  13.657  24.346   7.976
 2638POPC   C4A35382  13.425  24.620   7.698
 2638POPC   C1B35383  13.899  24.055   8.679
 2638POPC   C2B35384  14.045  24.001   8.247
 2638POPC   C3B35385  14.092  24.117   7.806
 2638POPC   C4B35386  13.760  24.172   7.490
 2639POPC   NC335387  19.734   4.138   9.489
 2639POPC   PO435388  20.405   4.289   9.398
 2639POPC   GL135389  20.093   4.029   9.150
 2639POPC   GL235390  19.885   4.284   9.043
 2639POPC   C1A35391  19.881   3.852   8.772
 2639POPC   D2A35392  19.922   4.122   8.415
 2639POPC   C3A35393  19.666   4.109   8.047
 2639POPC   C4A35394  19.786   4.309   7.637
 2639POPC   C1B35395  20.188   4.414   8.770
 2639POPC   C2B35396  20.085   4.668   8.447
 2639POPC   C3B35397  20.008   4.532   8.052
 2639POPC   C4B35398  19.942   4.790   7.684
 2640POPC   NC335399  26.455   8.682   9.478
 2640POPC   PO435400  26.137   9.282   9.474
 2640POPC   GL135401  25.874   9.181   9.143
 2640POPC   GL235402  25.916   8.815   9.177
 2640POPC   C1A35403  25.682   9.002   8.761
 2640POPC   D2A35404  25.784   8.912   8.321
 2640POPC   C3A35405  25.933   9.150   7.983
 2640POPC   C4A35406  25.893   8.793   7.697
 2640POPC   C1B35407  26.203   8.905   8.826
 2640POPC   C2B35408  26.415   8.821   8.421
 2640POPC   C3B35409  26.318   8.818   7.990
 2640POPC   C4B35410  26.373   8.826   7.538
 2641POPC   NC335411   1.105  33.504   9.408
 2641POPC   PO435412   0.466  33.675   9.604
 2641POPC   GL135413   0.567  33.822   9.165
 2641POPC   GL235414   0.773  33.568   9.039
 2641POPC   C1A35415   0.485  33.905   8.731
 2641POPC   D2A35416   0.146  33.736   8.466
 2641POPC   C3A35417   0.113  33.810   8.035
 2641POPC   C4A35418   0.327  33.977   7.675
 2641POPC   C1B35419   0.747  33.320   8.673
 2641POPC   C2B35420   0.613  33.534   8.304
 2641POPC   C3B35421   0.673  33.690   7.891
 2641POPC   C4B35422   0.607  33.592   7.439
 2642POPC   NC335423   5.515  30.494   9.927
 2642POPC   PO435424   5.040  30.878   9.603
 2642POPC   GL135425   5.011  30.612   9.243
 2642POPC   GL235426   5.286  30.569   9.171
 2642POPC   C1A35427   4.959  30.668   8.811
 2642POPC   D2A35428   4.798  30.842   8.470
 2642POPC   C3A35429   4.940  30.728   8.095
 2642POPC   C4A35430   4.812  30.753   7.693
 2642POPC   C1B35431   5.477  30.611   8.805
 2642POPC   C2B35432   5.324  30.667   8.436
 2642POPC   C3B35433   5.396  30.518   8.058
 2642POPC   C4B35434   5.325  30.684   7.708
 2643POPC   NC335435  19.033  38.870   9.777
 2643POPC   PO435436  18.928  39.529   9.711
 2643POPC   GL135437  19.076  39.471   9.226
 2643POPC   GL235438  19.450  39.509   9.198
 2643POPC   C1A35439  18.981  39.222   8.838
 2643POPC   D2A35440  18.981  38.936   8.465
 2643POPC   C3A35441  18.761  39.094   8.094
 2643POPC   C4A35442  18.800  39.363   7.754
 2643POPC   C1B35443  19.495  39.242   8.856
 2643POPC   C2B35444  19.482  39.292   8.443
 2643POPC   C3B35445  19.265  39.181   8.104
 2643POPC   C4B35446  19.296  39.350   7.740
 2644POPC   NC335447   9.306  18.411   9.490
 2644POPC   PO435448   9.785  18.042   9.321
 2644POPC   GL135449   9.547  18.316   9.065
 2644POPC   GL235450   9.262  18.064   9.118
 2644POPC   C1A35451   9.697  18.536   8.702
 2644POPC   D2A35452   9.963  18.558   8.329
 2644POPC   C3A35453   9.809  18.333   7.967
 2644POPC   C4A35454   9.896  18.194   7.531
 2644POPC   C1B35455   9.382  17.996   8.726
 2644POPC   C2B35456   9.596  18.128   8.401
 2644POPC   C3B35457   9.385  18.026   8.067
 2644POPC   C4B35458   9.383  18.256   7.701
 2645POPC   NC335459   8.350   7.150   9.853
 2645POPC   PO435460   8.081   7.589   9.467
 2645POPC   GL135461   8.221   7.597   9.066
 2645POPC   GL235462   8.146   7.270   9.017
 2645POPC   C1A35463   8.296   7.596   8.622
 2645POPC   D2A35464   8.049   7.733   8.277
 2645POPC   C3A35465   8.214   7.495   7.959
 2645POPC   C4A35466   8.536   7.429   7.639
 2645POPC   C1B35467   8.352   7.064   8.721
 2645POPC   C2B35468   8.362   6.852   8.354
 2645POPC   C3B35469   8.389   7.020   7.952
 2645POPC   C4B35470   8.119   7.130   7.616
 2646POPC   NC335471   7.898  40.275   9.544
 2646POPC   PO435472   8.372  39.740   9.458
 2646POPC   GL135473   8.301  40.001   9.104
 2646POPC   GL235474   8.115  40.298   9.090
 2646POPC   C1A35475   8.290  39.967   8.689
 2646POPC   D2A35476   8.438  39.705   8.411
 2646POPC   C3A35477   8.290  39.871   8.090
 2646POPC   C4A35478   8.348  39.931   7.698
 2646POPC   C1B35479   7.930  40.338   8.694
 2646POPC   C2B35480   8.081  40.279   8.305
 2646POPC   C3B35481   8.318  40.368   7.954
 2646POPC   C4B35482   7.971  40.385   7.713
 2647POPC   NC335483  33.974  37.007   9.267
 2647POPC   PO435484  33.259  36.864   9.447
 2647POPC   GL135485  33.542  36.663   9.135
 2647POPC   GL235486  33.862  36.489   9.219
 2647POPC   C1A35487  33.657  36.747   8.701
 2647POPC   D2A35488  33.477  36.752   8.293
 2647POPC   C3A35489  33.292  37.082   8.052
 2647POPC   C4A35490  33.476  37.224   7.661
 2647POPC   C1B35491  34.095  36.511   8.811
 2647POPC   C2B35492  34.188  36.800   8.484
 2647POPC   C3B35493  33.998  36.781   8.086
 2647POPC   C4B35494  33.641  36.758   7.820
 2648POPC   NC335495  10.362  40.554   9.265
 2648POPC   PO435496  10.630  41.064   9.647
 2648POPC   GL135497  10.460  41.051   9.247
 2648POPC   GL235498  10.768  40.925   9.140
 2648POPC   C1A35499  10.449  41.010   8.765
 2648POPC   D2A35500  10.485  41.033   8.320
 2648POPC   C3A35501  10.232  40.759   8.077
 2648POPC   C4A35502  10.274  40.777   7.635
 2648POPC   C1B35503  10.881  40.720   8.727
 2648POPC   C2B35504  10.820  40.605   8.326
 2648POPC   C3B35505  10.731  40.766   7.924
 2648POPC   C4B35506  10.754  40.730   7.479
 2649POPC   NC335507   4.665  23.015   9.840
 2649POPC   PO435508   4.074  23.019   9.549
 2649POPC   GL135509   4.096  22.884   9.169
 2649POPC   GL235510   4.478  22.801   9.175
 2649POPC   C1A35511   4.044  23.132   8.790
 2649POPC   D2A35512   4.227  23.109   8.350
 2649POPC   C3A35513   4.438  23.143   7.938
 2649POPC   C4A35514   4.182  23.049   7.561
 2649POPC   C1B35515   4.314  22.706   8.753
 2649POPC   C2B35516   4.319  22.568   8.354
 2649POPC   C3B35517   4.572  22.607   8.005
 2649POPC   C4B35518   4.593  22.793   7.579
 2650POPC   NC335519  44.831  44.380   9.783
 2650POPC   PO435520  44.648  43.770   9.612
 2650POPC   GL135521  44.520  43.951   9.216
 2650POPC   GL235522  44.834  44.080   9.205
 2650POPC   C1A35523  44.348  43.874   8.787
 2650POPC   D2A35524  44.305  43.650   8.394
 2650POPC   C3A35525  44.387  43.827   7.996
 2650POPC   C4A35526  44.582  43.471   7.841
 2650POPC   C1B35527  44.826  43.725   8.838
 2650POPC   C2B35528  44.807  43.536   8.398
 2650POPC   C3B35529   0.038  43.668   8.018
 2650POPC   C4B35530  44.825  43.916   7.743
 2651POPC   NC335531   8.567  18.588   9.501
 2651POPC   PO435532   8.071  18.063   9.532
 2651POPC   GL135533   8.302  18.123   9.173
 2651POPC   GL235534   8.200  18.470   9.148
 2651POPC   C1A35535   8.353  18.171   8.733
 2651POPC   D2A35536   8.568  18.171   8.334
 2651POPC   C3A35537   8.393  17.957   7.990
 2651POPC   C4A35538   8.121  18.032   7.661
 2651POPC   C1B35539   8.062  18.578   8.723
 2651POPC   C2B35540   8.239  18.657   8.344
 2651POPC   C3B35541   8.187  18.445   7.954
 2651POPC   C4B35542   7.863  18.530   7.731
 2652POPC   NC335543   4.589  36.714   9.572
 2652POPC   PO435544   5.314  36.967   9.498
 2652POPC   GL135545   4.972  37.097   9.219
 2652POPC   GL235546   4.862  36.747   9.131
 2652POPC   C1A35547   5.016  37.119   8.751
 2652POPC   D2A35548   5.279  36.851   8.456
 2652POPC   C3A35549   5.110  36.774   8.068
 2652POPC   C4A35550   5.065  37.071   7.731
 2652POPC   C1B35551   4.905  36.595   8.696
 2652POPC   C2B35552   4.613  36.549   8.355
 2652POPC   C3B35553   4.743  36.444   7.921
 2652POPC   C4B35554   5.028  36.579   7.584
 2653POPC   NC335555   1.709  36.028   9.231
 2653POPC   PO435556   2.207  35.820   9.666
 2653POPC   GL135557   2.194  36.145   9.314
 2653POPC   GL235558   2.284  35.913   9.092
 2653POPC   C1A35559   2.094  36.366   8.871
 2653POPC   D2A35560   1.895  36.497   8.523
 2653POPC   C3A35561   1.952  36.475   8.089
 2653POPC   C4A35562   1.881  36.228   7.739
 2653POPC   C1B35563   2.113  35.911   8.685
 2653POPC   C2B35564   1.882  35.979   8.311
 2653POPC   C3B35565   2.006  35.800   7.949
 2653POPC   C4B35566   2.366  35.911   7.765
 2654POPC   NC335567  19.941  41.320   9.410
 2654POPC   PO435568  19.584  41.910   9.406
 2654POPC   GL135569  19.642  41.587   9.077
 2654POPC   GL235570  19.486  41.263   9.171
 2654POPC   C1A35571  19.930  41.533   8.715
 2654POPC   D2A35572  19.794  41.696   8.316
 2654POPC   C3A35573  19.928  41.720   7.865
 2654POPC   C4A35574  19.655  41.789   7.492
 2654POPC   C1B35575  19.608  41.002   8.818
 2654POPC   C2B35576  19.820  41.085   8.466
 2654POPC   C3B35577  19.950  41.249   8.093
 2654POPC   C4B35578  20.187  41.258   7.760
 2655POPC   NC335579  38.762  23.960   9.359
 2655POPC   PO435580  38.459  23.356   9.604
 2655POPC   GL135581  38.376  23.617   9.205
 2655POPC   GL235582  38.090  23.851   9.299
 2655POPC   C1A35583  38.441  23.677   8.734
 2655POPC   D2A35584  38.226  23.549   8.344
 2655POPC   C3A35585  38.451  23.579   7.977
 2655POPC   C4A35586  38.622  23.498   7.556
 2655POPC   C1B35587  38.093  24.007   8.866
 2655POPC   C2B35588  38.085  24.048   8.386
 2655POPC   C3B35589  38.172  24.013   7.905
 2655POPC   C4B35590  38.072  24.119   7.452
 2656POPC   NC335591  44.475  29.048   9.622
 2656POPC   PO435592   0.050  29.280   9.309
 2656POPC   GL135593  44.676  29.172   9.136
 2656POPC   GL235594  44.431  28.872   9.159
 2656POPC   C1A35595  44.749  29.355   8.738
 2656POPC   D2A35596  44.581  29.452   8.361
 2656POPC   C3A35597  44.776  29.311   7.993
 2656POPC   C4A35598  44.538  29.154   7.697
 2656POPC   C1B35599  44.538  28.883   8.736
 2656POPC   C2B35600  44.806  28.961   8.422
 2656POPC   C3B35601  44.621  28.844   8.100
 2656POPC   C4B35602  44.873  28.758   7.820
 2657POPC   NC335603  31.277  35.564   9.539
 2657POPC   PO435604  31.708  35.050   9.411
 2657POPC   GL135605  31.354  35.175   9.152
 2657POPC   GL235606  31.234  35.497   9.056
 2657POPC   C1A35607  31.587  35.269   8.783
 2657POPC   D2A35608  31.920  35.440   8.567
 2657POPC   C3A35609  31.798  35.356   8.151
 2657POPC   C4A35610  31.777  35.259   7.734
 2657POPC   C1B35611  31.082  35.352   8.676
 2657POPC   C2B35612  31.203  35.324   8.264
 2657POPC   C3B35613  31.345  35.464   7.892
 2657POPC   C4B35614  31.228  35.828   7.756
 2658POPC   NC335615   8.082  41.128   9.670
 2658POPC   PO435616   8.313  40.499   9.537
 2658POPC   GL135617   8.032  40.764   9.299
 2658POPC   GL235618   8.303  40.966   9.222
 2658POPC   C1A35619   8.016  40.808   8.853
 2658POPC   D2A35620   8.281  40.727   8.482
 2658POPC   C3A35621   8.116  40.807   8.083
 2658POPC   C4A35622   7.876  40.896   7.748
 2658POPC   C1B35623   8.556  40.977   8.848
 2658POPC   C2B35624   8.707  41.035   8.431
 2658POPC   C3B35625   8.612  40.980   8.019
 2658POPC   C4B35626   8.696  41.164   7.619
 2659POPC   NC335627   3.560   1.010   9.425
 2659POPC   PO435628   2.999   1.296   9.675
 2659POPC   GL135629   3.197   1.290   9.172
 2659POPC   GL235630   3.357   0.940   8.947
 2659POPC   C1A35631   3.480   1.378   8.787
 2659POPC   D2A35632   3.427   1.167   8.394
 2659POPC   C3A35633   3.383   1.373   8.000
 2659POPC   C4A35634   3.147   1.254   7.628
 2659POPC   C1B35635   3.794   0.968   8.775
 2659POPC   C2B35636   3.920   1.096   8.343
 2659POPC   C3B35637   3.699   0.941   7.977
 2659POPC   C4B35638   3.828   0.536   7.795
 2660POPC   NC335639  16.419  19.848   9.413
 2660POPC   PO435640  15.734  20.055   9.499
 2660POPC   GL135641  15.733  19.885   9.108
 2660POPC   GL235642  15.928  19.574   9.156
 2660POPC   C1A35643  15.576  19.740   8.718
 2660POPC   D2A35644  15.788  19.762   8.311
 2660POPC   C3A35645  15.587  19.735   7.892
 2660POPC   C4A35646  15.615  19.720   7.430
 2660POPC   C1B35647  16.104  19.802   8.780
 2660POPC   C2B35648  16.217  20.041   8.409
 2660POPC   C3B35649  16.208  19.827   8.039
 2660POPC   C4B35650  16.081  19.676   7.673
 2661POPC   NC335651  31.292  11.384   9.617
 2661POPC   PO435652  31.899  11.127   9.607
 2661POPC   GL135653  31.565  11.217   9.217
 2661POPC   GL235654  31.206  11.321   9.113
 2661POPC   C1A35655  31.490  11.154   8.747
 2661POPC   D2A35656  31.623  11.347   8.366
 2661POPC   C3A35657  31.622  11.057   8.048
 2661POPC   C4A35658  31.602  11.269   7.648
 2661POPC   C1B35659  31.077  11.458   8.701
 2661POPC   C2B35660  31.199  11.678   8.340
 2661POPC   C3B35661  31.259  11.636   7.908
 2661POPC   C4B35662  31.235  11.627   7.465
 2662POPC   NC335663   9.474  17.721   9.444
 2662POPC   PO435664   9.940  17.366   9.842
 2662POPC   GL135665   9.804  17.220   9.348
 2662POPC   GL235666   9.445  17.291   9.164
 2662POPC   C1A35667   9.821  17.114   8.880
 2662POPC   D2A35668   9.817  17.077   8.395
 2662POPC   C3A35669   9.590  17.230   8.017
 2662POPC   C4A35670   9.702  17.335   7.591
 2662POPC   C1B35671   9.586  17.536   8.747
 2662POPC   C2B35672   9.723  17.640   8.287
 2662POPC   C3B35673   9.766  17.807   7.829
 2662POPC   C4B35674   9.514  17.862   7.398
 2663POPC   NC335675  35.268  23.015   9.653
 2663POPC   PO435676  35.328  22.335   9.567
 2663POPC   GL135677  35.130  22.630   9.186
 2663POPC   GL235678  35.236  23.001   9.132
 2663POPC   C1A35679  35.339  22.708   8.722
 2663POPC   D2A35680  35.707  22.811   8.414
 2663POPC   C3A35681  35.604  22.782   7.969
 2663POPC   C4A35682  35.235  22.652   7.744
 2663POPC   C1B35683  35.510  23.175   8.775
 2663POPC   C2B35684  35.430  23.206   8.318
 2663POPC   C3B35685  35.405  23.251   7.871
 2663POPC   C4B35686  35.124  23.258   7.510
 2664POPC   NC335687  25.215  34.863   9.479
 2664POPC   PO435688  24.791  34.411   9.541
 2664POPC   GL135689  24.910  34.583   9.158
 2664POPC   GL235690  25.212  34.753   8.998
 2664POPC   C1A35691  24.950  34.396   8.774
 2664POPC   D2A35692  25.276  34.450   8.479
 2664POPC   C3A35693  25.159  34.547   8.080
 2664POPC   C4A35694  25.285  34.437   7.697
 2664POPC   C1B35695  25.591  34.747   8.756
 2664POPC   C2B35696  25.589  34.833   8.321
 2664POPC   C3B35697  25.612  34.745   7.914
 2664POPC   C4B35698  25.648  34.705   7.443
 2665POPC   NC335699  43.850  17.626   9.568
 2665POPC   PO435700  43.917  16.949   9.609
 2665POPC   GL135701  43.900  17.224   9.207
 2665POPC   GL235702  43.621  17.462   9.107
 2665POPC   C1A35703  44.002  17.299   8.752
 2665POPC   D2A35704  43.705  17.426   8.409
 2665POPC   C3A35705  43.815  17.369   7.959
 2665POPC   C4A35706  43.580  17.406   7.582
 2665POPC   C1B35707  43.847  17.771   8.831
 2665POPC   C2B35708  44.082  17.782   8.439
 2665POPC   C3B35709  44.108  17.937   7.997
 2665POPC   C4B35710  43.892  17.831   7.594
 2666POPC   NC335711  31.580  12.338   9.541
 2666POPC   PO435712  31.654  11.670   9.571
 2666POPC   GL135713  31.491  11.750   9.184
 2666POPC   GL235714  31.597  12.089   9.065
 2666POPC   C1A35715  31.547  11.693   8.748
 2666POPC   D2A35716  31.642  12.034   8.468
 2666POPC   C3A35717  31.714  11.833   8.076
 2666POPC   C4A35718  31.745  11.738   7.642
 2666POPC   C1B35719  31.293  12.378   8.807
 2666POPC   C2B35720  31.159  12.598   8.423
 2666POPC   C3B35721  31.439  12.627   8.054
 2666POPC   C4B35722  31.770  12.343   8.018
 2667POPC   NC335723   9.456  15.628   9.608
 2667POPC   PO435724   8.711  15.727   9.479
 2667POPC   GL135725   8.907  15.802   9.148
 2667POPC   GL235726   9.181  15.867   9.252
 2667POPC   C1A35727   8.776  15.872   8.743
 2667POPC   D2A35728   8.722  16.113   8.400
 2667POPC   C3A35729   8.825  15.912   8.043
 2667POPC   C4A35730   8.596  16.001   7.687
 2667POPC   C1B35731   9.294  15.837   8.830
 2667POPC   C2B35732   9.184  15.700   8.431
 2667POPC   C3B35733   9.461  15.546   8.118
 2667POPC   C4B35734   9.514  15.694   7.700
 2668POPC   NC335735  13.507  19.756   9.622
 2668POPC   PO435736  14.226  19.874   9.637
 2668POPC   GL135737  13.843  19.878   9.287
 2668POPC   GL235738  13.558  20.129   9.213
 2668POPC   C1A35739  13.691  19.784   8.865
 2668POPC   D2A35740  13.986  19.789   8.534
 2668POPC   C3A35741  13.844  19.729   8.111
 2668POPC   C4A35742  13.638  19.793   7.723
 2668POPC   C1B35743  13.497  20.287   8.784
 2668POPC   C2B35744  13.550  20.021   8.415
 2668POPC   C3B35745  13.319  19.807   8.105
 2668POPC   C4B35746  13.421  20.220   7.909
 2669POPC   NC335747   2.276  14.954   9.460
 2669POPC   PO435748   1.650  15.325   9.611
 2669POPC   GL135749   1.741  15.154   9.224
 2669POPC   GL235750   2.030  15.384   9.223
 2669POPC   C1A35751   1.735  15.287   8.786
 2669POPC   D2A35752   1.651  15.494   8.382
 2669POPC   C3A35753   1.839  15.288   8.025
 2669POPC   C4A35754   1.744  15.010   7.694
 2669POPC   C1B35755   2.143  15.598   8.842
 2669POPC   C2B35756   2.181  15.397   8.435
 2669POPC   C3B35757   2.369  15.350   8.023
 2669POPC   C4B35758   2.240  15.169   7.626
 2670POPC   NC335759  39.157  43.025   9.455
 2670POPC   PO435760  39.757  43.176   9.729
 2670POPC   GL135761  39.525  43.378   9.306
 2670POPC   GL235762  39.205  43.467   9.193
 2670POPC   C1A35763  39.494  43.331   8.788
 2670POPC   D2A35764  39.516  43.215   8.304
 2670POPC   C3A35765  39.190  42.982   8.084
 2670POPC   C4A35766  38.980  43.122   7.717
 2670POPC   C1B35767  38.999  43.501   8.791
 2670POPC   C2B35768  39.016  43.364   8.371
 2670POPC   C3B35769  39.086  43.548   7.972
 2670POPC   C4B35770  39.265  43.554   7.542
 2671POPC   NC335771  24.203  17.556   9.540
 2671POPC   PO435772  23.626  17.791   9.622
 2671POPC   GL135773  23.793  17.604   9.215
 2671POPC   GL235774  23.916  17.230   9.213
 2671POPC   C1A35775  23.600  17.640   8.782
 2671POPC   D2A35776  23.511  17.921   8.450
 2671POPC   C3A35777  23.563  17.784   8.042
 2671POPC   C4A35778  23.861  17.695   7.692
 2671POPC   C1B35779  23.644  17.150   8.893
 2671POPC   C2B35780  23.689  17.200   8.477
 2671POPC   C3B35781  23.707  17.300   8.045
 2671POPC   C4B35782  23.564  17.121   7.702
 2672POPC   NC335783  33.588  44.192   9.720
 2672POPC   PO435784  34.032  43.721   9.477
 2672POPC   GL135785  33.891  43.755   9.087
 2672POPC   GL235786  33.720  44.075   9.039
 2672POPC   C1A35787  34.148  43.721   8.728
 2672POPC   D2A35788  34.166  44.019   8.417
 2672POPC   C3A35789  34.155  43.886   8.009
 2672POPC   C4A35790  33.839  44.125   7.830
 2672POPC   C1B35791  33.694  43.946   8.620
 2672POPC   C2B35792  33.407  43.886   8.258
 2672POPC   C3B35793  33.435  43.809   7.812
 2672POPC   C4B35794  33.744  43.751   7.484
 2673POPC   NC335795   7.218  16.828   9.705
 2673POPC   PO435796   7.776  16.479   9.473
 2673POPC   GL135797   7.616  16.795   9.208
 2673POPC   GL235798   7.292  16.673   9.170
 2673POPC   C1A35799   7.549  16.892   8.795
 2673POPC   D2A35800   7.326  16.723   8.472
 2673POPC   C3A35801   7.551  16.689   8.107
 2673POPC   C4A35802   7.537  16.871   7.737
 2673POPC   C1B35803   7.053  16.448   8.818
 2673POPC   C2B35804   6.840  16.553   8.434
 2673POPC   C3B35805   7.082  16.449   8.065
 2673POPC   C4B35806   6.910  16.218   7.744
 2674POPC   NC335807  36.974  37.978   9.376
 2674POPC   PO435808  36.756  38.612   9.613
 2674POPC   GL135809  36.781  38.441   9.219
 2674POPC   GL235810  37.132  38.504   9.225
 2674POPC   C1A35811  36.632  38.415   8.799
 2674POPC   D2A35812  36.841  38.432   8.425
 2674POPC   C3A35813  36.738  38.302   8.039
 2674POPC   C4A35814  36.792  38.503   7.657
 2674POPC   C1B35815  37.177  38.276   8.841
 2674POPC   C2B35816  37.332  38.252   8.433
 2674POPC   C3B35817  37.217  38.492   8.070
 2674POPC   C4B35818  37.314  38.384   7.679
 2675POPC   NC335819  40.467  26.252   9.567
 2675POPC   PO435820  40.981  25.900   9.441
 2675POPC   GL135821  40.866  25.818   9.063
 2675POPC   GL235822  40.635  26.104   9.092
 2675POPC   C1A35823  40.631  25.808   8.678
 2675POPC   D2A35824  40.644  26.149   8.386
 2675POPC   C3A35825  40.761  26.005   7.964
 2675POPC   C4A35826  40.712  25.706   7.572
 2675POPC   C1B35827  40.312  26.236   8.794
 2675POPC   C2B35828  40.184  26.386   8.389
 2675POPC   C3B35829  40.325  26.303   7.973
 2675POPC   C4B35830  40.502  26.190   7.569
 2676POPC   NC335831  17.579  15.706   9.683
 2676POPC   PO435832  17.133  16.101   9.648
 2676POPC   GL135833  17.516  16.046   9.285
 2676POPC   GL235834  17.746  15.734   9.204
 2676POPC   C1A35835  17.664  16.057   8.818
 2676POPC   D2A35836  17.680  16.219   8.374
 2676POPC   C3A35837  17.570  15.983   7.983
 2676POPC   C4A35838  17.347  16.204   7.601
 2676POPC   C1B35839  17.800  15.533   8.822
 2676POPC   C2B35840  17.817  15.721   8.416
 2676POPC   C3B35841  17.863  15.533   8.022
 2676POPC   C4B35842  17.713  15.609   7.591
 2677POPC   NC335843   5.168  21.563   9.614
 2677POPC   PO435844   5.347  20.938   9.649
 2677POPC   GL135845   5.114  21.177   9.298
 2677POPC   GL235846   5.312  21.320   9.101
 2677POPC   C1A35847   4.856  21.317   8.907
 2677POPC   D2A35848   4.894  21.571   8.518
 2677POPC   C3A35849   5.083  21.378   8.149
 2677POPC   C4A35850   4.860  21.436   7.761
 2677POPC   C1B35851   5.336  21.310   8.684
 2677POPC   C2B35852   5.556  21.626   8.469
 2677POPC   C3B35853   5.492  21.690   8.067
 2677POPC   C4B35854   5.348  21.518   7.687
 2678POPC   NC335855  38.162  23.271   9.949
 2678POPC   PO435856  38.203  22.805   9.467
 2678POPC   GL135857  38.487  23.008   9.206
 2678POPC   GL235858  38.677  22.780   9.016
 2678POPC   C1A35859  38.399  23.166   8.792
 2678POPC   D2A35860  38.251  23.036   8.391
 2678POPC   C3A35861  38.430  23.060   7.981
 2678POPC   C4A35862  38.194  22.786   7.736
 2678POPC   C1B35863  38.468  22.628   8.663
 2678POPC   C2B35864  38.550  22.638   8.240
 2678POPC   C3B35865  38.566  22.435   7.872
 2678POPC   C4B35866  38.458  22.420   7.449
 2679POPC   NC335867  10.516   6.272   9.689
 2679POPC   PO435868  10.756   5.699   9.443
 2679POPC   GL135869  10.493   6.024   9.249
 2679POPC   GL235870  10.594   5.944   8.935
 2679POPC   C1A35871  10.184   6.236   8.960
 2679POPC   D2A35872  10.346   6.259   8.530
 2679POPC   C3A35873  10.238   6.002   8.159
 2679POPC   C4A35874  10.328   5.892   7.739
 2679POPC   C1B35875  10.933   5.695   8.786
 2679POPC   C2B35876  10.861   5.525   8.415
 2679POPC   C3B35877  10.718   5.737   8.061
 2679POPC   C4B35878  10.695   5.527   7.691
 2680POPC   NC335879  32.133   5.241   9.717
 2680POPC   PO435880  32.733   4.985   9.598
 2680POPC   GL135881  32.493   5.179   9.235
 2680POPC   GL235882  32.088   5.181   9.217
 2680POPC   C1A35883  32.577   5.189   8.768
 2680POPC   D2A35884  32.766   5.052   8.360
 2680POPC   C3A35885  32.672   5.269   7.968
 2680POPC   C4A35886  32.255   5.289   7.771
 2680POPC   C1B35887  32.050   5.217   8.779
 2680POPC   C2B35888  32.100   5.045   8.360
 2680POPC   C3B35889  31.847   5.280   8.044
 2680POPC   C4B35890  31.760   5.394   7.599
 2681POPC   NC335891  44.384   0.606   9.551
 2681POPC   PO435892  44.873   0.181   9.542
 2681POPC   GL135893  44.751   0.429   9.199
 2681POPC   GL235894  44.412   0.310   9.118
 2681POPC   C1A35895  44.914   0.465   8.775
 2681POPC   D2A35896   0.012   0.316   8.372
 2681POPC   C3A35897  44.889   0.589   8.052
 2681POPC   C4A35898   0.079   0.619   7.642
 2681POPC   C1B35899  44.448   0.672   8.829
 2681POPC   C2B35900  44.502   0.644   8.421
 2681POPC   C3B35901  44.394   0.755   8.043
 2681POPC   C4B35902  44.507   0.537   7.707
 2682POPC   NC335903  44.323  15.283   9.506
 2682POPC   PO435904   0.020  15.103   9.473
 2682POPC   GL135905  44.688  15.058   9.140
 2682POPC   GL235906  44.280  15.063   9.051
 2682POPC   C1A35907  44.749  15.129   8.713
 2682POPC   D2A35908  44.538  15.123   8.330
 2682POPC   C3A35909  44.736  15.380   8.019
 2682POPC   C4A35910   0.037  15.345   7.708
 2682POPC   C1B35911  44.362  15.423   8.808
 2682POPC   C2B35912  44.373  15.583   8.364
 2682POPC   C3B35913  44.221  15.436   7.957
 2682POPC   C4B35914  44.448  15.112   7.671
 2683POPC   NC335915  32.671   2.997   9.284
 2683POPC   PO435916  32.222   2.629   9.562
 2683POPC   GL135917  32.291   2.693   9.144
 2683POPC   GL235918  32.151   3.014   9.085
 2683POPC   C1A35919  32.370   2.545   8.746
 2683POPC   D2A35920  32.129   2.533   8.387
 2683POPC   C3A35921  32.199   2.885   8.137
 2683POPC   C4A35922  32.247   2.765   7.725
 2683POPC   C1B35923  32.262   3.085   8.650
 2683POPC   C2B35924  32.639   3.058   8.385
 2683POPC   C3B35925  32.699   2.967   7.959
 2683POPC   C4B35926  32.545   3.125   7.572
 2684POPC   NC335927  37.810  40.535   9.635
 2684POPC   PO435928  37.264  40.861   9.453
 2684POPC   GL135929  37.594  40.827   9.125
 2684POPC   GL235930  37.848  40.617   9.150
 2684POPC   C1A35931  37.725  40.759   8.683
 2684POPC   D2A35932  37.459  40.886   8.388
 2684POPC   C3A35933  37.382  40.644   8.020
 2684POPC   C4A35934  37.616  40.728   7.627
 2684POPC   C1B35935  37.962  40.339   8.845
 2684POPC   C2B35936  37.857  40.248   8.423
 2684POPC   C3B35937  37.863  40.477   8.028
 2684POPC   C4B35938  38.096  40.589   7.645
 2685POPC   NC335939  21.148   7.813   9.573
 2685POPC   PO435940  21.498   8.422   9.456
 2685POPC   GL135941  21.306   8.167   9.186
 2685POPC   GL235942  21.630   8.014   9.153
 2685POPC   C1A35943  21.146   8.255   8.786
 2685POPC   D2A35944  21.295   8.278   8.371
 2685POPC   C3A35945  21.159   8.500   8.008
 2685POPC   C4A35946  21.343   8.495   7.610
 2685POPC   C1B35947  21.654   8.139   8.741
 2685POPC   C2B35948  21.657   7.923   8.344
 2685POPC   C3B35949  21.608   8.138   7.947
 2685POPC   C4B35950  21.831   7.969   7.568
 2686POPC   NC335951   0.929  28.859   9.765
 2686POPC   PO435952   1.358  28.537   9.423
 2686POPC   GL135953   1.213  28.480   9.020
 2686POPC   GL235954   1.167  28.153   9.014
 2686POPC   C1A35955   1.280  28.344   8.571
 2686POPC   D2A35956   1.280  28.427   8.162
 2686POPC   C3A35957   1.550  28.225   7.890
 2686POPC   C4A35958   1.403  28.089   7.533
 2686POPC   C1B35959   0.856  28.104   8.709
 2686POPC   C2B35960   0.935  27.971   8.284
 2686POPC   C3B35961   0.904  28.115   7.868
 2686POPC   C4B35962   1.081  28.492   7.690
 2687POPC   NC335963  34.126   7.645   9.474
 2687POPC   PO435964  34.686   7.248   9.468
 2687POPC   GL135965  34.610   7.434   9.071
 2687POPC   GL235966  34.581   7.791   9.068
 2687POPC   C1A35967  34.230   7.557   8.800
 2687POPC   D2A35968  34.050   7.618   8.404
 2687POPC   C3A35969  34.270   7.350   8.117
 2687POPC   C4A35970  34.357   7.337   7.683
 2687POPC   C1B35971  34.787   7.791   8.686
 2687POPC   C2B35972  34.677   7.623   8.281
 2687POPC   C3B35973  34.833   7.493   7.866
 2687POPC   C4B35974  34.840   7.563   7.407
 2688POPC   NC335975   5.824   5.689   9.514
 2688POPC   PO435976   5.789   6.311   9.444
 2688POPC   GL135977   5.926   6.047   9.144
 2688POPC   GL235978   5.767   5.725   9.025
 2688POPC   C1A35979   6.109   6.117   8.778
 2688POPC   D2A35980   5.912   6.054   8.415
 2688POPC   C3A35981   6.170   6.144   8.097
 2688POPC   C4A35982   6.072   5.873   7.800
 2688POPC   C1B35983   5.538   6.015   8.791
 2688POPC   C2B35984   5.449   5.840   8.382
 2688POPC   C3B35985   5.584   5.894   7.986
 2688POPC   C4B35986   5.725   5.508   7.818
 2689POPC   NC335987  33.245   4.185   9.671
 2689POPC   PO435988  32.645   4.002   9.441
 2689POPC   GL135989  33.057   4.011   9.202
 2689POPC   GL235990  33.115   4.326   9.087
 2689POPC   C1A35991  33.328   3.982   8.787
 2689POPC   D2A35992  33.309   4.274   8.433
 2689POPC   C3A35993  33.028   4.150   8.088
 2689POPC   C4A35994  33.158   4.437   7.779
 2689POPC   C1B35995  32.898   4.292   8.723
 2689POPC   C2B35996  32.844   4.537   8.342
 2689POPC   C3B35997  32.743   4.705   7.954
 2689POPC   C4B35998  32.508   4.393   7.787
 2690POPC   NC335999   6.962  36.082   9.694
 2690POPC   PO436000   7.536  35.972   9.404
 2690POPC   GL136001   7.551  36.143   9.041
 2690POPC   GL236002   7.629  36.498   9.078
 2690POPC   C1A36003   7.434  35.990   8.664
 2690POPC   D2A36004   7.331  35.818   8.300
 2690POPC   C3A36005   7.168  36.132   8.032
 2690POPC   C4A36006   7.003  36.048   7.633
 2690POPC   C1B36007   7.347  36.500   8.738
 2690POPC   C2B36008   7.490  36.389   8.331
 2690POPC   C3B36009   7.659  36.285   7.912
 2690POPC   C4B36010   7.516  36.175   7.497
 2691POPC   NC336011  30.772  24.950   9.585
 2691POPC   PO436012  30.680  25.606   9.447
 2691POPC   GL136013  30.774  25.291   9.136
 2691POPC   GL236014  30.583  24.974   9.130
 2691POPC   C1A36015  30.612  25.359   8.712
 2691POPC   D2A36016  30.804  25.505   8.343
 2691POPC   C3A36017  30.561  25.621   7.991
 2691POPC   C4A36018  30.614  25.370   7.670
 2691POPC   C1B36019  30.807  24.891   8.757
 2691POPC   C2B36020  30.809  24.994   8.341
 2691POPC   C3B36021  30.469  25.131   8.096
 2691POPC   C4B36022  30.314  24.927   7.704
 2692POPC   NC336023  35.417  16.766   9.474
 2692POPC   PO436024  34.898  16.974   9.445
 2692POPC   GL136025  35.063  16.773   9.094
 2692POPC   GL236026  35.023  16.433   9.205
 2692POPC   C1A36027  35.272  16.823   8.666
 2692POPC   D2A36028  35.234  16.696   8.218
 2692POPC   C3A36029  35.419  16.920   7.842
 2692POPC   C4A36030  35.394  17.228   7.434
 2692POPC   C1B36031  35.074  16.378   8.777
 2692POPC   C2B36032  35.411  16.292   8.495
 2692POPC   C3B36033  35.377  16.224   8.079
 2692POPC   C4B36034  35.393  16.422   7.699
 2693POPC   NC336035   1.076  20.150   9.456
 2693POPC   PO436036   1.216  19.421   9.537
 2693POPC   GL136037   1.277  19.754   9.212
 2693POPC   GL236038   0.931  19.703   9.204
 2693POPC   C1A36039   1.411  19.826   8.786
 2693POPC   D2A36040   1.430  19.474   8.502
 2693POPC   C3A36041   1.359  19.712   8.105
 2693POPC   C4A36042   1.319  20.160   7.968
 2693POPC   C1B36043   0.927  19.722   8.803
 2693POPC   C2B36044   0.980  19.933   8.433
 2693POPC   C3B36045   0.854  19.783   8.044
 2693POPC   C4B36046   1.038  19.788   7.664
 2694POPC   NC336047  30.847  14.272   9.610
 2694POPC   PO436048  30.448  14.773   9.468
 2694POPC   GL136049  30.681  14.762   9.102
 2694POPC   GL236050  30.865  14.455   9.144
 2694POPC   C1A36051  30.880  14.685   8.703
 2694POPC   D2A36052  30.824  14.428   8.411
 2694POPC   C3A36053  30.634  14.595   8.103
 2694POPC   C4A36054  30.754  14.619   7.707
 2694POPC   C1B36055  30.983  14.172   8.823
 2694POPC   C2B36056  31.022  13.960   8.424
 2694POPC   C3B36057  30.876  14.110   8.020
 2694POPC   C4B36058  31.071  14.204   7.658
 2695POPC   NC336059  23.520   4.530   9.574
 2695POPC   PO436060  23.786   3.980   9.440
 2695POPC   GL136061  23.651   4.228   9.104
 2695POPC   GL236062  23.334   4.173   9.210
 2695POPC   C1A36063  23.724   4.306   8.652
 2695POPC   D2A36064  23.712   4.021   8.304
 2695POPC   C3A36065  23.752   4.218   7.912
 2695POPC   C4A36066  23.969   4.213   7.511
 2695POPC   C1B36067  23.258   4.428   8.833
 2695POPC   C2B36068  23.279   4.333   8.390
 2695POPC   C3B36069  23.080   4.236   7.992
 2695POPC   C4B36070  23.327   4.307   7.633
 2696POPC   NC336071  14.821  42.753   9.551
 2696POPC   PO436072  14.766  42.076   9.434
 2696POPC   GL136073  15.136  42.314   9.196
 2696POPC   GL236074  15.456  42.552   9.271
 2696POPC   C1A36075  15.063  42.385   8.758
 2696POPC   D2A36076  14.826  42.409   8.395
 2696POPC   C3A36077  14.982  42.090   8.130
 2696POPC   C4A36078  14.994  42.122   7.718
 2696POPC   C1B36079  15.434  42.734   8.835
 2696POPC   C2B36080  15.176  42.777   8.427
 2696POPC   C3B36081  15.188  42.552   8.042
 2696POPC   C4B36082  15.438  42.324   7.769
 2697POPC   NC336083   1.842  38.901   9.300
 2697POPC   PO436084   1.789  39.515   9.523
 2697POPC   GL136085   2.028  39.378   9.128
 2697POPC   GL236086   2.158  39.034   8.952
 2697POPC   C1A36087   2.119  39.435   8.680
 2697POPC   D2A36088   2.275  39.139   8.410
 2697POPC   C3A36089   2.170  39.205   7.992
 2697POPC   C4A36090   1.776  39.340   7.812
 2697POPC   C1B36091   1.819  38.977   8.627
 2697POPC   C2B36092   1.751  38.935   8.149
 2697POPC   C3B36093   1.711  38.829   7.678
 2697POPC   C4B36094   1.658  38.961   7.200
 2698POPC   NC336095  41.268  29.836   9.475
 2698POPC   PO436096  41.912  29.852   9.355
 2698POPC   GL136097  41.695  30.106   9.139
 2698POPC   GL236098  41.494  29.874   9.034
 2698POPC   C1A36099  41.716  30.241   8.728
 2698POPC   D2A36100  41.550  29.920   8.410
 2698POPC   C3A36101  41.525  30.027   7.957
 2698POPC   C4A36102  41.582  30.158   7.532
 2698POPC   C1B36103  41.198  29.612   8.844
 2698POPC   C2B36104  41.145  29.592   8.423
 2698POPC   C3B36105  41.412  29.534   8.043
 2698POPC   C4B36106  41.323  29.628   7.619
 2699POPC   NC336107   4.039   0.821   9.795
 2699POPC   PO436108   4.083   1.414   9.585
 2699POPC   GL136109   4.055   1.299   9.186
 2699POPC   GL236110   4.072   0.963   9.295
 2699POPC   C1A36111   4.122   1.371   8.748
 2699POPC   D2A36112   4.408   1.190   8.434
 2699POPC   C3A36113   4.374   1.414   8.037
 2699POPC   C4A36114   4.570   1.392   7.651
 2699POPC   C1B36115   4.318   0.913   8.920
 2699POPC   C2B36116   4.185   0.689   8.570
 2699POPC   C3B36117   4.185   0.676   8.147
 2699POPC   C4B36118   4.202   0.973   7.842
 2700POPC   NC336119  28.650  26.236   9.964
 2700POPC   PO436120  28.163  25.787   9.660
 2700POPC   GL136121  28.145  25.997   9.257
 2700POPC   GL236122  28.487  26.111   9.130
 2700POPC   C1A36123  28.061  25.958   8.820
 2700POPC   D2A36124  28.342  25.899   8.476
 2700POPC   C3A36125  28.195  25.941   8.087
 2700POPC   C4A36126  28.093  25.661   7.753
 2700POPC   C1B36127  28.646  26.258   8.679
 2700POPC   C2B36128  28.558  26.319   8.218
 2700POPC   C3B36129  28.768  26.315   7.804
 2700POPC   C4B36130  28.636  26.162   7.346
 2701POPC   NC336131  22.198  36.690   9.603
 2701POPC   PO436132  21.830  37.300   9.432
 2701POPC   GL136133  21.957  36.905   9.162
 2701POPC   GL236134  22.174  36.570   9.118
 2701POPC   C1A36135  21.952  36.757   8.717
 2701POPC   D2A36136  22.251  36.932   8.419
 2701POPC   C3A36137  22.141  36.912   7.996
 2701POPC   C4A36138  22.280  37.091   7.637
 2701POPC   C1B36139  22.488  36.523   8.805
 2701POPC   C2B36140  22.650  36.607   8.404
 2701POPC   C3B36141  22.495  36.475   8.018
 2701POPC   C4B36142  22.380  36.582   7.613
 2702POPC   NC336143  23.001  16.735   9.578
 2702POPC   PO436144  22.503  16.240   9.437
 2702POPC   GL136145  22.872  16.440   9.185
 2702POPC   GL236146  23.115  16.749   9.092
 2702POPC   C1A36147  22.818  16.583   8.738
 2702POPC   D2A36148  23.079  16.533   8.376
 2702POPC   C3A36149  22.796  16.544   8.036
 2702POPC   C4A36150  22.460  16.468   7.768
 2702POPC   C1B36151  23.186  16.976   8.675
 2702POPC   C2B36152  23.323  16.950   8.217
 2702POPC   C3B36153  23.126  16.870   7.814
 2702POPC   C4B36154  23.102  17.168   7.487
 2703POPC   NC336155  33.482  27.955   9.477
 2703POPC   PO436156  33.681  27.334   9.800
 2703POPC   GL136157  33.847  27.362   9.311
 2703POPC   GL236158  33.735  27.644   9.116
 2703POPC   C1A36159  34.023  27.393   8.803
 2703POPC   D2A36160  34.277  27.308   8.464
 2703POPC   C3A36161  34.034  27.336   8.119
 2703POPC   C4A36162  33.730  27.381   7.775
 2703POPC   C1B36163  33.519  27.456   8.745
 2703POPC   C2B36164  33.619  27.557   8.295
 2703POPC   C3B36165  33.598  27.838   7.893
 2703POPC   C4B36166  33.416  27.699   7.484
 2704POPC   NC336167  40.187   8.030   9.584
 2704POPC   PO436168  39.567   8.011   9.461
 2704POPC   GL136169  39.924   8.128   9.157
 2704POPC   GL236170  40.055   8.455   9.213
 2704POPC   C1A36171  40.179   8.214   8.778
 2704POPC   D2A36172  40.061   8.279   8.339
 2704POPC   C3A36173  40.235   8.305   7.930
 2704POPC   C4A36174  40.209   8.059   7.528
 2704POPC   C1B36175  39.768   8.530   8.809
 2704POPC   C2B36176  39.592   8.486   8.359
 2704POPC   C3B36177  39.722   8.302   7.930
 2704POPC   C4B36178  39.945   8.511   7.571
 2705POPC   NC336179   6.521  15.877   9.564
 2705POPC   PO436180   6.959  16.418   9.467
 2705POPC   GL136181   6.721  16.188   9.186
 2705POPC   GL236182   6.758  15.818   9.120
 2705POPC   C1A36183   6.609  16.189   8.771
 2705POPC   D2A36184   6.373  16.006   8.464
 2705POPC   C3A36185   6.575  16.183   8.143
 2705POPC   C4A36186   6.402  16.271   7.767
 2705POPC   C1B36187   6.640  15.659   8.730
 2705POPC   C2B36188   6.726  15.672   8.289
 2705POPC   C3B36189   6.675  15.758   7.863
 2705POPC   C4B36190   6.992  15.756   7.574
 2706POPC   NC336191   9.780  42.245   9.538
 2706POPC   PO436192   9.116  42.117   9.485
 2706POPC   GL136193   9.487  42.156   9.144
 2706POPC   GL236194   9.688  42.513   9.131
 2706POPC   C1A36195   9.833  42.163   8.777
 2706POPC   D2A36196  10.023  42.123   8.301
 2706POPC   C3A36197   9.735  42.208   7.931
 2706POPC   C4A36198   9.795  42.196   7.472
 2706POPC   C1B36199   9.996  42.648   8.842
 2706POPC   C2B36200   9.851  42.583   8.431
 2706POPC   C3B36201  10.023  42.617   8.026
 2706POPC   C4B36202   9.900  42.661   7.582
 2707POPC   NC336203  32.791  20.730   9.410
 2707POPC   PO436204  32.440  20.287   9.821
 2707POPC   GL136205  32.344  20.388   9.322
 2707POPC   GL236206  32.299  20.735   9.144
 2707POPC   C1A36207  32.296  20.323   8.849
 2707POPC   D2A36208  32.330  20.603   8.484
 2707POPC   C3A36209  32.516  20.538   8.064
 2707POPC   C4A36210  32.428  20.177   7.791
 2707POPC   C1B36211  31.932  20.660   8.810
 2707POPC   C2B36212  31.858  20.723   8.334
 2707POPC   C3B36213  32.030  20.707   7.910
 2707POPC   C4B36214  32.034  20.695   7.446
 2708POPC   NC336215  41.285  32.516   9.373
 2708POPC   PO436216  41.739  32.056   9.621
 2708POPC   GL136217  41.629  32.065   9.204
 2708POPC   GL236218  41.756  32.404   9.201
 2708POPC   C1A36219  41.639  32.151   8.756
 2708POPC   D2A36220  41.527  32.494   8.453
 2708POPC   C3A36221  41.397  32.345   8.067
 2708POPC   C4A36222  41.610  31.983   7.933
 2708POPC   C1B36223  41.855  32.610   8.822
 2708POPC   C2B36224  42.037  32.548   8.445
 2708POPC   C3B36225  41.933  32.424   8.026
 2708POPC   C4B36226  41.713  32.775   7.860
 2709POPC   NC336227   0.702   3.741   9.490
 2709POPC   PO436228   0.451   3.111   9.514
 2709POPC   GL136229   0.639   3.328   9.117
 2709POPC   GL236230   0.812   3.685   8.993
 2709POPC   C1A36231   0.466   3.401   8.704
 2709POPC   D2A36232   0.531   3.650   8.339
 2709POPC   C3A36233   0.421   3.387   7.987
 2709POPC   C4A36234   0.610   3.199   7.630
 2709POPC   C1B36235   0.544   3.983   8.747
 2709POPC   C2B36236   0.268   4.095   8.385
 2709POPC   C3B36237   0.335   3.922   7.948
 2709POPC   C4B36238   0.080   3.995   7.637
 2710POPC   NC336239  20.029  37.613   9.714
 2710POPC   PO436240  19.561  37.301   9.319
 2710POPC   GL136241  19.956  37.277   9.099
 2710POPC   GL236242  20.025  37.611   9.178
 2710POPC   C1A36243  19.933  37.373   8.675
 2710POPC   D2A36244  19.586  37.644   8.513
 2710POPC   C3A36245  19.595  37.732   8.078
 2710POPC   C4A36246  19.572  38.004   7.751
 2710POPC   C1B36247  20.148  37.812   8.768
 2710POPC   C2B36248  20.120  37.710   8.305
 2710POPC   C3B36249  20.074  37.792   7.851
 2710POPC   C4B36250  19.829  37.655   7.493
 2711POPC   NC336251  35.781  12.538   9.412
 2711POPC   PO436252  36.299  12.745   9.680
 2711POPC   GL136253  36.319  12.831   9.241
 2711POPC   GL236254  36.320  12.488   9.199
 2711POPC   C1A36255  36.120  13.024   8.869
 2711POPC   D2A36256  35.940  13.071   8.431
 2711POPC   C3A36257  36.175  13.073   8.018
 2711POPC   C4A36258  36.024  12.957   7.597
 2711POPC   C1B36259  36.406  12.582   8.779
 2711POPC   C2B36260  36.287  12.461   8.347
 2711POPC   C3B36261  36.240  12.570   7.895
 2711POPC   C4B36262  36.314  12.529   7.459
 2712POPC   NC336263   4.348  35.346   9.638
 2712POPC   PO436264   3.969  35.705   9.194
 2712POPC   GL136265   4.145  35.248   9.179
 2712POPC   GL236266   4.536  35.168   9.208
 2712POPC   C1A36267   4.279  35.047   8.804
 2712POPC   D2A36268   4.223  35.302   8.458
 2712POPC   C3A36269   4.402  35.181   8.087
 2712POPC   C4A36270   4.274  35.289   7.682
 2712POPC   C1B36271   4.544  35.488   8.848
 2712POPC   C2B36272   4.636  35.599   8.393
 2712POPC   C3B36273   4.461  35.657   7.974
 2712POPC   C4B36274   4.642  35.637   7.543
 2713POPC   NC336275  15.912  44.995   9.490
 2713POPC   PO436276  16.459   0.422   9.402
 2713POPC   GL136277  16.108   0.544   9.166
 2713POPC   GL236278  15.769   0.410   9.208
 2713POPC   C1A36279  16.001   0.453   8.758
 2713POPC   D2A36280  15.730   0.659   8.502
 2713POPC   C3A36281  15.879   0.532   8.124
 2713POPC   C4A36282  15.855   0.647   7.698
 2713POPC   C1B36283  15.512   0.325   8.820
 2713POPC   C2B36284  15.527   0.199   8.396
 2713POPC   C3B36285  15.490   0.274   7.967
 2713POPC   C4B36286  15.516   0.120   7.558
 2714POPC   NC336287  21.219   3.451   9.427
 2714POPC   PO436288  21.832   3.640   9.687
 2714POPC   GL136289  21.764   3.538   9.194
 2714POPC   GL236290  21.786   3.885   9.010
 2714POPC   C1A36291  21.495   3.544   8.768
 2714POPC   D2A36292  21.175   3.672   8.425
 2714POPC   C3A36293  21.059   3.541   7.998
 2714POPC   C4A36294  21.057   3.725   7.559
 2714POPC   C1B36295  21.829   4.093   8.639
 2714POPC   C2B36296  21.674   3.811   8.347
 2714POPC   C3B36297  21.545   3.459   8.112
 2714POPC   C4B36298  21.465   3.438   7.684
 2715POPC   NC336299   1.142  34.495   9.540
 2715POPC   PO436300   0.785  34.952   9.198
 2715POPC   GL136301   1.178  34.792   9.047
 2715POPC   GL236302   1.322  34.472   9.076
 2715POPC   C1A36303   1.242  34.758   8.623
 2715POPC   D2A36304   1.107  34.878   8.236
 2715POPC   C3A36305   1.202  34.595   7.975
 2715POPC   C4A36306   1.463  34.323   7.841
 2715POPC   C1B36307   1.342  34.254   8.713
 2715POPC   C2B36308   1.123  34.245   8.339
 2715POPC   C3B36309   0.977  34.120   7.944
 2715POPC   C4B36310   1.200  33.963   7.600
 2716POPC   NC336311  31.031   0.381   9.552
 2716POPC   PO436312  30.406   0.388   9.654
 2716POPC   GL136313  30.611   0.335   9.245
 2716POPC   GL236314  30.523   0.691   9.202
 2716POPC   C1A36315  30.717   0.148   8.831
 2716POPC   D2A36316  30.592   0.231   8.422
 2716POPC   C3A36317  30.718   0.557   8.120
 2716POPC   C4A36318  30.490   0.240   7.881
 2716POPC   C1B36319  30.632   0.646   8.770
 2716POPC   C2B36320  30.318   0.643   8.457
 2716POPC   C3B36321  30.213   0.641   8.049
 2716POPC   C4B36322  30.438   0.678   7.649
 2717POPC   NC336323  34.676  24.001   9.819
 2717POPC   PO436324  34.714  24.693   9.618
 2717POPC   GL136325  34.718  24.745   9.177
 2717POPC   GL236326  34.377  24.822   9.095
 2717POPC   C1A36327  34.599  24.433   8.811
 2717POPC   D2A36328  34.277  24.288   8.530
 2717POPC   C3A36329  34.357  24.108   8.148
 2717POPC   C4A36330  34.401  24.414   7.826
 2717POPC   C1B36331  34.602  24.930   8.726
 2717POPC   C2B36332  34.859  24.866   8.391
 2717POPC   C3B36333  34.680  24.751   8.085
 2717POPC   C4B36334  34.620  24.955   7.762
 2718POPC   NC336335  21.079   9.635   9.493
 2718POPC   PO436336  21.679   9.404   9.505
 2718POPC   GL136337  21.494   9.532   9.100
 2718POPC   GL236338  21.686   9.816   8.957
 2718POPC   C1A36339  21.326   9.518   8.650
 2718POPC   D2A36340  21.008   9.711   8.340
 2718POPC   C3A36341  21.108   9.808   7.893
 2718POPC   C4A36342  21.365   9.528   7.611
 2718POPC   C1B36343  21.368  10.022   8.674
 2718POPC   C2B36344  21.449   9.992   8.233
 2718POPC   C3B36345  21.591   9.942   7.815
 2718POPC   C4B36346  21.307   9.998   7.433
 2719POPC   NC336347   9.472  40.144   9.463
 2719POPC   PO436348  10.008  39.872   9.517
 2719POPC   GL136349   9.804  39.813   9.101
 2719POPC   GL236350   9.463  39.765   9.112
 2719POPC   C1A36351   9.907  39.942   8.651
 2719POPC   D2A36352  10.091  40.309   8.381
 2719POPC   C3A36353  10.007  40.313   7.910
 2719POPC   C4A36354   9.619  40.188   7.702
 2719POPC   C1B36355   9.306  39.904   8.777
 2719POPC   C2B36356   9.476  39.832   8.389
 2719POPC   C3B36357   9.832  39.890   8.126
 2719POPC   C4B36358   9.931  39.791   7.683
 2720POPC   NC336359   1.725  13.190   9.391
 2720POPC   PO436360   2.078  12.608   9.373
 2720POPC   GL136361   2.049  12.891   9.085
 2720POPC   GL236362   1.777  12.713   8.932
 2720POPC   C1A36363   2.235  12.786   8.705
 2720POPC   D2A36364   1.952  12.576   8.438
 2720POPC   C3A36365   2.025  12.830   8.137
 2720POPC   C4A36366   2.038  12.996   7.721
 2720POPC   C1B36367   1.810  13.094   8.676
 2720POPC   C2B36368   1.712  13.278   8.296
 2720POPC   C3B36369   1.608  13.030   7.953
 2720POPC   C4B36370   1.622  13.118   7.455
 2721POPC   NC336371  18.393  17.684   9.754
 2721POPC   PO436372  18.122  17.189   9.310
 2721POPC   GL136373  18.448  17.493   9.229
 2721POPC   GL236374  18.434  17.826   9.077
 2721POPC   C1A36375  18.660  17.476   8.800
 2721POPC   D2A36376  18.583  17.309   8.356
 2721POPC   C3A36377  18.569  17.632   7.995
 2721POPC   C4A36378  18.596  17.744   7.532
 2721POPC   C1B36379  18.170  17.569   8.796
 2721POPC   C2B36380  18.094  17.543   8.377
 2721POPC   C3B36381  18.110  17.404   7.976
 2721POPC   C4B36382  18.066  17.839   7.854
 2722POPC   NC336383  38.213  25.661   9.555
 2722POPC   PO436384  38.524  25.042   9.387
 2722POPC   GL136385  38.277  25.326   9.174
 2722POPC   GL236386  38.566  25.596   9.182
 2722POPC   C1A36387  38.102  25.269   8.763
 2722POPC   D2A36388  38.345  25.055   8.449
 2722POPC   C3A36389  38.287  25.173   8.033
 2722POPC   C4A36390  37.942  25.265   7.763
 2722POPC   C1B36391  38.602  25.373   8.788
 2722POPC   C2B36392  38.625  25.514   8.393
 2722POPC   C3B36393  38.791  25.725   8.039
 2722POPC   C4B36394  38.643  25.831   7.648
 2723POPC   NC336395  34.816  14.516   9.567
 2723POPC   PO436396  34.079  14.613   9.604
 2723POPC   GL136397  34.377  14.458   9.252
 2723POPC   GL236398  34.543  14.738   9.182
 2723POPC   C1A36399  34.712  14.365   8.892
 2723POPC   D2A36400  34.916  14.267   8.494
 2723POPC   C3A36401  34.645  14.043   8.217
 2723POPC   C4A36402  34.420  14.164   7.822
 2723POPC   C1B36403  34.300  14.648   8.777
 2723POPC   C2B36404  34.369  14.473   8.367
 2723POPC   C3B36405  34.321  14.679   7.980
 2723POPC   C4B36406  34.592  14.640   7.613
 2724POPC   NC336407  42.702   3.325   9.282
 2724POPC   PO436408  43.142   3.834   9.489
 2724POPC   GL136409  43.005   3.733   9.124
 2724POPC   GL236410  43.197   3.418   9.130
 2724POPC   C1A36411  43.020   3.738   8.689
 2724POPC   D2A36412  43.050   3.852   8.274
 2724POPC   C3A36413  42.698   3.688   8.049
 2724POPC   C4A36414  42.956   3.401   7.786
 2724POPC   C1B36415  43.317   3.305   8.734
 2724POPC   C2B36416  43.380   3.480   8.357
 2724POPC   C3B36417  43.408   3.616   7.922
 2724POPC   C4B36418  43.423   3.305   7.580
 2725POPC   NC336419  19.096  19.098   9.535
 2725POPC   PO436420  18.570  19.465   9.636
 2725POPC   GL136421  18.838  19.486   9.222
 2725POPC   GL236422  19.013  19.185   9.038
 2725POPC   C1A36423  18.768  19.555   8.749
 2725POPC   D2A36424  18.691  19.375   8.307
 2725POPC   C3A36425  19.057  19.177   8.100
 2725POPC   C4A36426  19.094  19.099   7.664
 2725POPC   C1B36427  19.262  18.835   8.792
 2725POPC   C2B36428  19.233  18.712   8.353
 2725POPC   C3B36429  19.443  18.833   7.972
 2725POPC   C4B36430  19.441  18.723   7.557
 2726POPC   NC336431  43.369  39.824   9.395
 2726POPC   PO436432  42.660  39.968   9.487
 2726POPC   GL136433  42.927  40.128   9.179
 2726POPC   GL236434  42.991  39.797   9.066
 2726POPC   C1A36435  43.120  40.177   8.755
 2726POPC   D2A36436  43.008  39.969   8.394
 2726POPC   C3A36437  43.209  40.049   8.012
 2726POPC   C4A36438  42.911  40.025   7.728
 2726POPC   C1B36439  43.238  39.581   8.727
 2726POPC   C2B36440  43.372  39.631   8.297
 2726POPC   C3B36441  43.274  39.545   7.898
 2726POPC   C4B36442  43.370  39.780   7.548
 2727POPC   NC336443   8.956  16.249   9.531
 2727POPC   PO436444   9.217  16.879   9.416
 2727POPC   GL136445   8.960  16.632   9.168
 2727POPC   GL236446   9.198  16.366   9.117
 2727POPC   C1A36447   8.735  16.737   8.801
 2727POPC   D2A36448   8.882  16.638   8.397
 2727POPC   C3A36449   8.902  16.957   8.109
 2727POPC   C4A36450   8.840  16.787   7.736
 2727POPC   C1B36451   9.039  16.293   8.760
 2727POPC   C2B36452   9.206  16.235   8.359
 2727POPC   C3B36453   9.096  16.350   7.930
 2727POPC   C4B36454   9.372  16.400   7.548
 2728POPC   NC336455  11.504  38.140   9.489
 2728POPC   PO436456  11.235  37.493   9.662
 2728POPC   GL136457  11.426  37.600   9.292
 2728POPC   GL236458  11.268  37.319   9.145
 2728POPC   C1A36459  11.568  37.715   8.859
 2728POPC   D2A36460  11.636  37.616   8.405
 2728POPC   C3A36461  11.457  37.820   8.002
 2728POPC   C4A36462  11.063  38.050   7.840
 2728POPC   C1B36463  10.936  37.120   8.873
 2728POPC   C2B36464  10.924  37.115   8.417
 2728POPC   C3B36465  10.906  37.380   8.037
 2728POPC   C4B36466  11.118  37.552   7.689
 2729POPC   NC336467  33.854  39.950   9.472
 2729POPC   PO436468  33.314  40.329   9.564
 2729POPC   GL136469  33.438  40.059   9.189
 2729POPC   GL236470  33.633  40.329   9.144
 2729POPC   C1A36471  33.772  39.966   8.818
 2729POPC   D2A36472  33.966  39.830   8.423
 2729POPC   C3A36473  33.741  39.837   8.082
 2729POPC   C4A36474  33.796  39.842   7.696
 2729POPC   C1B36475  33.427  40.362   8.766
 2729POPC   C2B36476  33.562  40.223   8.377
 2729POPC   C3B36477  33.658  40.316   7.936
 2729POPC   C4B36478  33.474  40.242   7.540
 2730POPC   NC336479  39.490  38.359   9.602
 2730POPC   PO436480  39.071  37.885   9.449
 2730POPC   GL136481  39.053  38.245   9.162
 2730POPC   GL236482  39.108  38.564   9.312
 2730POPC   C1A36483  39.272  38.298   8.762
 2730POPC   D2A36484  39.441  38.586   8.454
 2730POPC   C3A36485  39.450  38.454   8.024
 2730POPC   C4A36486  39.170  38.347   7.665
 2730POPC   C1B36487  39.093  38.743   8.899
 2730POPC   C2B36488  38.937  38.572   8.502
 2730POPC   C3B36489  38.952  38.613   8.086
 2730POPC   C4B36490  38.968  38.846   7.720
 2731POPC   NC336491  32.748  36.799   9.533
 2731POPC   PO436492  32.747  37.430   9.384
 2731POPC   GL136493  32.881  37.059   9.109
 2731POPC   GL236494  32.931  36.660   9.089
 2731POPC   C1A36495  32.843  37.000   8.674
 2731POPC   D2A36496  32.919  36.765   8.290
 2731POPC   C3A36497  32.738  36.941   7.930
 2731POPC   C4A36498  32.980  37.113   7.626
 2731POPC   C1B36499  32.879  36.439   8.697
 2731POPC   C2B36500  33.205  36.330   8.359
 2731POPC   C3B36501  33.354  36.349   7.965
 2731POPC   C4B36502  33.135  36.650   7.734
 2732POPC   NC336503   5.634  10.010   9.658
 2732POPC   PO436504   6.020   9.522   9.300
 2732POPC   GL136505   5.833   9.724   8.944
 2732POPC   GL236506   5.646  10.034   9.082
 2732POPC   C1A36507   5.831   9.587   8.572
 2732POPC   D2A36508   5.605   9.319   8.338
 2732POPC   C3A36509   5.779   9.373   7.967
 2732POPC   C4A36510   5.921   9.237   7.576
 2732POPC   C1B36511   5.510  10.005   8.665
 2732POPC   C2B36512   5.646   9.918   8.255
 2732POPC   C3B36513   5.998   9.897   8.026
 2732POPC   C4B36514   5.977   9.720   7.668
 2733POPC   NC336515  41.209   8.859   9.542
 2733POPC   PO436516  41.732   9.249   9.869
 2733POPC   GL136517  41.767   9.184   9.386
 2733POPC   GL236518  41.649   8.850   9.266
 2733POPC   C1A36519  41.721   9.217   8.903
 2733POPC   D2A36520  41.673   9.000   8.496
 2733POPC   C3A36521  41.804   9.163   8.088
 2733POPC   C4A36522  41.908   8.983   7.679
 2733POPC   C1B36523  41.360   8.728   8.930
 2733POPC   C2B36524  41.346   8.603   8.531
 2733POPC   C3B36525  41.227   8.600   8.127
 2733POPC   C4B36526  41.432   8.668   7.759
 2734POPC   NC336527   5.444  36.457   9.395
 2734POPC   PO436528   4.751  36.204   9.565
 2734POPC   GL136529   4.917  36.001   9.188
 2734POPC   GL236530   5.118  36.269   9.052
 2734POPC   C1A36531   4.957  35.903   8.739
 2734POPC   D2A36532   4.928  36.150   8.365
 2734POPC   C3A36533   4.870  35.925   8.000
 2734POPC   C4A36534   5.150  35.740   7.720
 2734POPC   C1B36535   5.452  36.308   8.721
 2734POPC   C2B36536   5.474  36.356   8.266
 2734POPC   C3B36537   5.251  36.235   7.896
 2734POPC   C4B36538   5.331  36.193   7.442
 2735POPC   NC336539  24.891  14.120   9.320
 2735POPC   PO436540  25.440  14.276   9.717
 2735POPC   GL136541  25.299  14.440   9.341
 2735POPC   GL236542  25.402  14.122   9.223
 2735POPC   C1A36543  25.133  14.649   8.968
 2735POPC   D2A36544  25.259  14.791   8.553
 2735POPC   C3A36545  25.254  14.658   8.102
 2735POPC   C4A36546  25.196  14.371   7.764
 2735POPC   C1B36547  25.405  13.976   8.823
 2735POPC   C2B36548  25.451  14.133   8.428
 2735POPC   C3B36549  25.550  14.115   8.028
 2735POPC   C4B36550  25.654  14.204   7.624
 2736POPC   NC336551  43.623  20.259   9.605
 2736POPC   PO436552  44.263  20.574   9.617
 2736POPC   GL136553  44.061  20.672   9.225
 2736POPC   GL236554  44.289  20.924   9.122
 2736POPC   C1A36555  43.867  20.822   8.822
 2736POPC   D2A36556  43.979  20.996   8.422
 2736POPC   C3A36557  43.868  20.815   8.011
 2736POPC   C4A36558  43.714  20.393   7.880
 2736POPC   C1B36559  44.346  20.637   8.781
 2736POPC   C2B36560  44.121  20.479   8.425
 2736POPC   C3B36561  44.216  20.355   8.017
 2736POPC   C4B36562  44.290  20.567   7.659
 2737POPC   NC336563   7.111   3.994   9.427
 2737POPC   PO436564   7.551   3.561   9.485
 2737POPC   GL136565   7.533   3.442   9.079
 2737POPC   GL236566   7.381   3.775   9.033
 2737POPC   C1A36567   7.518   3.260   8.667
 2737POPC   D2A36568   7.447   3.532   8.328
 2737POPC   C3A36569   7.616   3.426   7.936
 2737POPC   C4A36570   7.716   3.664   7.570
 2737POPC   C1B36571   7.121   3.618   8.724
 2737POPC   C2B36572   6.917   3.700   8.346
 2737POPC   C3B36573   7.107   3.659   7.966
 2737POPC   C4B36574   7.158   3.926   7.665
 2738POPC   NC336575  31.114   1.376   9.489
 2738POPC   PO436576  31.729   1.219   9.488
 2738POPC   GL136577  31.517   1.371   9.145
 2738POPC   GL236578  31.672   1.059   8.988
 2738POPC   C1A36579  31.313   1.288   8.746
 2738POPC   D2A36580  31.467   0.938   8.495
 2738POPC   C3A36581  31.328   0.939   8.068
 2738POPC   C4A36582  31.248   1.277   7.784
 2738POPC   C1B36583  31.903   1.467   8.835
 2738POPC   C2B36584  31.998   1.747   8.489
 2738POPC   C3B36585  31.980   1.657   8.053
 2738POPC   C4B36586  31.747   1.341   7.831
 2739POPC   NC336587  12.867  12.283   9.429
 2739POPC   PO436588  12.604  11.715   9.383
 2739POPC   GL136589  12.831  11.870   9.054
 2739POPC   GL236590  13.164  11.954   9.150
 2739POPC   C1A36591  12.911  12.157   8.712
 2739POPC   D2A36592  12.774  12.236   8.268
 2739POPC   C3A36593  13.059  12.142   7.945
 2739POPC   C4A36594  13.187  12.297   7.521
 2739POPC   C1B36595  13.257  11.745   8.772
 2739POPC   C2B36596  13.339  11.901   8.367
 2739POPC   C3B36597  13.257  11.691   8.005
 2739POPC   C4B36598  13.212  11.787   7.601
 2740POPC   NC336599  22.033  13.828   9.484
 2740POPC   PO436600  22.366  13.289   9.638
 2740POPC   GL136601  22.379  13.523   9.269
 2740POPC   GL236602  22.078  13.441   9.126
 2740POPC   C1A36603  22.432  13.762   8.877
 2740POPC   D2A36604  22.628  13.698   8.471
 2740POPC   C3A36605  22.393  13.818   8.099
 2740POPC   C4A36606  22.179  13.551   7.820
 2740POPC   C1B36607  21.823  13.502   8.769
 2740POPC   C2B36608  21.949  13.595   8.344
 2740POPC   C3B36609  21.771  13.330   8.021
 2740POPC   C4B36610  21.847  13.193   7.622
 2741POPC   NC336611  44.256  42.132   9.503
 2741POPC   PO436612  43.654  42.505   9.525
 2741POPC   GL136613  43.762  42.321   9.138
 2741POPC   GL236614  43.713  42.636   9.009
 2741POPC   C1A36615  43.944  42.226   8.715
 2741POPC   D2A36616  44.132  42.006   8.356
 2741POPC   C3A36617  43.911  42.035   7.989
 2741POPC   C4A36618  44.043  42.067   7.596
 2741POPC   C1B36619  43.462  42.397   8.722
 2741POPC   C2B36620  43.580  42.263   8.302
 2741POPC   C3B36621  43.655  42.511   7.948
 2741POPC   C4B36622  43.585  42.744   7.605
 2742POPC   NC336623  17.715  25.139   9.701
 2742POPC   PO436624  17.349  24.706   9.505
 2742POPC   GL136625  17.192  25.032   9.200
 2742POPC   GL236626  17.210  25.440   9.200
 2742POPC   C1A36627  17.315  25.172   8.779
 2742POPC   D2A36628  17.092  25.374   8.463
 2742POPC   C3A36629  17.200  25.133   8.112
 2742POPC   C4A36630  17.526  24.928   7.898
 2742POPC   C1B36631  17.409  25.667   8.815
 2742POPC   C2B36632  17.631  25.469   8.438
 2742POPC   C3B36633  17.620  25.415   8.006
 2742POPC   C4B36634  17.268  25.572   7.854
 2743POPC   NC336635  18.052  17.908   9.397
 2743POPC   PO436636  17.386  18.176   9.459
 2743POPC   GL136637  17.559  18.336   9.105
 2743POPC   GL236638  17.781  18.097   9.025
 2743POPC   C1A36639  17.428  18.413   8.707
 2743POPC   D2A36640  17.348  18.225   8.342
 2743POPC   C3A36641  17.492  18.490   8.048
 2743POPC   C4A36642  17.264  18.485   7.711
 2743POPC   C1B36643  18.004  18.044   8.673
 2743POPC   C2B36644  17.803  17.978   8.274
 2743POPC   C3B36645  17.580  18.033   7.869
 2743POPC   C4B36646  17.722  18.319   7.552
 2744POPC   NC336647   5.190   2.902   9.600
 2744POPC   PO436648   4.895   2.427   9.353
 2744POPC   GL136649   5.000   2.748   9.090
 2744POPC   GL236650   4.989   3.062   9.181
 2744POPC   C1A36651   4.906   2.806   8.655
 2744POPC   D2A36652   4.873   2.454   8.371
 2744POPC   C3A36653   4.966   2.581   7.956
 2744POPC   C4A36654   5.296   2.780   7.735
 2744POPC   C1B36655   5.200   3.186   8.825
 2744POPC   C2B36656   5.164   3.178   8.354
 2744POPC   C3B36657   4.962   3.113   7.900
 2744POPC   C4B36658   5.112   3.100   7.389
 2745POPC   NC336659  34.526  13.487   9.353
 2745POPC   PO436660  34.625  14.096   9.609
 2745POPC   GL136661  34.532  13.963   9.158
 2745POPC   GL236662  34.317  13.679   8.951
 2745POPC   C1A36663  34.744  13.847   8.753
 2745POPC   D2A36664  34.621  13.501   8.486
 2745POPC   C3A36665  34.413  13.579   8.126
 2745POPC   C4A36666  34.675  13.713   7.789
 2745POPC   C1B36667  34.190  13.327   8.728
 2745POPC   C2B36668  34.242  13.103   8.351
 2745POPC   C3B36669  34.027  13.233   7.982
 2745POPC   C4B36670  34.225  13.471   7.668
 2746POPC   NC336671  14.372  31.290   9.636
 2746POPC   PO436672  14.381  31.990   9.506
 2746POPC   GL136673  14.573  31.797   9.174
 2746POPC   GL236674  14.266  31.589   9.192
 2746POPC   C1A36675  14.576  31.601   8.747
 2746POPC   D2A36676  14.556  31.643   8.292
 2746POPC   C3A36677  14.752  31.381   7.952
 2746POPC   C4A36678  14.556  31.207   7.569
 2746POPC   C1B36679  14.140  31.929   8.893
 2746POPC   C2B36680  14.090  31.916   8.445
 2746POPC   C3B36681  14.275  32.005   8.048
 2746POPC   C4B36682  14.284  31.659   7.766
 2747POPC   NC336683  15.573  39.455   9.373
 2747POPC   PO436684  16.247  39.285   9.379
 2747POPC   GL136685  16.011  39.472   9.094
 2747POPC   GL236686  15.804  39.162   9.034
 2747POPC   C1A36687  15.771  39.587   8.743
 2747POPC   D2A36688  15.689  39.481   8.328
 2747POPC   C3A36689  15.929  39.188   8.083
 2747POPC   C4A36690  15.976  39.424   7.712
 2747POPC   C1B36691  15.963  39.126   8.624
 2747POPC   C2B36692  16.321  38.967   8.416
 2747POPC   C3B36693  16.339  38.805   8.020
 2747POPC   C4B36694  16.178  38.954   7.652
 2748POPC   NC336695  25.190  22.339   9.494
 2748POPC   PO436696  24.530  22.125   9.511
 2748POPC   GL136697  24.463  22.104   9.102
 2748POPC   GL236698  24.700  21.845   9.093
 2748POPC   C1A36699  24.314  22.273   8.703
 2748POPC   D2A36700  24.144  22.466   8.339
 2748POPC   C3A36701  24.250  22.233   8.014
 2748POPC   C4A36702  24.612  22.254   7.825
 2748POPC   C1B36703  24.519  21.784   8.720
 2748POPC   C2B36704  24.596  21.597   8.358
 2748POPC   C3B36705  24.524  21.769   7.944
 2748POPC   C4B36706  24.304  21.953   7.563
 2749POPC   NC336707  13.272   8.790   9.343
 2749POPC   PO436708  14.007   8.842   9.375
 2749POPC   GL136709  13.681   8.938   9.062
 2749POPC   GL236710  13.382   9.188   9.070
 2749POPC   C1A36711  13.624   8.852   8.636
 2749POPC   D2A36712  13.873   8.889   8.284
 2749POPC   C3A36713  13.802   8.966   7.858
 2749POPC   C4A36714  13.490   8.746   7.617
 2749POPC   C1B36715  13.677   9.340   8.747
 2749POPC   C2B36716  13.434   9.243   8.369
 2749POPC   C3B36717  13.392   9.226   7.936
 2749POPC   C4B36718  13.754   9.495   7.838
 2750POPC   NC336719  42.406  39.587   9.531
 2750POPC   PO436720  42.054  40.184   9.447
 2750POPC   GL136721  42.317  40.130   9.095
 2750POPC   GL236722  42.394  39.766   9.083
 2750POPC   C1A36723  42.619  40.052   8.772
 2750POPC   D2A36724  42.510  39.876   8.400
 2750POPC   C3A36725  42.318  40.195   8.132
 2750POPC   C4A36726  42.464  40.342   7.738
 2750POPC   C1B36727  42.092  39.741   8.799
 2750POPC   C2B36728  41.992  39.808   8.373
 2750POPC   C3B36729  42.233  39.690   8.014
 2750POPC   C4B36730  42.080  39.560   7.652
 2751POPC   NC336731  16.842   8.699   9.469
 2751POPC   PO436732  16.585   8.140   9.725
 2751POPC   GL136733  16.475   8.255   9.289
 2751POPC   GL236734  16.475   7.955   9.084
 2751POPC   C1A36735  16.654   8.391   8.873
 2751POPC   D2A36736  16.630   8.542   8.433
 2751POPC   C3A36737  16.920   8.426   8.110
 2751POPC   C4A36738  16.760   8.264   7.742
 2751POPC   C1B36739  16.476   7.982   8.610
 2751POPC   C2B36740  16.605   7.996   8.175
 2751POPC   C3B36741  16.557   7.800   7.764
 2751POPC   C4B36742  16.758   7.562   7.417
 2752POPC   NC336743   9.488  10.155   9.423
 2752POPC   PO436744   9.953  10.635   9.650
 2752POPC   GL136745   9.694  10.618   9.280
 2752POPC   GL236746   9.967  10.691   9.099
 2752POPC   C1A36747   9.425  10.607   8.898
 2752POPC   D2A36748   9.391  10.780   8.468
 2752POPC   C3A36749   9.705  10.571   8.247
 2752POPC   C4A36750   9.675  10.634   7.840
 2752POPC   C1B36751  10.149  10.551   8.724
 2752POPC   C2B36752  10.062  10.205   8.470
 2752POPC   C3B36753  10.146  10.232   8.051
 2752POPC   C4B36754  10.015  10.335   7.667
 2753POPC   NC336755   1.259  26.347   9.730
 2753POPC   PO436756   0.844  25.892   9.488
 2753POPC   GL136757   1.043  26.109   9.151
 2753POPC   GL236758   1.399  26.023   9.195
 2753POPC   C1A36759   1.142  26.176   8.702
 2753POPC   D2A36760   1.025  26.195   8.263
 2753POPC   C3A36761   1.200  26.146   7.879
 2753POPC   C4A36762   0.970  26.340   7.615
 2753POPC   C1B36763   1.273  25.706   8.898
 2753POPC   C2B36764   1.168  25.734   8.448
 2753POPC   C3B36765   1.058  25.684   8.015
 2753POPC   C4B36766   1.437  25.707   7.747
 2754POPC   NC336767   3.184  15.367   9.386
 2754POPC   PO436768   2.679  14.970   9.684
 2754POPC   GL136769   2.744  15.075   9.250
 2754POPC   GL236770   2.619  15.404   9.250
 2754POPC   C1A36771   3.000  15.042   8.856
 2754POPC   D2A36772   3.055  15.217   8.439
 2754POPC   C3A36773   3.001  14.942   8.091
 2754POPC   C4A36774   2.722  15.039   7.771
 2754POPC   C1B36775   2.608  15.372   8.792
 2754POPC   C2B36776   2.677  15.583   8.403
 2754POPC   C3B36777   2.848  15.569   8.010
 2754POPC   C4B36778   2.691  15.520   7.603
 2755POPC   NC336779  28.878   4.841   9.366
 2755POPC   PO436780  29.328   5.220   9.567
 2755POPC   GL136781  29.404   5.108   9.141
 2755POPC   GL236782  29.203   5.367   9.002
 2755POPC   C1A36783  29.338   4.917   8.716
 2755POPC   D2A36784  29.310   5.081   8.302
 2755POPC   C3A36785  29.463   4.978   7.873
 2755POPC   C4A36786  29.305   5.372   7.700
 2755POPC   C1B36787  28.889   5.175   8.719
 2755POPC   C2B36788  28.834   4.842   8.415
 2755POPC   C3B36789  28.976   4.855   7.991
 2755POPC   C4B36790  28.979   5.016   7.582
 2756POPC   NC336791  21.941   4.878   9.492
 2756POPC   PO436792  22.364   5.265   9.660
 2756POPC   GL136793  22.166   5.272   9.199
 2756POPC   GL236794  21.817   5.152   9.099
 2756POPC   C1A36795  22.211   5.106   8.752
 2756POPC   D2A36796  22.306   5.176   8.311
 2756POPC   C3A36797  22.014   5.106   7.982
 2756POPC   C4A36798  22.263   5.010   7.635
 2756POPC   C1B36799  21.827   4.764   8.823
 2756POPC   C2B36800  22.002   4.730   8.411
 2756POPC   C3B36801  22.148   4.633   8.012
 2756POPC   C4B36802  21.943   4.622   7.634
 2757POPC   NC336803  13.383   7.998   9.946
 2757POPC   PO436804  14.003   8.057   9.649
 2757POPC   GL136805  13.650   8.131   9.344
 2757POPC   GL236806  13.694   8.453   9.252
 2757POPC   C1A36807  13.430   8.107   8.909
 2757POPC   D2A36808  13.446   7.864   8.477
 2757POPC   C3A36809  13.387   8.022   8.041
 2757POPC   C4A36810  13.529   8.179   7.612
 2757POPC   C1B36811  13.821   8.416   8.821
 2757POPC   C2B36812  13.554   8.377   8.450
 2757POPC   C3B36813  13.632   8.486   8.038
 2757POPC   C4B36814  13.948   8.518   7.708
 2758POPC   NC336815  41.059  15.021   9.488
 2758POPC   PO436816  40.959  15.653   9.484
 2758POPC   GL136817  40.718  15.336   9.261
 2758POPC   GL236818  41.023  15.302   9.073
 2758POPC   C1A36819  40.616  15.061   8.906
 2758POPC   D2A36820  40.697  15.159   8.469
 2758POPC   C3A36821  40.436  14.980   8.164
 2758POPC   C4A36822  40.698  14.915   7.833
 2758POPC   C1B36823  41.001  15.522   8.716
 2758POPC   C2B36824  41.196  15.395   8.355
 2758POPC   C3B36825  41.019  15.268   7.992
 2758POPC   C4B36826  41.063  15.227   7.551
 2759POPC   NC336827  38.344  27.292   9.553
 2759POPC   PO436828  38.672  26.698   9.445
 2759POPC   GL136829  38.548  26.723   9.037
 2759POPC   GL236830  38.203  26.755   9.010
 2759POPC   C1A36831  38.480  26.734   8.593
 2759POPC   D2A36832  38.143  26.547   8.442
 2759POPC   C3A36833  38.168  26.568   8.016
 2759POPC   C4A36834  38.492  26.787   7.774
 2759POPC   C1B36835  38.025  26.999   8.673
 2759POPC   C2B36836  38.176  27.041   8.243
 2759POPC   C3B36837  38.018  27.006   7.807
 2759POPC   C4B36838  37.997  27.086   7.379
 2760POPC   NC336839  42.742  37.866   9.776
 2760POPC   PO436840  43.318  37.576   9.490
 2760POPC   GL136841  43.263  37.375   9.124
 2760POPC   GL236842  42.926  37.254   9.121
 2760POPC   C1A36843  43.144  37.580   8.751
 2760POPC   D2A36844  42.876  37.800   8.440
 2760POPC   C3A36845  43.045  37.933   8.022
 2760POPC   C4A36846  43.181  37.796   7.612
 2760POPC   C1B36847  42.714  37.323   8.751
 2760POPC   C2B36848  42.623  37.301   8.370
 2760POPC   C3B36849  42.765  37.500   8.032
 2760POPC   C4B36850  42.835  37.340   7.681
 2761POPC   NC336851  26.842  12.475   9.470
 2761POPC   PO436852  27.029  11.831   9.432
 2761POPC   GL136853  26.748  12.120   9.120
 2761POPC   GL236854  26.550  12.428   9.056
 2761POPC   C1A36855  26.544  11.994   8.743
 2761POPC   D2A36856  26.771  12.097   8.336
 2761POPC   C3A36857  26.625  11.964   7.945
 2761POPC   C4A36858  26.712  11.587   7.763
 2761POPC   C1B36859  26.671  12.475   8.664
 2761POPC   C2B36860  26.978  12.600   8.384
 2761POPC   C3B36861  26.882  12.663   7.963
 2761POPC   C4B36862  26.798  12.369   7.642
 2762POPC   NC336863  27.249  44.064   9.459
 2762POPC   PO436864  27.845  43.898   9.592
 2762POPC   GL136865  27.665  43.937   9.195
 2762POPC   GL236866  27.402  43.674   9.131
 2762POPC   C1A36867  27.499  44.185   8.837
 2762POPC   D2A36868  27.467  44.355   8.393
 2762POPC   C3A36869  27.489  43.963   8.153
 2762POPC   C4A36870  27.428  43.843   7.727
 2762POPC   C1B36871  27.680  43.703   8.757
 2762POPC   C2B36872  27.824  43.614   8.358
 2762POPC   C3B36873  28.077  43.502   8.004
 2762POPC   C4B36874  27.917  43.704   7.635
 2763POPC   NC336875  44.101  10.889   9.491
 2763POPC   PO436876  43.807  10.326   9.595
 2763POPC   GL136877  43.756  10.391   9.172
 2763POPC   GL236878  43.765  10.746   9.099
 2763POPC   C1A36879  43.652  10.348   8.743
 2763POPC   D2A36880  43.658  10.545   8.391
 2763POPC   C3A36881  43.769  10.340   8.046
 2763POPC   C4A36882  44.085  10.290   7.828
 2763POPC   C1B36883  43.910  10.942   8.712
 2763POPC   C2B36884  43.968  11.064   8.301
 2763POPC   C3B36885  43.982  10.847   7.901
 2763POPC   C4B36886  44.109  10.998   7.472
 2764POPC   NC336887  44.648  20.835   9.503
 2764POPC   PO436888  44.904  20.167   9.533
 2764POPC   GL136889  44.924  20.509   9.234
 2764POPC   GL236890  44.554  20.433   9.204
 2764POPC   C1A36891  44.868  20.778   8.812
 2764POPC   D2A36892  44.590  20.887   8.403
 2764POPC   C3A36893  44.765  20.955   7.960
 2764POPC   C4A36894   0.023  20.721   7.695
 2764POPC   C1B36895  44.732  20.288   8.841
 2764POPC   C2B36896  44.639  20.327   8.453
 2764POPC   C3B36897  44.720  20.475   8.099
 2764POPC   C4B36898  44.720  20.281   7.765
 2765POPC   NC336899  41.586  10.487   9.521
 2765POPC   PO436900  41.119  10.938   9.247
 2765POPC   GL136901  41.312  10.561   9.030
 2765POPC   GL236902  41.673  10.474   9.020
 2765POPC   C1A36903  41.350  10.440   8.602
 2765POPC   D2A36904  41.662  10.642   8.314
 2765POPC   C3A36905  41.655  10.531   7.878
 2765POPC   C4A36906  41.333  10.434   7.598
 2765POPC   C1B36907  41.824  10.265   8.636
 2765POPC   C2B36908  41.733  10.058   8.219
 2765POPC   C3B36909  41.733  10.062   7.750
 2765POPC   C4B36910  41.707  10.273   7.305
 2766POPC   NC336911  31.236  17.345   9.637
 2766POPC   PO436912  31.806  16.970   9.555
 2766POPC   GL136913  31.585  17.311   9.257
 2766POPC   GL236914  31.227  17.291   9.143
 2766POPC   C1A36915  31.533  17.647   8.892
 2766POPC   D2A36916  31.341  17.728   8.465
 2766POPC   C3A36917  31.499  17.607   8.059
 2766POPC   C4A36918  31.271  17.739   7.685
 2766POPC   C1B36919  31.393  17.170   8.783
 2766POPC   C2B36920  31.315  17.219   8.404
 2766POPC   C3B36921  31.402  17.088   8.060
 2766POPC   C4B36922  31.291  17.226   7.668
 2767POPC   NC336923  28.082   4.091   9.708
 2767POPC   PO436924  28.523   4.598   9.572
 2767POPC   GL136925  28.486   4.328   9.173
 2767POPC   GL236926  28.186   4.115   9.196
 2767POPC   C1A36927  28.351   4.347   8.728
 2767POPC   D2A36928  28.364   4.620   8.365
 2767POPC   C3A36929  28.202   4.526   7.970
 2767POPC   C4A36930  28.276   4.309   7.579
 2767POPC   C1B36931  28.178   3.877   8.824
 2767POPC   C2B36932  28.131   3.971   8.397
 2767POPC   C3B36933  28.348   4.014   7.998
 2767POPC   C4B36934  28.337   3.798   7.601
 2768POPC   NC336935  23.585   9.393   9.473
 2768POPC   PO436936  23.899   8.719   9.648
 2768POPC   GL136937  23.916   8.886   9.202
 2768POPC   GL236938  23.653   9.104   9.083
 2768POPC   C1A36939  23.766   8.746   8.774
 2768POPC   D2A36940  23.580   8.919   8.398
 2768POPC   C3A36941  23.726   8.813   8.031
 2768POPC   C4A36942  23.983   8.554   7.814
 2768POPC   C1B36943  23.410   9.281   8.741
 2768POPC   C2B36944  23.414   9.397   8.286
 2768POPC   C3B36945  23.613   9.302   7.896
 2768POPC   C4B36946  23.552   9.235   7.430
 2769POPC   NC336947   3.923  38.863   9.359
 2769POPC   PO436948   4.496  38.743   9.638
 2769POPC   GL136949   4.360  38.488   9.295
 2769POPC   GL236950   4.706  38.517   9.154
 2769POPC   C1A36951   4.341  38.225   8.925
 2769POPC   D2A36952   4.330  38.360   8.485
 2769POPC   C3A36953   4.422  38.230   8.065
 2769POPC   C4A36954   4.326  38.403   7.677
 2769POPC   C1B36955   4.771  38.417   8.730
 2769POPC   C2B36956   4.759  38.534   8.273
 2769POPC   C3B36957   4.835  38.497   7.822
 2769POPC   C4B36958   4.708  38.418   7.357
 2770POPC   NC336959  43.807  30.379   9.619
 2770POPC   PO436960  44.092  29.727   9.574
 2770POPC   GL136961  43.945  30.025   9.301
 2770POPC   GL236962  44.207  30.047   9.127
 2770POPC   C1A36963  43.697  30.149   8.926
 2770POPC   D2A36964  43.513  30.027   8.515
 2770POPC   C3A36965  43.701  30.143   8.089
 2770POPC   C4A36966  43.620  30.013   7.621
 2770POPC   C1B36967  43.960  29.701   8.923
 2770POPC   C2B36968  43.981  29.786   8.516
 2770POPC   C3B36969  44.126  29.686   8.142
 2770POPC   C4B36970  44.068  29.894   7.786
 2771POPC   NC336971   6.018  21.828   9.389
 2771POPC   PO436972   5.669  22.340   9.575
 2771POPC   GL136973   5.616  22.113   9.206
 2771POPC   GL236974   5.957  22.258   9.109
 2771POPC   C1A36975   5.671  22.031   8.769
 2771POPC   D2A36976   5.814  22.189   8.408
 2771POPC   C3A36977   5.561  22.200   8.066
 2771POPC   C4A36978   5.674  21.972   7.703
 2771POPC   C1B36979   6.210  22.121   8.748
 2771POPC   C2B36980   6.366  22.130   8.335
 2771POPC   C3B36981   6.092  22.112   7.982
 2771POPC   C4B36982   6.165  21.907   7.627
 2772POPC   NC336983  40.563   8.788   9.936
 2772POPC   PO436984  40.836   9.296   9.618
 2772POPC   GL136985  40.937   9.171   9.190
 2772POPC   GL236986  41.292   9.251   9.201
 2772POPC   C1A36987  40.786   8.955   8.785
 2772POPC   D2A36988  40.601   9.024   8.336
 2772POPC   C3A36989  40.856   8.900   7.949
 2772POPC   C4A36990  40.950   8.507   7.692
 2772POPC   C1B36991  41.246   9.197   8.765
 2772POPC   C2B36992  41.108   9.076   8.406
 2772POPC   C3B36993  41.041   9.367   8.132
 2772POPC   C4B36994  41.320   9.137   7.896
 2773POPC   NC336995   2.210  32.794   9.724
 2773POPC   PO436996   1.683  33.216   9.715
 2773POPC   GL136997   1.754  33.000   9.236
 2773POPC   GL236998   2.078  32.880   9.085
 2773POPC   C1A36999   1.694  32.970   8.767
 2773POPC   D2A37000   1.984  33.082   8.407
 2773POPC   C3A37001   1.935  32.980   7.959
 2773POPC   C4A37002   1.780  33.135   7.539
 2773POPC   C1B37003   2.084  32.643   8.648
 2773POPC   C2B37004   2.414  32.576   8.308
 2773POPC   C3B37005   2.466  32.650   7.859
 2773POPC   C4B37006   2.131  32.726   7.534
 2774POPC   NC337007  16.320  43.976   9.511
 2774POPC   PO437008  15.730  44.236   9.591
 2774POPC   GL137009  15.904  44.181   9.178
 2774POPC   GL237010  15.980  43.813   9.152
 2774POPC   C1A37011  15.960  44.102   8.718
 2774POPC   D2A37012  16.020  43.821   8.358
 2774POPC   C3A37013  15.786  43.850   7.948
 2774POPC   C4A37014  15.868  44.110   7.567
 2774POPC   C1B37015  16.285  43.676   8.828
 2774POPC   C2B37016  16.319  43.415   8.458
 2774POPC   C3B37017  16.266  43.494   8.027
 2774POPC   C4B37018  16.578  43.623   7.745
 2775POPC   NC337019  35.103  10.186   9.480
 2775POPC   PO437020  35.530  10.758   9.520
 2775POPC   GL137021  35.341  10.566   9.203
 2775POPC   GL237022  35.514  10.299   9.124
 2775POPC   C1A37023  35.285  10.559   8.762
 2775POPC   D2A37024  35.285  10.353   8.381
 2775POPC   C3A37025  35.351  10.656   8.077
 2775POPC   C4A37026  35.417  10.923   7.751
 2775POPC   C1B37027  35.697  10.166   8.763
 2775POPC   C2B37028  35.793  10.412   8.427
 2775POPC   C3B37029  35.687  10.273   8.037
 2775POPC   C4B37030  35.719  10.505   7.688
 2776POPC   NC337031  11.935  24.414   9.603
 2776POPC   PO437032  12.484  24.153   9.401
 2776POPC   GL137033  12.153  24.395   9.156
 2776POPC   GL237034  11.764  24.345   9.129
 2776POPC   C1A37035  12.072  24.667   8.859
 2776POPC   D2A37036  12.270  24.747   8.517
 2776POPC   C3A37037  12.193  24.628   8.145
 2776POPC   C4A37038  12.053  24.570   7.759
 2776POPC   C1B37039  11.725  24.351   8.687
 2776POPC   C2B37040  11.713  24.539   8.301
 2776POPC   C3B37041  11.668  24.278   7.943
 2776POPC   C4B37042  11.779  24.233   7.491
 2777POPC   NC337043  11.352  15.100   9.446
 2777POPC   PO437044  11.797  15.741   9.422
 2777POPC   GL137045  11.504  15.511   9.122
 2777POPC   GL237046  11.157  15.353   9.072
 2777POPC   C1A37047  11.424  15.531   8.660
 2777POPC   D2A37048  11.505  15.176   8.345
 2777POPC   C3A37049  11.283  15.205   7.950
 2777POPC   C4A37050  11.380  15.184   7.521
 2777POPC   C1B37051  11.118  15.114   8.685
 2777POPC   C2B37052  11.054  14.864   8.304
 2777POPC   C3B37053  11.062  14.759   7.861
 2777POPC   C4B37054  10.995  14.859   7.421
 2778POPC   NC337055  22.369   6.400   9.595
 2778POPC   PO437056  23.114   6.568   9.651
 2778POPC   GL137057  23.003   6.742   9.272
 2778POPC   GL237058  23.236   7.033   9.253
 2778POPC   C1A37059  22.716   6.592   8.896
 2778POPC   D2A37060  22.674   6.529   8.421
 2778POPC   C3A37061  23.065   6.497   8.200
 2778POPC   C4A37062  23.105   6.455   7.781
 2778POPC   C1B37063  23.060   7.005   8.839
 2778POPC   C2B37064  23.034   6.970   8.400
 2778POPC   C3B37065  22.924   6.929   7.971
 2778POPC   C4B37066  23.188   6.963   7.613
 2779POPC   NC337067  35.448  40.038   9.612
 2779POPC   PO437068  34.912  39.699   9.334
 2779POPC   GL137069  35.131  40.067   9.109
 2779POPC   GL237070  35.480  40.202   9.121
 2779POPC   C1A37071  35.227  40.133   8.653
 2779POPC   D2A37072  35.385  39.858   8.319
 2779POPC   C3A37073  35.171  39.789   7.933
 2779POPC   C4A37074  35.384  39.835   7.507
 2779POPC   C1B37075  35.600  40.470   8.760
 2779POPC   C2B37076  35.560  40.367   8.315
 2779POPC   C3B37077  35.436  40.252   7.922
 2779POPC   C4B37078  35.581  40.365   7.537
 2780POPC   NC337079   7.935  36.208   9.390
 2780POPC   PO437080   8.498  35.896   9.186
 2780POPC   GL137081   8.244  36.236   8.995
 2780POPC   GL237082   8.387  36.554   9.133
 2780POPC   C1A37083   7.903  36.257   8.674
 2780POPC   D2A37084   7.832  35.983   8.306
 2780POPC   C3A37085   8.156  35.886   7.989
 2780POPC   C4A37086   8.002  36.018   7.581
 2780POPC   C1B37087   8.492  36.523   8.667
 2780POPC   C2B37088   8.294  36.280   8.316
 2780POPC   C3B37089   8.161  36.396   7.908
 2780POPC   C4B37090   8.336  36.391   7.470
 2781POPC   NC337091  44.702   6.964   9.548
 2781POPC   PO437092  44.908   6.250   9.627
 2781POPC   GL137093  44.851   6.534   9.242
 2781POPC   GL237094  44.553   6.728   9.122
 2781POPC   C1A37095  44.972   6.724   8.848
 2781POPC   D2A37096  44.703   6.907   8.528
 2781POPC   C3A37097  44.783   6.680   8.174
 2781POPC   C4A37098  44.646   6.462   7.829
 2781POPC   C1B37099  44.345   7.080   8.867
 2781POPC   C2B37100  44.277   7.233   8.457
 2781POPC   C3B37101  44.441   7.106   8.077
 2781POPC   C4B37102  44.742   7.008   7.802
 2782POPC   NC337103  11.063  35.478   9.368
 2782POPC   PO437104  11.480  35.191   9.811
 2782POPC   GL137105  11.379  35.003   9.306
 2782POPC   GL237106  11.072  35.034   9.063
 2782POPC   C1A37107  11.553  35.032   8.831
 2782POPC   D2A37108  11.565  35.156   8.345
 2782POPC   C3A37109  11.285  35.301   8.011
 2782POPC   C4A37110  11.188  35.238   7.553
 2782POPC   C1B37111  11.131  35.325   8.687
 2782POPC   C2B37112  11.062  35.632   8.340
 2782POPC   C3B37113  10.986  35.692   7.883
 2782POPC   C4B37114  10.997  35.749   7.421
 2783POPC   NC337115  24.368  25.026   9.449
 2783POPC   PO437116  24.916  25.385   9.591
 2783POPC   GL137117  24.715  25.262   9.184
 2783POPC   GL237118  24.446  25.474   9.116
 2783POPC   C1A37119  24.499  25.073   8.806
 2783POPC   D2A37120  24.345  25.173   8.398
 2783POPC   C3A37121  24.514  25.039   8.008
 2783POPC   C4A37122  24.897  25.221   7.916
 2783POPC   C1B37123  24.608  25.570   8.728
 2783POPC   C2B37124  24.376  25.704   8.375
 2783POPC   C3B37125  24.233  25.521   8.023
 2783POPC   C4B37126  24.575  25.573   7.747
 2784POPC   NC337127  29.214  10.787   9.532
 2784POPC   PO437128  29.132  10.085   9.585
 2784POPC   GL137129  29.272  10.346   9.212
 2784POPC   GL237130  29.012  10.564   9.107
 2784POPC   C1A37131  29.403  10.389   8.796
 2784POPC   D2A37132  29.047  10.438   8.503
 2784POPC   C3A37133  29.049  10.410   8.036
 2784POPC   C4A37134  29.364  10.405   7.737
 2784POPC   C1B37135  28.802  10.827   8.825
 2784POPC   C2B37136  28.820  11.036   8.480
 2784POPC   C3B37137  29.053  10.894   8.164
 2784POPC   C4B37138  29.019  10.909   7.739
 2785POPC   NC337139  23.644  31.033   9.505
 2785POPC   PO437140  23.500  30.449   9.363
 2785POPC   GL137141  23.859  30.587   9.131
 2785POPC   GL237142  24.078  30.825   9.281
 2785POPC   C1A37143  23.759  30.823   8.734
 2785POPC   D2A37144  23.669  30.802   8.292
 2785POPC   C3A37145  23.832  30.525   7.966
 2785POPC   C4A37146  23.458  30.416   7.757
 2785POPC   C1B37147  24.244  30.860   8.846
 2785POPC   C2B37148  24.177  30.995   8.397
 2785POPC   C3B37149  23.988  31.001   7.948
 2785POPC   C4B37150  23.552  30.925   7.773
 2786POPC   NC337151  30.299  37.620   9.590
 2786POPC   PO437152  30.993  37.740   9.537
 2786POPC   GL137153  30.644  37.806   9.239
 2786POPC   GL237154  30.847  38.016   9.046
 2786POPC   C1A37155  30.457  37.731   8.793
 2786POPC   D2A37156  30.453  37.309   8.529
 2786POPC   C3A37157  30.385  37.240   8.060
 2786POPC   C4A37158  30.593  37.336   7.646
 2786POPC   C1B37159  30.922  38.048   8.604
 2786POPC   C2B37160  30.666  37.806   8.313
 2786POPC   C3B37161  30.449  37.758   7.936
 2786POPC   C4B37162  30.528  37.801   7.458
 2787POPC   NC337163  12.477   3.698   9.357
 2787POPC   PO437164  13.147   3.688   9.524
 2787POPC   GL137165  12.963   3.487   9.163
 2787POPC   GL237166  13.091   3.117   9.124
 2787POPC   C1A37167  12.798   3.699   8.779
 2787POPC   D2A37168  12.710   3.916   8.392
 2787POPC   C3A37169  12.584   3.699   8.047
 2787POPC   C4A37170  12.780   3.878   7.692
 2787POPC   C1B37171  13.163   3.340   8.719
 2787POPC   C2B37172  12.944   3.404   8.361
 2787POPC   C3B37173  13.161   3.251   8.016
 2787POPC   C4B37174  13.277   3.141   7.630
 2788POPC   NC337175   4.818  24.882   9.484
 2788POPC   PO437176   4.128  24.897   9.455
 2788POPC   GL137177   4.361  24.588   9.144
 2788POPC   GL237178   4.441  24.191   9.137
 2788POPC   C1A37179   4.256  24.428   8.709
 2788POPC   D2A37180   4.035  24.549   8.342
 2788POPC   C3A37181   4.051  24.856   8.050
 2788POPC   C4A37182   3.911  24.548   7.761
 2788POPC   C1B37183   4.561  24.012   8.706
 2788POPC   C2B37184   4.677  24.163   8.323
 2788POPC   C3B37185   4.684  24.205   7.909
 2788POPC   C4B37186   4.395  24.526   7.876
 2789POPC   NC337187  35.477  11.684   9.228
 2789POPC   PO437188  34.943  11.552   9.676
 2789POPC   GL137189  35.356  11.228   9.374
 2789POPC   GL237190  35.179  11.035   9.080
 2789POPC   C1A37191  35.635  11.131   8.925
 2789POPC   D2A37192  35.542  10.915   8.502
 2789POPC   C3A37193  35.510  11.222   8.153
 2789POPC   C4A37194  35.677  11.374   7.746
 2789POPC   C1B37195  35.117  11.174   8.638
 2789POPC   C2B37196  34.993  11.547   8.413
 2789POPC   C3B37197  35.189  11.716   8.062
 2789POPC   C4B37198  35.161  11.379   7.786
 2790POPC   NC337199  33.017   5.300   9.418
 2790POPC   PO437200  33.093   4.591   9.501
 2790POPC   GL137201  32.979   4.833   9.168
 2790POPC   GL237202  33.306   4.989   9.124
 2790POPC   C1A37203  33.002   4.796   8.744
 2790POPC   D2A37204  33.261   4.816   8.372
 2790POPC   C3A37205  33.170   5.009   7.968
 2790POPC   C4A37206  33.218   4.886   7.531
 2790POPC   C1B37207  33.135   5.278   8.788
 2790POPC   C2B37208  33.179   5.365   8.363
 2790POPC   C3B37209  33.149   5.557   8.004
 2790POPC   C4B37210  33.181   5.422   7.601
 2791POPC   NC337211   5.765  15.353   9.481
 2791POPC   PO437212   6.347  15.537   9.308
 2791POPC   GL137213   6.025  15.377   9.032
 2791POPC   GL237214   5.886  15.061   9.067
 2791POPC   C1A37215   5.979  15.212   8.596
 2791POPC   D2A37216   6.292  15.095   8.298
 2791POPC   C3A37217   6.301  15.387   7.947
 2791POPC   C4A37218   5.856  15.460   7.902
 2791POPC   C1B37219   6.126  14.766   8.864
 2791POPC   C2B37220   6.191  14.619   8.460
 2791POPC   C3B37221   5.923  14.751   8.137
 2791POPC   C4B37222   6.054  14.965   7.788
 2792POPC   NC337223   5.473  42.878   9.265
 2792POPC   PO437224   5.155  43.370   9.636
 2792POPC   GL137225   5.095  43.201   9.214
 2792POPC   GL237226   4.819  42.960   9.210
 2792POPC   C1A37227   5.217  43.263   8.768
 2792POPC   D2A37228   5.425  43.002   8.475
 2792POPC   C3A37229   5.250  43.179   8.103
 2792POPC   C4A37230   5.173  43.476   7.753
 2792POPC   C1B37231   5.000  42.808   8.808
 2792POPC   C2B37232   4.933  42.891   8.401
 2792POPC   C3B37233   4.876  42.743   7.995
 2792POPC   C4B37234   5.007  42.966   7.622
 2793POPC   NC337235  32.882  38.658   9.422
 2793POPC   PO437236  33.357  38.207   9.229
 2793POPC   GL137237  33.109  38.396   9.034
 2793POPC   GL237238  32.791  38.243   9.140
 2793POPC   C1A37239  33.230  38.714   8.776
 2793POPC   D2A37240  33.053  38.806   8.410
 2793POPC   C3A37241  33.169  38.576   8.038
 2793POPC   C4A37242  33.158  38.727   7.618
 2793POPC   C1B37243  32.694  38.407   8.739
 2793POPC   C2B37244  32.833  38.331   8.337
 2793POPC   C3B37245  32.668  38.468   7.955
 2793POPC   C4B37246  32.788  38.331   7.560
 2794POPC   NC337247  44.459  30.048   9.595
 2794POPC   PO437248  44.779  29.463   9.754
 2794POPC   GL137249  44.558  29.645   9.285
 2794POPC   GL237250  44.714  29.942   9.138
 2794POPC   C1A37251  44.446  29.746   8.781
 2794POPC   D2A37252  44.490  29.977   8.370
 2794POPC   C3A37253  44.602  29.795   7.990
 2794POPC   C4A37254  44.864  29.850   7.689
 2794POPC   C1B37255  44.714  30.203   8.757
 2794POPC   C2B37256  44.871  30.399   8.374
 2794POPC   C3B37257  44.797  30.329   7.945
 2794POPC   C4B37258  44.462  30.183   7.688
 2795POPC   NC337259  28.135  21.092   9.412
 2795POPC   PO437260  28.580  21.444   9.608
 2795POPC   GL137261  28.424  21.537   9.187
 2795POPC   GL237262  28.064  21.531   9.145
 2795POPC   C1A37263  28.557  21.633   8.756
 2795POPC   D2A37264  28.725  21.584   8.330
 2795POPC   C3A37265  28.690  21.226   8.043
 2795POPC   C4A37266  28.593  21.325   7.645
 2795POPC   C1B37267  28.187  21.274   8.768
 2795POPC   C2B37268  28.282  21.163   8.331
 2795POPC   C3B37269  28.104  21.158   7.894
 2795POPC   C4B37270  28.142  21.104   7.415
 2796POPC   NC337271  20.428  18.675   9.936
 2796POPC   PO437272  20.782  18.339   9.524
 2796POPC   GL137273  20.549  18.304   9.156
 2796POPC   GL237274  20.412  17.977   9.164
 2796POPC   C1A37275  20.701  18.380   8.730
 2796POPC   D2A37276  20.880  18.204   8.336
 2796POPC   C3A37277  20.664  18.329   7.938
 2796POPC   C4A37278  20.338  18.624   7.776
 2796POPC   C1B37279  20.250  18.131   8.773
 2796POPC   C2B37280  20.372  18.191   8.370
 2796POPC   C3B37281  20.209  18.115   7.975
 2796POPC   C4B37282  20.268  18.183   7.522
 2797POPC   NC337283  44.389  21.943   9.773
 2797POPC   PO437284  43.814  22.295   9.515
 2797POPC   GL137285  43.796  22.184   9.125
 2797POPC   GL237286  43.792  21.840   9.145
 2797POPC   C1A37287  43.819  22.298   8.693
 2797POPC   D2A37288  43.599  22.160   8.315
 2797POPC   C3A37289  43.842  22.279   7.949
 2797POPC   C4A37290  44.317  22.278   7.895
 2797POPC   C1B37291  43.926  21.795   8.721
 2797POPC   C2B37292  44.079  21.959   8.316
 2797POPC   C3B37293  44.074  21.807   7.891
 2797POPC   C4B37294  43.870  21.776   7.487
 2798POPC   NC337295  30.479  20.262   9.410
 2798POPC   PO437296  30.860  20.803   9.548
 2798POPC   GL137297  30.753  20.610   9.179
 2798POPC   GL237298  31.075  20.444   9.147
 2798POPC   C1A37299  30.500  20.535   8.756
 2798POPC   D2A37300  30.320  20.646   8.320
 2798POPC   C3A37301  30.596  20.574   7.954
 2798POPC   C4A37302  30.989  20.364   7.886
 2798POPC   C1B37303  31.014  20.699   8.780
 2798POPC   C2B37304  30.864  20.671   8.374
 2798POPC   C3B37305  31.018  20.884   8.014
 2798POPC   C4B37306  31.139  20.775   7.602
 2799POPC   NC337307  18.950  32.484   9.525
 2799POPC   PO437308  19.578  32.490   9.413
 2799POPC   GL137309  19.266  32.301   9.110
 2799POPC   GL237310  18.907  32.446   9.027
 2799POPC   C1A37311  19.195  32.267   8.662
 2799POPC   D2A37312  18.868  32.446   8.448
 2799POPC   C3A37313  19.026  32.418   8.046
 2799POPC   C4A37314  19.133  32.157   7.712
 2799POPC   C1B37315  18.726  32.090   8.851
 2799POPC   C2B37316  18.470  32.037   8.481
 2799POPC   C3B37317  18.535  32.198   8.071
 2799POPC   C4B37318  18.585  32.069   7.649
 2800POPC   NC337319  32.727  32.625   9.617
 2800POPC   PO437320  32.900  33.230   9.745
 2800POPC   GL137321  33.089  33.211   9.303
 2800POPC   GL237322  33.279  32.874   9.253
 2800POPC   C1A37323  32.973  33.219   8.847
 2800POPC   D2A37324  32.796  33.375   8.457
 2800POPC   C3A37325  32.835  33.136   8.097
 2800POPC   C4A37326  33.187  33.204   7.888
 2800POPC   C1B37327  33.264  32.805   8.804
 2800POPC   C2B37328  33.257  32.912   8.350
 2800POPC   C3B37329  33.273  32.712   7.943
 2800POPC   C4B37330  33.345  32.860   7.525
 2801POPC   NC337331  38.602   3.912   9.507
 2801POPC   PO437332  38.351   4.555   9.574
 2801POPC   GL137333  38.357   4.472   9.105
 2801POPC   GL237334  38.345   4.131   9.125
 2801POPC   C1A37335  38.591   4.487   8.676
 2801POPC   D2A37336  38.798   4.567   8.237
 2801POPC   C3A37337  38.540   4.614   7.879
 2801POPC   C4A37338  38.192   4.324   7.841
 2801POPC   C1B37339  38.234   4.119   8.714
 2801POPC   C2B37340  38.377   4.056   8.304
 2801POPC   C3B37341  38.675   4.122   7.996
 2801POPC   C4B37342  38.674   4.111   7.564
 2802POPC   NC337343  42.099  20.763   9.583
 2802POPC   PO437344  42.774  20.620   9.602
 2802POPC   GL137345  42.473  20.596   9.222
 2802POPC   GL237346  42.240  20.292   9.201
 2802POPC   C1A37347  42.356  20.798   8.816
 2802POPC   D2A37348  42.201  20.712   8.392
 2802POPC   C3A37349  42.258  20.958   8.037
 2802POPC   C4A37350  42.317  20.816   7.644
 2802POPC   C1B37351  42.281  20.300   8.754
 2802POPC   C2B37352  42.279  20.223   8.332
 2802POPC   C3B37353  42.284  20.406   7.950
 2802POPC   C4B37354  42.234  20.076   7.677
 2803POPC   NC337355   2.673  21.658   9.250
 2803POPC   PO437356   2.624  21.171   9.623
 2803POPC   GL137357   2.633  21.139   9.157
 2803POPC   GL237358   2.957  21.245   9.127
 2803POPC   C1A37359   2.494  21.376   8.719
 2803POPC   D2A37360   2.517  21.693   8.388
 2803POPC   C3A37361   2.662  21.651   7.984
 2803POPC   C4A37362   2.808  21.309   7.810
 2803POPC   C1B37363   3.013  21.306   8.727
 2803POPC   C2B37364   3.038  21.478   8.347
 2803POPC   C3B37365   3.239  21.243   8.035
 2803POPC   C4B37366   3.141  20.922   7.745
 2804POPC   NC337367  24.833  11.584   9.488
 2804POPC   PO437368  24.468  10.981   9.538
 2804POPC   GL137369  24.572  11.145   9.175
 2804POPC   GL237370  24.330  11.422   9.228
 2804POPC   C1A37371  24.697  11.038   8.743
 2804POPC   D2A37372  24.796  11.244   8.349
 2804POPC   C3A37373  24.532  11.207   7.993
 2804POPC   C4A37374  24.547  11.040   7.575
 2804POPC   C1B37375  24.517  11.527   8.825
 2804POPC   C2B37376  24.440  11.730   8.449
 2804POPC   C3B37377  24.323  11.672   8.060
 2804POPC   C4B37378  24.612  11.633   7.721
 2805POPC   NC337379  34.065   2.714   9.627
 2805POPC   PO437380  34.749   2.626   9.550
 2805POPC   GL137381  34.590   2.701   9.140
 2805POPC   GL237382  34.257   2.528   9.122
 2805POPC   C1A37383  34.680   2.607   8.715
 2805POPC   D2A37384  34.921   2.551   8.361
 2805POPC   C3A37385  34.755   2.643   7.948
 2805POPC   C4A37386  34.567   2.484   7.548
 2805POPC   C1B37387  34.212   2.829   8.764
 2805POPC   C2B37388  34.370   2.895   8.349
 2805POPC   C3B37389  34.297   2.846   7.928
 2805POPC   C4B37390  34.410   3.036   7.555
 2806POPC   NC337391  31.405  43.210   9.620
 2806POPC   PO437392  32.019  43.017   9.719
 2806POPC   GL137393  31.788  43.083   9.253
 2806POPC   GL237394  31.434  42.970   9.064
 2806POPC   C1A37395  31.769  43.174   8.780
 2806POPC   D2A37396  31.567  42.999   8.386
 2806POPC   C3A37397  31.658  43.179   7.978
 2806POPC   C4A37398  31.631  43.288   7.540
 2806POPC   C1B37399  31.200  42.775   8.697
 2806POPC   C2B37400  31.073  42.865   8.314
 2806POPC   C3B37401  31.305  42.802   7.969
 2806POPC   C4B37402  31.252  42.979   7.573
 2807POPC   NC337403  20.559   4.702   9.528
 2807POPC   PO437404  20.987   4.175   9.700
 2807POPC   GL137405  20.871   4.145   9.213
 2807POPC   GL237406  20.807   4.491   9.089
 2807POPC   C1A37407  20.888   3.952   8.810
 2807POPC   D2A37408  20.818   4.019   8.362
 2807POPC   C3A37409  20.924   4.408   8.154
 2807POPC   C4A37410  20.999   4.264   7.735
 2807POPC   C1B37411  20.723   4.424   8.665
 2807POPC   C2B37412  20.439   4.355   8.312
 2807POPC   C3B37413  20.484   4.509   7.899
 2807POPC   C4B37414  20.789   4.753   7.729
 2808POPC   NC337415  40.329  24.084   9.452
 2808POPC   PO437416  39.824  23.651   9.640
 2808POPC   GL137417  39.884  23.680   9.198
 2808POPC   GL237418  39.972  24.011   9.114
 2808POPC   C1A37419  40.006  23.656   8.762
 2808POPC   D2A37420  39.931  23.754   8.351
 2808POPC   C3A37421  40.199  23.526   8.127
 2808POPC   C4A37422  40.048  23.509   7.710
 2808POPC   C1B37423  40.207  24.153   8.766
 2808POPC   C2B37424  40.368  24.034   8.353
 2808POPC   C3B37425  40.148  24.006   7.943
 2808POPC   C4B37426  39.838  24.214   7.728
 2809POPC   NC337427  33.030   1.502   9.813
 2809POPC   PO437428  32.899   2.167   9.561
 2809POPC   GL137429  32.889   1.995   9.176
 2809POPC   GL237430  33.210   2.059   9.125
 2809POPC   C1A37431  32.823   2.145   8.760
 2809POPC   D2A37432  33.109   2.196   8.418
 2809POPC   C3A37433  32.990   2.127   7.995
 2809POPC   C4A37434  33.238   2.256   7.624
 2809POPC   C1B37435  33.193   1.772   8.768
 2809POPC   C2B37436  33.310   1.657   8.353
 2809POPC   C3B37437  33.458   1.869   8.009
 2809POPC   C4B37438  33.232   1.760   7.695
 2810POPC   NC337439   0.014  19.713   9.486
 2810POPC   PO437440   0.643  19.984   9.499
 2810POPC   GL137441   0.478  19.994   9.128
 2810POPC   GL237442   0.116  20.028   9.090
 2810POPC   C1A37443   0.478  19.948   8.723
 2810POPC   D2A37444   0.173  19.920   8.468
 2810POPC   C3A37445   0.341  19.794   8.066
 2810POPC   C4A37446   0.536  19.997   7.696
 2810POPC   C1B37447   0.235  20.368   8.833
 2810POPC   C2B37448   0.142  20.457   8.416
 2810POPC   C3B37449   0.178  20.264   7.978
 2810POPC   C4B37450   0.141  20.255   7.481
 2811POPC   NC337451  25.889  10.566   9.689
 2811POPC   PO437452  26.378  10.915   9.584
 2811POPC   GL137453  26.241  10.622   9.261
 2811POPC   GL237454  26.133  10.270   9.337
 2811POPC   C1A37455  25.993  10.652   8.892
 2811POPC   D2A37456  25.941  10.802   8.454
 2811POPC   C3A37457  26.173  10.591   8.102
 2811POPC   C4A37458  26.313  10.439   7.700
 2811POPC   C1B37459  26.230  10.187   8.905
 2811POPC   C2B37460  26.046  10.295   8.511
 2811POPC   C3B37461  25.808  10.179   8.151
 2811POPC   C4B37462  25.935  10.103   7.747
 2812POPC   NC337463  35.371  38.284   9.502
 2812POPC   PO437464  35.308  38.990   9.413
 2812POPC   GL137465  35.058  38.761   9.074
 2812POPC   GL237466  35.069  38.379   9.091
 2812POPC   C1A37467  34.887  38.578   8.678
 2812POPC   D2A37468  35.166  38.366   8.414
 2812POPC   C3A37469  35.135  38.592   8.055
 2812POPC   C4A37470  35.190  38.545   7.611
 2812POPC   C1B37471  35.408  38.173   8.850
 2812POPC   C2B37472  35.701  38.226   8.514
 2812POPC   C3B37473  35.622  38.406   8.135
 2812POPC   C4B37474  35.742  38.353   7.737
 2813POPC   NC337475  14.673   4.915   9.631
 2813POPC   PO437476  14.856   5.466   9.592
 2813POPC   GL137477  14.555   5.317   9.244
 2813POPC   GL237478  14.496   4.946   9.169
 2813POPC   C1A37479  14.473   5.275   8.785
 2813POPC   D2A37480  14.564   5.119   8.387
 2813POPC   C3A37481  14.351   5.419   8.093
 2813POPC   C4A37482  14.485   5.499   7.681
 2813POPC   C1B37483  14.449   4.682   8.822
 2813POPC   C2B37484  14.565   4.550   8.432
 2813POPC   C3B37485  14.360   4.736   8.116
 2813POPC   C4B37486  14.405   5.006   7.798
 2814POPC   NC337487   8.695  11.452   9.467
 2814POPC   PO437488   9.115  10.979   9.693
 2814POPC   GL137489   9.300  11.108   9.285
 2814POPC   GL237490   9.166  11.465   9.200
 2814POPC   C1A37491   9.177  11.078   8.859
 2814POPC   D2A37492   8.994  11.262   8.528
 2814POPC   C3A37493   9.147  11.191   8.164
 2814POPC   C4A37494   9.290  10.961   7.839
 2814POPC   C1B37495   8.903  11.647   8.850
 2814POPC   C2B37496   8.646  11.652   8.465
 2814POPC   C3B37497   8.821  11.581   8.073
 2814POPC   C4B37498   8.924  11.323   7.715
 2815POPC   NC337499  28.405  17.949   9.660
 2815POPC   PO437500  28.123  18.480   9.570
 2815POPC   GL137501  28.162  18.263   9.216
 2815POPC   GL237502  28.488  18.255   9.178
 2815POPC   C1A37503  28.171  18.366   8.795
 2815POPC   D2A37504  28.275  18.514   8.407
 2815POPC   C3A37505  28.043  18.320   8.090
 2815POPC   C4A37506  28.206  18.441   7.703
 2815POPC   C1B37507  28.591  18.032   8.811
 2815POPC   C2B37508  28.390  18.007   8.422
 2815POPC   C3B37509  28.543  18.145   8.032
 2815POPC   C4B37510  28.628  17.927   7.681
 2816POPC   NC337511   2.366   3.756   9.318
 2816POPC   PO437512   1.922   4.233   9.536
 2816POPC   GL137513   1.762   4.339   9.100
 2816POPC   GL237514   1.908   4.629   8.963
 2816POPC   C1A37515   1.584   4.182   8.728
 2816POPC   D2A37516   1.886   4.257   8.403
 2816POPC   C3A37517   1.774   4.431   8.028
 2816POPC   C4A37518   1.868   4.338   7.636
 2816POPC   C1B37519   2.175   4.262   8.842
 2816POPC   C2B37520   2.378   4.101   8.449
 2816POPC   C3B37521   2.233   4.173   8.015
 2816POPC   C4B37522   2.363   4.443   7.682
 2817POPC   NC337523   4.477  29.025   9.565
 2817POPC   PO437524   4.132  29.566   9.466
 2817POPC   GL137525   4.084  29.314   9.124
 2817POPC   GL237526   4.167  28.952   9.161
 2817POPC   C1A37527   4.207  29.444   8.716
 2817POPC   D2A37528   4.092  29.475   8.316
 2817POPC   C3A37529   4.301  29.242   8.001
 2817POPC   C4A37530   4.161  29.103   7.598
 2817POPC   C1B37531   4.289  28.894   8.758
 2817POPC   C2B37532   4.110  28.955   8.377
 2817POPC   C3B37533   4.136  28.758   7.992
 2817POPC   C4B37534   4.548  28.822   7.821
 2818POPC   NC337535   0.395   9.956   9.516
 2818POPC   PO437536   0.209   9.352   9.369
 2818POPC   GL137537   0.492   9.651   9.092
 2818POPC   GL237538   0.399  10.005   9.028
 2818POPC   C1A37539   0.538   9.737   8.624
 2818POPC   D2A37540   0.229   9.525   8.351
 2818POPC   C3A37541   0.359   9.473   7.934
 2818POPC   C4A37542   0.554   9.700   7.561
 2818POPC   C1B37543   0.372  10.257   8.697
 2818POPC   C2B37544   0.600  10.213   8.327
 2818POPC   C3B37545   0.537  10.057   7.925
 2818POPC   C4B37546   0.320  10.316   7.618
 2819POPC   NC337547  17.190  44.462   9.587
 2819POPC   PO437548  16.822  43.881   9.518
 2819POPC   GL137549  16.657  43.943   9.108
 2819POPC   GL237550  16.415  44.245   9.103
 2819POPC   C1A37551  16.787  43.812   8.677
 2819POPC   D2A37552  16.648  43.776   8.257
 2819POPC   C3A37553  16.815  44.048   7.940
 2819POPC   C4A37554  16.896  43.968   7.513
 2819POPC   C1B37555  16.449  44.184   8.693
 2819POPC   C2B37556  16.337  44.241   8.291
 2819POPC   C3B37557  16.273  44.020   7.936
 2819POPC   C4B37558  16.406  44.075   7.553
 2820POPC   NC337559   7.682   8.770   9.625
 2820POPC   PO437560   7.495   8.197   9.318
 2820POPC   GL137561   7.373   7.974   8.992
 2820POPC   GL237562   7.690   8.042   8.816
 2820POPC   C1A37563   7.233   8.077   8.591
 2820POPC   D2A37564   7.573   8.186   8.316
 2820POPC   C3A37565   7.415   8.059   7.954
 2820POPC   C4A37566   7.013   8.143   7.796
 2820POPC   C1B37567   7.480   8.494   8.751
 2820POPC   C2B37568   7.501   8.718   8.369
 2820POPC   C3B37569   7.569   8.566   7.928
 2820POPC   C4B37570   7.524   8.816   7.538
 2821POPC   NC337571   9.176  37.264   9.453
 2821POPC   PO437572   8.825  36.672   9.548
 2821POPC   GL137573   8.865  36.831   9.121
 2821POPC   GL237574   9.215  36.937   9.068
 2821POPC   C1A37575   8.985  36.702   8.668
 2821POPC   D2A37576   9.210  36.447   8.347
 2821POPC   C3A37577   9.179  36.702   7.960
 2821POPC   C4A37578   8.889  37.017   7.951
 2821POPC   C1B37579   8.998  37.203   8.770
 2821POPC   C2B37580   9.051  37.308   8.348
 2821POPC   C3B37581   9.319  37.284   7.998
 2821POPC   C4B37582   9.324  37.069   7.617
 2822POPC   NC337583  17.759  22.029   9.392
 2822POPC   PO437584  18.480  22.182   9.511
 2822POPC   GL137585  18.233  22.074   9.185
 2822POPC   GL237586  18.080  22.404   9.209
 2822POPC   C1A37587  18.251  21.930   8.761
 2822POPC   D2A37588  18.436  21.743   8.376
 2822POPC   C3A37589  18.332  22.008   8.042
 2822POPC   C4A37590  18.243  21.935   7.643
 2822POPC   C1B37591  18.363  22.462   8.859
 2822POPC   C2B37592  18.444  22.314   8.443
 2822POPC   C3B37593  18.606  22.449   8.053
 2822POPC   C4B37594  18.364  22.428   7.673
 2823POPC   NC337595  16.736  37.378   9.772
 2823POPC   PO437596  16.835  36.761   9.528
 2823POPC   GL137597  16.694  37.054   9.243
 2823POPC   GL237598  16.404  36.841   9.223
 2823POPC   C1A37599  16.795  37.051   8.794
 2823POPC   D2A37600  17.068  37.067   8.421
 2823POPC   C3A37601  16.896  36.850   8.066
 2823POPC   C4A37602  16.958  36.981   7.683
 2823POPC   C1B37603  16.404  36.709   8.819
 2823POPC   C2B37604  16.422  36.832   8.406
 2823POPC   C3B37605  16.429  36.641   8.025
 2823POPC   C4B37606  16.461  36.809   7.663
 2824POPC   NC337607   8.625  27.365   9.367
 2824POPC   PO437608   9.004  27.835   9.483
 2824POPC   GL137609   9.245  27.813   9.127
 2824POPC   GL237610   9.296  27.468   9.225
 2824POPC   C1A37611   9.129  27.866   8.685
 2824POPC   D2A37612   8.818  27.776   8.341
 2824POPC   C3A37613   8.864  27.919   7.895
 2824POPC   C4A37614   8.878  27.843   7.442
 2824POPC   C1B37615   9.065  27.376   8.828
 2824POPC   C2B37616   9.183  27.397   8.392
 2824POPC   C3B37617   8.964  27.409   7.987
 2824POPC   C4B37618   8.905  27.018   7.817
 2825POPC   NC337619  10.066  33.546   9.678
 2825POPC   PO437620  10.477  34.045   9.615
 2825POPC   GL137621  10.701  33.909   9.250
 2825POPC   GL237622  10.439  33.666   9.240
 2825POPC   C1A37623  10.834  33.718   8.854
 2825POPC   D2A37624  10.764  33.513   8.446
 2825POPC   C3A37625  10.746  33.773   8.068
 2825POPC   C4A37626  10.556  33.630   7.696
 2825POPC   C1B37627  10.266  33.745   8.839
 2825POPC   C2B37628  10.381  33.888   8.437
 2825POPC   C3B37629  10.196  33.852   8.046
 2825POPC   C4B37630  10.096  33.808   7.612
 2826POPC   NC337631  26.067   6.381   9.741
 2826POPC   PO437632  26.215   6.980   9.468
 2826POPC   GL137633  26.251   6.711   9.104
 2826POPC   GL237634  26.287   6.963   8.916
 2826POPC   C1A37635  25.972   6.578   8.721
 2826POPC   D2A37636  25.986   6.298   8.344
 2826POPC   C3A37637  26.212   6.481   7.984
 2826POPC   C4A37638  26.023   6.562   7.608
 2826POPC   C1B37639  26.049   7.115   8.557
 2826POPC   C2B37640  26.119   6.985   8.135
 2826POPC   C3B37641  26.278   7.010   7.722
 2826POPC   C4B37642  26.177   6.906   7.272
 2827POPC   NC337643  25.341   0.276   9.528
 2827POPC   PO437644  25.214  44.580   9.560
 2827POPC   GL137645  25.120  44.631   9.136
 2827POPC   GL237646  25.398  44.423   9.045
 2827POPC   C1A37647  25.246  44.835   8.744
 2827POPC   D2A37648  25.306  44.952   8.305
 2827POPC   C3A37649  24.944   0.047   8.069
 2827POPC   C4A37650  24.921  44.798   7.719
 2827POPC   C1B37651  25.092  44.302   8.729
 2827POPC   C2B37652  25.106  44.483   8.335
 2827POPC   C3B37653  25.283  44.523   7.950
 2827POPC   C4B37654  25.053  44.312   7.635
 2828POPC   NC337655  19.330  14.737   9.375
 2828POPC   PO437656  18.781  14.313   9.396
 2828POPC   GL137657  19.030  14.443   9.098
 2828POPC   GL237658  19.202  14.187   9.029
 2828POPC   C1A37659  19.209  14.634   8.737
 2828POPC   D2A37660  19.393  14.425   8.394
 2828POPC   C3A37661  19.265  14.533   7.999
 2828POPC   C4A37662  18.964  14.502   7.707
 2828POPC   C1B37663  19.127  14.034   8.654
 2828POPC   C2B37664  19.299  13.898   8.285
 2828POPC   C3B37665  19.183  14.037   7.912
 2828POPC   C4B37666  19.366  14.223   7.578
 2829POPC   NC337667   8.410  12.801   9.612
 2829POPC   PO437668   8.047  13.205   9.406
 2829POPC   GL137669   8.243  12.839   9.145
 2829POPC   GL237670   7.963  12.732   9.058
 2829POPC   C1A37671   8.273  12.630   8.700
 2829POPC   D2A37672   8.302  12.842   8.335
 2829POPC   C3A37673   8.344  12.676   7.914
 2829POPC   C4A37674   8.418  12.861   7.491
 2829POPC   C1B37675   8.096  13.119   8.764
 2829POPC   C2B37676   8.043  13.283   8.377
 2829POPC   C3B37677   8.135  13.176   7.981
 2829POPC   C4B37678   7.944  12.939   7.668
 2830POPC   NC337679  29.708  37.589   9.418
 2830POPC   PO437680  30.447  37.288   9.307
 2830POPC   GL137681  30.101  37.452   9.129
 2830POPC   GL237682  30.111  37.825   9.170
 2830POPC   C1A37683  29.957  37.434   8.726
 2830POPC   D2A37684  30.118  37.673   8.374
 2830POPC   C3A37685  29.947  37.519   8.027
 2830POPC   C4A37686  30.048  37.683   7.637
 2830POPC   C1B37687  29.963  37.947   8.782
 2830POPC   C2B37688  29.756  38.047   8.397
 2830POPC   C3B37689  29.783  37.994   7.960
 2830POPC   C4B37690  29.533  37.725   7.724
 2831POPC   NC337691   6.786  18.709   9.557
 2831POPC   PO437692   6.526  19.329   9.514
 2831POPC   GL137693   6.358  19.184   9.152
 2831POPC   GL237694   6.237  18.886   9.315
 2831POPC   C1A37695   6.430  19.262   8.726
 2831POPC   D2A37696   6.786  19.148   8.486
 2831POPC   C3A37697   6.706  18.990   8.087
 2831POPC   C4A37698   7.009  18.805   7.835
 2831POPC   C1B37699   6.288  18.753   8.893
 2831POPC   C2B37700   6.439  18.737   8.487
 2831POPC   C3B37701   6.247  18.682   8.109
 2831POPC   C4B37702   6.449  18.647   7.731
 2832POPC   NC337703  33.804  15.624   9.475
 2832POPC   PO437704  33.319  16.142   9.487
 2832POPC   GL137705  33.685  16.068   9.158
 2832POPC   GL237706  34.079  15.975   9.215
 2832POPC   C1A37707  33.757  15.766   8.792
 2832POPC   D2A37708  33.744  15.589   8.341
 2832POPC   C3A37709  33.970  15.858   8.019
 2832POPC   C4A37710  33.897  16.024   7.641
 2832POPC   C1B37711  34.070  16.180   8.799
 2832POPC   C2B37712  33.833  16.140   8.428
 2832POPC   C3B37713  33.801  16.341   8.045
 2832POPC   C4B37714  34.157  16.396   7.839
 2833POPC   NC337715  34.279  27.419   9.645
 2833POPC   PO437716  34.814  27.832   9.524
 2833POPC   GL137717  34.624  27.538   9.242
 2833POPC   GL237718  34.281  27.595   9.164
 2833POPC   C1A37719  34.619  27.459   8.816
 2833POPC   D2A37720  34.621  27.725   8.482
 2833POPC   C3A37721  34.642  27.469   8.138
 2833POPC   C4A37722  34.734  27.259   7.753
 2833POPC   C1B37723  34.222  27.861   8.782
 2833POPC   C2B37724  34.088  27.796   8.372
 2833POPC   C3B37725  34.089  27.917   7.961
 2833POPC   C4B37726  34.305  27.572   7.776
 2834POPC   NC337727  23.104  41.089   9.525
 2834POPC   PO437728  22.657  40.553   9.497
 2834POPC   GL137729  22.799  40.686   9.138
 2834POPC   GL237730  23.164  40.682   9.073
 2834POPC   C1A37731  22.803  40.598   8.723
 2834POPC   D2A37732  22.990  40.783   8.376
 2834POPC   C3A37733  22.868  40.558   8.034
 2834POPC   C4A37734  22.901  40.715   7.639
 2834POPC   C1B37735  23.312  40.437   8.691
 2834POPC   C2B37736  23.346  40.430   8.224
 2834POPC   C3B37737  23.329  40.771   7.897
 2834POPC   C4B37738  23.316  41.149   7.622
 2835POPC   NC337739  25.773  33.299   9.601
 2835POPC   PO437740  26.322  33.053   9.413
 2835POPC   GL137741  26.067  32.979   9.106
 2835POPC   GL237742  25.893  33.241   9.110
 2835POPC   C1A37743  26.138  32.955   8.683
 2835POPC   D2A37744  26.242  33.129   8.306
 2835POPC   C3A37745  26.011  33.044   7.953
 2835POPC   C4A37746  25.976  33.315   7.612
 2835POPC   C1B37747  25.663  33.507   8.871
 2835POPC   C2B37748  25.782  33.351   8.463
 2835POPC   C3B37749  25.634  33.374   8.042
 2835POPC   C4B37750  25.461  33.442   7.639
 2836POPC   NC337751   1.044  42.439   9.625
 2836POPC   PO437752   1.161  43.083   9.528
 2836POPC   GL137753   1.096  43.234   9.156
 2836POPC   GL237754   1.411  43.441   9.142
 2836POPC   C1A37755   0.993  43.121   8.746
 2836POPC   D2A37756   0.863  43.257   8.366
 2836POPC   C3A37757   0.996  43.100   7.970
 2836POPC   C4A37758   0.849  43.040   7.567
 2836POPC   C1B37759   1.504  43.171   8.819
 2836POPC   C2B37760   1.380  43.063   8.395
 2836POPC   C3B37761   1.430  43.349   8.061
 2836POPC   C4B37762   1.597  43.401   7.673
 2837POPC   NC337763  33.291  36.383   9.499
 2837POPC   PO437764  33.861  36.073   9.556
 2837POPC   GL137765  33.915  35.977   9.138
 2837POPC   GL237766  33.542  36.088   9.121
 2837POPC   C1A37767  33.942  36.034   8.679
 2837POPC   D2A37768  33.733  36.310   8.364
 2837POPC   C3A37769  33.868  36.297   7.932
 2837POPC   C4A37770  34.174  36.003   7.836
 2837POPC   C1B37771  33.558  35.760   8.835
 2837POPC   C2B37772  33.580  35.765   8.384
 2837POPC   C3B37773  33.615  35.830   7.949
 2837POPC   C4B37774  33.742  35.973   7.538
 2838POPC   NC337775  30.394  25.973   9.395
 2838POPC   PO437776  29.776  26.029   9.376
 2838POPC   GL137777  30.024  26.232   9.129
 2838POPC   GL237778  29.740  26.361   8.932
 2838POPC   C1A37779  30.107  26.047   8.766
 2838POPC   D2A37780  29.941  26.164   8.396
 2838POPC   C3A37781  29.948  25.864   8.078
 2838POPC   C4A37782  30.186  25.835   7.691
 2838POPC   C1B37783  29.614  25.924   8.762
 2838POPC   C2B37784  29.430  25.936   8.364
 2838POPC   C3B37785  29.565  26.240   8.041
 2838POPC   C4B37786  29.799  26.155   7.661
 2839POPC   NC337787  20.758  15.511   9.345
 2839POPC   PO437788  20.589  16.011   9.797
 2839POPC   GL137789  20.635  16.185   9.371
 2839POPC   GL237790  20.972  16.097   9.271
 2839POPC   C1A37791  20.557  16.250   8.913
 2839POPC   D2A37792  20.304  16.005   8.596
 2839POPC   C3A37793  20.373  16.077   8.157
 2839POPC   C4A37794  20.362  16.118   7.726
 2839POPC   C1B37795  20.923  15.891   8.840
 2839POPC   C2B37796  20.781  15.887   8.397
 2839POPC   C3B37797  20.813  15.917   7.932
 2839POPC   C4B37798  20.964  15.577   7.598
 2840POPC   NC337799  15.812   3.842   9.375
 2840POPC   PO437800  16.411   3.735   9.464
 2840POPC   GL137801  16.178   3.472   9.130
 2840POPC   GL237802  15.844   3.566   8.969
 2840POPC   C1A37803  16.174   3.385   8.663
 2840POPC   D2A37804  16.249   3.609   8.297
 2840POPC   C3A37805  16.198   3.419   7.894
 2840POPC   C4A37806  15.999   3.165   7.607
 2840POPC   C1B37807  15.643   3.374   8.660
 2840POPC   C2B37808  15.718   3.644   8.351
 2840POPC   C3B37809  15.625   3.857   8.001
 2840POPC   C4B37810  15.744   3.614   7.684
 2841POPC   NC337811  16.309   5.025   9.512
 2841POPC   PO437812  15.718   5.136   9.892
 2841POPC   GL137813  15.793   5.182   9.418
 2841POPC   GL237814  15.853   4.844   9.250
 2841POPC   C1A37815  15.873   5.276   8.953
 2841POPC   D2A37816  16.014   5.039   8.558
 2841POPC   C3A37817  15.975   5.174   8.123
 2841POPC   C4A37818  15.714   5.300   7.804
 2841POPC   C1B37819  15.619   4.836   8.840
 2841POPC   C2B37820  15.596   4.731   8.372
 2841POPC   C3B37821  15.669   4.796   7.895
 2841POPC   C4B37822  15.821   4.587   7.483
 2842POPC   NC337823  18.910  23.122   9.642
 2842POPC   PO437824  19.298  22.641   9.524
 2842POPC   GL137825  19.183  22.909   9.162
 2842POPC   GL237826  18.825  23.015   9.158
 2842POPC   C1A37827  19.248  22.711   8.751
 2842POPC   D2A37828  18.961  22.534   8.467
 2842POPC   C3A37829  18.972  22.801   8.119
 2842POPC   C4A37830  19.291  22.644   7.836
 2842POPC   C1B37831  18.915  23.094   8.742
 2842POPC   C2B37832  18.782  23.261   8.373
 2842POPC   C3B37833  18.758  23.286   7.949
 2842POPC   C4B37834  18.993  23.040   7.668
 2843POPC   NC337835   7.960  43.016   9.486
 2843POPC   PO437836   8.215  43.601   9.547
 2843POPC   GL137837   8.205  43.324   9.171
 2843POPC   GL237838   8.389  43.017   9.166
 2843POPC   C1A37839   8.054  43.154   8.784
 2843POPC   D2A37840   8.124  42.978   8.381
 2843POPC   C3A37841   8.027  43.319   8.093
 2843POPC   C4A37842   8.218  43.424   7.707
 2843POPC   C1B37843   8.453  42.760   8.773
 2843POPC   C2B37844   8.476  42.608   8.317
 2843POPC   C3B37845   8.214  42.691   7.927
 2843POPC   C4B37846   7.870  42.953   7.773
 2844POPC   NC337847  10.796  37.317   9.687
 2844POPC   PO437848  10.309  37.853   9.673
 2844POPC   GL137849  10.307  37.706   9.256
 2844POPC   GL237850  10.497  37.389   9.256
 2844POPC   C1A37851  10.279  37.669   8.817
 2844POPC   D2A37852  10.498  37.800   8.471
 2844POPC   C3A37853  10.356  37.677   8.073
 2844POPC   C4A37854  10.641  37.755   7.723
 2844POPC   C1B37855  10.410  37.165   8.871
 2844POPC   C2B37856  10.416  37.278   8.445
 2844POPC   C3B37857  10.436  37.183   8.027
 2844POPC   C4B37858  10.315  37.372   7.624
 2845POPC   NC337859   0.162  28.340   9.457
 2845POPC   PO437860  44.571  28.577   9.591
 2845POPC   GL137861  44.477  28.363   9.172
 2845POPC   GL237862  44.743  28.182   9.217
 2845POPC   C1A37863  44.650  28.383   8.742
 2845POPC   D2A37864  44.823  28.405   8.306
 2845POPC   C3A37865  44.536  28.346   7.957
 2845POPC   C4A37866  44.479  28.605   7.576
 2845POPC   C1B37867   0.026  28.048   8.863
 2845POPC   C2B37868   0.002  27.934   8.428
 2845POPC   C3B37869  44.791  27.897   8.023
 2845POPC   C4B37870  44.711  28.037   7.568
 2846POPC   NC337871  26.995  42.294   9.628
 2846POPC   PO437872  26.387  42.242   9.531
 2846POPC   GL137873  26.654  42.469   9.176
 2846POPC   GL237874  27.036  42.449   9.159
 2846POPC   C1A37875  26.607  42.519   8.720
 2846POPC   D2A37876  26.553  42.172   8.428
 2846POPC   C3A37877  26.638  42.165   7.986
 2846POPC   C4A37878  26.690  42.520   7.678
 2846POPC   C1B37879  27.146  42.563   8.762
 2846POPC   C2B37880  26.998  42.451   8.367
 2846POPC   C3B37881  27.097  42.352   7.945
 2846POPC   C4B37882  27.301  42.449   7.580
 2847POPC   NC337883  11.374   1.514   9.608
 2847POPC   PO437884  10.994   0.934   9.608
 2847POPC   GL137885  11.281   1.097   9.283
 2847POPC   GL237886  11.205   1.404   9.149
 2847POPC   C1A37887  11.291   1.017   8.823
 2847POPC   D2A37888  11.398   0.933   8.411
 2847POPC   C3A37889  11.338   1.199   8.068
 2847POPC   C4A37890  11.416   1.037   7.691
 2847POPC   C1B37891  10.945   1.389   8.835
 2847POPC   C2B37892  11.056   1.385   8.452
 2847POPC   C3B37893  10.868   1.518   8.094
 2847POPC   C4B37894  10.976   1.363   7.701
 2848POPC   NC337895  38.047  23.261   9.379
 2848POPC   PO437896  37.552  22.935   9.608
 2848POPC   GL137897  37.735  22.933   9.170
 2848POPC   GL237898  37.813  22.625   9.043
 2848POPC   C1A37899  37.859  23.014   8.719
 2848POPC   D2A37900  37.780  22.918   8.263
 2848POPC   C3A37901  37.935  23.197   7.956
 2848POPC   C4A37902  37.852  23.126   7.523
 2848POPC   C1B37903  37.445  22.713   8.787
 2848POPC   C2B37904  37.422  22.551   8.377
 2848POPC   C3B37905  37.485  22.639   7.945
 2848POPC   C4B37906  37.152  22.517   7.708
 2849POPC   NC337907  42.593   1.903   9.448
 2849POPC   PO437908  42.008   2.381   9.489
 2849POPC   GL137909  42.009   2.174   9.118
 2849POPC   GL237910  42.190   1.892   9.115
 2849POPC   C1A37911  41.970   2.101   8.680
 2849POPC   D2A37912  42.162   1.952   8.300
 2849POPC   C3A37913  42.382   2.155   7.937
 2849POPC   C4A37914  42.374   2.033   7.479
 2849POPC   C1B37915  42.509   1.819   8.766
 2849POPC   C2B37916  42.665   1.873   8.331
 2849POPC   C3B37917  42.437   1.660   7.974
 2849POPC   C4B37918  42.574   1.542   7.590
 2850POPC   NC337919  14.946  43.415   9.317
 2850POPC   PO437920  15.247  42.925   9.653
 2850POPC   GL137921  15.144  42.954   9.195
 2850POPC   GL237922  14.894  42.764   9.048
 2850POPC   C1A37923  15.118  43.143   8.766
 2850POPC   D2A37924  15.371  43.443   8.579
 2850POPC   C3A37925  15.305  43.429   8.163
 2850POPC   C4A37926  15.205  43.377   7.779
 2850POPC   C1B37927  14.654  42.938   8.696
 2850POPC   C2B37928  14.652  42.873   8.292
 2850POPC   C3B37929  14.930  43.010   8.010
 2850POPC   C4B37930  15.090  42.855   7.648
 2851POPC   NC337931  23.772  39.534   9.296
 2851POPC   PO437932  23.910  38.941   9.393
 2851POPC   GL137933  23.569  39.041   9.104
 2851POPC   GL237934  23.319  39.337   9.168
 2851POPC   C1A37935  23.636  39.037   8.650
 2851POPC   D2A37936  23.603  38.938   8.219
 2851POPC   C3A37937  23.853  39.240   7.978
 2851POPC   C4A37938  23.888  39.343   7.529
 2851POPC   C1B37939  23.159  39.131   8.801
 2851POPC   C2B37940  23.253  39.315   8.405
 2851POPC   C3B37941  23.359  39.363   7.988
 2851POPC   C4B37942  23.177  39.498   7.632
 2852POPC   NC337943   0.243  42.037   9.634
 2852POPC   PO437944   0.597  42.625   9.576
 2852POPC   GL137945   0.487  42.371   9.218
 2852POPC   GL237946   0.127  42.261   9.201
 2852POPC   C1A37947   0.340  42.385   8.777
 2852POPC   D2A37948   0.505  42.452   8.407
 2852POPC   C3A37949   0.376  42.334   8.059
 2852POPC   C4A37950   0.734  42.387   7.824
 2852POPC   C1B37951   0.375  41.918   8.979
 2852POPC   C2B37952   0.404  41.908   8.542
 2852POPC   C3B37953   0.626  41.904   8.190
 2852POPC   C4B37954   0.515  41.933   7.780
 2853POPC   NC337955  43.070  14.489   9.617
 2853POPC   PO437956  42.926  13.768   9.609
 2853POPC   GL137957  43.051  14.125   9.272
 2853POPC   GL237958  42.853  14.434   9.165
 2853POPC   C1A37959  43.258  14.182   8.895
 2853POPC   D2A37960  43.102  14.264   8.487
 2853POPC   C3A37961  43.133  14.027   8.137
 2853POPC   C4A37962  43.174  14.198   7.763
 2853POPC   C1B37963  42.970  14.648   8.819
 2853POPC   C2B37964  42.846  14.706   8.400
 2853POPC   C3B37965  43.089  14.592   8.079
 2853POPC   C4B37966  42.924  14.627   7.696
 2854POPC   NC337967  22.521  10.573   9.700
 2854POPC   PO437968  23.190  10.784   9.508
 2854POPC   GL137969  22.914  10.648   9.150
 2854POPC   GL237970  22.608  10.531   9.199
 2854POPC   C1A37971  22.997  10.493   8.734
 2854POPC   D2A37972  23.224  10.623   8.394
 2854POPC   C3A37973  23.143  10.353   8.073
 2854POPC   C4A37974  22.862  10.333   7.753
 2854POPC   C1B37975  22.531  10.684   8.766
 2854POPC   C2B37976  22.709  10.784   8.368
 2854POPC   C3B37977  22.582  10.736   7.970
 2854POPC   C4B37978  22.383  10.505   7.714
 2855POPC   NC337979  23.843   2.006   9.577
 2855POPC   PO437980  23.179   1.736   9.735
 2855POPC   GL137981  23.410   1.862   9.271
 2855POPC   GL237982  23.698   1.723   9.188
 2855POPC   C1A37983  23.525   2.007   8.815
 2855POPC   D2A37984  23.411   2.161   8.360
 2855POPC   C3A37985  23.424   1.981   7.907
 2855POPC   C4A37986  23.571   2.069   7.467
 2855POPC   C1B37987  23.848   1.607   8.798
 2855POPC   C2B37988  23.799   1.806   8.422
 2855POPC   C3B37989  23.913   1.953   8.056
 2855POPC   C4B37990  23.960   1.783   7.670
 2856POPC   NC337991   1.636  17.291   9.328
 2856POPC   PO437992   2.215  17.567   9.420
 2856POPC   GL137993   2.117  17.454   9.066
 2856POPC   GL237994   2.021  17.135   9.067
 2856POPC   C1A37995   2.303  17.365   8.694
 2856POPC   D2A37996   2.247  17.683   8.427
 2856POPC   C3A37997   1.917  17.777   8.201
 2856POPC   C4A37998   1.956  17.669   7.791
 2856POPC   C1B37999   1.805  17.233   8.664
 2856POPC   C2B38000   2.011  17.247   8.250
 2856POPC   C3B38001   1.992  17.160   7.789
 2856POPC   C4B38002   2.179  17.080   7.369
 2857POPC   NC338003   5.275  23.372   9.572
 2857POPC   PO438004   4.759  23.643   9.175
 2857POPC   GL138005   5.003  23.656   8.952
 2857POPC   GL238006   5.279  23.546   9.081
 2857POPC   C1A38007   5.011  23.427   8.599
 2857POPC   D2A38008   4.809  23.648   8.325
 2857POPC   C3A38009   4.895  23.422   8.003
 2857POPC   C4A38010   4.897  23.662   7.671
 2857POPC   C1B38011   5.370  23.782   8.663
 2857POPC   C2B38012   5.333  23.629   8.231
 2857POPC   C3B38013   5.336  23.853   7.832
 2857POPC   C4B38014   5.536  24.004   7.419
 2858POPC   NC338015   2.276  32.400   9.217
 2858POPC   PO438016   2.868  32.329   9.479
 2858POPC   GL138017   2.872  32.106   9.116
 2858POPC   GL238018   2.535  31.995   9.075
 2858POPC   C1A38019   2.837  32.212   8.709
 2858POPC   D2A38020   3.042  32.100   8.363
 2858POPC   C3A38021   2.964  32.413   8.071
 2858POPC   C4A38022   2.863  32.365   7.668
 2858POPC   C1B38023   2.488  31.850   8.688
 2858POPC   C2B38024   2.510  32.065   8.280
 2858POPC   C3B38025   2.391  32.152   7.847
 2858POPC   C4B38026   2.456  32.339   7.396
 2859POPC   NC338027  15.831  40.366   9.533
 2859POPC   PO438028  16.277  40.882   9.461
 2859POPC   GL138029  16.092  40.562   9.162
 2859POPC   GL238030  15.778  40.691   9.134
 2859POPC   C1A38031  16.109  40.369   8.759
 2859POPC   D2A38032  16.299  40.500   8.366
 2859POPC   C3A38033  16.059  40.469   7.990
 2859POPC   C4A38034  16.241  40.423   7.577
 2859POPC   C1B38035  15.992  40.886   8.793
 2859POPC   C2B38036  15.910  40.843   8.386
 2859POPC   C3B38037  15.976  41.011   8.016
 2859POPC   C4B38038  16.044  40.902   7.635
 2860POPC   NC338039   5.183   6.956   9.313
 2860POPC   PO438040   4.799   6.453   9.459
 2860POPC   GL138041   4.862   6.640   9.119
 2860POPC   GL238042   5.230   6.510   9.104
 2860POPC   C1A38043   4.838   6.909   8.762
 2860POPC   D2A38044   5.054   6.964   8.344
 2860POPC   C3A38045   5.148   6.589   8.109
 2860POPC   C4A38046   4.985   6.520   7.700
 2860POPC   C1B38047   5.272   6.641   8.705
 2860POPC   C2B38048   5.536   6.775   8.423
 2860POPC   C3B38049   5.535   6.929   8.043
 2860POPC   C4B38050   5.480   6.669   7.710
 2861POPC   NC338051  32.134  16.420   9.461
 2861POPC   PO438052  32.624  16.830   9.398
 2861POPC   GL138053  32.558  16.676   9.014
 2861POPC   GL238054  32.457  16.370   9.074
 2861POPC   C1A38055  32.277  16.834   8.697
 2861POPC   D2A38056  32.266  16.778   8.283
 2861POPC   C3A38057  32.359  16.844   7.908
 2861POPC   C4A38058  32.340  17.237   7.813
 2861POPC   C1B38059  32.657  16.155   8.774
 2861POPC   C2B38060  32.522  16.386   8.455
 2861POPC   C3B38061  32.343  16.337   8.040
 2861POPC   C4B38062  32.504  16.420   7.623
 2862POPC   NC338063  29.832  16.391   9.854
 2862POPC   PO438064  29.814  15.810   9.524
 2862POPC   GL138065  29.851  16.061   9.174
 2862POPC   GL238066  29.550  16.196   9.106
 2862POPC   C1A38067  29.922  15.993   8.738
 2862POPC   D2A38068  29.746  15.954   8.312
 2862POPC   C3A38069  30.005  16.073   7.959
 2862POPC   C4A38070  29.990  15.780   7.617
 2862POPC   C1B38071  29.415  16.110   8.700
 2862POPC   C2B38072  29.484  16.393   8.360
 2862POPC   C3B38073  29.673  16.496   7.980
 2862POPC   C4B38074  29.792  16.347   7.590
 2863POPC   NC338075  23.349  23.755   9.667
 2863POPC   PO438076  23.964  23.930   9.437
 2863POPC   GL138077  23.634  23.692   9.222
 2863POPC   GL238078  23.765  23.375   9.151
 2863POPC   C1A38079  23.630  23.819   8.794
 2863POPC   D2A38080  23.932  23.787   8.432
 2863POPC   C3A38081  23.683  23.809   8.056
 2863POPC   C4A38082  23.618  24.036   7.680
 2863POPC   C1B38083  23.800  23.357   8.700
 2863POPC   C2B38084  23.749  23.327   8.251
 2863POPC   C3B38085  23.709  23.346   7.799
 2863POPC   C4B38086  24.001  23.288   7.447
 2864POPC   NC338087  43.349  31.576   9.563
 2864POPC   PO438088  42.596  31.625   9.508
 2864POPC   GL138089  42.792  31.355   9.193
 2864POPC   GL238090  43.035  31.543   9.160
 2864POPC   C1A38091  42.958  31.261   8.744
 2864POPC   D2A38092  42.789  31.319   8.316
 2864POPC   C3A38093  43.120  31.275   7.999
 2864POPC   C4A38094  43.104  31.163   7.562
 2864POPC   C1B38095  43.059  31.761   8.788
 2864POPC   C2B38096  43.217  31.601   8.416
 2864POPC   C3B38097  43.123  31.782   8.042
 2864POPC   C4B38098  43.242  31.634   7.637
 2865POPC   NC338099  39.759  25.554   9.458
 2865POPC   PO438100  40.288  25.181   9.492
 2865POPC   GL138101  40.101  25.316   9.128
 2865POPC   GL238102  39.757  25.175   9.073
 2865POPC   C1A38103  40.119  25.075   8.740
 2865POPC   D2A38104  40.145  25.276   8.351
 2865POPC   C3A38105  40.167  24.988   8.028
 2865POPC   C4A38106  40.021  25.035   7.616
 2865POPC   C1B38107  39.799  25.496   8.741
 2865POPC   C2B38108  39.687  25.574   8.305
 2865POPC   C3B38109  39.851  25.429   7.916
 2865POPC   C4B38110  39.886  25.521   7.478
 2866POPC   NC338111  41.004  23.565   9.518
 2866POPC   PO438112  40.371  23.632   9.371
 2866POPC   GL138113  40.559  23.749   9.040
 2866POPC   GL238114  40.898  23.611   9.031
 2866POPC   C1A38115  40.500  23.451   8.728
 2866POPC   D2A38116  40.662  23.341   8.375
 2866POPC   C3A38117  40.687  23.677   8.121
 2866POPC   C4A38118  40.515  23.681   7.710
 2866POPC   C1B38119  40.917  23.757   8.633
 2866POPC   C2B38120  41.100  23.963   8.305
 2866POPC   C3B38121  41.048  23.887   7.850
 2866POPC   C4B38122  41.318  23.841   7.501
 2867POPC   NC338123  35.842   5.434   9.521
 2867POPC   PO438124  36.175   6.039   9.484
 2867POPC   GL138125  35.999   5.774   9.186
 2867POPC   GL238126  36.105   5.951   8.953
 2867POPC   C1A38127  35.739   5.590   8.870
 2867POPC   D2A38128  35.717   5.449   8.475
 2867POPC   C3A38129  36.079   5.596   8.230
 2867POPC   C4A38130  36.166   5.557   7.784
 2867POPC   C1B38131  35.785   6.198   8.793
 2867POPC   C2B38132  35.865   6.205   8.361
 2867POPC   C3B38133  36.079   6.074   7.987
 2867POPC   C4B38134  36.071   6.278   7.597
 2868POPC   NC338135  43.501   8.148   9.435
 2868POPC   PO438136  43.996   8.516   9.783
 2868POPC   GL138137  44.001   8.328   9.308
 2868POPC   GL238138  43.706   8.370   9.036
 2868POPC   C1A38139  44.154   8.237   8.863
 2868POPC   D2A38140  43.867   8.302   8.504
 2868POPC   C3A38141  44.037   8.110   8.148
 2868POPC   C4A38142  44.014   8.260   7.730
 2868POPC   C1B38143  43.754   7.929   8.840
 2868POPC   C2B38144  43.622   7.826   8.413
 2868POPC   C3B38145  43.446   7.855   7.987
 2868POPC   C4B38146  43.425   7.850   7.508
 2869POPC   NC338147  40.848  12.460   9.318
 2869POPC   PO438148  41.152  11.860   9.370
 2869POPC   GL138149  40.703  11.853   9.137
 2869POPC   GL238150  40.477  12.161   9.072
 2869POPC   C1A38151  40.477  11.817   8.716
 2869POPC   D2A38152  40.338  12.046   8.348
 2869POPC   C3A38153  40.649  11.966   8.049
 2869POPC   C4A38154  40.733  12.195   7.678
 2869POPC   C1B38155  40.643  12.317   8.689
 2869POPC   C2B38156  40.983  12.173   8.425
 2869POPC   C3B38157  41.155  11.985   8.063
 2869POPC   C4B38158  40.986  11.764   7.703
 2870POPC   NC338159  42.502  42.110   9.458
 2870POPC   PO438160  41.900  42.498   9.432
 2870POPC   GL138161  42.169  42.349   9.127
 2870POPC   GL238162  42.514  42.481   9.109
 2870POPC   C1A38163  42.115  42.173   8.741
 2870POPC   D2A38164  41.965  42.388   8.369
 2870POPC   C3A38165  42.185  42.309   7.995
 2870POPC   C4A38166  42.443  42.111   7.667
 2870POPC   C1B38167  42.414  42.566   8.679
 2870POPC   C2B38168  42.572  42.330   8.333
 2870POPC   C3B38169  42.672  42.511   7.925
 2870POPC   C4B38170  42.357  42.775   7.808
 2871POPC   NC338171  18.463  42.527   9.688
 2871POPC   PO438172  18.151  41.946   9.591
 2871POPC   GL138173  18.264  42.242   9.248
 2871POPC   GL238174  18.607  42.429   9.217
 2871POPC   C1A38175  18.213  42.213   8.794
 2871POPC   D2A38176  18.014  42.495   8.467
 2871POPC   C3A38177  18.121  42.264   8.114
 2871POPC   C4A38178  18.084  42.051   7.737
 2871POPC   C1B38179  18.741  42.311   8.827
 2871POPC   C2B38180  18.565  42.396   8.408
 2871POPC   C3B38181  18.618  42.224   8.008
 2871POPC   C4B38182  18.714  42.067   7.617
 2872POPC   NC338183  39.024  12.057   9.541
 2872POPC   PO438184  38.383  11.973   9.557
 2872POPC   GL138185  38.592  11.917   9.186
 2872POPC   GL238186  38.728  12.226   9.103
 2872POPC   C1A38187  38.392  11.996   8.786
 2872POPC   D2A38188  38.348  12.219   8.410
 2872POPC   C3A38189  38.381  11.965   8.046
 2872POPC   C4A38190  38.479  11.847   7.596
 2872POPC   C1B38191  38.816  12.286   8.680
 2872POPC   C2B38192  38.838  12.185   8.233
 2872POPC   C3B38193  38.670  12.351   7.859
 2872POPC   C4B38194  38.880  12.548   7.533
 2873POPC   NC338195  22.147  31.342   9.505
 2873POPC   PO438196  21.677  31.791   9.368
 2873POPC   GL138197  22.008  31.743   9.036
 2873POPC   GL238198  22.251  31.452   9.031
 2873POPC   C1A38199  22.045  31.754   8.572
 2873POPC   D2A38200  21.855  31.562   8.206
 2873POPC   C3A38201  22.084  31.670   7.829
 2873POPC   C4A38202  22.198  31.518   7.410
 2873POPC   C1B38203  22.425  31.366   8.658
 2873POPC   C2B38204  22.639  31.677   8.445
 2873POPC   C3B38205  22.546  31.818   8.055
 2873POPC   C4B38206  22.552  31.449   7.801
 2874POPC   NC338207  37.094  14.877   9.467
 2874POPC   PO438208  36.528  15.241   9.500
 2874POPC   GL138209  36.734  15.291   9.118
 2874POPC   GL238210  37.056  15.347   9.241
 2874POPC   C1A38211  36.793  15.071   8.703
 2874POPC   D2A38212  36.531  14.843   8.388
 2874POPC   C3A38213  36.606  15.083   8.034
 2874POPC   C4A38214  36.725  15.114   7.645
 2874POPC   C1B38215  37.271  15.147   8.897
 2874POPC   C2B38216  37.381  15.095   8.465
 2874POPC   C3B38217  37.145  15.168   8.097
 2874POPC   C4B38218  37.244  15.109   7.684
 2875POPC   NC338219   8.772  39.431   9.498
 2875POPC   PO438220   9.392  39.087   9.579
 2875POPC   GL138221   9.194  39.325   9.233
 2875POPC   GL238222   8.919  39.140   9.113
 2875POPC   C1A38223   9.150  39.422   8.789
 2875POPC   D2A38224   9.232  39.225   8.400
 2875POPC   C3A38225   9.116  39.446   8.029
 2875POPC   C4A38226   9.129  39.277   7.624
 2875POPC   C1B38227   8.669  39.113   8.723
 2875POPC   C2B38228   8.711  39.275   8.297
 2875POPC   C3B38229   8.665  39.303   7.832
 2875POPC   C4B38230   8.694  39.090   7.397
 2876POPC   NC338231  11.687  34.120   9.471
 2876POPC   PO438232  12.338  34.013   9.454
 2876POPC   GL138233  12.027  33.843   9.179
 2876POPC   GL238234  12.015  33.484   9.184
 2876POPC   C1A38235  11.892  34.003   8.754
 2876POPC   D2A38236  12.078  34.250   8.379
 2876POPC   C3A38237  11.987  34.195   7.908
 2876POPC   C4A38238  12.106  34.095   7.468
 2876POPC   C1B38239  12.278  33.605   8.797
 2876POPC   C2B38240  12.244  33.719   8.339
 2876POPC   C3B38241  11.929  33.699   8.001
 2876POPC   C4B38242  11.825  33.689   7.545
 2877POPC   NC338243  42.333   2.931   9.670
 2877POPC   PO438244  41.701   2.875   9.687
 2877POPC   GL138245  42.023   2.850   9.288
 2877POPC   GL238246  42.314   2.638   9.183
 2877POPC   C1A38247  42.174   3.049   8.897
 2877POPC   D2A38248  41.899   3.227   8.617
 2877POPC   C3A38249  41.948   3.055   8.227
 2877POPC   C4A38250  42.254   2.847   7.946
 2877POPC   C1B38251  42.436   2.324   8.855
 2877POPC   C2B38252  42.449   2.388   8.401
 2877POPC   C3B38253  42.676   2.556   8.020
 2877POPC   C4B38254  42.553   2.567   7.596
 2878POPC   NC338255  38.612  17.120   9.735
 2878POPC   PO438256  38.567  16.434   9.623
 2878POPC   GL138257  38.532  16.777   9.274
 2878POPC   GL238258  38.624  17.168   9.234
 2878POPC   C1A38259  38.447  16.752   8.815
 2878POPC   D2A38260  38.372  16.518   8.410
 2878POPC   C3A38261  38.444  16.771   8.073
 2878POPC   C4A38262  38.211  16.866   7.708
 2878POPC   C1B38263  38.820  17.100   8.855
 2878POPC   C2B38264  38.708  17.061   8.431
 2878POPC   C3B38265  38.675  17.209   7.998
 2878POPC   C4B38266  38.708  16.918   7.662
 2879POPC   NC338267  39.383  13.645   9.419
 2879POPC   PO438268  38.979  13.126   9.340
 2879POPC   GL138269  38.994  13.452   9.069
 2879POPC   GL238270  38.790  13.690   9.257
 2879POPC   C1A38271  39.243  13.644   8.722
 2879POPC   D2A38272  39.176  13.824   8.309
 2879POPC   C3A38273  39.313  13.591   7.966
 2879POPC   C4A38274  39.557  13.686   7.609
 2879POPC   C1B38275  38.753  13.824   8.813
 2879POPC   C2B38276  38.708  13.657   8.400
 2879POPC   C3B38277  38.808  13.421   8.037
 2879POPC   C4B38278  38.910  13.533   7.637
 2880POPC   NC338279  23.424   1.416   9.502
 2880POPC   PO438280  24.071   1.523   9.479
 2880POPC   GL138281  23.867   1.239   9.175
 2880POPC   GL238282  23.514   1.279   9.008
 2880POPC   C1A38283  23.925   1.106   8.763
 2880POPC   D2A38284  23.672   1.213   8.409
 2880POPC   C3A38285  23.901   1.065   8.041
 2880POPC   C4A38286  23.966   1.278   7.609
 2880POPC   C1B38287  23.332   1.554   8.666
 2880POPC   C2B38288  23.357   1.632   8.266
 2880POPC   C3B38289  23.640   1.509   7.981
 2880POPC   C4B38290  23.515   1.551   7.589
 2881POPC   NC338291   2.752  22.298   9.523
 2881POPC   PO438292   3.113  21.715   9.388
 2881POPC   GL138293   3.014  21.987   9.055
 2881POPC   GL238294   2.661  22.139   9.032
 2881POPC   C1A38295   2.922  21.961   8.618
 2881POPC   D2A38296   3.012  22.292   8.300
 2881POPC   C3A38297   2.911  22.197   7.871
 2881POPC   C4A38298   2.945  22.198   7.425
 2881POPC   C1B38299   2.318  22.435   8.881
 2881POPC   C2B38300   2.214  22.479   8.424
 2881POPC   C3B38301   2.370  22.356   7.988
 2881POPC   C4B38302   2.521  22.474   7.552
 2882POPC   NC338303  28.340  16.384   9.448
 2882POPC   PO438304  28.596  15.818   9.690
 2882POPC   GL138305  28.295  15.889   9.370
 2882POPC   GL238306  28.579  15.990   9.163
 2882POPC   C1A38307  28.142  15.887   8.922
 2882POPC   D2A38308  28.408  15.908   8.532
 2882POPC   C3A38309  28.351  15.858   8.090
 2882POPC   C4A38310  28.564  15.952   7.699
 2882POPC   C1B38311  28.475  16.309   8.837
 2882POPC   C2B38312  28.502  16.456   8.432
 2882POPC   C3B38313  28.469  16.365   8.009
 2882POPC   C4B38314  28.202  16.459   7.670
 2883POPC   NC338315  27.780  25.023   9.326
 2883POPC   PO438316  27.343  25.243   9.741
 2883POPC   GL138317  27.411  25.399   9.242
 2883POPC   GL238318  27.119  25.559   9.061
 2883POPC   C1A38319  27.580  25.269   8.780
 2883POPC   D2A38320  27.674  25.084   8.370
 2883POPC   C3A38321  27.788  25.399   8.090
 2883POPC   C4A38322  27.659  25.445   7.651
 2883POPC   C1B38323  27.086  25.286   8.703
 2883POPC   C2B38324  27.321  25.476   8.394
 2883POPC   C3B38325  27.300  25.236   8.063
 2883POPC   C4B38326  27.214  25.232   7.686
 2884POPC   NC338327   2.842  26.371   9.400
 2884POPC   PO438328   2.463  26.902   9.531
 2884POPC   GL138329   2.583  26.767   9.129
 2884POPC   GL238330   2.931  26.817   9.157
 2884POPC   C1A38331   2.694  26.984   8.717
 2884POPC   D2A38332   2.565  27.110   8.298
 2884POPC   C3A38333   2.831  26.924   7.988
 2884POPC   C4A38334   2.604  26.594   7.809
 2884POPC   C1B38335   3.019  26.592   8.769
 2884POPC   C2B38336   2.844  26.576   8.377
 2884POPC   C3B38337   3.032  26.441   8.039
 2884POPC   C4B38338   3.410  26.530   7.837
 2885POPC   NC338339  20.817  34.811   9.548
 2885POPC   PO438340  20.478  34.285   9.776
 2885POPC   GL138341  20.456  34.604   9.300
 2885POPC   GL238342  20.442  34.977   9.225
 2885POPC   C1A38343  20.435  34.519   8.827
 2885POPC   D2A38344  20.576  34.301   8.456
 2885POPC   C3A38345  20.370  34.287   8.037
 2885POPC   C4A38346  20.485  34.427   7.604
 2885POPC   C1B38347  20.775  34.877   8.895
 2885POPC   C2B38348  20.622  34.845   8.450
 2885POPC   C3B38349  20.626  34.748   8.002
 2885POPC   C4B38350  20.439  34.958   7.618
 2886POPC   NC338351  28.519  27.631   9.662
 2886POPC   PO438352  27.913  27.364   9.678
 2886POPC   GL138353  28.251  27.508   9.263
 2886POPC   GL238354  28.643  27.707   9.183
 2886POPC   C1A38355  28.405  27.441   8.823
 2886POPC   D2A38356  28.330  27.255   8.413
 2886POPC   C3A38357  28.649  27.282   8.108
 2886POPC   C4A38358  28.433  27.502   7.786
 2886POPC   C1B38359  28.568  27.929   8.794
 2886POPC   C2B38360  28.246  27.803   8.478
 2886POPC   C3B38361  28.190  27.889   8.054
 2886POPC   C4B38362  28.518  28.008   7.814
 2887POPC   NC338363  11.860  26.961   9.596
 2887POPC   PO438364  12.441  26.507   9.513
 2887POPC   GL138365  12.250  26.651   9.171
 2887POPC   GL238366  11.936  26.624   9.241
 2887POPC   C1A38367  12.366  26.669   8.753
 2887POPC   D2A38368  12.265  26.944   8.413
 2887POPC   C3A38369  12.308  26.755   8.012
 2887POPC   C4A38370  12.132  26.657   7.622
 2887POPC   C1B38371  11.917  26.910   8.843
 2887POPC   C2B38372  11.779  26.803   8.413
 2887POPC   C3B38373  11.797  26.939   7.929
 2887POPC   C4B38374  11.653  27.002   7.459
 2888POPC   NC338375  44.338   8.706   9.497
 2888POPC   PO438376  44.926   8.395   9.437
 2888POPC   GL138377  44.979   8.179   9.053
 2888POPC   GL238378  44.614   8.081   9.120
 2888POPC   C1A38379  44.826   7.950   8.695
 2888POPC   D2A38380  44.536   8.026   8.398
 2888POPC   C3A38381  44.803   8.005   8.079
 2888POPC   C4A38382  44.853   8.028   7.678
 2888POPC   C1B38383  44.617   8.420   8.792
 2888POPC   C2B38384  44.348   8.506   8.427
 2888POPC   C3B38385  44.465   8.375   8.001
 2888POPC   C4B38386  44.854   8.528   7.781
 2889POPC   NC338387  17.836   0.641   9.414
 2889POPC   PO438388  17.378   0.234   9.749
 2889POPC   GL138389  17.506   0.251   9.240
 2889POPC   GL238390  17.490   0.535   9.015
 2889POPC   C1A38391  17.393   0.126   8.755
 2889POPC   D2A38392  17.513   0.306   8.357
 2889POPC   C3A38393  17.248   0.222   8.006
 2889POPC   C4A38394  17.366   0.198   7.563
 2889POPC   C1B38395  17.621   0.747   8.635
 2889POPC   C2B38396  18.020   0.749   8.417
 2889POPC   C3B38397  17.912   0.690   7.987
 2889POPC   C4B38398  17.463   0.676   7.990
 2890POPC   NC338399   9.428  29.168   9.641
 2890POPC   PO438400  10.030  29.150   9.564
 2890POPC   GL138401   9.923  29.256   9.139
 2890POPC   GL238402   9.649  29.098   9.105
 2890POPC   C1A38403   9.822  29.277   8.666
 2890POPC   D2A38404   9.899  29.411   8.258
 2890POPC   C3A38405   9.632  29.226   7.948
 2890POPC   C4A38406   9.765  28.979   7.610
 2890POPC   C1B38407   9.640  28.797   8.740
 2890POPC   C2B38408   9.691  28.861   8.291
 2890POPC   C3B38409   9.412  28.764   7.919
 2890POPC   C4B38410   9.261  29.094   7.619
 2891POPC   NC338411  32.910   6.476   9.810
 2891POPC   PO438412  33.131   7.053   9.546
 2891POPC   GL138413  32.932   6.847   9.193
 2891POPC   GL238414  32.875   6.515   9.195
 2891POPC   C1A38415  32.746   6.840   8.787
 2891POPC   D2A38416  32.880   6.959   8.383
 2891POPC   C3A38417  32.695   6.929   7.998
 2891POPC   C4A38418  32.843   6.782   7.629
 2891POPC   C1B38419  32.801   6.316   8.789
 2891POPC   C2B38420  32.971   6.386   8.384
 2891POPC   C3B38421  33.113   6.560   8.000
 2891POPC   C4B38422  33.372   6.505   7.623
 2892POPC   NC338423  28.214   5.106   9.759
 2892POPC   PO438424  28.700   5.260   9.365
 2892POPC   GL138425  28.383   4.995   9.231
 2892POPC   GL238426  28.152   5.283   9.224
 2892POPC   C1A38427  28.477   4.844   8.815
 2892POPC   D2A38428  28.408   5.141   8.458
 2892POPC   C3A38429  28.466   5.016   8.040
 2892POPC   C4A38430  28.601   5.328   7.750
 2892POPC   C1B38431  28.034   5.085   8.805
 2892POPC   C2B38432  27.940   4.936   8.351
 2892POPC   C3B38433  27.963   4.997   7.887
 2892POPC   C4B38434  28.132   4.801   7.517
 2893POPC   NC338435   6.291   4.089   9.476
 2893POPC   PO438436   6.777   4.605   9.372
 2893POPC   GL138437   6.692   4.202   9.144
 2893POPC   GL238438   6.397   4.001   8.998
 2893POPC   C1A38439   6.839   4.048   8.765
 2893POPC   D2A38440   6.749   4.231   8.395
 2893POPC   C3A38441   7.010   4.157   8.093
 2893POPC   C4A38442   6.899   4.369   7.730
 2893POPC   C1B38443   6.430   4.412   8.760
 2893POPC   C2B38444   6.300   4.515   8.319
 2893POPC   C3B38445   6.414   4.451   7.879
 2893POPC   C4B38446   6.381   4.313   7.412
 2894POPC   NC338447  14.892   4.297   9.605
 2894POPC   PO438448  15.469   4.089   9.562
 2894POPC   GL138449  15.245   4.395   9.231
 2894POPC   GL238450  14.889   4.604   9.196
 2894POPC   C1A38451  15.384   4.385   8.801
 2894POPC   D2A38452  15.540   4.165   8.439
 2894POPC   C3A38453  15.454   4.339   8.026
 2894POPC   C4A38454  15.303   4.116   7.663
 2894POPC   C1B38455  14.875   4.399   8.820
 2894POPC   C2B38456  15.040   4.316   8.418
 2894POPC   C3B38457  14.955   4.150   8.042
 2894POPC   C4B38458  14.836   4.347   7.656
 2895POPC   NC338459   2.127   2.155   9.687
 2895POPC   PO438460   1.968   1.505   9.768
 2895POPC   GL138461   2.008   1.828   9.346
 2895POPC   GL238462   1.754   1.804   9.144
 2895POPC   C1A38463   2.178   2.082   8.992
 2895POPC   D2A38464   2.272   2.098   8.531
 2895POPC   C3A38465   2.304   1.838   8.135
 2895POPC   C4A38466   2.055   2.044   7.828
 2895POPC   C1B38467   1.752   1.968   8.742
 2895POPC   C2B38468   1.838   1.829   8.353
 2895POPC   C3B38469   1.635   1.817   7.989
 2895POPC   C4B38470   1.773   1.711   7.575
 2896POPC   NC338471  25.246  13.215   9.557
 2896POPC   PO438472  25.622  12.604   9.513
 2896POPC   GL138473  25.493  12.719   9.118
 2896POPC   GL238474  25.368  13.061   9.112
 2896POPC   C1A38475  25.280  12.737   8.720
 2896POPC   D2A38476  25.347  12.584   8.319
 2896POPC   C3A38477  24.990  12.510   8.105
 2896POPC   C4A38478  25.037  12.718   7.728
 2896POPC   C1B38479  25.243  13.231   8.740
 2896POPC   C2B38480  25.471  13.097   8.377
 2896POPC   C3B38481  25.401  13.010   7.945
 2896POPC   C4B38482  25.140  13.230   7.620
 2897POPC   NC338483  37.376  16.213   9.556
 2897POPC   PO438484  36.644  16.236   9.513
 2897POPC   GL138485  36.888  16.403   9.168
 2897POPC   GL238486  37.125  16.602   9.263
 2897POPC   C1A38487  36.843  16.651   8.802
 2897POPC   D2A38488  37.077  16.678   8.435
 2897POPC   C3A38489  36.921  16.757   7.988
 2897POPC   C4A38490  36.745  16.486   7.675
 2897POPC   C1B38491  37.262  16.910   8.978
 2897POPC   C2B38492  37.357  17.090   8.612
 2897POPC   C3B38493  37.234  17.118   8.190
 2897POPC   C4B38494  37.273  17.046   7.747
 2898POPC   NC338495  13.312   3.253   9.581
 2898POPC   PO438496  14.006   3.586   9.550
 2898POPC   GL138497  13.863   3.438   9.147
 2898POPC   GL238498  13.500   3.434   9.145
 2898POPC   C1A38499  13.701   3.352   8.699
 2898POPC   D2A38500  13.540   3.535   8.288
 2898POPC   C3A38501  13.693   3.359   7.899
 2898POPC   C4A38502  13.842   3.566   7.509
 2898POPC   C1B38503  13.401   3.759   8.852
 2898POPC   C2B38504  13.213   3.851   8.477
 2898POPC   C3B38505  13.105   3.773   8.059
 2898POPC   C4B38506  13.321   3.657   7.690
 2899POPC   NC338507  21.748  14.721   9.516
 2899POPC   PO438508  21.149  14.545   9.391
 2899POPC   GL138509  21.477  14.462   9.133
 2899POPC   GL238510  21.428  14.778   9.017
 2899POPC   C1A38511  21.622  14.433   8.705
 2899POPC   D2A38512  21.433  14.571   8.320
 2899POPC   C3A38513  21.431  14.307   7.968
 2899POPC   C4A38514  21.144  13.997   7.877
 2899POPC   C1B38515  21.104  14.574   8.726
 2899POPC   C2B38516  20.919  14.642   8.310
 2899POPC   C3B38517  21.012  14.584   7.859
 2899POPC   C4B38518  21.357  14.613   7.549
 2900POPC   NC338519  14.617  19.581   9.770
 2900POPC   PO438520  14.349  18.967   9.566
 2900POPC   GL138521  14.606  19.146   9.191
 2900POPC   GL238522  14.303  19.189   8.999
 2900POPC   C1A38523  14.718  19.177   8.727
 2900POPC   D2A38524  14.374  18.953   8.455
 2900POPC   C3A38525  14.432  18.892   7.990
 2900POPC   C4A38526  14.388  18.684   7.606
 2900POPC   C1B38527  13.909  19.313   8.813
 2900POPC   C2B38528  13.844  19.286   8.398
 2900POPC   C3B38529  14.075  19.268   8.055
 2900POPC   C4B38530  13.869  19.334   7.700
 2901POPC   NC338531  21.264  35.546   9.518
 2901POPC   PO438532  21.268  34.865   9.577
 2901POPC   GL138533  21.237  35.169   9.180
 2901POPC   GL238534  21.540  35.379   9.108
 2901POPC   C1A38535  21.181  35.413   8.757
 2901POPC   D2A38536  21.496  35.342   8.436
 2901POPC   C3A38537  21.347  35.405   8.019
 2901POPC   C4A38538  21.597  35.450   7.672
 2901POPC   C1B38539  21.679  35.687   8.789
 2901POPC   C2B38540  21.933  35.671   8.400
 2901POPC   C3B38541  21.820  35.799   7.973
 2901POPC   C4B38542  21.652  35.949   7.549
 2902POPC   NC338543  25.622  37.274   9.487
 2902POPC   PO438544  25.009  36.952   9.585
 2902POPC   GL138545  25.219  36.820   9.235
 2902POPC   GL238546  25.398  37.073   9.070
 2902POPC   C1A38547  25.071  36.774   8.797
 2902POPC   D2A38548  25.250  36.940   8.430
 2902POPC   C3A38549  25.214  36.741   8.048
 2902POPC   C4A38550  25.496  36.764   7.737
 2902POPC   C1B38551  25.667  37.126   8.707
 2902POPC   C2B38552  25.563  37.343   8.319
 2902POPC   C3B38553  25.307  37.258   7.909
 2902POPC   C4B38554  25.533  37.182   7.473
 2903POPC   NC338555   1.494  39.888   9.478
 2903POPC   PO438556   2.182  40.109   9.536
 2903POPC   GL138557   1.978  39.928   9.225
 2903POPC   GL238558   1.775  40.241   9.209
 2903POPC   C1A38559   2.207  39.901   8.855
 2903POPC   D2A38560   2.290  40.083   8.453
 2903POPC   C3A38561   2.078  39.957   8.084
 2903POPC   C4A38562   2.086  40.114   7.699
 2903POPC   C1B38563   1.802  40.161   8.772
 2903POPC   C2B38564   1.823  39.802   8.494
 2903POPC   C3B38565   1.594  39.726   8.114
 2903POPC   C4B38566   1.653  39.826   7.713
 2904POPC   NC338567  30.825  36.536   9.479
 2904POPC   PO438568  31.006  35.949   9.516
 2904POPC   GL138569  31.003  36.191   9.131
 2904POPC   GL238570  30.658  36.182   9.117
 2904POPC   C1A38571  30.821  36.336   8.680
 2904POPC   D2A38572  30.893  36.443   8.246
 2904POPC   C3A38573  30.843  36.161   7.925
 2904POPC   C4A38574  30.505  36.353   7.731
 2904POPC   C1B38575  30.459  35.967   8.775
 2904POPC   C2B38576  30.541  36.046   8.334
 2904POPC   C3B38577  30.413  35.889   7.933
 2904POPC   C4B38578  30.256  35.678   7.571
 2905POPC   NC338579  29.780  24.317   9.408
 2905POPC   PO438580  30.250  24.853   9.542
 2905POPC   GL138581  30.102  24.650   9.166
 2905POPC   GL238582  30.115  24.291   9.037
 2905POPC   C1A38583  29.821  24.684   8.819
 2905POPC   D2A38584  29.736  24.555   8.404
 2905POPC   C3A38585  30.120  24.397   8.194
 2905POPC   C4A38586  30.076  24.490   7.748
 2905POPC   C1B38587  29.758  24.172   8.783
 2905POPC   C2B38588  29.736  24.035   8.379
 2905POPC   C3B38589  29.711  24.210   7.987
 2905POPC   C4B38590  29.630  24.340   7.558
 2906POPC   NC338591  31.145  37.280   9.684
 2906POPC   PO438592  31.262  36.720   9.420
 2906POPC   GL138593  31.536  36.871   9.130
 2906POPC   GL238594  31.376  37.160   8.999
 2906POPC   C1A38595  31.482  36.740   8.722
 2906POPC   D2A38596  31.270  36.753   8.348
 2906POPC   C3A38597  31.529  36.653   8.019
 2906POPC   C4A38598  31.587  36.734   7.632
 2906POPC   C1B38599  31.768  37.174   8.740
 2906POPC   C2B38600  31.692  37.037   8.325
 2906POPC   C3B38601  31.683  37.140   7.916
 2906POPC   C4B38602  31.929  37.141   7.557
 2907POPC   NC338603  44.004   2.644   9.518
 2907POPC   PO438604  43.465   2.955   9.563
 2907POPC   GL138605  43.736   2.945   9.211
 2907POPC   GL238606  44.086   3.090   9.252
 2907POPC   C1A38607  43.771   2.786   8.785
 2907POPC   D2A38608  43.553   2.807   8.386
 2907POPC   C3A38609  43.631   2.447   8.091
 2907POPC   C4A38610  43.991   2.583   7.854
 2907POPC   C1B38611  44.216   3.049   8.829
 2907POPC   C2B38612  44.048   3.016   8.408
 2907POPC   C3B38613  44.234   3.007   7.996
 2907POPC   C4B38614  44.294   3.107   7.561
 2908POPC   NC338615   2.331   9.669   9.425
 2908POPC   PO438616   1.709   9.974   9.538
 2908POPC   GL138617   1.923   9.842   9.148
 2908POPC   GL238618   2.252  10.030   9.080
 2908POPC   C1A38619   1.794   9.642   8.753
 2908POPC   D2A38620   1.997   9.672   8.346
 2908POPC   C3A38621   1.811   9.778   7.950
 2908POPC   C4A38622   1.675   9.657   7.512
 2908POPC   C1B38623   2.306   9.750   8.754
 2908POPC   C2B38624   2.496   9.814   8.373
 2908POPC   C3B38625   2.314   9.861   7.969
 2908POPC   C4B38626   2.160   9.531   7.672
 2909POPC   NC338627  30.429  44.940   9.541
 2909POPC   PO438628  29.873  44.649   9.604
 2909POPC   GL138629  29.847  44.633   9.176
 2909POPC   GL238630  30.148  44.479   9.200
 2909POPC   C1A38631  29.860  44.363   8.775
 2909POPC   D2A38632  29.722  44.266   8.329
 2909POPC   C3A38633  29.836  44.590   7.997
 2909POPC   C4A38634  29.673  44.936   7.745
 2909POPC   C1B38635  30.220  44.755   8.849
 2909POPC   C2B38636  30.199  44.610   8.427
 2909POPC   C3B38637  30.351  44.704   8.033
 2909POPC   C4B38638  30.179  44.887   7.687
 2910POPC   NC338639  15.422  34.928   9.857
 2910POPC   PO438640  15.132  34.429   9.571
 2910POPC   GL138641  15.116  34.368   9.161
 2910POPC   GL238642  15.415  34.572   9.147
 2910POPC   C1A38643  14.942  34.559   8.768
 2910POPC   D2A38644  15.038  34.559   8.344
 2910POPC   C3A38645  14.791  34.562   8.013
 2910POPC   C4A38646  15.030  34.601   7.640
 2910POPC   C1B38647  15.422  34.396   8.750
 2910POPC   C2B38648  15.493  34.714   8.445
 2910POPC   C3B38649  15.434  34.738   8.004
 2910POPC   C4B38650  15.545  34.502   7.657
 2911POPC   NC338651  38.800   1.118   9.489
 2911POPC   PO438652  39.421   1.395   9.492
 2911POPC   GL138653  39.363   1.180   9.105
 2911POPC   GL238654  39.011   1.214   9.046
 2911POPC   C1A38655  39.333   1.151   8.661
 2911POPC   D2A38656  39.181   1.092   8.281
 2911POPC   C3A38657  39.305   1.177   7.893
 2911POPC   C4A38658  39.251   0.973   7.511
 2911POPC   C1B38659  38.861   1.398   8.682
 2911POPC   C2B38660  38.705   1.239   8.312
 2911POPC   C3B38661  38.805   1.363   7.904
 2911POPC   C4B38662  38.734   1.124   7.553
 2912POPC   NC338663  14.309  41.984   9.431
 2912POPC   PO438664  14.258  42.639   9.662
 2912POPC   GL138665  14.363  42.443   9.242
 2912POPC   GL238666  14.153  42.177   9.007
 2912POPC   C1A38667  14.520  42.488   8.837
 2912POPC   D2A38668  14.300  42.431   8.457
 2912POPC   C3A38669  14.302  42.631   8.027
 2912POPC   C4A38670  14.722  42.540   7.844
 2912POPC   C1B38671  14.474  41.994   8.804
 2912POPC   C2B38672  14.605  41.963   8.447
 2912POPC   C3B38673  14.481  42.149   8.076
 2912POPC   C4B38674  14.501  42.060   7.655
 2913POPC   NC338675  25.922  14.410   9.693
 2913POPC   PO438676  26.298  14.083   9.241
 2913POPC   GL138677  26.052  14.399   9.054
 2913POPC   GL238678  25.780  14.574   9.221
 2913POPC   C1A38679  26.046  14.353   8.622
 2913POPC   D2A38680  26.261  14.111   8.317
 2913POPC   C3A38681  26.059  14.181   7.942
 2913POPC   C4A38682  26.124  14.374   7.556
 2913POPC   C1B38683  25.592  14.478   8.816
 2913POPC   C2B38684  25.689  14.598   8.363
 2913POPC   C3B38685  25.787  14.629   7.926
 2913POPC   C4B38686  26.164  14.847   7.832
 2914POPC   NC338687  24.941   3.351   9.402
 2914POPC   PO438688  25.567   3.120   9.579
 2914POPC   GL138689  25.399   3.164   9.164
 2914POPC   GL238690  25.374   3.508   9.146
 2914POPC   C1A38691  25.153   3.231   8.759
 2914POPC   D2A38692  25.120   3.572   8.404
 2914POPC   C3A38693  25.117   3.453   7.934
 2914POPC   C4A38694  25.248   3.340   7.467
 2914POPC   C1B38695  25.586   3.792   8.859
 2914POPC   C2B38696  25.468   3.980   8.482
 2914POPC   C3B38697  25.466   3.823   8.066
 2914POPC   C4B38698  25.780   3.837   7.766
 2915POPC   NC338699  41.283  31.859   9.615
 2915POPC   PO438700  41.589  31.389   9.339
 2915POPC   GL138701  41.670  31.589   8.984
 2915POPC   GL238702  41.320  31.656   8.934
 2915POPC   C1A38703  41.677  31.675   8.573
 2915POPC   D2A38704  41.572  31.565   8.199
 2915POPC   C3A38705  41.848  31.323   7.956
 2915POPC   C4A38706  41.793  31.316   7.489
 2915POPC   C1B38707  41.419  31.221   8.700
 2915POPC   C2B38708  41.382  31.098   8.249
 2915POPC   C3B38709  41.209  31.334   7.886
 2915POPC   C4B38710  41.195  31.261   7.440
 2916POPC   NC338711   4.728  38.335   9.630
 2916POPC   PO438712   5.244  38.780   9.717
 2916POPC   GL138713   5.261  38.502   9.330
 2916POPC   GL238714   5.086  38.176   9.258
 2916POPC   C1A38715   5.300  38.609   8.884
 2916POPC   D2A38716   5.204  38.494   8.491
 2916POPC   C3A38717   5.225  38.702   8.109
 2916POPC   C4A38718   5.402  38.532   7.794
 2916POPC   C1B38719   5.154  38.073   8.822
 2916POPC   C2B38720   4.940  38.052   8.413
 2916POPC   C3B38721   5.047  38.074   8.000
 2916POPC   C4B38722   4.699  38.021   7.690
 2917POPC   NC338723  28.898  11.430   9.397
 2917POPC   PO438724  29.417  11.196   9.674
 2917POPC   GL138725  29.347  11.195   9.220
 2917POPC   GL238726  29.455  10.879   9.072
 2917POPC   C1A38727  29.111  11.272   8.827
 2917POPC   D2A38728  29.235  11.317   8.396
 2917POPC   C3A38729  28.979  11.390   8.054
 2917POPC   C4A38730  29.028  11.471   7.620
 2917POPC   C1B38731  29.311  10.853   8.640
 2917POPC   C2B38732  29.546  10.900   8.264
 2917POPC   C3B38733  29.443  11.180   7.909
 2917POPC   C4B38734  29.483  11.316   7.458
 2918POPC   NC338735  33.487   9.070   9.416
 2918POPC   PO438736  32.821   9.177   9.508
 2918POPC   GL138737  33.015   9.045   9.159
 2918POPC   GL238738  32.967   9.383   9.039
 2918POPC   C1A38739  33.255   8.880   8.790
 2918POPC   D2A38740  33.202   8.583   8.457
 2918POPC   C3A38741  33.281   8.729   8.038
 2918POPC   C4A38742  33.202   9.091   7.778
 2918POPC   C1B38743  32.782   9.123   8.725
 2918POPC   C2B38744  32.899   8.965   8.342
 2918POPC   C3B38745  32.698   8.875   7.985
 2918POPC   C4B38746  32.699   9.197   7.673
 2919POPC   NC338747  13.721  39.530   9.329
 2919POPC   PO438748  13.476  40.063   9.745
 2919POPC   GL138749  13.553  40.068   9.316
 2919POPC   GL238750  13.923  40.069   9.325
 2919POPC   C1A38751  13.395  39.974   8.897
 2919POPC   D2A38752  13.603  39.987   8.486
 2919POPC   C3A38753  13.485  39.896   8.048
 2919POPC   C4A38754  13.611  39.772   7.620
 2919POPC   C1B38755  13.878  40.169   8.896
 2919POPC   C2B38756  13.852  40.443   8.544
 2919POPC   C3B38757  13.918  40.240   8.166
 2919POPC   C4B38758  13.804  40.274   7.769
 2920POPC   NC338759  44.231  23.475   9.544
 2920POPC   PO438760  44.667  24.043   9.616
 2920POPC   GL138761  44.757  23.753   9.270
 2920POPC   GL238762  44.596  23.432   9.189
 2920POPC   C1A38763  44.916  23.715   8.864
 2920POPC   D2A38764  44.707  23.941   8.516
 2920POPC   C3A38765  44.873  23.911   8.100
 2920POPC   C4A38766  44.864  23.702   7.698
 2920POPC   C1B38767  44.508  23.441   8.743
 2920POPC   C2B38768  44.605  23.463   8.321
 2920POPC   C3B38769  44.436  23.689   7.974
 2920POPC   C4B38770  44.389  23.688   7.508
 2921POPC   NC338771  43.712  29.387   9.531
 2921POPC   PO438772  44.040  28.819   9.554
 2921POPC   GL138773  43.936  29.038   9.206
 2921POPC   GL238774  44.165  29.310   9.284
 2921POPC   C1A38775  43.766  29.058   8.788
 2921POPC   D2A38776  43.852  28.832   8.389
 2921POPC   C3A38777  43.698  28.978   7.971
 2921POPC   C4A38778  43.579  28.770   7.579
 2921POPC   C1B38779  44.251  29.279   8.874
 2921POPC   C2B38780  44.120  29.276   8.484
 2921POPC   C3B38781  44.203  29.183   8.083
 2921POPC   C4B38782  44.025  29.381   7.733
 2922POPC   NC338783  44.801   9.577   9.361
 2922POPC   PO438784  44.450  10.062   9.633
 2922POPC   GL138785  44.397   9.827   9.173
 2922POPC   GL238786  44.675   9.884   8.948
 2922POPC   C1A38787  44.509   9.446   8.788
 2922POPC   D2A38788  44.723   9.332   8.352
 2922POPC   C3A38789  44.626   9.687   8.068
 2922POPC   C4A38790  44.523  10.049   7.809
 2922POPC   C1B38791   0.026   9.874   8.678
 2922POPC   C2B38792   0.140  10.020   8.266
 2922POPC   C3B38793   0.047   9.925   7.848
 2922POPC   C4B38794  44.930   9.550   7.682
 2923POPC   NC338795  21.547  25.180   9.757
 2923POPC   PO438796  21.038  25.469   9.539
 2923POPC   GL138797  21.323  25.186   9.286
 2923POPC   GL238798  21.692  25.109   9.267
 2923POPC   C1A38799  21.333  24.900   8.960
 2923POPC   D2A38800  21.337  24.817   8.531
 2923POPC   C3A38801  21.270  25.047   8.165
 2923POPC   C4A38802  21.173  25.413   7.930
 2923POPC   C1B38803  21.632  25.284   8.830
 2923POPC   C2B38804  21.731  25.152   8.400
 2923POPC   C3B38805  21.674  25.343   7.983
 2923POPC   C4B38806  21.817  25.276   7.556
 2924POPC   NC338807  36.048  15.314   9.555
 2924POPC   PO438808  35.939  14.702   9.431
 2924POPC   GL138809  36.200  15.037   9.144
 2924POPC   GL238810  36.229  15.450   9.112
 2924POPC   C1A38811  36.290  15.148   8.718
 2924POPC   D2A38812  36.190  15.234   8.298
 2924POPC   C3A38813  36.098  14.969   7.972
 2924POPC   C4A38814  35.869  14.815   7.661
 2924POPC   C1B38815  35.858  15.418   8.822
 2924POPC   C2B38816  35.695  15.397   8.389
 2924POPC   C3B38817  35.877  15.467   7.983
 2924POPC   C4B38818  36.245  15.398   7.754
 2925POPC   NC338819  37.060  11.561   9.526
 2925POPC   PO438820  37.117  10.886   9.617
 2925POPC   GL138821  36.817  11.084   9.286
 2925POPC   GL238822  36.623  11.417   9.282
 2925POPC   C1A38823  36.925  11.290   8.884
 2925POPC   D2A38824  37.183  11.472   8.549
 2925POPC   C3A38825  37.063  11.365   8.139
 2925POPC   C4A38826  37.199  11.299   7.734
 2925POPC   C1B38827  36.539  11.607   8.874
 2925POPC   C2B38828  36.694  11.545   8.457
 2925POPC   C3B38829  36.634  11.603   8.012
 2925POPC   C4B38830  36.691  11.290   7.712
 2926POPC   NC338831  31.212  29.098   9.528
 2926POPC   PO438832  31.867  29.280   9.417
 2926POPC   GL138833  31.555  29.202   9.133
 2926POPC   GL238834  31.559  28.827   9.240
 2926POPC   C1A38835  31.641  29.309   8.686
 2926POPC   D2A38836  31.841  29.102   8.327
 2926POPC   C3A38837  31.807  29.363   7.970
 2926POPC   C4A38838  31.425  29.433   7.762
 2926POPC   C1B38839  31.567  28.830   8.791
 2926POPC   C2B38840  31.314  28.670   8.503
 2926POPC   C3B38841  31.332  28.653   8.092
 2926POPC   C4B38842  31.584  28.900   7.850
 2927POPC   NC338843  29.868  12.830   9.564
 2927POPC   PO438844  30.547  12.867   9.641
 2927POPC   GL138845  30.299  12.906   9.250
 2927POPC   GL238846  30.137  12.607   9.162
 2927POPC   C1A38847  30.164  12.994   8.824
 2927POPC   D2A38848  29.797  13.111   8.588
 2927POPC   C3A38849  29.863  13.017   8.159
 2927POPC   C4A38850  29.875  12.906   7.711
 2927POPC   C1B38851  29.726  12.679   8.923
 2927POPC   C2B38852  29.636  12.619   8.480
 2927POPC   C3B38853  29.660  12.541   8.040
 2927POPC   C4B38854  29.910  12.405   7.714
 2928POPC   NC338855  11.616  22.233   9.552
 2928POPC   PO438856  10.983  22.158   9.421
 2928POPC   GL138857  11.255  22.183   9.141
 2928POPC   GL238858  10.977  22.072   8.931
 2928POPC   C1A38859  11.533  22.248   8.826
 2928POPC   D2A38860  11.426  22.076   8.451
 2928POPC   C3A38861  11.682  22.045   8.090
 2928POPC   C4A38862  11.492  22.017   7.706
 2928POPC   C1B38863  10.909  22.028   8.541
 2928POPC   C2B38864  11.012  22.409   8.377
 2928POPC   C3B38865  11.242  22.340   8.035
 2928POPC   C4B38866  11.186  22.475   7.659
 2929POPC   NC338867   1.785   1.076   9.726
 2929POPC   PO438868   2.334   1.470   9.286
 2929POPC   GL138869   2.196   1.568   8.929
 2929POPC   GL238870   1.926   1.333   8.841
 2929POPC   C1A38871   2.264   1.526   8.524
 2929POPC   D2A38872   1.944   1.312   8.323
 2929POPC   C3A38873   1.949   1.386   7.902
 2929POPC   C4A38874   2.140   1.374   7.465
 2929POPC   C1B38875   1.545   1.065   8.818
 2929POPC   C2B38876   1.390   0.973   8.412
 2929POPC   C3B38877   1.696   0.947   8.082
 2929POPC   C4B38878   1.731   0.997   7.639
 2930POPC   NC338879   0.090  32.051   9.469
 2930POPC   PO438880  44.406  31.927   9.565
 2930POPC   GL138881  44.539  32.164   9.211
 2930POPC   GL238882  44.239  32.315   9.053
 2930POPC   C1A38883  44.719  32.404   8.869
 2930POPC   D2A38884  44.612  32.290   8.468
 2930POPC   C3A38885  44.842  32.485   8.162
 2930POPC   C4A38886  44.775  32.507   7.753
 2930POPC   C1B38887  44.340  31.947   8.762
 2930POPC   C2B38888  44.344  31.876   8.306
 2930POPC   C3B38889  44.429  32.165   7.989
 2930POPC   C4B38890  44.504  32.107   7.574
 2931POPC   NC338891  40.675  36.745   9.578
 2931POPC   PO438892  40.607  37.337   9.282
 2931POPC   GL138893  40.797  37.018   9.138
 2931POPC   GL238894  40.641  36.704   9.058
 2931POPC   C1A38895  40.964  37.001   8.743
 2931POPC   D2A38896  40.989  36.777   8.369
 2931POPC   C3A38897  41.169  36.986   8.062
 2931POPC   C4A38898  40.926  36.823   7.762
 2931POPC   C1B38899  40.440  37.029   8.767
 2931POPC   C2B38900  40.565  37.238   8.407
 2931POPC   C3B38901  40.563  36.973   8.068
 2931POPC   C4B38902  40.465  37.005   7.627
 2932POPC   NC338903  37.226  23.305   9.598
 2932POPC   PO438904  36.690  22.864   9.554
 2932POPC   GL138905  36.890  22.917   9.180
 2932POPC   GL238906  37.233  23.009   9.188
 2932POPC   C1A38907  36.978  22.933   8.753
 2932POPC   D2A38908  36.789  22.949   8.401
 2932POPC   C3A38909  36.996  22.793   8.102
 2932POPC   C4A38910  36.939  22.997   7.735
 2932POPC   C1B38911  37.397  23.236   8.826
 2932POPC   C2B38912  37.321  23.087   8.396
 2932POPC   C3B38913  37.412  23.147   7.954
 2932POPC   C4B38914  37.329  23.253   7.519
 2933POPC   NC338915  24.222  32.525   9.559
 2933POPC   PO438916  24.452  31.874   9.515
 2933POPC   GL138917  24.577  32.195   9.192
 2933POPC   GL238918  24.321  32.388   9.071
 2933POPC   C1A38919  24.698  32.226   8.757
 2933POPC   D2A38920  24.408  32.362   8.416
 2933POPC   C3A38921  24.681  32.269   8.117
 2933POPC   C4A38922  24.703  32.089   7.751
 2933POPC   C1B38923  24.499  32.689   8.783
 2933POPC   C2B38924  24.448  32.935   8.448
 2933POPC   C3B38925  24.448  32.739   8.046
 2933POPC   C4B38926  24.223  32.353   7.896
 2934POPC   NC338927   0.021  33.714   9.485
 2934POPC   PO438928  44.334  33.776   9.568
 2934POPC   GL138929  44.666  34.015   9.220
 2934POPC   GL238930   0.003  33.873   9.008
 2934POPC   C1A38931  44.573  33.952   8.749
 2934POPC   D2A38932  44.663  33.777   8.325
 2934POPC   C3A38933  44.444  33.902   7.991
 2934POPC   C4A38934  44.430  34.071   7.600
 2934POPC   C1B38935   0.024  34.194   8.673
 2934POPC   C2B38936  44.830  34.271   8.267
 2934POPC   C3B38937  44.918  34.235   7.812
 2934POPC   C4B38938  44.879  34.212   7.351
 2935POPC   NC338939  27.549  22.465   9.514
 2935POPC   PO438940  27.851  21.828   9.511
 2935POPC   GL138941  27.712  22.126   9.153
 2935POPC   GL238942  27.377  22.063   9.142
 2935POPC   C1A38943  27.497  22.355   8.765
 2935POPC   D2A38944  27.466  22.631   8.433
 2935POPC   C3A38945  27.364  22.370   8.092
 2935POPC   C4A38946  27.550  22.229   7.733
 2935POPC   C1B38947  27.492  21.845   8.774
 2935POPC   C2B38948  27.665  21.974   8.360
 2935POPC   C3B38949  27.929  21.942   7.962
 2935POPC   C4B38950  27.757  21.819   7.538
 2936POPC   NC338951  37.335  38.871   9.569
 2936POPC   PO438952  37.324  38.201   9.633
 2936POPC   GL138953  37.583  38.254   9.226
 2936POPC   GL238954  37.753  38.571   9.163
 2936POPC   C1A38955  37.747  38.203   8.790
 2936POPC   D2A38956  37.890  38.304   8.363
 2936POPC   C3A38957  37.652  38.167   8.024
 2936POPC   C4A38958  37.796  38.241   7.626
 2936POPC   C1B38959  37.508  38.665   8.796
 2936POPC   C2B38960  37.577  38.723   8.349
 2936POPC   C3B38961  37.682  38.676   7.895
 2936POPC   C4B38962  37.640  38.757   7.416
 2937POPC   NC338963  40.662  28.861   9.401
 2937POPC   PO438964  40.569  28.148   9.487
 2937POPC   GL138965  40.714  28.260   9.090
 2937POPC   GL238966  40.968  28.503   9.143
 2937POPC   C1A38967  40.766  28.219   8.637
 2937POPC   D2A38968  40.587  28.130   8.257
 2937POPC   C3A38969  40.679  28.355   7.849
 2937POPC   C4A38970  40.459  28.228   7.443
 2937POPC   C1B38971  40.761  28.709   8.776
 2937POPC   C2B38972  40.612  28.626   8.360
 2937POPC   C3B38973  40.640  28.857   7.994
 2937POPC   C4B38974  41.002  28.846   7.766
 2938POPC   NC338975  17.215  24.317   9.327
 2938POPC   PO438976  16.513  24.592   9.475
 2938POPC   GL138977  16.556  24.485   9.073
 2938POPC   GL238978  16.900  24.600   9.047
 2938POPC   C1A38979  16.582  24.554   8.649
 2938POPC   D2A38980  16.763  24.405   8.283
 2938POPC   C3A38981  16.519  24.450   7.934
 2938POPC   C4A38982  16.346  24.458   7.519
 2938POPC   C1B38983  17.024  24.273   8.707
 2938POPC   C2B38984  17.229  24.170   8.295
 2938POPC   C3B38985  17.109  24.150   7.853
 2938POPC   C4B38986  16.818  24.314   7.560
 2939POPC   NC338987   7.740  18.414   9.524
 2939POPC   PO438988   7.359  17.903   9.427
 2939POPC   GL138989   7.460  18.189   9.135
 2939POPC   GL238990   7.788  18.110   9.117
 2939POPC   C1A38991   7.240  18.320   8.781
 2939POPC   D2A38992   7.396  18.260   8.385
 2939POPC   C3A38993   7.245  18.423   8.076
 2939POPC   C4A38994   7.386  18.414   7.691
 2939POPC   C1B38995   7.775  18.154   8.711
 2939POPC   C2B38996   7.898  18.265   8.325
 2939POPC   C3B38997   7.712  18.124   7.963
 2939POPC   C4B38998   7.685  17.789   7.628
 2940POPC   NC338999   8.960  28.289   9.551
 2940POPC   PO439000   9.348  28.801   9.365
 2940POPC   GL139001   9.163  28.481   9.107
 2940POPC   GL239002   8.909  28.201   9.066
 2940POPC   C1A39003   9.138  28.452   8.684
 2940POPC   D2A39004   9.086  28.228   8.330
 2940POPC   C3A39005   8.995  28.410   7.957
 2940POPC   C4A39006   9.163  28.251   7.582
 2940POPC   C1B39007   8.698  28.166   8.675
 2940POPC   C2B39008   8.591  28.326   8.263
 2940POPC   C3B39009   8.453  28.192   7.889
 2940POPC   C4B39010   8.389  27.894   7.569
 2941POPC   NC339011  34.456  17.151   9.469
 2941POPC   PO439012  34.184  16.437   9.418
 2941POPC   GL139013  34.532  16.659   9.156
 2941POPC   GL239014  34.393  16.971   9.010
 2941POPC   C1A39015  34.725  16.738   8.712
 2941POPC   D2A39016  34.674  16.686   8.264
 2941POPC   C3A39017  34.881  16.923   7.917
 2941POPC   C4A39018  34.767  17.086   7.497
 2941POPC   C1B39019  34.196  16.670   8.759
 2941POPC   C2B39020  34.169  16.570   8.338
 2941POPC   C3B39021  34.256  16.870   7.987
 2941POPC   C4B39022  34.249  16.891   7.525
 2942POPC   NC339023  21.383   1.614   9.250
 2942POPC   PO439024  20.941   2.082   9.534
 2942POPC   GL139025  21.111   2.023   9.146
 2942POPC   GL239026  21.444   2.096   9.054
 2942POPC   C1A39027  21.016   2.037   8.752
 2942POPC   D2A39028  21.182   2.192   8.392
 2942POPC   C3A39029  21.110   1.977   8.035
 2942POPC   C4A39030  21.110   2.175   7.651
 2942POPC   C1B39031  21.496   1.902   8.658
 2942POPC   C2B39032  21.603   1.919   8.239
 2942POPC   C3B39033  21.611   2.034   7.825
 2942POPC   C4B39034  21.567   1.981   7.414
 2943POPC   NC339035   2.599  14.499   9.572
 2943POPC   PO439036   3.160  14.872   9.483
 2943POPC   GL139037   2.890  14.588   9.147
 2943POPC   GL239038   2.499  14.455   9.081
 2943POPC   C1A39039   2.754  14.641   8.686
 2943POPC   D2A39040   2.574  14.986   8.413
 2943POPC   C3A39041   2.490  14.713   8.077
 2943POPC   C4A39042   2.816  14.448   7.919
 2943POPC   C1B39043   2.583  14.125   8.738
 2943POPC   C2B39044   2.721  14.060   8.279
 2943POPC   C3B39045   2.520  14.027   7.847
 2943POPC   C4B39046   2.413  13.873   7.384
 2944POPC   NC339047  44.359  24.326   9.332
 2944POPC   PO439048  44.732  24.682   9.789
 2944POPC   GL139049  44.761  24.660   9.263
 2944POPC   GL239050  44.767  24.330   9.058
 2944POPC   C1A39051  44.526  24.712   8.791
 2944POPC   D2A39052  44.303  24.587   8.439
 2944POPC   C3A39053  44.519  24.615   8.072
 2944POPC   C4A39054  44.646  24.265   7.793
 2944POPC   C1B39055   0.013  24.652   8.806
 2944POPC   C2B39056  44.877  24.788   8.409
 2944POPC   C3B39057   0.004  24.708   7.992
 2944POPC   C4B39058   0.044  24.529   7.583
 2945POPC   NC339059  15.012  30.444   9.695
 2945POPC   PO439060  14.691  30.967   9.523
 2945POPC   GL139061  14.971  30.722   9.210
 2945POPC   GL239062  15.097  30.990   8.971
 2945POPC   C1A39063  15.242  30.510   8.865
 2945POPC   D2A39064  15.419  30.465   8.418
 2945POPC   C3A39065  15.317  30.625   7.997
 2945POPC   C4A39066  15.250  30.484   7.547
 2945POPC   C1B39067  14.926  30.796   8.573
 2945POPC   C2B39068  14.865  30.877   8.106
 2945POPC   C3B39069  15.008  30.941   7.659
 2945POPC   C4B39070  14.902  31.023   7.191
 2946POPC   NC339071  37.534   1.665   9.298
 2946POPC   PO439072  37.730   1.160   9.584
 2946POPC   GL139073  37.905   1.192   9.177
 2946POPC   GL239074  37.576   1.223   9.055
 2946POPC   C1A39075  37.900   0.962   8.768
 2946POPC   D2A39076  37.975   1.081   8.360
 2946POPC   C3A39077  37.764   1.000   7.994
 2946POPC   C4A39078  37.894   1.229   7.655
 2946POPC   C1B39079  37.383   1.251   8.656
 2946POPC   C2B39080  37.389   1.289   8.222
 2946POPC   C3B39081  37.387   1.220   7.743
 2946POPC   C4B39082  37.556   1.043   7.328
 2947POPC   NC339083  35.850  31.258   9.559
 2947POPC   PO439084  36.328  31.791   9.562
 2947POPC   GL139085  36.221  31.480   9.234
 2947POPC   GL239086  35.833  31.451   9.098
 2947POPC   C1A39087  36.450  31.359   8.869
 2947POPC   D2A39088  36.288  31.509   8.491
 2947POPC   C3A39089  36.413  31.489   8.079
 2947POPC   C4A39090  36.330  31.463   7.684
 2947POPC   C1B39091  35.965  31.224   8.772
 2947POPC   C2B39092  36.080  31.075   8.384
 2947POPC   C3B39093  35.932  31.369   8.111
 2947POPC   C4B39094  35.804  31.435   7.734
 2948POPC   NC339095  38.760  34.502   9.482
 2948POPC   PO439096  38.236  34.941   9.496
 2948POPC   GL139097  38.208  34.670   9.126
 2948POPC   GL239098  38.481  34.391   9.087
 2948POPC   C1A39099  38.374  34.678   8.700
 2948POPC   D2A39100  38.359  34.417   8.353
 2948POPC   C3A39101  38.525  34.615   8.026
 2948POPC   C4A39102  38.125  34.662   7.880
 2948POPC   C1B39103  38.701  34.248   8.704
 2948POPC   C2B39104  38.751  34.108   8.248
 2948POPC   C3B39105  38.803  34.232   7.797
 2948POPC   C4B39106  38.602  34.187   7.388
 2949POPC   NC339107  43.993  42.783   9.432
 2949POPC   PO439108  44.079  43.431   9.551
 2949POPC   GL139109  43.987  43.215   9.153
 2949POPC   GL239110  44.178  42.962   9.016
 2949POPC   C1A39111  43.723  43.086   8.785
 2949POPC   D2A39112  43.575  43.163   8.387
 2949POPC   C3A39113  43.724  43.038   8.006
 2949POPC   C4A39114  43.720  43.280   7.624
 2949POPC   C1B39115  44.084  42.747   8.693
 2949POPC   C2B39116  43.828  42.695   8.416
 2949POPC   C3B39117  44.106  42.500   8.167
 2949POPC   C4B39118  44.136  42.541   7.741
 2950POPC   NC339119  42.964  38.827   9.563
 2950POPC   PO439120  43.285  39.366   9.380
 2950POPC   GL139121  42.984  39.152   9.161
 2950POPC   GL239122  42.735  39.368   9.207
 2950POPC   C1A39123  43.010  39.076   8.758
 2950POPC   D2A39124  43.237  39.136   8.403
 2950POPC   C3A39125  43.003  39.120   8.016
 2950POPC   C4A39126  43.126  39.131   7.609
 2950POPC   C1B39127  42.712  39.519   8.778
 2950POPC   C2B39128  42.849  39.467   8.377
 2950POPC   C3B39129  42.751  39.603   7.976
 2950POPC   C4B39130  42.840  39.544   7.540
 2951POPC   NC339131  23.295  10.373   9.303
 2951POPC   PO439132  23.897  10.582   9.604
 2951POPC   GL139133  23.694  10.689   9.172
 2951POPC   GL239134  23.380  10.877   9.056
 2951POPC   C1A39135  23.609  10.526   8.734
 2951POPC   D2A39136  23.472  10.172   8.463
 2951POPC   C3A39137  23.664  10.233   8.066
 2951POPC   C4A39138  23.875  10.435   7.686
 2951POPC   C1B39139  23.502  11.042   8.661
 2951POPC   C2B39140  23.676  10.876   8.301
 2951POPC   C3B39141  23.508  10.700   7.951
 2951POPC   C4B39142  23.571  10.836   7.577
 2952POPC   NC339143   4.452  37.597   9.584
 2952POPC   PO439144   3.926  38.026   9.538
 2952POPC   GL139145   4.127  37.816   9.189
 2952POPC   GL239146   4.369  37.525   9.104
 2952POPC   C1A39147   4.112  37.814   8.746
 2952POPC   D2A39148   4.398  37.854   8.425
 2952POPC   C3A39149   4.173  37.801   8.066
 2952POPC   C4A39150   4.300  37.701   7.677
 2952POPC   C1B39151   4.407  37.408   8.690
 2952POPC   C2B39152   4.124  37.391   8.385
 2952POPC   C3B39153   4.250  37.298   7.996
 2952POPC   C4B39154   4.181  37.185   7.582
 2953POPC   NC339155   9.719  13.358   9.828
 2953POPC   PO439156   9.999  13.453   9.298
 2953POPC   GL139157   9.690  13.619   9.044
 2953POPC   GL239158   9.953  13.840   8.919
 2953POPC   C1A39159   9.512  13.731   8.624
 2953POPC   D2A39160   9.253  13.816   8.260
 2953POPC   C3A39161   9.423  13.493   8.030
 2953POPC   C4A39162   9.688  13.472   7.670
 2953POPC   C1B39163   9.978  13.511   8.634
 2953POPC   C2B39164   9.881  13.562   8.238
 2953POPC   C3B39165  10.115  13.743   7.912
 2953POPC   C4B39166  10.142  13.701   7.472
 2954POPC   NC339167  15.061  10.509   9.458
 2954POPC   PO439168  15.582  10.886   9.525
 2954POPC   GL139169  15.310  10.803   9.112
 2954POPC   GL239170  15.164  10.446   8.976
 2954POPC   C1A39171  15.065  10.826   8.691
 2954POPC   D2A39172  14.980  10.460   8.422
 2954POPC   C3A39173  15.061  10.662   8.028
 2954POPC   C4A39174  15.446  10.821   7.829
 2954POPC   C1B39175  15.382  10.182   8.686
 2954POPC   C2B39176  15.343   9.993   8.296
 2954POPC   C3B39177  15.171  10.165   7.926
 2954POPC   C4B39178  15.352  10.355   7.596
 2955POPC   NC339179  19.310  24.736   9.177
 2955POPC   PO439180  19.175  24.140   9.430
 2955POPC   GL139181  18.954  24.309   9.064
 2955POPC   GL239182  18.773  24.610   9.153
 2955POPC   C1A39183  18.998  24.495   8.630
 2955POPC   D2A39184  19.335  24.680   8.340
 2955POPC   C3A39185  19.315  24.573   7.901
 2955POPC   C4A39186  18.899  24.502   7.656
 2955POPC   C1B39187  18.582  24.844   8.828
 2955POPC   C2B39188  18.552  24.739   8.405
 2955POPC   C3B39189  18.863  24.806   8.081
 2955POPC   C4B39190  18.725  24.983   7.683
 2956POPC   NC339191  19.046  30.396   9.559
 2956POPC   PO439192  19.020  31.116   9.648
 2956POPC   GL139193  19.206  30.942   9.246
 2956POPC   GL239194  19.051  30.643   9.096
 2956POPC   C1A39195  19.310  30.949   8.776
 2956POPC   D2A39196  19.084  30.849   8.406
 2956POPC   C3A39197  19.290  30.975   8.046
 2956POPC   C4A39198  19.063  30.882   7.693
 2956POPC   C1B39199  19.086  30.395   8.685
 2956POPC   C2B39200  18.846  30.269   8.313
 2956POPC   C3B39201  18.901  30.427   7.874
 2956POPC   C4B39202  19.121  30.388   7.467
 2957POPC   NC339203  13.059  16.423   9.910
 2957POPC   PO439204  12.758  16.020   9.434
 2957POPC   GL139205  12.728  16.076   9.003
 2957POPC   GL239206  12.466  15.874   8.927
 2957POPC   C1A39207  12.859  16.125   8.562
 2957POPC   D2A39208  12.844  15.855   8.215
 2957POPC   C3A39209  12.980  15.935   7.813
 2957POPC   C4A39210  12.791  16.088   7.454
 2957POPC   C1B39211  12.722  15.614   8.664
 2957POPC   C2B39212  12.749  15.366   8.283
 2957POPC   C3B39213  12.564  15.552   7.902
 2957POPC   C4B39214  12.730  15.532   7.505
 2958POPC   NC339215   5.589  17.831   9.761
 2958POPC   PO439216   5.115  17.375   9.455
 2958POPC   GL139217   4.996  17.525   9.068
 2958POPC   GL239218   5.225  17.403   8.873
 2958POPC   C1A39219   4.720  17.657   8.743
 2958POPC   D2A39220   4.645  17.904   8.353
 2958POPC   C3A39221   4.694  17.680   7.931
 2958POPC   C4A39222   4.636  17.637   7.426
 2958POPC   C1B39223   5.231  17.764   8.659
 2958POPC   C2B39224   5.112  17.707   8.264
 2958POPC   C3B39225   5.188  17.816   7.872
 2958POPC   C4B39226   5.058  17.474   7.647
 2959POPC   NC339227  19.173  37.179   9.546
 2959POPC   PO439228  19.517  36.568   9.617
 2959POPC   GL139229  19.172  36.701   9.361
 2959POPC   GL239230  19.229  36.467   9.150
 2959POPC   C1A39231  19.016  36.883   8.944
 2959POPC   D2A39232  19.064  37.031   8.528
 2959POPC   C3A39233  18.771  37.052   8.187
 2959POPC   C4A39234  18.968  37.065   7.772
 2959POPC   C1B39235  18.876  36.401   8.857
 2959POPC   C2B39236  18.749  36.586   8.459
 2959POPC   C3B39237  18.986  36.613   8.095
 2959POPC   C4B39238  19.029  36.484   7.716
 2960POPC   NC339239  25.079   8.477   9.419
 2960POPC   PO439240  25.291   7.886   9.625
 2960POPC   GL139241  25.425   8.128   9.258
 2960POPC   GL239242  25.222   8.071   9.106
 2960POPC   C1A39243  25.598   8.362   8.843
 2960POPC   D2A39244  25.492   8.511   8.410
 2960POPC   C3A39245  25.447   8.387   7.958
 2960POPC   C4A39246  25.063   8.463   7.644
 2960POPC   C1B39247  25.133   8.169   8.708
 2960POPC   C2B39248  25.236   8.064   8.323
 2960POPC   C3B39249  25.057   8.055   7.948
 2960POPC   C4B39250  25.301   8.010   7.617
 2961POPC   NC339251  20.236  29.677   9.613
 2961POPC   PO439252  19.621  29.994   9.675
 2961POPC   GL139253  19.714  29.877   9.199
 2961POPC   GL239254  19.978  29.663   9.197
 2961POPC   C1A39255  19.897  30.008   8.808
 2961POPC   D2A39256  19.783  29.898   8.405
 2961POPC   C3A39257  20.020  30.061   8.082
 2961POPC   C4A39258  19.996  29.934   7.650
 2961POPC   C1B39259  20.123  29.561   8.820
 2961POPC   C2B39260  20.223  29.664   8.362
 2961POPC   C3B39261  19.914  29.568   8.027
 2961POPC   C4B39262  19.909  29.281   7.712
 2962POPC   NC339263  39.243  10.586   9.657
 2962POPC   PO439264  39.039  10.041   9.502
 2962POPC   GL139265  39.094  10.415   9.187
 2962POPC   GL239266  39.372  10.671   9.161
 2962POPC   C1A39267  39.044  10.600   8.759
 2962POPC   D2A39268  39.226  10.763   8.371
 2962POPC   C3A39269  39.044  10.643   7.952
 2962POPC   C4A39270  38.761  10.614   7.578
 2962POPC   C1B39271  39.495  10.368   8.849
 2962POPC   C2B39272  39.323  10.252   8.442
 2962POPC   C3B39273  39.481  10.337   8.013
 2962POPC   C4B39274  39.573  10.504   7.606
 2963POPC   NC339275   4.447  14.580   9.824
 2963POPC   PO439276   4.218  14.256   9.284
 2963POPC   GL139277   4.315  14.461   8.985
 2963POPC   GL239278   4.242  14.758   9.079
 2963POPC   C1A39279   4.286  14.334   8.579
 2963POPC   D2A39280   4.476  14.454   8.222
 2963POPC   C3A39281   4.409  14.166   7.894
 2963POPC   C4A39282   3.984  14.092   7.788
 2963POPC   C1B39283   4.241  14.840   8.631
 2963POPC   C2B39284   4.011  14.669   8.285
 2963POPC   C3B39285   4.088  14.596   7.864
 2963POPC   C4B39286   4.478  14.624   7.696
 2964POPC   NC339287   1.233  11.647   9.423
 2964POPC   PO439288   1.296  12.223   9.681
 2964POPC   GL139289   1.334  12.259   9.242
 2964POPC   GL239290   1.562  11.976   9.206
 2964POPC   C1A39291   1.190  12.040   8.853
 2964POPC   D2A39292   1.389  11.819   8.509
 2964POPC   C3A39293   1.449  11.891   8.087
 2964POPC   C4A39294   1.233  11.874   7.674
 2964POPC   C1B39295   1.665  12.217   8.830
 2964POPC   C2B39296   1.504  12.314   8.404
 2964POPC   C3B39297   1.597  12.468   7.980
 2964POPC   C4B39298   1.383  12.338   7.577
 2965POPC   NC339299   9.581   5.798   9.580
 2965POPC   PO439300  10.092   6.110   9.749
 2965POPC   GL139301  10.029   5.846   9.338
 2965POPC   GL239302   9.765   6.011   9.167
 2965POPC   C1A39303  10.085   5.709   8.884
 2965POPC   D2A39304   9.875   5.875   8.497
 2965POPC   C3A39305   9.829   5.694   8.071
 2965POPC   C4A39306   9.938   5.560   7.621
 2965POPC   C1B39307   9.566   5.691   8.880
 2965POPC   C2B39308   9.333   5.637   8.496
 2965POPC   C3B39309   9.295   5.734   8.077
 2965POPC   C4B39310   9.496   5.772   7.691
 2966POPC   NC339311   3.894  30.409   9.521
 2966POPC   PO439312   3.418  29.930   9.433
 2966POPC   GL139313   3.800  29.859   9.179
 2966POPC   GL239314   3.875  30.161   9.066
 2966POPC   C1A39315   3.805  29.736   8.750
 2966POPC   D2A39316   3.585  29.897   8.406
 2966POPC   C3A39317   3.731  30.072   8.057
 2966POPC   C4A39318   3.551  29.731   7.842
 2966POPC   C1B39319   3.490  30.172   8.824
 2966POPC   C2B39320   3.252  30.284   8.465
 2966POPC   C3B39321   3.201  30.268   8.041
 2966POPC   C4B39322   3.413  30.225   7.653
 2967POPC   NC339323  31.360  38.010   9.668
 2967POPC   PO439324  31.480  37.440   9.405
 2967POPC   GL139325  31.335  37.745   9.119
 2967POPC   GL239326  31.325  38.128   9.181
 2967POPC   C1A39327  31.482  37.607   8.713
 2967POPC   D2A39328  31.741  37.540   8.327
 2967POPC   C3A39329  31.446  37.588   7.997
 2967POPC   C4A39330  31.325  37.376   7.626
 2967POPC   C1B39331  31.455  38.134   8.761
 2967POPC   C2B39332  31.422  37.959   8.355
 2967POPC   C3B39333  31.152  38.034   8.006
 2967POPC   C4B39334  30.942  37.701   7.792
 2968POPC   NC339335  11.919  41.636   9.788
 2968POPC   PO439336  12.366  41.323   9.416
 2968POPC   GL139337  12.097  41.480   9.103
 2968POPC   GL239338  11.978  41.813   9.118
 2968POPC   C1A39339  12.001  41.448   8.682
 2968POPC   D2A39340  12.295  41.281   8.374
 2968POPC   C3A39341  12.132  41.255   7.973
 2968POPC   C4A39342  12.383  41.154   7.616
 2968POPC   C1B39343  12.297  41.854   8.779
 2968POPC   C2B39344  12.258  41.782   8.339
 2968POPC   C3B39345  11.995  41.804   7.988
 2968POPC   C4B39346  12.283  41.673   7.720
 2969POPC   NC339347  12.835  19.857   9.537
 2969POPC   PO439348  12.253  20.077   9.341
 2969POPC   GL139349  12.550  19.791   9.100
 2969POPC   GL239350  12.941  19.812   9.050
 2969POPC   C1A39351  12.606  19.888   8.667
 2969POPC   D2A39352  12.557  19.993   8.235
 2969POPC   C3A39353  12.664  19.696   7.883
 2969POPC   C4A39354  12.946  19.629   7.483
 2969POPC   C1B39355  13.117  19.902   8.633
 2969POPC   C2B39356  13.029  20.184   8.250
 2969POPC   C3B39357  12.974  20.066   7.771
 2969POPC   C4B39358  12.853  20.109   7.307
 2970POPC   NC339359  30.245  15.537   9.536
 2970POPC   PO439360  29.944  15.004   9.717
 2970POPC   GL139361  30.017  15.074   9.278
 2970POPC   GL239362  30.328  15.153   9.157
 2970POPC   C1A39363  29.896  15.241   8.855
 2970POPC   D2A39364  30.036  15.227   8.399
 2970POPC   C3A39365  29.849  15.464   8.029
 2970POPC   C4A39366  29.620  15.427   7.609
 2970POPC   C1B39367  30.200  14.817   8.863
 2970POPC   C2B39368  30.196  14.729   8.430
 2970POPC   C3B39369  29.903  14.813   8.100
 2970POPC   C4B39370  29.963  15.046   7.728
 2971POPC   NC339371  25.194   0.929   9.745
 2971POPC   PO439372  25.585   0.702   9.212
 2971POPC   GL139373  25.410   0.365   9.033
 2971POPC   GL239374  25.061   0.255   9.082
 2971POPC   C1A39375  25.357   0.339   8.638
 2971POPC   D2A39376  25.182   0.458   8.276
 2971POPC   C3A39377  25.381   0.287   7.908
 2971POPC   C4A39378  25.434  44.938   7.693
 2971POPC   C1B39379  24.842   0.354   8.681
 2971POPC   C2B39380  24.700   0.636   8.323
 2971POPC   C3B39381  24.875   0.597   7.902
 2971POPC   C4B39382  24.762   0.265   7.610
 2972POPC   NC339383  44.072  21.012   9.615
 2972POPC   PO439384  43.996  21.712   9.631
 2972POPC   GL139385  43.945  21.356   9.249
 2972POPC   GL239386  43.668  21.082   9.225
 2972POPC   C1A39387  44.128  21.302   8.815
 2972POPC   D2A39388  44.211  21.467   8.394
 2972POPC   C3A39389  43.913  21.352   8.063
 2972POPC   C4A39390  43.843  21.264   7.613
 2972POPC   C1B39391  43.600  21.323   8.808
 2972POPC   C2B39392  43.567  21.608   8.409
 2972POPC   C3B39393  43.565  21.715   7.952
 2972POPC   C4B39394  43.405  21.573   7.537
 2973POPC   NC339395   8.068  22.689   9.653
 2973POPC   PO439396   8.126  22.016   9.669
 2973POPC   GL139397   8.305  21.884   9.222
 2973POPC   GL239398   8.104  22.161   9.150
 2973POPC   C1A39399   8.391  21.949   8.787
 2973POPC   D2A39400   8.152  21.900   8.413
 2973POPC   C3A39401   8.309  21.871   7.993
 2973POPC   C4A39402   8.136  22.095   7.661
 2973POPC   C1B39403   8.117  22.366   8.758
 2973POPC   C2B39404   8.482  22.357   8.478
 2973POPC   C3B39405   8.344  22.355   8.078
 2973POPC   C4B39406   7.973  22.583   7.925
 2974POPC   NC339407  41.423  43.827   9.365
 2974POPC   PO439408  42.029  43.857   9.700
 2974POPC   GL139409  41.861  43.697   9.169
 2974POPC   GL239410  41.628  44.030   8.970
 2974POPC   C1A39411  41.600  43.628   8.713
 2974POPC   D2A39412  41.706  43.883   8.371
 2974POPC   C3A39413  41.585  43.771   8.005
 2974POPC   C4A39414  41.249  43.666   7.880
 2974POPC   C1B39415  41.779  44.301   8.683
 2974POPC   C2B39416  42.023  44.275   8.353
 2974POPC   C3B39417  41.842  44.256   7.956
 2974POPC   C4B39418  41.720  44.031   7.584
 2975POPC   NC339419  20.470  31.747   9.447
 2975POPC   PO439420  20.877  31.204   9.490
 2975POPC   GL139421  20.736  31.423   9.151
 2975POPC   GL239422  20.385  31.342   9.148
 2975POPC   C1A39423  20.692  31.427   8.703
 2975POPC   D2A39424  20.873  31.200   8.346
 2975POPC   C3A39425  20.829  31.399   7.938
 2975POPC   C4A39426  20.483  31.642   7.711
 2975POPC   C1B39427  20.347  30.995   8.869
 2975POPC   C2B39428  20.403  30.895   8.435
 2975POPC   C3B39429  20.421  31.074   8.022
 2975POPC   C4B39430  20.158  31.257   7.730
 2976POPC   NC339431  16.242  36.406   9.535
 2976POPC   PO439432  15.663  36.181   9.885
 2976POPC   GL139433  15.827  36.183   9.369
 2976POPC   GL239434  16.019  35.993   9.196
 2976POPC   C1A39435  15.697  36.162   8.856
 2976POPC   D2A39436  15.946  36.089   8.481
 2976POPC   C3A39437  15.796  36.072   8.057
 2976POPC   C4A39438  15.789  35.967   7.610
 2976POPC   C1B39439  16.297  36.179   8.887
 2976POPC   C2B39440  16.432  36.304   8.499
 2976POPC   C3B39441  16.330  36.145   8.132
 2976POPC   C4B39442  16.207  36.244   7.755
 2977POPC   NC339443  10.410  19.152   9.572
 2977POPC   PO439444  10.619  18.587   9.241
 2977POPC   GL139445  10.456  18.988   9.094
 2977POPC   GL239446  10.565  19.360   9.137
 2977POPC   C1A39447  10.351  19.150   8.697
 2977POPC   D2A39448  10.225  19.019   8.268
 2977POPC   C3A39449  10.546  18.932   7.958
 2977POPC   C4A39450  10.555  18.835   7.484
 2977POPC   C1B39451  10.771  19.472   8.751
 2977POPC   C2B39452  10.526  19.489   8.364
 2977POPC   C3B39453  10.348  19.468   7.991
 2977POPC   C4B39454  10.509  19.326   7.616
 2978POPC   NC339455   2.712  33.658   9.694
 2978POPC   PO439456   2.545  33.260   9.211
 2978POPC   GL139457   2.711  33.675   9.186
 2978POPC   GL239458   2.436  33.908   9.258
 2978POPC   C1A39459   2.874  33.878   8.854
 2978POPC   D2A39460   2.862  34.008   8.429
 2978POPC   C3A39461   2.981  33.666   8.149
 2978POPC   C4A39462   2.949  33.549   7.694
 2978POPC   C1B39463   2.375  33.775   8.798
 2978POPC   C2B39464   2.453  33.684   8.345
 2978POPC   C3B39465   2.522  33.748   7.893
 2978POPC   C4B39466   2.402  33.584   7.467
 2979POPC   NC339467  36.265  23.032   9.557
 2979POPC   PO439468  35.656  23.071   9.430
 2979POPC   GL139469  35.983  22.883   9.167
 2979POPC   GL239470  36.357  22.715   9.162
 2979POPC   C1A39471  36.023  22.793   8.789
 2979POPC   D2A39472  36.279  22.853   8.450
 2979POPC   C3A39473  36.083  22.919   8.066
 2979POPC   C4A39474  36.037  22.861   7.631
 2979POPC   C1B39475  36.483  23.078   8.865
 2979POPC   C2B39476  36.476  23.328   8.447
 2979POPC   C3B39477  36.512  23.174   8.000
 2979POPC   C4B39478  36.437  23.171   7.540
 2980POPC   NC339479  34.375   3.648   9.450
 2980POPC   PO439480  35.036   3.609   9.462
 2980POPC   GL139481  34.749   3.459   9.141
 2980POPC   GL239482  34.441   3.204   9.184
 2980POPC   C1A39483  34.761   3.638   8.739
 2980POPC   D2A39484  34.620   3.880   8.405
 2980POPC   C3A39485  34.816   3.686   8.098
 2980POPC   C4A39486  34.580   3.659   7.758
 2980POPC   C1B39487  34.634   3.119   8.782
 2980POPC   C2B39488  34.855   3.076   8.392
 2980POPC   C3B39489  34.769   3.165   7.963
 2980POPC   C4B39490  34.853   3.304   7.556
 2981POPC   NC339491  28.795   1.789   9.462
 2981POPC   PO439492  29.567   1.812   9.364
 2981POPC   GL139493  29.243   1.888   9.064
 2981POPC   GL239494  28.912   2.042   9.058
 2981POPC   C1A39495  29.227   2.069   8.638
 2981POPC   D2A39496  29.411   2.408   8.340
 2981POPC   C3A39497  29.468   2.190   7.950
 2981POPC   C4A39498  29.215   1.837   7.799
 2981POPC   C1B39499  28.685   1.985   8.713
 2981POPC   C2B39500  28.836   1.827   8.332
 2981POPC   C3B39501  28.951   2.169   8.082
 2981POPC   C4B39502  28.813   2.250   7.684
 2982POPC   NC339503  14.945  36.415   9.664
 2982POPC   PO439504  15.412  35.936   9.391
 2982POPC   GL139505  15.090  36.171   9.197
 2982POPC   GL239506  15.111  36.538   9.141
 2982POPC   C1A39507  15.125  36.144   8.754
 2982POPC   D2A39508  15.295  35.931   8.393
 2982POPC   C3A39509  14.986  36.004   8.092
 2982POPC   C4A39510  15.161  35.924   7.725
 2982POPC   C1B39511  15.405  36.588   8.766
 2982POPC   C2B39512  15.519  36.403   8.371
 2982POPC   C3B39513  15.361  36.354   7.960
 2982POPC   C4B39514  14.950  36.399   7.727
 2983POPC   NC339515  14.092  13.521   9.532
 2983POPC   PO439516  13.449  13.812   9.484
 2983POPC   GL139517  13.333  13.601   9.091
 2983POPC   GL239518  13.468  13.235   9.049
 2983POPC   C1A39519  13.290  13.616   8.665
 2983POPC   D2A39520  13.405  13.377   8.330
 2983POPC   C3A39521  13.423  13.515   7.911
 2983POPC   C4A39522  13.507  13.261   7.537
 2983POPC   C1B39523  13.748  13.402   8.730
 2983POPC   C2B39524  13.896  13.262   8.300
 2983POPC   C3B39525  13.935  13.369   7.861
 2983POPC   C4B39526  14.186  13.652   7.589
 2984POPC   NC339527  23.901  36.387   9.455
 2984POPC   PO439528  23.228  36.347   9.535
 2984POPC   GL139529  23.489  36.228   9.166
 2984POPC   GL239530  23.695  35.946   9.258
 2984POPC   C1A39531  23.644  36.425   8.774
 2984POPC   D2A39532  23.684  36.306   8.351
 2984POPC   C3A39533  24.005  36.275   8.056
 2984POPC   C4A39534  23.882  36.380   7.646
 2984POPC   C1B39535  23.764  35.927   8.807
 2984POPC   C2B39536  23.776  35.818   8.369
 2984POPC   C3B39537  23.653  35.733   7.956
 2984POPC   C4B39538  23.860  35.884   7.603
 2985POPC   NC339539   0.983  12.556   9.608
 2985POPC   PO439540   1.249  13.150   9.487
 2985POPC   GL139541   1.313  12.808   9.214
 2985POPC   GL239542   1.410  13.072   8.991
 2985POPC   C1A39543   1.293  12.593   8.805
 2985POPC   D2A39544   1.436  12.825   8.435
 2985POPC   C3A39545   1.197  12.769   8.057
 2985POPC   C4A39546   1.281  12.809   7.653
 2985POPC   C1B39547   1.324  13.339   8.644
 2985POPC   C2B39548   1.144  13.223   8.259
 2985POPC   C3B39549   1.202  13.273   7.816
 2985POPC   C4B39550   1.137  13.227   7.362
 2986POPC   NC339551  18.819  28.117   9.529
 2986POPC   PO439552  18.839  28.775   9.419
 2986POPC   GL139553  18.742  28.463   9.152
 2986POPC   GL239554  19.057  28.267   9.106
 2986POPC   C1A39555  18.765  28.485   8.750
 2986POPC   D2A39556  19.076  28.601   8.492
 2986POPC   C3A39557  18.980  28.499   8.086
 2986POPC   C4A39558  19.133  28.596   7.719
 2986POPC   C1B39559  19.114  28.094   8.685
 2986POPC   C2B39560  19.336  28.166   8.292
 2986POPC   C3B39561  19.395  28.101   7.841
 2986POPC   C4B39562  19.268  27.950   7.403
 2987POPC   NC339563  24.062  43.782   9.374
 2987POPC   PO439564  24.689  44.014   9.552
 2987POPC   GL139565  24.507  43.916   9.172
 2987POPC   GL239566  24.223  44.170   9.085
 2987POPC   C1A39567  24.630  43.999   8.782
 2987POPC   D2A39568  24.669  44.234   8.412
 2987POPC   C3A39569  24.609  43.964   8.050
 2987POPC   C4A39570  24.534  43.631   7.714
 2987POPC   C1B39571  24.211  44.271   8.636
 2987POPC   C2B39572  24.212  44.321   8.183
 2987POPC   C3B39573  24.187  44.094   7.805
 2987POPC   C4B39574  24.191  43.935   7.419
 2988POPC   NC339575  30.513  42.770   9.725
 2988POPC   PO439576  30.950  43.231   9.452
 2988POPC   GL139577  30.647  43.235   9.124
 2988POPC   GL239578  30.898  43.128   8.915
 2988POPC   C1A39579  30.492  43.345   8.716
 2988POPC   D2A39580  30.801  43.307   8.401
 2988POPC   C3A39581  30.616  43.230   8.011
 2988POPC   C4A39582  30.752  43.189   7.599
 2988POPC   C1B39583  30.648  42.835   8.688
 2988POPC   C2B39584  30.571  42.764   8.262
 2988POPC   C3B39585  30.817  42.772   7.862
 2988POPC   C4B39586  30.857  42.735   7.414
 2989POPC   NC339587  13.598  25.510   9.487
 2989POPC   PO439588  13.383  26.204   9.371
 2989POPC   GL139589  13.674  25.899   9.158
 2989POPC   GL239590  13.511  25.608   8.991
 2989POPC   C1A39591  13.867  26.003   8.768
 2989POPC   D2A39592  13.807  26.385   8.502
 2989POPC   C3A39593  13.760  26.315   8.075
 2989POPC   C4A39594  13.928  26.064   7.766
 2989POPC   C1B39595  13.365  25.911   8.737
 2989POPC   C2B39596  13.386  26.076   8.340
 2989POPC   C3B39597  13.455  25.898   7.947
 2989POPC   C4B39598  13.198  25.617   7.720
 2990POPC   NC339599  42.165  21.748   9.312
 2990POPC   PO439600  42.012  21.221   9.604
 2990POPC   GL139601  42.272  21.124   9.243
 2990POPC   GL239602  42.642  21.075   9.317
 2990POPC   C1A39603  42.165  21.267   8.831
 2990POPC   D2A39604  42.299  21.523   8.488
 2990POPC   C3A39605  42.014  21.585   8.159
 2990POPC   C4A39606  42.195  21.433   7.787
 2990POPC   C1B39607  42.677  21.214   8.882
 2990POPC   C2B39608  42.591  21.087   8.447
 2990POPC   C3B39609  42.630  21.304   8.047
 2990POPC   C4B39610  42.605  21.216   7.596
 2991POPC   NC339611  28.019   2.362   9.785
 2991POPC   PO439612  28.316   1.912   9.383
 2991POPC   GL139613  28.218   1.780   9.008
 2991POPC   GL239614  28.537   1.586   9.019
 2991POPC   C1A39615  28.108   2.022   8.639
 2991POPC   D2A39616  28.263   2.325   8.335
 2991POPC   C3A39617  28.371   2.117   7.954
 2991POPC   C4A39618  28.146   1.795   7.712
 2991POPC   C1B39619  28.418   1.583   8.588
 2991POPC   C2B39620  28.169   1.680   8.247
 2991POPC   C3B39621  28.483   1.602   8.029
 2991POPC   C4B39622  28.710   1.768   7.777
 2992POPC   NC339623  36.905  38.139   9.843
 2992POPC   PO439624  37.143  37.572   9.518
 2992POPC   GL139625  36.816  37.570   9.144
 2992POPC   GL239626  36.662  37.943   9.000
 2992POPC   C1A39627  36.744  37.464   8.726
 2992POPC   D2A39628  36.823  37.306   8.330
 2992POPC   C3A39629  37.080  37.475   7.986
 2992POPC   C4A39630  37.167  37.967   7.964
 2992POPC   C1B39631  36.853  37.949   8.604
 2992POPC   C2B39632  36.749  37.801   8.204
 2992POPC   C3B39633  36.494  37.916   7.857
 2992POPC   C4B39634  36.505  38.089   7.421
 2993POPC   NC339635  27.476   3.794   9.585
 2993POPC   PO439636  28.051   3.648   9.580
 2993POPC   GL139637  27.837   3.714   9.185
 2993POPC   GL239638  27.544   3.497   9.155
 2993POPC   C1A39639  27.667   3.800   8.750
 2993POPC   D2A39640  27.461   3.978   8.376
 2993POPC   C3A39641  27.548   3.672   8.051
 2993POPC   C4A39642  27.838   3.700   7.695
 2993POPC   C1B39643  27.327   3.394   8.763
 2993POPC   C2B39644  27.226   3.305   8.331
 2993POPC   C3B39645  27.148   3.382   7.890
 2993POPC   C4B39646  27.454   3.362   7.571
 2994POPC   NC339647  41.761   2.010   9.572
 2994POPC   PO439648  41.220   1.737   9.769
 2994POPC   GL139649  41.452   1.705   9.326
 2994POPC   GL239650  41.494   2.042   9.130
 2994POPC   C1A39651  41.586   1.621   8.862
 2994POPC   D2A39652  41.685   1.788   8.390
 2994POPC   C3A39653  41.489   1.890   7.970
 2994POPC   C4A39654  41.425   2.231   7.647
 2994POPC   C1B39655  41.439   2.215   8.690
 2994POPC   C2B39656  41.514   2.322   8.234
 2994POPC   C3B39657  41.868   2.199   7.928
 2994POPC   C4B39658  42.083   2.427   7.626
 2995POPC   NC339659   2.469  28.296   9.483
 2995POPC   PO439660   3.158  28.251   9.465
 2995POPC   GL139661   2.864  28.353   9.158
 2995POPC   GL239662   2.954  28.673   9.125
 2995POPC   C1A39663   2.600  28.383   8.801
 2995POPC   D2A39664   2.730  28.385   8.391
 2995POPC   C3A39665   2.527  28.229   7.991
 2995POPC   C4A39666   2.600  28.200   7.529
 2995POPC   C1B39667   3.153  28.530   8.736
 2995POPC   C2B39668   3.185  28.569   8.291
 2995POPC   C3B39669   2.990  28.458   7.920
 2995POPC   C4B39670   2.948  28.578   7.504
 2996POPC   NC339671  13.903  36.915   9.489
 2996POPC   PO439672  13.504  37.457   9.458
 2996POPC   GL139673  13.643  37.143   9.093
 2996POPC   GL239674  13.756  36.770   9.029
 2996POPC   C1A39675  13.598  37.079   8.630
 2996POPC   D2A39676  13.340  36.948   8.290
 2996POPC   C3A39677  13.565  36.946   7.889
 2996POPC   C4A39678  13.466  36.708   7.500
 2996POPC   C1B39679  14.017  36.743   8.648
 2996POPC   C2B39680  14.001  36.723   8.179
 2996POPC   C3B39681  13.900  36.565   7.767
 2996POPC   C4B39682  14.097  36.560   7.344
 2997POPC   NC339683  31.676  23.672   9.409
 2997POPC   PO439684  31.018  23.534   9.504
 2997POPC   GL139685  31.236  23.608   9.125
 2997POPC   GL239686  31.354  23.968   9.104
 2997POPC   C1A39687  31.096  23.628   8.711
 2997POPC   D2A39688  30.846  23.523   8.362
 2997POPC   C3A39689  31.116  23.517   8.021
 2997POPC   C4A39690  31.219  23.894   7.810
 2997POPC   C1B39691  31.599  23.780   8.757
 2997POPC   C2B39692  31.509  23.568   8.363
 2997POPC   C3B39693  31.616  23.600   7.932
 2997POPC   C4B39694  31.668  23.918   7.572
 2998POPC   NC339695   8.988  26.633   9.892
 2998POPC   PO439696   8.496  26.981   9.586
 2998POPC   GL139697   8.823  26.889   9.257
 2998POPC   GL239698   8.705  26.598   9.108
 2998POPC   C1A39699   9.101  26.860   8.863
 2998POPC   D2A39700   8.996  26.895   8.389
 2998POPC   C3A39701   9.240  26.690   8.061
 2998POPC   C4A39702   9.180  26.588   7.631
 2998POPC   C1B39703   8.792  26.500   8.668
 2998POPC   C2B39704   8.834  26.373   8.240
 2998POPC   C3B39705   8.720  26.544   7.868
 2998POPC   C4B39706   8.507  26.795   7.574
 2999POPC   NC339707  26.516  31.419   9.654
 2999POPC   PO439708  27.112  31.673   9.783
 2999POPC   GL139709  26.912  31.548   9.322
 2999POPC   GL239710  26.606  31.338   9.173
 2999POPC   C1A39711  26.933  31.501   8.827
 2999POPC   D2A39712  26.968  31.633   8.369
 2999POPC   C3A39713  26.940  31.351   7.974
 2999POPC   C4A39714  27.216  31.236   7.641
 2999POPC   C1B39715  26.464  31.242   8.754
 2999POPC   C2B39716  26.568  31.318   8.319
 2999POPC   C3B39717  26.358  31.440   7.939
 2999POPC   C4B39718  26.417  31.845   7.705
 3000POPC   NC339719  23.915  37.877   9.607
 3000POPC   PO439720  23.533  37.380   9.718
 3000POPC   GL139721  23.624  37.588   9.273
 3000POPC   GL239722  23.956  37.753   9.117
 3000POPC   C1A39723  23.454  37.747   8.857
 3000POPC   D2A39724  23.602  37.824   8.414
 3000POPC   C3A39725  23.390  37.880   8.003
 3000POPC   C4A39726  23.478  37.550   7.710
 3000POPC   C1B39727  23.856  37.418   8.846
 3000POPC   C2B39728  23.660  37.297   8.497
 3000POPC   C3B39729  23.674  37.238   8.071
 3000POPC   C4B39730  23.913  37.283   7.716
 3001POPC   NC339731  15.877  24.178   9.842
 3001POPC   PO439732  15.883  23.541   9.719
 3001POPC   GL139733  15.964  23.750   9.320
 3001POPC   GL239734  15.713  23.561   9.146
 3001POPC   C1A39735  16.121  23.684   8.867
 3001POPC   D2A39736  15.916  23.644   8.439
 3001POPC   C3A39737  16.172  23.669   8.051
 3001POPC   C4A39738  16.134  23.638   7.614
 3001POPC   C1B39739  15.646  23.295   8.774
 3001POPC   C2B39740  15.461  23.393   8.367
 3001POPC   C3B39741  15.697  23.358   7.986
 3001POPC   C4B39742  15.764  23.226   7.548
 3002POPC   NC339743  32.019  13.927   9.645
 3002POPC   PO439744  32.741  13.852   9.644
 3002POPC   GL139745  32.593  13.817   9.241
 3002POPC   GL239746  32.223  13.927   9.179
 3002POPC   C1A39747  32.565  13.848   8.806
 3002POPC   D2A39748  32.460  13.522   8.532
 3002POPC   C3A39749  32.519  13.600   8.117
 3002POPC   C4A39750  32.307  13.683   7.766
 3002POPC   C1B39751  31.983  13.891   8.790
 3002POPC   C2B39752  32.100  13.878   8.340
 3002POPC   C3B39753  31.895  13.937   7.913
 3002POPC   C4B39754  31.892  14.046   7.429
 3003POPC   NC339755  37.202  28.960   9.480
 3003POPC   PO439756  36.643  29.413   9.596
 3003POPC   GL139757  36.808  29.152   9.254
 3003POPC   GL239758  37.093  29.329   9.137
 3003POPC   C1A39759  36.929  28.972   8.824
 3003POPC   D2A39760  36.779  29.168   8.437
 3003POPC   C3A39761  36.664  28.983   8.055
 3003POPC   C4A39762  36.801  29.065   7.649
 3003POPC   C1B39763  37.159  29.431   8.703
 3003POPC   C2B39764  37.099  29.563   8.287
 3003POPC   C3B39765  36.777  29.466   7.968
 3003POPC   C4B39766  36.453  29.451   7.629
 3004POPC   NC339767  32.533  26.533   9.550
 3004POPC   PO439768  33.038  27.017   9.667
 3004POPC   GL139769  33.076  26.708   9.303
 3004POPC   GL239770  33.461  26.631   9.209
 3004POPC   C1A39771  32.789  26.671   8.913
 3004POPC   D2A39772  32.688  26.942   8.556
 3004POPC   C3A39773  32.778  26.761   8.173
 3004POPC   C4A39774  32.781  26.646   7.751
 3004POPC   C1B39775  33.285  26.902   8.879
 3004POPC   C2B39776  33.178  26.835   8.477
 3004POPC   C3B39777  33.264  26.946   8.050
 3004POPC   C4B39778  33.457  26.952   7.637
 3005POPC   NC339779  38.835  36.102   9.491
 3005POPC   PO439780  38.116  35.844   9.481
 3005POPC   GL139781  38.328  36.117   9.155
 3005POPC   GL239782  38.630  36.243   9.063
 3005POPC   C1A39783  38.273  36.084   8.730
 3005POPC   D2A39784  38.456  35.928   8.388
 3005POPC   C3A39785  38.269  36.110   8.035
 3005POPC   C4A39786  38.220  35.981   7.614
 3005POPC   C1B39787  38.792  36.214   8.676
 3005POPC   C2B39788  38.691  36.370   8.263
 3005POPC   C3B39789  38.749  36.059   7.932
 3005POPC   C4B39790  38.789  36.026   7.492
 3006POPC   NC339791  10.542  30.490   9.483
 3006POPC   PO439792  10.311  31.126   9.340
 3006POPC   GL139793  10.568  30.968   9.065
 3006POPC   GL239794  10.469  30.647   9.017
 3006POPC   C1A39795  10.525  31.020   8.637
 3006POPC   D2A39796  10.286  30.881   8.273
 3006POPC   C3A39797  10.490  31.033   7.919
 3006POPC   C4A39798  10.904  31.202   7.895
 3006POPC   C1B39799  10.399  30.509   8.629
 3006POPC   C2B39800  10.684  30.520   8.298
 3006POPC   C3B39801  10.700  30.564   7.902
 3006POPC   C4B39802  10.270  30.561   7.714
 3007POPC   NC339803  11.201   5.764   9.395
 3007POPC   PO439804  11.605   6.228   9.431
 3007POPC   GL139805  11.350   6.164   9.090
 3007POPC   GL239806  10.982   6.202   9.206
 3007POPC   C1A39807  11.429   5.837   8.759
 3007POPC   D2A39808  11.350   5.626   8.355
 3007POPC   C3A39809  11.344   5.853   7.975
 3007POPC   C4A39810  11.635   5.822   7.644
 3007POPC   C1B39811  10.990   6.230   8.749
 3007POPC   C2B39812  11.004   6.096   8.324
 3007POPC   C3B39813  11.103   6.302   7.930
 3007POPC   C4B39814  11.275   6.193   7.527
 3008POPC   NC339815   1.090  29.694   9.240
 3008POPC   PO439816   1.213  29.207   9.752
 3008POPC   GL139817   1.104  29.176   9.311
 3008POPC   GL239818   0.933  28.890   9.215
 3008POPC   C1A39819   1.307  29.027   8.897
 3008POPC   D2A39820   1.215  28.869   8.459
 3008POPC   C3A39821   1.340  29.148   8.101
 3008POPC   C4A39822   1.093  29.474   7.893
 3008POPC   C1B39823   0.846  29.175   8.802
 3008POPC   C2B39824   0.940  29.312   8.382
 3008POPC   C3B39825   0.861  28.999   8.057
 3008POPC   C4B39826   0.747  28.954   7.655
 3009POPC   NC339827  12.312  26.138   9.736
 3009POPC   PO439828  11.724  25.810   9.540
 3009POPC   GL139829  11.796  26.128   9.188
 3009POPC   GL239830  12.140  26.156   9.137
 3009POPC   C1A39831  11.918  26.408   8.781
 3009POPC   D2A39832  12.119  26.428   8.375
 3009POPC   C3A39833  11.881  26.450   8.023
 3009POPC   C4A39834  11.860  26.214   7.703
 3009POPC   C1B39835  11.936  25.913   8.730
 3009POPC   C2B39836  11.675  25.737   8.417
 3009POPC   C3B39837  11.802  25.773   7.985
 3009POPC   C4B39838  11.859  25.481   7.678
 3010POPC   NC339839  38.744  20.001   9.461
 3010POPC   PO439840  38.305  19.561   9.456
 3010POPC   GL139841  38.441  19.724   9.121
 3010POPC   GL239842  38.771  19.600   9.137
 3010POPC   C1A39843  38.304  19.679   8.725
 3010POPC   D2A39844  38.408  19.858   8.350
 3010POPC   C3A39845  38.342  19.554   8.027
 3010POPC   C4A39846  38.311  19.802   7.679
 3010POPC   C1B39847  38.788  19.820   8.747
 3010POPC   C2B39848  38.943  19.872   8.355
 3010POPC   C3B39849  38.789  19.789   7.966
 3010POPC   C4B39850  38.772  19.567   7.557
 3011POPC   NC339851  32.199  24.221   9.521
 3011POPC   PO439852  32.472  23.608   9.645
 3011POPC   GL139853  32.414  23.825   9.228
 3011POPC   GL239854  32.085  23.900   9.130
 3011POPC   C1A39855  32.437  23.815   8.758
 3011POPC   D2A39856  32.269  23.431   8.540
 3011POPC   C3A39857  32.183  23.443   8.107
 3011POPC   C4A39858  32.477  23.509   7.780
 3011POPC   C1B39859  32.020  24.128   8.748
 3011POPC   C2B39860  31.976  23.871   8.380
 3011POPC   C3B39861  32.009  23.929   7.950
 3011POPC   C4B39862  32.154  24.000   7.518
 3012POPC   NC339863  37.795  18.893   9.650
 3012POPC   PO439864  37.643  19.516   9.617
 3012POPC   GL139865  37.920  19.256   9.270
 3012POPC   GL239866  37.908  18.882   9.122
 3012POPC   C1A39867  37.949  19.279   8.796
 3012POPC   D2A39868  37.657  19.189   8.414
 3012POPC   C3A39869  37.725  19.196   7.946
 3012POPC   C4A39870  37.957  19.383   7.584
 3012POPC   C1B39871  37.841  18.762   8.643
 3012POPC   C2B39872  37.891  18.751   8.169
 3012POPC   C3B39873  37.540  18.612   7.862
 3012POPC   C4B39874  37.430  18.692   7.409
 3013POPC   NC339875  12.742   5.348   9.600
 3013POPC   PO439876  13.068   5.973   9.562
 3013POPC   GL139877  12.916   6.017   9.152
 3013POPC   GL239878  12.847   5.674   9.178
 3013POPC   C1A39879  12.895   6.190   8.689
 3013POPC   D2A39880  12.786   5.965   8.296
 3013POPC   C3A39881  12.596   6.086   7.927
 3013POPC   C4A39882  12.982   6.132   7.817
 3013POPC   C1B39883  12.920   5.675   8.753
 3013POPC   C2B39884  13.061   5.444   8.413
 3013POPC   C3B39885  12.913   5.367   8.045
 3013POPC   C4B39886  12.873   5.637   7.731
 3014POPC   NC339887  17.917  29.378   9.375
 3014POPC   PO439888  17.265  29.271   9.259
 3014POPC   GL139889  17.513  29.032   9.005
 3014POPC   GL239890  17.633  28.729   9.187
 3014POPC   C1A39891  17.480  29.064   8.563
 3014POPC   D2A39892  17.762  29.303   8.291
 3014POPC   C3A39893  17.649  29.456   7.878
 3014POPC   C4A39894  17.685  29.571   7.431
 3014POPC   C1B39895  17.767  28.656   8.742
 3014POPC   C2B39896  17.845  28.787   8.312
 3014POPC   C3B39897  17.498  28.942   8.055
 3014POPC   C4B39898  17.297  28.643   7.788
 3015POPC   NC339899  40.427   6.403   9.400
 3015POPC   PO439900  39.883   6.254   9.599
 3015POPC   GL139901  39.980   6.545   9.182
 3015POPC   GL239902  40.328   6.633   8.968
 3015POPC   C1A39903  39.885   6.463   8.742
 3015POPC   D2A39904  40.184   6.463   8.370
 3015POPC   C3A39905  39.955   6.501   7.964
 3015POPC   C4A39906  40.037   6.617   7.532
 3015POPC   C1B39907  40.113   6.910   8.685
 3015POPC   C2B39908  39.925   6.913   8.273
 3015POPC   C3B39909  40.094   6.992   7.885
 3015POPC   C4B39910  40.067   7.112   7.457
 3016POPC   NC339911  28.561  13.750   9.476
 3016POPC   PO439912  27.959  13.399   9.251
 3016POPC   GL139913  28.311  13.560   9.074
 3016POPC   GL239914  28.205  13.885   9.126
 3016POPC   C1A39915  28.678  13.451   8.835
 3016POPC   D2A39916  28.828  13.296   8.437
 3016POPC   C3A39917  28.608  13.548   8.111
 3016POPC   C4A39918  28.301  13.584   7.771
 3016POPC   C1B39919  28.067  13.745   8.680
 3016POPC   C2B39920  28.091  13.684   8.242
 3016POPC   C3B39921  27.843  13.461   7.967
 3016POPC   C4B39922  27.627  13.419   7.581
 3017POPC   NC339923  28.677  20.316   9.508
 3017POPC   PO439924  29.250  20.702   9.615
 3017POPC   GL139925  28.980  20.664   9.224
 3017POPC   GL239926  29.051  20.320   9.125
 3017POPC   C1A39927  28.910  20.645   8.751
 3017POPC   D2A39928  29.119  20.681   8.319
 3017POPC   C3A39929  28.885  20.598   7.921
 3017POPC   C4A39930  28.970  20.571   7.436
 3017POPC   C1B39931  29.384  20.363   8.786
 3017POPC   C2B39932  29.528  20.319   8.351
 3017POPC   C3B39933  29.283  20.279   7.984
 3017POPC   C4B39934  29.374  20.635   7.746
 3018POPC   NC339935  27.680  27.762   9.509
 3018POPC   PO439936  27.866  27.168   9.195
 3018POPC   GL139937  27.790  27.556   9.037
 3018POPC   GL239938  27.472  27.559   9.108
 3018POPC   C1A39939  27.655  27.806   8.700
 3018POPC   D2A39940  27.435  27.910   8.338
 3018POPC   C3A39941  27.672  27.794   8.042
 3018POPC   C4A39942  27.833  27.820   7.684
 3018POPC   C1B39943  27.353  27.369   8.733
 3018POPC   C2B39944  27.499  27.391   8.309
 3018POPC   C3B39945  27.366  27.415   7.865
 3018POPC   C4B39946  27.496  27.076   7.590
 3019POPC   NC339947   8.127  20.760   9.467
 3019POPC   PO439948   8.603  20.280   9.293
 3019POPC   GL139949   8.244  20.483   9.055
 3019POPC   GL239950   8.126  20.840   8.992
 3019POPC   C1A39951   8.321  20.534   8.617
 3019POPC   D2A39952   8.518  20.241   8.331
 3019POPC   C3A39953   8.460  20.446   7.949
 3019POPC   C4A39954   8.047  20.549   7.778
 3019POPC   C1B39955   7.973  20.917   8.605
 3019POPC   C2B39956   8.133  20.867   8.212
 3019POPC   C3B39957   8.016  21.058   7.874
 3019POPC   C4B39958   8.135  21.005   7.458
 3020POPC   NC339959  41.289  11.414   9.293
 3020POPC   PO439960  41.412  10.889   9.677
 3020POPC   GL139961  41.625  10.962   9.198
 3020POPC   GL239962  41.696  11.305   9.020
 3020POPC   C1A39963  41.530  10.942   8.723
 3020POPC   D2A39964  41.667  11.191   8.343
 3020POPC   C3A39965  41.511  10.995   7.960
 3020POPC   C4A39966  41.433  10.923   7.483
 3020POPC   C1B39967  41.819  11.598   8.669
 3020POPC   C2B39968  42.068  11.583   8.290
 3020POPC   C3B39969  42.007  11.279   7.946
 3020POPC   C4B39970  41.668  11.354   7.656
 3021POPC   NC339971  31.865  19.233   9.506
 3021POPC   PO439972  31.289  18.793   9.459
 3021POPC   GL139973  31.414  19.155   9.207
 3021POPC   GL239974  31.686  18.905   9.169
 3021POPC   C1A39975  31.225  19.334   8.794
 3021POPC   D2A39976  31.168  19.136   8.406
 3021POPC   C3A39977  31.303  19.139   8.001
 3021POPC   C4A39978  31.495  18.889   7.668
 3021POPC   C1B39979  31.832  18.744   8.830
 3021POPC   C2B39980  31.656  18.781   8.451
 3021POPC   C3B39981  31.818  18.828   8.064
 3021POPC   C4B39982  31.868  18.556   7.696
 3022POPC   NC339983  12.240   7.016   9.432
 3022POPC   PO439984  12.255   6.344   9.488
 3022POPC   GL139985  11.963   6.602   9.215
 3022POPC   GL239986  12.266   6.651   9.058
 3022POPC   C1A39987  11.930   6.935   8.844
 3022POPC   D2A39988  12.223   6.869   8.462
 3022POPC   C3A39989  12.056   6.919   8.042
 3022POPC   C4A39990  11.891   6.843   7.630
 3022POPC   C1B39991  12.093   6.408   8.691
 3022POPC   C2B39992  12.070   6.399   8.223
 3022POPC   C3B39993  12.251   6.485   7.828
 3022POPC   C4B39994  12.428   6.839   7.605
 3023POPC   NC339995   2.063  11.519   9.838
 3023POPC   PO439996   2.045  10.903   9.580
 3023POPC   GL139997   2.050  11.213   9.270
 3023POPC   GL239998   1.715  11.305   9.090
 3023POPC   C1A39999   2.153  11.279   8.836
 3023POPC   D2A40000   2.304  11.349   8.420
 3023POPC   C3A40001   2.098  11.098   8.133
 3023POPC   C4A40002   1.894  11.080   7.748
 3023POPC   C1B40003   1.714  11.627   8.830
 3023POPC   C2B40004   1.824  11.541   8.408
 3023POPC   C3B40005   1.899  11.557   7.980
 3023POPC   C4B40006   1.576  11.511   7.710
 3024POPC   NC340007  31.006  42.805   9.294
 3024POPC   PO440008  30.501  42.380   9.468
 3024POPC   GL140009  30.466  42.125   9.102
 3024POPC   GL240010  30.828  42.002   9.068
 3024POPC   C1A40011  30.387  42.262   8.650
 3024POPC   D2A40012  30.481  42.090   8.246
 3024POPC   C3A40013  30.507  42.380   7.925
 3024POPC   C4A40014  30.308  42.803   7.830
 3024POPC   C1B40015  30.849  42.372   8.851
 3024POPC   C2B40016  30.883  42.403   8.446
 3024POPC   C3B40017  31.024  42.357   8.060
 3024POPC   C4B40018  30.922  42.291   7.645
 3025POPC   NC340019  24.766   6.997   9.427
 3025POPC   PO440020  24.815   6.336   9.378
 3025POPC   GL140021  24.513   6.624   9.158
 3025POPC   GL240022  24.361   6.984   9.150
 3025POPC   C1A40023  24.342   6.574   8.776
 3025POPC   D2A40024  24.445   6.554   8.379
 3025POPC   C3A40025  24.100   6.634   8.142
 3025POPC   C4A40026  24.234   6.755   7.768
 3025POPC   C1B40027  24.550   7.039   8.762
 3025POPC   C2B40028  24.657   7.036   8.342
 3025POPC   C3B40029  24.727   6.900   7.899
 3025POPC   C4B40030  24.612   6.783   7.438
 3026POPC   NC340031  12.130   0.866   9.525
 3026POPC   PO440032  11.835   1.475   9.575
 3026POPC   GL140033  12.003   1.244   9.223
 3026POPC   GL240034  11.772   0.954   9.122
 3026POPC   C1A40035  12.199   1.187   8.815
 3026POPC   D2A40036  12.144   0.959   8.427
 3026POPC   C3A40037  12.236   1.159   8.035
 3026POPC   C4A40038  12.222   0.917   7.699
 3026POPC   C1B40039  11.656   1.364   8.889
 3026POPC   C2B40040  11.580   1.463   8.448
 3026POPC   C3B40041  11.784   1.458   8.049
 3026POPC   C4B40042  11.868   1.278   7.655
 3027POPC   NC340043   0.081  43.712   9.447
 3027POPC   PO440044   0.705  43.617   9.514
 3027POPC   GL140045   0.510  43.787   9.151
 3027POPC   GL240046   0.470  44.148   9.210
 3027POPC   C1A40047   0.684  43.983   8.776
 3027POPC   D2A40048   0.683  43.728   8.441
 3027POPC   C3A40049   0.543  43.867   8.061
 3027POPC   C4A40050   0.833  44.089   7.818
 3027POPC   C1B40051   0.197  44.077   8.862
 3027POPC   C2B40052   0.169  43.921   8.470
 3027POPC   C3B40053   0.111  44.163   8.116
 3027POPC   C4B40054   0.278  44.125   7.704
 3028POPC   NC340055  26.299  34.136   9.692
 3028POPC   PO440056  25.787  33.739   9.754
 3028POPC   GL140057  25.969  33.708   9.299
 3028POPC   GL240058  26.284  33.879   9.240
 3028POPC   C1A40059  26.161  33.588   8.849
 3028POPC   D2A40060  26.038  33.806   8.479
 3028POPC   C3A40061  26.088  33.588   8.079
 3028POPC   C4A40062  25.852  33.765   7.783
 3028POPC   C1B40063  26.215  34.103   8.874
 3028POPC   C2B40064  26.303  34.261   8.455
 3028POPC   C3B40065  26.152  34.101   8.061
 3028POPC   C4B40066  26.263  34.015   7.625
 3029POPC   NC340067  18.712  18.656   9.253
 3029POPC   PO440068  18.451  18.107   9.532
 3029POPC   GL140069  18.311  18.316   9.172
 3029POPC   GL240070  18.020  18.472   9.295
 3029POPC   C1A40071  18.458  18.254   8.750
 3029POPC   D2A40072  18.271  18.259   8.319
 3029POPC   C3A40073  18.458  18.161   7.946
 3029POPC   C4A40074  18.503  18.543   7.736
 3029POPC   C1B40075  17.971  18.521   8.835
 3029POPC   C2B40076  17.862  18.547   8.397
 3029POPC   C3B40077  18.019  18.479   7.918
 3029POPC   C4B40078  18.107  18.618   7.421
 3030POPC   NC340079   1.550  44.463   9.416
 3030POPC   PO440080   1.018  44.820   9.567
 3030POPC   GL140081   1.052  44.719   9.124
 3030POPC   GL240082   0.920  44.405   9.013
 3030POPC   C1A40083   1.371  44.617   8.789
 3030POPC   D2A40084   1.434  44.393   8.369
 3030POPC   C3A40085   1.161  44.483   8.016
 3030POPC   C4A40086   1.424  44.691   7.724
 3030POPC   C1B40087   0.932  44.552   8.561
 3030POPC   C2B40088   0.787  44.846   8.226
 3030POPC   C3B40089   0.899  44.870   7.778
 3030POPC   C4B40090   0.821  44.509   7.518
 3031POPC   NC340091  42.616  18.056   9.884
 3031POPC   PO440092  42.006  18.263   9.600
 3031POPC   GL140093  42.196  18.221   9.103
 3031POPC   GL240094  42.095  17.889   8.963
 3031POPC   C1A40095  42.451  18.500   8.791
 3031POPC   D2A40096  42.690  18.571   8.409
 3031POPC   C3A40097  42.456  18.541   8.023
 3031POPC   C4A40098  42.125  18.629   7.709
 3031POPC   C1B40099  42.463  17.993   8.680
 3031POPC   C2B40100  42.514  18.070   8.213
 3031POPC   C3B40101  42.118  18.158   7.954
 3031POPC   C4B40102  42.004  18.167   7.506
 3032POPC   NC340103  36.425  29.807   9.370
 3032POPC   PO440104  35.736  29.999   9.422
 3032POPC   GL140105  35.997  29.927   9.098
 3032POPC   GL240106  36.180  30.196   9.066
 3032POPC   C1A40107  36.087  29.855   8.664
 3032POPC   D2A40108  35.877  29.641   8.294
 3032POPC   C3A40109  36.064  29.745   7.903
 3032POPC   C4A40110  36.043  29.751   7.471
 3032POPC   C1B40111  36.170  30.385   8.686
 3032POPC   C2B40112  36.326  30.217   8.310
 3032POPC   C3B40113  36.117  30.238   7.907
 3032POPC   C4B40114  35.921  30.543   7.657
 3033POPC   NC340115   0.658  23.077   9.330
 3033POPC   PO440116   1.158  22.960   9.783
 3033POPC   GL140117   1.362  22.988   9.315
 3033POPC   GL240118   1.073  22.898   9.101
 3033POPC   C1A40119   1.480  22.852   8.825
 3033POPC   D2A40120   1.196  22.684   8.513
 3033POPC   C3A40121   1.342  22.782   8.113
 3033POPC   C4A40122   1.212  22.642   7.727
 3033POPC   C1B40123   1.297  23.322   8.945
 3033POPC   C2B40124   1.343  23.484   8.517
 3033POPC   C3B40125   1.207  23.270   8.159
 3033POPC   C4B40126   1.147  23.134   7.723
 3034POPC   NC340127  21.890  32.940   9.562
 3034POPC   PO440128  22.384  33.388   9.479
 3034POPC   GL140129  22.060  33.261   9.210
 3034POPC   GL240130  22.161  32.879   9.143
 3034POPC   C1A40131  21.958  33.198   8.804
 3034POPC   D2A40132  22.230  33.217   8.457
 3034POPC   C3A40133  22.042  33.137   8.048
 3034POPC   C4A40134  22.330  33.129   7.727
 3034POPC   C1B40135  22.178  32.658   8.752
 3034POPC   C2B40136  22.284  32.715   8.328
 3034POPC   C3B40137  22.244  32.653   7.918
 3034POPC   C4B40138  22.422  32.642   7.502
 3035POPC   NC340139  23.205  43.584   9.486
 3035POPC   PO440140  22.769  44.131   9.463
 3035POPC   GL140141  23.069  43.960   9.185
 3035POPC   GL240142  23.222  44.202   8.994
 3035POPC   C1A40143  23.053  43.738   8.824
 3035POPC   D2A40144  22.791  43.780   8.486
 3035POPC   C3A40145  22.908  43.944   8.135
 3035POPC   C4A40146  22.805  43.736   7.769
 3035POPC   C1B40147  22.791  44.184   8.828
 3035POPC   C2B40148  22.599  44.285   8.463
 3035POPC   C3B40149  22.729  44.468   8.101
 3035POPC   C4B40150  22.797  44.252   7.728
 3036POPC   NC340151  42.218  28.562   9.589
 3036POPC   PO440152  42.625  28.123   9.372
 3036POPC   GL140153  42.572  28.432   9.059
 3036POPC   GL240154  42.259  28.539   9.071
 3036POPC   C1A40155  42.651  28.332   8.624
 3036POPC   D2A40156  42.628  27.986   8.381
 3036POPC   C3A40157  42.415  28.134   7.995
 3036POPC   C4A40158  42.527  28.449   7.707
 3036POPC   C1B40159  42.329  28.724   8.666
 3036POPC   C2B40160  42.374  28.647   8.216
 3036POPC   C3B40161  42.246  28.852   7.834
 3036POPC   C4B40162  42.241  28.751   7.408
 3037POPC   NC340163  29.292  23.139   9.465
 3037POPC   PO440164  28.615  23.096   9.388
 3037POPC   GL140165  28.894  22.925   9.059
 3037POPC   GL240166  29.283  22.861   9.022
 3037POPC   C1A40167  28.964  22.728   8.661
 3037POPC   D2A40168  29.264  22.589   8.364
 3037POPC   C3A40169  29.066  22.518   7.967
 3037POPC   C4A40170  29.214  22.680   7.575
 3037POPC   C1B40171  29.238  23.207   8.769
 3037POPC   C2B40172  29.387  23.104   8.383
 3037POPC   C3B40173  29.183  23.023   8.010
 3037POPC   C4B40174  29.125  23.317   7.685
 3038POPC   NC340175  18.850   4.524   9.431
 3038POPC   PO440176  19.421   4.465   9.427
 3038POPC   GL140177  19.213   4.113   9.227
 3038POPC   GL240178  19.465   3.903   9.091
 3038POPC   C1A40179  19.023   4.015   8.816
 3038POPC   D2A40180  19.167   4.136   8.377
 3038POPC   C3A40181  18.849   4.142   8.045
 3038POPC   C4A40182  18.795   4.460   7.749
 3038POPC   C1B40183  19.492   4.217   8.754
 3038POPC   C2B40184  19.577   4.509   8.404
 3038POPC   C3B40185  19.519   4.618   7.998
 3038POPC   C4B40186  19.288   4.340   7.762
 3039POPC   NC340187  38.704   0.332   9.549
 3039POPC   PO440188  38.342   0.966   9.601
 3039POPC   GL140189  38.298   0.584   9.288
 3039POPC   GL240190  38.624   0.527   9.088
 3039POPC   C1A40191  38.195   0.357   8.877
 3039POPC   D2A40192  38.129   0.368   8.413
 3039POPC   C3A40193  38.499   0.368   8.112
 3039POPC   C4A40194  38.509   0.285   7.673
 3039POPC   C1B40195  38.650   0.410   8.632
 3039POPC   C2B40196  38.902   0.672   8.365
 3039POPC   C3B40197  38.864   0.833   7.966
 3039POPC   C4B40198  38.875   0.630   7.578
 3040POPC   NC340199  40.175  35.174   9.459
 3040POPC   PO440200  40.213  35.757   9.242
 3040POPC   GL140201  40.006  35.523   9.028
 3040POPC   GL240202  40.219  35.243   8.965
 3040POPC   C1A40203  39.981  35.473   8.586
 3040POPC   D2A40204  39.899  35.705   8.262
 3040POPC   C3A40205  39.898  35.567   7.899
 3040POPC   C4A40206  40.304  35.386   7.833
 3040POPC   C1B40207  39.758  35.124   8.883
 3040POPC   C2B40208  39.632  35.039   8.484
 3040POPC   C3B40209  39.926  35.137   8.182
 3040POPC   C4B40210  39.859  35.078   7.771
 3041POPC   NC340211  20.088   1.147   9.556
 3041POPC   PO440212  19.428   1.383   9.601
 3041POPC   GL140213  19.605   1.376   9.210
 3041POPC   GL240214  19.574   1.038   9.173
 3041POPC   C1A40215  19.925   1.246   8.883
 3041POPC   D2A40216  20.031   0.902   8.591
 3041POPC   C3A40217  20.082   1.071   8.177
 3041POPC   C4A40218  19.922   1.097   7.758
 3041POPC   C1B40219  19.414   1.163   8.778
 3041POPC   C2B40220  19.614   1.099   8.399
 3041POPC   C3B40221  19.464   1.114   8.005
 3041POPC   C4B40222  19.465   1.351   7.645
 3042POPC   NC340223  39.476  32.245   9.424
 3042POPC   PO440224  38.891  32.280   9.623
 3042POPC   GL140225  38.982  32.248   9.158
 3042POPC   GL240226  39.345  32.264   8.945
 3042POPC   C1A40227  38.915  32.170   8.714
 3042POPC   D2A40228  39.205  32.126   8.360
 3042POPC   C3A40229  38.984  32.154   7.950
 3042POPC   C4A40230  38.893  32.442   7.627
 3042POPC   C1B40231  39.719  32.154   8.667
 3042POPC   C2B40232  39.737  31.925   8.285
 3042POPC   C3B40233  39.500  32.045   7.911
 3042POPC   C4B40234  39.339  32.186   7.529
 3043POPC   NC340235  25.189  24.923   9.600
 3043POPC   PO440236  25.657  25.365   9.544
 3043POPC   GL140237  25.521  25.481   9.147
 3043POPC   GL240238  25.234  25.277   9.187
 3043POPC   C1A40239  25.458  25.281   8.731
 3043POPC   D2A40240  25.206  25.122   8.382
 3043POPC   C3A40241  25.377  25.033   7.981
 3043POPC   C4A40242  25.217  25.073   7.570
 3043POPC   C1B40243  25.012  25.006   8.864
 3043POPC   C2B40244  24.812  24.808   8.488
 3043POPC   C3B40245  24.979  24.720   8.092
 3043POPC   C4B40246  24.850  24.743   7.698
 3044POPC   NC340247  26.494  16.022   9.595
 3044POPC   PO440248  26.946  15.605   9.271
 3044POPC   GL140249  26.730  15.909   9.159
 3044POPC   GL240250  26.414  15.726   9.195
 3044POPC   C1A40251  26.820  16.089   8.769
 3044POPC   D2A40252  27.016  16.203   8.361
 3044POPC   C3A40253  27.106  15.889   8.045
 3044POPC   C4A40254  26.940  15.889   7.638
 3044POPC   C1B40255  26.530  15.616   8.772
 3044POPC   C2B40256  26.815  15.674   8.434
 3044POPC   C3B40257  26.625  15.754   8.056
 3044POPC   C4B40258  26.443  15.847   7.710
 3045POPC   NC340259  27.674  29.167   9.539
 3045POPC   PO440260  27.382  29.746   9.497
 3045POPC   GL140261  27.420  29.408   9.108
 3045POPC   GL240262  27.645  29.074   9.060
 3045POPC   C1A40263  27.418  29.247   8.659
 3045POPC   D2A40264  27.390  28.969   8.318
 3045POPC   C3A40265  27.441  29.182   7.917
 3045POPC   C4A40266  27.635  29.116   7.520
 3045POPC   C1B40267  27.915  29.127   8.689
 3045POPC   C2B40268  27.855  29.190   8.247
 3045POPC   C3B40269  27.978  29.345   7.844
 3045POPC   C4B40270  28.020  29.408   7.348
 3046POPC   NC340271  19.242  38.712   9.294
 3046POPC   PO440272  18.807  38.482   9.846
 3046POPC   GL140273  18.908  38.303   9.366
 3046POPC   GL240274  19.222  38.149   9.259
 3046POPC   C1A40275  18.864  38.307   8.867
 3046POPC   D2A40276  18.733  38.273   8.399
 3046POPC   C3A40277  18.887  38.570   8.064
 3046POPC   C4A40278  19.055  38.874   7.752
 3046POPC   C1B40279  19.379  38.232   8.825
 3046POPC   C2B40280  19.251  38.456   8.440
 3046POPC   C3B40281  19.395  38.454   8.001
 3046POPC   C4B40282  19.317  38.415   7.539
 3047POPC   NC340283  19.851  40.335   9.568
 3047POPC   PO440284  19.722  40.921   9.456
 3047POPC   GL140285  19.799  40.583   9.135
 3047POPC   GL240286  19.553  40.301   9.168
 3047POPC   C1A40287  19.987  40.434   8.777
 3047POPC   D2A40288  20.081  40.650   8.398
 3047POPC   C3A40289  20.008  40.525   7.991
 3047POPC   C4A40290  19.823  40.852   7.758
 3047POPC   C1B40291  19.441  40.448   8.761
 3047POPC   C2B40292  19.648  40.361   8.377
 3047POPC   C3B40293  19.484  40.544   8.046
 3047POPC   C4B40294  19.444  40.529   7.639
 3048POPC   NC340295  16.361  39.712   9.544
 3048POPC   PO440296  15.718  39.891   9.496
 3048POPC   GL140297  15.923  40.020   9.137
 3048POPC   GL240298  15.621  40.219   9.065
 3048POPC   C1A40299  16.223  39.858   8.815
 3048POPC   D2A40300  16.331  39.978   8.386
 3048POPC   C3A40301  16.203  39.821   7.991
 3048POPC   C4A40302  15.936  40.021   7.704
 3048POPC   C1B40303  15.660  40.067   8.657
 3048POPC   C2B40304  15.753  40.026   8.225
 3048POPC   C3B40305  15.559  40.310   7.928
 3048POPC   C4B40306  15.724  40.516   7.573
 3049POPC   NC340307  21.013  41.876   9.336
 3049POPC   PO440308  21.654  42.148   9.488
 3049POPC   GL140309  21.432  42.226   9.107
 3049POPC   GL240310  21.112  42.359   9.151
 3049POPC   C1A40311  21.632  42.237   8.727
 3049POPC   D2A40312  21.774  42.110   8.328
 3049POPC   C3A40313  21.608  42.375   8.045
 3049POPC   C4A40314  21.248  42.335   7.790
 3049POPC   C1B40315  21.169  42.441   8.668
 3049POPC   C2B40316  21.171  42.609   8.234
 3049POPC   C3B40317  21.144  42.834   7.832
 3049POPC   C4B40318  21.277  42.715   7.399
 3050POPC   NC340319  15.447   1.545   9.521
 3050POPC   PO440320  15.258   2.243   9.516
 3050POPC   GL140321  15.294   2.023   9.154
 3050POPC   GL240322  15.418   2.329   9.025
 3050POPC   C1A40323  15.081   1.872   8.763
 3050POPC   D2A40324  15.223   1.729   8.329
 3050POPC   C3A40325  15.085   1.974   7.972
 3050POPC   C4A40326  15.338   2.355   7.856
 3050POPC   C1B40327  15.569   2.040   8.721
 3050POPC   C2B40328  15.710   2.059   8.332
 3050POPC   C3B40329  15.578   1.904   7.968
 3050POPC   C4B40330  15.480   1.941   7.539
 3051POPC   NC340331  22.230  12.857   9.623
 3051POPC   PO440332  21.735  12.549   9.367
 3051POPC   GL140333  22.034  12.902   9.155
 3051POPC   GL240334  22.400  13.017   9.191
 3051POPC   C1A40335  22.177  13.095   8.760
 3051POPC   D2A40336  21.881  13.092   8.464
 3051POPC   C3A40337  21.831  12.704   8.266
 3051POPC   C4A40338  21.939  12.734   7.849
 3051POPC   C1B40339  22.450  12.590   8.977
 3051POPC   C2B40340  22.558  12.436   8.527
 3051POPC   C3B40341  22.399  12.560   8.090
 3051POPC   C4B40342  22.358  12.984   7.806
 3052POPC   NC340343  19.563  20.587   9.482
 3052POPC   PO440344  20.022  20.036   9.400
 3052POPC   GL140345  19.866  20.388   9.091
 3052POPC   GL240346  19.591  20.670   8.989
 3052POPC   C1A40347  19.912  20.445   8.644
 3052POPC   D2A40348  19.755  20.776   8.425
 3052POPC   C3A40349  19.718  20.763   7.952
 3052POPC   C4A40350  19.955  20.785   7.531
 3052POPC   C1B40351  19.435  20.270   8.803
 3052POPC   C2B40352  19.277  20.217   8.371
 3052POPC   C3B40353  19.307  20.424   7.968
 3052POPC   C4B40354  19.547  20.450   7.569
 3053POPC   NC340355   6.714   5.624   9.612
 3053POPC   PO440356   6.937   6.296   9.599
 3053POPC   GL140357   6.725   6.008   9.270
 3053POPC   GL240358   6.377   5.837   9.278
 3053POPC   C1A40359   6.644   6.033   8.828
 3053POPC   D2A40360   6.954   6.116   8.494
 3053POPC   C3A40361   6.795   5.929   8.128
 3053POPC   C4A40362   6.574   6.123   7.788
 3053POPC   C1B40363   6.271   5.641   8.878
 3053POPC   C2B40364   6.355   5.746   8.426
 3053POPC   C3B40365   6.433   5.567   8.002
 3053POPC   C4B40366   6.431   5.623   7.553
 3054POPC   NC340367  18.415  12.546   9.721
 3054POPC   PO440368  17.902  12.934   9.685
 3054POPC   GL140369  18.264  12.716   9.288
 3054POPC   GL240370  18.569  12.814   9.150
 3054POPC   C1A40371  18.268  12.532   8.810
 3054POPC   D2A40372  18.064  12.700   8.417
 3054POPC   C3A40373  18.287  12.722   8.019
 3054POPC   C4A40374  18.062  12.478   7.716
 3054POPC   C1B40375  18.765  12.609   8.783
 3054POPC   C2B40376  18.749  12.463   8.341
 3054POPC   C3B40377  18.800  12.650   7.918
 3054POPC   C4B40378  18.592  12.981   7.667
 3055POPC   NC340379  20.418  39.742   9.461
 3055POPC   PO440380  19.743  39.879   9.559
 3055POPC   GL140381  19.819  39.868   9.155
 3055POPC   GL240382  20.059  40.081   9.145
 3055POPC   C1A40383  19.690  39.995   8.749
 3055POPC   D2A40384  19.534  39.824   8.360
 3055POPC   C3A40385  19.485  40.034   7.965
 3055POPC   C4A40386  19.649  39.710   7.762
 3055POPC   C1B40387  20.226  39.909   8.786
 3055POPC   C2B40388  20.145  40.113   8.415
 3055POPC   C3B40389  19.981  40.007   8.067
 3055POPC   C4B40390  20.002  40.093   7.680
 3056POPC   NC340391  38.128  21.633   9.500
 3056POPC   PO440392  38.623  21.181   9.558
 3056POPC   GL140393  38.624  21.099   9.142
 3056POPC   GL240394  38.395  21.391   9.098
 3056POPC   C1A40395  38.785  21.209   8.748
 3056POPC   D2A40396  38.639  21.489   8.438
 3056POPC   C3A40397  38.566  21.381   8.008
 3056POPC   C4A40398  38.336  21.608   7.741
 3056POPC   C1B40399  38.255  21.703   8.774
 3056POPC   C2B40400  38.181  21.691   8.330
 3056POPC   C3B40401  37.916  21.673   8.001
 3056POPC   C4B40402  37.863  21.530   7.575
 3057POPC   NC340403  39.455  19.299   9.505
 3057POPC   PO440404  38.948  18.795   9.463
 3057POPC   GL140405  39.268  18.925   9.173
 3057POPC   GL240406  39.170  19.284   9.091
 3057POPC   C1A40407  39.222  18.931   8.740
 3057POPC   D2A40408  39.029  18.981   8.360
 3057POPC   C3A40409  39.328  18.771   8.112
 3057POPC   C4A40410  39.298  18.748   7.674
 3057POPC   C1B40411  39.140  19.440   8.666
 3057POPC   C2B40412  39.244  19.475   8.225
 3057POPC   C3B40413  39.293  19.210   7.866
 3057POPC   C4B40414  39.141  19.239   7.405
 3058POPC   NC340415  20.793  15.571   9.860
 3058POPC   PO440416  20.409  15.218   9.387
 3058POPC   GL140417  20.551  15.203   8.980
 3058POPC   GL240418  20.761  14.923   8.964
 3058POPC   C1A40419  20.526  15.524   8.670
 3058POPC   D2A40420  20.432  15.563   8.235
 3058POPC   C3A40421  20.828  15.443   8.057
 3058POPC   C4A40422  20.925  15.090   7.791
 3058POPC   C1B40423  20.533  14.824   8.614
 3058POPC   C2B40424  20.609  15.062   8.275
 3058POPC   C3B40425  20.422  15.167   7.895
 3058POPC   C4B40426  20.112  14.969   7.641
 3059POPC   NC340427  20.453  30.992   9.541
 3059POPC   PO440428  20.861  30.513   9.774
 3059POPC   GL140429  20.766  30.630   9.319
 3059POPC   GL240430  20.392  30.568   9.224
 3059POPC   C1A40431  20.731  30.640   8.840
 3059POPC   D2A40432  20.684  30.469   8.417
 3059POPC   C3A40433  20.818  30.751   8.079
 3059POPC   C4A40434  20.645  30.735   7.680
 3059POPC   C1B40435  20.187  30.471   8.807
 3059POPC   C2B40436  20.066  30.503   8.357
 3059POPC   C3B40437  20.367  30.440   8.011
 3059POPC   C4B40438  20.330  30.319   7.570
 3060POPC   NC340439   7.795  11.757   9.143
 3060POPC   PO440440   7.338  11.418   9.477
 3060POPC   GL140441   7.428  11.360   9.078
 3060POPC   GL240442   7.696  11.139   9.095
 3060POPC   C1A40443   7.254  11.157   8.709
 3060POPC   D2A40444   7.204  11.351   8.318
 3060POPC   C3A40445   7.424  11.215   7.951
 3060POPC   C4A40446   7.637  11.170   7.541
 3060POPC   C1B40447   7.708  11.363   8.659
 3060POPC   C2B40448   7.769  11.464   8.267
 3060POPC   C3B40449   7.938  11.289   7.930
 3060POPC   C4B40450   7.789  11.619   7.732
 3061POPC   NC340451  16.455  42.447   9.512
 3061POPC   PO440452  16.453  41.838   9.225
 3061POPC   GL140453  16.496  42.262   9.019
 3061POPC   GL240454  16.345  42.618   9.035
 3061POPC   C1A40455  16.730  42.279   8.621
 3061POPC   D2A40456  17.093  42.193   8.347
 3061POPC   C3A40457  16.893  42.251   7.969
 3061POPC   C4A40458  16.496  42.374   7.879
 3061POPC   C1B40459  16.766  42.708   8.891
 3061POPC   C2B40460  16.955  42.753   8.495
 3061POPC   C3B40461  17.000  42.822   8.069
 3061POPC   C4B40462  16.999  42.657   7.662
 3062POPC   NC340463  32.049  10.669   9.546
 3062POPC   PO440464  32.413  10.010   9.595
 3062POPC   GL140465  32.375  10.395   9.238
 3062POPC   GL240466  32.047  10.467   9.100
 3062POPC   C1A40467  32.453  10.586   8.826
 3062POPC   D2A40468  32.221  10.714   8.484
 3062POPC   C3A40469  32.346  10.771   8.048
 3062POPC   C4A40470  32.677  10.701   7.745
 3062POPC   C1B40471  32.015  10.278   8.744
 3062POPC   C2B40472  32.149  10.144   8.385
 3062POPC   C3B40473  32.166  10.293   8.032
 3062POPC   C4B40474  32.237  10.461   7.652
 3063POPC   NC340475  42.879  37.796   9.290
 3063POPC   PO440476  43.134  38.394   9.561
 3063POPC   GL140477  43.190  38.646   9.142
 3063POPC   GL240478  43.532  38.658   9.199
 3063POPC   C1A40479  43.262  38.610   8.667
 3063POPC   D2A40480  43.102  38.350   8.328
 3063POPC   C3A40481  43.186  38.532   7.927
 3063POPC   C4A40482  43.369  38.354   7.541
 3063POPC   C1B40483  43.467  38.253   8.973
 3063POPC   C2B40484  43.341  38.017   8.650
 3063POPC   C3B40485  43.459  37.778   8.294
 3063POPC   C4B40486  43.557  38.017   7.893
 3064POPC   NC340487   7.201   4.771   9.426
 3064POPC   PO440488   7.532   4.246   9.482
 3064POPC   GL140489   7.455   4.290   9.083
 3064POPC   GL240490   7.156   4.386   9.092
 3064POPC   C1A40491   7.338   4.143   8.667
 3064POPC   D2A40492   7.584   4.211   8.325
 3064POPC   C3A40493   7.546   3.950   8.012
 3064POPC   C4A40494   7.625   4.149   7.661
 3064POPC   C1B40495   7.005   4.540   8.731
 3064POPC   C2B40496   7.210   4.580   8.348
 3064POPC   C3B40497   7.364   4.502   7.939
 3064POPC   C4B40498   7.239   4.755   7.624
 3065POPC   NC340499  25.927   3.420   9.551
 3065POPC   PO440500  26.544   3.120   9.366
 3065POPC   GL140501  26.234   3.389   9.083
 3065POPC   GL240502  25.872   3.401   9.059
 3065POPC   C1A40503  26.107   3.728   8.775
 3065POPC   D2A40504  25.881   3.631   8.384
 3065POPC   C3A40505  26.166   3.683   8.065
 3065POPC   C4A40506  26.197   3.522   7.656
 3065POPC   C1B40507  25.652   3.293   8.704
 3065POPC   C2B40508  25.498   3.233   8.277
 3065POPC   C3B40509  25.690   3.354   7.875
 3065POPC   C4B40510  25.717   3.464   7.424
 3066POPC   NC340511  44.732  16.269   9.456
 3066POPC   PO440512  44.593  15.669   9.607
 3066POPC   GL140513  44.457  15.802   9.187
 3066POPC   GL240514  44.379  16.156   9.073
 3066POPC   C1A40515  44.604  15.852   8.743
 3066POPC   D2A40516  44.364  16.073   8.429
 3066POPC   C3A40517  44.517  15.971   8.018
 3066POPC   C4A40518  44.847  15.849   7.739
 3066POPC   C1B40519  44.704  16.337   8.796
 3066POPC   C2B40520  44.858  16.212   8.397
 3066POPC   C3B40521   0.063  16.230   7.997
 3066POPC   C4B40522  44.944  16.417   7.635
 3067POPC   NC340523   6.357   0.003   9.520
 3067POPC   PO440524   6.688  44.469   9.761
 3067POPC   GL140525   6.737  44.500   9.317
 3067POPC   GL240526   6.410  44.587   9.219
 3067POPC   C1A40527   6.834  44.727   8.917
 3067POPC   D2A40528   6.822  44.899   8.476
 3067POPC   C3A40529   6.919  44.781   8.038
 3067POPC   C4A40530   6.743  44.909   7.649
 3067POPC   C1B40531   6.350  44.906   8.890
 3067POPC   C2B40532   6.316  44.804   8.486
 3067POPC   C3B40533   6.397  44.788   8.067
 3067POPC   C4B40534   6.304  44.635   7.679
 3068POPC   NC340535  23.217  39.559   9.665
 3068POPC   PO440536  23.188  38.961   9.474
 3068POPC   GL140537  22.842  39.121   9.216
 3068POPC   GL240538  22.815  39.440   9.311
 3068POPC   C1A40539  22.652  39.071   8.813
 3068POPC   D2A40540  22.752  39.193   8.437
 3068POPC   C3A40541  22.750  38.913   8.088
 3068POPC   C4A40542  23.118  38.922   7.821
 3068POPC   C1B40543  22.921  39.567   8.892
 3068POPC   C2B40544  22.901  39.700   8.466
 3068POPC   C3B40545  22.864  39.526   8.066
 3068POPC   C4B40546  22.651  39.400   7.721
 3069POPC   NC340547  23.017  35.927   9.532
 3069POPC   PO440548  22.461  36.324   9.451
 3069POPC   GL140549  22.653  36.017   9.176
 3069POPC   GL240550  23.023  36.017   9.053
 3069POPC   C1A40551  22.613  35.997   8.774
 3069POPC   D2A40552  22.834  36.140   8.453
 3069POPC   C3A40553  22.797  35.967   8.036
 3069POPC   C4A40554  22.760  36.201   7.669
 3069POPC   C1B40555  23.276  36.001   8.688
 3069POPC   C2B40556  23.297  36.019   8.249
 3069POPC   C3B40557  23.446  36.234   7.887
 3069POPC   C4B40558  23.216  35.937   7.717
 3070POPC   NC340559   9.948  13.909   9.412
 3070POPC   PO440560   9.762  14.537   9.554
 3070POPC   GL140561   9.822  14.382   9.160
 3070POPC   GL240562   9.549  14.116   9.133
 3070POPC   C1A40563   9.917  14.649   8.792
 3070POPC   D2A40564   9.683  14.622   8.410
 3070POPC   C3A40565   9.695  14.649   7.994
 3070POPC   C4A40566  10.076  14.819   7.859
 3070POPC   C1B40567   9.675  14.203   8.708
 3070POPC   C2B40568   9.609  14.153   8.286
 3070POPC   C3B40569   9.664  13.930   7.953
 3070POPC   C4B40570   9.724  13.958   7.533
 3071POPC   NC340571  10.805   2.207   9.281
 3071POPC   PO440572  11.394   1.984   9.619
 3071POPC   GL140573  11.417   1.866   9.201
 3071POPC   GL240574  11.287   2.162   9.103
 3071POPC   C1A40575  11.344   1.764   8.777
 3071POPC   D2A40576  11.124   1.899   8.405
 3071POPC   C3A40577  11.326   1.735   8.048
 3071POPC   C4A40578  11.266   1.916   7.669
 3071POPC   C1B40579  11.335   2.367   8.688
 3071POPC   C2B40580  11.278   2.370   8.229
 3071POPC   C3B40581  11.285   2.421   7.792
 3071POPC   C4B40582  11.596   2.279   7.482
 3072POPC   NC340583  27.697  37.896   9.757
 3072POPC   PO440584  27.394  37.341   9.580
 3072POPC   GL140585  27.474  37.632   9.254
 3072POPC   GL240586  27.202  37.541   9.081
 3072POPC   C1A40587  27.678  37.657   8.852
 3072POPC   D2A40588  27.750  37.957   8.550
 3072POPC   C3A40589  27.800  37.918   8.108
 3072POPC   C4A40590  27.728  37.590   7.848
 3072POPC   C1B40591  27.215  37.630   8.659
 3072POPC   C2B40592  27.461  37.562   8.302
 3072POPC   C3B40593  27.273  37.385   7.949
 3072POPC   C4B40594  27.267  37.531   7.574
 3073POPC   NC340595  15.560  36.592   9.397
 3073POPC   PO440596  15.017  36.865   9.546
 3073POPC   GL140597  15.049  37.067   9.182
 3073POPC   GL240598  15.397  37.005   9.148
 3073POPC   C1A40599  15.027  36.939   8.787
 3073POPC   D2A40600  15.140  37.093   8.412
 3073POPC   C3A40601  15.155  36.804   8.104
 3073POPC   C4A40602  15.030  36.921   7.724
 3073POPC   C1B40603  15.539  37.086   8.755
 3073POPC   C2B40604  15.624  36.917   8.348
 3073POPC   C3B40605  15.573  37.054   7.919
 3073POPC   C4B40606  15.482  36.750   7.606
 3074POPC   NC340607  18.525  17.005   9.435
 3074POPC   PO440608  18.012  16.568   9.550
 3074POPC   GL140609  18.218  16.675   9.173
 3074POPC   GL240610  18.359  16.369   9.052
 3074POPC   C1A40611  18.377  16.841   8.774
 3074POPC   D2A40612  18.534  16.769   8.376
 3074POPC   C3A40613  18.418  16.976   7.991
 3074POPC   C4A40614  18.509  16.793   7.616
 3074POPC   C1B40615  18.046  16.397   8.767
 3074POPC   C2B40616  18.061  16.542   8.376
 3074POPC   C3B40617  18.254  16.490   8.011
 3074POPC   C4B40618  18.095  16.530   7.613
 3075POPC   NC340619   6.116  11.747   9.734
 3075POPC   PO440620   5.610  12.219   9.594
 3075POPC   GL140621   5.669  12.094   9.186
 3075POPC   GL240622   5.928  11.854   9.229
 3075POPC   C1A40623   5.749  12.044   8.753
 3075POPC   D2A40624   5.886  12.187   8.374
 3075POPC   C3A40625   5.554  12.139   8.108
 3075POPC   C4A40626   5.531  11.977   7.680
 3075POPC   C1B40627   6.191  11.788   8.862
 3075POPC   C2B40628   6.343  11.933   8.455
 3075POPC   C3B40629   6.233  11.964   8.050
 3075POPC   C4B40630   6.070  12.002   7.637
 3076POPC   NC340631   6.429  30.717   9.590
 3076POPC   PO440632   7.041  30.441   9.405
 3076POPC   GL140633   6.726  30.737   9.161
 3076POPC   GL240634   6.358  30.780   9.086
 3076POPC   C1A40635   6.744  30.743   8.714
 3076POPC   D2A40636   6.782  30.883   8.303
 3076POPC   C3A40637   6.717  30.582   7.990
 3076POPC   C4A40638   6.802  30.212   7.733
 3076POPC   C1B40639   6.277  30.924   8.648
 3076POPC   C2B40640   6.321  30.647   8.338
 3076POPC   C3B40641   6.226  30.727   7.945
 3076POPC   C4B40642   6.413  30.637   7.570
 3077POPC   NC340643  40.954  40.493   9.477
 3077POPC   PO440644  40.708  41.048   9.578
 3077POPC   GL140645  40.890  40.922   9.189
 3077POPC   GL240646  40.653  40.658   9.099
 3077POPC   C1A40647  40.892  40.888   8.739
 3077POPC   D2A40648  40.902  40.682   8.396
 3077POPC   C3A40649  40.813  40.915   8.053
 3077POPC   C4A40650  41.106  40.984   7.766
 3077POPC   C1B40651  40.464  40.548   8.722
 3077POPC   C2B40652  40.507  40.387   8.325
 3077POPC   C3B40653  40.803  40.403   7.977
 3077POPC   C4B40654  40.631  40.594   7.649
 3078POPC   NC340655  35.966   7.383   9.453
 3078POPC   PO440656  36.000   8.109   9.528
 3078POPC   GL140657  35.900   7.823   9.145
 3078POPC   GL240658  35.690   7.527   9.040
 3078POPC   C1A40659  36.113   7.709   8.754
 3078POPC   D2A40660  36.163   7.498   8.349
 3078POPC   C3A40661  35.958   7.680   7.988
 3078POPC   C4A40662  36.162   7.675   7.552
 3078POPC   C1B40663  35.907   7.240   8.743
 3078POPC   C2B40664  35.772   7.168   8.310
 3078POPC   C3B40665  36.024   7.200   7.931
 3078POPC   C4B40666  36.089   7.117   7.477
 3079POPC   NC340667  14.599   1.259   9.530
 3079POPC   PO440668  14.087   0.858   9.585
 3079POPC   GL140669  14.177   1.081   9.187
 3079POPC   GL240670  14.513   0.974   9.116
 3079POPC   C1A40671  14.234   1.149   8.712
 3079POPC   D2A40672  14.502   1.129   8.304
 3079POPC   C3A40673  14.334   0.898   7.928
 3079POPC   C4A40674  14.129   1.037   7.537
 3079POPC   C1B40675  14.660   1.379   8.855
 3079POPC   C2B40676  14.744   1.589   8.467
 3079POPC   C3B40677  14.818   1.527   8.027
 3079POPC   C4B40678  14.477   1.378   7.748
 3080POPC   NC340679  32.676  24.876   9.206
 3080POPC   PO440680  32.200  24.659   9.653
 3080POPC   GL140681  32.235  24.595   9.191
 3080POPC   GL240682  32.460  24.315   9.074
 3080POPC   C1A40683  32.109  24.672   8.777
 3080POPC   D2A40684  32.323  24.803   8.392
 3080POPC   C3A40685  32.024  24.726   8.083
 3080POPC   C4A40686  32.077  24.433   7.789
 3080POPC   C1B40687  32.492  24.352   8.638
 3080POPC   C2B40688  32.279  24.284   8.266
 3080POPC   C3B40689  32.469  24.122   7.911
 3080POPC   C4B40690  32.618  24.241   7.550
 3081POPC   NC340691  28.085  24.092   9.529
 3081POPC   PO440692  28.236  24.793   9.747
 3081POPC   GL140693  28.193  24.495   9.284
 3081POPC   GL240694  28.514  24.394   9.085
 3081POPC   C1A40695  28.074  24.327   8.856
 3081POPC   D2A40696  28.308  24.183   8.492
 3081POPC   C3A40697  28.290  24.325   8.056
 3081POPC   C4A40698  28.061  24.217   7.669
 3081POPC   C1B40699  28.494  24.625   8.687
 3081POPC   C2B40700  28.615  24.738   8.253
 3081POPC   C3B40701  28.500  24.880   7.839
 3081POPC   C4B40702  28.375  24.572   7.548
 3082POPC   NC340703   1.140  29.658   9.761
 3082POPC   PO440704   1.002  30.285   9.512
 3082POPC   GL140705   1.249  30.197   9.137
 3082POPC   GL240706   1.607  30.088   9.199
 3082POPC   C1A40707   1.085  30.066   8.708
 3082POPC   D2A40708   0.917  30.097   8.274
 3082POPC   C3A40709   1.201  29.976   7.907
 3082POPC   C4A40710   1.075  29.780   7.466
 3082POPC   C1B40711   1.606  29.879   8.784
 3082POPC   C2B40712   1.452  29.850   8.356
 3082POPC   C3B40713   1.579  29.622   7.990
 3082POPC   C4B40714   1.586  29.783   7.564
 3083POPC   NC340715  31.483  21.766   9.761
 3083POPC   PO440716  31.583  21.192   9.434
 3083POPC   GL140717  31.494  21.319   9.054
 3083POPC   GL240718  31.811  21.519   8.971
 3083POPC   C1A40719  31.206  21.178   8.705
 3083POPC   D2A40720  31.014  21.312   8.339
 3083POPC   C3A40721  31.162  21.371   7.919
 3083POPC   C4A40722  31.074  21.280   7.482
 3083POPC   C1B40723  31.537  21.567   8.612
 3083POPC   C2B40724  31.349  21.723   8.292
 3083POPC   C3B40725  31.298  22.019   8.023
 3083POPC   C4B40726  31.236  21.799   7.649
 3084POPC   NC340727  11.535  16.141   9.383
 3084POPC   PO440728  11.283  15.539   9.641
 3084POPC   GL140729  11.141  15.835   9.257
 3084POPC   GL240730  10.807  15.683   9.251
 3084POPC   C1A40731  11.286  16.083   8.817
 3084POPC   D2A40732  11.600  16.027   8.468
 3084POPC   C3A40733  11.440  16.049   8.051
 3084POPC   C4A40734  11.021  16.201   7.985
 3084POPC   C1B40735  10.949  15.715   8.803
 3084POPC   C2B40736  11.048  15.869   8.401
 3084POPC   C3B40737  11.038  15.667   8.014
 3084POPC   C4B40738  11.315  15.677   7.687
 3085POPC   NC340739  38.183  14.855   9.508
 3085POPC   PO440740  37.514  15.004   9.606
 3085POPC   GL140741  37.686  15.100   9.196
 3085POPC   GL240742  37.927  14.897   9.100
 3085POPC   C1A40743  37.767  15.284   8.779
 3085POPC   D2A40744  37.993  15.316   8.369
 3085POPC   C3A40745  37.683  15.262   8.051
 3085POPC   C4A40746  37.392  15.584   7.919
 3085POPC   C1B40747  38.074  14.894   8.688
 3085POPC   C2B40748  37.918  14.823   8.289
 3085POPC   C3B40749  38.063  14.941   7.885
 3085POPC   C4B40750  38.234  15.242   7.572
 3086POPC   NC340751  13.371  12.670   9.742
 3086POPC   PO440752  13.827  13.129   9.551
 3086POPC   GL140753  13.831  12.881   9.167
 3086POPC   GL240754  13.521  12.726   9.239
 3086POPC   C1A40755  13.842  12.914   8.710
 3086POPC   D2A40756  13.596  12.812   8.370
 3086POPC   C3A40757  13.558  13.007   8.011
 3086POPC   C4A40758  13.793  12.888   7.719
 3086POPC   C1B40759  13.367  12.718   8.815
 3086POPC   C2B40760  13.190  12.487   8.424
 3086POPC   C3B40761  13.216  12.612   8.014
 3086POPC   C4B40762  13.250  12.792   7.635
 3087POPC   NC340763  42.680  17.282   9.710
 3087POPC   PO440764  43.367  17.546   9.579
 3087POPC   GL140765  43.159  17.671   9.202
 3087POPC   GL240766  43.090  17.356   9.072
 3087POPC   C1A40767  43.282  17.700   8.743
 3087POPC   D2A40768  43.179  17.369   8.468
 3087POPC   C3A40769  43.293  17.392   8.041
 3087POPC   C4A40770  43.073  17.211   7.695
 3087POPC   C1B40771  42.788  17.634   8.855
 3087POPC   C2B40772  42.737  17.639   8.410
 3087POPC   C3B40773  42.806  17.570   7.955
 3087POPC   C4B40774  42.739  17.532   7.495
 3088POPC   NC340775  32.166  23.305   9.920
 3088POPC   PO440776  32.244  22.753   9.536
 3088POPC   GL140777  32.207  22.839   9.149
 3088POPC   GL240778  32.575  22.777   9.109
 3088POPC   C1A40779  31.959  22.886   8.785
 3088POPC   D2A40780  32.120  22.951   8.364
 3088POPC   C3A40781  31.983  22.729   8.039
 3088POPC   C4A40782  32.078  23.042   7.765
 3088POPC   C1B40783  32.473  22.880   8.720
 3088POPC   C2B40784  32.615  23.060   8.383
 3088POPC   C3B40785  32.528  23.053   8.006
 3088POPC   C4B40786  32.702  23.065   7.625
 3089POPC   NC340787  34.316  37.208   9.743
 3089POPC   PO440788  34.314  36.702   9.378
 3089POPC   GL140789  34.484  37.013   9.153
 3089POPC   GL240790  34.656  36.829   8.987
 3089POPC   C1A40791  34.472  37.229   8.715
 3089POPC   D2A40792  34.316  37.277   8.274
 3089POPC   C3A40793  34.632  37.269   7.946
 3089POPC   C4A40794  34.686  37.086   7.529
 3089POPC   C1B40795  34.669  36.624   8.641
 3089POPC   C2B40796  34.718  36.628   8.238
 3089POPC   C3B40797  34.487  36.783   7.918
 3089POPC   C4B40798  34.378  36.693   7.478
 3090POPC   NC340799   9.842   6.482   9.673
 3090POPC   PO440800   9.539   7.042   9.696
 3090POPC   GL140801   9.734   6.868   9.256
 3090POPC   GL240802   9.594   6.526   9.157
 3090POPC   C1A40803   9.931   6.705   8.800
 3090POPC   D2A40804   9.882   6.469   8.347
 3090POPC   C3A40805   9.718   6.684   7.922
 3090POPC   C4A40806   9.492   6.761   7.502
 3090POPC   C1B40807   9.650   6.265   8.765
 3090POPC   C2B40808   9.447   6.136   8.384
 3090POPC   C3B40809   9.533   6.195   7.992
 3090POPC   C4B40810   9.876   6.126   7.755
 3091POPC   NC340811  19.523  31.274   9.537
 3091POPC   PO440812  20.069  31.764   9.672
 3091POPC   GL140813  19.934  31.508   9.326
 3091POPC   GL240814  19.647  31.670   9.168
 3091POPC   C1A40815  19.927  31.337   8.892
 3091POPC   D2A40816  19.816  31.569   8.507
 3091POPC   C3A40817  20.057  31.585   8.117
 3091POPC   C4A40818  19.941  31.723   7.704
 3091POPC   C1B40819  19.419  31.452   8.817
 3091POPC   C2B40820  19.325  31.410   8.394
 3091POPC   C3B40821  19.554  31.497   8.053
 3091POPC   C4B40822  19.651  31.273   7.734
 3092POPC   NC340823   6.155  44.398   9.646
 3092POPC   PO440824   5.830  44.909   9.522
 3092POPC   GL140825   5.899  44.636   9.208
 3092POPC   GL240826   5.653  44.427   9.091
 3092POPC   C1A40827   5.877  44.770   8.792
 3092POPC   D2A40828   5.953   0.135   8.562
 3092POPC   C3A40829   5.937   0.013   8.160
 3092POPC   C4A40830   5.936   0.032   7.739
 3092POPC   C1B40831   5.659  44.322   8.672
 3092POPC   C2B40832   5.927  44.487   8.346
 3092POPC   C3B40833   6.096  44.285   7.997
 3092POPC   C4B40834   5.893  44.352   7.597
 3093POPC   NC340835  17.712  44.782   9.350
 3093POPC   PO440836  18.435  44.596   9.495
 3093POPC   GL140837  18.201  44.566   9.172
 3093POPC   GL240838  18.123  44.875   9.054
 3093POPC   C1A40839  18.360  44.485   8.775
 3093POPC   D2A40840  18.435  44.216   8.407
 3093POPC   C3A40841  18.396  44.339   7.988
 3093POPC   C4A40842  18.435  44.436   7.564
 3093POPC   C1B40843  18.367  44.998   8.714
 3093POPC   C2B40844  18.494  44.764   8.360
 3093POPC   C3B40845  18.519  44.841   7.946
 3093POPC   C4B40846  18.146  44.858   7.738
 3094POPC   NC340847  33.698   0.969   9.704
 3094POPC   PO440848  33.388   1.535   9.458
 3094POPC   GL140849  33.690   1.277   9.159
 3094POPC   GL240850  33.902   0.977   9.226
 3094POPC   C1A40851  34.029   1.275   8.830
 3094POPC   D2A40852  33.831   1.200   8.422
 3094POPC   C3A40853  34.044   1.259   8.019
 3094POPC   C4A40854  33.713   1.255   7.694
 3094POPC   C1B40855  33.775   0.829   8.816
 3094POPC   C2B40856  33.909   0.701   8.397
 3094POPC   C3B40857  33.798   0.824   7.981
 3094POPC   C4B40858  34.048   0.903   7.590
 3095POPC   NC340859  10.034  36.758   9.534
 3095POPC   PO440860   9.642  37.228   9.411
 3095POPC   GL140861   9.742  37.053   9.064
 3095POPC   GL240862   9.665  36.707   9.191
 3095POPC   C1A40863   9.511  37.163   8.704
 3095POPC   D2A40864   9.383  36.928   8.383
 3095POPC   C3A40865   9.708  37.037   8.158
 3095POPC   C4A40866   9.848  37.249   7.779
 3095POPC   C1B40867   9.557  36.655   8.785
 3095POPC   C2B40868   9.734  36.522   8.432
 3095POPC   C3B40869   9.634  36.513   8.054
 3095POPC   C4B40870   9.707  36.764   7.728
 3096POPC   NC340871  44.892  44.772   9.335
 3096POPC   PO440872  44.390  44.371   9.625
 3096POPC   GL140873  44.526  44.488   9.151
 3096POPC   GL240874  44.928  44.503   8.936
 3096POPC   C1A40875  44.540  44.776   8.772
 3096POPC   D2A40876  44.797  44.627   8.413
 3096POPC   C3A40877  44.655  44.819   8.039
 3096POPC   C4A40878  44.943   0.129   7.881
 3096POPC   C1B40879  44.701  44.226   8.739
 3096POPC   C2B40880  44.659  44.039   8.383
 3096POPC   C3B40881  44.619  44.290   8.051
 3096POPC   C4B40882  44.585  44.384   7.643
 3097POPC   NC340883  41.714   3.232   9.407
 3097POPC   PO440884  41.547   3.863   9.728
 3097POPC   GL140885  41.777   3.730   9.262
 3097POPC   GL240886  41.554   3.500   9.025
 3097POPC   C1A40887  41.826   3.773   8.748
 3097POPC   D2A40888  41.978   3.647   8.357
 3097POPC   C3A40889  41.684   3.474   8.112
 3097POPC   C4A40890  41.690   3.624   7.727
 3097POPC   C1B40891  41.422   3.416   8.590
 3097POPC   C2B40892  41.238   3.681   8.282
 3097POPC   C3B40893  41.198   3.763   7.862
 3097POPC   C4B40894  41.218   3.446   7.586
 3098POPC   NC340895  30.437   5.710   9.485
 3098POPC   PO440896  30.588   6.361   9.550
 3098POPC   GL140897  30.758   6.043   9.222
 3098POPC   GL240898  30.876   5.694   9.188
 3098POPC   C1A40899  30.679   5.979   8.764
 3098POPC   D2A40900  30.465   6.014   8.344
 3098POPC   C3A40901  30.715   6.012   7.955
 3098POPC   C4A40902  31.075   5.952   7.679
 3098POPC   C1B40903  30.709   5.469   8.817
 3098POPC   C2B40904  30.787   5.589   8.390
 3098POPC   C3B40905  30.888   5.509   7.965
 3098POPC   C4B40906  30.494   5.577   7.761
 3099POPC   NC340907   6.641  31.648   9.551
 3099POPC   PO440908   6.804  30.996   9.603
 3099POPC   GL140909   6.558  31.230   9.267
 3099POPC   GL240910   6.373  31.608   9.137
 3099POPC   C1A40911   6.609  31.231   8.862
 3099POPC   D2A40912   6.694  31.360   8.461
 3099POPC   C3A40913   6.396  31.203   8.169
 3099POPC   C4A40914   6.602  31.073   7.782
 3099POPC   C1B40915   6.540  31.744   8.776
 3099POPC   C2B40916   6.423  31.781   8.350
 3099POPC   C3B40917   6.600  31.645   7.959
 3099POPC   C4B40918   6.443  31.519   7.548
 3100POPC   NC340919  43.390  13.873   9.543
 3100POPC   PO440920  44.097  13.774   9.505
 3100POPC   GL140921  44.014  13.851   9.109
 3100POPC   GL240922  43.695  13.715   9.137
 3100POPC   C1A40923  43.989  13.612   8.723
 3100POPC   D2A40924  43.855  13.479   8.365
 3100POPC   C3A40925  44.094  13.569   8.064
 3100POPC   C4A40926  43.948  13.725   7.738
 3100POPC   C1B40927  43.510  13.744   8.744
 3100POPC   C2B40928  43.580  13.918   8.367
 3100POPC   C3B40929  43.515  13.689   7.988
 3100POPC   C4B40930  43.378  13.773   7.575
 3101POPC   NC340931  34.331  22.748   9.427
 3101POPC   PO440932  34.867  23.222   9.531
 3101POPC   GL140933  34.706  23.029   9.158
 3101POPC   GL240934  34.403  23.180   9.087
 3101POPC   C1A40935  34.682  22.959   8.687
 3101POPC   D2A40936  34.927  23.188   8.375
 3101POPC   C3A40937  34.966  23.035   7.970
 3101POPC   C4A40938  34.795  22.898   7.582
 3101POPC   C1B40939  34.171  23.029   8.760
 3101POPC   C2B40940  34.230  22.822   8.376
 3101POPC   C3B40941  34.453  23.019   8.035
 3101POPC   C4B40942  34.324  23.111   7.590
 3102POPC   NC340943  20.856  16.389   9.813
 3102POPC   PO440944  20.395  16.692   9.486
 3102POPC   GL140945  20.619  16.728   9.114
 3102POPC   GL240946  20.893  16.617   9.314
 3102POPC   C1A40947  20.643  16.713   8.651
 3102POPC   D2A40948  20.645  16.897   8.241
 3102POPC   C3A40949  20.437  16.570   8.035
 3102POPC   C4A40950  20.192  16.579   7.690
 3102POPC   C1B40951  21.053  16.464   8.942
 3102POPC   C2B40952  20.971  16.330   8.551
 3102POPC   C3B40953  20.936  16.472   8.163
 3102POPC   C4B40954  20.858  16.401   7.754
 3103POPC   NC340955  14.326   0.356   9.719
 3103POPC   PO440956  14.943   0.461   9.657
 3103POPC   GL140957  14.597   0.401   9.292
 3103POPC   GL240958  14.229   0.266   9.241
 3103POPC   C1A40959  14.560   0.365   8.818
 3103POPC   D2A40960  14.554   0.143   8.425
 3103POPC   C3A40961  14.465   0.359   8.032
 3103POPC   C4A40962  14.547   0.471   7.605
 3103POPC   C1B40963  14.088   0.532   8.905
 3103POPC   C2B40964  14.228   0.618   8.482
 3103POPC   C3B40965  13.999   0.527   8.115
 3103POPC   C4B40966  14.035   0.539   7.678
 3104POPC   NC340967  11.328  26.115   9.559
 3104POPC   PO440968  11.081  26.664   9.485
 3104POPC   GL140969  11.123  26.308   9.132
 3104POPC   GL240970  11.061  25.894   9.166
 3104POPC   C1A40971  11.445  26.158   8.814
 3104POPC   D2A40972  11.631  26.236   8.400
 3104POPC   C3A40973  11.430  26.136   7.996
 3104POPC   C4A40974  11.034  26.285   7.815
 3104POPC   C1B40975  11.148  25.769   8.719
 3104POPC   C2B40976  11.070  25.942   8.311
 3104POPC   C3B40977  11.055  25.774   7.889
 3104POPC   C4B40978  11.400  25.699   7.599
 3105POPC   NC340979   9.534  40.941   9.205
 3105POPC   PO440980   9.400  41.406   9.791
 3105POPC   GL140981   9.487  41.558   9.344
 3105POPC   GL240982   9.824  41.459   9.198
 3105POPC   C1A40983   9.445  41.699   8.891
 3105POPC   D2A40984   9.638  41.818   8.473
 3105POPC   C3A40985   9.472  41.767   8.053
 3105POPC   C4A40986   9.492  41.797   7.601
 3105POPC   C1B40987   9.795  41.351   8.728
 3105POPC   C2B40988   9.709  41.363   8.276
 3105POPC   C3B40989   9.673  41.293   7.850
 3105POPC   C4B40990  10.103  41.256   7.732
 3106POPC   NC340991  24.242   1.093   9.488
 3106POPC   PO440992  24.892   1.257   9.417
 3106POPC   GL140993  24.646   1.097   9.123
 3106POPC   GL240994  24.408   1.370   9.095
 3106POPC   C1A40995  24.659   1.189   8.676
 3106POPC   D2A40996  24.701   1.437   8.296
 3106POPC   C3A40997  24.724   1.122   7.987
 3106POPC   C4A40998  24.356   1.013   7.776
 3106POPC   C1B40999  24.369   1.610   8.726
 3106POPC   C2B41000  24.152   1.438   8.407
 3106POPC   C3B41001  24.180   1.486   8.022
 3106POPC   C4B41002  24.494   1.508   7.749
 3107POPC   NC341003  25.399   1.836   9.615
 3107POPC   PO441004  24.895   2.132   9.327
 3107POPC   GL141005  25.353   2.178   9.210
 3107POPC   GL241006  25.363   1.873   9.084
 3107POPC   C1A41007  25.507   2.271   8.770
 3107POPC   D2A41008  25.246   2.268   8.399
 3107POPC   C3A41009  25.334   2.094   8.015
 3107POPC   C4A41010  25.450   1.686   7.909
 3107POPC   C1B41011  25.074   1.896   8.746
 3107POPC   C2B41012  24.854   1.938   8.356
 3107POPC   C3B41013  24.913   1.786   7.939
 3107POPC   C4B41014  25.002   1.478   7.685
 3108POPC   NC341015  27.161   8.390   9.507
 3108POPC   PO441016  26.474   8.209   9.500
 3108POPC   GL141017  26.819   8.117   9.233
 3108POPC   GL241018  26.872   7.757   9.228
 3108POPC   C1A41019  26.890   8.218   8.795
 3108POPC   D2A41020  26.532   8.292   8.522
 3108POPC   C3A41021  26.641   8.450   8.132
 3108POPC   C4A41022  26.800   8.311   7.758
 3108POPC   C1B41023  26.577   7.832   8.877
 3108POPC   C2B41024  26.736   7.799   8.473
 3108POPC   C3B41025  26.606   7.917   8.085
 3108POPC   C4B41026  26.903   7.812   7.802
 3109POPC   NC341027  17.992  20.300   9.730
 3109POPC   PO441028  17.371  20.686   9.544
 3109POPC   GL141029  17.548  20.650   9.138
 3109POPC   GL241030  17.400  20.301   9.069
 3109POPC   C1A41031  17.635  20.893   8.766
 3109POPC   D2A41032  17.435  20.823   8.405
 3109POPC   C3A41033  17.523  20.765   7.989
 3109POPC   C4A41034  17.244  20.895   7.682
 3109POPC   C1B41035  17.570  20.394   8.657
 3109POPC   C2B41036  17.830  20.444   8.279
 3109POPC   C3B41037  17.603  20.290   7.904
 3109POPC   C4B41038  17.461  20.437   7.523
 3110POPC   NC341039  18.776  29.882   9.471
 3110POPC   PO441040  19.362  30.261   9.258
 3110POPC   GL141041  19.048  30.049   9.080
 3110POPC   GL241042  19.221  29.726   9.097
 3110POPC   C1A41043  18.848  29.832   8.725
 3110POPC   D2A41044  18.882  29.696   8.292
 3110POPC   C3A41045  19.021  29.943   7.944
 3110POPC   C4A41046  19.118  29.870   7.501
 3110POPC   C1B41047  19.377  29.904   8.712
 3110POPC   C2B41048  19.332  30.100   8.315
 3110POPC   C3B41049  19.532  29.969   7.925
 3110POPC   C4B41050  19.565  29.654   7.632
 3111POPC   NC341051   3.783  31.233   9.502
 3111POPC   PO441052   3.144  31.646   9.519
 3111POPC   GL141053   3.335  31.519   9.145
 3111POPC   GL241054   3.355  31.194   9.183
 3111POPC   C1A41055   3.574  31.629   8.771
 3111POPC   D2A41056   3.925  31.449   8.494
 3111POPC   C3A41057   3.777  31.481   8.079
 3111POPC   C4A41058   3.739  31.827   7.853
 3111POPC   C1B41059   3.617  31.139   8.847
 3111POPC   C2B41060   3.490  31.197   8.431
 3111POPC   C3B41061   3.347  31.221   8.015
 3111POPC   C4B41062   3.466  31.425   7.612
 3112POPC   NC341063   5.757  31.909   9.688
 3112POPC   PO441064   6.158  31.397   9.543
 3112POPC   GL141065   6.059  31.219   9.120
 3112POPC   GL241066   5.800  31.463   9.058
 3112POPC   C1A41067   6.138  31.417   8.682
 3112POPC   D2A41068   5.932  31.646   8.352
 3112POPC   C3A41069   6.087  31.583   7.933
 3112POPC   C4A41070   6.102  31.169   7.736
 3112POPC   C1B41071   5.550  31.555   8.701
 3112POPC   C2B41072   5.518  31.934   8.423
 3112POPC   C3B41073   5.591  31.855   7.998
 3112POPC   C4B41074   5.613  31.410   7.875
 3113POPC   NC341075  25.603  19.694   9.533
 3113POPC   PO441076  26.224  19.842   9.699
 3113POPC   GL141077  26.113  19.932   9.230
 3113POPC   GL241078  26.360  20.175   9.046
 3113POPC   C1A41079  25.908  19.676   8.855
 3113POPC   D2A41080  25.876  19.486   8.418
 3113POPC   C3A41081  25.909  19.740   8.009
 3113POPC   C4A41082  25.824  19.893   7.567
 3113POPC   C1B41083  26.409  19.783   8.821
 3113POPC   C2B41084  26.307  19.742   8.395
 3113POPC   C3B41085  26.459  19.744   7.975
 3113POPC   C4B41086  26.222  19.581   7.628
 3114POPC   NC341087  37.224  41.602   9.608
 3114POPC   PO441088  36.647  41.841   9.582
 3114POPC   GL141089  36.654  41.730   9.124
 3114POPC   GL241090  36.924  41.544   8.977
 3114POPC   C1A41091  36.714  41.850   8.656
 3114POPC   D2A41092  36.970  41.769   8.297
 3114POPC   C3A41093  36.784  41.661   7.909
 3114POPC   C4A41094  36.702  41.808   7.492
 3114POPC   C1B41095  37.089  41.314   8.638
 3114POPC   C2B41096  37.265  41.357   8.257
 3114POPC   C3B41097  37.262  41.477   7.833
 3114POPC   C4B41098  37.036  41.433   7.466
 3115POPC   NC341099  40.460  22.508   9.479
 3115POPC   PO441100  40.852  23.132   9.603
 3115POPC   GL141101  40.722  23.156   9.186
 3115POPC   GL241102  40.848  22.836   9.163
 3115POPC   C1A41103  40.930  23.151   8.771
 3115POPC   D2A41104  41.060  22.942   8.367
 3115POPC   C3A41105  40.837  23.080   7.988
 3115POPC   C4A41106  40.424  23.165   7.833
 3115POPC   C1B41107  40.943  22.634   8.800
 3115POPC   C2B41108  40.670  22.439   8.484
 3115POPC   C3B41109  40.649  22.610   8.079
 3115POPC   C4B41110  40.868  22.645   7.675
 3116POPC   NC341111  25.458  43.071   9.626
 3116POPC   PO441112  24.857  43.032   9.462
 3116POPC   GL141113  25.205  43.256   9.180
 3116POPC   GL241114  25.620  43.291   9.198
 3116POPC   C1A41115  25.161  43.195   8.732
 3116POPC   D2A41116  25.299  42.977   8.354
 3116POPC   C3A41117  25.022  42.983   8.031
 3116POPC   C4A41118  24.807  43.188   7.769
 3116POPC   C1B41119  25.542  43.518   8.824
 3116POPC   C2B41120  25.384  43.508   8.392
 3116POPC   C3B41121  25.376  43.350   7.986
 3116POPC   C4B41122  25.421  43.551   7.652
 3117POPC   NC341123  20.657  14.850   5.339
 3117POPC   PO441124  20.452  15.525   5.338
 3117POPC   GL141125  20.554  15.514   5.777
 3117POPC   GL241126  20.759  15.231   5.728
 3117POPC   C1A41127  20.590  15.587   6.251
 3117POPC   D2A41128  20.405  15.517   6.688
 3117POPC   C3A41129  20.635  15.531   7.094
 3117POPC   C4A41130  20.591  15.211   7.426
 3117POPC   C1B41131  20.695  15.115   6.140
 3117POPC   C2B41132  20.784  15.199   6.564
 3117POPC   C3B41133  20.679  15.046   6.937
 3117POPC   C4B41134  20.448  14.801   7.184
 3118POPC   NC341135  35.924  26.091   5.085
 3118POPC   PO441136  36.512  25.911   5.471
 3118POPC   GL141137  36.378  26.179   5.836
 3118POPC   GL241138  35.995  26.219   5.911
 3118POPC   C1A41139  36.353  26.406   6.191
 3118POPC   D2A41140  36.139  26.144   6.477
 3118POPC   C3A41141  36.179  26.266   6.876
 3118POPC   C4A41142  36.261  26.451   7.261
 3118POPC   C1B41143  35.709  26.019   6.170
 3118POPC   C2B41144  35.696  25.881   6.584
 3118POPC   C3B41145  35.685  26.128   6.947
 3118POPC   C4B41146  35.915  26.051   7.294
 3119POPC   NC341147   9.812  37.390   5.470
 3119POPC   PO441148   9.358  37.844   5.295
 3119POPC   GL141149   9.570  37.765   5.712
 3119POPC   GL241150   9.775  38.051   5.757
 3119POPC   C1A41151   9.899  37.656   6.060
 3119POPC   D2A41152   9.960  37.751   6.479
 3119POPC   C3A41153   9.841  37.468   6.850
 3119POPC   C4A41154   9.946  37.533   7.294
 3119POPC   C1B41155   9.723  38.211   6.175
 3119POPC   C2B41156   9.933  38.262   6.584
 3119POPC   C3B41157   9.930  37.976   6.947
 3119POPC   C4B41158   9.595  37.927   7.268
 3120POPC   NC341159   8.072  44.971   5.585
 3120POPC   PO441160   8.147   0.661   5.467
 3120POPC   GL141161   8.231   0.434   5.828
 3120POPC   GL241162   8.522   0.260   5.706
 3120POPC   C1A41163   8.171   0.382   6.283
 3120POPC   D2A41164   8.231   0.625   6.648
 3120POPC   C3A41165   8.123   0.495   7.058
 3120POPC   C4A41166   7.963   0.101   7.222
 3120POPC   C1B41167   8.641   0.212   6.127
 3120POPC   C2B41168   8.643   0.298   6.529
 3120POPC   C3B41169   8.598   0.363   6.936
 3120POPC   C4B41170   8.554   0.210   7.353
 3121POPC   NC341171  15.279  27.010   5.419
 3121POPC   PO441172  14.987  26.435   5.201
 3121POPC   GL141173  15.032  26.424   5.738
 3121POPC   GL241174  15.286  26.665   5.814
 3121POPC   C1A41175  14.943  26.590   6.203
 3121POPC   D2A41176  14.741  26.691   6.633
 3121POPC   C3A41177  14.947  26.759   7.028
 3121POPC   C4A41178  14.877  27.105   7.288
 3121POPC   C1B41179  15.479  26.561   6.212
 3121POPC   C2B41180  15.759  26.599   6.581
 3121POPC   C3B41181  15.621  26.663   7.025
 3121POPC   C4B41182  15.417  27.025   7.267
 3122POPC   NC341183  21.252  17.086   5.257
 3122POPC   PO441184  21.590  16.438   5.554
 3122POPC   GL141185  21.488  16.658   6.008
 3122POPC   GL241186  21.207  16.915   6.143
 3122POPC   C1A41187  21.679  16.970   6.315
 3122POPC   D2A41188  21.386  17.037   6.653
 3122POPC   C3A41189  21.464  16.949   7.076
 3122POPC   C4A41190  21.719  16.811   7.360
 3122POPC   C1B41191  21.063  16.503   6.260
 3122POPC   C2B41192  20.961  16.388   6.612
 3122POPC   C3B41193  21.150  16.587   6.911
 3122POPC   C4B41194  21.038  16.502   7.295
 3123POPC   NC341195   0.886  28.752   5.709
 3123POPC   PO441196   0.465  29.247   5.375
 3123POPC   GL141197   0.276  29.142   5.785
 3123POPC   GL241198   0.577  29.104   5.919
 3123POPC   C1A41199   0.151  29.223   6.212
 3123POPC   D2A41200   0.429  29.246   6.558
 3123POPC   C3A41201   0.269  29.317   6.976
 3123POPC   C4A41202   0.540  29.305   7.321
 3123POPC   C1B41203   0.446  28.796   6.217
 3123POPC   C2B41204   0.655  28.744   6.587
 3123POPC   C3B41205   0.640  28.947   6.965
 3123POPC   C4B41206   0.281  28.859   7.214
 3124POPC   NC341207  27.777  12.532   5.302
 3124POPC   PO441208  27.265  12.811   5.560
 3124POPC   GL141209  27.518  12.760   5.891
 3124POPC   GL241210  27.635  13.061   5.895
 3124POPC   C1A41211  27.455  12.814   6.349
 3124POPC   D2A41212  27.400  13.012   6.771
 3124POPC   C3A41213  27.518  12.774   7.154
 3124POPC   C4A41214  27.602  12.899   7.576
 3124POPC   C1B41215  27.893  13.054   6.275
 3124POPC   C2B41216  27.912  12.891   6.739
 3124POPC   C3B41217  27.951  13.079   7.181
 3124POPC   C4B41218  28.051  13.123   7.638
 3125POPC   NC341219  43.981  41.305   5.160
 3125POPC   PO441220  44.155  41.930   5.382
 3125POPC   GL141221  44.065  41.595   5.708
 3125POPC   GL241222  43.730  41.455   5.733
 3125POPC   C1A41223  44.159  41.457   6.149
 3125POPC   D2A41224  44.054  41.328   6.570
 3125POPC   C3A41225  44.099  41.676   6.866
 3125POPC   C4A41226  44.102  41.624   7.297
 3125POPC   C1B41227  43.669  41.291   6.172
 3125POPC   C2B41228  43.527  41.266   6.638
 3125POPC   C3B41229  43.675  41.415   7.079
 3125POPC   C4B41230  43.617  41.193   7.491
 3126POPC   NC341231   5.461   8.354   5.319
 3126POPC   PO441232   6.107   8.519   5.167
 3126POPC   GL141233   5.977   8.275   5.606
 3126POPC   GL241234   5.782   8.411   5.827
 3126POPC   C1A41235   5.932   8.050   6.104
 3126POPC   D2A41236   6.117   8.016   6.539
 3126POPC   C3A41237   5.830   8.084   6.888
 3126POPC   C4A41238   5.711   7.840   7.241
 3126POPC   C1B41239   5.540   8.445   6.203
 3126POPC   C2B41240   5.541   8.439   6.625
 3126POPC   C3B41241   5.667   8.578   7.030
 3126POPC   C4B41242   5.666   8.321   7.371
 3127POPC   NC341243  36.446  34.183   5.419
 3127POPC   PO441244  36.126  33.613   5.502
 3127POPC   GL141245  36.133  33.671   5.922
 3127POPC   GL241246  36.208  34.017   5.896
 3127POPC   C1A41247  36.094  33.598   6.376
 3127POPC   D2A41248  36.323  33.837   6.663
 3127POPC   C3A41249  36.243  33.849   7.090
 3127POPC   C4A41250  36.103  33.507   7.252
 3127POPC   C1B41251  35.942  34.064   6.298
 3127POPC   C2B41252  35.885  34.107   6.763
 3127POPC   C3B41253  35.925  34.219   7.212
 3127POPC   C4B41254  35.846  34.194   7.648
 3128POPC   NC341255   4.746   5.461   5.608
 3128POPC   PO441256   5.123   5.037   5.190
 3128POPC   GL141257   5.018   4.976   5.652
 3128POPC   GL241258   5.333   5.041   5.788
 3128POPC   C1A41259   4.895   4.821   6.095
 3128POPC   D2A41260   4.802   5.028   6.507
 3128POPC   C3A41261   4.882   4.842   6.903
 3128POPC   C4A41262   5.144   4.988   7.215
 3128POPC   C1B41263   5.226   5.188   6.218
 3128POPC   C2B41264   5.242   5.329   6.652
 3128POPC   C3B41265   5.528   5.193   6.984
 3128POPC   C4B41266   5.506   5.269   7.439
 3129POPC   NC341267   4.842   2.838   5.323
 3129POPC   PO441268   4.257   2.680   5.526
 3129POPC   GL141269   4.214   2.722   5.914
 3129POPC   GL241270   4.276   3.072   5.957
 3129POPC   C1A41271   4.418   2.661   6.312
 3129POPC   D2A41272   4.648   2.876   6.645
 3129POPC   C3A41273   4.518   2.791   7.084
 3129POPC   C4A41274   4.117   2.660   7.177
 3129POPC   C1B41275   4.021   2.973   6.311
 3129POPC   C2B41276   4.131   2.855   6.707
 3129POPC   C3B41277   4.180   3.158   7.035
 3129POPC   C4B41278   4.131   3.113   7.460
 3130POPC   NC341279  24.726  23.210   5.300
 3130POPC   PO441280  24.538  22.515   5.416
 3130POPC   GL141281  24.343  22.901   5.668
 3130POPC   GL241282  24.560  23.206   5.781
 3130POPC   C1A41283  24.190  23.020   6.107
 3130POPC   D2A41284  24.265  22.728   6.465
 3130POPC   C3A41285  24.347  22.755   6.915
 3130POPC   C4A41286  24.320  22.893   7.337
 3130POPC   C1B41287  24.691  23.211   6.223
 3130POPC   C2B41288  24.509  23.173   6.636
 3130POPC   C3B41289  24.584  23.223   7.053
 3130POPC   C4B41290  24.824  22.881   7.200
 3131POPC   NC341291  44.534  35.449   5.468
 3131POPC   PO441292   0.011  35.074   5.483
 3131POPC   GL141293  44.813  35.220   5.825
 3131POPC   GL241294   0.056  35.467   5.883
 3131POPC   C1A41295  44.542  35.083   6.147
 3131POPC   D2A41296  44.726  34.879   6.508
 3131POPC   C3A41297  44.608  35.060   6.885
 3131POPC   C4A41298  44.564  35.399   7.136
 3131POPC   C1B41299  44.993  35.266   6.296
 3131POPC   C2B41300   0.082  35.201   6.738
 3131POPC   C3B41301   0.064  35.516   7.078
 3131POPC   C4B41302  44.878  35.611   7.486
 3132POPC   NC341303  24.943  20.558   5.316
 3132POPC   PO441304  24.272  20.848   5.302
 3132POPC   GL141305  24.377  20.726   5.748
 3132POPC   GL241306  24.700  20.607   5.772
 3132POPC   C1A41307  24.514  20.760   6.212
 3132POPC   D2A41308  24.775  20.677   6.581
 3132POPC   C3A41309  24.585  20.837   6.963
 3132POPC   C4A41310  24.324  20.682   7.313
 3132POPC   C1B41311  24.765  20.314   6.166
 3132POPC   C2B41312  24.640  20.181   6.569
 3132POPC   C3B41313  24.747  20.339   6.979
 3132POPC   C4B41314  24.798  20.492   7.378
 3133POPC   NC341315   1.286  11.554   5.348
 3133POPC   PO441316   1.524  12.171   5.132
 3133POPC   GL141317   1.399  12.014   5.584
 3133POPC   GL241318   1.679  11.879   5.635
 3133POPC   C1A41319   1.142  12.156   5.994
 3133POPC   D2A41320   1.259  12.178   6.456
 3133POPC   C3A41321   1.106  12.376   6.873
 3133POPC   C4A41322   1.076  12.120   7.238
 3133POPC   C1B41323   1.528  11.813   6.044
 3133POPC   C2B41324   1.444  11.694   6.471
 3133POPC   C3B41325   1.350  11.856   6.879
 3133POPC   C4B41326   1.580  11.950   7.273
 3134POPC   NC341327  22.398   1.725   5.596
 3134POPC   PO441328  22.078   2.323   5.471
 3134POPC   GL141329  22.213   2.146   5.843
 3134POPC   GL241330  22.058   1.836   5.957
 3134POPC   C1A41331  22.379   2.118   6.255
 3134POPC   D2A41332  22.173   2.251   6.602
 3134POPC   C3A41333  22.070   1.936   6.868
 3134POPC   C4A41334  22.117   1.883   7.299
 3134POPC   C1B41335  21.940   1.792   6.379
 3134POPC   C2B41336  21.676   1.596   6.702
 3134POPC   C3B41337  21.741   1.572   7.154
 3134POPC   C4B41338  21.852   1.610   7.616
 3135POPC   NC341339   4.180  20.536   5.354
 3135POPC   PO441340   4.428  20.984   5.735
 3135POPC   GL141341   4.320  20.623   5.887
 3135POPC   GL241342   4.494  20.356   5.748
 3135POPC   C1A41343   4.418  20.640   6.338
 3135POPC   D2A41344   4.433  20.861   6.673
 3135POPC   C3A41345   4.712  20.843   7.002
 3135POPC   C4A41346   4.474  20.846   7.337
 3135POPC   C1B41347   4.269  20.189   6.139
 3135POPC   C2B41348   4.371  20.176   6.592
 3135POPC   C3B41349   4.382  20.419   7.009
 3135POPC   C4B41350   4.191  20.440   7.462
 3136POPC   NC341351  43.375  34.012   5.407
 3136POPC   PO441352  44.063  33.795   5.392
 3136POPC   GL141353  43.974  33.898   5.775
 3136POPC   GL241354  43.656  33.804   5.764
 3136POPC   C1A41355  44.150  33.849   6.186
 3136POPC   D2A41356  44.328  33.948   6.580
 3136POPC   C3A41357  44.187  33.741   6.922
 3136POPC   C4A41358  44.076  34.006   7.254
 3136POPC   C1B41359  43.634  33.851   6.167
 3136POPC   C2B41360  43.764  33.853   6.575
 3136POPC   C3B41361  43.672  33.832   6.993
 3136POPC   C4B41362  43.875  33.545   7.271
 3137POPC   NC341363  37.869   6.227   5.500
 3137POPC   PO441364  37.496   5.613   5.422
 3137POPC   GL141365  37.629   5.849   5.772
 3137POPC   GL241366  37.367   6.037   5.726
 3137POPC   C1A41367  37.776   5.845   6.211
 3137POPC   D2A41368  37.895   5.689   6.645
 3137POPC   C3A41369  37.674   5.810   7.010
 3137POPC   C4A41370  37.640   5.964   7.469
 3137POPC   C1B41371  37.268   6.113   6.107
 3137POPC   C2B41372  37.498   6.234   6.451
 3137POPC   C3B41373  37.410   6.221   6.892
 3137POPC   C4B41374  37.293   6.363   7.301
 3138POPC   NC341375   9.494  13.488   5.682
 3138POPC   PO441376   9.991  13.789   5.297
 3138POPC   GL141377  10.043  13.824   5.744
 3138POPC   GL241378   9.711  13.924   5.791
 3138POPC   C1A41379   9.907  13.660   6.168
 3138POPC   D2A41380   9.956  13.742   6.568
 3138POPC   C3A41381   9.592  13.623   6.783
 3138POPC   C4A41382   9.813  13.541   7.148
 3138POPC   C1B41383   9.591  14.041   6.246
 3138POPC   C2B41384   9.261  13.940   6.519
 3138POPC   C3B41385   9.191  13.989   6.938
 3138POPC   C4B41386   9.367  13.737   7.252
 3139POPC   NC341387   0.043   7.148   5.534
 3139POPC   PO441388   0.725   7.294   5.550
 3139POPC   GL141389   0.507   7.401   5.892
 3139POPC   GL241390   0.343   7.070   5.923
 3139POPC   C1A41391   0.546   7.311   6.318
 3139POPC   D2A41392   0.416   7.495   6.664
 3139POPC   C3A41393   0.620   7.225   6.900
 3139POPC   C4A41394   0.588   7.148   7.292
 3139POPC   C1B41395   0.032   7.255   6.219
 3139POPC   C2B41396  44.992   7.189   6.677
 3139POPC   C3B41397   0.122   7.248   7.112
 3139POPC   C4B41398   0.182   7.166   7.596
 3140POPC   NC341399   0.159  44.236   5.059
 3140POPC   PO441400   0.283  43.824   5.479
 3140POPC   GL141401   0.402  43.971   5.864
 3140POPC   GL241402   0.566  43.677   5.937
 3140POPC   C1A41403   0.431  44.047   6.302
 3140POPC   D2A41404   0.441  43.759   6.638
 3140POPC   C3A41405   0.321  43.980   6.993
 3140POPC   C4A41406   0.586  44.085   7.320
 3140POPC   C1B41407   0.180  43.461   6.145
 3140POPC   C2B41408   0.053  43.425   6.592
 3140POPC   C3B41409   0.215  43.440   7.043
 3140POPC   C4B41410   0.228  43.695   7.436
 3141POPC   NC341411  28.088  21.128   5.396
 3141POPC   PO441412  27.694  21.610   5.476
 3141POPC   GL141413  28.064  21.354   5.836
 3141POPC   GL241414  28.433  21.240   5.766
 3141POPC   C1A41415  28.235  21.443   6.261
 3141POPC   D2A41416  28.202  21.590   6.667
 3141POPC   C3A41417  28.323  21.293   6.907
 3141POPC   C4A41418  28.460  21.494   7.200
 3141POPC   C1B41419  28.694  21.281   6.116
 3141POPC   C2B41420  28.637  21.115   6.528
 3141POPC   C3B41421  28.830  21.257   6.892
 3141POPC   C4B41422  28.941  21.363   7.287
 3142POPC   NC341423   3.242  39.562   5.507
 3142POPC   PO441424   3.813  39.252   5.368
 3142POPC   GL141425   3.538  39.198   5.765
 3142POPC   GL241426   3.375  39.430   5.988
 3142POPC   C1A41427   3.646  39.007   6.178
 3142POPC   D2A41428   3.799  39.108   6.613
 3142POPC   C3A41429   3.558  39.243   6.978
 3142POPC   C4A41430   3.553  39.357   7.426
 3142POPC   C1B41431   3.398  39.387   6.412
 3142POPC   C2B41432   3.355  39.641   6.726
 3142POPC   C3B41433   3.160  39.569   7.115
 3142POPC   C4B41434   3.046  39.313   7.482
 3143POPC   NC341435  12.266  17.085   5.455
 3143POPC   PO441436  11.946  16.436   5.347
 3143POPC   GL141437  11.978  16.640   5.798
 3143POPC   GL241438  12.271  16.786   5.885
 3143POPC   C1A41439  11.903  16.876   6.235
 3143POPC   D2A41440  11.896  16.728   6.680
 3143POPC   C3A41441  12.098  16.752   7.083
 3143POPC   C4A41442  11.882  16.786   7.468
 3143POPC   C1B41443  12.206  16.476   6.264
 3143POPC   C2B41444  12.243  16.329   6.722
 3143POPC   C3B41445  12.244  16.206   7.156
 3143POPC   C4B41446  12.184  16.353   7.583
 3144POPC   NC341447  33.213  26.323   5.432
 3144POPC   PO441448  32.849  25.800   5.528
 3144POPC   GL141449  33.084  26.053   5.861
 3144POPC   GL241450  32.864  26.378   5.803
 3144POPC   C1A41451  33.208  25.980   6.326
 3144POPC   D2A41452  32.956  25.724   6.631
 3144POPC   C3A41453  32.826  25.963   6.995
 3144POPC   C4A41454  33.157  26.216   7.172
 3144POPC   C1B41455  32.814  26.293   6.239
 3144POPC   C2B41456  32.960  26.321   6.656
 3144POPC   C3B41457  32.760  26.492   7.019
 3144POPC   C4B41458  32.668  26.283   7.416
 3145POPC   NC341459   0.091   9.698   5.128
 3145POPC   PO441460   0.586   9.907   5.655
 3145POPC   GL141461   0.386   9.681   5.979
 3145POPC   GL241462   0.175   9.943   6.081
 3145POPC   C1A41463   0.363   9.636   6.430
 3145POPC   D2A41464   0.599   9.456   6.750
 3145POPC   C3A41465   0.342   9.568   7.102
 3145POPC   C4A41466   0.111   9.883   7.340
 3145POPC   C1B41467   0.518  10.104   6.270
 3145POPC   C2B41468   0.288  10.237   6.576
 3145POPC   C3B41469   0.324   9.997   6.865
 3145POPC   C4B41470   0.538  10.097   7.217
 3146POPC   NC341471  42.071   0.738   5.384
 3146POPC   PO441472  42.501   0.269   5.408
 3146POPC   GL141473  42.363   0.459   5.828
 3146POPC   GL241474  42.221   0.797   5.863
 3146POPC   C1A41475  42.528   0.528   6.268
 3146POPC   D2A41476  42.645   0.446   6.707
 3146POPC   C3A41477  42.301   0.223   6.873
 3146POPC   C4A41478  41.957   0.283   7.128
 3146POPC   C1B41479  42.149   0.861   6.280
 3146POPC   C2B41480  42.186   0.673   6.659
 3146POPC   C3B41481  42.332   0.702   7.090
 3146POPC   C4B41482  42.062   0.709   7.443
 3147POPC   NC341483  31.780  44.191   5.478
 3147POPC   PO441484  31.181  43.815   5.387
 3147POPC   GL141485  31.462  43.818   5.735
 3147POPC   GL241486  31.439  44.148   5.845
 3147POPC   C1A41487  31.620  43.825   6.192
 3147POPC   D2A41488  31.769  43.708   6.598
 3147POPC   C3A41489  31.469  43.682   6.912
 3147POPC   C4A41490  31.549  43.732   7.332
 3147POPC   C1B41491  31.685  44.334   6.174
 3147POPC   C2B41492  31.697  44.273   6.623
 3147POPC   C3B41493  31.621  44.159   7.054
 3147POPC   C4B41494  31.687  44.158   7.552
 3148POPC   NC341495  23.939  34.678   5.407
 3148POPC   PO441496  23.386  34.189   5.527
 3148POPC   GL141497  23.632  34.495   5.805
 3148POPC   GL241498  23.620  34.839   5.775
 3148POPC   C1A41499  23.847  34.581   6.197
 3148POPC   D2A41500  23.754  34.797   6.589
 3148POPC   C3A41501  23.888  34.569   6.964
 3148POPC   C4A41502  23.884  34.565   7.406
 3148POPC   C1B41503  23.387  34.802   6.163
 3148POPC   C2B41504  23.236  34.646   6.565
 3148POPC   C3B41505  23.223  34.915   6.928
 3148POPC   C4B41506  23.516  35.017   7.259
 3149POPC   NC341507  10.496  38.747   5.437
 3149POPC   PO441508  10.076  38.227   5.372
 3149POPC   GL141509  10.366  38.359   5.732
 3149POPC   GL241510  10.646  38.154   5.811
 3149POPC   C1A41511  10.513  38.532   6.142
 3149POPC   D2A41512  10.375  38.550   6.559
 3149POPC   C3A41513  10.587  38.635   6.939
 3149POPC   C4A41514  10.465  38.617   7.367
 3149POPC   C1B41515  10.770  38.084   6.222
 3149POPC   C2B41516  10.836  38.302   6.601
 3149POPC   C3B41517  10.933  38.237   7.020
 3149POPC   C4B41518  10.785  38.154   7.405
 3150POPC   NC341519  37.947   2.605   5.332
 3150POPC   PO441520  37.604   3.164   5.372
 3150POPC   GL141521  37.676   2.864   5.730
 3150POPC   GL241522  37.558   2.551   5.747
 3150POPC   C1A41523  37.671   2.910   6.198
 3150POPC   D2A41524  37.745   2.897   6.655
 3150POPC   C3A41525  37.510   2.958   7.043
 3150POPC   C4A41526  37.898   2.886   7.287
 3150POPC   C1B41527  37.585   2.413   6.160
 3150POPC   C2B41528  37.570   2.371   6.587
 3150POPC   C3B41529  37.560   2.440   7.014
 3150POPC   C4B41530  37.496   2.568   7.448
 3151POPC   NC341531  32.606  18.303   5.408
 3151POPC   PO441532  32.981  17.776   5.467
 3151POPC   GL141533  32.769  18.004   5.860
 3151POPC   GL241534  32.724  18.410   5.891
 3151POPC   C1A41535  32.794  18.166   6.316
 3151POPC   D2A41536  32.993  18.356   6.680
 3151POPC   C3A41537  32.978  18.158   7.086
 3151POPC   C4A41538  33.268  17.909   7.336
 3151POPC   C1B41539  32.650  18.676   6.283
 3151POPC   C2B41540  32.577  18.671   6.747
 3151POPC   C3B41541  32.898  18.680   7.082
 3151POPC   C4B41542  33.334  18.500   7.219
 3152POPC   NC341543   6.118  41.106   5.184
 3152POPC   PO441544   5.840  40.508   5.427
 3152POPC   GL141545   5.929  40.665   5.839
 3152POPC   GL241546   6.288  40.622   5.869
 3152POPC   C1A41547   5.764  40.711   6.272
 3152POPC   D2A41548   5.661  40.471   6.645
 3152POPC   C3A41549   5.716  40.766   6.961
 3152POPC   C4A41550   6.013  41.035   7.106
 3152POPC   C1B41551   6.325  40.582   6.293
 3152POPC   C2B41552   6.189  40.717   6.701
 3152POPC   C3B41553   6.141  40.542   7.111
 3152POPC   C4B41554   6.168  40.606   7.589
 3153POPC   NC341555  23.652  15.054   5.091
 3153POPC   PO441556  23.111  15.338   5.520
 3153POPC   GL141557  23.119  15.148   5.889
 3153POPC   GL241558  23.079  15.459   6.058
 3153POPC   C1A41559  23.071  14.981   6.275
 3153POPC   D2A41560  23.006  15.277   6.596
 3153POPC   C3A41561  22.923  15.071   6.967
 3153POPC   C4A41562  22.699  14.973   7.326
 3153POPC   C1B41563  22.664  15.523   6.267
 3153POPC   C2B41564  22.579  15.615   6.706
 3153POPC   C3B41565  22.967  15.613   6.987
 3153POPC   C4B41566  23.012  15.382   7.373
 3154POPC   NC341567  21.145  37.684   5.432
 3154POPC   PO441568  21.746  37.585   5.573
 3154POPC   GL141569  21.396  37.773   5.874
 3154POPC   GL241570  21.054  38.006   5.835
 3154POPC   C1A41571  21.479  37.730   6.314
 3154POPC   D2A41572  21.262  37.577   6.704
 3154POPC   C3A41573  21.550  37.454   7.038
 3154POPC   C4A41574  21.578  37.597   7.480
 3154POPC   C1B41575  21.231  38.189   6.224
 3154POPC   C2B41576  21.346  38.089   6.666
 3154POPC   C3B41577  21.422  37.941   7.081
 3154POPC   C4B41578  21.171  37.945   7.429
 3155POPC   NC341579  23.294   0.990   5.392
 3155POPC   PO441580  23.698   1.547   5.439
 3155POPC   GL141581  23.837   1.322   5.802
 3155POPC   GL241582  24.203   1.405   5.789
 3155POPC   C1A41583  23.707   1.192   6.255
 3155POPC   D2A41584  23.712   1.032   6.719
 3155POPC   C3A41585  23.651   1.152   7.219
 3155POPC   C4A41586  23.532   1.047   7.692
 3155POPC   C1B41587  24.073   1.522   6.202
 3155POPC   C2B41588  23.874   1.530   6.611
 3155POPC   C3B41589  24.049   1.374   6.962
 3155POPC   C4B41590  24.260   1.561   7.299
 3156POPC   NC341591  16.787   9.772   5.324
 3156POPC   PO441592  16.747  10.394   5.436
 3156POPC   GL141593  16.766  10.022   5.761
 3156POPC   GL241594  16.821   9.619   5.798
 3156POPC   C1A41595  16.513   9.892   6.099
 3156POPC   D2A41596  16.546  10.071   6.487
 3156POPC   C3A41597  16.881   9.951   6.763
 3156POPC   C4A41598  16.902   9.921   7.204
 3156POPC   C1B41599  16.945   9.658   6.237
 3156POPC   C2B41600  16.788   9.483   6.610
 3156POPC   C3B41601  16.933   9.444   7.001
 3156POPC   C4B41602  16.574   9.498   7.225
 3157POPC   NC341603  29.218  40.294   5.434
 3157POPC   PO441604  29.034  40.879   5.303
 3157POPC   GL141605  28.974  40.701   5.693
 3157POPC   GL241606  29.118  41.013   5.798
 3157POPC   C1A41607  29.056  40.644   6.153
 3157POPC   D2A41608  29.466  40.567   6.375
 3157POPC   C3A41609  29.393  40.552   6.815
 3157POPC   C4A41610  29.485  40.588   7.208
 3157POPC   C1B41611  29.284  41.129   6.186
 3157POPC   C2B41612  29.256  40.979   6.590
 3157POPC   C3B41613  29.111  40.994   7.020
 3157POPC   C4B41614  28.901  41.143   7.392
 3158POPC   NC341615  28.880  16.885   5.411
 3158POPC   PO441616  29.519  16.629   5.516
 3158POPC   GL141617  29.154  16.660   5.835
 3158POPC   GL241618  28.861  16.423   5.896
 3158POPC   C1A41619  29.011  16.876   6.231
 3158POPC   D2A41620  29.023  17.163   6.610
 3158POPC   C3A41621  29.238  17.013   7.013
 3158POPC   C4A41622  29.004  16.715   7.252
 3158POPC   C1B41623  29.155  16.331   6.268
 3158POPC   C2B41624  29.174  16.340   6.748
 3158POPC   C3B41625  29.346  16.365   7.156
 3158POPC   C4B41626  29.502  16.724   7.410
 3159POPC   NC341627  39.519  42.460   5.742
 3159POPC   PO441628  40.102  42.657   5.434
 3159POPC   GL141629  40.044  42.380   5.817
 3159POPC   GL241630  39.846  42.064   5.741
 3159POPC   C1A41631  40.197  42.355   6.266
 3159POPC   D2A41632  40.041  42.360   6.708
 3159POPC   C3A41633  40.155  42.679   7.016
 3159POPC   C4A41634  40.068  42.641   7.449
 3159POPC   C1B41635  39.862  41.961   6.204
 3159POPC   C2B41636  40.095  41.858   6.601
 3159POPC   C3B41637  39.974  41.952   7.047
 3159POPC   C4B41638  39.819  42.219   7.378
 3160POPC   NC341639  14.668  26.219   5.451
 3160POPC   PO441640  14.356  25.658   5.215
 3160POPC   GL141641  14.366  25.835   5.688
 3160POPC   GL241642  14.637  25.844   5.878
 3160POPC   C1A41643  14.231  25.841   6.197
 3160POPC   D2A41644  14.274  26.024   6.668
 3160POPC   C3A41645  14.393  25.808   7.093
 3160POPC   C4A41646  14.237  25.738   7.554
 3160POPC   C1B41647  14.694  26.118   6.234
 3160POPC   C2B41648  14.783  26.183   6.683
 3160POPC   C3B41649  14.576  26.343   7.062
 3160POPC   C4B41650  14.151  26.465   7.210
 3161POPC   NC341651  37.237  27.462   5.203
 3161POPC   PO441652  36.656  27.406   5.560
 3161POPC   GL141653  36.773  27.663   5.842
 3161POPC   GL241654  37.101  27.712   5.801
 3161POPC   C1A41655  36.800  27.714   6.253
 3161POPC   D2A41656  36.968  27.579   6.638
 3161POPC   C3A41657  36.792  27.753   7.035
 3161POPC   C4A41658  36.741  27.420   7.344
 3161POPC   C1B41659  37.303  27.619   6.221
 3161POPC   C2B41660  37.494  27.593   6.641
 3161POPC   C3B41661  37.265  27.511   7.048
 3161POPC   C4B41662  37.144  27.779   7.400
 3162POPC   NC341663  31.644   0.913   5.576
 3162POPC   PO441664  31.548   1.510   5.412
 3162POPC   GL141665  31.543   1.340   5.843
 3162POPC   GL241666  31.236   1.157   5.777
 3162POPC   C1A41667  31.573   1.028   6.221
 3162POPC   D2A41668  31.520   0.924   6.678
 3162POPC   C3A41669  31.444   1.329   6.949
 3162POPC   C4A41670  31.507   1.409   7.370
 3162POPC   C1B41671  31.126   1.327   6.163
 3162POPC   C2B41672  31.088   1.226   6.600
 3162POPC   C3B41673  31.108   0.959   6.965
 3162POPC   C4B41674  31.237   0.975   7.359
 3163POPC   NC341675  21.340  42.611   5.426
 3163POPC   PO441676  21.041  41.994   5.604
 3163POPC   GL141677  21.239  42.342   5.848
 3163POPC   GL241678  21.616  42.294   5.931
 3163POPC   C1A41679  21.283  42.405   6.296
 3163POPC   D2A41680  21.113  42.183   6.613
 3163POPC   C3A41681  21.209  42.345   6.980
 3163POPC   C4A41682  21.378  42.150   7.345
 3163POPC   C1B41683  21.826  42.369   6.313
 3163POPC   C2B41684  21.667  42.316   6.730
 3163POPC   C3B41685  21.647  42.518   7.127
 3163POPC   C4B41686  21.719  42.493   7.569
 3164POPC   NC341687  16.832   8.722   5.386
 3164POPC   PO441688  16.820   9.319   5.361
 3164POPC   GL141689  16.746   9.084   5.785
 3164POPC   GL241690  16.404   9.010   5.951
 3164POPC   C1A41691  16.763   9.143   6.248
 3164POPC   D2A41692  16.894   8.984   6.655
 3164POPC   C3A41693  16.737   8.977   7.078
 3164POPC   C4A41694  17.006   9.107   7.387
 3164POPC   C1B41695  16.427   8.767   6.345
 3164POPC   C2B41696  16.559   8.589   6.745
 3164POPC   C3B41697  16.613   8.505   7.218
 3164POPC   C4B41698  16.504   8.732   7.572
 3165POPC   NC341699   0.256  12.187   5.554
 3165POPC   PO441700   0.823  11.666   5.460
 3165POPC   GL141701   0.597  11.812   5.842
 3165POPC   GL241702   0.218  11.843   5.919
 3165POPC   C1A41703   0.612  12.012   6.221
 3165POPC   D2A41704   0.740  12.262   6.545
 3165POPC   C3A41705   0.689  12.040   6.908
 3165POPC   C4A41706   0.550  12.092   7.324
 3165POPC   C1B41707   0.119  12.156   6.209
 3165POPC   C2B41708   0.244  12.106   6.607
 3165POPC   C3B41709   0.178  12.169   7.010
 3165POPC   C4B41710   0.103  12.557   7.215
 3166POPC   NC341711  24.077   3.529   5.612
 3166POPC   PO441712  24.649   3.300   5.377
 3166POPC   GL141713  24.575   3.360   5.795
 3166POPC   GL241714  24.515   3.720   5.863
 3166POPC   C1A41715  24.519   3.369   6.231
 3166POPC   D2A41716  24.251   3.486   6.515
 3166POPC   C3A41717  24.387   3.321   6.873
 3166POPC   C4A41718  24.293   3.314   7.283
 3166POPC   C1B41719  24.526   3.913   6.295
 3166POPC   C2B41720  24.597   3.813   6.734
 3166POPC   C3B41721  24.602   3.727   7.174
 3166POPC   C4B41722  24.889   3.680   7.519
 3167POPC   NC341723  36.015  15.015   5.445
 3167POPC   PO441724  36.551  15.421   5.493
 3167POPC   GL141725  36.377  15.148   5.781
 3167POPC   GL241726  36.087  15.378   5.790
 3167POPC   C1A41727  36.194  14.963   6.160
 3167POPC   D2A41728  36.379  14.917   6.583
 3167POPC   C3A41729  36.151  14.863   6.954
 3167POPC   C4A41730  36.316  15.050   7.348
 3167POPC   C1B41731  35.833  15.310   6.127
 3167POPC   C2B41732  35.921  15.225   6.563
 3167POPC   C3B41733  36.051  15.379   7.001
 3167POPC   C4B41734  35.867  15.279   7.398
 3168POPC   NC341735  13.792  18.406   5.263
 3168POPC   PO441736  13.249  18.143   5.462
 3168POPC   GL141737  13.615  18.316   5.754
 3168POPC   GL241738  13.987  18.294   5.739
 3168POPC   C1A41739  13.694  18.466   6.202
 3168POPC   D2A41740  13.623  18.218   6.600
 3168POPC   C3A41741  13.649  18.345   7.039
 3168POPC   C4A41742  13.363  18.370   7.423
 3168POPC   C1B41743  14.025  18.060   6.162
 3168POPC   C2B41744  14.141  17.973   6.615
 3168POPC   C3B41745  14.098  18.063   7.074
 3168POPC   C4B41746  13.908  18.278   7.480
 3169POPC   NC341747  11.951   2.796   5.449
 3169POPC   PO441748  12.507   2.367   5.600
 3169POPC   GL141749  12.169   2.557   5.854
 3169POPC   GL241750  11.832   2.411   5.792
 3169POPC   C1A41751  12.214   2.856   6.174
 3169POPC   D2A41752  12.418   2.920   6.553
 3169POPC   C3A41753  12.294   2.670   6.876
 3169POPC   C4A41754  12.441   2.716   7.268
 3169POPC   C1B41755  11.741   2.674   6.171
 3169POPC   C2B41756  11.893   2.888   6.580
 3169POPC   C3B41757  12.053   3.124   6.954
 3169POPC   C4B41758  12.006   3.015   7.390
 3170POPC   NC341759  23.463  31.643   5.511
 3170POPC   PO441760  23.958  31.201   5.349
 3170POPC   GL141761  23.836  31.379   5.755
 3170POPC   GL241762  23.497  31.235   5.820
 3170POPC   C1A41763  23.749  31.644   6.139
 3170POPC   D2A41764  23.565  31.645   6.557
 3170POPC   C3A41765  23.799  31.496   6.924
 3170POPC   C4A41766  23.732  31.678   7.314
 3170POPC   C1B41767  23.709  31.142   6.198
 3170POPC   C2B41768  23.627  31.119   6.590
 3170POPC   C3B41769  23.497  31.059   6.981
 3170POPC   C4B41770  23.658  31.158   7.344
 3171POPC   NC341771  15.333  10.946   5.530
 3171POPC   PO441772  15.587  11.567   5.345
 3171POPC   GL141773  15.373  11.540   5.762
 3171POPC   GL241774  14.982  11.545   5.755
 3171POPC   C1A41775  15.340  11.403   6.213
 3171POPC   D2A41776  15.447  11.291   6.647
 3171POPC   C3A41777  15.187  11.275   7.037
 3171POPC   C4A41778  15.259  11.108   7.445
 3171POPC   C1B41779  14.890  11.642   6.181
 3171POPC   C2B41780  14.905  11.456   6.598
 3171POPC   C3B41781  14.919  11.687   6.996
 3171POPC   C4B41782  15.011  11.551   7.470
 3172POPC   NC341783  34.067  27.577   5.327
 3172POPC   PO441784  33.442  27.332   5.299
 3172POPC   GL141785  33.714  27.240   5.725
 3172POPC   GL241786  33.977  27.510   5.829
 3172POPC   C1A41787  33.814  27.205   6.201
 3172POPC   D2A41788  34.085  27.314   6.586
 3172POPC   C3A41789  33.900  27.484   6.992
 3172POPC   C4A41790  33.612  27.291   7.283
 3172POPC   C1B41791  33.984  27.717   6.248
 3172POPC   C2B41792  33.980  27.913   6.686
 3172POPC   C3B41793  34.150  27.929   7.131
 3172POPC   C4B41794  33.930  27.772   7.485
 3173POPC   NC341795  12.661  39.020   5.168
 3173POPC   PO441796  13.162  39.465   5.168
 3173POPC   GL141797  13.030  39.299   5.628
 3173POPC   GL241798  12.743  39.062   5.685
 3173POPC   C1A41799  12.984  39.423   6.093
 3173POPC   D2A41800  12.796  39.319   6.527
 3173POPC   C3A41801  12.931  39.440   6.981
 3173POPC   C4A41802  12.754  39.599   7.387
 3173POPC   C1B41803  12.811  38.936   6.103
 3173POPC   C2B41804  12.843  38.792   6.514
 3173POPC   C3B41805  12.750  38.952   6.905
 3173POPC   C4B41806  12.486  39.196   7.158
 3174POPC   NC341807  37.258   5.208   5.403
 3174POPC   PO441808  36.568   5.240   5.433
 3174POPC   GL141809  36.629   4.912   5.730
 3174POPC   GL241810  36.996   4.907   5.772
 3174POPC   C1A41811  36.655   4.752   6.147
 3174POPC   D2A41812  36.814   4.889   6.544
 3174POPC   C3A41813  36.665   5.195   6.855
 3174POPC   C4A41814  36.797   5.156   7.284
 3174POPC   C1B41815  36.911   5.226   6.091
 3174POPC   C2B41816  37.122   5.295   6.493
 3174POPC   C3B41817  37.177   5.115   6.897
 3174POPC   C4B41818  37.292   5.328   7.266
 3175POPC   NC341819   4.731  14.208   5.482
 3175POPC   PO441820   5.178  14.703   5.407
 3175POPC   GL141821   5.248  14.499   5.824
 3175POPC   GL241822   4.889  14.527   5.872
 3175POPC   C1A41823   5.425  14.309   6.265
 3175POPC   D2A41824   5.345  14.521   6.706
 3175POPC   C3A41825   5.471  14.494   7.157
 3175POPC   C4A41826   5.352  14.284   7.552
 3175POPC   C1B41827   5.021  14.609   6.297
 3175POPC   C2B41828   4.821  14.492   6.668
 3175POPC   C3B41829   4.932  14.390   7.091
 3175POPC   C4B41830   4.894  14.439   7.525
 3176POPC   NC341831  17.184  10.296   5.563
 3176POPC   PO441832  17.611  10.814   5.504
 3176POPC   GL141833  17.612  10.550   5.826
 3176POPC   GL241834  17.680  10.204   5.784
 3176POPC   C1A41835  17.401  10.424   6.198
 3176POPC   D2A41836  17.555  10.438   6.628
 3176POPC   C3A41837  17.283  10.221   6.931
 3176POPC   C4A41838  17.100  10.381   7.308
 3176POPC   C1B41839  17.897  10.343   6.195
 3176POPC   C2B41840  18.002  10.128   6.587
 3176POPC   C3B41841  17.798  10.143   7.001
 3176POPC   C4B41842  17.599  10.467   7.243
 3177POPC   NC341843  36.376  39.518   5.419
 3177POPC   PO441844  35.870  39.021   5.541
 3177POPC   GL141845  36.067  39.348   5.813
 3177POPC   GL241846  36.454  39.288   5.865
 3177POPC   C1A41847  36.117  39.304   6.257
 3177POPC   D2A41848  36.059  39.073   6.601
 3177POPC   C3A41849  36.182  39.321   6.940
 3177POPC   C4A41850  36.174  39.177   7.333
 3177POPC   C1B41851  36.528  39.597   6.212
 3177POPC   C2B41852  36.454  39.713   6.687
 3177POPC   C3B41853  36.463  39.691   7.156
 3177POPC   C4B41854  36.541  39.426   7.556
 3178POPC   NC341855  43.391  24.946   5.666
 3178POPC   PO441856  43.903  25.131   5.259
 3178POPC   GL141857  43.932  25.189   5.720
 3178POPC   GL241858  43.678  25.435   5.764
 3178POPC   C1A41859  43.757  25.139   6.167
 3178POPC   D2A41860  43.553  25.195   6.557
 3178POPC   C3A41861  43.831  25.155   6.917
 3178POPC   C4A41862  43.678  25.130   7.315
 3178POPC   C1B41863  43.877  25.648   6.144
 3178POPC   C2B41864  43.909  25.559   6.609
 3178POPC   C3B41865  43.924  25.649   7.060
 3178POPC   C4B41866  43.974  25.734   7.506
 3179POPC   NC341867  28.176  34.165   5.381
 3179POPC   PO441868  27.606  33.624   5.554
 3179POPC   GL141869  27.742  33.997   5.728
 3179POPC   GL241870  27.851  33.779   5.983
 3179POPC   C1A41871  27.534  34.172   6.091
 3179POPC   D2A41872  27.470  33.875   6.431
 3179POPC   C3A41873  27.512  33.931   6.880
 3179POPC   C4A41874  27.389  33.607   7.186
 3179POPC   C1B41875  28.050  33.636   6.327
 3179POPC   C2B41876  27.833  33.580   6.659
 3179POPC   C3B41877  27.910  33.650   7.055
 3179POPC   C4B41878  28.168  33.399   7.311
 3180POPC   NC341879  15.442  25.597   5.568
 3180POPC   PO441880  15.117  25.134   5.303
 3180POPC   GL141881  15.112  25.217   5.741
 3180POPC   GL241882  15.452  25.145   5.839
 3180POPC   C1A41883  15.087  25.306   6.203
 3180POPC   D2A41884  14.877  25.160   6.614
 3180POPC   C3A41885  14.943  25.459   6.949
 3180POPC   C4A41886  15.057  25.513   7.392
 3180POPC   C1B41887  15.598  25.151   6.281
 3180POPC   C2B41888  15.377  25.269   6.650
 3180POPC   C3B41889  15.380  25.219   7.084
 3180POPC   C4B41890  15.508  24.831   7.219
 3181POPC   NC341891   2.247  28.312   5.427
 3181POPC   PO441892   1.847  28.738   5.278
 3181POPC   GL141893   1.739  28.587   5.717
 3181POPC   GL241894   1.709  28.199   5.757
 3181POPC   C1A41895   1.919  28.472   6.131
 3181POPC   D2A41896   2.077  28.289   6.496
 3181POPC   C3A41897   1.943  28.459   6.878
 3181POPC   C4A41898   2.244  28.371   7.192
 3181POPC   C1B41899   1.807  27.914   6.084
 3181POPC   C2B41900   1.799  27.824   6.516
 3181POPC   C3B41901   1.954  27.961   6.887
 3181POPC   C4B41902   1.821  28.109   7.259
 3182POPC   NC341903  35.605  13.801   5.396
 3182POPC   PO441904  35.035  13.434   5.491
 3182POPC   GL141905  35.253  13.728   5.781
 3182POPC   GL241906  35.569  13.553   5.903
 3182POPC   C1A41907  35.365  13.904   6.181
 3182POPC   D2A41908  35.588  13.582   6.433
 3182POPC   C3A41909  35.588  13.531   6.873
 3182POPC   C4A41910  35.372  13.633   7.239
 3182POPC   C1B41911  35.362  13.197   6.184
 3182POPC   C2B41912  35.110  13.213   6.600
 3182POPC   C3B41913  35.015  13.294   7.067
 3182POPC   C4B41914  35.154  13.310   7.554
 3183POPC   NC341915  22.518  38.834   5.506
 3183POPC   PO441916  21.934  39.215   5.364
 3183POPC   GL141917  21.994  39.239   5.812
 3183POPC   GL241918  22.195  38.970   5.846
 3183POPC   C1A41919  22.257  39.334   6.188
 3183POPC   D2A41920  22.132  39.445   6.577
 3183POPC   C3A41921  22.439  39.495   6.905
 3183POPC   C4A41922  22.335  39.387   7.313
 3183POPC   C1B41923  21.971  38.881   6.173
 3183POPC   C2B41924  22.110  38.933   6.562
 3183POPC   C3B41925  22.132  39.054   6.935
 3183POPC   C4B41926  22.150  38.887   7.332
 3184POPC   NC341927   7.310   5.294   5.331
 3184POPC   PO441928   7.807   5.008   5.607
 3184POPC   GL141929   7.430   5.081   5.808
 3184POPC   GL241930   7.587   5.398   5.834
 3184POPC   C1A41931   7.280   4.940   6.228
 3184POPC   D2A41932   7.439   5.093   6.627
 3184POPC   C3A41933   7.567   4.892   6.965
 3184POPC   C4A41934   7.248   4.750   7.121
 3184POPC   C1B41935   7.747   5.154   6.212
 3184POPC   C2B41936   7.914   5.244   6.576
 3184POPC   C3B41937   7.790   5.364   6.970
 3184POPC   C4B41938   7.660   5.410   7.400
 3185POPC   NC341939  28.391  12.274   5.471
 3185POPC   PO441940  27.822  12.001   5.376
 3185POPC   GL141941  28.009  12.146   5.813
 3185POPC   GL241942  28.353  12.328   5.951
 3185POPC   C1A41943  28.022  12.198   6.287
 3185POPC   D2A41944  28.356  12.075   6.589
 3185POPC   C3A41945  28.241  12.002   7.038
 3185POPC   C4A41946  28.372  11.954   7.470
 3185POPC   C1B41947  28.723  12.405   6.217
 3185POPC   C2B41948  28.859  12.182   6.571
 3185POPC   C3B41949  28.684  12.274   6.951
 3185POPC   C4B41950  28.640  12.378   7.340
 3186POPC   NC341951  25.473  29.500   5.234
 3186POPC   PO441952  25.180  29.980   5.484
 3186POPC   GL141953  25.326  30.009   5.884
 3186POPC   GL241954  25.370  30.346   5.992
 3186POPC   C1A41955  25.573  29.972   6.252
 3186POPC   D2A41956  25.658  29.772   6.598
 3186POPC   C3A41957  25.475  29.974   6.925
 3186POPC   C4A41958  25.475  29.838   7.308
 3186POPC   C1B41959  25.093  30.105   6.319
 3186POPC   C2B41960  25.004  29.900   6.705
 3186POPC   C3B41961  24.983  29.854   7.160
 3186POPC   C4B41962  25.103  30.141   7.496
 3187POPC   NC341963  13.044   2.299   5.619
 3187POPC   PO441964  12.749   1.647   5.517
 3187POPC   GL141965  12.761   1.927   5.824
 3187POPC   GL241966  13.121   1.856   5.902
 3187POPC   C1A41967  12.755   2.114   6.243
 3187POPC   D2A41968  13.024   2.036   6.618
 3187POPC   C3A41969  12.938   2.158   7.044
 3187POPC   C4A41970  12.913   2.542   7.247
 3187POPC   C1B41971  13.402   1.582   6.155
 3187POPC   C2B41972  13.406   1.682   6.594
 3187POPC   C3B41973  13.170   1.692   6.985
 3187POPC   C4B41974  13.272   1.878   7.375
 3188POPC   NC341975  24.733   5.351   5.180
 3188POPC   PO441976  24.574   4.864   5.613
 3188POPC   GL141977  24.535   5.016   5.987
 3188POPC   GL241978  24.337   5.268   5.857
 3188POPC   C1A41979  24.482   4.943   6.379
 3188POPC   D2A41980  24.612   5.132   6.703
 3188POPC   C3A41981  24.478   4.942   7.014
 3188POPC   C4A41982  24.615   4.973   7.390
 3188POPC   C1B41983  24.136   5.309   6.231
 3188POPC   C2B41984  24.226   5.469   6.616
 3188POPC   C3B41985  24.193   5.369   7.024
 3188POPC   C4B41986  23.909   5.506   7.279
 3189POPC   NC341987  19.042  15.344   5.528
 3189POPC   PO441988  19.277  14.823   5.160
 3189POPC   GL141989  19.015  14.841   5.651
 3189POPC   GL241990  19.028  15.110   5.966
 3189POPC   C1A41991  18.789  14.699   6.075
 3189POPC   D2A41992  18.930  14.735   6.536
 3189POPC   C3A41993  19.016  15.123   6.784
 3189POPC   C4A41994  19.202  15.154   7.178
 3189POPC   C1B41995  18.977  15.422   6.316
 3189POPC   C2B41996  19.289  15.661   6.528
 3189POPC   C3B41997  19.406  15.619   6.938
 3189POPC   C4B41998  19.485  15.494   7.395
 3190POPC   NC341999  38.870  31.887   5.462
 3190POPC   PO442000  38.990  32.570   5.502
 3190POPC   GL142001  39.161  32.489   5.904
 3190POPC   GL242002  39.524  32.387   5.911
 3190POPC   C1A42003  39.145  32.250   6.299
 3190POPC   D2A42004  39.340  31.914   6.561
 3190POPC   C3A42005  39.268  32.028   6.990
 3190POPC   C4A42006  38.940  32.112   7.239
 3190POPC   C1B42007  39.484  32.630   6.304
 3190POPC   C2B42008  39.270  32.717   6.682
 3190POPC   C3B42009  39.208  32.548   7.090
 3190POPC   C4B42010  39.602  32.489   7.224
 3191POPC   NC342011  43.245  43.556   5.592
 3191POPC   PO442012  42.910  44.117   5.430
 3191POPC   GL142013  42.873  43.876   5.807
 3191POPC   GL242014  43.216  43.891   5.968
 3191POPC   C1A42015  42.814  44.026   6.246
 3191POPC   D2A42016  43.097  44.011   6.614
 3191POPC   C3A42017  42.880  44.073   6.996
 3191POPC   C4A42018  42.808  43.834   7.332
 3191POPC   C1B42019  43.497  43.752   6.316
 3191POPC   C2B42020  43.581  43.849   6.762
 3191POPC   C3B42021  43.312  43.811   7.107
 3191POPC   C4B42022  43.296  43.613   7.488
 3192POPC   NC342023  41.972   9.265   5.261
 3192POPC   PO442024  41.607   8.685   5.203
 3192POPC   GL142025  41.597   8.908   5.654
 3192POPC   GL242026  41.513   9.226   5.756
 3192POPC   C1A42027  41.665   8.904   6.135
 3192POPC   D2A42028  41.566   8.770   6.571
 3192POPC   C3A42029  41.838   8.674   6.934
 3192POPC   C4A42030  41.608   8.781   7.294
 3192POPC   C1B42031  41.475   9.416   6.183
 3192POPC   C2B42032  41.596   9.564   6.596
 3192POPC   C3B42033  41.531   9.427   7.023
 3192POPC   C4B42034  41.484   9.281   7.448
 3193POPC   NC342035  35.497  30.189   5.516
 3193POPC   PO442036  35.122  29.724   5.491
 3193POPC   GL142037  35.227  29.905   5.903
 3193POPC   GL242038  35.575  30.012   5.982
 3193POPC   C1A42039  35.046  29.873   6.312
 3193POPC   D2A42040  35.047  30.062   6.727
 3193POPC   C3A42041  35.138  29.794   7.085
 3193POPC   C4A42042  35.201  29.962   7.528
 3193POPC   C1B42043  35.528  29.975   6.436
 3193POPC   C2B42044  35.678  29.764   6.814
 3193POPC   C3B42045  35.609  29.866   7.246
 3193POPC   C4B42046  35.706  30.089   7.632
 3194POPC   NC342047  15.443  21.572   5.405
 3194POPC   PO442048  14.846  21.148   5.386
 3194POPC   GL142049  15.114  21.294   5.706
 3194POPC   GL242050  15.042  21.616   5.800
 3194POPC   C1A42051  15.300  21.262   6.127
 3194POPC   D2A42052  15.248  20.978   6.498
 3194POPC   C3A42053  15.348  21.126   6.907
 3194POPC   C4A42054  15.221  21.333   7.241
 3194POPC   C1B42055  15.112  21.749   6.201
 3194POPC   C2B42056  15.011  21.585   6.637
 3194POPC   C3B42057  14.889  21.678   7.084
 3194POPC   C4B42058  14.974  21.616   7.579
 3195POPC   NC342059  21.211   7.335   5.396
 3195POPC   PO442060  21.707   7.053   5.736
 3195POPC   GL142061  21.496   7.362   5.973
 3195POPC   GL242062  21.167   7.461   5.879
 3195POPC   C1A42063  21.532   7.456   6.405
 3195POPC   D2A42064  21.764   7.506   6.808
 3195POPC   C3A42065  21.601   7.274   7.157
 3195POPC   C4A42066  21.658   7.408   7.570
 3195POPC   C1B42067  21.126   7.729   6.240
 3195POPC   C2B42068  21.116   7.581   6.694
 3195POPC   C3B42069  21.228   7.631   7.137
 3195POPC   C4B42070  21.087   7.572   7.569
 3196POPC   NC342071   1.533  22.363   5.303
 3196POPC   PO442072   0.941  22.081   5.216
 3196POPC   GL142073   1.129  22.152   5.635
 3196POPC   GL242074   0.922  21.944   5.836
 3196POPC   C1A42075   1.282  22.228   6.062
 3196POPC   D2A42076   1.074  22.066   6.424
 3196POPC   C3A42077   1.264  22.135   6.821
 3196POPC   C4A42078   1.139  22.104   7.249
 3196POPC   C1B42079   0.811  22.382   6.093
 3196POPC   C2B42080   0.947  22.529   6.530
 3196POPC   C3B42081   0.907  22.477   6.967
 3196POPC   C4B42082   0.986  22.736   7.277
 3197POPC   NC342083  30.830  44.189   5.317
 3197POPC   PO442084  30.588  43.583   5.368
 3197POPC   GL142085  30.719  43.786   5.745
 3197POPC   GL242086  30.937  44.060   5.794
 3197POPC   C1A42087  30.544  43.877   6.169
 3197POPC   D2A42088  30.734  43.710   6.551
 3197POPC   C3A42089  30.538  43.856   6.916
 3197POPC   C4A42090  30.517  44.014   7.352
 3197POPC   C1B42091  31.089  43.832   6.139
 3197POPC   C2B42092  31.249  43.994   6.526
 3197POPC   C3B42093  31.061  44.134   6.906
 3197POPC   C4B42094  31.011  43.894   7.258
 3198POPC   NC342095  25.225  42.814   5.560
 3198POPC   PO442096  24.952  43.445   5.360
 3198POPC   GL142097  24.984  43.233   5.773
 3198POPC   GL242098  25.245  43.420   5.951
 3198POPC   C1A42099  24.936  43.131   6.244
 3198POPC   D2A42100  25.192  43.005   6.638
 3198POPC   C3A42101  25.076  43.063   7.084
 3198POPC   C4A42102  25.233  43.043   7.522
 3198POPC   C1B42103  25.458  43.325   6.322
 3198POPC   C2B42104  25.467  43.431   6.753
 3198POPC   C3B42105  25.478  43.382   7.168
 3198POPC   C4B42106  25.714  43.177   7.466
 3199POPC   NC342107  44.110  34.196   5.118
 3199POPC   PO442108  43.527  34.525   5.357
 3199POPC   GL142109  43.891  34.398   5.611
 3199POPC   GL242110  44.061  34.708   5.725
 3199POPC   C1A42111  43.952  34.322   6.065
 3199POPC   D2A42112  44.021  34.441   6.502
 3199POPC   C3A42113  43.735  34.689   6.766
 3199POPC   C4A42114  43.802  34.446   7.157
 3199POPC   C1B42115  43.977  34.856   6.150
 3199POPC   C2B42116  44.212  34.928   6.526
 3199POPC   C3B42117  44.192  34.772   6.938
 3199POPC   C4B42118  43.895  34.920   7.245
 3200POPC   NC342119   5.256  13.372   5.324
 3200POPC   PO442120   4.820  13.770   5.366
 3200POPC   GL142121   5.097  13.678   5.724
 3200POPC   GL242122   5.051  14.005   5.850
 3200POPC   C1A42123   5.153  13.550   6.164
 3200POPC   D2A42124   4.941  13.339   6.496
 3200POPC   C3A42125   4.974  13.549   6.881
 3200POPC   C4A42126   5.319  13.540   7.125
 3200POPC   C1B42127   4.889  14.108   6.243
 3200POPC   C2B42128   5.107  14.061   6.620
 3200POPC   C3B42129   5.284  14.032   7.017
 3200POPC   C4B42130   4.956  13.908   7.293
 3201POPC   NC342131  37.844  33.101   5.347
 3201POPC   PO442132  37.372  33.506   5.435
 3201POPC   GL142133  37.617  33.316   5.758
 3201POPC   GL242134  37.607  32.972   5.807
 3201POPC   C1A42135  37.849  33.285   6.129
 3201POPC   D2A42136  37.706  33.278   6.541
 3201POPC   C3A42137  37.901  33.067   6.880
 3201POPC   C4A42138  37.836  33.092   7.280
 3201POPC   C1B42139  37.719  32.799   6.196
 3201POPC   C2B42140  37.617  32.775   6.592
 3201POPC   C3B42141  37.595  32.681   7.026
 3201POPC   C4B42142  37.477  32.789   7.474
 3202POPC   NC342143  21.500  32.621   5.472
 3202POPC   PO442144  21.295  31.969   5.569
 3202POPC   GL142145  21.482  32.246   5.838
 3202POPC   GL242146  21.409  32.595   5.961
 3202POPC   C1A42147  21.486  32.161   6.261
 3202POPC   D2A42148  21.300  32.090   6.650
 3202POPC   C3A42149  21.530  32.024   7.038
 3202POPC   C4A42150  21.321  32.001   7.475
 3202POPC   C1B42151  21.570  32.657   6.336
 3202POPC   C2B42152  21.742  32.410   6.658
 3202POPC   C3B42153  21.421  32.527   6.916
 3202POPC   C4B42154  21.297  32.643   7.302
 3203POPC   NC342155  20.896  23.615   5.399
 3203POPC   PO442156  20.298  23.538   5.508
 3203POPC   GL142157  20.583  23.719   5.832
 3203POPC   GL242158  20.951  23.571   5.896
 3203POPC   C1A42159  20.543  24.040   6.181
 3203POPC   D2A42160  20.459  23.903   6.615
 3203POPC   C3A42161  20.369  23.647   6.961
 3203POPC   C4A42162  20.546  23.869   7.281
 3203POPC   C1B42163  20.783  23.620   6.300
 3203POPC   C2B42164  20.761  23.486   6.679
 3203POPC   C3B42165  20.862  23.508   7.104
 3203POPC   C4B42166  20.943  23.439   7.561
 3204POPC   NC342167  28.597  40.989   5.416
 3204POPC   PO442168  28.137  40.598   5.543
 3204POPC   GL142169  28.480  40.662   5.864
 3204POPC   GL242170  28.629  41.005   5.916
 3204POPC   C1A42171  28.539  40.596   6.331
 3204POPC   D2A42172  28.265  40.736   6.700
 3204POPC   C3A42173  28.123  40.793   7.160
 3204POPC   C4A42174  28.164  40.517   7.555
 3204POPC   C1B42175  28.757  41.072   6.297
 3204POPC   C2B42176  28.758  40.924   6.674
 3204POPC   C3B42177  28.702  40.666   7.022
 3204POPC   C4B42178  28.564  40.773   7.433
 3205POPC   NC342179  41.307   2.075   5.360
 3205POPC   PO442180  41.873   2.181   5.259
 3205POPC   GL142181  41.646   2.143   5.755
 3205POPC   GL242182  41.295   2.077   5.873
 3205POPC   C1A42183  41.649   2.261   6.223
 3205POPC   D2A42184  41.489   2.322   6.671
 3205POPC   C3A42185  41.800   2.276   7.034
 3205POPC   C4A42186  41.843   2.025   7.429
 3205POPC   C1B42187  41.376   1.828   6.264
 3205POPC   C2B42188  41.345   1.811   6.694
 3205POPC   C3B42189  41.491   1.870   7.100
 3205POPC   C4B42190  41.239   1.780   7.499
 3206POPC   NC342191  27.612  10.885   5.385
 3206POPC   PO442192  27.381  10.225   5.478
 3206POPC   GL142193  27.575  10.489   5.807
 3206POPC   GL242194  27.510  10.844   5.861
 3206POPC   C1A42195  27.893  10.604   6.115
 3206POPC   D2A42196  27.768  10.801   6.478
 3206POPC   C3A42197  27.865  10.627   6.881
 3206POPC   C4A42198  27.975  10.744   7.282
 3206POPC   C1B42199  27.317  10.737   6.216
 3206POPC   C2B42200  27.310  10.999   6.551
 3206POPC   C3B42201  27.406  10.864   6.915
 3206POPC   C4B42202  27.493  10.681   7.285
 3207POPC   NC342203  32.124   5.757   5.416
 3207POPC   PO442204  31.970   6.318   5.643
 3207POPC   GL142205  32.146   6.083   5.913
 3207POPC   GL242206  32.018   6.308   6.167
 3207POPC   C1A42207  31.971   5.763   6.199
 3207POPC   D2A42208  31.915   5.686   6.648
 3207POPC   C3A42209  32.207   5.578   7.021
 3207POPC   C4A42210  32.505   5.477   7.367
 3207POPC   C1B42211  32.330   6.101   6.385
 3207POPC   C2B42212  32.554   6.224   6.705
 3207POPC   C3B42213  32.314   6.172   7.022
 3207POPC   C4B42214  32.498   5.996   7.351
 3208POPC   NC342215  34.174  13.763   5.514
 3208POPC   PO442216  33.554  13.951   5.283
 3208POPC   GL142217  33.643  13.679   5.686
 3208POPC   GL242218  33.888  13.384   5.766
 3208POPC   C1A42219  33.654  13.626   6.154
 3208POPC   D2A42220  33.561  13.832   6.552
 3208POPC   C3A42221  33.576  13.750   6.984
 3208POPC   C4A42222  33.493  13.885   7.424
 3208POPC   C1B42223  34.084  13.328   6.181
 3208POPC   C2B42224  34.015  13.557   6.531
 3208POPC   C3B42225  34.084  13.708   6.912
 3208POPC   C4B42226  33.937  13.604   7.289
 3209POPC   NC342227   8.375  12.273   5.521
 3209POPC   PO442228   7.789  11.949   5.434
 3209POPC   GL142229   8.099  11.917   5.813
 3209POPC   GL242230   8.396  11.670   5.804
 3209POPC   C1A42231   8.048  12.090   6.267
 3209POPC   D2A42232   7.890  12.043   6.727
 3209POPC   C3A42233   8.100  12.127   7.161
 3209POPC   C4A42234   8.145  11.940   7.585
 3209POPC   C1B42235   8.520  11.917   6.163
 3209POPC   C2B42236   8.371  11.844   6.583
 3209POPC   C3B42237   8.540  11.938   6.961
 3209POPC   C4B42238   8.526  11.710   7.322
 3210POPC   NC342239  38.358  31.191   5.247
 3210POPC   PO442240  38.481  31.725   5.659
 3210POPC   GL142241  38.426  31.355   5.866
 3210POPC   GL242242  38.110  31.186   5.763
 3210POPC   C1A42243  38.462  31.443   6.309
 3210POPC   D2A42244  38.497  31.699   6.667
 3210POPC   C3A42245  38.467  31.442   7.001
 3210POPC   C4A42246  38.804  31.604   7.239
 3210POPC   C1B42247  37.994  31.325   6.192
 3210POPC   C2B42248  38.033  31.491   6.612
 3210POPC   C3B42249  37.972  31.244   6.976
 3210POPC   C4B42250  38.108  31.115   7.368
 3211POPC   NC342251  13.399  37.446   5.559
 3211POPC   PO442252  12.795  37.577   5.417
 3211POPC   GL142253  12.835  37.629   5.832
 3211POPC   GL242254  13.134  37.829   5.919
 3211POPC   C1A42255  12.655  37.757   6.201
 3211POPC   D2A42256  12.855  37.799   6.581
 3211POPC   C3A42257  12.591  37.581   6.857
 3211POPC   C4A42258  12.513  37.606   7.283
 3211POPC   C1B42259  13.282  37.637   6.305
 3211POPC   C2B42260  13.250  37.519   6.760
 3211POPC   C3B42261  12.999  37.479   7.133
 3211POPC   C4B42262  13.067  37.553   7.556
 3212POPC   NC342263   9.472  27.480   5.494
 3212POPC   PO442264   9.994  27.852   5.463
 3212POPC   GL142265   9.835  27.674   5.830
 3212POPC   GL242266   9.798  27.315   5.851
 3212POPC   C1A42267   9.957  27.580   6.260
 3212POPC   D2A42268   9.762  27.588   6.663
 3212POPC   C3A42269   9.956  27.603   7.078
 3212POPC   C4A42270  10.015  27.761   7.522
 3212POPC   C1B42271   9.489  27.385   6.198
 3212POPC   C2B42272   9.361  27.282   6.619
 3212POPC   C3B42273   9.428  27.465   7.037
 3212POPC   C4B42274   9.616  27.462   7.448
 3213POPC   NC342275  41.470  22.400   5.375
 3213POPC   PO442276  41.734  21.780   5.615
 3213POPC   GL142277  41.527  22.130   5.871
 3213POPC   GL242278  41.292  22.426   5.849
 3213POPC   C1A42279  41.580  22.300   6.308
 3213POPC   D2A42280  41.785  22.418   6.728
 3213POPC   C3A42281  41.823  22.074   7.046
 3213POPC   C4A42282  41.649  22.051   7.470
 3213POPC   C1B42283  41.052  22.355   6.219
 3213POPC   C2B42284  41.097  22.234   6.655
 3213POPC   C3B42285  41.333  22.306   7.054
 3213POPC   C4B42286  41.165  22.222   7.478
 3214POPC   NC342287  27.307   1.669   5.364
 3214POPC   PO442288  27.771   2.173   5.264
 3214POPC   GL142289  27.775   2.111   5.736
 3214POPC   GL242290  27.437   2.250   5.808
 3214POPC   C1A42291  27.650   1.920   6.160
 3214POPC   D2A42292  27.842   1.949   6.593
 3214POPC   C3A42293  27.585   1.741   6.875
 3214POPC   C4A42294  27.440   1.735   7.287
 3214POPC   C1B42295  27.526   2.416   6.213
 3214POPC   C2B42296  27.411   2.229   6.641
 3214POPC   C3B42297  27.450   2.214   7.108
 3214POPC   C4B42298  27.287   2.413   7.530
 3215POPC   NC342299  14.700  43.640   5.631
 3215POPC   PO442300  14.105  43.939   5.452
 3215POPC   GL142301  14.326  43.922   5.844
 3215POPC   GL242302  14.625  44.082   5.953
 3215POPC   C1A42303  14.238  43.882   6.265
 3215POPC   D2A42304  14.313  43.878   6.684
 3215POPC   C3A42305  14.116  44.042   7.001
 3215POPC   C4A42306  14.255  43.695   7.237
 3215POPC   C1B42307  14.731  44.239   6.365
 3215POPC   C2B42308  14.603  44.280   6.791
 3215POPC   C3B42309  14.665  43.990   7.111
 3215POPC   C4B42310  14.869  43.590   7.046
 3216POPC   NC342311  32.608  28.662   5.468
 3216POPC   PO442312  32.198  28.175   5.422
 3216POPC   GL142313  32.222  28.223   5.835
 3216POPC   GL242314  32.549  28.348   5.895
 3216POPC   C1A42315  31.980  28.295   6.214
 3216POPC   D2A42316  32.178  28.519   6.559
 3216POPC   C3A42317  31.948  28.431   6.912
 3216POPC   C4A42318  32.089  28.327   7.273
 3216POPC   C1B42319  32.449  28.121   6.289
 3216POPC   C2B42320  32.615  28.160   6.704
 3216POPC   C3B42321  32.515  28.087   7.128
 3216POPC   C4B42322  32.516  27.967   7.553
 3217POPC   NC342323  10.834  44.713   5.202
 3217POPC   PO442324  10.297  44.673   5.637
 3217POPC   GL142325  10.412  44.455   5.966
 3217POPC   GL242326  10.718  44.692   6.076
 3217POPC   C1A42327  10.318  44.641   6.361
 3217POPC   D2A42328  10.187   0.022   6.547
 3217POPC   C3A42329  10.086  44.949   6.966
 3217POPC   C4A42330  10.372  44.947   7.322
 3217POPC   C1B42331  10.727  44.286   6.320
 3217POPC   C2B42332  10.444  44.228   6.626
 3217POPC   C3B42333  10.419  44.536   6.940
 3217POPC   C4B42334  10.578  44.469   7.352
 3218POPC   NC342335  36.634  26.368   5.451
 3218POPC   PO442336  37.279  26.123   5.328
 3218POPC   GL142337  37.007  26.138   5.696
 3218POPC   GL242338  36.847  25.852   5.873
 3218POPC   C1A42339  36.890  26.334   6.090
 3218POPC   D2A42340  37.048  26.079   6.428
 3218POPC   C3A42341  37.094  26.099   6.830
 3218POPC   C4A42342  36.964  26.098   7.214
 3218POPC   C1B42343  36.588  25.956   6.260
 3218POPC   C2B42344  36.599  26.012   6.723
 3218POPC   C3B42345  36.480  25.985   7.172
 3218POPC   C4B42346  36.313  25.991   7.581
 3219POPC   NC342347  33.132  33.153   5.483
 3219POPC   PO442348  32.454  33.372   5.600
 3219POPC   GL142349  32.736  33.198   5.935
 3219POPC   GL242350  33.099  33.112   5.970
 3219POPC   C1A42351  32.821  33.106   6.388
 3219POPC   D2A42352  33.113  33.207   6.718
 3219POPC   C3A42353  32.897  33.157   7.102
 3219POPC   C4A42354  32.875  33.001   7.525
 3219POPC   C1B42355  33.328  32.951   6.302
 3219POPC   C2B42356  33.230  32.673   6.637
 3219POPC   C3B42357  33.351  32.835   7.003
 3219POPC   C4B42358  33.395  33.244   7.171
 3220POPC   NC342359  14.724  25.403   5.371
 3220POPC   PO442360  14.113  25.387   5.689
 3220POPC   GL142361  14.503  25.335   5.846
 3220POPC   GL242362  14.445  24.975   5.787
 3220POPC   C1A42363  14.587  25.465   6.279
 3220POPC   D2A42364  14.296  25.483   6.642
 3220POPC   C3A42365  14.461  25.284   7.009
 3220POPC   C4A42366  14.560  25.406   7.397
 3220POPC   C1B42367  14.262  25.056   6.226
 3220POPC   C2B42368  14.390  24.955   6.625
 3220POPC   C3B42369  14.173  24.864   6.983
 3220POPC   C4B42370  14.170  24.981   7.380
 3221POPC   NC342371  13.731  36.476   5.506
 3221POPC   PO442372  13.703  37.162   5.367
 3221POPC   GL142373  13.642  37.008   5.788
 3221POPC   GL242374  13.280  36.985   5.792
 3221POPC   C1A42375  13.710  36.740   6.177
 3221POPC   D2A42376  13.757  36.540   6.614
 3221POPC   C3A42377  13.694  36.757   7.044
 3221POPC   C4A42378  13.843  37.018   7.417
 3221POPC   C1B42379  13.380  37.128   6.232
 3221POPC   C2B42380  13.431  37.019   6.679
 3221POPC   C3B42381  13.387  37.154   7.124
 3221POPC   C4B42382  13.100  37.060   7.463
 3222POPC   NC342383  17.245  21.527   5.453
 3222POPC   PO442384  17.931  21.559   5.445
 3222POPC   GL142385  17.651  21.436   5.817
 3222POPC   GL242386  17.302  21.304   5.907
 3222POPC   C1A42387  17.641  21.578   6.250
 3222POPC   D2A42388  17.791  21.421   6.662
 3222POPC   C3A42389  17.673  21.245   7.068
 3222POPC   C4A42390  17.591  21.419   7.438
 3222POPC   C1B42391  17.318  21.200   6.343
 3222POPC   C2B42392  17.274  21.311   6.782
 3222POPC   C3B42393  17.186  21.157   7.230
 3222POPC   C4B42394  17.147  21.386   7.656
 3223POPC   NC342395  18.947  27.283   5.620
 3223POPC   PO442396  18.983  26.639   5.409
 3223POPC   GL142397  18.813  26.818   5.791
 3223POPC   GL242398  19.155  26.861   5.861
 3223POPC   C1A42399  18.867  26.999   6.245
 3223POPC   D2A42400  18.841  27.147   6.665
 3223POPC   C3A42401  18.729  26.917   7.007
 3223POPC   C4A42402  18.830  26.665   7.364
 3223POPC   C1B42403  19.290  26.699   6.256
 3223POPC   C2B42404  19.467  26.803   6.666
 3223POPC   C3B42405  19.239  26.826   7.018
 3223POPC   C4B42406  19.324  26.869   7.405
 3224POPC   NC342407  25.387  26.314   5.408
 3224POPC   PO442408  25.168  25.660   5.285
 3224POPC   GL142409  25.293  25.905   5.709
 3224POPC   GL242410  25.081  26.160   5.828
 3224POPC   C1A42411  25.426  25.918   6.152
 3224POPC   D2A42412  25.490  26.185   6.533
 3224POPC   C3A42413  25.458  25.974   6.895
 3224POPC   C4A42414  25.241  25.920   7.280
 3224POPC   C1B42415  25.150  26.401   6.208
 3224POPC   C2B42416  25.127  26.579   6.635
 3224POPC   C3B42417  25.133  26.365   7.048
 3224POPC   C4B42418  25.101  26.346   7.538
 3225POPC   NC342419  14.344   1.147   5.521
 3225POPC   PO442420  14.642   1.634   5.405
 3225POPC   GL142421  14.578   1.465   5.840
 3225POPC   GL242422  14.745   1.098   5.835
 3225POPC   C1A42423  14.395   1.256   6.202
 3225POPC   D2A42424  14.289   1.321   6.634
 3225POPC   C3A42425  14.376   1.062   6.962
 3225POPC   C4A42426  14.399   1.330   7.231
 3225POPC   C1B42427  14.903   1.044   6.232
 3225POPC   C2B42428  14.721   0.997   6.609
 3225POPC   C3B42429  14.869   1.009   7.036
 3225POPC   C4B42430  14.616   0.951   7.452
 3226POPC   NC342431  16.663  18.458   5.338
 3226POPC   PO442432  17.000  17.840   5.439
 3226POPC   GL142433  16.789  18.157   5.761
 3226POPC   GL242434  16.408  18.271   5.739
 3226POPC   C1A42435  16.893  18.172   6.221
 3226POPC   D2A42436  17.090  18.440   6.557
 3226POPC   C3A42437  16.950  18.357   6.990
 3226POPC   C4A42438  16.879  17.952   7.200
 3226POPC   C1B42439  16.447  18.418   6.169
 3226POPC   C2B42440  16.581  18.371   6.606
 3226POPC   C3B42441  16.472  18.198   7.009
 3226POPC   C4B42442  16.609  18.300   7.429
 3227POPC   NC342443  18.369  21.733   5.473
 3227POPC   PO442444  18.521  21.076   5.711
 3227POPC   GL142445  18.196  21.361   5.881
 3227POPC   GL242446  18.443  21.584   5.934
 3227POPC   C1A42447  18.156  21.474   6.320
 3227POPC   D2A42448  18.379  21.399   6.681
 3227POPC   C3A42449  18.154  21.390   7.029
 3227POPC   C4A42450  18.149  21.789   7.169
 3227POPC   C1B42451  18.689  21.470   6.285
 3227POPC   C2B42452  18.844  21.689   6.625
 3227POPC   C3B42453  18.629  21.700   6.993
 3227POPC   C4B42454  18.559  21.382   7.323
 3228POPC   NC342455  12.397  38.573   5.538
 3228POPC   PO442456  11.704  38.549   5.407
 3228POPC   GL142457  11.959  38.670   5.781
 3228POPC   GL242458  12.160  38.360   5.949
 3228POPC   C1A42459  11.991  38.754   6.230
 3228POPC   D2A42460  12.013  38.390   6.493
 3228POPC   C3A42461  11.913  38.440   6.917
 3228POPC   C4A42462  11.873  38.237   7.325
 3228POPC   C1B42463  12.462  38.521   6.281
 3228POPC   C2B42464  12.403  38.605   6.750
 3228POPC   C3B42465  12.346  38.475   7.192
 3228POPC   C4B42466  12.251  38.516   7.647
 3229POPC   NC342467  44.557   0.460   5.166
 3229POPC   PO442468  44.455  44.883   5.384
 3229POPC   GL142469  44.553   0.239   5.689
 3229POPC   GL242470  44.568   0.591   5.690
 3229POPC   C1A42471  44.696   0.343   6.129
 3229POPC   D2A42472  44.825   0.635   6.466
 3229POPC   C3A42473  44.731   0.401   6.849
 3229POPC   C4A42474  44.744   0.470   7.281
 3229POPC   C1B42475  44.430   0.779   6.127
 3229POPC   C2B42476  44.322   0.607   6.545
 3229POPC   C3B42477  44.500   0.852   6.893
 3229POPC   C4B42478  44.428   0.885   7.314
 3230POPC   NC342479  17.028  38.501   5.431
 3230POPC   PO442480  17.748  38.316   5.350
 3230POPC   GL142481  17.621  38.336   5.791
 3230POPC   GL242482  17.281  38.207   5.815
 3230POPC   C1A42483  17.670  38.556   6.216
 3230POPC   D2A42484  17.412  38.556   6.584
 3230POPC   C3A42485  17.654  38.481   6.951
 3230POPC   C4A42486  17.487  38.325   7.350
 3230POPC   C1B42487  17.462  38.068   6.243
 3230POPC   C2B42488  17.495  38.056   6.719
 3230POPC   C3B42489  17.207  37.983   7.095
 3230POPC   C4B42490  17.201  37.904   7.571
 3231POPC   NC342491  32.534   2.520   5.555
 3231POPC   PO442492  32.340   1.950   5.133
 3231POPC   GL142493  32.228   2.071   5.590
 3231POPC   GL242494  32.085   2.385   5.733
 3231POPC   C1A42495  32.249   2.030   6.052
 3231POPC   D2A42496  32.335   1.772   6.429
 3231POPC   C3A42497  32.219   1.938   6.859
 3231POPC   C4A42498  32.260   1.827   7.313
 3231POPC   C1B42499  31.808   2.309   6.096
 3231POPC   C2B42500  31.964   2.249   6.516
 3231POPC   C3B42501  31.974   2.406   6.938
 3231POPC   C4B42502  31.864   2.157   7.254
 3232POPC   NC342503  32.185  21.850   5.398
 3232POPC   PO442504  32.131  22.503   5.481
 3232POPC   GL142505  32.308  22.329   5.885
 3232POPC   GL242506  32.530  22.005   5.833
 3232POPC   C1A42507  32.162  22.177   6.319
 3232POPC   D2A42508  32.143  21.990   6.761
 3232POPC   C3A42509  32.040  22.188   7.163
 3232POPC   C4A42510  31.953  22.416   7.532
 3232POPC   C1B42511  32.695  22.141   6.227
 3232POPC   C2B42512  32.570  22.310   6.613
 3232POPC   C3B42513  32.514  22.311   7.025
 3232POPC   C4B42514  32.454  21.889   7.214
 3233POPC   NC342515  39.629  37.333   5.603
 3233POPC   PO442516  40.324  37.568   5.476
 3233POPC   GL142517  40.073  37.599   5.797
 3233POPC   GL242518  40.202  37.903   5.912
 3233POPC   C1A42519  40.056  37.388   6.210
 3233POPC   D2A42520  39.812  37.270   6.590
 3233POPC   C3A42521  39.963  37.409   6.987
 3233POPC   C4A42522  39.737  37.523   7.373
 3233POPC   C1B42523  39.807  37.866   6.137
 3233POPC   C2B42524  39.704  37.945   6.568
 3233POPC   C3B42525  39.747  37.902   7.008
 3233POPC   C4B42526  40.062  37.904   7.330
 3234POPC   NC342527   8.506   3.102   5.493
 3234POPC   PO442528   8.162   2.560   5.302
 3234POPC   GL142529   8.125   2.765   5.691
 3234POPC   GL242530   8.481   2.693   5.796
 3234POPC   C1A42531   7.913   2.763   6.109
 3234POPC   D2A42532   7.948   2.445   6.454
 3234POPC   C3A42533   8.145   2.598   6.837
 3234POPC   C4A42534   8.037   2.920   7.154
 3234POPC   C1B42535   8.385   2.676   6.229
 3234POPC   C2B42536   8.293   2.995   6.543
 3234POPC   C3B42537   8.478   3.017   6.964
 3234POPC   C4B42538   8.478   2.636   7.259
 3235POPC   NC342539  17.140  28.928   5.497
 3235POPC   PO442540  16.476  29.246   5.433
 3235POPC   GL142541  16.739  29.169   5.822
 3235POPC   GL242542  16.815  28.787   5.878
 3235POPC   C1A42543  16.840  29.414   6.202
 3235POPC   D2A42544  17.065  29.377   6.617
 3235POPC   C3A42545  16.831  29.275   6.985
 3235POPC   C4A42546  16.846  29.305   7.435
 3235POPC   C1B42547  16.861  28.910   6.333
 3235POPC   C2B42548  16.611  28.892   6.724
 3235POPC   C3B42549  16.655  28.849   7.178
 3235POPC   C4B42550  17.002  28.815   7.428
 3236POPC   NC342551  25.889  14.659   5.601
 3236POPC   PO442552  26.332  14.161   5.449
 3236POPC   GL142553  26.189  14.321   5.835
 3236POPC   GL242554  25.882  14.195   5.916
 3236POPC   C1A42555  26.361  14.546   6.185
 3236POPC   D2A42556  26.299  14.729   6.580
 3236POPC   C3A42557  25.956  14.534   6.768
 3236POPC   C4A42558  25.809  14.356   7.147
 3236POPC   C1B42559  25.844  14.486   6.264
 3236POPC   C2B42560  25.515  14.637   6.560
 3236POPC   C3B42561  25.567  14.812   6.987
 3236POPC   C4B42562  25.466  14.628   7.421
 3237POPC   NC342563  20.094  13.324   5.662
 3237POPC   PO442564  19.585  13.290   5.232
 3237POPC   GL142565  19.755  13.643   5.796
 3237POPC   GL242566  19.778  13.996   5.855
 3237POPC   C1A42567  19.966  13.531   6.254
 3237POPC   D2A42568  20.182  13.302   6.617
 3237POPC   C3A42569  20.143  13.539   6.980
 3237POPC   C4A42570  19.823  13.544   7.253
 3237POPC   C1B42571  19.535  13.809   6.249
 3237POPC   C2B42572  19.482  13.691   6.723
 3237POPC   C3B42573  19.457  13.876   7.175
 3237POPC   C4B42574  19.589  13.781   7.649
 3238POPC   NC342575   4.951  10.644   5.617
 3238POPC   PO442576   5.385  11.039   5.386
 3238POPC   GL142577   5.432  10.735   5.788
 3238POPC   GL242578   5.285  10.338   5.841
 3238POPC   C1A42579   5.255  10.689   6.224
 3238POPC   D2A42580   5.090  10.467   6.593
 3238POPC   C3A42581   5.045  10.738   6.955
 3238POPC   C4A42582   5.002  10.608   7.374
 3238POPC   C1B42583   4.861  10.304   6.150
 3238POPC   C2B42584   4.607  10.331   6.552
 3238POPC   C3B42585   4.749  10.271   6.974
 3238POPC   C4B42586   4.582  10.334   7.371
 3239POPC   NC342587  26.542  30.581   5.236
 3239POPC   PO442588  27.004  31.052   5.426
 3239POPC   GL142589  26.673  30.845   5.737
 3239POPC   GL242590  26.612  30.470   5.784
 3239POPC   C1A42591  26.716  30.741   6.216
 3239POPC   D2A42592  26.812  30.592   6.643
 3239POPC   C3A42593  26.605  30.748   7.025
 3239POPC   C4A42594  26.533  30.531   7.385
 3239POPC   C1B42595  26.825  30.244   6.164
 3239POPC   C2B42596  26.774  30.070   6.582
 3239POPC   C3B42597  26.721  30.229   7.024
 3239POPC   C4B42598  26.866  30.108   7.466
 3240POPC   NC342599  37.759  35.776   5.478
 3240POPC   PO442600  37.470  35.152   5.300
 3240POPC   GL142601  37.630  35.324   5.706
 3240POPC   GL242602  37.699  35.030   5.843
 3240POPC   C1A42603  37.527  35.393   6.186
 3240POPC   D2A42604  37.727  35.416   6.600
 3240POPC   C3A42605  37.535  35.594   6.946
 3240POPC   C4A42606  37.255  35.594   7.275
 3240POPC   C1B42607  37.866  35.009   6.252
 3240POPC   C2B42608  38.087  35.061   6.648
 3240POPC   C3B42609  37.834  35.092   7.036
 3240POPC   C4B42610  37.650  35.312   7.388
 3241POPC   NC342611  21.480  33.291   5.433
 3241POPC   PO442612  21.824  32.793   5.738
 3241POPC   GL142613  21.615  33.095   5.970
 3241POPC   GL242614  21.274  33.217   5.887
 3241POPC   C1A42615  21.482  33.177   6.383
 3241POPC   D2A42616  21.445  33.306   6.810
 3241POPC   C3A42617  21.239  33.121   7.121
 3241POPC   C4A42618  21.461  33.076   7.504
 3241POPC   C1B42619  21.080  32.935   6.174
 3241POPC   C2B42620  21.126  32.831   6.611
 3241POPC   C3B42621  20.904  32.739   6.993
 3241POPC   C4B42622  20.788  32.808   7.410
 3242POPC   NC342623  28.127  43.530   5.468
 3242POPC   PO442624  28.663  43.125   5.418
 3242POPC   GL142625  28.432  43.303   5.817
 3242POPC   GL242626  28.109  43.153   5.937
 3242POPC   C1A42627  28.356  43.404   6.276
 3242POPC   D2A42628  28.189  43.252   6.658
 3242POPC   C3A42629  28.344  43.474   6.993
 3242POPC   C4A42630  28.183  43.359   7.364
 3242POPC   C1B42631  28.234  42.901   6.281
 3242POPC   C2B42632  28.424  42.769   6.672
 3242POPC   C3B42633  28.405  42.976   7.064
 3242POPC   C4B42634  28.624  42.884   7.425
 3243POPC   NC342635   5.708  18.165   5.409
 3243POPC   PO442636   6.330  18.460   5.429
 3243POPC   GL142637   5.996  18.464   5.755
 3243POPC   GL242638   6.013  18.142   5.810
 3243POPC   C1A42639   5.836  18.430   6.191
 3243POPC   D2A42640   5.709  18.564   6.583
 3243POPC   C3A42641   5.834  18.395   6.986
 3243POPC   C4A42642   5.882  18.773   7.229
 3243POPC   C1B42643   6.164  18.029   6.198
 3243POPC   C2B42644   5.999  18.038   6.588
 3243POPC   C3B42645   6.216  18.059   6.979
 3243POPC   C4B42646   6.003  18.023   7.365
 3244POPC   NC342647  44.710   4.723   5.259
 3244POPC   PO442648  44.728   4.099   5.269
 3244POPC   GL142649  44.596   4.377   5.643
 3244POPC   GL242650  44.933   4.476   5.774
 3244POPC   C1A42651  44.516   4.447   6.111
 3244POPC   D2A42652  44.545   4.176   6.471
 3244POPC   C3A42653  44.450   4.348   6.878
 3244POPC   C4A42654  44.494   4.262   7.290
 3244POPC   C1B42655  44.967   4.660   6.199
 3244POPC   C2B42656  44.849   4.568   6.618
 3244POPC   C3B42657  44.875   4.600   7.074
 3244POPC   C4B42658   0.072   4.212   7.184
 3245POPC   NC342659   7.671  21.344   5.363
 3245POPC   PO442660   7.088  21.654   5.390
 3245POPC   GL142661   7.391  21.632   5.761
 3245POPC   GL242662   7.429  21.263   5.826
 3245POPC   C1A42663   7.310  21.594   6.240
 3245POPC   D2A42664   7.135  21.322   6.607
 3245POPC   C3A42665   7.332  21.392   7.043
 3245POPC   C4A42666   7.249  21.474   7.514
 3245POPC   C1B42667   7.574  21.140   6.244
 3245POPC   C2B42668   7.624  21.133   6.681
 3245POPC   C3B42669   7.716  21.039   7.094
 3245POPC   C4B42670   7.730  21.306   7.410
 3246POPC   NC342671  26.643  10.687   5.439
 3246POPC   PO442672  27.187  11.055   5.485
 3246POPC   GL142673  27.020  10.699   5.789
 3246POPC   GL242674  26.677  10.804   5.924
 3246POPC   C1A42675  26.856  10.394   6.129
 3246POPC   D2A42676  26.538  10.335   6.500
 3246POPC   C3A42677  26.556  10.471   6.959
 3246POPC   C4A42678  26.731  10.245   7.382
 3246POPC   C1B42679  26.830  10.857   6.337
 3246POPC   C2B42680  26.973  10.620   6.680
 3246POPC   C3B42681  27.069  10.488   7.095
 3246POPC   C4B42682  27.053  10.653   7.533
 3247POPC   NC342683  16.963   5.302   5.282
 3247POPC   PO442684  16.373   4.983   5.484
 3247POPC   GL142685  16.650   4.852   5.831
 3247POPC   GL242686  16.971   5.041   5.741
 3247POPC   C1A42687  16.639   4.739   6.314
 3247POPC   D2A42688  16.587   4.743   6.785
 3247POPC   C3A42689  16.499   5.153   7.015
 3247POPC   C4A42690  16.362   5.364   7.384
 3247POPC   C1B42691  16.997   5.079   6.189
 3247POPC   C2B42692  17.100   4.989   6.644
 3247POPC   C3B42693  17.013   5.262   7.035
 3247POPC   C4B42694  16.832   5.272   7.496
 3248POPC   NC342695   6.950   6.618   5.519
 3248POPC   PO442696   6.364   6.909   5.648
 3248POPC   GL142697   6.612   6.707   5.914
 3248POPC   GL242698   6.593   6.410   5.846
 3248POPC   C1A42699   6.508   6.565   6.335
 3248POPC   D2A42700   6.387   6.688   6.729
 3248POPC   C3A42701   6.744   6.748   6.892
 3248POPC   C4A42702   6.904   7.003   7.181
 3248POPC   C1B42703   6.900   6.294   6.139
 3248POPC   C2B42704   6.857   6.226   6.579
 3248POPC   C3B42705   6.537   6.219   6.889
 3248POPC   C4B42706   6.614   6.425   7.258
 3249POPC   NC342707   3.695   1.617   5.484
 3249POPC   PO442708   3.396   2.278   5.441
 3249POPC   GL142709   3.592   2.150   5.829
 3249POPC   GL242710   3.431   1.849   5.880
 3249POPC   C1A42711   3.698   2.144   6.284
 3249POPC   D2A42712   4.033   2.359   6.513
 3249POPC   C3A42713   4.039   2.202   6.928
 3249POPC   C4A42714   3.658   2.140   7.146
 3249POPC   C1B42715   3.507   1.681   6.293
 3249POPC   C2B42716   3.763   1.803   6.678
 3249POPC   C3B42717   3.675   1.643   7.074
 3249POPC   C4B42718   3.586   1.369   7.421
 3250POPC   NC342719  32.526  30.285   5.424
 3250POPC   PO442720  32.677  29.694   5.427
 3250POPC   GL142721  32.904  29.656   5.814
 3250POPC   GL242722  32.881  30.020   5.795
 3250POPC   C1A42723  33.112  29.825   6.228
 3250POPC   D2A42724  32.995  30.045   6.618
 3250POPC   C3A42725  33.251  30.039   6.967
 3250POPC   C4A42726  33.259  29.718   7.290
 3250POPC   C1B42727  32.694  30.278   6.091
 3250POPC   C2B42728  32.575  30.328   6.523
 3250POPC   C3B42729  32.732  30.426   6.875
 3250POPC   C4B42730  32.747  30.250   7.253
 3251POPC   NC342731  14.159   8.352   5.360
 3251POPC   PO442732  14.814   8.355   5.429
 3251POPC   GL142733  14.527   8.253   5.758
 3251POPC   GL242734  14.300   7.955   5.715
 3251POPC   C1A42735  14.463   8.396   6.170
 3251POPC   D2A42736  14.560   8.197   6.565
 3251POPC   C3A42737  14.288   8.294   6.915
 3251POPC   C4A42738  14.535   8.304   7.225
 3251POPC   C1B42739  14.357   7.905   6.169
 3251POPC   C2B42740  14.234   7.777   6.617
 3251POPC   C3B42741  14.371   7.816   7.067
 3251POPC   C4B42742  14.621   7.865   7.438
 3252POPC   NC342743  16.060  37.145   5.412
 3252POPC   PO442744  15.561  36.729   5.418
 3252POPC   GL142745  15.850  36.791   5.752
 3252POPC   GL242746  15.690  37.097   5.774
 3252POPC   C1A42747  16.088  36.857   6.167
 3252POPC   D2A42748  15.893  36.864   6.604
 3252POPC   C3A42749  16.054  37.064   6.950
 3252POPC   C4A42750  16.348  36.922   7.195
 3252POPC   C1B42751  15.604  37.003   6.176
 3252POPC   C2B42752  15.365  37.064   6.512
 3252POPC   C3B42753  15.530  37.100   6.873
 3252POPC   C4B42754  15.658  36.800   7.136
 3253POPC   NC342755  39.645  40.722   5.535
 3253POPC   PO442756  40.327  40.527   5.647
 3253POPC   GL142757  40.008  40.711   5.907
 3253POPC   GL242758  39.776  40.454   5.989
 3253POPC   C1A42759  39.924  41.025   6.228
 3253POPC   D2A42760  39.873  41.075   6.663
 3253POPC   C3A42761  40.197  40.970   6.911
 3253POPC   C4A42762  40.386  40.782   7.236
 3253POPC   C1B42763  40.129  40.402   6.305
 3253POPC   C2B42764  40.190  40.466   6.746
 3253POPC   C3B42765  39.927  40.566   7.085
 3253POPC   C4B42766  39.701  40.454   7.454
 3254POPC   NC342767  29.287   7.604   5.545
 3254POPC   PO442768  29.036   6.997   5.304
 3254POPC   GL142769  29.041   7.174   5.812
 3254POPC   GL242770  29.054   7.521   5.986
 3254POPC   C1A42771  29.320   7.207   6.253
 3254POPC   D2A42772  29.331   7.451   6.626
 3254POPC   C3A42773  29.106   7.507   7.011
 3254POPC   C4A42774  29.376   7.646   7.305
 3254POPC   C1B42775  28.815   7.250   6.299
 3254POPC   C2B42776  28.788   7.176   6.755
 3254POPC   C3B42777  28.687   7.223   7.212
 3254POPC   C4B42778  28.770   7.558   7.466
 3255POPC   NC342779  17.380  27.962   5.594
 3255POPC   PO442780  17.844  27.431   5.608
 3255POPC   GL142781  17.592  27.625   5.912
 3255POPC   GL242782  17.791  27.928   5.906
 3255POPC   C1A42783  17.264  27.670   6.273
 3255POPC   D2A42784  17.130  27.380   6.628
 3255POPC   C3A42785  17.291  27.537   7.027
 3255POPC   C4A42786  17.263  28.004   7.090
 3255POPC   C1B42787  17.740  27.807   6.350
 3255POPC   C2B42788  17.648  27.729   6.726
 3255POPC   C3B42789  17.828  27.599   7.094
 3255POPC   C4B42790  17.747  27.418   7.457
 3256POPC   NC342791  40.657  40.732   5.417
 3256POPC   PO442792  41.320  40.618   5.579
 3256POPC   GL142793  41.004  40.863   5.775
 3256POPC   GL242794  40.846  40.549   5.846
 3256POPC   C1A42795  40.676  40.960   6.104
 3256POPC   D2A42796  40.465  40.827   6.493
 3256POPC   C3A42797  40.717  40.943   6.885
 3256POPC   C4A42798  40.825  41.000   7.343
 3256POPC   C1B42799  41.088  40.601   6.213
 3256POPC   C2B42800  40.917  40.568   6.591
 3256POPC   C3B42801  40.951  40.466   7.011
 3256POPC   C4B42802  41.077  40.557   7.428
 3257POPC   NC342803   8.921  37.078   5.683
 3257POPC   PO442804   8.764  36.417   5.424
 3257POPC   GL142805   8.963  36.542   5.817
 3257POPC   GL242806   9.295  36.715   5.835
 3257POPC   C1A42807   8.915  36.696   6.253
 3257POPC   D2A42808   9.055  36.882   6.651
 3257POPC   C3A42809   9.006  36.677   7.055
 3257POPC   C4A42810   8.868  36.805   7.484
 3257POPC   C1B42811   9.348  36.987   6.215
 3257POPC   C2B42812   9.503  37.156   6.598
 3257POPC   C3B42813   9.391  37.052   7.010
 3257POPC   C4B42814   9.010  37.198   7.191
 3258POPC   NC342815  21.554  39.509   5.269
 3258POPC   PO442816  21.167  38.942   5.448
 3258POPC   GL142817  21.369  39.030   5.847
 3258POPC   GL242818  21.499  39.359   5.812
 3258POPC   C1A42819  21.180  39.252   6.229
 3258POPC   D2A42820  20.967  39.103   6.579
 3258POPC   C3A42821  21.105  39.323   6.943
 3258POPC   C4A42822  21.438  39.219   7.191
 3258POPC   C1B42823  21.682  39.287   6.252
 3258POPC   C2B42824  21.631  39.312   6.705
 3258POPC   C3B42825  21.863  39.433   7.075
 3258POPC   C4B42826  21.813  39.414   7.514
 3259POPC   NC342827  17.395  11.273   5.604
 3259POPC   PO442828  17.972  11.663   5.598
 3259POPC   GL142829  17.771  11.431   5.946
 3259POPC   GL242830  17.843  11.086   5.866
 3259POPC   C1A42831  17.464  11.317   6.308
 3259POPC   D2A42832  17.199  11.243   6.704
 3259POPC   C3A42833  17.397  11.438   6.998
 3259POPC   C4A42834  17.781  11.438   7.190
 3259POPC   C1B42835  17.734  10.858   6.240
 3259POPC   C2B42836  17.668  10.976   6.666
 3259POPC   C3B42837  17.616  10.961   7.096
 3259POPC   C4B42838  17.222  11.026   7.252
 3260POPC   NC342839   8.098  37.880   5.666
 3260POPC   PO442840   8.205  38.571   5.426
 3260POPC   GL142841   8.279  38.648   5.843
 3260POPC   GL242842   8.054  38.391   5.927
 3260POPC   C1A42843   8.416  38.567   6.280
 3260POPC   D2A42844   8.272  38.727   6.676
 3260POPC   C3A42845   8.271  38.533   7.077
 3260POPC   C4A42846   8.479  38.637   7.498
 3260POPC   C1B42847   7.894  38.481   6.349
 3260POPC   C2B42848   7.699  38.428   6.757
 3260POPC   C3B42849   7.755  38.451   7.206
 3260POPC   C4B42850   7.989  38.747   7.438
 3261POPC   NC342851  17.384  41.628   5.265
 3261POPC   PO442852  16.827  41.246   5.203
 3261POPC   GL142853  17.176  41.321   5.639
 3261POPC   GL242854  17.510  41.529   5.751
 3261POPC   C1A42855  17.271  41.419   6.166
 3261POPC   D2A42856  17.311  41.729   6.518
 3261POPC   C3A42857  17.534  41.575   6.886
 3261POPC   C4A42858  17.413  41.683   7.296
 3261POPC   C1B42859  17.687  41.771   6.159
 3261POPC   C2B42860  17.887  41.837   6.601
 3261POPC   C3B42861  17.819  41.957   7.071
 3261POPC   C4B42862  17.650  42.087   7.487
 3262POPC   NC342863   6.210  20.632   5.436
 3262POPC   PO442864   6.874  20.846   5.329
 3262POPC   GL142865   6.691  20.573   5.684
 3262POPC   GL242866   6.437  20.754   5.899
 3262POPC   C1A42867   6.769  20.457   6.138
 3262POPC   D2A42868   6.825  20.727   6.502
 3262POPC   C3A42869   6.872  20.526   6.903
 3262POPC   C4A42870   6.668  20.201   7.119
 3262POPC   C1B42871   6.283  20.585   6.285
 3262POPC   C2B42872   6.387  20.485   6.712
 3262POPC   C3B42873   6.423  20.664   7.115
 3262POPC   C4B42874   6.466  20.952   7.483
 3263POPC   NC342875   0.697   9.451   5.614
 3263POPC   PO442876   1.291   9.661   5.368
 3263POPC   GL142877   1.210   9.526   5.795
 3263POPC   GL242878   1.025   9.819   5.878
 3263POPC   C1A42879   1.332   9.618   6.251
 3263POPC   D2A42880   1.124   9.450   6.638
 3263POPC   C3A42881   1.324   9.505   7.044
 3263POPC   C4A42882   1.364   9.914   7.174
 3263POPC   C1B42883   0.836   9.710   6.270
 3263POPC   C2B42884   0.806   9.936   6.670
 3263POPC   C3B42885   0.877   9.766   7.070
 3263POPC   C4B42886   0.804   9.388   7.213
 3264POPC   NC342887  33.407  34.110   5.578
 3264POPC   PO442888  34.101  34.103   5.594
 3264POPC   GL142889  33.794  33.790   5.850
 3264POPC   GL242890  33.596  34.021   6.037
 3264POPC   C1A42891  33.779  33.597   6.312
 3264POPC   D2A42892  34.015  33.672   6.727
 3264POPC   C3A42893  33.771  33.846   7.092
 3264POPC   C4A42894  33.481  33.704   7.367
 3264POPC   C1B42895  33.997  34.048   6.247
 3264POPC   C2B42896  34.045  34.182   6.612
 3264POPC   C3B42897  34.175  34.111   6.984
 3264POPC   C4B42898  34.105  34.111   7.381
 3265POPC   NC342899   3.038  20.051   5.455
 3265POPC   PO442900   2.467  19.737   5.487
 3265POPC   GL142901   2.715  19.725   5.823
 3265POPC   GL242902   3.082  19.698   5.872
 3265POPC   C1A42903   2.714  19.587   6.213
 3265POPC   D2A42904   2.991  19.622   6.510
 3265POPC   C3A42905   2.649  19.612   6.794
 3265POPC   C4A42906   2.678  19.549   7.223
 3265POPC   C1B42907   2.984  20.044   6.168
 3265POPC   C2B42908   2.813  20.110   6.589
 3265POPC   C3B42909   2.999  19.926   6.948
 3265POPC   C4B42910   3.084  19.881   7.348
 3266POPC   NC342911   0.748  27.989   5.449
 3266POPC   PO442912   0.452  28.682   5.550
 3266POPC   GL142913   0.523  28.393   5.833
 3266POPC   GL242914   0.217  28.158   5.796
 3266POPC   C1A42915   0.738  28.366   6.241
 3266POPC   D2A42916   0.732  28.223   6.666
 3266POPC   C3A42917   0.902  28.491   6.961
 3266POPC   C4A42918   0.707  28.593   7.331
 3266POPC   C1B42919   0.244  28.264   6.236
 3266POPC   C2B42920   0.242  28.326   6.640
 3266POPC   C3B42921   0.368  28.314   7.046
 3266POPC   C4B42922   0.106  28.003   7.217
 3267POPC   NC342923  31.942  40.046   5.235
 3267POPC   PO442924  31.327  39.782   5.163
 3267POPC   GL142925  31.224  39.843   5.724
 3267POPC   GL242926  31.441  39.635   5.912
 3267POPC   C1A42927  31.408  40.090   6.113
 3267POPC   D2A42928  31.574  40.170   6.529
 3267POPC   C3A42929  31.334  40.048   6.935
 3267POPC   C4A42930  31.666  40.059   7.209
 3267POPC   C1B42931  31.276  39.621   6.274
 3267POPC   C2B42932  31.475  39.686   6.624
 3267POPC   C3B42933  31.594  39.569   7.024
 3267POPC   C4B42934  31.452  39.633   7.444
 3268POPC   NC342935   8.026  22.946   5.371
 3268POPC   PO442936   8.743  23.033   5.451
 3268POPC   GL142937   8.358  22.912   5.757
 3268POPC   GL242938   8.003  23.028   5.865
 3268POPC   C1A42939   8.391  22.655   6.157
 3268POPC   D2A42940   8.397  22.794   6.622
 3268POPC   C3A42941   8.211  22.667   7.055
 3268POPC   C4A42942   7.939  22.774   7.439
 3268POPC   C1B42943   8.032  22.977   6.298
 3268POPC   C2B42944   7.927  23.178   6.666
 3268POPC   C3B42945   7.974  23.139   7.089
 3268POPC   C4B42946   7.884  23.288   7.499
 3269POPC   NC342947   4.864   8.118   5.604
 3269POPC   PO442948   5.315   7.909   5.151
 3269POPC   GL142949   5.434   8.002   5.682
 3269POPC   GL242950   5.280   8.327   5.806
 3269POPC   C1A42951   5.316   7.977   6.176
 3269POPC   D2A42952   5.359   7.897   6.634
 3269POPC   C3A42953   5.332   8.158   6.984
 3269POPC   C4A42954   5.209   8.077   7.335
 3269POPC   C1B42955   5.012   8.418   6.184
 3269POPC   C2B42956   5.001   8.313   6.630
 3269POPC   C3B42957   4.847   8.346   7.082
 3269POPC   C4B42958   4.876   8.387   7.536
 3270POPC   NC342959   3.765  29.200   5.389
 3270POPC   PO442960   3.073  29.283   5.268
 3270POPC   GL142961   3.339  29.286   5.680
 3270POPC   GL242962   3.679  29.391   5.840
 3270POPC   C1A42963   3.352  29.073   6.108
 3270POPC   D2A42964   3.293  29.338   6.504
 3270POPC   C3A42965   3.308  29.156   6.884
 3270POPC   C4A42966   3.366  29.313   7.258
 3270POPC   C1B42967   3.748  29.330   6.262
 3270POPC   C2B42968   3.650  28.982   6.520
 3270POPC   C3B42969   3.697  28.824   6.878
 3270POPC   C4B42970   3.822  29.054   7.219
 3271POPC   NC342971   4.844  15.214   5.324
 3271POPC   PO442972   4.207  15.206   5.332
 3271POPC   GL142973   4.340  15.021   5.748
 3271POPC   GL242974   4.464  15.324   5.885
 3271POPC   C1A42975   4.204  14.914   6.200
 3271POPC   D2A42976   4.336  14.766   6.606
 3271POPC   C3A42977   4.249  14.962   6.982
 3271POPC   C4A42978   4.194  14.869   7.377
 3271POPC   C1B42979   4.593  15.428   6.305
 3271POPC   C2B42980   4.430  15.342   6.683
 3271POPC   C3B42981   4.229  15.477   7.060
 3271POPC   C4B42982   4.460  15.314   7.392
 3272POPC   NC342983  31.672  38.501   5.332
 3272POPC   PO442984  31.502  37.871   5.247
 3272POPC   GL142985  31.599  38.139   5.677
 3272POPC   GL242986  31.377  38.445   5.746
 3272POPC   C1A42987  31.721  38.274   6.094
 3272POPC   D2A42988  31.644  38.534   6.463
 3272POPC   C3A42989  31.429  38.346   6.832
 3272POPC   C4A42990  31.612  38.315   7.231
 3272POPC   C1B42991  31.214  38.550   6.160
 3272POPC   C2B42992  31.186  38.734   6.595
 3272POPC   C3B42993  31.449  38.853   6.972
 3272POPC   C4B42994  31.534  38.772   7.418
 3273POPC   NC342995   2.922   8.578   5.363
 3273POPC   PO442996   2.488   7.955   5.386
 3273POPC   GL142997   2.751   8.162   5.708
 3273POPC   GL242998   2.509   8.148   5.974
 3273POPC   C1A42999   2.976   8.318   6.089
 3273POPC   D2A43000   2.773   8.387   6.497
 3273POPC   C3A43001   2.958   8.362   6.911
 3273POPC   C4A43002   2.689   8.501   7.231
 3273POPC   C1B43003   2.719   7.908   6.305
 3273POPC   C2B43004   2.698   7.925   6.757
 3273POPC   C3B43005   2.757   7.991   7.204
 3273POPC   C4B43006   2.992   8.023   7.616
 3274POPC   NC343007  16.527  19.980   5.471
 3274POPC   PO443008  17.101  19.479   5.529
 3274POPC   GL143009  16.839  19.749   5.819
 3274POPC   GL243010  16.807  20.148   5.868
 3274POPC   C1A43011  16.675  19.763   6.223
 3274POPC   D2A43012  16.853  19.633   6.608
 3274POPC   C3A43013  16.870  19.896   6.950
 3274POPC   C4A43014  16.836  19.648   7.284
 3274POPC   C1B43015  16.495  20.242   6.204
 3274POPC   C2B43016  16.468  20.033   6.616
 3274POPC   C3B43017  16.369  19.793   7.001
 3274POPC   C4B43018  16.460  19.995   7.387
 3275POPC   NC343019  28.418  44.483   5.482
 3275POPC   PO443020  28.352   0.084   5.721
 3275POPC   GL143021  28.164  44.737   5.937
 3275POPC   GL243022  28.083  44.369   5.872
 3275POPC   C1A43023  28.288  44.731   6.360
 3275POPC   D2A43024  28.589  44.692   6.665
 3275POPC   C3A43025  28.452  44.871   7.015
 3275POPC   C4A43026  28.747   0.079   7.227
 3275POPC   C1B43027  28.389  44.277   6.148
 3275POPC   C2B43028  28.341  44.252   6.591
 3275POPC   C3B43029  28.518  44.307   7.021
 3275POPC   C4B43030  28.432  44.513   7.411
 3276POPC   NC343031  13.957   9.947   5.409
 3276POPC   PO443032  13.348   9.586   5.453
 3276POPC   GL143033  13.548   9.727   5.797
 3276POPC   GL243034  13.861   9.667   5.868
 3276POPC   C1A43035  13.444   9.651   6.235
 3276POPC   D2A43036  13.428   9.843   6.639
 3276POPC   C3A43037  13.518   9.675   7.062
 3276POPC   C4A43038  13.551   9.855   7.486
 3276POPC   C1B43039  14.032   9.788   6.255
 3276POPC   C2B43040  13.921   9.677   6.660
 3276POPC   C3B43041  14.089   9.756   7.029
 3276POPC   C4B43042  13.960   9.577   7.371
 3277POPC   NC343043   4.911  37.930   5.366
 3277POPC   PO443044   5.426  37.475   5.442
 3277POPC   GL143045   5.245  37.758   5.758
 3277POPC   GL243046   4.869  37.674   5.804
 3277POPC   C1A43047   5.147  37.790   6.207
 3277POPC   D2A43048   5.321  37.605   6.542
 3277POPC   C3A43049   5.086  37.595   6.868
 3277POPC   C4A43050   5.269  37.859   7.146
 3277POPC   C1B43051   4.647  37.927   6.121
 3277POPC   C2B43052   4.687  37.930   6.555
 3277POPC   C3B43053   4.743  38.003   6.981
 3277POPC   C4B43054   4.792  37.721   7.301
 3278POPC   NC343055  31.334  39.433   5.463
 3278POPC   PO443056  31.319  38.800   5.351
 3278POPC   GL143057  31.222  38.990   5.757
 3278POPC   GL243058  31.558  39.144   5.824
 3278POPC   C1A43059  31.209  39.083   6.206
 3278POPC   D2A43060  31.310  39.222   6.624
 3278POPC   C3A43061  31.112  39.443   6.953
 3278POPC   C4A43062  31.226  39.195   7.308
 3278POPC   C1B43063  31.672  39.292   6.234
 3278POPC   C2B43064  31.796  39.040   6.578
 3278POPC   C3B43065  31.908  39.140   6.971
 3278POPC   C4B43066  31.741  39.216   7.363
 3279POPC   NC343067  21.139  15.412   5.448
 3279POPC   PO443068  21.134  14.814   5.480
 3279POPC   GL143069  21.237  15.062   5.862
 3279POPC   GL243070  21.423  15.388   5.870
 3279POPC   C1A43071  21.213  15.120   6.308
 3279POPC   D2A43072  21.171  14.803   6.645
 3279POPC   C3A43073  21.312  14.890   7.057
 3279POPC   C4A43074  21.056  15.233   7.228
 3279POPC   C1B43075  21.635  15.418   6.267
 3279POPC   C2B43076  21.486  15.543   6.684
 3279POPC   C3B43077  21.523  15.363   7.084
 3279POPC   C4B43078  21.801  15.358   7.423
 3280POPC   NC343079  15.593  41.302   5.375
 3280POPC   PO443080  16.082  41.695   5.385
 3280POPC   GL143081  15.801  41.582   5.779
 3280POPC   GL243082  15.731  41.193   5.842
 3280POPC   C1A43083  15.819  41.804   6.204
 3280POPC   D2A43084  16.196  41.772   6.484
 3280POPC   C3A43085  16.133  41.718   6.931
 3280POPC   C4A43086  16.030  41.833   7.364
 3280POPC   C1B43087  15.905  41.280   6.252
 3280POPC   C2B43088  15.764  41.475   6.628
 3280POPC   C3B43089  15.832  41.325   7.018
 3280POPC   C4B43090  16.163  41.148   7.195
 3281POPC   NC343091   1.508  23.336   5.361
 3281POPC   PO443092   1.049  23.934   5.385
 3281POPC   GL143093   1.166  23.801   5.803
 3281POPC   GL243094   0.833  23.710   5.864
 3281POPC   C1A43095   1.368  23.707   6.214
 3281POPC   D2A43096   1.177  23.573   6.606
 3281POPC   C3A43097   1.377  23.625   6.964
 3281POPC   C4A43098   1.385  23.426   7.349
 3281POPC   C1B43099   0.856  23.801   6.282
 3281POPC   C2B43100   1.133  24.101   6.482
 3281POPC   C3B43101   1.272  24.153   6.896
 3281POPC   C4B43102   1.146  23.941   7.286
 3282POPC   NC343103  29.411  20.184   5.397
 3282POPC   PO443104  29.384  19.565   5.520
 3282POPC   GL143105  29.159  19.813   5.835
 3282POPC   GL243106  28.924  20.069   5.666
 3282POPC   C1A43107  29.208  19.890   6.307
 3282POPC   D2A43108  29.113  19.682   6.706
 3282POPC   C3A43109  29.286  19.872   7.106
 3282POPC   C4A43110  29.370  20.246   7.416
 3282POPC   C1B43111  28.770  20.023   6.095
 3282POPC   C2B43112  28.803  20.170   6.532
 3282POPC   C3B43113  28.786  19.980   6.934
 3282POPC   C4B43114  28.864  19.611   7.222
 3283POPC   NC343115   6.160   7.303   5.523
 3283POPC   PO443116   6.652   7.682   5.221
 3283POPC   GL143117   6.654   7.595   5.703
 3283POPC   GL243118   6.771   7.245   5.787
 3283POPC   C1A43119   6.792   7.589   6.176
 3283POPC   D2A43120   6.710   7.426   6.599
 3283POPC   C3A43121   6.852   7.476   7.006
 3283POPC   C4A43122   6.620   7.398   7.364
 3283POPC   C1B43123   6.631   7.102   6.211
 3283POPC   C2B43124   6.289   7.141   6.489
 3283POPC   C3B43125   6.385   7.190   6.925
 3283POPC   C4B43126   6.398   6.911   7.252
 3284POPC   NC343127  38.954  42.474   5.177
 3284POPC   PO443128  39.320  42.057   5.604
 3284POPC   GL143129  39.168  42.143   6.005
 3284POPC   GL243130  38.948  42.435   5.995
 3284POPC   C1A43131  39.266  42.071   6.437
 3284POPC   D2A43132  39.618  42.039   6.693
 3284POPC   C3A43133  39.429  42.141   7.051
 3284POPC   C4A43134  38.976  42.196   6.963
 3284POPC   C1B43135  39.184  42.592   6.348
 3284POPC   C2B43136  39.565  42.546   6.585
 3284POPC   C3B43137  39.630  42.601   7.017
 3284POPC   C4B43138  39.189  42.607   7.190
 3285POPC   NC343139  23.868  23.392   5.408
 3285POPC   PO443140  23.362  23.807   5.490
 3285POPC   GL143141  23.498  23.592   5.821
 3285POPC   GL243142  23.396  23.243   5.784
 3285POPC   C1A43143  23.850  23.731   6.102
 3285POPC   D2A43144  23.952  23.942   6.495
 3285POPC   C3A43145  23.679  23.893   6.868
 3285POPC   C4A43146  23.924  23.998   7.226
 3285POPC   C1B43147  23.662  23.262   6.167
 3285POPC   C2B43148  23.703  23.494   6.558
 3285POPC   C3B43149  23.778  23.416   6.998
 3285POPC   C4B43150  23.599  23.631   7.354
 3286POPC   NC343151   6.858  35.876   5.314
 3286POPC   PO443152   6.537  36.377   5.584
 3286POPC   GL143153   6.626  35.999   5.796
 3286POPC   GL243154   6.930  35.780   5.804
 3286POPC   C1A43155   6.733  36.046   6.221
 3286POPC   D2A43156   6.663  36.273   6.589
 3286POPC   C3A43157   6.418  36.019   6.835
 3286POPC   C4A43158   6.270  36.029   7.222
 3286POPC   C1B43159   7.188  35.803   6.168
 3286POPC   C2B43160   7.109  35.951   6.580
 3286POPC   C3B43161   6.946  36.051   6.960
 3286POPC   C4B43162   6.734  35.851   7.255
 3287POPC   NC343163  29.330  36.216   5.405
 3287POPC   PO443164  28.710  35.890   5.450
 3287POPC   GL143165  28.992  36.011   5.816
 3287POPC   GL243166  29.290  36.255   5.905
 3287POPC   C1A43167  29.038  36.035   6.280
 3287POPC   D2A43168  29.345  36.139   6.575
 3287POPC   C3A43169  29.143  36.038   6.926
 3287POPC   C4A43170  29.179  36.251   7.278
 3287POPC   C1B43171  29.489  35.898   6.046
 3287POPC   C2B43172  29.587  35.731   6.415
 3287POPC   C3B43173  29.591  35.722   6.851
 3287POPC   C4B43174  29.436  35.817   7.261
 3288POPC   NC343175  32.515  23.757   5.518
 3288POPC   PO443176  31.957  23.485   5.414
 3288POPC   GL143177  32.035  23.566   5.828
 3288POPC   GL243178  31.698  23.453   5.904
 3288POPC   C1A43179  32.308  23.698   6.185
 3288POPC   D2A43180  32.323  23.972   6.555
 3288POPC   C3A43181  32.432  23.730   6.939
 3288POPC   C4A43182  32.549  23.752   7.348
 3288POPC   C1B43183  31.838  23.496   6.309
 3288POPC   C2B43184  32.008  23.600   6.714
 3288POPC   C3B43185  31.993  23.637   7.184
 3288POPC   C4B43186  31.992  23.521   7.617
 3289POPC   NC343187  21.783   4.834   5.310
 3289POPC   PO443188  21.136   4.995   5.450
 3289POPC   GL143189  21.321   5.008   5.836
 3289POPC   GL243190  21.569   4.783   5.789
 3289POPC   C1A43191  21.280   5.169   6.255
 3289POPC   D2A43192  21.160   5.043   6.651
 3289POPC   C3A43193  21.064   5.278   7.047
 3289POPC   C4A43194  21.384   5.434   7.336
 3289POPC   C1B43195  21.767   5.065   6.123
 3289POPC   C2B43196  21.693   5.211   6.561
 3289POPC   C3B43197  21.541   5.090   6.986
 3289POPC   C4B43198  21.666   4.716   7.215
 3290POPC   NC343199  23.945   8.643   5.467
 3290POPC   PO443200  23.753   8.019   5.262
 3290POPC   GL143201  23.556   8.172   5.712
 3290POPC   GL243202  23.730   8.438   5.868
 3290POPC   C1A43203  23.524   8.162   6.236
 3290POPC   D2A43204  23.488   7.973   6.670
 3290POPC   C3A43205  23.413   8.205   7.087
 3290POPC   C4A43206  23.602   8.177   7.528
 3290POPC   C1B43207  24.004   8.135   6.056
 3290POPC   C2B43208  23.971   8.124   6.509
 3290POPC   C3B43209  23.922   8.154   6.960
 3290POPC   C4B43210  24.086   8.289   7.370
 3291POPC   NC343211  43.129  37.449   5.519
 3291POPC   PO443212  43.449  38.044   5.301
 3291POPC   GL143213  43.052  37.930   5.694
 3291POPC   GL243214  43.088  37.625   5.976
 3291POPC   C1A43215  42.972  38.064   6.190
 3291POPC   D2A43216  42.879  38.064   6.685
 3291POPC   C3A43217  43.112  37.807   6.987
 3291POPC   C4A43218  42.837  37.566   7.214
 3291POPC   C1B43219  42.847  37.373   6.268
 3291POPC   C2B43220  42.903  37.412   6.709
 3291POPC   C3B43221  43.253  37.315   6.956
 3291POPC   C4B43222  43.267  37.350   7.397
 3292POPC   NC343223  21.562  18.382   5.094
 3292POPC   PO443224  20.999  18.287   5.251
 3292POPC   GL143225  20.978  18.094   5.711
 3292POPC   GL243226  21.053  18.372   5.917
 3292POPC   C1A43227  21.076  17.901   6.173
 3292POPC   D2A43228  21.227  18.097   6.601
 3292POPC   C3A43229  21.114  18.151   7.062
 3292POPC   C4A43230  21.280  18.382   7.436
 3292POPC   C1B43231  21.466  18.235   6.161
 3292POPC   C2B43232  21.721  18.277   6.563
 3292POPC   C3B43233  21.629  18.332   7.015
 3292POPC   C4B43234  21.743  18.153   7.411
 3293POPC   NC343235  35.505  31.243   5.575
 3293POPC   PO443236  35.388  30.638   5.443
 3293POPC   GL143237  35.245  30.591   5.809
 3293POPC   GL243238  35.185  30.939   5.864
 3293POPC   C1A43239  35.258  30.370   6.177
 3293POPC   D2A43240  35.289  30.521   6.585
 3293POPC   C3A43241  35.505  30.267   6.877
 3293POPC   C4A43242  35.443  30.348   7.290
 3293POPC   C1B43243  35.532  30.905   6.165
 3293POPC   C2B43244  35.427  31.129   6.524
 3293POPC   C3B43245  35.176  30.990   6.855
 3293POPC   C4B43246  35.285  30.894   7.266
 3294POPC   NC343247   5.263   1.769   5.490
 3294POPC   PO443248   4.979   2.438   5.523
 3294POPC   GL143249   4.975   2.074   5.818
 3294POPC   GL243250   4.820   1.728   5.866
 3294POPC   C1A43251   5.025   2.045   6.252
 3294POPC   D2A43252   4.861   1.999   6.651
 3294POPC   C3A43253   5.141   2.154   6.901
 3294POPC   C4A43254   5.018   2.062   7.293
 3294POPC   C1B43255   5.198   1.590   6.119
 3294POPC   C2B43256   5.304   1.711   6.563
 3294POPC   C3B43257   5.110   1.663   6.970
 3294POPC   C4B43258   5.177   1.551   7.402
 3295POPC   NC343259  29.870  16.920   5.276
 3295POPC   PO443260  30.253  16.602   5.694
 3295POPC   GL143261  29.828  16.590   5.918
 3295POPC   GL243262  29.591  16.912   5.927
 3295POPC   C1A43263  29.679  16.414   6.292
 3295POPC   D2A43264  29.678  16.552   6.720
 3295POPC   C3A43265  30.110  16.618   6.883
 3295POPC   C4A43266  30.102  16.647   7.299
 3295POPC   C1B43267  29.675  16.936   6.345
 3295POPC   C2B43268  29.904  17.033   6.683
 3295POPC   C3B43269  29.810  16.986   7.081
 3295POPC   C4B43270  30.078  17.245   7.350
 3296POPC   NC343271  11.410  23.023   5.477
 3296POPC   PO443272  10.784  22.760   5.416
 3296POPC   GL143273  10.998  22.761   5.800
 3296POPC   GL243274  11.044  23.135   5.814
 3296POPC   C1A43275  11.248  22.715   6.194
 3296POPC   D2A43276  11.316  22.600   6.643
 3296POPC   C3A43277  11.335  22.867   6.992
 3296POPC   C4A43278  11.646  23.096   7.230
 3296POPC   C1B43279  11.320  23.210   6.159
 3296POPC   C2B43280  11.419  23.224   6.587
 3296POPC   C3B43281  11.271  23.368   6.959
 3296POPC   C4B43282  11.378  23.510   7.380
 3297POPC   NC343283   6.740   2.293   5.413
 3297POPC   PO443284   6.455   1.646   5.460
 3297POPC   GL143285   6.513   1.983   5.768
 3297POPC   GL243286   6.852   2.104   5.855
 3297POPC   C1A43287   6.505   2.044   6.209
 3297POPC   D2A43288   6.507   1.809   6.585
 3297POPC   C3A43289   6.454   2.082   6.927
 3297POPC   C4A43290   6.486   1.757   7.252
 3297POPC   C1B43291   7.062   2.223   6.222
 3297POPC   C2B43292   6.861   2.163   6.603
 3297POPC   C3B43293   6.923   1.936   6.991
 3297POPC   C4B43294   6.776   2.181   7.323
 3298POPC   NC343295   9.346   9.405   5.421
 3298POPC   PO443296   9.606  10.020   5.344
 3298POPC   GL143297   9.741   9.962   5.760
 3298POPC   GL243298   9.669   9.585   5.797
 3298POPC   C1A43299   9.797   9.885   6.204
 3298POPC   D2A43300   9.844  10.009   6.622
 3298POPC   C3A43301   9.826   9.787   7.013
 3298POPC   C4A43302  10.056   9.492   7.200
 3298POPC   C1B43303   9.395   9.575   6.180
 3298POPC   C2B43304   9.438   9.628   6.648
 3298POPC   C3B43305   9.358   9.476   7.109
 3298POPC   C4B43306   9.192   9.343   7.532
 3299POPC   NC343307   9.313   3.265   5.521
 3299POPC   PO443308   8.956   2.657   5.442
 3299POPC   GL143309   9.169   2.830   5.784
 3299POPC   GL243310   8.914   3.096   5.823
 3299POPC   C1A43311   9.336   2.718   6.201
 3299POPC   D2A43312   9.211   2.510   6.585
 3299POPC   C3A43313   9.383   2.582   6.984
 3299POPC   C4A43314   9.160   2.562   7.377
 3299POPC   C1B43315   8.838   2.891   6.202
 3299POPC   C2B43316   8.737   2.723   6.601
 3299POPC   C3B43317   8.916   2.770   6.976
 3299POPC   C4B43318   8.841   2.990   7.338
 3300POPC   NC343319   4.037  21.196   5.600
 3300POPC   PO443320   4.653  21.207   5.242
 3300POPC   GL143321   4.476  21.461   5.667
 3300POPC   GL243322   4.221  21.683   5.695
 3300POPC   C1A43323   4.433  21.446   6.158
 3300POPC   D2A43324   4.545  21.356   6.615
 3300POPC   C3A43325   4.378  21.238   7.000
 3300POPC   C4A43326   4.679  21.302   7.294
 3300POPC   C1B43327   4.220  21.898   6.099
 3300POPC   C2B43328   4.428  21.837   6.471
 3300POPC   C3B43329   4.207  21.707   6.837
 3300POPC   C4B43330   4.270  21.626   7.282
 3301POPC   NC343331  34.038   1.767   5.397
 3301POPC   PO443332  33.690   2.362   5.443
 3301POPC   GL143333  33.966   2.130   5.751
 3301POPC   GL243334  33.713   1.918   5.878
 3301POPC   C1A43335  34.142   1.862   6.125
 3301POPC   D2A43336  34.348   1.684   6.499
 3301POPC   C3A43337  34.158   1.645   6.917
 3301POPC   C4A43338  34.125   1.881   7.303
 3301POPC   C1B43339  33.721   2.182   6.213
 3301POPC   C2B43340  33.899   2.014   6.587
 3301POPC   C3B43341  33.727   2.009   6.990
 3301POPC   C4B43342  33.569   2.345   7.200
 3302POPC   NC343343  34.127  34.553   5.511
 3302POPC   PO443344  33.493  34.560   5.545
 3302POPC   GL143345  33.770  34.512   5.863
 3302POPC   GL243346  34.008  34.847   5.927
 3302POPC   C1A43347  33.812  34.511   6.253
 3302POPC   D2A43348  33.884  34.757   6.577
 3302POPC   C3A43349  33.895  34.536   6.935
 3302POPC   C4A43350  33.664  34.361   7.270
 3302POPC   C1B43351  33.599  34.967   6.149
 3302POPC   C2B43352  33.346  34.854   6.529
 3302POPC   C3B43353  33.456  34.795   6.968
 3302POPC   C4B43354  33.570  35.104   7.273
 3303POPC   NC343355  44.516   9.181   5.398
 3303POPC   PO443356  44.894   8.668   5.450
 3303POPC   GL143357  44.710   8.873   5.787
 3303POPC   GL243358  44.843   9.218   5.790
 3303POPC   C1A43359  44.746   8.736   6.261
 3303POPC   D2A43360  44.680   8.619   6.717
 3303POPC   C3A43361  44.455   8.777   7.070
 3303POPC   C4A43362  44.517   8.809   7.511
 3303POPC   C1B43363  44.532   9.166   6.139
 3303POPC   C2B43364  44.580   9.156   6.585
 3303POPC   C3B43365  44.778   9.147   6.986
 3303POPC   C4B43366  44.691   9.277   7.361
 3304POPC   NC343367   6.532  44.389   5.602
 3304POPC   PO443368   6.812  44.966   5.506
 3304POPC   GL143369   6.683  44.815   5.883
 3304POPC   GL243370   6.343  44.872   5.753
 3304POPC   C1A43371   6.699  44.522   6.265
 3304POPC   D2A43372   6.628  44.151   6.571
 3304POPC   C3A43373   6.693  44.307   7.002
 3304POPC   C4A43374   6.672  44.725   7.163
 3304POPC   C1B43375   6.275  44.811   6.193
 3304POPC   C2B43376   6.333  44.659   6.618
 3304POPC   C3B43377   6.215  44.914   6.958
 3304POPC   C4B43378   6.286   0.014   7.361
 3305POPC   NC343379  30.060  17.020   5.773
 3305POPC   PO443380  29.748  17.358   5.197
 3305POPC   GL143381  29.878  17.541   5.623
 3305POPC   GL243382  29.591  17.432   5.828
 3305POPC   C1A43383  29.972  17.718   6.069
 3305POPC   D2A43384  29.928  17.508   6.488
 3305POPC   C3A43385  30.156  17.606   6.892
 3305POPC   C4A43386  30.059  17.754   7.300
 3305POPC   C1B43387  29.368  17.336   6.231
 3305POPC   C2B43388  29.490  17.328   6.679
 3305POPC   C3B43389  29.667  17.463   7.062
 3305POPC   C4B43390  29.589  17.234   7.458
 3306POPC   NC343391   8.848  26.881   5.550
 3306POPC   PO443392   9.242  26.360   5.385
 3306POPC   GL143393   9.030  26.457   5.782
 3306POPC   GL243394   9.246  26.695   5.872
 3306POPC   C1A43395   8.838  26.677   6.182
 3306POPC   D2A43396   8.715  26.919   6.551
 3306POPC   C3A43397   8.753  26.750   6.970
 3306POPC   C4A43398   8.922  26.897   7.332
 3306POPC   C1B43399   9.316  26.892   6.246
 3306POPC   C2B43400   9.187  26.812   6.661
 3306POPC   C3B43401   9.294  26.679   7.053
 3306POPC   C4B43402   9.429  26.987   7.331
 3307POPC   NC343403   1.401  42.012   5.124
 3307POPC   PO443404   1.099  42.388   5.543
 3307POPC   GL143405   1.147  42.039   5.858
 3307POPC   GL243406   1.239  42.353   6.033
 3307POPC   C1A43407   1.327  41.953   6.301
 3307POPC   D2A43408   1.182  42.325   6.550
 3307POPC   C3A43409   1.231  42.477   6.954
 3307POPC   C4A43410   1.404  42.243   7.192
 3307POPC   C1B43411   1.618  42.405   6.288
 3307POPC   C2B43412   1.693  42.408   6.730
 3307POPC   C3B43413   1.775  42.580   7.148
 3307POPC   C4B43414   1.614  42.514   7.598
 3308POPC   NC343415   2.428  35.590   5.203
 3308POPC   PO443416   1.815  35.411   5.519
 3308POPC   GL143417   2.150  35.333   5.803
 3308POPC   GL243418   2.221  35.696   5.899
 3308POPC   C1A43419   2.163  35.104   6.226
 3308POPC   D2A43420   2.094  35.231   6.694
 3308POPC   C3A43421   2.148  35.067   7.137
 3308POPC   C4A43422   1.935  35.011   7.549
 3308POPC   C1B43423   1.864  35.599   6.207
 3308POPC   C2B43424   1.721  35.587   6.667
 3308POPC   C3B43425   1.882  35.512   7.118
 3308POPC   C4B43426   1.694  35.611   7.557
 3309POPC   NC343427  42.250   8.694   5.715
 3309POPC   PO443428  42.444   9.220   5.316
 3309POPC   GL143429  42.394   9.169   5.784
 3309POPC   GL243430  42.033   9.192   5.763
 3309POPC   C1A43431  42.511   8.964   6.229
 3309POPC   D2A43432  42.566   9.092   6.660
 3309POPC   C3A43433  42.333   8.925   6.991
 3309POPC   C4A43434  42.224   8.679   7.342
 3309POPC   C1B43435  42.071   9.210   6.185
 3309POPC   C2B43436  42.063   8.944   6.505
 3309POPC   C3B43437  41.892   9.161   6.793
 3309POPC   C4B43438  41.926   9.148   7.206
 3310POPC   NC343439   2.960   2.098   5.460
 3310POPC   PO443440   2.444   1.724   5.528
 3310POPC   GL143441   2.601   2.057   5.826
 3310POPC   GL243442   2.949   2.015   5.983
 3310POPC   C1A43443   2.492   2.044   6.249
 3310POPC   D2A43444   2.533   1.741   6.569
 3310POPC   C3A43445   2.800   1.955   6.858
 3310POPC   C4A43446   2.705   1.962   7.271
 3310POPC   C1B43447   3.011   1.767   6.377
 3310POPC   C2B43448   3.269   1.762   6.761
 3310POPC   C3B43449   3.214   1.846   7.196
 3310POPC   C4B43450   3.102   2.179   7.515
 3311POPC   NC343451   0.247  32.681   5.475
 3311POPC   PO443452   0.446  33.269   5.299
 3311POPC   GL143453   0.600  33.163   5.744
 3311POPC   GL243454   0.514  32.843   5.857
 3311POPC   C1A43455   0.486  33.210   6.194
 3311POPC   D2A43456   0.321  33.070   6.591
 3311POPC   C3A43457   0.465  33.285   6.954
 3311POPC   C4A43458   0.404  33.118   7.343
 3311POPC   C1B43459   0.380  32.663   6.242
 3311POPC   C2B43460   0.583  32.624   6.635
 3311POPC   C3B43461   0.357  32.717   7.000
 3311POPC   C4B43462   0.344  32.635   7.450
 3312POPC   NC343463  26.053  29.332   5.594
 3312POPC   PO443464  26.150  28.684   5.641
 3312POPC   GL143465  26.110  29.002   6.001
 3312POPC   GL243466  26.313  29.372   6.021
 3312POPC   C1A43467  25.888  28.932   6.416
 3312POPC   D2A43468  25.793  28.954   6.879
 3312POPC   C3A43469  26.165  29.059   7.118
 3312POPC   C4A43470  26.339  28.924   7.498
 3312POPC   C1B43471  25.979  29.445   6.330
 3312POPC   C2B43472  25.993  29.452   6.796
 3312POPC   C3B43473  25.748  29.410   7.169
 3312POPC   C4B43474  25.621  29.466   7.598
 3313POPC   NC343475   2.503  13.953   5.563
 3313POPC   PO443476   2.141  13.500   5.230
 3313POPC   GL143477   2.407  13.470   5.673
 3313POPC   GL243478   2.794  13.550   5.746
 3313POPC   C1A43479   2.432  13.568   6.127
 3313POPC   D2A43480   2.674  13.537   6.511
 3313POPC   C3A43481   2.557  13.695   6.908
 3313POPC   C4A43482   2.634  13.430   7.259
 3313POPC   C1B43483   2.885  13.841   6.135
 3313POPC   C2B43484   2.949  13.983   6.560
 3313POPC   C3B43485   2.990  14.134   6.973
 3313POPC   C4B43486   2.931  13.862   7.292
 3314POPC   NC343487   2.275  42.514   5.392
 3314POPC   PO443488   2.967  42.403   5.305
 3314POPC   GL143489   2.784  42.334   5.706
 3314POPC   GL243490   3.010  42.060   5.739
 3314POPC   C1A43491   2.652  42.470   6.137
 3314POPC   D2A43492   2.559  42.306   6.544
 3314POPC   C3A43493   2.842  42.433   6.882
 3314POPC   C4A43494   2.735  42.506   7.260
 3314POPC   C1B43495   2.879  42.001   6.148
 3314POPC   C2B43496   3.029  42.101   6.549
 3314POPC   C3B43497   3.076  41.996   6.994
 3314POPC   C4B43498   2.948  42.037   7.416
 3315POPC   NC343499  41.894  33.276   5.416
 3315POPC   PO443500  41.321  32.880   5.570
 3315POPC   GL143501  41.553  33.101   5.870
 3315POPC   GL243502  41.322  33.291   6.003
 3315POPC   C1A43503  41.669  32.925   6.287
 3315POPC   D2A43504  41.479  32.766   6.648
 3315POPC   C3A43505  41.564  32.992   7.009
 3315POPC   C4A43506  41.603  32.784   7.362
 3315POPC   C1B43507  41.150  32.976   6.296
 3315POPC   C2B43508  41.160  33.167   6.703
 3315POPC   C3B43509  41.149  33.306   7.111
 3315POPC   C4B43510  41.382  33.207   7.532
 3316POPC   NC343511   6.455  38.442   5.453
 3316POPC   PO443512   7.223  38.527   5.613
 3316POPC   GL143513   6.809  38.588   5.837
 3316POPC   GL243514   6.537  38.303   5.929
 3316POPC   C1A43515   6.672  38.679   6.238
 3316POPC   D2A43516   6.908  38.573   6.594
 3316POPC   C3A43517   6.715  38.541   6.987
 3316POPC   C4A43518   6.841  38.701   7.360
 3316POPC   C1B43519   6.815  38.164   6.245
 3316POPC   C2B43520   6.736  37.962   6.621
 3316POPC   C3B43521   6.783  38.038   7.030
 3316POPC   C4B43522   7.069  38.240   7.261
 3317POPC   NC343523  21.529  31.091   5.663
 3317POPC   PO443524  21.247  30.518   5.449
 3317POPC   GL143525  21.353  30.675   5.897
 3317POPC   GL243526  21.689  30.813   6.050
 3317POPC   C1A43527  21.364  30.480   6.288
 3317POPC   D2A43528  21.617  30.468   6.624
 3317POPC   C3A43529  21.455  30.489   7.025
 3317POPC   C4A43530  21.424  30.856   7.249
 3317POPC   C1B43531  21.438  30.983   6.392
 3317POPC   C2B43532  21.196  30.909   6.766
 3317POPC   C3B43533  21.121  31.217   7.098
 3317POPC   C4B43534  21.165  31.178   7.559
 3318POPC   NC343535  43.851  19.080   5.365
 3318POPC   PO443536  44.069  18.521   5.693
 3318POPC   GL143537  43.906  18.940   5.859
 3318POPC   GL243538  43.972  19.335   5.797
 3318POPC   C1A43539  43.667  19.082   6.233
 3318POPC   D2A43540  43.537  18.937   6.652
 3318POPC   C3A43541  43.658  19.159   7.000
 3318POPC   C4A43542  43.816  19.054   7.403
 3318POPC   C1B43543  44.175  19.215   6.185
 3318POPC   C2B43544  44.103  19.045   6.578
 3318POPC   C3B43545  44.167  19.135   7.002
 3318POPC   C4B43546  44.154  19.394   7.359
 3319POPC   NC343547  38.735   0.250   5.320
 3319POPC   PO443548  38.309   0.617   5.596
 3319POPC   GL143549  38.624   0.661   5.896
 3319POPC   GL243550  38.627   0.308   5.917
 3319POPC   C1A43551  38.742   0.638   6.318
 3319POPC   D2A43552  38.620   0.265   6.548
 3319POPC   C3A43553  38.399   0.506   6.842
 3319POPC   C4A43554  38.480   0.608   7.256
 3319POPC   C1B43555  38.266   0.431   6.212
 3319POPC   C2B43556  38.093   0.191   6.532
 3319POPC   C3B43557  38.250   0.047   6.913
 3319POPC   C4B43558  38.121   0.262   7.285
 3320POPC   NC343559  12.106  27.299   5.433
 3320POPC   PO443560  11.719  26.741   5.434
 3320POPC   GL143561  11.991  26.754   5.733
 3320POPC   GL243562  12.130  26.438   5.733
 3320POPC   C1A43563  11.991  26.988   6.120
 3320POPC   D2A43564  12.033  27.167   6.528
 3320POPC   C3A43565  11.947  27.023   6.989
 3320POPC   C4A43566  12.141  27.133   7.417
 3320POPC   C1B43567  12.137  26.506   6.180
 3320POPC   C2B43568  12.189  26.602   6.615
 3320POPC   C3B43569  12.387  26.324   6.910
 3320POPC   C4B43570  12.205  26.259   7.305
 3321POPC   NC343571  28.195   9.473   5.300
 3321POPC   PO443572  28.348  10.079   5.421
 3321POPC   GL143573  28.114   9.825   5.719
 3321POPC   GL243574  28.362   9.620   5.847
 3321POPC   C1A43575  28.035   9.834   6.181
 3321POPC   D2A43576  28.326   9.840   6.541
 3321POPC   C3A43577  28.143   9.840   6.963
 3321POPC   C4A43578  28.412   9.963   7.292
 3321POPC   C1B43579  28.400   9.399   6.256
 3321POPC   C2B43580  28.621   9.423   6.664
 3321POPC   C3B43581  28.506   9.486   7.098
 3321POPC   C4B43582  28.084   9.375   7.255
 3322POPC   NC343583  34.150  32.004   5.427
 3322POPC   PO443584  33.865  32.617   5.499
 3322POPC   GL143585  33.870  32.427   5.899
 3322POPC   GL243586  33.855  32.088   5.835
 3322POPC   C1A43587  33.729  32.299   6.306
 3322POPC   D2A43588  33.928  32.313   6.676
 3322POPC   C3A43589  33.702  32.397   7.027
 3322POPC   C4A43590  33.674  32.051   7.277
 3322POPC   C1B43591  34.126  31.972   6.137
 3322POPC   C2B43592  34.212  31.898   6.537
 3322POPC   C3B43593  34.028  31.884   6.930
 3322POPC   C4B43594  34.183  31.838   7.342
 3323POPC   NC343595  37.484  19.785   5.550
 3323POPC   PO443596  38.134  19.617   5.403
 3323POPC   GL143597  37.923  19.735   5.800
 3323POPC   GL243598  37.840  20.095   5.813
 3323POPC   C1A43599  37.820  19.631   6.271
 3323POPC   D2A43600  37.727  19.368   6.664
 3323POPC   C3A43601  37.877  19.438   7.071
 3323POPC   C4A43602  37.992  19.795   7.289
 3323POPC   C1B43603  37.705  20.127   6.280
 3323POPC   C2B43604  37.739  19.961   6.750
 3323POPC   C3B43605  37.714  20.184   7.182
 3323POPC   C4B43606  37.377  20.235   7.516
 3324POPC   NC343607  24.581  34.270   5.576
 3324POPC   PO443608  24.389  34.922   5.371
 3324POPC   GL143609  24.423  34.734   5.793
 3324POPC   GL243610  24.270  34.424   5.960
 3324POPC   C1A43611  24.690  34.870   6.143
 3324POPC   D2A43612  24.619  35.062   6.573
 3324POPC   C3A43613  24.384  34.739   6.845
 3324POPC   C4A43614  24.436  34.681   7.299
 3324POPC   C1B43615  24.164  34.103   6.292
 3324POPC   C2B43616  24.119  34.142   6.764
 3324POPC   C3B43617  24.304  34.195   7.213
 3324POPC   C4B43618  24.474  34.131   7.663
 3325POPC   NC343619   7.665  32.264   5.379
 3325POPC   PO443620   7.102  32.510   5.581
 3325POPC   GL143621   7.255  32.304   5.943
 3325POPC   GL243622   7.474  32.054   5.802
 3325POPC   C1A43623   7.325  32.186   6.388
 3325POPC   D2A43624   7.618  32.392   6.681
 3325POPC   C3A43625   7.463  32.397   7.055
 3325POPC   C4A43626   7.254  32.056   7.253
 3325POPC   C1B43627   7.755  32.071   6.128
 3325POPC   C2B43628   7.822  31.927   6.539
 3325POPC   C3B43629   7.902  32.056   6.958
 3325POPC   C4B43630   7.739  31.929   7.343
 3326POPC   NC343631  33.892   7.033   5.456
 3326POPC   PO443632  33.448   7.435   5.620
 3326POPC   GL143633  33.635   7.150   5.919
 3326POPC   GL243634  34.008   7.264   5.931
 3326POPC   C1A43635  33.794   7.042   6.344
 3326POPC   D2A43636  34.197   7.239   6.538
 3326POPC   C3A43637  34.013   7.442   6.919
 3326POPC   C4A43638  33.620   7.225   7.125
 3326POPC   C1B43639  33.849   7.549   6.308
 3326POPC   C2B43640  33.560   7.552   6.710
 3326POPC   C3B43641  33.552   7.735   7.149
 3326POPC   C4B43642  33.582   7.896   7.609
 3327POPC   NC343643   5.901  24.568   5.422
 3327POPC   PO443644   6.357  24.086   5.620
 3327POPC   GL143645   5.972  24.191   5.831
 3327POPC   GL243646   5.877  24.527   5.921
 3327POPC   C1A43647   5.816  24.150   6.264
 3327POPC   D2A43648   5.663  23.973   6.646
 3327POPC   C3A43649   5.828  24.189   6.994
 3327POPC   C4A43650   6.009  24.329   7.357
 3327POPC   C1B43651   5.592  24.631   6.243
 3327POPC   C2B43652   5.564  24.511   6.684
 3327POPC   C3B43653   5.674  24.671   7.118
 3327POPC   C4B43654   6.007  24.859   7.416
 3328POPC   NC343655  40.450  35.355   5.408
 3328POPC   PO443656  41.098  35.142   5.526
 3328POPC   GL143657  40.833  35.381   5.766
 3328POPC   GL243658  40.541  35.197   5.888
 3328POPC   C1A43659  40.730  35.667   6.091
 3328POPC   D2A43660  40.805  35.785   6.509
 3328POPC   C3A43661  40.995  35.578   6.877
 3328POPC   C4A43662  40.890  35.789   7.257
 3328POPC   C1B43663  40.809  35.219   6.283
 3328POPC   C2B43664  40.615  35.288   6.674
 3328POPC   C3B43665  40.651  35.151   7.090
 3328POPC   C4B43666  40.696  35.368   7.483
 3329POPC   NC343667  42.662  10.413   5.582
 3329POPC   PO443668  43.163  10.808   5.300
 3329POPC   GL143669  43.090  10.666   5.746
 3329POPC   GL243670  43.120  10.301   5.823
 3329POPC   C1A43671  43.241  10.666   6.195
 3329POPC   D2A43672  43.490  10.589   6.580
 3329POPC   C3A43673  43.294  10.801   6.919
 3329POPC   C4A43674  42.906  10.709   7.172
 3329POPC   C1B43675  42.914  10.259   6.227
 3329POPC   C2B43676  42.991  10.447   6.628
 3329POPC   C3B43677  43.209  10.301   6.982
 3329POPC   C4B43678  43.068  10.123   7.357
 3330POPC   NC343679  36.381  10.415   5.413
 3330POPC   PO443680  35.745  10.188   5.443
 3330POPC   GL143681  35.810  10.495   5.771
 3330POPC   GL243682  36.155  10.553   5.851
 3330POPC   C1A43683  35.780  10.752   6.137
 3330POPC   D2A43684  36.076  10.734   6.501
 3330POPC   C3A43685  35.897  10.633   6.890
 3330POPC   C4A43686  36.028  10.679   7.304
 3330POPC   C1B43687  35.976  10.292   6.212
 3330POPC   C2B43688  36.141  10.191   6.614
 3330POPC   C3B43689  36.198  10.242   7.055
 3330POPC   C4B43690  35.812  10.210   7.240
 3331POPC   NC343691  33.043  30.919   5.397
 3331POPC   PO443692  33.445  30.305   5.622
 3331POPC   GL143693  33.179  30.422   5.939
 3331POPC   GL243694  32.927  30.535   5.711
 3331POPC   C1A43695  33.052  30.480   6.382
 3331POPC   D2A43696  33.253  30.538   6.764
 3331POPC   C3A43697  33.137  30.548   7.161
 3331POPC   C4A43698  33.221  30.213   7.439
 3331POPC   C1B43699  32.871  30.826   6.057
 3331POPC   C2B43700  33.056  30.984   6.450
 3331POPC   C3B43701  32.914  30.917   6.860
 3331POPC   C4B43702  32.915  31.004   7.279
 3332POPC   NC343703  29.167  14.677   5.836
 3332POPC   PO443704  29.510  14.258   5.366
 3332POPC   GL143705  29.336  14.172   5.790
 3332POPC   GL243706  28.951  14.170   5.818
 3332POPC   C1A43707  29.318  14.169   6.264
 3332POPC   D2A43708  29.039  14.467   6.545
 3332POPC   C3A43709  29.109  14.487   6.984
 3332POPC   C4A43710  29.481  14.583   7.161
 3332POPC   C1B43711  28.817  14.100   6.268
 3332POPC   C2B43712  28.761  14.077   6.747
 3332POPC   C3B43713  29.020  14.007   7.124
 3332POPC   C4B43714  29.140  14.164   7.523
 3333POPC   NC343715  41.125   1.607   5.707
 3333POPC   PO443716  40.906   1.042   5.400
 3333POPC   GL143717  40.872   1.117   5.831
 3333POPC   GL243718  41.077   0.912   6.061
 3333POPC   C1A43719  40.548   0.977   6.122
 3333POPC   D2A43720  40.738   0.818   6.482
 3333POPC   C3A43721  40.639   1.091   6.769
 3333POPC   C4A43722  40.770   1.190   7.137
 3333POPC   C1B43723  40.898   1.306   6.325
 3333POPC   C2B43724  40.885   1.560   6.731
 3333POPC   C3B43725  41.179   1.475   7.049
 3333POPC   C4B43726  41.203   1.233   7.400
 3334POPC   NC343727  28.208  41.853   5.478
 3334POPC   PO443728  28.620  41.447   5.324
 3334POPC   GL143729  28.375  41.396   5.691
 3334POPC   GL243730  28.165  41.096   5.724
 3334POPC   C1A43731  28.430  41.473   6.136
 3334POPC   D2A43732  28.602  41.673   6.516
 3334POPC   C3A43733  28.291  41.740   6.822
 3334POPC   C4A43734  28.131  41.901   7.198
 3334POPC   C1B43735  28.226  41.012   6.215
 3334POPC   C2B43736  28.356  41.235   6.631
 3334POPC   C3B43737  28.491  41.122   7.070
 3334POPC   C4B43738  28.416  41.243   7.551
 3335POPC   NC343739  19.311   2.583   5.433
 3335POPC   PO443740  18.731   2.914   5.291
 3335POPC   GL143741  18.825   2.757   5.732
 3335POPC   GL243742  18.957   2.412   5.758
 3335POPC   C1A43743  19.105   2.791   6.134
 3335POPC   D2A43744  19.383   2.918   6.526
 3335POPC   C3A43745  19.297   2.975   6.973
 3335POPC   C4A43746  18.947   2.880   7.207
 3335POPC   C1B43747  18.970   2.255   6.172
 3335POPC   C2B43748  18.951   2.490   6.519
 3335POPC   C3B43749  19.117   2.516   6.870
 3335POPC   C4B43750  19.029   2.390   7.235
 3336POPC   NC343751  38.260  36.209   5.571
 3336POPC   PO443752  37.577  36.195   5.392
 3336POPC   GL143753  37.716  36.148   5.842
 3336POPC   GL243754  37.975  36.395   5.960
 3336POPC   C1A43755  37.515  35.917   6.223
 3336POPC   D2A43756  37.176  36.074   6.495
 3336POPC   C3A43757  37.118  35.948   6.931
 3336POPC   C4A43758  37.299  36.093   7.336
 3336POPC   C1B43759  38.016  36.008   6.240
 3336POPC   C2B43760  37.847  35.911   6.640
 3336POPC   C3B43761  37.653  36.107   6.973
 3336POPC   C4B43762  37.811  36.198   7.372
 3337POPC   NC343763   2.417  29.590   5.713
 3337POPC   PO443764   2.809  30.094   5.375
 3337POPC   GL143765   2.980  30.151   5.754
 3337POPC   GL243766   2.642  30.061   5.890
 3337POPC   C1A43767   3.054  30.087   6.176
 3337POPC   D2A43768   2.737  30.075   6.502
 3337POPC   C3A43769   2.896  30.020   6.906
 3337POPC   C4A43770   3.077  30.182   7.259
 3337POPC   C1B43771   2.342  30.242   6.197
 3337POPC   C2B43772   2.260  30.232   6.642
 3337POPC   C3B43773   2.336  30.123   7.034
 3337POPC   C4B43774   2.618  29.977   7.329
 3338POPC   NC343775  33.388   2.002   5.511
 3338POPC   PO443776  32.731   2.077   5.464
 3338POPC   GL143777  32.882   2.238   5.831
 3338POPC   GL243778  33.249   2.381   5.814
 3338POPC   C1A43779  32.713   2.122   6.246
 3338POPC   D2A43780  32.836   1.889   6.631
 3338POPC   C3A43781  32.708   1.930   7.056
 3338POPC   C4A43782  32.844   2.234   7.328
 3338POPC   C1B43783  33.225   2.057   6.153
 3338POPC   C2B43784  33.352   2.023   6.566
 3338POPC   C3B43785  33.180   2.171   6.924
 3338POPC   C4B43786  33.214   1.884   7.224
 3339POPC   NC343787   4.554   2.360   5.698
 3339POPC   PO443788   4.121   1.902   5.500
 3339POPC   GL143789   4.348   1.940   5.889
 3339POPC   GL243790   4.110   2.199   5.984
 3339POPC   C1A43791   4.522   2.162   6.312
 3339POPC   D2A43792   4.509   2.381   6.745
 3339POPC   C3A43793   4.535   2.122   7.127
 3339POPC   C4A43794   4.678   1.685   7.245
 3339POPC   C1B43795   4.128   1.865   6.337
 3339POPC   C2B43796   4.345   1.799   6.736
 3339POPC   C3B43797   4.170   1.738   7.160
 3339POPC   C4B43798   3.870   1.832   7.507
 3340POPC   NC343799  34.276  26.178   5.373
 3340POPC   PO443800  33.658  26.357   5.341
 3340POPC   GL143801  33.760  26.123   5.716
 3340POPC   GL243802  34.029  25.839   5.710
 3340POPC   C1A43803  33.658  26.145   6.150
 3340POPC   D2A43804  33.705  25.934   6.552
 3340POPC   C3A43805  33.403  25.908   6.843
 3340POPC   C4A43806  33.626  25.986   7.223
 3340POPC   C1B43807  34.165  26.125   6.069
 3340POPC   C2B43808  34.047  26.304   6.486
 3340POPC   C3B43809  34.035  26.165   6.924
 3340POPC   C4B43810  34.158  26.475   7.225
 3341POPC   NC343811  44.517  26.515   5.553
 3341POPC   PO443812   0.046  26.964   5.275
 3341POPC   GL143813  44.848  26.929   5.714
 3341POPC   GL243814  44.579  27.168   5.803
 3341POPC   C1A43815  44.813  26.645   6.123
 3341POPC   D2A43816  44.580  26.730   6.509
 3341POPC   C3A43817  44.686  26.620   6.946
 3341POPC   C4A43818  44.373  26.662   7.266
 3341POPC   C1B43819  44.795  27.138   6.244
 3341POPC   C2B43820  44.777  27.162   6.712
 3341POPC   C3B43821  44.802  27.092   7.143
 3341POPC   C4B43822  44.722  27.136   7.574
 3342POPC   NC343823   8.856  11.466   5.374
 3342POPC   PO443824   9.203  10.909   5.560
 3342POPC   GL143825   9.274  11.224   5.889
 3342POPC   GL243826   9.238  11.575   5.756
 3342POPC   C1A43827   9.154  11.197   6.299
 3342POPC   D2A43828   8.878  11.093   6.556
 3342POPC   C3A43829   9.108  11.084   6.935
 3342POPC   C4A43830   9.207  11.046   7.359
 3342POPC   C1B43831   8.872  11.535   6.037
 3342POPC   C2B43832   8.796  11.589   6.478
 3342POPC   C3B43833   8.723  11.454   6.899
 3342POPC   C4B43834   8.990  11.521   7.246
 3343POPC   NC343835  32.681  36.610   5.565
 3343POPC   PO443836  33.140  37.179   5.439
 3343POPC   GL143837  32.822  37.103   5.768
 3343POPC   GL243838  32.967  36.813   5.946
 3343POPC   C1A43839  32.700  37.176   6.218
 3343POPC   D2A43840  32.861  36.925   6.572
 3343POPC   C3A43841  32.959  37.074   6.994
 3343POPC   C4A43842  33.287  36.895   7.284
 3343POPC   C1B43843  32.580  36.678   6.195
 3343POPC   C2B43844  32.356  36.807   6.552
 3343POPC   C3B43845  32.550  36.718   6.933
 3343POPC   C4B43846  32.759  36.770   7.356
 3344POPC   NC343847  38.890  27.524   5.230
 3344POPC   PO443848  38.328  27.577   5.570
 3344POPC   GL143849  38.411  27.548   5.981
 3344POPC   GL243850  38.432  27.914   6.014
 3344POPC   C1A43851  38.647  27.551   6.344
 3344POPC   D2A43852  38.550  27.337   6.699
 3344POPC   C3A43853  38.788  27.430   7.042
 3344POPC   C4A43854  38.733  27.625   7.423
 3344POPC   C1B43855  38.233  27.872   6.394
 3344POPC   C2B43856  38.532  27.915   6.713
 3344POPC   C3B43857  38.424  27.842   7.094
 3344POPC   C4B43858  38.276  27.436   7.143
 3345POPC   NC343859  19.113  30.600   5.466
 3345POPC   PO443860  18.528  30.950   5.600
 3345POPC   GL143861  18.849  30.751   5.869
 3345POPC   GL243862  19.212  30.872   5.898
 3345POPC   C1A43863  19.049  30.514   6.199
 3345POPC   D2A43864  19.118  30.690   6.580
 3345POPC   C3A43865  18.952  30.507   6.927
 3345POPC   C4A43866  19.025  30.819   7.199
 3345POPC   C1B43867  19.504  30.787   6.239
 3345POPC   C2B43868  19.609  30.626   6.644
 3345POPC   C3B43869  19.457  30.549   7.076
 3345POPC   C4B43870  19.506  30.744   7.503
 3346POPC   NC343871   2.210   2.144   5.479
 3346POPC   PO443872   1.644   1.720   5.307
 3346POPC   GL143873   1.890   1.784   5.701
 3346POPC   GL243874   1.817   2.143   5.825
 3346POPC   C1A43875   2.031   1.754   6.155
 3346POPC   D2A43876   2.046   1.907   6.598
 3346POPC   C3A43877   1.944   1.709   7.014
 3346POPC   C4A43878   2.196   1.891   7.364
 3346POPC   C1B43879   1.547   2.242   6.187
 3346POPC   C2B43880   1.561   2.059   6.596
 3346POPC   C3B43881   1.797   2.190   6.992
 3346POPC   C4B43882   1.711   2.176   7.428
 3347POPC   NC343883   8.118  37.508   5.259
 3347POPC   PO443884   8.622  37.170   5.360
 3347POPC   GL143885   8.403  37.434   5.759
 3347POPC   GL243886   8.502  37.728   5.979
 3347POPC   C1A43887   8.123  37.488   6.200
 3347POPC   D2A43888   8.123  37.694   6.635
 3347POPC   C3A43889   8.221  37.519   7.050
 3347POPC   C4A43890   8.575  37.415   7.349
 3347POPC   C1B43891   8.256  38.042   6.265
 3347POPC   C2B43892   8.171  38.213   6.668
 3347POPC   C3B43893   8.073  38.039   7.052
 3347POPC   C4B43894   8.447  37.914   7.286
 3348POPC   NC343895  17.779  31.530   5.170
 3348POPC   PO443896  18.351  31.722   5.595
 3348POPC   GL143897  18.320  31.458   5.954
 3348POPC   GL243898  18.067  31.684   6.087
 3348POPC   C1A43899  18.078  31.209   6.278
 3348POPC   D2A43900  17.889  31.325   6.668
 3348POPC   C3A43901  18.130  31.549   6.984
 3348POPC   C4A43902  18.349  31.246   7.213
 3348POPC   C1B43903  18.267  31.630   6.452
 3348POPC   C2B43904  18.491  31.336   6.669
 3348POPC   C3B43905  18.727  31.545   6.963
 3348POPC   C4B43906  18.518  31.873   7.160
 3349POPC   NC343907   0.495   1.885   5.324
 3349POPC   PO443908   0.167   2.339   5.559
 3349POPC   GL143909   0.482   2.138   5.847
 3349POPC   GL243910   0.669   2.385   6.076
 3349POPC   C1A43911   0.590   1.894   6.196
 3349POPC   D2A43912   0.515   1.985   6.590
 3349POPC   C3A43913   0.785   2.014   6.868
 3349POPC   C4A43914   0.572   1.868   7.243
 3349POPC   C1B43915   0.258   2.330   6.310
 3349POPC   C2B43916   0.042   2.140   6.700
 3349POPC   C3B43917   0.087   2.089   7.170
 3349POPC   C4B43918   0.373   2.255   7.530
 3350POPC   NC343919  35.698  16.571   5.331
 3350POPC   PO443920  35.004  16.616   5.384
 3350POPC   GL143921  35.245  16.611   5.809
 3350POPC   GL243922  35.604  16.510   5.847
 3350POPC   C1A43923  35.155  16.592   6.282
 3350POPC   D2A43924  35.324  16.511   6.693
 3350POPC   C3A43925  35.069  16.678   7.011
 3350POPC   C4A43926  35.147  16.784   7.424
 3350POPC   C1B43927  35.544  16.898   6.125
 3350POPC   C2B43928  35.422  17.010   6.564
 3350POPC   C3B43929  35.525  16.928   7.008
 3350POPC   C4B43930  35.658  16.774   7.409
 3351POPC   NC343931  43.357  44.281   5.521
 3351POPC   PO443932  42.990  44.837   5.330
 3351POPC   GL143933  42.794  44.661   5.763
 3351POPC   GL243934  42.988  44.372   5.869
 3351POPC   C1A43935  42.729  44.549   6.258
 3351POPC   D2A43936  42.854  44.475   6.697
 3351POPC   C3A43937  43.086  44.793   6.938
 3351POPC   C4A43938  42.971  44.991   7.345
 3351POPC   C1B43939  43.270  44.319   6.221
 3351POPC   C2B43940  43.382  44.432   6.637
 3351POPC   C3B43941  43.408  44.308   7.027
 3351POPC   C4B43942  43.348  44.605   7.334
 3352POPC   NC343943  13.859  43.540   5.537
 3352POPC   PO443944  13.424  43.059   5.411
 3352POPC   GL143945  13.624  43.129   5.790
 3352POPC   GL243946  13.460  43.407   5.861
 3352POPC   C1A43947  13.682  43.011   6.228
 3352POPC   D2A43948  13.420  42.848   6.568
 3352POPC   C3A43949  13.646  42.932   6.925
 3352POPC   C4A43950  13.624  43.047   7.360
 3352POPC   C1B43951  13.296  43.339   6.232
 3352POPC   C2B43952  13.518  43.385   6.605
 3352POPC   C3B43953  13.408  43.367   7.020
 3352POPC   C4B43954  13.285  43.593   7.351
 3353POPC   NC343955  43.531   9.746   5.525
 3353POPC   PO443956  42.871  10.018   5.484
 3353POPC   GL143957  43.020   9.753   5.792
 3353POPC   GL243958  42.790   9.496   5.784
 3353POPC   C1A43959  43.120   9.733   6.233
 3353POPC   D2A43960  43.156   9.941   6.631
 3353POPC   C3A43961  43.148   9.729   7.051
 3353POPC   C4A43962  43.313   9.691   7.503
 3353POPC   C1B43963  42.703   9.427   6.230
 3353POPC   C2B43964  42.912   9.463   6.652
 3353POPC   C3B43965  42.793   9.357   7.079
 3353POPC   C4B43966  42.873   9.413   7.555
 3354POPC   NC343967   7.826   6.145   5.430
 3354POPC   PO443968   8.168   6.861   5.470
 3354POPC   GL143969   8.200   6.600   5.813
 3354POPC   GL243970   7.954   6.814   5.937
 3354POPC   C1A43971   8.303   6.594   6.256
 3354POPC   D2A43972   8.131   6.520   6.658
 3354POPC   C3A43973   8.450   6.659   6.925
 3354POPC   C4A43974   8.527   6.466   7.308
 3354POPC   C1B43975   7.932   7.042   6.268
 3354POPC   C2B43976   8.106   7.040   6.676
 3354POPC   C3B43977   8.030   7.127   7.096
 3354POPC   C4B43978   8.090   6.752   7.294
 3355POPC   NC343979  14.972  19.957   5.080
 3355POPC   PO443980  15.175  19.642   5.577
 3355POPC   GL143981  15.045  19.776   5.919
 3355POPC   GL243982  14.801  19.519   5.938
 3355POPC   C1A43983  15.193  19.985   6.294
 3355POPC   D2A43984  14.985  19.995   6.691
 3355POPC   C3A43985  15.163  20.096   7.073
 3355POPC   C4A43986  14.955  20.289   7.387
 3355POPC   C1B43987  14.775  19.683   6.346
 3355POPC   C2B43988  14.944  19.479   6.687
 3355POPC   C3B43989  14.862  19.330   7.076
 3355POPC   C4B43990  14.804  19.532   7.445
 3356POPC   NC343991  38.849  42.084   5.606
 3356POPC   PO443992  38.513  42.554   5.287
 3356POPC   GL143993  38.481  42.398   5.751
 3356POPC   GL243994  38.147  42.349   5.895
 3356POPC   C1A43995  38.527  42.218   6.215
 3356POPC   D2A43996  38.293  42.070   6.608
 3356POPC   C3A43997  38.396  42.312   6.982
 3356POPC   C4A43998  38.700  42.421   7.329
 3356POPC   C1B43999  38.354  42.705   6.135
 3356POPC   C2B44000  38.420  42.849   6.550
 3356POPC   C3B44001  38.291  42.813   6.947
 3356POPC   C4B44002  38.230  42.675   7.339
 3357POPC   NC344003  24.481  24.179   5.328
 3357POPC   PO444004  24.321  23.486   5.313
 3357POPC   GL144005  24.568  23.722   5.668
 3357POPC   GL244006  24.474  24.061   5.824
 3357POPC   C1A44007  24.451  23.646   6.109
 3357POPC   D2A44008  24.179  23.459   6.399
 3357POPC   C3A44009  24.226  23.620   6.814
 3357POPC   C4A44010  24.313  23.641   7.246
 3357POPC   C1B44011  24.688  24.093   6.216
 3357POPC   C2B44012  24.436  24.080   6.576
 3357POPC   C3B44013  24.422  24.090   7.002
 3357POPC   C4B44014  24.753  24.064   7.321
 3358POPC   NC344015  42.449  44.136   5.420
 3358POPC   PO444016  42.094  43.545   5.348
 3358POPC   GL144017  42.171  43.742   5.754
 3358POPC   GL244018  42.122  44.086   5.831
 3358POPC   C1A44019  42.332  43.760   6.188
 3358POPC   D2A44020  42.102  43.727   6.586
 3358POPC   C3A44021  42.289  43.861   6.960
 3358POPC   C4A44022  42.188  44.027   7.341
 3358POPC   C1B44023  42.304  44.272   6.190
 3358POPC   C2B44024  42.440  44.174   6.591
 3358POPC   C3B44025  42.408  44.367   7.007
 3358POPC   C4B44026  42.637  44.335   7.368
 3359POPC   NC344027  21.177  10.281   5.717
 3359POPC   PO444028  21.400  10.796   5.451
 3359POPC   GL144029  21.520  10.658   5.849
 3359POPC   GL244030  21.753  10.379   5.846
 3359POPC   C1A44031  21.324  10.675   6.232
 3359POPC   D2A44032  21.253  10.461   6.621
 3359POPC   C3A44033  21.358  10.696   7.002
 3359POPC   C4A44034  21.180  10.484   7.348
 3359POPC   C1B44035  21.605  10.202   6.238
 3359POPC   C2B44036  21.705  10.055   6.656
 3359POPC   C3B44037  21.623  10.254   7.058
 3359POPC   C4B44038  21.645  10.367   7.492
 3360POPC   NC344039  30.841  14.846   5.353
 3360POPC   PO444040  30.550  15.455   5.392
 3360POPC   GL144041  30.579  15.222   5.749
 3360POPC   GL244042  30.439  14.890   5.715
 3360POPC   C1A44043  30.682  15.390   6.114
 3360POPC   D2A44044  30.826  15.502   6.477
 3360POPC   C3A44045  30.726  15.367   6.832
 3360POPC   C4A44046  30.579  15.237   7.190
 3360POPC   C1B44047  30.718  14.815   6.066
 3360POPC   C2B44048  30.676  14.961   6.486
 3360POPC   C3B44049  30.714  14.816   6.916
 3360POPC   C4B44050  30.459  14.764   7.307
 3361POPC   NC344051   2.677  25.347   5.420
 3361POPC   PO444052   3.055  24.909   5.739
 3361POPC   GL144053   2.781  25.207   5.995
 3361POPC   GL244054   2.559  25.470   5.902
 3361POPC   C1A44055   2.777  25.379   6.411
 3361POPC   D2A44056   3.069  25.118   6.626
 3361POPC   C3A44057   2.866  24.964   6.925
 3361POPC   C4A44058   2.900  25.172   7.259
 3361POPC   C1B44059   2.302  25.231   6.232
 3361POPC   C2B44060   2.435  25.056   6.638
 3361POPC   C3B44061   2.404  25.174   7.072
 3361POPC   C4B44062   2.554  25.537   7.265
 3362POPC   NC344063  42.178  27.793   5.239
 3362POPC   PO444064  42.673  27.475   5.569
 3362POPC   GL144065  42.398  27.592   5.873
 3362POPC   GL244066  42.240  27.870   5.750
 3362POPC   C1A44067  42.272  27.437   6.254
 3362POPC   D2A44068  42.380  27.267   6.645
 3362POPC   C3A44069  42.066  27.411   6.921
 3362POPC   C4A44070  42.160  27.595   7.284
 3362POPC   C1B44071  42.443  28.018   6.154
 3362POPC   C2B44072  42.424  27.839   6.576
 3362POPC   C3B44073  42.307  28.006   6.971
 3362POPC   C4B44074  42.345  28.055   7.416
 3363POPC   NC344075  22.001   4.072   5.559
 3363POPC   PO444076  22.450   4.498   5.363
 3363POPC   GL144077  22.295   4.458   5.771
 3363POPC   GL244078  22.482   4.154   5.792
 3363POPC   C1A44079  21.896   4.484   6.073
 3363POPC   D2A44080  21.818   4.290   6.490
 3363POPC   C3A44081  21.976   4.407   6.897
 3363POPC   C4A44082  21.862   4.246   7.308
 3363POPC   C1B44083  22.291   4.202   6.214
 3363POPC   C2B44084  22.261   4.064   6.621
 3363POPC   C3B44085  22.527   3.976   6.938
 3363POPC   C4B44086  22.379   4.101   7.304
 3364POPC   NC344087  35.805  30.689   5.245
 3364POPC   PO444088  36.446  30.794   5.360
 3364POPC   GL144089  36.097  30.738   5.705
 3364POPC   GL244090  35.768  30.550   5.806
 3364POPC   C1A44091  36.086  30.818   6.166
 3364POPC   D2A44092  36.294  30.560   6.491
 3364POPC   C3A44093  36.288  30.732   6.896
 3364POPC   C4A44094  36.215  30.802   7.317
 3364POPC   C1B44095  35.760  30.432   6.247
 3364POPC   C2B44096  35.789  30.667   6.642
 3364POPC   C3B44097  35.793  30.651   7.095
 3364POPC   C4B44098  35.742  30.958   7.445
 3365POPC   NC344099   6.440  17.933   5.618
 3365POPC   PO444100   6.856  18.314   5.262
 3365POPC   GL144101   6.810  18.348   5.723
 3365POPC   GL244102   6.492  18.368   5.891
 3365POPC   C1A44103   6.818  18.076   6.131
 3365POPC   D2A44104   6.552  18.124   6.507
 3365POPC   C3A44105   6.656  18.327   6.867
 3365POPC   C4A44106   6.775  18.172   7.251
 3365POPC   C1B44107   6.296  18.632   6.167
 3365POPC   C2B44108   6.211  18.500   6.553
 3365POPC   C3B44109   6.258  18.648   6.909
 3365POPC   C4B44110   6.344  18.462   7.271
 3366POPC   NC344111   9.575  26.327   5.704
 3366POPC   PO444112  10.178  26.018   5.476
 3366POPC   GL144113   9.954  26.039   5.896
 3366POPC   GL244114  10.136  25.813   6.007
 3366POPC   C1A44115   9.635  25.979   6.274
 3366POPC   D2A44116   9.807  26.083   6.694
 3366POPC   C3A44117   9.543  26.001   7.047
 3366POPC   C4A44118   9.528  26.328   7.367
 3366POPC   C1B44119  10.080  25.784   6.353
 3366POPC   C2B44120   9.939  25.593   6.624
 3366POPC   C3B44121  10.132  25.755   6.973
 3366POPC   C4B44122   9.987  26.061   7.268
 3367POPC   NC344123  40.427  16.178   5.369
 3367POPC   PO444124  39.940  15.643   5.330
 3367POPC   GL144125  40.072  15.937   5.694
 3367POPC   GL244126  39.800  16.144   5.870
 3367POPC   C1A44127  40.118  15.882   6.166
 3367POPC   D2A44128  39.848  15.884   6.540
 3367POPC   C3A44129  40.086  16.012   6.879
 3367POPC   C4A44130  40.065  15.909   7.279
 3367POPC   C1B44131  39.714  16.317   6.289
 3367POPC   C2B44132  39.728  16.369   6.757
 3367POPC   C3B44133  39.828  16.341   7.201
 3367POPC   C4B44134  39.697  16.045   7.585
 3368POPC   NC344135  36.154  38.667   5.500
 3368POPC   PO444136  36.238  38.068   5.545
 3368POPC   GL144137  36.211  38.333   5.905
 3368POPC   GL244138  35.889  38.570   5.931
 3368POPC   C1A44139  36.084  38.306   6.326
 3368POPC   D2A44140  35.815  38.622   6.502
 3368POPC   C3A44141  35.879  38.584   6.947
 3368POPC   C4A44142  36.024  38.276   7.288
 3368POPC   C1B44143  36.208  38.800   6.168
 3368POPC   C2B44144  36.368  38.684   6.578
 3368POPC   C3B44145  36.325  38.830   6.978
 3368POPC   C4B44146  36.417  38.650   7.329
 3369POPC   NC344147  44.401   3.763   5.320
 3369POPC   PO444148   0.020   3.519   5.339
 3369POPC   GL144149  44.708   3.532   5.685
 3369POPC   GL244150  44.764   3.203   5.759
 3369POPC   C1A44151  44.582   3.666   6.134
 3369POPC   D2A44152  44.642   3.532   6.586
 3369POPC   C3A44153  44.528   3.815   6.925
 3369POPC   C4A44154  44.708   3.815   7.345
 3369POPC   C1B44155  44.670   3.161   6.193
 3369POPC   C2B44156  44.515   3.006   6.584
 3369POPC   C3B44157  44.434   3.183   6.998
 3369POPC   C4B44158  44.688   3.317   7.336
 3370POPC   NC344159  13.745  41.713   5.334
 3370POPC   PO444160  13.410  41.100   5.428
 3370POPC   GL144161  13.457  41.378   5.781
 3370POPC   GL244162  13.793  41.431   5.797
 3370POPC   C1A44163  13.489  41.527   6.212
 3370POPC   D2A44164  13.330  41.670   6.612
 3370POPC   C3A44165  13.422  41.513   7.028
 3370POPC   C4A44166  13.200  41.414   7.409
 3370POPC   C1B44167  13.996  41.616   6.159
 3370POPC   C2B44168  13.849  41.660   6.571
 3370POPC   C3B44169  13.957  41.480   6.972
 3370POPC   C4B44170  13.822  41.703   7.323
 3371POPC   NC344171  31.924  34.320   5.277
 3371POPC   PO444172  31.252  34.488   5.263
 3371POPC   GL144173  31.264  34.536   5.706
 3371POPC   GL244174  31.652  34.606   5.706
 3371POPC   C1A44175  31.247  34.756   6.097
 3371POPC   D2A44176  31.149  34.620   6.499
 3371POPC   C3A44177  31.459  34.709   6.806
 3371POPC   C4A44178  31.327  34.693   7.211
 3371POPC   C1B44179  31.700  34.475   6.126
 3371POPC   C2B44180  31.574  34.306   6.503
 3371POPC   C3B44181  31.714  34.241   6.879
 3371POPC   C4B44182  31.845  34.495   7.169
 3372POPC   NC344183  26.525   0.629   5.468
 3372POPC   PO444184  26.897   0.110   5.186
 3372POPC   GL144185  26.774   0.294   5.718
 3372POPC   GL244186  26.490   0.397   5.945
 3372POPC   C1A44187  26.901   0.693   6.038
 3372POPC   D2A44188  27.168   0.641   6.411
 3372POPC   C3A44189  26.965   0.519   6.778
 3372POPC   C4A44190  26.912   0.636   7.182
 3372POPC   C1B44191  26.811   0.264   6.291
 3372POPC   C2B44192  26.942  44.988   6.639
 3372POPC   C3B44193  27.056   0.076   7.055
 3372POPC   C4B44194  26.642   0.222   7.105
 3373POPC   NC344195   4.095  19.538   5.565
 3373POPC   PO444196   4.272  20.083   5.331
 3373POPC   GL144197   4.460  19.851   5.767
 3373POPC   GL244198   4.402  19.496   5.961
 3373POPC   C1A44199   4.621  19.843   6.245
 3373POPC   D2A44200   4.461  19.642   6.643
 3373POPC   C3A44201   4.507  19.905   7.019
 3373POPC   C4A44202   4.286  19.938   7.402
 3373POPC   C1B44203   4.086  19.696   6.261
 3373POPC   C2B44204   3.930  19.627   6.705
 3373POPC   C3B44205   4.075  19.549   7.125
 3373POPC   C4B44206   3.883  19.586   7.546
 3374POPC   NC344207  41.404  19.288   5.434
 3374POPC   PO444208  41.877  18.764   5.479
 3374POPC   GL144209  41.689  19.019   5.801
 3374POPC   GL244210  41.325  18.948   5.837
 3374POPC   C1A44211  41.653  19.052   6.234
 3374POPC   D2A44212  41.475  19.219   6.589
 3374POPC   C3A44213  41.476  18.995   6.939
 3374POPC   C4A44214  41.803  18.951   7.205
 3374POPC   C1B44215  41.203  19.311   6.091
 3374POPC   C2B44216  41.124  19.546   6.476
 3374POPC   C3B44217  41.233  19.506   6.940
 3374POPC   C4B44218  41.186  19.220   7.302
 3375POPC   NC344219  20.930  10.920   5.463
 3375POPC   PO444220  21.121  11.600   5.409
 3375POPC   GL144221  21.356  11.486   5.787
 3375POPC   GL244222  21.255  11.134   5.817
 3375POPC   C1A44223  21.489  11.366   6.218
 3375POPC   D2A44224  21.315  11.475   6.621
 3375POPC   C3A44225  21.548  11.328   6.978
 3375POPC   C4A44226  21.461  11.402   7.417
 3375POPC   C1B44227  21.032  11.120   6.201
 3375POPC   C2B44228  21.123  10.975   6.599
 3375POPC   C3B44229  21.068  11.159   6.970
 3375POPC   C4B44230  21.056  10.983   7.314
 3376POPC   NC344231   7.871  33.551   5.532
 3376POPC   PO444232   7.203  33.951   5.468
 3376POPC   GL144233   7.212  34.000   5.897
 3376POPC   GL244234   7.564  34.095   5.854
 3376POPC   C1A44235   7.220  33.714   6.289
 3376POPC   D2A44236   7.591  33.485   6.575
 3376POPC   C3A44237   7.532  33.502   7.043
 3376POPC   C4A44238   7.245  33.797   7.261
 3376POPC   C1B44239   7.532  34.116   6.299
 3376POPC   C2B44240   7.429  33.944   6.706
 3376POPC   C3B44241   7.677  33.995   7.062
 3376POPC   C4B44242   7.560  34.209   7.430
 3377POPC   NC344243  44.387  24.067   5.540
 3377POPC   PO444244  44.325  23.489   5.177
 3377POPC   GL144245  44.574  23.580   5.612
 3377POPC   GL244246  44.850  23.835   5.643
 3377POPC   C1A44247  44.585  23.676   6.084
 3377POPC   D2A44248  44.532  23.626   6.556
 3377POPC   C3A44249  44.872  23.465   6.855
 3377POPC   C4A44250  44.755  23.415   7.292
 3377POPC   C1B44251  44.899  24.108   6.043
 3377POPC   C2B44252   0.027  24.111   6.486
 3377POPC   C3B44253  44.816  23.980   6.907
 3377POPC   C4B44254  44.826  24.140   7.328
 3378POPC   NC344255  30.333  38.114   5.345
 3378POPC   PO444256  30.954  38.296   5.512
 3378POPC   GL144257  30.726  38.444   5.852
 3378POPC   GL244258  30.386  38.389   5.787
 3378POPC   C1A44259  30.737  38.448   6.295
 3378POPC   D2A44260  30.976  38.277   6.575
 3378POPC   C3A44261  30.874  38.449   6.949
 3378POPC   C4A44262  31.080  38.605   7.286
 3378POPC   C1B44263  30.343  38.165   6.175
 3378POPC   C2B44264  30.316  38.358   6.570
 3378POPC   C3B44265  30.335  38.245   6.990
 3378POPC   C4B44266  30.547  38.311   7.337
 3379POPC   NC344267  40.465  44.863   5.442
 3379POPC   PO444268  41.137  44.729   5.255
 3379POPC   GL144269  40.926  44.770   5.671
 3379POPC   GL244270  40.673  44.511   5.763
 3379POPC   C1A44271  40.857  44.844   6.135
 3379POPC   D2A44272  40.903  44.616   6.534
 3379POPC   C3A44273  40.815  44.841   6.926
 3379POPC   C4A44274  41.053  44.583   7.203
 3379POPC   C1B44275  40.581  44.337   6.158
 3379POPC   C2B44276  40.410  44.401   6.547
 3379POPC   C3B44277  40.572  44.403   6.939
 3379POPC   C4B44278  40.532  44.603   7.351
 3380POPC   NC344279  21.877  10.738   5.476
 3380POPC   PO444280  22.447  10.294   5.430
 3380POPC   GL144281  22.270  10.511   5.821
 3380POPC   GL244282  22.031  10.806   5.967
 3380POPC   C1A44283  22.121  10.373   6.227
 3380POPC   D2A44284  22.243  10.110   6.561
 3380POPC   C3A44285  22.312  10.361   6.907
 3380POPC   C4A44286  22.117  10.328   7.292
 3380POPC   C1B44287  22.428  10.806   6.224
 3380POPC   C2B44288  22.652  10.602   6.575
 3380POPC   C3B44289  22.571  10.804   6.971
 3380POPC   C4B44290  22.275  10.800   7.292
 3381POPC   NC344291  20.035   2.343   5.232
 3381POPC   PO444292  20.159   1.803   5.512
 3381POPC   GL144293  19.904   2.068   5.803
 3381POPC   GL244294  19.647   2.375   5.838
 3381POPC   C1A44295  19.770   2.026   6.231
 3381POPC   D2A44296  19.703   1.742   6.575
 3381POPC   C3A44297  19.779   1.936   6.933
 3381POPC   C4A44298  19.544   1.791   7.244
 3381POPC   C1B44299  19.456   2.429   6.280
 3381POPC   C2B44300  19.624   2.493   6.730
 3381POPC   C3B44301  19.538   2.330   7.137
 3381POPC   C4B44302  19.402   2.190   7.552
 3382POPC   NC344303   6.215  39.407   5.340
 3382POPC   PO444304   5.512  39.234   5.308
 3382POPC   GL144305   5.757  39.370   5.687
 3382POPC   GL244306   5.703  39.717   5.770
 3382POPC   C1A44307   5.919  39.251   6.116
 3382POPC   D2A44308   5.699  39.213   6.527
 3382POPC   C3A44309   5.965  39.203   6.894
 3382POPC   C4A44310   6.040  39.131   7.331
 3382POPC   C1B44311   6.046  39.742   6.084
 3382POPC   C2B44312   6.172  39.577   6.475
 3382POPC   C3B44313   6.198  39.659   6.914
 3382POPC   C4B44314   5.886  39.617   7.227
 3383POPC   NC344315   3.794  16.577   5.438
 3383POPC   PO444316   3.146  16.571   5.345
 3383POPC   GL144317   3.420  16.642   5.754
 3383POPC   GL244318   3.619  16.964   5.784
 3383POPC   C1A44319   3.604  16.586   6.162
 3383POPC   D2A44320   3.418  16.534   6.559
 3383POPC   C3A44321   3.674  16.555   6.917
 3383POPC   C4A44322   3.410  16.604   7.251
 3383POPC   C1B44323   3.506  17.092   6.224
 3383POPC   C2B44324   3.551  17.008   6.689
 3383POPC   C3B44325   3.482  17.108   7.141
 3383POPC   C4B44326   3.553  17.211   7.607
 3384POPC   NC344327   3.647  36.379   5.386
 3384POPC   PO444328   3.488  35.760   5.586
 3384POPC   GL144329   3.580  36.051   5.886
 3384POPC   GL244330   3.420  36.377   5.858
 3384POPC   C1A44331   3.424  35.958   6.288
 3384POPC   D2A44332   3.639  35.989   6.654
 3384POPC   C3A44333   3.365  35.995   6.977
 3384POPC   C4A44334   3.526  36.066   7.347
 3384POPC   C1B44335   3.605  36.436   6.275
 3384POPC   C2B44336   3.774  36.478   6.739
 3384POPC   C3B44337   3.715  36.549   7.193
 3384POPC   C4B44338   3.478  36.495   7.612
 3385POPC   NC344339  43.590  28.404   5.441
 3385POPC   PO444340  44.240  28.497   5.655
 3385POPC   GL144341  43.986  28.592   5.996
 3385POPC   GL244342  43.651  28.650   5.882
 3385POPC   C1A44343  43.879  28.640   6.447
 3385POPC   D2A44344  43.958  28.406   6.839
 3385POPC   C3A44345  43.982  28.619   7.223
 3385POPC   C4A44346  44.020  28.416   7.598
 3385POPC   C1B44347  43.493  28.347   6.198
 3385POPC   C2B44348  43.435  28.464   6.648
 3385POPC   C3B44349  43.509  28.457   7.107
 3385POPC   C4B44350  43.558  28.276   7.511
 3386POPC   NC344351  25.954  18.475   5.176
 3386POPC   PO444352  25.874  17.837   5.169
 3386POPC   GL144353  26.049  18.010   5.599
 3386POPC   GL244354  26.175  18.365   5.658
 3386POPC   C1A44355  26.201  18.036   6.062
 3386POPC   D2A44356  26.102  18.251   6.458
 3386POPC   C3A44357  25.949  18.053   6.823
 3386POPC   C4A44358  26.060  18.057   7.244
 3386POPC   C1B44359  26.205  18.583   6.072
 3386POPC   C2B44360  26.116  18.780   6.479
 3386POPC   C3B44361  26.162  18.571   6.895
 3386POPC   C4B44362  26.151  18.561   7.352
 3387POPC   NC344363  21.179   1.148   5.473
 3387POPC   PO444364  21.241   1.791   5.600
 3387POPC   GL144365  21.379   1.461   5.885
 3387POPC   GL244366  21.632   1.228   5.782
 3387POPC   C1A44367  21.331   1.329   6.322
 3387POPC   D2A44368  21.231   1.124   6.703
 3387POPC   C3A44369  21.097   1.320   7.105
 3387POPC   C4A44370  20.951   1.176   7.551
 3387POPC   C1B44371  21.828   1.304   6.198
 3387POPC   C2B44372  21.751   1.069   6.621
 3387POPC   C3B44373  21.590   1.091   7.070
 3387POPC   C4B44374  21.457   1.268   7.470
 3388POPC   NC344375  43.864  33.399   5.548
 3388POPC   PO444376  44.267  32.902   5.330
 3388POPC   GL144377  43.963  32.901   5.692
 3388POPC   GL244378  43.599  33.039   5.734
 3388POPC   C1A44379  44.032  33.037   6.100
 3388POPC   D2A44380  43.881  33.051   6.517
 3388POPC   C3A44381  44.028  33.227   6.894
 3388POPC   C4A44382  44.114  33.123   7.325
 3388POPC   C1B44383  43.607  33.326   6.142
 3388POPC   C2B44384  43.497  33.383   6.593
 3388POPC   C3B44385  43.519  33.319   7.003
 3388POPC   C4B44386  43.601  33.054   7.334
 3389POPC   NC344387  36.883  18.127   5.400
 3389POPC   PO444388  36.728  18.707   5.659
 3389POPC   GL144389  37.007  18.328   5.852
 3389POPC   GL244390  36.851  17.972   5.877
 3389POPC   C1A44391  37.145  18.125   6.266
 3389POPC   D2A44392  36.958  18.177   6.734
 3389POPC   C3A44393  37.170  18.204   7.170
 3389POPC   C4A44394  37.172  18.324   7.631
 3389POPC   C1B44395  36.656  17.938   6.293
 3389POPC   C2B44396  36.571  17.792   6.719
 3389POPC   C3B44397  36.543  18.099   7.068
 3389POPC   C4B44398  36.719  18.180   7.471
 3390POPC   NC344399  36.897  11.784   5.394
 3390POPC   PO444400  37.213  12.338   5.542
 3390POPC   GL144401  36.936  12.087   5.842
 3390POPC   GL244402  37.008  11.711   5.869
 3390POPC   C1A44403  36.761  12.228   6.263
 3390POPC   D2A44404  36.882  12.450   6.649
 3390POPC   C3A44405  37.073  12.266   7.001
 3390POPC   C4A44406  36.744  12.092   7.246
 3390POPC   C1B44407  36.979  11.752   6.276
 3390POPC   C2B44408  36.910  11.914   6.669
 3390POPC   C3B44409  36.730  11.657   6.961
 3390POPC   C4B44410  36.480  11.533   7.278
 3391POPC   NC344411  27.145  32.177   5.574
 3391POPC   PO444412  26.510  31.921   5.425
 3391POPC   GL144413  26.661  32.041   5.869
 3391POPC   GL244414  26.734  32.378   5.925
 3391POPC   C1A44415  26.671  32.045   6.341
 3391POPC   D2A44416  26.534  32.286   6.697
 3391POPC   C3A44417  26.620  32.275   7.138
 3391POPC   C4A44418  26.422  32.409   7.552
 3391POPC   C1B44419  26.871  32.524   6.370
 3391POPC   C2B44420  26.873  32.666   6.831
 3391POPC   C3B44421  27.098  32.521   7.230
 3391POPC   C4B44422  27.317  32.304   7.615
 3392POPC   NC344423  33.320  35.866   5.764
 3392POPC   PO444424  32.832  36.208   5.391
 3392POPC   GL144425  32.932  36.200   5.825
 3392POPC   GL244426  32.845  35.845   5.937
 3392POPC   C1A44427  33.036  36.388   6.221
 3392POPC   D2A44428  32.805  36.411   6.609
 3392POPC   C3A44429  33.046  36.536   6.971
 3392POPC   C4A44430  32.994  36.322   7.353
 3392POPC   C1B44431  33.052  35.891   6.371
 3392POPC   C2B44432  33.291  36.210   6.647
 3392POPC   C3B44433  33.363  36.075   7.072
 3392POPC   C4B44434  33.121  35.713   7.164
 3393POPC   NC344435   0.197  36.090   5.381
 3393POPC   PO444436  44.572  35.901   5.377
 3393POPC   GL144437  44.686  36.228   5.667
 3393POPC   GL244438  44.887  35.992   5.896
 3393POPC   C1A44439  44.637  36.427   6.084
 3393POPC   D2A44440  44.554  36.201   6.500
 3393POPC   C3A44441  44.606  36.377   6.922
 3393POPC   C4A44442  44.460  36.284   7.353
 3393POPC   C1B44443  44.651  35.646   6.158
 3393POPC   C2B44444  44.671  35.519   6.612
 3393POPC   C3B44445  44.660  35.851   6.912
 3393POPC   C4B44446  44.912  36.038   7.209
 3394POPC   NC344447  27.972  17.100   5.633
 3394POPC   PO444448  27.634  16.528   5.412
 3394POPC   GL144449  27.481  16.708   5.810
 3394POPC   GL244450  27.570  17.018   6.011
 3394POPC   C1A44451  27.408  16.594   6.235
 3394POPC   D2A44452  27.478  16.856   6.539
 3394POPC   C3A44453  27.620  16.760   6.897
 3394POPC   C4A44454  27.440  16.543   7.199
 3394POPC   C1B44455  27.917  16.910   6.268
 3394POPC   C2B44456  28.070  16.900   6.684
 3394POPC   C3B44457  28.002  17.126   7.075
 3394POPC   C4B44458  27.649  17.018   7.347
 3395POPC   NC344459   3.312   0.206   5.503
 3395POPC   PO444460   3.739   0.562   5.270
 3395POPC   GL144461   3.611   0.542   5.754
 3395POPC   GL244462   3.658   0.223   5.875
 3395POPC   C1A44463   3.506   0.636   6.226
 3395POPC   D2A44464   3.350   0.795   6.661
 3395POPC   C3A44465   3.279   0.502   6.969
 3395POPC   C4A44466   3.160   0.188   7.247
 3395POPC   C1B44467   3.958   0.369   6.174
 3395POPC   C2B44468   4.000   0.332   6.590
 3395POPC   C3B44469   3.827   0.455   6.944
 3395POPC   C4B44470   3.640   0.440   7.330
 3396POPC   NC344471  39.369  18.787   5.553
 3396POPC   PO444472  38.980  19.219   5.505
 3396POPC   GL144473  39.159  19.106   5.899
 3396POPC   GL244474  39.507  18.952   6.011
 3396POPC   C1A44475  39.062  19.009   6.293
 3396POPC   D2A44476  39.144  19.269   6.621
 3396POPC   C3A44477  39.093  18.997   6.932
 3396POPC   C4A44478  39.044  18.711   7.225
 3396POPC   C1B44479  39.488  19.355   6.231
 3396POPC   C2B44480  39.603  19.527   6.639
 3396POPC   C3B44481  39.476  19.354   7.025
 3396POPC   C4B44482  39.531  18.931   7.246
 3397POPC   NC344483   2.660  34.762   5.108
 3397POPC   PO444484   3.051  34.319   5.522
 3397POPC   GL144485   2.789  34.420   5.835
 3397POPC   GL244486   2.542  34.655   5.645
 3397POPC   C1A44487   2.781  34.411   6.291
 3397POPC   D2A44488   2.517  34.303   6.624
 3397POPC   C3A44489   2.710  34.355   7.032
 3397POPC   C4A44490   2.929  34.401   7.415
 3397POPC   C1B44491   2.657  34.870   6.042
 3397POPC   C2B44492   2.980  34.883   6.371
 3397POPC   C3B44493   2.755  34.780   6.737
 3397POPC   C4B44494   2.660  34.846   7.165
 3398POPC   NC344495  44.874  43.560   5.532
 3398POPC   PO444496  44.542  44.172   5.269
 3398POPC   GL144497  44.611  44.090   5.715
 3398POPC   GL244498  44.957  44.167   5.714
 3398POPC   C1A44499  44.539  44.166   6.177
 3398POPC   D2A44500  44.343  44.093   6.600
 3398POPC   C3A44501  44.577  44.179   6.983
 3398POPC   C4A44502  44.933  44.137   7.311
 3398POPC   C1B44503  44.975  43.930   6.112
 3398POPC   C2B44504  44.951  43.937   6.574
 3398POPC   C3B44505  44.838  43.753   6.982
 3398POPC   C4B44506  44.756  43.539   7.355
 3399POPC   NC344507  25.822   1.010   5.076
 3399POPC   PO444508  25.987   0.447   5.427
 3399POPC   GL144509  26.075   0.730   5.760
 3399POPC   GL244510  25.776   0.719   5.985
 3399POPC   C1A44511  26.334   0.871   6.126
 3399POPC   D2A44512  26.555   0.696   6.510
 3399POPC   C3A44513  26.299   0.570   6.924
 3399POPC   C4A44514  26.137   0.181   7.143
 3399POPC   C1B44515  25.519   0.322   6.104
 3399POPC   C2B44516  25.446   0.134   6.508
 3399POPC   C3B44517  25.683   0.139   6.899
 3399POPC   C4B44518  25.610   0.280   7.309
 3400POPC   NC344519  13.018  31.575   4.996
 3400POPC   PO444520  12.814  31.811   5.575
 3400POPC   GL144521  12.876  31.550   5.927
 3400POPC   GL244522  12.535  31.426   5.881
 3400POPC   C1A44523  13.009  31.656   6.385
 3400POPC   D2A44524  13.074  31.664   6.837
 3400POPC   C3A44525  13.057  31.400   7.217
 3400POPC   C4A44526  13.067  30.978   7.454
 3400POPC   C1B44527  12.513  31.432   6.317
 3400POPC   C2B44528  12.305  31.380   6.723
 3400POPC   C3B44529  12.555  31.391   7.103
 3400POPC   C4B44530  12.667  31.327   7.536
 3401POPC   NC344531  41.700  20.194   5.515
 3401POPC   PO444532  41.756  19.523   5.269
 3401POPC   GL144533  41.514  19.670   5.740
 3401POPC   GL244534  41.645  19.951   5.935
 3401POPC   C1A44535  41.613  19.563   6.239
 3401POPC   D2A44536  41.637  19.734   6.635
 3401POPC   C3A44537  41.735  19.469   6.987
 3401POPC   C4A44538  41.583  19.791   7.253
 3401POPC   C1B44539  41.286  19.938   6.169
 3401POPC   C2B44540  41.203  20.032   6.555
 3401POPC   C3B44541  41.270  20.036   6.937
 3401POPC   C4B44542  41.115  20.059   7.315
 3402POPC   NC344543   3.793  11.952   5.569
 3402POPC   PO444544   4.443  11.822   5.293
 3402POPC   GL144545   4.306  11.941   5.769
 3402POPC   GL244546   4.182  12.284   5.862
 3402POPC   C1A44547   4.145  11.949   6.254
 3402POPC   D2A44548   3.974  12.183   6.655
 3402POPC   C3A44549   3.942  11.944   7.052
 3402POPC   C4A44550   4.332  11.715   7.113
 3402POPC   C1B44551   4.211  12.479   6.297
 3402POPC   C2B44552   4.327  12.576   6.721
 3402POPC   C3B44553   4.144  12.417   7.111
 3402POPC   C4B44554   3.957  12.303   7.515
 3403POPC   NC344555  23.495   2.718   5.536
 3403POPC   PO444556  24.154   2.432   5.343
 3403POPC   GL144557  24.037   2.639   5.751
 3403POPC   GL244558  23.854   2.389   5.870
 3403POPC   C1A44559  23.729   2.832   6.122
 3403POPC   D2A44560  23.525   2.981   6.514
 3403POPC   C3A44561  23.536   2.822   6.940
 3403POPC   C4A44562  23.354   2.447   7.128
 3403POPC   C1B44563  24.083   2.515   6.276
 3403POPC   C2B44564  23.913   2.512   6.700
 3403POPC   C3B44565  23.860   2.467   7.137
 3403POPC   C4B44566  24.041   2.746   7.427
 3404POPC   NC344567  27.936   6.761   5.417
 3404POPC   PO444568  27.524   6.260   5.359
 3404POPC   GL144569  27.775   6.392   5.746
 3404POPC   GL244570  27.616   6.727   5.818
 3404POPC   C1A44571  27.844   6.517   6.213
 3404POPC   D2A44572  27.832   6.779   6.599
 3404POPC   C3A44573  27.777   6.748   7.064
 3404POPC   C4A44574  27.841   7.148   7.317
 3404POPC   C1B44575  27.373   6.756   6.215
 3404POPC   C2B44576  27.324   6.719   6.664
 3404POPC   C3B44577  27.445   7.088   6.886
 3404POPC   C4B44578  27.353   7.287   7.258
 3405POPC   NC344579  10.034  28.922   5.379
 3405POPC   PO444580   9.369  28.946   5.487
 3405POPC   GL144581   9.577  29.020   5.882
 3405POPC   GL244582   9.942  29.111   5.941
 3405POPC   C1A44583   9.626  29.084   6.339
 3405POPC   D2A44584   9.850  28.993   6.718
 3405POPC   C3A44585   9.538  28.930   7.056
 3405POPC   C4A44586   9.581  29.305   7.281
 3405POPC   C1B44587  10.089  29.328   6.368
 3405POPC   C2B44588  10.245  29.427   6.800
 3405POPC   C3B44589  10.022  29.558   7.204
 3405POPC   C4B44590   9.882  29.557   7.651
 3406POPC   NC344591  27.681   2.584   5.514
 3406POPC   PO444592  28.019   3.245   5.410
 3406POPC   GL144593  27.747   3.058   5.772
 3406POPC   GL244594  27.931   2.821   5.969
 3406POPC   C1A44595  27.404   2.977   6.151
 3406POPC   D2A44596  27.218   2.701   6.489
 3406POPC   C3A44597  27.365   2.697   6.914
 3406POPC   C4A44598  27.360   2.882   7.333
 3406POPC   C1B44599  27.848   3.160   6.265
 3406POPC   C2B44600  27.633   3.087   6.642
 3406POPC   C3B44601  27.760   2.989   7.054
 3406POPC   C4B44602  27.820   2.983   7.554
 3407POPC   NC344603  33.329   7.890   5.509
 3407POPC   PO444604  33.910   8.249   5.409
 3407POPC   GL144605  33.866   8.293   5.864
 3407POPC   GL244606  33.551   8.088   5.942
 3407POPC   C1A44607  33.710   8.504   6.253
 3407POPC   D2A44608  33.606   8.422   6.691
 3407POPC   C3A44609  33.769   8.632   7.017
 3407POPC   C4A44610  34.199   8.604   7.160
 3407POPC   C1B44611  33.609   7.999   6.383
 3407POPC   C2B44612  33.905   7.920   6.722
 3407POPC   C3B44613  33.855   8.139   7.073
 3407POPC   C4B44614  33.458   8.232   7.219
 3408POPC   NC344615  14.015  24.276   5.325
 3408POPC   PO444616  13.466  24.657   5.471
 3408POPC   GL144617  13.469  24.456   5.865
 3408POPC   GL244618  13.811  24.432   5.775
 3408POPC   C1A44619  13.615  24.477   6.299
 3408POPC   D2A44620  13.564  24.704   6.696
 3408POPC   C3A44621  13.448  24.376   7.007
 3408POPC   C4A44622  13.273  24.273   7.375
 3408POPC   C1B44623  14.075  24.595   6.081
 3408POPC   C2B44624  14.088  24.562   6.521
 3408POPC   C3B44625  13.931  24.433   6.914
 3408POPC   C4B44626  13.807  24.634   7.321
 3409POPC   NC344627  42.317  16.971   5.530
 3409POPC   PO444628  42.470  16.346   5.424
 3409POPC   GL144629  42.272  16.564   5.843
 3409POPC   GL244630  41.928  16.655   5.805
 3409POPC   C1A44631  42.152  16.921   6.203
 3409POPC   D2A44632  42.173  17.126   6.653
 3409POPC   C3A44633  42.472  16.911   6.904
 3409POPC   C4A44634  42.512  16.632   7.229
 3409POPC   C1B44635  41.910  16.467   6.229
 3409POPC   C2B44636  42.005  16.620   6.664
 3409POPC   C3B44637  42.008  16.713   7.123
 3409POPC   C4B44638  41.843  16.458   7.485
 3410POPC   NC344639  22.489  13.673   5.339
 3410POPC   PO444640  23.079  13.370   5.319
 3410POPC   GL144641  22.964  13.418   5.766
 3410POPC   GL244642  22.886  13.779   5.869
 3410POPC   C1A44643  22.871  13.324   6.200
 3410POPC   D2A44644  22.891  13.200   6.619
 3410POPC   C3A44645  22.596  13.334   6.924
 3410POPC   C4A44646  22.744  13.668   7.175
 3410POPC   C1B44647  23.099  13.784   6.295
 3410POPC   C2B44648  23.102  13.652   6.756
 3410POPC   C3B44649  23.239  13.823   7.153
 3410POPC   C4B44650  23.052  14.162   7.436
 3411POPC   NC344651  36.758  17.370   5.451
 3411POPC   PO444652  37.217  17.818   5.505
 3411POPC   GL144653  37.072  17.515   5.820
 3411POPC   GL244654  37.155  17.176   5.773
 3411POPC   C1A44655  36.909  17.506   6.232
 3411POPC   D2A44656  37.111  17.717   6.588
 3411POPC   C3A44657  37.003  17.736   7.021
 3411POPC   C4A44658  36.655  17.653   7.265
 3411POPC   C1B44659  37.302  17.194   6.193
 3411POPC   C2B44660  37.067  17.207   6.622
 3411POPC   C3B44661  36.947  17.227   7.049
 3411POPC   C4B44662  37.273  17.334   7.338
 3412POPC   NC344663   7.616  41.449   5.593
 3412POPC   PO444664   6.981  41.606   5.637
 3412POPC   GL144665   7.199  41.487   5.942
 3412POPC   GL244666   7.420  41.748   5.942
 3412POPC   C1A44667   7.203  41.610   6.361
 3412POPC   D2A44668   7.333  41.409   6.676
 3412POPC   C3A44669   7.326  41.730   6.916
 3412POPC   C4A44670   7.077  41.549   7.222
 3412POPC   C1B44671   7.647  41.398   6.223
 3412POPC   C2B44672   7.775  41.186   6.600
 3412POPC   C3B44673   7.733  41.354   7.020
 3412POPC   C4B44674   7.593  41.690   7.322
 3413POPC   NC344675   0.155   6.183   5.698
 3413POPC   PO444676  44.670   6.027   5.239
 3413POPC   GL144677  44.489   6.010   5.788
 3413POPC   GL244678  44.784   6.126   6.001
 3413POPC   C1A44679  44.567   5.799   6.281
 3413POPC   D2A44680  44.517   5.607   6.687
 3413POPC   C3A44681  44.825   5.651   7.009
 3413POPC   C4A44682  44.508   5.605   7.318
 3413POPC   C1B44683  44.944   6.271   6.386
 3413POPC   C2B44684  44.735   6.089   6.713
 3413POPC   C3B44685  44.636   6.140   7.131
 3413POPC   C4B44686  44.988   6.266   7.412
 3414POPC   NC344687  42.114  24.092   5.483
 3414POPC   PO444688  42.312  24.745   5.461
 3414POPC   GL144689  42.084  24.517   5.778
 3414POPC   GL244690  42.157  24.727   6.033
 3414POPC   C1A44691  41.981  24.313   6.210
 3414POPC   D2A44692  42.203  24.510   6.574
 3414POPC   C3A44693  42.077  24.461   7.026
 3414POPC   C4A44694  42.178  24.312   7.459
 3414POPC   C1B44695  42.494  24.438   6.123
 3414POPC   C2B44696  42.719  24.400   6.516
 3414POPC   C3B44697  42.573  24.267   6.933
 3414POPC   C4B44698  42.548  24.584   7.252
 3415POPC   NC344699  32.011  44.990   5.656
 3415POPC   PO444700  31.496  44.656   5.315
 3415POPC   GL144701  31.628  44.648   5.752
 3415POPC   GL244702  31.316  44.655   5.837
 3415POPC   C1A44703  31.632  44.851   6.204
 3415POPC   D2A44704  31.524  44.952   6.657
 3415POPC   C3A44705  31.681  44.680   7.002
 3415POPC   C4A44706  31.658  44.659   7.468
 3415POPC   C1B44707  31.166  44.413   6.191
 3415POPC   C2B44708  31.239  44.518   6.604
 3415POPC   C3B44709  31.166  44.658   7.009
 3415POPC   C4B44710  31.263  44.356   7.334
 3416POPC   NC344711  44.441  28.101   5.522
 3416POPC   PO444712  44.643  28.683   5.299
 3416POPC   GL144713  44.772  28.465   5.734
 3416POPC   GL244714  44.564  28.547   6.029
 3416POPC   C1A44715  44.778  28.125   6.111
 3416POPC   D2A44716  44.739  28.320   6.539
 3416POPC   C3A44717  44.680  28.094   6.947
 3416POPC   C4A44718  44.378  28.262   7.233
 3416POPC   C1B44719  44.934  28.721   6.244
 3416POPC   C2B44720   0.127  28.819   6.653
 3416POPC   C3B44721  44.927  28.571   6.977
 3416POPC   C4B44722  44.960  28.449   7.411
 3417POPC   NC344723   9.540   5.014   5.620
 3417POPC   PO444724   9.707   5.482   5.151
 3417POPC   GL144725   9.848   5.432   5.616
 3417POPC   GL244726   9.984   5.217   5.805
 3417POPC   C1A44727   9.713   5.473   6.123
 3417POPC   D2A44728   9.905   5.476   6.556
 3417POPC   C3A44729   9.723   5.365   6.934
 3417POPC   C4A44730   9.711   4.988   7.090
 3417POPC   C1B44731  10.049   5.073   6.236
 3417POPC   C2B44732  10.295   5.086   6.623
 3417POPC   C3B44733  10.208   5.132   7.050
 3417POPC   C4B44734  10.132   4.741   7.218
 3418POPC   NC344735  23.223  22.630   5.370
 3418POPC   PO444736  22.727  23.083   5.409
 3418POPC   GL144737  22.905  23.063   5.791
 3418POPC   GL244738  22.946  22.719   5.802
 3418POPC   C1A44739  22.765  23.058   6.217
 3418POPC   D2A44740  22.913  22.932   6.620
 3418POPC   C3A44741  22.840  23.176   6.971
 3418POPC   C4A44742  22.656  23.139   7.404
 3418POPC   C1B44743  22.884  22.559   6.232
 3418POPC   C2B44744  22.813  22.451   6.682
 3418POPC   C3B44745  22.790  22.687   7.106
 3418POPC   C4B44746  23.075  22.841   7.431
 3419POPC   NC344747  41.928  10.921   5.460
 3419POPC   PO444748  41.471  11.492   5.310
 3419POPC   GL144749  41.510  11.212   5.691
 3419POPC   GL244750  41.810  11.289   5.812
 3419POPC   C1A44751  41.455  11.153   6.170
 3419POPC   D2A44752  41.192  11.272   6.554
 3419POPC   C3A44753  41.338  11.128   6.964
 3419POPC   C4A44754  41.681  11.240   7.164
 3419POPC   C1B44755  41.869  11.549   6.163
 3419POPC   C2B44756  42.006  11.437   6.572
 3419POPC   C3B44757  41.908  11.635   6.937
 3419POPC   C4B44758  41.710  11.721   7.287
 3420POPC   NC344759  38.677  25.620   5.434
 3420POPC   PO444760  38.364  24.980   5.356
 3420POPC   GL144761  38.415  25.283   5.732
 3420POPC   GL244762  38.740  25.300   5.868
 3420POPC   C1A44763  38.364  25.444   6.176
 3420POPC   D2A44764  38.581  25.298   6.566
 3420POPC   C3A44765  38.382  25.330   7.023
 3420POPC   C4A44766  38.416  25.378   7.530
 3420POPC   C1B44767  38.793  24.954   6.140
 3420POPC   C2B44768  38.911  24.876   6.551
 3420POPC   C3B44769  38.760  24.990   6.927
 3420POPC   C4B44770  38.937  25.059   7.287
 3421POPC   NC344771   6.876  19.714   5.480
 3421POPC   PO444772   6.257  20.076   5.491
 3421POPC   GL144773   6.596  19.993   5.830
 3421POPC   GL244774   6.943  20.115   5.799
 3421POPC   C1A44775   6.570  19.725   6.229
 3421POPC   D2A44776   6.583  19.969   6.626
 3421POPC   C3A44777   6.540  19.724   6.984
 3421POPC   C4A44778   6.407  19.486   7.337
 3421POPC   C1B44779   7.054  19.815   6.144
 3421POPC   C2B44780   6.989  19.643   6.561
 3421POPC   C3B44781   7.041  19.823   6.967
 3421POPC   C4B44782   6.855  19.778   7.387
 3422POPC   NC344783  40.770   7.751   5.374
 3422POPC   PO444784  40.586   7.051   5.353
 3422POPC   GL144785  40.577   7.325   5.698
 3422POPC   GL244786  40.876   7.366   5.844
 3422POPC   C1A44787  40.497   7.323   6.181
 3422POPC   D2A44788  40.681   7.208   6.605
 3422POPC   C3A44789  40.733   7.435   6.996
 3422POPC   C4A44790  40.559   7.290   7.398
 3422POPC   C1B44791  40.935   7.563   6.266
 3422POPC   C2B44792  41.144   7.495   6.659
 3422POPC   C3B44793  41.238   7.326   7.068
 3422POPC   C4B44794  41.026   7.519   7.408
 3423POPC   NC344795  12.705  40.831   5.101
 3423POPC   PO444796  13.122  40.346   5.124
 3423POPC   GL144797  12.956  40.691   5.635
 3423POPC   GL244798  12.688  40.876   5.893
 3423POPC   C1A44799  12.957  40.583   6.164
 3423POPC   D2A44800  13.117  40.700   6.613
 3423POPC   C3A44801  12.893  40.603   7.022
 3423POPC   C4A44802  13.098  40.662   7.402
 3423POPC   C1B44803  12.822  41.091   6.287
 3423POPC   C2B44804  13.042  41.243   6.638
 3423POPC   C3B44805  13.128  41.069   7.025
 3423POPC   C4B44806  12.769  41.058   7.290
 3424POPC   NC344807  11.912  35.902   5.487
 3424POPC   PO444808  12.349  36.416   5.442
 3424POPC   GL144809  12.240  36.212   5.796
 3424POPC   GL244810  12.333  35.852   5.786
 3424POPC   C1A44811  12.022  36.411   6.121
 3424POPC   D2A44812  11.959  36.262   6.515
 3424POPC   C3A44813  12.057  36.432   6.905
 3424POPC   C4A44814  12.027  36.256   7.330
 3424POPC   C1B44815  12.293  35.942   6.239
 3424POPC   C2B44816  12.378  35.998   6.682
 3424POPC   C3B44817  12.266  35.857   7.093
 3424POPC   C4B44818  12.332  35.833   7.531
 3425POPC   NC344819  31.953  13.027   5.536
 3425POPC   PO444820  32.378  12.633   5.340
 3425POPC   GL144821  32.231  12.596   5.795
 3425POPC   GL244822  32.485  12.848   5.870
 3425POPC   C1A44823  32.207  12.742   6.276
 3425POPC   D2A44824  32.350  12.941   6.661
 3425POPC   C3A44825  32.109  13.207   6.916
 3425POPC   C4A44826  31.975  13.066   7.318
 3425POPC   C1B44827  32.718  12.711   6.255
 3425POPC   C2B44828  32.549  12.473   6.619
 3425POPC   C3B44829  32.467  12.600   7.048
 3425POPC   C4B44830  32.486  13.010   7.253
 3426POPC   NC344831  15.944  23.957   5.389
 3426POPC   PO444832  15.692  23.344   5.487
 3426POPC   GL144833  15.989  23.623   5.771
 3426POPC   GL244834  15.773  23.909   5.872
 3426POPC   C1A44835  16.179  23.799   6.174
 3426POPC   D2A44836  16.082  23.659   6.616
 3426POPC   C3A44837  16.249  23.879   6.984
 3426POPC   C4A44838  16.046  24.085   7.345
 3426POPC   C1B44839  15.691  23.597   6.209
 3426POPC   C2B44840  15.542  23.738   6.605
 3426POPC   C3B44841  15.707  23.880   6.986
 3426POPC   C4B44842  15.695  23.701   7.390
 3427POPC   NC344843   6.762  34.070   5.559
 3427POPC   PO444844   6.242  33.687   5.416
 3427POPC   GL144845   6.472  33.719   5.813
 3427POPC   GL244846   6.674  33.428   5.727
 3427POPC   C1A44847   6.714  33.936   6.180
 3427POPC   D2A44848   6.733  34.177   6.558
 3427POPC   C3A44849   6.905  33.951   6.881
 3427POPC   C4A44850   6.720  33.907   7.259
 3427POPC   C1B44851   6.742  33.411   6.176
 3427POPC   C2B44852   6.718  33.589   6.568
 3427POPC   C3B44853   6.529  33.493   6.947
 3427POPC   C4B44854   6.696  33.377   7.320
 3428POPC   NC344855   8.610   8.290   5.420
 3428POPC   PO444856   9.129   7.972   5.242
 3428POPC   GL144857   9.011   8.098   5.721
 3428POPC   GL244858   8.672   8.044   5.861
 3428POPC   C1A44859   9.010   8.286   6.180
 3428POPC   D2A44860   9.170   8.124   6.589
 3428POPC   C3A44861   9.055   8.408   6.942
 3428POPC   C4A44862   9.175   8.492   7.360
 3428POPC   C1B44863   8.755   7.856   6.258
 3428POPC   C2B44864   8.641   7.737   6.656
 3428POPC   C3B44865   8.850   7.858   7.013
 3428POPC   C4B44866   8.658   7.865   7.400
 3429POPC   NC344867  14.954  34.783   5.293
 3429POPC   PO444868  15.217  34.217   5.391
 3429POPC   GL144869  15.126  34.534   5.736
 3429POPC   GL244870  15.269  34.883   5.723
 3429POPC   C1A44871  15.010  34.459   6.195
 3429POPC   D2A44872  14.834  34.525   6.635
 3429POPC   C3A44873  15.108  34.362   6.863
 3429POPC   C4A44874  15.295  34.375   7.244
 3429POPC   C1B44875  15.454  34.721   6.081
 3429POPC   C2B44876  15.371  34.702   6.507
 3429POPC   C3B44877  15.459  34.770   6.926
 3429POPC   C4B44878  15.360  34.858   7.340
 3430POPC   NC344879  11.495  38.151   5.455
 3430POPC   PO444880  10.827  38.398   5.402
 3430POPC   GL144881  11.120  38.373   5.748
 3430POPC   GL244882  11.107  38.749   5.774
 3430POPC   C1A44883  11.290  38.128   6.158
 3430POPC   D2A44884  11.591  38.105   6.542
 3430POPC   C3A44885  11.439  38.236   6.953
 3430POPC   C4A44886  11.488  38.623   7.168
 3430POPC   C1B44887  11.019  38.580   6.188
 3430POPC   C2B44888  11.282  38.546   6.533
 3430POPC   C3B44889  11.094  38.692   6.871
 3430POPC   C4B44890  10.970  38.738   7.293
 3431POPC   NC344891   0.632  34.026   5.140
 3431POPC   PO444892   0.553  34.710   5.250
 3431POPC   GL144893   0.484  34.689   5.754
 3431POPC   GL244894   0.265  34.951   5.915
 3431POPC   C1A44895   0.541  34.457   6.195
 3431POPC   D2A44896   0.607  34.183   6.608
 3431POPC   C3A44897   0.319  34.239   7.002
 3431POPC   C4A44898   0.323  34.432   7.447
 3431POPC   C1B44899   0.254  34.848   6.368
 3431POPC   C2B44900   0.529  34.677   6.691
 3431POPC   C3B44901   0.677  34.596   7.101
 3431POPC   C4B44902   0.601  34.859   7.459
 3432POPC   NC344903  40.127  22.727   5.313
 3432POPC   PO444904  39.624  23.116   5.332
 3432POPC   GL144905  39.811  23.102   5.748
 3432POPC   GL244906  40.176  23.188   5.757
 3432POPC   C1A44907  39.772  22.746   6.043
 3432POPC   D2A44908  39.807  22.534   6.444
 3432POPC   C3A44909  40.096  22.754   6.730
 3432POPC   C4A44910  39.986  22.848   7.148
 3432POPC   C1B44911  40.167  23.053   6.200
 3432POPC   C2B44912  39.943  23.205   6.573
 3432POPC   C3B44913  40.188  23.293   6.941
 3432POPC   C4B44914  40.267  23.223   7.355
 3433POPC   NC344915  30.381  20.766   5.536
 3433POPC   PO444916  29.753  20.494   5.493
 3433POPC   GL144917  30.002  20.585   5.869
 3433POPC   GL244918  30.339  20.427   5.908
 3433POPC   C1A44919  29.845  20.694   6.285
 3433POPC   D2A44920  29.731  20.947   6.651
 3433POPC   C3A44921  29.847  20.765   7.028
 3433POPC   C4A44922  29.837  20.569   7.414
 3433POPC   C1B44923  30.154  20.281   6.281
 3433POPC   C2B44924  29.953  20.371   6.672
 3433POPC   C3B44925  30.172  20.360   7.060
 3433POPC   C4B44926  30.116  20.141   7.441
 3434POPC   NC344927  23.142  17.426   5.508
 3434POPC   PO444928  23.535  17.911   5.664
 3434POPC   GL144929  23.150  17.701   5.952
 3434POPC   GL244930  22.850  17.423   5.912
 3434POPC   C1A44931  23.120  17.437   6.360
 3434POPC   D2A44932  23.126  17.172   6.750
 3434POPC   C3A44933  22.864  17.331   7.081
 3434POPC   C4A44934  22.923  17.655   7.434
 3434POPC   C1B44935  22.652  17.613   6.271
 3434POPC   C2B44936  22.788  17.697   6.712
 3434POPC   C3B44937  22.569  17.743   7.095
 3434POPC   C4B44938  22.479  17.431   7.426
 3435POPC   NC344939   1.763  44.905   5.491
 3435POPC   PO444940   2.133  44.384   5.436
 3435POPC   GL144941   2.120  44.630   5.804
 3435POPC   GL244942   2.107  44.999   5.860
 3435POPC   C1A44943   2.183  44.505   6.237
 3435POPC   D2A44944   2.343  44.806   6.525
 3435POPC   C3A44945   2.159  44.835   6.925
 3435POPC   C4A44946   2.180  44.491   7.216
 3435POPC   C1B44947   1.801  44.823   6.149
 3435POPC   C2B44948   1.745  44.876   6.580
 3435POPC   C3B44949   1.586  44.784   6.962
 3435POPC   C4B44950   1.792  44.801   7.323
 3436POPC   NC344951  10.443  16.665   5.439
 3436POPC   PO444952  10.962  16.989   5.188
 3436POPC   GL144953  10.660  16.948   5.763
 3436POPC   GL244954  10.595  16.580   5.928
 3436POPC   C1A44955  10.643  16.995   6.230
 3436POPC   D2A44956  10.546  16.700   6.563
 3436POPC   C3A44957  10.743  16.832   6.935
 3436POPC   C4A44958  10.914  16.591   7.261
 3436POPC   C1B44959  10.297  16.362   6.199
 3436POPC   C2B44960  10.060  16.437   6.557
 3436POPC   C3B44961  10.198  16.330   6.952
 3436POPC   C4B44962  10.410  16.565   7.220
 3437POPC   NC344963  14.387  10.801   5.355
 3437POPC   PO444964  14.529  10.134   5.456
 3437POPC   GL144965  14.564  10.489   5.743
 3437POPC   GL244966  14.235  10.550   5.774
 3437POPC   C1A44967  14.526  10.736   6.144
 3437POPC   D2A44968  14.619  10.663   6.533
 3437POPC   C3A44969  14.532  10.799   6.948
 3437POPC   C4A44970  14.523  10.568   7.316
 3437POPC   C1B44971  14.064  10.484   6.184
 3437POPC   C2B44972  14.084  10.684   6.584
 3437POPC   C3B44973  14.092  10.527   7.001
 3437POPC   C4B44974  13.882  10.729   7.312
 3438POPC   NC344975  34.789  23.413   5.162
 3438POPC   PO444976  34.356  23.842   5.503
 3438POPC   GL144977  34.631  23.562   5.768
 3438POPC   GL244978  34.940  23.746   5.825
 3438POPC   C1A44979  34.707  23.570   6.229
 3438POPC   D2A44980  34.526  23.825   6.531
 3438POPC   C3A44981  34.609  23.675   6.904
 3438POPC   C4A44982  34.422  23.795   7.265
 3438POPC   C1B44983  35.037  24.011   6.199
 3438POPC   C2B44984  35.037  23.844   6.636
 3438POPC   C3B44985  34.982  23.991   7.070
 3438POPC   C4B44986  34.932  23.719   7.428
 3439POPC   NC344987   4.118  17.417   5.428
 3439POPC   PO444988   4.776  17.266   5.372
 3439POPC   GL144989   4.673  17.192   5.812
 3439POPC   GL244990   4.306  17.269   5.899
 3439POPC   C1A44991   4.808  17.337   6.237
 3439POPC   D2A44992   4.977  17.481   6.630
 3439POPC   C3A44993   4.636  17.454   6.946
 3439POPC   C4A44994   4.398  17.194   7.199
 3439POPC   C1B44995   4.305  17.350   6.359
 3439POPC   C2B44996   4.157  17.411   6.784
 3439POPC   C3B44997   4.182  17.742   7.114
 3439POPC   C4B44998   3.815  18.037   7.118
 3440POPC   NC344999  31.258  22.513   5.306
 3440POPC   PO445000  31.141  23.218   5.341
 3440POPC   GL145001  31.153  22.920   5.698
 3440POPC   GL245002  31.448  23.009   5.887
 3440POPC   C1A45003  31.103  22.807   6.169
 3440POPC   D2A45004  31.289  22.694   6.546
 3440POPC   C3A45005  31.028  22.785   6.871
 3440POPC   C4A45006  31.367  22.956   7.186
 3440POPC   C1B45007  31.672  22.971   6.250
 3440POPC   C2B45008  31.866  23.079   6.611
 3440POPC   C3B45009  31.712  23.264   6.969
 3440POPC   C4B45010  31.854  23.107   7.326
 3441POPC   NC345011  16.197  10.445   5.488
 3441POPC   PO445012  15.617  10.764   5.196
 3441POPC   GL145013  15.601  10.554   5.687
 3441POPC   GL245014  15.816  10.322   5.850
 3441POPC   C1A45015  15.569  10.621   6.206
 3441POPC   D2A45016  15.478  10.735   6.687
 3441POPC   C3A45017  15.850  10.578   6.941
 3441POPC   C4A45018  16.201  10.551   7.249
 3441POPC   C1B45019  16.026  10.294   6.288
 3441POPC   C2B45020  16.143  10.196   6.756
 3441POPC   C3B45021  16.214  10.000   7.185
 3441POPC   C4B45022  16.103  10.043   7.644
 3442POPC   NC345023  30.897  17.460   5.243
 3442POPC   PO445024  30.251  17.244   5.419
 3442POPC   GL145025  30.596  17.481   5.668
 3442POPC   GL245026  30.995  17.566   5.716
 3442POPC   C1A45027  30.659  17.550   6.116
 3442POPC   D2A45028  30.797  17.747   6.517
 3442POPC   C3A45029  30.684  17.467   6.875
 3442POPC   C4A45030  30.519  17.525   7.294
 3442POPC   C1B45031  31.171  17.605   6.127
 3442POPC   C2B45032  31.170  17.379   6.509
 3442POPC   C3B45033  31.194  17.587   6.900
 3442POPC   C4B45034  31.043  17.368   7.240
 3443POPC   NC345035  36.382  27.042   5.508
 3443POPC   PO445036  36.151  26.373   5.388
 3443POPC   GL145037  36.102  26.687   5.740
 3443POPC   GL245038  35.770  26.865   5.750
 3443POPC   C1A45039  36.170  26.910   6.154
 3443POPC   D2A45040  36.209  26.711   6.571
 3443POPC   C3A45041  36.315  26.907   6.960
 3443POPC   C4A45042  36.327  27.085   7.387
 3443POPC   C1B45043  35.724  26.578   6.119
 3443POPC   C2B45044  35.742  26.460   6.554
 3443POPC   C3B45045  35.870  26.650   6.950
 3443POPC   C4B45046  35.748  26.522   7.329
 3444POPC   NC345047  26.435  14.558   5.255
 3444POPC   PO445048  27.019  14.387   5.325
 3444POPC   GL145049  26.844  14.310   5.745
 3444POPC   GL245050  26.628  14.545   5.747
 3444POPC   C1A45051  26.731  14.154   6.193
 3444POPC   D2A45052  26.922  14.101   6.623
 3444POPC   C3A45053  26.786  14.344   6.986
 3444POPC   C4A45054  27.023  14.675   7.199
 3444POPC   C1B45055  26.863  14.644   6.140
 3444POPC   C2B45056  26.847  14.691   6.596
 3444POPC   C3B45057  26.609  14.818   6.961
 3444POPC   C4B45058  26.302  14.572   7.111
 3445POPC   NC345059  40.479   2.399   5.630
 3445POPC   PO445060  40.860   1.858   5.414
 3445POPC   GL145061  40.747   1.944   5.850
 3445POPC   GL245062  40.823   2.272   5.988
 3445POPC   C1A45063  40.819   1.859   6.304
 3445POPC   D2A45064  40.964   2.142   6.630
 3445POPC   C3A45065  40.998   1.983   7.051
 3445POPC   C4A45066  40.781   1.667   7.303
 3445POPC   C1B45067  40.626   2.434   6.355
 3445POPC   C2B45068  40.604   2.465   6.793
 3445POPC   C3B45069  40.593   2.462   7.218
 3445POPC   C4B45070  40.805   2.157   7.500
 3446POPC   NC345071  29.256  43.199   5.425
 3446POPC   PO445072  29.454  42.682   5.791
 3446POPC   GL145073  29.279  43.109   5.939
 3446POPC   GL245074  28.943  43.210   5.838
 3446POPC   C1A45075  29.225  43.237   6.364
 3446POPC   D2A45076  29.504  43.021   6.647
 3446POPC   C3A45077  29.397  43.082   7.056
 3446POPC   C4A45078  29.110  42.901   7.338
 3446POPC   C1B45079  28.745  43.019   6.200
 3446POPC   C2B45080  28.706  43.203   6.607
 3446POPC   C3B45081  28.859  43.217   7.005
 3446POPC   C4B45082  28.690  43.370   7.377
 3447POPC   NC345083  11.068   7.681   5.527
 3447POPC   PO445084  10.410   7.741   5.361
 3447POPC   GL145085  10.550   7.392   5.674
 3447POPC   GL245086  10.347   7.608   5.880
 3447POPC   C1A45087  10.494   7.179   6.111
 3447POPC   D2A45088  10.275   7.267   6.521
 3447POPC   C3A45089  10.569   7.186   6.869
 3447POPC   C4A45090  10.801   7.318   7.236
 3447POPC   C1B45091  10.750   7.622   6.107
 3447POPC   C2B45092  10.842   7.470   6.509
 3447POPC   C3B45093  10.744   7.679   6.871
 3447POPC   C4B45094  10.909   7.811   7.227
 3448POPC   NC345095  42.429  34.116   5.330
 3448POPC   PO445096  42.399  33.474   5.369
 3448POPC   GL145097  42.328  33.674   5.796
 3448POPC   GL245098  42.564  33.929   5.816
 3448POPC   C1A45099  42.319  33.900   6.248
 3448POPC   D2A45100  42.342  34.073   6.668
 3448POPC   C3A45101  42.262  33.770   7.005
 3448POPC   C4A45102  42.452  33.976   7.319
 3448POPC   C1B45103  42.726  33.629   6.132
 3448POPC   C2B45104  42.733  33.762   6.534
 3448POPC   C3B45105  42.756  33.751   6.941
 3448POPC   C4B45106  42.729  33.516   7.329
 3449POPC   NC345107   4.896  23.051   5.389
 3449POPC   PO445108   5.437  22.660   5.542
 3449POPC   GL145109   5.213  22.827   5.907
 3449POPC   GL245110   5.030  23.148   5.873
 3449POPC   C1A45111   4.925  22.878   6.282
 3449POPC   D2A45112   4.908  22.702   6.671
 3449POPC   C3A45113   4.967  22.886   7.059
 3449POPC   C4A45114   5.048  22.664   7.415
 3449POPC   C1B45115   5.289  23.233   6.245
 3449POPC   C2B45116   5.164  23.181   6.682
 3449POPC   C3B45117   5.294  23.259   7.107
 3449POPC   C4B45118   5.376  23.501   7.465
 3450POPC   NC345119  40.310   6.698   5.508
 3450POPC   PO445120  39.671   6.657   5.444
 3450POPC   GL145121  39.943   6.405   5.773
 3450POPC   GL245122  40.235   6.198   5.643
 3450POPC   C1A45123  40.099   6.514   6.218
 3450POPC   D2A45124  39.926   6.460   6.642
 3450POPC   C3A45125  40.023   6.738   7.012
 3450POPC   C4A45126  39.649   6.846   7.275
 3450POPC   C1B45127  40.341   6.103   6.069
 3450POPC   C2B45128  40.306   6.082   6.546
 3450POPC   C3B45129  40.200   6.216   6.988
 3450POPC   C4B45130  39.792   6.311   7.179
 3451POPC   NC345131   6.713  32.570   5.364
 3451POPC   PO445132   6.166  32.300   5.299
 3451POPC   GL145133   6.425  32.153   5.674
 3451POPC   GL245134   6.673  32.392   5.847
 3451POPC   C1A45135   6.420  32.049   6.146
 3451POPC   D2A45136   6.718  31.914   6.489
 3451POPC   C3A45137   6.970  32.126   6.813
 3451POPC   C4A45138   6.767  32.140   7.226
 3451POPC   C1B45139   6.834  32.379   6.281
 3451POPC   C2B45140   6.716  32.562   6.682
 3451POPC   C3B45141   6.505  32.543   7.093
 3451POPC   C4B45142   6.589  32.532   7.566
 3452POPC   NC345143  42.978  13.166   5.539
 3452POPC   PO445144  43.553  12.997   5.652
 3452POPC   GL145145  43.245  12.991   5.960
 3452POPC   GL245146  42.987  12.727   5.826
 3452POPC   C1A45147  43.348  12.914   6.397
 3452POPC   D2A45148  43.386  12.566   6.672
 3452POPC   C3A45149  43.172  12.693   7.021
 3452POPC   C4A45150  43.120  13.119   7.160
 3452POPC   C1B45151  43.015  12.530   6.235
 3452POPC   C2B45152  42.802  12.743   6.577
 3452POPC   C3B45153  42.699  12.930   6.971
 3452POPC   C4B45154  42.738  12.629   7.333
 3453POPC   NC345155  40.507  27.764   5.441
 3453POPC   PO445156  41.002  27.317   5.392
 3453POPC   GL145157  40.908  27.551   5.749
 3453POPC   GL245158  41.081  27.872   5.800
 3453POPC   C1A45159  40.752  27.363   6.137
 3453POPC   D2A45160  40.593  27.520   6.540
 3453POPC   C3A45161  40.819  27.362   6.899
 3453POPC   C4A45162  40.582  27.419   7.228
 3453POPC   C1B45163  40.942  27.827   6.214
 3453POPC   C2B45164  41.022  27.778   6.630
 3453POPC   C3B45165  40.727  27.864   6.957
 3453POPC   C4B45166  40.817  27.883   7.364
 3454POPC   NC345167  13.477  13.389   5.556
 3454POPC   PO445168  13.866  13.880   5.502
 3454POPC   GL145169  13.736  13.719   5.913
 3454POPC   GL245170  13.367  13.769   5.897
 3454POPC   C1A45171  13.841  13.581   6.342
 3454POPC   D2A45172  13.680  13.670   6.756
 3454POPC   C3A45173  13.915  13.670   7.143
 3454POPC   C4A45174  13.681  13.749   7.537
 3454POPC   C1B45175  13.308  13.480   6.235
 3454POPC   C2B45176  13.171  13.117   6.457
 3454POPC   C3B45177  13.197  13.202   6.908
 3454POPC   C4B45178  13.365  13.566   7.152
 3455POPC   NC345179  15.151  32.843   5.596
 3455POPC   PO445180  14.817  33.457   5.560
 3455POPC   GL145181  15.110  33.259   5.913
 3455POPC   GL245182  15.427  33.025   5.984
 3455POPC   C1A45183  15.209  33.274   6.364
 3455POPC   D2A45184  15.067  33.189   6.754
 3455POPC   C3A45185  15.312  33.374   7.063
 3455POPC   C4A45186  15.572  33.222   7.356
 3455POPC   C1B45187  15.164  32.785   6.271
 3455POPC   C2B45188  15.281  32.721   6.719
 3455POPC   C3B45189  15.189  32.829   7.154
 3455POPC   C4B45190  15.463  32.765   7.518
 3456POPC   NC345191  18.430  11.659   5.452
 3456POPC   PO445192  18.568  10.959   5.494
 3456POPC   GL145193  18.375  11.247   5.816
 3456POPC   GL245194  18.689  11.473   5.846
 3456POPC   C1A45195  18.136  11.255   6.243
 3456POPC   D2A45196  17.945  11.407   6.619
 3456POPC   C3A45197  18.147  11.161   6.952
 3456POPC   C4A45198  18.084  11.047   7.387
 3456POPC   C1B45199  18.627  11.381   6.256
 3456POPC   C2B45200  18.460  11.488   6.642
 3456POPC   C3B45201  18.617  11.590   7.051
 3456POPC   C4B45202  18.559  11.242   7.299
 3457POPC   NC345203  35.018  26.154   5.314
 3457POPC   PO445204  34.485  25.869   5.060
 3457POPC   GL145205  34.569  25.801   5.557
 3457POPC   GL245206  34.861  25.595   5.655
 3457POPC   C1A45207  34.695  26.020   5.974
 3457POPC   D2A45208  34.798  26.068   6.431
 3457POPC   C3A45209  34.538  26.249   6.780
 3457POPC   C4A45210  34.512  26.134   7.203
 3457POPC   C1B45211  34.908  25.554   6.105
 3457POPC   C2B45212  34.732  25.546   6.505
 3457POPC   C3B45213  34.756  25.786   6.852
 3457POPC   C4B45214  34.882  25.819   7.232
 3458POPC   NC345215  41.024  11.628   5.195
 3458POPC   PO445216  40.658  12.197   5.419
 3458POPC   GL145217  40.690  11.947   5.752
 3458POPC   GL245218  41.042  11.924   5.706
 3458POPC   C1A45219  40.558  12.049   6.178
 3458POPC   D2A45220  40.726  12.236   6.556
 3458POPC   C3A45221  40.554  11.995   6.902
 3458POPC   C4A45222  40.724  11.872   7.283
 3458POPC   C1B45223  41.093  12.111   6.124
 3458POPC   C2B45224  41.309  12.277   6.515
 3458POPC   C3B45225  41.126  12.309   6.928
 3458POPC   C4B45226  40.763  12.373   7.186
 3459POPC   NC345227  35.884  37.767   5.461
 3459POPC   PO445228  36.525  37.396   5.462
 3459POPC   GL145229  36.307  37.610   5.812
 3459POPC   GL245230  36.016  37.836   5.953
 3459POPC   C1A45231  36.366  37.613   6.268
 3459POPC   D2A45232  36.218  37.774   6.658
 3459POPC   C3A45233  36.291  37.505   7.014
 3459POPC   C4A45234  36.418  37.581   7.453
 3459POPC   C1B45235  35.761  37.670   6.300
 3459POPC   C2B45236  35.727  37.666   6.719
 3459POPC   C3B45237  35.877  37.772   7.113
 3459POPC   C4B45238  35.933  37.477   7.423
 3460POPC   NC345239  23.831  12.520   5.405
 3460POPC   PO445240  23.556  11.870   5.292
 3460POPC   GL145241  23.557  11.805   5.752
 3460POPC   GL245242  23.791  12.061   5.842
 3460POPC   C1A45243  23.729  11.661   6.182
 3460POPC   D2A45244  23.970  11.866   6.500
 3460POPC   C3A45245  23.675  12.027   6.809
 3460POPC   C4A45246  23.738  12.105   7.231
 3460POPC   C1B45247  23.473  12.106   6.200
 3460POPC   C2B45248  23.241  12.241   6.568
 3460POPC   C3B45249  23.376  12.458   6.948
 3460POPC   C4B45250  23.420  12.449   7.400
 3461POPC   NC345251   2.908  30.606   5.461
 3461POPC   PO445252   2.349  30.973   5.496
 3461POPC   GL145253   2.670  30.899   5.827
 3461POPC   GL245254   2.987  30.909   5.897
 3461POPC   C1A45255   2.787  30.521   6.143
 3461POPC   D2A45256   3.052  30.469   6.549
 3461POPC   C3A45257   2.873  30.595   6.943
 3461POPC   C4A45258   2.631  30.474   7.287
 3461POPC   C1B45259   2.912  30.991   6.344
 3461POPC   C2B45260   3.131  31.207   6.708
 3461POPC   C3B45261   3.144  31.183   7.153
 3461POPC   C4B45262   2.858  30.915   7.356
 3462POPC   NC345263  39.918  36.002   5.445
 3462POPC   PO445264  40.346  36.425   5.554
 3462POPC   GL145265  40.015  36.317   5.865
 3462POPC   GL245266  39.858  35.980   5.956
 3462POPC   C1A45267  39.916  36.350   6.306
 3462POPC   D2A45268  39.826  36.268   6.743
 3462POPC   C3A45269  40.177  36.230   7.034
 3462POPC   C4A45270  40.152  36.193   7.498
 3462POPC   C1B45271  39.915  35.831   6.384
 3462POPC   C2B45272  39.973  35.781   6.826
 3462POPC   C3B45273  39.850  35.887   7.223
 3462POPC   C4B45274  39.687  35.976   7.623
 3463POPC   NC345275   1.898  24.185   5.294
 3463POPC   PO445276   1.950  23.521   5.328
 3463POPC   GL145277   1.846  23.662   5.763
 3463POPC   GL245278   2.055  23.934   5.837
 3463POPC   C1A45279   1.892  23.676   6.240
 3463POPC   D2A45280   1.728  23.849   6.638
 3463POPC   C3A45281   1.880  23.639   7.025
 3463POPC   C4A45282   1.817  23.703   7.475
 3463POPC   C1B45283   2.364  23.880   6.177
 3463POPC   C2B45284   2.279  23.821   6.603
 3463POPC   C3B45285   2.357  23.814   7.045
 3463POPC   C4B45286   2.304  23.409   7.261
 3464POPC   NC345287  17.360  28.365   5.182
 3464POPC   PO445288  17.950  28.145   5.412
 3464POPC   GL145289  17.624  28.396   5.670
 3464POPC   GL245290  17.820  28.449   5.885
 3464POPC   C1A45291  17.376  28.348   6.116
 3464POPC   D2A45292  17.368  28.161   6.556
 3464POPC   C3A45293  17.421  28.468   6.907
 3464POPC   C4A45294  17.517  28.463   7.341
 3464POPC   C1B45295  17.858  28.285   6.283
 3464POPC   C2B45296  17.840  28.283   6.691
 3464POPC   C3B45297  17.760  28.103   7.052
 3464POPC   C4B45298  17.934  28.038   7.409
 3465POPC   NC345299  14.997  33.784   5.293
 3465POPC   PO445300  15.602  33.825   5.524
 3465POPC   GL145301  15.395  33.709   5.913
 3465POPC   GL245302  15.181  34.005   5.976
 3465POPC   C1A45303  15.411  33.724   6.388
 3465POPC   D2A45304  15.158  33.868   6.722
 3465POPC   C3A45305  15.339  33.892   7.132
 3465POPC   C4A45306  15.315  33.648   7.515
 3465POPC   C1B45307  14.923  33.673   6.191
 3465POPC   C2B45308  14.732  33.562   6.607
 3465POPC   C3B45309  14.853  33.597   7.041
 3465POPC   C4B45310  14.884  33.911   7.319
 3466POPC   NC345311  24.158  44.146   5.140
 3466POPC   PO445312  23.555  43.856   5.216
 3466POPC   GL145313  23.512  43.700   5.654
 3466POPC   GL245314  23.856  43.705   5.734
 3466POPC   C1A45315  23.474  43.812   6.095
 3466POPC   D2A45316  23.779  43.946   6.415
 3466POPC   C3A45317  23.654  43.882   6.838
 3466POPC   C4A45318  23.701  43.932   7.279
 3466POPC   C1B45319  23.898  43.522   6.153
 3466POPC   C2B45320  24.092  43.538   6.572
 3466POPC   C3B45321  24.072  43.640   7.014
 3466POPC   C4B45322  24.143  43.447   7.421
 3467POPC   NC345323   5.434  11.561   5.464
 3467POPC   PO445324   6.054  11.260   5.271
 3467POPC   GL145325   6.059  11.285   5.741
 3467POPC   GL245326   5.692  11.227   5.787
 3467POPC   C1A45327   6.016  11.058   6.168
 3467POPC   D2A45328   5.697  10.896   6.445
 3467POPC   C3A45329   5.689  10.957   6.892
 3467POPC   C4A45330   5.830  11.147   7.269
 3467POPC   C1B45331   5.780  11.499   6.149
 3467POPC   C2B45332   5.868  11.406   6.576
 3467POPC   C3B45333   5.723  11.545   6.972
 3467POPC   C4B45334   5.776  11.924   7.197
 3468POPC   NC345335  29.364  28.423   5.062
 3468POPC   PO445336  29.110  27.867   5.322
 3468POPC   GL145337  29.116  28.133   5.664
 3468POPC   GL245338  28.773  28.218   5.762
 3468POPC   C1A45339  29.236  28.164   6.087
 3468POPC   D2A45340  29.159  27.986   6.484
 3468POPC   C3A45341  28.998  28.204   6.831
 3468POPC   C4A45342  29.149  28.204   7.263
 3468POPC   C1B45343  28.785  28.385   6.207
 3468POPC   C2B45344  28.827  28.651   6.585
 3468POPC   C3B45345  28.722  28.603   7.008
 3468POPC   C4B45346  28.932  28.634   7.401
 3469POPC   NC345347  44.969  41.128   5.364
 3469POPC   PO445348   0.078  40.443   5.445
 3469POPC   GL145349  44.859  40.518   5.846
 3469POPC   GL245350  44.758  40.886   5.807
 3469POPC   C1A45351  44.684  40.583   6.291
 3469POPC   D2A45352  44.402  40.483   6.677
 3469POPC   C3A45353  44.455  40.725   7.075
 3469POPC   C4A45354  44.793  40.940   7.296
 3469POPC   C1B45355  44.485  41.039   6.169
 3469POPC   C2B45356  44.450  40.994   6.630
 3469POPC   C3B45357  44.315  41.224   7.023
 3469POPC   C4B45358  44.518  41.358   7.408
 3470POPC   NC345359  32.584   2.355   5.088
 3470POPC   PO445360  32.194   2.893   5.435
 3470POPC   GL145361  32.210   2.919   5.818
 3470POPC   GL245362  31.914   2.813   5.996
 3470POPC   C1A45363  32.575   2.997   6.076
 3470POPC   D2A45364  32.756   2.968   6.506
 3470POPC   C3A45365  32.523   2.926   6.903
 3470POPC   C4A45366  32.197   2.793   7.206
 3470POPC   C1B45367  32.270   2.561   6.186
 3470POPC   C2B45368  32.510   2.490   6.559
 3470POPC   C3B45369  32.489   2.389   6.984
 3470POPC   C4B45370  32.327   2.336   7.395
 3471POPC   NC345371   2.507  21.575   5.572
 3471POPC   PO445372   3.044  21.495   5.246
 3471POPC   GL145373   2.981  21.440   5.722
 3471POPC   GL245374   2.708  21.250   5.889
 3471POPC   C1A45375   2.964  21.585   6.189
 3471POPC   D2A45376   2.894  21.351   6.569
 3471POPC   C3A45377   2.893  21.475   6.999
 3471POPC   C4A45378   2.908  21.187   7.331
 3471POPC   C1B45379   2.476  21.427   6.248
 3471POPC   C2B45380   2.257  21.413   6.631
 3471POPC   C3B45381   2.398  21.355   7.054
 3471POPC   C4B45382   2.522  21.506   7.438
 3472POPC   NC345383  26.434  23.948   5.419
 3472POPC   PO445384  25.808  23.707   5.556
 3472POPC   GL145385  26.132  23.872   5.840
 3472POPC   GL245386  26.488  23.714   5.860
 3472POPC   C1A45387  26.014  23.991   6.260
 3472POPC   D2A45388  25.956  24.257   6.610
 3472POPC   C3A45389  25.718  24.024   6.906
 3472POPC   C4A45390  25.729  23.845   7.316
 3472POPC   C1B45391  26.533  23.818   6.274
 3472POPC   C2B45392  26.341  23.872   6.663
 3472POPC   C3B45393  26.173  23.813   7.038
 3472POPC   C4B45394  26.100  23.506   7.331
 3473POPC   NC345395  33.409  16.805   5.482
 3473POPC   PO445396  32.777  17.017   5.223
 3473POPC   GL145397  32.773  16.858   5.688
 3473POPC   GL245398  32.505  16.953   5.883
 3473POPC   C1A45399  32.914  16.564   6.027
 3473POPC   D2A45400  33.185  16.658   6.402
 3473POPC   C3A45401  33.141  16.501   6.829
 3473POPC   C4A45402  33.014  16.759   7.167
 3473POPC   C1B45403  32.603  16.863   6.305
 3473POPC   C2B45404  32.777  16.882   6.724
 3473POPC   C3B45405  32.658  17.126   7.089
 3473POPC   C4B45406  32.598  16.919   7.465
 3474POPC   NC345407  23.991  22.500   5.462
 3474POPC   PO445408  23.592  23.000   5.384
 3474POPC   GL145409  23.762  22.873   5.794
 3474POPC   GL245410  23.478  22.696   5.826
 3474POPC   C1A45411  23.755  22.782   6.282
 3474POPC   D2A45412  23.908  23.042   6.638
 3474POPC   C3A45413  23.885  22.923   7.072
 3474POPC   C4A45414  23.854  22.807   7.538
 3474POPC   C1B45415  23.265  22.922   6.172
 3474POPC   C2B45416  23.375  23.111   6.570
 3474POPC   C3B45417  23.342  22.983   6.996
 3474POPC   C4B45418  23.522  23.123   7.362
 3475POPC   NC345419  12.736  42.068   5.464
 3475POPC   PO445420  13.101  42.416   5.805
 3475POPC   GL145421  12.851  42.114   5.987
 3475POPC   GL245422  12.531  42.272   5.897
 3475POPC   C1A45423  12.827  42.105   6.429
 3475POPC   D2A45424  12.930  42.495   6.636
 3475POPC   C3A45425  13.197  42.422   6.960
 3475POPC   C4A45426  13.151  42.281   7.396
 3475POPC   C1B45427  12.489  42.478   6.308
 3475POPC   C2B45428  12.422  42.440   6.760
 3475POPC   C3B45429  12.703  42.348   7.110
 3475POPC   C4B45430  12.819  42.644   7.431
 3476POPC   NC345431  21.160  14.351   5.359
 3476POPC   PO445432  21.855  14.205   5.334
 3476POPC   GL145433  21.589  14.248   5.752
 3476POPC   GL245434  21.320  14.512   5.850
 3476POPC   C1A45435  21.558  14.254   6.244
 3476POPC   D2A45436  21.586  14.504   6.659
 3476POPC   C3A45437  21.429  14.346   7.101
 3476POPC   C4A45438  21.465  14.038   7.467
 3476POPC   C1B45439  21.052  14.204   6.095
 3476POPC   C2B45440  20.856  14.162   6.550
 3476POPC   C3B45441  20.981  14.075   7.021
 3476POPC   C4B45442  21.006  14.256   7.452
 3477POPC   NC345443  16.433  41.769   5.098
 3477POPC   PO445444  17.008  41.788   5.496
 3477POPC   GL145445  16.893  41.658   5.955
 3477POPC   GL245446  16.833  41.224   5.996
 3477POPC   C1A45447  16.672  41.555   6.337
 3477POPC   D2A45448  16.870  41.245   6.571
 3477POPC   C3A45449  17.040  41.485   6.918
 3477POPC   C4A45450  16.870  41.771   7.238
 3477POPC   C1B45451  16.445  41.091   6.225
 3477POPC   C2B45452  16.296  41.268   6.613
 3477POPC   C3B45453  16.534  41.414   6.950
 3477POPC   C4B45454  16.428  41.520   7.374
 3478POPC   NC345455  28.770   6.806   4.960
 3478POPC   PO445456  29.100   6.365   5.432
 3478POPC   GL145457  29.359   6.448   5.764
 3478POPC   GL245458  29.233   6.715   5.866
 3478POPC   C1A45459  29.444   6.308   6.156
 3478POPC   D2A45460  29.226   6.348   6.532
 3478POPC   C3A45461  29.442   6.246   6.887
 3478POPC   C4A45462  29.334   6.542   7.176
 3478POPC   C1B45463  29.073   6.762   6.253
 3478POPC   C2B45464  29.229   6.892   6.670
 3478POPC   C3B45465  29.167   7.016   7.103
 3478POPC   C4B45466  29.167   7.209   7.521
 3479POPC   NC345467  12.875  27.362   5.307
 3479POPC   PO445468  12.426  27.586   5.600
 3479POPC   GL145469  12.607  27.553   5.994
 3479POPC   GL245470  12.860  27.772   5.854
 3479POPC   C1A45471  12.656  27.409   6.451
 3479POPC   D2A45472  12.934  27.118   6.718
 3479POPC   C3A45473  12.798  27.032   7.145
 3479POPC   C4A45474  12.607  27.360   7.431
 3479POPC   C1B45475  12.935  27.826   6.306
 3479POPC   C2B45476  13.101  27.617   6.693
 3479POPC   C3B45477  12.991  27.477   7.111
 3479POPC   C4B45478  13.097  27.198   7.515
 3480POPC   NC345479   5.630  14.597   5.281
 3480POPC   PO445480   6.202  14.236   5.408
 3480POPC   GL145481   6.166  14.314   5.841
 3480POPC   GL245482   6.154  14.674   5.842
 3480POPC   C1A45483   5.995  14.174   6.230
 3480POPC   D2A45484   5.782  14.111   6.604
 3480POPC   C3A45485   6.094  14.137   6.950
 3480POPC   C4A45486   5.997  14.487   7.196
 3480POPC   C1B45487   5.819  14.643   6.113
 3480POPC   C2B45488   5.840  14.634   6.558
 3480POPC   C3B45489   5.686  14.900   6.887
 3480POPC   C4B45490   5.719  14.960   7.333
 3481POPC   NC345491   3.317   3.390   5.424
 3481POPC   PO445492   4.008   3.637   5.379
 3481POPC   GL145493   3.722   3.514   5.726
 3481POPC   GL245494   3.759   3.183   5.885
 3481POPC   C1A45495   3.622   3.743   6.120
 3481POPC   D2A45496   3.778   3.727   6.559
 3481POPC   C3A45497   3.456   3.885   6.851
 3481POPC   C4A45498   3.402   3.802   7.279
 3481POPC   C1B45499   3.578   3.230   6.284
 3481POPC   C2B45500   3.772   3.220   6.687
 3481POPC   C3B45501   3.765   3.484   7.011
 3481POPC   C4B45502   3.351   3.342   7.080
 3482POPC   NC345503  18.893  44.217   5.418
 3482POPC   PO445504  19.481  43.864   5.328
 3482POPC   GL145505  19.255  43.801   5.754
 3482POPC   GL245506  19.467  43.797   6.058
 3482POPC   C1A45507  18.937  43.879   6.121
 3482POPC   D2A45508  19.094  43.836   6.570
 3482POPC   C3A45509  18.883  43.733   6.956
 3482POPC   C4A45510  18.752  44.018   7.262
 3482POPC   C1B45511  19.325  44.201   6.216
 3482POPC   C2B45512  19.310  44.327   6.630
 3482POPC   C3B45513  19.189  44.164   7.015
 3482POPC   C4B45514  19.357  44.100   7.406
 3483POPC   NC345515   5.147   3.604   5.567
 3483POPC   PO445516   5.670   3.100   5.323
 3483POPC   GL145517   5.513   3.163   5.744
 3483POPC   GL245518   5.515   3.488   5.888
 3483POPC   C1A45519   5.321   3.141   6.202
 3483POPC   D2A45520   5.161   2.992   6.642
 3483POPC   C3A45521   4.856   3.233   6.953
 3483POPC   C4A45522   4.797   3.699   6.978
 3483POPC   C1B45523   5.301   3.676   6.267
 3483POPC   C2B45524   5.267   3.908   6.691
 3483POPC   C3B45525   5.306   3.761   7.148
 3483POPC   C4B45526   5.373   3.828   7.597
 3484POPC   NC345527  13.231   5.444   5.404
 3484POPC   PO445528  12.745   4.983   5.619
 3484POPC   GL145529  12.862   5.089   5.959
 3484POPC   GL245530  12.810   5.406   5.906
 3484POPC   C1A45531  12.747   5.080   6.346
 3484POPC   D2A45532  12.905   4.857   6.680
 3484POPC   C3A45533  12.857   5.027   7.054
 3484POPC   C4A45534  12.813   5.184   7.478
 3484POPC   C1B45535  13.031   5.530   6.244
 3484POPC   C2B45536  13.006   5.372   6.657
 3484POPC   C3B45537  12.853   5.540   7.000
 3484POPC   C4B45538  13.150   5.535   7.265
 3485POPC   NC345539  42.008  37.599   5.517
 3485POPC   PO445540  42.685  37.577   5.429
 3485POPC   GL145541  42.584  37.564   5.857
 3485POPC   GL245542  42.528  37.920   5.925
 3485POPC   C1A45543  42.312  37.523   6.245
 3485POPC   D2A45544  42.061  37.699   6.610
 3485POPC   C3A45545  42.141  37.513   6.992
 3485POPC   C4A45546  42.494  37.239   6.977
 3485POPC   C1B45547  42.210  38.057   6.247
 3485POPC   C2B45548  42.330  38.141   6.697
 3485POPC   C3B45549  42.439  37.956   7.115
 3485POPC   C4B45550  42.217  37.960   7.510
 3486POPC   NC345551  42.010  15.657   5.391
 3486POPC   PO445552  41.532  16.133   5.354
 3486POPC   GL145553  41.540  16.050   5.804
 3486POPC   GL245554  41.673  15.733   5.762
 3486POPC   C1A45555  41.805  15.961   6.193
 3486POPC   D2A45556  42.003  16.101   6.583
 3486POPC   C3A45557  41.773  15.872   6.873
 3486POPC   C4A45558  41.670  15.978   7.264
 3486POPC   C1B45559  41.406  15.599   6.059
 3486POPC   C2B45560  41.447  15.700   6.489
 3486POPC   C3B45561  41.220  15.545   6.831
 3486POPC   C4B45562  41.351  15.572   7.260
 3487POPC   NC345563   3.085   5.944   5.384
 3487POPC   PO445564   3.818   6.091   5.345
 3487POPC   GL145565   3.517   5.959   5.650
 3487POPC   GL245566   3.340   5.637   5.743
 3487POPC   C1A45567   3.512   5.978   6.087
 3487POPC   D2A45568   3.562   5.670   6.409
 3487POPC   C3A45569   3.638   5.743   6.829
 3487POPC   C4A45570   3.604   5.655   7.247
 3487POPC   C1B45571   3.115   5.612   6.157
 3487POPC   C2B45572   2.995   5.681   6.585
 3487POPC   C3B45573   3.154   5.729   7.003
 3487POPC   C4B45574   3.185   6.022   7.306
 3488POPC   NC345575  34.163  41.002   5.044
 3488POPC   PO445576  34.701  40.782   5.349
 3488POPC   GL145577  34.669  40.676   5.777
 3488POPC   GL245578  34.887  40.401   5.732
 3488POPC   C1A45579  34.413  40.851   6.137
 3488POPC   D2A45580  34.463  41.139   6.498
 3488POPC   C3A45581  34.319  40.997   6.880
 3488POPC   C4A45582  34.528  40.926   7.262
 3488POPC   C1B45583  34.816  40.371   6.162
 3488POPC   C2B45584  34.708  40.626   6.496
 3488POPC   C3B45585  34.753  40.645   6.910
 3488POPC   C4B45586  34.765  40.469   7.308
 3489POPC   NC345587   5.081   0.813   5.310
 3489POPC   PO445588   4.882   1.503   5.419
 3489POPC   GL145589   4.989   1.197   5.722
 3489POPC   GL245590   5.343   1.131   5.665
 3489POPC   C1A45591   4.856   1.213   6.149
 3489POPC   D2A45592   4.848   1.505   6.499
 3489POPC   C3A45593   4.926   1.232   6.849
 3489POPC   C4A45594   4.846   1.159   7.273
 3489POPC   C1B45595   5.366   1.028   6.102
 3489POPC   C2B45596   5.277   1.199   6.474
 3489POPC   C3B45597   5.444   1.214   6.861
 3489POPC   C4B45598   5.336   1.084   7.248
 3490POPC   NC345599   8.722  15.071   4.984
 3490POPC   PO445600   9.159  15.155   5.436
 3490POPC   GL145601   8.911  15.000   5.760
 3490POPC   GL245602   9.105  14.821   5.991
 3490POPC   C1A45603   8.718  15.095   6.155
 3490POPC   D2A45604   8.954  15.150   6.532
 3490POPC   C3A45605   8.871  14.937   6.890
 3490POPC   C4A45606   8.799  15.149   7.267
 3490POPC   C1B45607   9.319  14.853   6.366
 3490POPC   C2B45608   9.423  15.023   6.763
 3490POPC   C3B45609   9.302  15.006   7.189
 3490POPC   C4B45610   9.293  14.717   7.568
 3491POPC   NC345611   7.196  20.494   5.337
 3491POPC   PO445612   7.739  20.887   5.426
 3491POPC   GL145613   7.446  20.712   5.741
 3491POPC   GL245614   7.459  20.319   5.754
 3491POPC   C1A45615   7.193  20.800   6.109
 3491POPC   D2A45616   7.337  20.664   6.508
 3491POPC   C3A45617   7.246  20.866   6.869
 3491POPC   C4A45618   7.335  20.687   7.239
 3491POPC   C1B45619   7.266  20.283   6.151
 3491POPC   C2B45620   7.038  20.224   6.528
 3491POPC   C3B45621   7.309  20.263   6.900
 3491POPC   C4B45622   7.146  20.215   7.289
 3492POPC   NC345623  18.383   4.196   5.413
 3492POPC   PO445624  17.859   4.626   5.559
 3492POPC   GL145625  18.036   4.305   5.878
 3492POPC   GL245626  18.409   4.198   5.919
 3492POPC   C1A45627  18.127   4.317   6.325
 3492POPC   D2A45628  18.460   4.188   6.573
 3492POPC   C3A45629  18.334   4.322   6.966
 3492POPC   C4A45630  18.553   4.281   7.332
 3492POPC   C1B45631  18.281   3.860   6.210
 3492POPC   C2B45632  18.120   3.808   6.645
 3492POPC   C3B45633  18.170   3.869   7.115
 3492POPC   C4B45634  18.208   3.969   7.558
 3493POPC   NC345635  43.531  31.939   5.521
 3493POPC   PO445636  43.646  32.640   5.388
 3493POPC   GL145637  43.635  32.380   5.783
 3493POPC   GL245638  43.996  32.244   5.717
 3493POPC   C1A45639  43.790  32.064   6.150
 3493POPC   D2A45640  44.023  31.916   6.531
 3493POPC   C3A45641  43.890  32.119   6.894
 3493POPC   C4A45642  43.729  32.131   7.305
 3493POPC   C1B45643  44.006  32.529   6.082
 3493POPC   C2B45644  43.788  32.476   6.499
 3493POPC   C3B45645  43.880  32.673   6.875
 3493POPC   C4B45646  43.890  32.654   7.282
 3494POPC   NC345647  32.611  27.850   5.419
 3494POPC   PO445648  33.027  28.465   5.429
 3494POPC   GL145649  33.074  28.334   5.850
 3494POPC   GL245650  32.972  28.660   5.939
 3494POPC   C1A45651  33.303  28.332   6.254
 3494POPC   D2A45652  33.140  28.229   6.668
 3494POPC   C3A45653  33.179  28.324   7.095
 3494POPC   C4A45654  32.875  28.343   7.436
 3494POPC   C1B45655  32.818  28.507   6.334
 3494POPC   C2B45656  32.849  28.652   6.757
 3494POPC   C3B45657  32.986  28.787   7.157
 3494POPC   C4B45658  32.827  28.821   7.575
 3495POPC   NC345659  31.894  43.199   5.536
 3495POPC   PO445660  32.421  42.825   5.482
 3495POPC   GL145661  32.238  42.956   5.844
 3495POPC   GL245662  32.264  43.327   5.881
 3495POPC   C1A45663  32.283  42.989   6.271
 3495POPC   D2A45664  32.522  43.013   6.584
 3495POPC   C3A45665  32.321  42.790   6.823
 3495POPC   C4A45666  32.168  42.901   7.199
 3495POPC   C1B45667  32.094  43.460   6.291
 3495POPC   C2B45668  32.057  43.235   6.683
 3495POPC   C3B45669  31.878  43.301   7.083
 3495POPC   C4B45670  32.113  43.434   7.458
 3496POPC   NC345671  28.861  35.483   5.247
 3496POPC   PO445672  28.264  35.507   5.553
 3496POPC   GL145673  28.247  35.275   5.895
 3496POPC   GL245674  27.925  35.166   5.835
 3496POPC   C1A45675  28.296  35.471   6.303
 3496POPC   D2A45676  28.374  35.655   6.730
 3496POPC   C3A45677  28.620  35.394   7.025
 3496POPC   C4A45678  28.471  35.144   7.389
 3496POPC   C1B45679  27.947  35.063   6.273
 3496POPC   C2B45680  27.929  34.941   6.704
 3496POPC   C3B45681  28.123  35.224   7.028
 3496POPC   C4B45682  28.003  35.352   7.473
 3497POPC   NC345683  40.352  14.535   5.502
 3497POPC   PO445684  39.957  14.019   5.535
 3497POPC   GL145685  40.090  14.260   5.845
 3497POPC   GL245686  39.863  14.553   5.818
 3497POPC   C1A45687  40.156  14.497   6.222
 3497POPC   D2A45688  40.009  14.677   6.605
 3497POPC   C3A45689  40.309  14.713   6.931
 3497POPC   C4A45690  40.461  14.471   7.272
 3497POPC   C1B45691  39.683  14.778   6.185
 3497POPC   C2B45692  39.489  14.779   6.605
 3497POPC   C3B45693  39.582  14.552   6.974
 3497POPC   C4B45694  39.933  14.543   7.258
 3498POPC   NC345695  35.718  28.451   5.428
 3498POPC   PO445696  36.375  28.308   5.352
 3498POPC   GL145697  36.254  28.264   5.781
 3498POPC   GL245698  35.898  28.309   5.868
 3498POPC   C1A45699  36.240  28.130   6.212
 3498POPC   D2A45700  36.408  28.380   6.534
 3498POPC   C3A45701  36.368  28.228   6.918
 3498POPC   C4A45702  36.467  28.511   7.225
 3498POPC   C1B45703  35.721  28.179   6.242
 3498POPC   C2B45704  35.890  28.029   6.623
 3498POPC   C3B45705  35.874  28.232   7.018
 3498POPC   C4B45706  35.828  28.011   7.363
 3499POPC   NC345707  11.477  38.939   5.400
 3499POPC   PO445708  11.506  39.537   5.512
 3499POPC   GL145709  11.478  39.477   5.958
 3499POPC   GL245710  11.173  39.276   5.936
 3499POPC   C1A45711  11.255  39.638   6.347
 3499POPC   D2A45712  11.159  39.444   6.759
 3499POPC   C3A45713  11.413  39.086   6.909
 3499POPC   C4A45714  11.561  39.091   7.352
 3499POPC   C1B45715  11.139  39.064   6.327
 3499POPC   C2B45716  10.770  38.921   6.532
 3499POPC   C3B45717  10.795  39.099   6.931
 3499POPC   C4B45718  11.076  39.252   7.246
 3500POPC   NC345719  17.914  22.942   5.351
 3500POPC   PO445720  18.470  23.292   5.188
 3500POPC   GL145721  18.259  23.229   5.605
 3500POPC   GL245722  18.310  22.868   5.695
 3500POPC   C1A45723  18.277  23.233   6.081
 3500POPC   D2A45724  18.531  23.091   6.427
 3500POPC   C3A45725  18.455  23.192   6.872
 3500POPC   C4A45726  18.727  23.025   7.229
 3500POPC   C1B45727  17.995  22.803   6.033
 3500POPC   C2B45728  18.032  22.877   6.470
 3500POPC   C3B45729  18.272  22.703   6.834
 3500POPC   C4B45730  18.251  22.758   7.276
 3501POPC   NC345731   0.123  25.095   5.435
 3501POPC   PO445732   0.454  25.631   5.662
 3501POPC   GL145733   0.410  25.233   5.863
 3501POPC   GL245734   0.145  25.437   6.051
 3501POPC   C1A45735   0.238  24.989   6.222
 3501POPC   D2A45736   0.136  25.221   6.615
 3501POPC   C3A45737   0.315  25.165   7.029
 3501POPC   C4A45738   0.372  24.953   7.470
 3501POPC   C1B45739   0.516  25.422   6.338
 3501POPC   C2B45740   0.526  25.630   6.735
 3501POPC   C3B45741   0.453  25.640   7.166
 3501POPC   C4B45742   0.724  25.289   7.301
 3502POPC   NC345743   5.596  32.567   5.617
 3502POPC   PO445744   5.706  31.994   5.193
 3502POPC   GL145745   5.884  32.157   5.675
 3502POPC   GL245746   6.081  32.515   5.765
 3502POPC   C1A45747   5.876  32.222   6.159
 3502POPC   D2A45748   5.635  32.431   6.529
 3502POPC   C3A45749   5.565  32.229   6.928
 3502POPC   C4A45750   5.537  32.247   7.371
 3502POPC   C1B45751   6.304  32.565   6.170
 3502POPC   C2B45752   6.218  32.413   6.586
 3502POPC   C3B45753   6.000  32.522   6.971
 3502POPC   C4B45754   6.101  32.493   7.425
 3503POPC   NC345755  10.260  34.219   5.478
 3503POPC   PO445756  10.567  34.815   5.425
 3503POPC   GL145757  10.534  34.627   5.806
 3503POPC   GL245758  10.245  34.502   5.936
 3503POPC   C1A45759  10.745  34.571   6.203
 3503POPC   D2A45760  10.785  34.767   6.617
 3503POPC   C3A45761  10.882  34.574   6.983
 3503POPC   C4A45762  10.649  34.393   7.301
 3503POPC   C1B45763  10.301  34.813   6.290
 3503POPC   C2B45764  10.294  34.752   6.739
 3503POPC   C3B45765  10.387  34.811   7.175
 3503POPC   C4B45766  10.367  34.665   7.625
 3504POPC   NC345767  34.425  37.927   5.480
 3504POPC   PO445768  34.826  37.392   5.383
 3504POPC   GL145769  34.806  37.655   5.764
 3504POPC   GL245770  34.454  37.573   5.855
 3504POPC   C1A45771  34.771  37.678   6.247
 3504POPC   D2A45772  34.818  37.590   6.693
 3504POPC   C3A45773  34.714  37.335   7.043
 3504POPC   C4A45774  34.878  37.539   7.402
 3504POPC   C1B45775  34.284  37.805   6.206
 3504POPC   C2B45776  34.388  37.853   6.658
 3504POPC   C3B45777  34.339  37.732   7.094
 3504POPC   C4B45778  34.087  37.870   7.454
 3505POPC   NC345779  30.232  34.776   5.569
 3505POPC   PO445780  29.600  34.560   5.472
 3505POPC   GL145781  29.801  34.448   5.849
 3505POPC   GL245782  29.833  34.776   5.909
 3505POPC   C1A45783  29.943  34.502   6.329
 3505POPC   D2A45784  30.228  34.477   6.724
 3505POPC   C3A45785  30.036  34.418   7.155
 3505POPC   C4A45786  29.755  34.116   7.347
 3505POPC   C1B45787  30.070  34.995   6.198
 3505POPC   C2B45788  30.189  34.993   6.605
 3505POPC   C3B45789  30.059  34.896   6.998
 3505POPC   C4B45790  29.810  34.877   7.368
 3506POPC   NC345791   3.994  24.153   5.301
 3506POPC   PO445792   4.581  24.311   5.396
 3506POPC   GL145793   4.285  24.293   5.776
 3506POPC   GL245794   4.088  24.631   5.850
 3506POPC   C1A45795   4.297  24.393   6.240
 3506POPC   D2A45796   4.421  24.535   6.650
 3506POPC   C3A45797   4.294  24.315   6.997
 3506POPC   C4A45798   4.179  24.321   7.412
 3506POPC   C1B45799   3.981  24.816   6.284
 3506POPC   C2B45800   3.988  24.786   6.736
 3506POPC   C3B45801   4.224  24.824   7.113
 3506POPC   C4B45802   4.249  24.896   7.549
 3507POPC   NC345803   1.112  21.631   5.347
 3507POPC   PO445804   0.833  21.067   5.557
 3507POPC   GL145805   1.037  21.413   5.834
 3507POPC   GL245806   1.359  21.578   5.796
 3507POPC   C1A45807   1.272  21.261   6.224
 3507POPC   D2A45808   1.278  20.982   6.601
 3507POPC   C3A45809   1.129  21.202   6.961
 3507POPC   C4A45810   1.116  21.188   7.402
 3507POPC   C1B45811   1.402  21.737   6.214
 3507POPC   C2B45812   1.166  21.601   6.591
 3507POPC   C3B45813   1.009  21.688   6.981
 3507POPC   C4B45814   1.408  21.631   7.181
 3508POPC   NC345815  23.569  14.113   5.413
 3508POPC   PO445816  23.921  14.765   5.394
 3508POPC   GL145817  23.851  14.687   5.842
 3508POPC   GL245818  23.598  14.407   5.874
 3508POPC   C1A45819  23.626  14.762   6.239
 3508POPC   D2A45820  23.579  14.496   6.587
 3508POPC   C3A45821  23.776  14.590   6.971
 3508POPC   C4A45822  23.664  14.843   7.294
 3508POPC   C1B45823  23.549  14.088   6.230
 3508POPC   C2B45824  23.472  14.005   6.692
 3508POPC   C3B45825  23.342  14.308   7.024
 3508POPC   C4B45826  23.509  14.379   7.459
 3509POPC   NC345827  10.791  42.248   5.339
 3509POPC   PO445828  11.459  42.524   5.396
 3509POPC   GL145829  11.403  42.356   5.813
 3509POPC   GL245830  11.030  42.330   5.830
 3509POPC   C1A45831  11.533  42.449   6.253
 3509POPC   D2A45832  11.478  42.633   6.670
 3509POPC   C3A45833  11.337  42.309   6.956
 3509POPC   C4A45834  11.600  42.268   7.315
 3509POPC   C1B45835  10.962  42.096   6.246
 3509POPC   C2B45836  11.047  41.865   6.656
 3509POPC   C3B45837  10.985  41.929   7.110
 3509POPC   C4B45838  11.121  42.130   7.516
 3510POPC   NC345839  39.628  12.862   5.528
 3510POPC   PO445840  38.977  12.999   5.482
 3510POPC   GL145841  39.212  12.895   5.877
 3510POPC   GL245842  39.497  13.136   5.913
 3510POPC   C1A45843  39.144  12.665   6.279
 3510POPC   D2A45844  39.302  12.736   6.694
 3510POPC   C3A45845  39.039  12.673   7.036
 3510POPC   C4A45846  39.247  12.827   7.391
 3510POPC   C1B45847  39.571  12.955   6.313
 3510POPC   C2B45848  39.513  13.213   6.685
 3510POPC   C3B45849  39.538  13.031   7.050
 3510POPC   C4B45850  39.719  12.646   7.178
 3511POPC   NC345851  36.932  15.693   5.572
 3511POPC   PO445852  37.205  15.182   5.303
 3511POPC   GL145853  36.938  15.188   5.736
 3511POPC   GL245854  36.779  15.454   5.973
 3511POPC   C1A45855  36.800  14.974   6.133
 3511POPC   D2A45856  36.818  15.174   6.524
 3511POPC   C3A45857  36.818  14.929   6.900
 3511POPC   C4A45858  37.014  15.169   7.231
 3511POPC   C1B45859  36.410  15.417   6.210
 3511POPC   C2B45860  36.387  15.423   6.616
 3511POPC   C3B45861  36.584  15.358   6.984
 3511POPC   C4B45862  36.545  15.517   7.373
 3512POPC   NC345863  37.380  39.648   5.692
 3512POPC   PO445864  37.239  40.158   5.317
 3512POPC   GL145865  36.995  40.054   5.714
 3512POPC   GL245866  36.833  39.720   5.736
 3512POPC   C1A45867  36.865  40.244   6.135
 3512POPC   D2A45868  36.852  40.057   6.573
 3512POPC   C3A45869  36.746  40.144   7.003
 3512POPC   C4A45870  37.100  40.084   7.266
 3512POPC   C1B45871  37.001  39.766   6.177
 3512POPC   C2B45872  36.912  39.536   6.535
 3512POPC   C3B45873  36.956  39.665   6.926
 3512POPC   C4B45874  36.983  39.570   7.316
 3513POPC   NC345875  43.205  32.647   5.507
 3513POPC   PO445876  43.080  32.058   5.576
 3513POPC   GL145877  43.059  32.292   5.913
 3513POPC   GL245878  42.824  32.586   5.878
 3513POPC   C1A45879  43.335  32.321   6.259
 3513POPC   D2A45880  43.214  32.402   6.663
 3513POPC   C3A45881  43.005  32.109   6.906
 3513POPC   C4A45882  43.198  31.997   7.268
 3513POPC   C1B45883  42.926  32.687   6.305
 3513POPC   C2B45884  42.895  32.808   6.728
 3513POPC   C3B45885  42.894  32.571   7.092
 3513POPC   C4B45886  43.050  32.452   7.519
 3514POPC   NC345887   1.985  16.273   5.521
 3514POPC   PO445888   1.845  15.605   5.456
 3514POPC   GL145889   2.092  15.667   5.812
 3514POPC   GL245890   2.173  16.020   5.916
 3514POPC   C1A45891   1.974  15.697   6.228
 3514POPC   D2A45892   1.932  15.938   6.581
 3514POPC   C3A45893   1.888  15.688   6.919
 3514POPC   C4A45894   1.830  15.776   7.319
 3514POPC   C1B45895   2.167  16.306   6.287
 3514POPC   C2B45896   1.922  16.459   6.674
 3514POPC   C3B45897   1.799  16.252   7.066
 3514POPC   C4B45898   1.943  16.274   7.540
 3515POPC   NC345899  28.984  23.456   5.447
 3515POPC   PO445900  29.384  23.933   5.392
 3515POPC   GL145901  29.316  23.720   5.764
 3515POPC   GL245902  29.014  23.865   5.911
 3515POPC   C1A45903  29.349  23.585   6.168
 3515POPC   D2A45904  29.121  23.749   6.516
 3515POPC   C3A45905  29.317  23.786   6.888
 3515POPC   C4A45906  29.228  23.646   7.307
 3515POPC   C1B45907  28.841  23.514   6.163
 3515POPC   C2B45908  29.009  23.221   6.467
 3515POPC   C3B45909  29.110  23.301   6.891
 3515POPC   C4B45910  28.897  23.246   7.246
 3516POPC   NC345911  31.947   3.327   5.490
 3516POPC   PO445912  32.467   3.706   5.392
 3516POPC   GL145913  32.359   3.456   5.774
 3516POPC   GL245914  32.078   3.664   5.852
 3516POPC   C1A45915  32.164   3.276   6.168
 3516POPC   D2A45916  32.328   3.317   6.580
 3516POPC   C3A45917  32.076   3.214   6.925
 3516POPC   C4A45918  32.116   3.270   7.345
 3516POPC   C1B45919  32.327   3.754   6.226
 3516POPC   C2B45920  32.432   3.829   6.624
 3516POPC   C3B45921  32.170   3.728   6.933
 3516POPC   C4B45922  32.289   3.736   7.311
 3517POPC   NC345923  31.002  43.397   5.510
 3517POPC   PO445924  31.047  42.743   5.112
 3517POPC   GL145925  30.866  42.885   5.593
 3517POPC   GL245926  30.577  43.166   5.683
 3517POPC   C1A45927  30.829  42.926   6.089
 3517POPC   D2A45928  30.972  43.007   6.553
 3517POPC   C3A45929  30.702  42.770   6.870
 3517POPC   C4A45930  30.476  42.975   7.226
 3517POPC   C1B45931  30.691  43.402   6.088
 3517POPC   C2B45932  30.535  43.238   6.464
 3517POPC   C3B45933  30.444  43.320   6.877
 3517POPC   C4B45934  30.547  43.506   7.267
 3518POPC   NC345935  14.755  31.084   5.287
 3518POPC   PO445936  15.240  30.607   5.377
 3518POPC   GL145937  15.071  30.603   5.780
 3518POPC   GL245938  14.902  30.866   5.849
 3518POPC   C1A45939  15.269  30.672   6.209
 3518POPC   D2A45940  15.209  30.778   6.680
 3518POPC   C3A45941  15.329  30.466   7.029
 3518POPC   C4A45942  15.064  30.117   7.215
 3518POPC   C1B45943  14.788  31.081   6.227
 3518POPC   C2B45944  14.943  31.223   6.631
 3518POPC   C3B45945  15.307  31.245   6.923
 3518POPC   C4B45946  15.418  30.980   7.272
 3519POPC   NC345947  42.641   9.658   5.311
 3519POPC   PO445948  42.455  10.332   5.174
 3519POPC   GL145949  42.391   9.995   5.623
 3519POPC   GL245950  42.275   9.651   5.657
 3519POPC   C1A45951  42.562   9.888   6.045
 3519POPC   D2A45952  42.672   9.881   6.476
 3519POPC   C3A45953  42.494   9.798   6.871
 3519POPC   C4A45954  42.669   9.811   7.288
 3519POPC   C1B45955  42.091   9.703   6.068
 3519POPC   C2B45956  42.116   9.609   6.525
 3519POPC   C3B45957  42.004   9.645   6.970
 3519POPC   C4B45958  42.312   9.455   7.222
 3520POPC   NC345959  36.740  28.570   5.263
 3520POPC   PO445960  37.000  27.892   5.305
 3520POPC   GL145961  36.807  28.154   5.688
 3520POPC   GL245962  36.793  28.520   5.757
 3520POPC   C1A45963  36.749  28.214   6.167
 3520POPC   D2A45964  36.784  28.060   6.617
 3520POPC   C3A45965  36.869  28.286   6.983
 3520POPC   C4A45966  36.815  28.178   7.425
 3520POPC   C1B45967  37.071  28.604   6.114
 3520POPC   C2B45968  36.907  28.581   6.538
 3520POPC   C3B45969  36.804  28.798   6.937
 3520POPC   C4B45970  36.938  28.675   7.359
 3521POPC   NC345971  32.988  38.481   5.089
 3521POPC   PO445972  33.074  38.719   5.657
 3521POPC   GL145973  33.191  38.636   6.046
 3521POPC   GL245974  33.029  38.323   5.969
 3521POPC   C1A45975  33.482  38.641   6.409
 3521POPC   D2A45976  33.378  38.462   6.797
 3521POPC   C3A45977  32.990  38.653   6.840
 3521POPC   C4A45978  32.837  38.717   7.234
 3521POPC   C1B45979  33.257  38.180   6.314
 3521POPC   C2B45980  33.015  38.087   6.675
 3521POPC   C3B45981  32.943  38.209   7.076
 3521POPC   C4B45982  33.253  38.272   7.369
 3522POPC   NC345983  13.217  18.591   5.582
 3522POPC   PO445984  12.602  18.416   5.492
 3522POPC   GL145985  12.836  18.306   5.831
 3522POPC   GL245986  12.718  17.982   5.917
 3522POPC   C1A45987  12.857  18.465   6.238
 3522POPC   D2A45988  13.091  18.360   6.607
 3522POPC   C3A45989  12.930  18.481   6.986
 3522POPC   C4A45990  12.735  18.175   7.256
 3522POPC   C1B45991  13.072  17.998   6.209
 3522POPC   C2B45992  13.214  17.865   6.622
 3522POPC   C3B45993  13.217  18.038   7.043
 3522POPC   C4B45994  13.133  17.916   7.475
 3523POPC   NC345995  19.662  27.862   5.229
 3523POPC   PO445996  20.213  27.482   5.318
 3523POPC   GL145997  19.978  27.716   5.741
 3523POPC   GL245998  19.619  27.766   5.845
 3523POPC   C1A45999  19.930  27.850   6.246
 3523POPC   D2A46000  19.889  28.047   6.671
 3523POPC   C3A46001  19.961  27.675   6.941
 3523POPC   C4A46002  19.990  27.441   7.347
 3523POPC   C1B46003  19.429  27.795   6.277
 3523POPC   C2B46004  19.471  27.762   6.738
 3523POPC   C3B46005  19.503  27.593   7.157
 3523POPC   C4B46006  19.436  27.348   7.521
 3524POPC   NC346007  10.469  29.740   5.160
 3524POPC   PO446008  10.224  29.530   5.759
 3524POPC   GL146009  10.426  29.653   6.123
 3524POPC   GL246010  10.529  30.002   6.011
 3524POPC   C1A46011  10.429  29.873   6.505
 3524POPC   D2A46012  10.365  30.311   6.454
 3524POPC   C3A46013  10.284  30.298   6.850
 3524POPC   C4A46014  10.393  29.895   7.049
 3524POPC   C1B46015  10.889  29.955   6.327
 3524POPC   C2B46016  10.881  29.889   6.802
 3524POPC   C3B46017  10.852  29.799   7.260
 3524POPC   C4B46018  10.905  29.932   7.686
 3525POPC   NC346019  32.449  22.814   5.437
 3525POPC   PO446020  31.620  22.726   5.520
 3525POPC   GL146021  31.918  22.773   5.853
 3525POPC   GL246022  32.042  23.055   5.710
 3525POPC   C1A46023  32.093  22.678   6.261
 3525POPC   D2A46024  32.291  22.759   6.660
 3525POPC   C3A46025  32.099  22.706   7.052
 3525POPC   C4A46026  32.311  22.768   7.420
 3525POPC   C1B46027  32.179  23.171   6.124
 3525POPC   C2B46028  32.367  23.271   6.514
 3525POPC   C3B46029  32.259  23.205   6.946
 3525POPC   C4B46030  32.340  23.275   7.347
 3526POPC   NC346031  29.683  11.868   5.359
 3526POPC   PO446032  30.252  12.243   5.429
 3526POPC   GL146033  30.221  12.029   5.813
 3526POPC   GL246034  29.933  11.857   5.816
 3526POPC   C1A46035  30.069  12.215   6.196
 3526POPC   D2A46036  29.883  12.378   6.568
 3526POPC   C3A46037  30.026  12.185   6.935
 3526POPC   C4A46038  30.158  12.192   7.340
 3526POPC   C1B46039  29.672  11.859   6.191
 3526POPC   C2B46040  29.800  11.846   6.601
 3526POPC   C3B46041  29.608  11.913   6.969
 3526POPC   C4B46042  29.639  12.225   7.296
 3527POPC   NC346043   7.330  32.901   5.420
 3527POPC   PO446044   7.922  32.628   5.275
 3527POPC   GL146045   7.668  32.607   5.742
 3527POPC   GL246046   7.365  32.823   5.899
 3527POPC   C1A46047   7.633  32.572   6.209
 3527POPC   D2A46048   7.257  32.730   6.473
 3527POPC   C3A46049   7.389  32.945   6.873
 3527POPC   C4A46050   7.621  32.869   7.274
 3527POPC   C1B46051   7.212  33.193   6.091
 3527POPC   C2B46052   7.136  33.271   6.520
 3527POPC   C3B46053   7.045  33.404   6.932
 3527POPC   C4B46054   7.188  33.172   7.292
 3528POPC   NC346055  35.549   1.396   5.455
 3528POPC   PO446056  36.272   1.305   5.376
 3528POPC   GL146057  36.156   1.076   5.732
 3528POPC   GL246058  35.792   0.908   5.679
 3528POPC   C1A46059  36.381   1.067   6.159
 3528POPC   D2A46060  36.280   1.285   6.559
 3528POPC   C3A46061  36.417   1.370   6.988
 3528POPC   C4A46062  36.083   1.498   7.238
 3528POPC   C1B46063  35.946   0.788   6.108
 3528POPC   C2B46064  36.113   0.792   6.528
 3528POPC   C3B46065  36.037   0.993   6.929
 3528POPC   C4B46066  36.176   0.961   7.336
 3529POPC   NC346067  28.425  14.090   5.482
 3529POPC   PO446068  28.780  14.694   5.595
 3529POPC   GL146069  28.418  14.557   5.818
 3529POPC   GL246070  28.436  14.228   5.961
 3529POPC   C1A46071  28.318  14.622   6.268
 3529POPC   D2A46072  28.468  14.490   6.687
 3529POPC   C3A46073  28.273  14.670   7.072
 3529POPC   C4A46074  28.287  14.590   7.525
 3529POPC   C1B46075  28.078  14.127   6.207
 3529POPC   C2B46076  27.988  14.238   6.622
 3529POPC   C3B46077  28.222  14.158   7.013
 3529POPC   C4B46078  28.628  14.317   7.208
 3530POPC   NC346079   9.559  20.332   5.263
 3530POPC   PO446080   9.904  19.699   5.392
 3530POPC   GL146081   9.762  19.741   5.790
 3530POPC   GL246082   9.580  20.063   5.743
 3530POPC   C1A46083   9.964  19.869   6.186
 3530POPC   D2A46084   9.783  20.034   6.573
 3530POPC   C3A46085   9.711  19.681   6.821
 3530POPC   C4A46086  10.090  19.545   6.998
 3530POPC   C1B46087   9.458  19.924   6.160
 3530POPC   C2B46088   9.286  19.860   6.557
 3530POPC   C3B46089   9.361  20.069   6.928
 3530POPC   C4B46090   9.242  20.000   7.353
 3531POPC   NC346091   4.099   3.203   5.493
 3531POPC   PO446092   4.689   3.567   5.688
 3531POPC   GL146093   4.245   3.592   5.832
 3531POPC   GL246094   4.049   3.894   5.820
 3531POPC   C1A46095   4.046   3.471   6.194
 3531POPC   D2A46096   4.253   3.357   6.562
 3531POPC   C3A46097   4.265   3.647   6.890
 3531POPC   C4A46098   4.433   3.534   7.296
 3531POPC   C1B46099   4.121   3.973   6.242
 3531POPC   C2B46100   4.116   4.177   6.634
 3531POPC   C3B46101   3.935   4.024   6.986
 3531POPC   C4B46102   3.992   3.819   7.341
 3532POPC   NC346103   4.459   4.730   5.117
 3532POPC   PO446104   4.388   5.412   5.308
 3532POPC   GL146105   4.306   5.202   5.723
 3532POPC   GL246106   3.961   5.231   5.827
 3532POPC   C1A46107   4.409   5.039   6.154
 3532POPC   D2A46108   4.295   5.158   6.587
 3532POPC   C3A46109   4.385   5.002   7.014
 3532POPC   C4A46110   4.666   4.972   7.388
 3532POPC   C1B46111   4.094   5.492   6.182
 3532POPC   C2B46112   4.109   5.640   6.609
 3532POPC   C3B46113   4.052   5.394   6.985
 3532POPC   C4B46114   3.912   5.263   7.390
 3533POPC   NC346115  13.298   3.384   5.382
 3533POPC   PO446116  13.727   3.866   5.388
 3533POPC   GL146117  13.763   3.768   5.834
 3533POPC   GL246118  13.398   3.684   5.779
 3533POPC   C1A46119  14.024   3.653   6.258
 3533POPC   D2A46120  14.069   3.350   6.651
 3533POPC   C3A46121  13.828   3.512   6.998
 3533POPC   C4A46122  13.458   3.361   7.219
 3533POPC   C1B46123  13.198   3.854   6.104
 3533POPC   C2B46124  13.287   3.746   6.516
 3533POPC   C3B46125  13.235   3.936   6.888
 3533POPC   C4B46126  13.471   3.878   7.240
 3534POPC   NC346127  26.235  33.971   5.272
 3534POPC   PO446128  26.190  34.670   5.312
 3534POPC   GL146129  26.011  34.672   5.727
 3534POPC   GL246130  26.323  34.538   5.812
 3534POPC   C1A46131  25.782  34.557   6.145
 3534POPC   D2A46132  25.683  34.304   6.528
 3534POPC   C3A46133  25.824  34.432   6.922
 3534POPC   C4A46134  25.934  34.875   7.050
 3534POPC   C1B46135  26.247  34.718   6.175
 3534POPC   C2B46136  26.136  34.612   6.569
 3534POPC   C3B46137  26.364  34.613   6.947
 3534POPC   C4B46138  26.378  34.821   7.336
 3535POPC   NC346139  24.412  10.192   5.666
 3535POPC   PO446140  24.683  10.834   5.632
 3535POPC   GL146141  24.459  10.646   5.912
 3535POPC   GL246142  24.695  10.406   6.040
 3535POPC   C1A46143  24.496  10.829   6.296
 3535POPC   D2A46144  24.739  10.722   6.633
 3535POPC   C3A46145  24.608  10.425   6.929
 3535POPC   C4A46146  24.547  10.626   7.308
 3535POPC   C1B46147  24.407  10.340   6.375
 3535POPC   C2B46148  24.143  10.333   6.722
 3535POPC   C3B46149  24.146  10.349   7.202
 3535POPC   C4B46150  24.379  10.265   7.620
 3536POPC   NC346151  25.003  24.635   5.459
 3536POPC   PO446152  25.628  24.393   5.322
 3536POPC   GL146153  25.401  24.427   5.710
 3536POPC   GL246154  25.466  24.786   5.724
 3536POPC   C1A46155  25.217  24.328   6.123
 3536POPC   D2A46156  25.416  24.190   6.511
 3536POPC   C3A46157  25.263  24.286   6.925
 3536POPC   C4A46158  25.529  24.313   7.288
 3536POPC   C1B46159  25.243  24.855   6.102
 3536POPC   C2B46160  25.078  24.690   6.472
 3536POPC   C3B46161  25.237  24.782   6.841
 3536POPC   C4B46162  25.176  24.687   7.252
 3537POPC   NC346163   2.408   5.330   5.432
 3537POPC   PO446164   2.629   4.809   5.761
 3537POPC   GL146165   2.601   5.257   5.907
 3537POPC   GL246166   2.916   5.323   5.783
 3537POPC   C1A46167   2.654   5.377   6.334
 3537POPC   D2A46168   2.718   5.085   6.653
 3537POPC   C3A46169   2.547   5.193   7.051
 3537POPC   C4A46170   2.523   5.372   7.468
 3537POPC   C1B46171   3.053   5.090   6.183
 3537POPC   C2B46172   3.221   5.226   6.579
 3537POPC   C3B46173   3.050   5.237   7.012
 3537POPC   C4B46174   2.887   5.007   7.387
 3538POPC   NC346175  27.853  42.425   5.096
 3538POPC   PO446176  27.246  42.482   5.208
 3538POPC   GL146177  27.503  42.491   5.616
 3538POPC   GL246178  27.905  42.545   5.606
 3538POPC   C1A46179  27.370  42.530   6.079
 3538POPC   D2A46180  27.271  42.654   6.551
 3538POPC   C3A46181  27.412  42.474   6.955
 3538POPC   C4A46182  27.368  42.093   7.222
 3538POPC   C1B46183  27.889  42.565   6.082
 3538POPC   C2B46184  27.683  42.347   6.457
 3538POPC   C3B46185  27.800  42.147   6.858
 3538POPC   C4B46186  27.903  42.381   7.218
 3539POPC   NC346187  38.065   0.207   5.465
 3539POPC   PO446188  37.915   0.759   5.143
 3539POPC   GL146189  37.769   0.615   5.626
 3539POPC   GL246190  37.410   0.463   5.659
 3539POPC   C1A46191  37.772   0.336   6.050
 3539POPC   D2A46192  37.599   0.375   6.480
 3539POPC   C3A46193  37.744   0.258   6.901
 3539POPC   C4A46194  37.612   0.390   7.293
 3539POPC   C1B46195  37.381   0.681   6.077
 3539POPC   C2B46196  37.481   0.888   6.491
 3539POPC   C3B46197  37.458   0.733   6.906
 3539POPC   C4B46198  37.178   0.698   7.256
 3540POPC   NC346199   4.331  15.624   5.486
 3540POPC   PO446200   4.047  16.216   5.282
 3540POPC   GL146201   4.231  16.158   5.751
 3540POPC   GL246202   4.284  15.828   5.951
 3540POPC   C1A46203   4.095  16.246   6.216
 3540POPC   D2A46204   4.164  16.353   6.654
 3540POPC   C3A46205   4.087  16.042   6.995
 3540POPC   C4A46206   4.325  15.913   7.352
 3540POPC   C1B46207   4.489  15.938   6.352
 3540POPC   C2B46208   4.501  15.831   6.775
 3540POPC   C3B46209   4.755  15.754   7.137
 3540POPC   C4B46210   4.740  15.694   7.582
 3541POPC   NC346211  38.387  38.038   5.354
 3541POPC   PO446212  38.285  37.433   5.340
 3541POPC   GL146213  38.516  37.597   5.705
 3541POPC   GL246214  38.621  37.933   5.804
 3541POPC   C1A46215  38.367  37.639   6.147
 3541POPC   D2A46216  38.134  37.683   6.530
 3541POPC   C3A46217  38.348  37.547   6.900
 3541POPC   C4A46218  38.328  37.629   7.339
 3541POPC   C1B46219  38.814  37.883   6.189
 3541POPC   C2B46220  38.685  37.813   6.600
 3541POPC   C3B46221  38.811  37.790   7.024
 3541POPC   C4B46222  38.829  38.093   7.359
 3542POPC   NC346223  30.361  27.287   5.557
 3542POPC   PO446224  31.003  27.139   5.620
 3542POPC   GL146225  30.785  27.460   5.854
 3542POPC   GL246226  30.676  27.772   5.669
 3542POPC   C1A46227  30.765  27.454   6.295
 3542POPC   D2A46228  30.535  27.380   6.665
 3542POPC   C3A46229  30.809  27.446   7.005
 3542POPC   C4A46230  30.630  27.331   7.364
 3542POPC   C1B46231  30.515  27.873   6.074
 3542POPC   C2B46232  30.594  27.900   6.520
 3542POPC   C3B46233  30.484  27.861   6.946
 3542POPC   C4B46234  30.764  27.881   7.293
 3543POPC   NC346235  19.424  39.070   5.403
 3543POPC   PO446236  18.910  39.484   5.396
 3543POPC   GL146237  18.973  39.348   5.791
 3543POPC   GL246238  19.100  39.040   5.798
 3543POPC   C1A46239  19.168  39.437   6.198
 3543POPC   D2A46240  19.009  39.377   6.622
 3543POPC   C3A46241  19.220  39.117   6.893
 3543POPC   C4A46242  19.294  39.087   7.317
 3543POPC   C1B46243  19.021  38.953   6.251
 3543POPC   C2B46244  18.838  38.784   6.619
 3543POPC   C3B46245  18.687  39.020   6.942
 3543POPC   C4B46246  18.781  39.012   7.352
 3544POPC   NC346247  35.465  32.738   5.235
 3544POPC   PO446248  34.852  32.775   5.524
 3544POPC   GL146249  35.173  32.940   5.807
 3544POPC   GL246250  35.348  33.299   5.825
 3544POPC   C1A46251  35.227  32.772   6.209
 3544POPC   D2A46252  35.347  32.890   6.608
 3544POPC   C3A46253  35.163  32.740   6.973
 3544POPC   C4A46254  35.529  32.766   7.261
 3544POPC   C1B46255  35.270  33.320   6.301
 3544POPC   C2B46256  35.299  33.379   6.771
 3544POPC   C3B46257  35.221  33.215   7.146
 3544POPC   C4B46258  35.226  33.373   7.586
 3545POPC   NC346259  32.261   4.791   5.468
 3545POPC   PO446260  32.498   5.442   5.462
 3545POPC   GL146261  32.350   5.168   5.817
 3545POPC   GL246262  31.989   5.029   5.846
 3545POPC   C1A46263  32.403   4.920   6.202
 3545POPC   D2A46264  32.274   4.772   6.624
 3545POPC   C3A46265  32.474   4.988   7.033
 3545POPC   C4A46266  32.550   4.960   7.526
 3545POPC   C1B46267  31.836   5.172   6.275
 3545POPC   C2B46268  31.833   5.093   6.721
 3545POPC   C3B46269  31.966   4.805   7.028
 3545POPC   C4B46270  32.088   5.106   7.340
 3546POPC   NC346271  14.384  38.766   5.417
 3546POPC   PO446272  14.242  38.011   5.426
 3546POPC   GL146273  14.275  38.396   5.785
 3546POPC   GL246274  14.552  38.660   5.883
 3546POPC   C1A46275  14.206  38.487   6.228
 3546POPC   D2A46276  14.018  38.319   6.600
 3546POPC   C3A46277  14.265  38.396   6.946
 3546POPC   C4A46278  14.161  38.396   7.351
 3546POPC   C1B46279  14.817  38.701   6.205
 3546POPC   C2B46280  14.605  38.621   6.565
 3546POPC   C3B46281  14.565  38.822   6.954
 3546POPC   C4B46282  14.664  38.649   7.305
 3547POPC   NC346283  21.734  24.928   5.402
 3547POPC   PO446284  20.987  24.888   5.419
 3547POPC   GL146285  21.128  24.606   5.801
 3547POPC   GL246286  21.412  24.379   5.690
 3547POPC   C1A46287  21.216  24.460   6.236
 3547POPC   D2A46288  21.061  24.502   6.643
 3547POPC   C3A46289  21.416  24.446   6.888
 3547POPC   C4A46290  21.552  24.684   7.262
 3547POPC   C1B46291  21.559  24.141   6.055
 3547POPC   C2B46292  21.501  24.065   6.499
 3547POPC   C3B46293  21.742  24.019   6.889
 3547POPC   C4B46294  21.582  24.162   7.285
 3548POPC   NC346295  20.485  27.875   5.265
 3548POPC   PO446296  20.446  28.361   5.615
 3548POPC   GL146297  20.498  28.378   5.992
 3548POPC   GL246298  20.245  28.121   6.001
 3548POPC   C1A46299  20.683  28.592   6.328
 3548POPC   D2A46300  20.811  28.391   6.683
 3548POPC   C3A46301  20.660  28.468   7.059
 3548POPC   C4A46302  20.437  28.786   7.192
 3548POPC   C1B46303  20.318  28.183   6.429
 3548POPC   C2B46304  20.418  28.031   6.842
 3548POPC   C3B46305  20.782  27.967   7.100
 3548POPC   C4B46306  21.136  28.055   7.365
 3549POPC   NC346307   3.302  19.528   5.103
 3549POPC   PO446308   3.455  19.948   5.620
 3549POPC   GL146309   3.687  19.724   5.894
 3549POPC   GL246310   3.959  19.972   5.795
 3549POPC   C1A46311   3.450  19.775   6.284
 3549POPC   D2A46312   3.337  20.069   6.558
 3549POPC   C3A46313   3.509  19.889   6.883
 3549POPC   C4A46314   3.599  19.899   7.274
 3549POPC   C1B46315   3.754  20.157   6.156
 3549POPC   C2B46316   3.863  20.092   6.541
 3549POPC   C3B46317   4.006  20.065   6.958
 3549POPC   C4B46318   3.799  20.362   7.164
 3550POPC   NC346319  17.173  24.742   5.076
 3550POPC   PO446320  17.166  24.261   5.496
 3550POPC   GL146321  17.441  24.395   5.833
 3550POPC   GL246322  17.414  24.759   5.894
 3550POPC   C1A46323  17.633  24.449   6.235
 3550POPC   D2A46324  17.778  24.560   6.630
 3550POPC   C3A46325  17.597  24.270   6.950
 3550POPC   C4A46326  17.559  24.321   7.428
 3550POPC   C1B46327  17.432  24.922   6.316
 3550POPC   C2B46328  17.304  24.731   6.683
 3550POPC   C3B46329  17.219  24.826   7.092
 3550POPC   C4B46330  17.543  24.920   7.374
 3551POPC   NC346331  29.479  22.509   5.216
 3551POPC   PO446332  29.895  21.971   5.351
 3551POPC   GL146333  29.986  22.165   5.763
 3551POPC   GL246334  29.744  22.186   6.013
 3551POPC   C1A46335  30.233  22.393   6.064
 3551POPC   D2A46336  30.169  22.275   6.491
 3551POPC   C3A46337  29.956  22.447   6.873
 3551POPC   C4A46338  30.118  22.514   7.313
 3551POPC   C1B46339  29.641  22.142   6.456
 3551POPC   C2B46340  29.908  21.925   6.754
 3551POPC   C3B46341  30.029  22.014   7.133
 3551POPC   C4B46342  29.676  22.145   7.302
 3552POPC   NC346343  42.834   5.506   5.392
 3552POPC   PO446344  43.310   4.969   5.268
 3552POPC   GL146345  43.205   4.946   5.698
 3552POPC   GL246346  42.876   4.816   5.718
 3552POPC   C1A46347  43.039   5.206   6.037
 3552POPC   D2A46348  43.186   5.393   6.438
 3552POPC   C3A46349  43.291   5.186   6.827
 3552POPC   C4A46350  43.170   5.172   7.225
 3552POPC   C1B46351  42.843   4.746   6.156
 3552POPC   C2B46352  43.013   4.870   6.525
 3552POPC   C3B46353  42.877   4.837   6.943
 3552POPC   C4B46354  43.096   4.682   7.278
 3553POPC   NC346355  23.409  42.024   5.395
 3553POPC   PO446356  22.901  42.427   5.332
 3553POPC   GL146357  22.924  42.376   5.777
 3553POPC   GL246358  22.627  42.457   5.939
 3553POPC   C1A46359  23.068  42.250   6.210
 3553POPC   D2A46360  23.303  42.321   6.632
 3553POPC   C3A46361  23.360  42.551   6.991
 3553POPC   C4A46362  23.325  42.456   7.430
 3553POPC   C1B46363  22.552  42.255   6.332
 3553POPC   C2B46364  22.829  42.154   6.665
 3553POPC   C3B46365  22.929  42.302   7.089
 3553POPC   C4B46366  22.965  42.052   7.431
 3554POPC   NC346367  38.601  36.226   5.184
 3554POPC   PO446368  38.185  35.762   5.631
 3554POPC   GL146369  38.459  35.996   5.971
 3554POPC   GL246370  38.530  36.372   5.959
 3554POPC   C1A46371  38.538  35.975   6.403
 3554POPC   D2A46372  38.672  36.282   6.722
 3554POPC   C3A46373  38.751  35.979   6.999
 3554POPC   C4A46374  38.458  35.771   7.196
 3554POPC   C1B46375  38.285  36.405   6.377
 3554POPC   C2B46376  38.130  36.335   6.799
 3554POPC   C3B46377  38.353  36.262   7.180
 3554POPC   C4B46378  38.472  36.429   7.571
 3555POPC   NC346379  25.331   4.552   5.516
 3555POPC   PO446380  25.132   5.158   5.332
 3555POPC   GL146381  25.235   4.994   5.779
 3555POPC   GL246382  24.978   4.710   5.849
 3555POPC   C1A46383  25.372   5.266   6.160
 3555POPC   D2A46384  25.607   5.367   6.574
 3555POPC   C3A46385  25.541   5.145   6.974
 3555POPC   C4A46386  25.648   4.822   7.274
 3555POPC   C1B46387  24.987   4.940   6.234
 3555POPC   C2B46388  25.269   4.947   6.559
 3555POPC   C3B46389  25.048   5.031   6.929
 3555POPC   C4B46390  25.136   4.924   7.288
 3556POPC   NC346391   3.349  22.871   5.547
 3556POPC   PO446392   4.061  22.822   5.584
 3556POPC   GL146393   3.797  23.021   5.881
 3556POPC   GL246394   3.433  23.048   6.016
 3556POPC   C1A46395   3.842  22.928   6.299
 3556POPC   D2A46396   3.556  22.915   6.618
 3556POPC   C3A46397   3.818  22.872   6.910
 3556POPC   C4A46398   3.772  23.017   7.278
 3556POPC   C1B46399   3.338  22.624   6.255
 3556POPC   C2B46400   3.418  22.423   6.695
 3556POPC   C3B46401   3.467  22.596   7.150
 3556POPC   C4B46402   3.350  22.875   7.497
 3557POPC   NC346403  41.814  14.912   5.335
 3557POPC   PO446404  42.476  14.837   5.210
 3557POPC   GL146405  42.355  15.088   5.646
 3557POPC   GL246406  42.628  15.294   5.804
 3557POPC   C1A46407  42.280  15.130   6.137
 3557POPC   D2A46408  42.451  15.252   6.558
 3557POPC   C3A46409  42.112  15.215   6.883
 3557POPC   C4A46410  42.074  15.027   7.308
 3557POPC   C1B46411  42.705  14.860   6.011
 3557POPC   C2B46412  42.769  14.735   6.482
 3557POPC   C3B46413  42.691  14.952   6.909
 3557POPC   C4B46414  42.540  15.338   7.128
 3558POPC   NC346415  34.715  31.587   5.376
 3558POPC   PO446416  34.484  31.063   5.679
 3558POPC   GL146417  34.547  31.486   5.841
 3558POPC   GL246418  34.255  31.654   5.768
 3558POPC   C1A46419  34.781  31.622   6.170
 3558POPC   D2A46420  34.936  31.335   6.510
 3558POPC   C3A46421  34.807  31.356   6.924
 3558POPC   C4A46422  34.800  31.014   7.224
 3558POPC   C1B46423  34.104  31.466   6.161
 3558POPC   C2B46424  33.947  31.465   6.597
 3558POPC   C3B46425  34.307  31.447   6.834
 3558POPC   C4B46426  34.420  31.359   7.235
 3559POPC   NC346427  22.665  10.745   5.424
 3559POPC   PO446428  23.172  10.298   5.367
 3559POPC   GL146429  23.026  10.404   5.808
 3559POPC   GL246430  22.807  10.693   5.909
 3559POPC   C1A46431  23.097  10.472   6.271
 3559POPC   D2A46432  23.200  10.386   6.675
 3559POPC   C3A46433  23.026  10.585   6.991
 3559POPC   C4A46434  23.136  10.610   7.420
 3559POPC   C1B46435  22.634  10.298   6.137
 3559POPC   C2B46436  22.782  10.104   6.535
 3559POPC   C3B46437  22.778  10.115   6.986
 3559POPC   C4B46438  22.656  10.422   7.296
 3560POPC   NC346439   6.072  44.609   5.307
 3560POPC   PO446440   5.404  44.557   5.489
 3560POPC   GL146441   5.651  44.490   5.898
 3560POPC   GL246442   6.025  44.472   5.854
 3560POPC   C1A46443   5.839  44.577   6.334
 3560POPC   D2A46444   5.911  44.962   6.535
 3560POPC   C3A46445   5.705   0.022   6.921
 3560POPC   C4A46446   5.814  44.790   7.298
 3560POPC   C1B46447   6.246  44.282   6.208
 3560POPC   C2B46448   6.091  44.176   6.611
 3560POPC   C3B46449   5.928  44.461   6.888
 3560POPC   C4B46450   6.226  44.478   7.210
 3561POPC   NC346451  44.114  44.019   5.413
 3561POPC   PO446452  43.596  43.882   5.627
 3561POPC   GL146453  43.750  44.081   5.970
 3561POPC   GL246454  44.098  44.179   5.915
 3561POPC   C1A46455  43.850  44.124   6.396
 3561POPC   D2A46456  43.885  44.329   6.758
 3561POPC   C3A46457  43.943  44.056   7.110
 3561POPC   C4A46458  43.655  44.041   7.476
 3561POPC   C1B46459  44.172  43.794   6.185
 3561POPC   C2B46460  44.045  43.664   6.629
 3561POPC   C3B46461  44.294  43.685   7.049
 3561POPC   C4B46462  44.448  43.932   7.405
 3562POPC   NC346463   8.234  14.583   5.465
 3562POPC   PO446464   8.037  13.992   5.740
 3562POPC   GL146465   8.219  14.350   5.935
 3562POPC   GL246466   8.087  14.729   5.934
 3562POPC   C1A46467   8.243  14.377   6.354
 3562POPC   D2A46468   7.964  14.499   6.656
 3562POPC   C3A46469   8.107  14.387   7.051
 3562POPC   C4A46470   8.002  14.448   7.462
 3562POPC   C1B46471   8.268  14.892   6.335
 3562POPC   C2B46472   8.373  14.815   6.783
 3562POPC   C3B46473   8.381  14.805   7.243
 3562POPC   C4B46474   8.421  14.718   7.713
 3563POPC   NC346475  17.841   3.521   5.407
 3563POPC   PO446476  17.220   3.194   5.418
 3563POPC   GL146477  17.399   3.250   5.833
 3563POPC   GL246478  17.777   3.282   5.870
 3563POPC   C1A46479  17.308   3.421   6.234
 3563POPC   D2A46480  17.093   3.450   6.615
 3563POPC   C3A46481  17.255   3.585   6.996
 3563POPC   C4A46482  17.412   3.438   7.382
 3563POPC   C1B46483  17.778   3.638   6.192
 3563POPC   C2B46484  17.596   3.645   6.608
 3563POPC   C3B46485  17.757   3.605   7.022
 3563POPC   C4B46486  17.898   3.580   7.459
 3564POPC   NC346487   8.836  17.488   5.514
 3564POPC   PO446488   9.500  17.596   5.378
 3564POPC   GL146489   9.317  17.539   5.755
 3564POPC   GL246490   9.134  17.829   5.802
 3564POPC   C1A46491   9.389  17.565   6.197
 3564POPC   D2A46492   9.363  17.358   6.594
 3564POPC   C3A46493   9.342  17.630   6.947
 3564POPC   C4A46494   9.081  17.572   7.332
 3564POPC   C1B46495   8.895  17.693   6.173
 3564POPC   C2B46496   8.916  17.648   6.626
 3564POPC   C3B46497   8.753  17.797   7.027
 3564POPC   C4B46498   8.604  17.708   7.487
 3565POPC   NC346499  21.886   0.870   5.516
 3565POPC   PO446500  21.956   1.556   5.550
 3565POPC   GL146501  22.215   1.283   5.812
 3565POPC   GL246502  22.250   0.919   5.858
 3565POPC   C1A46503  22.372   1.302   6.217
 3565POPC   D2A46504  22.157   1.382   6.600
 3565POPC   C3A46505  22.350   1.532   6.947
 3565POPC   C4A46506  22.282   1.388   7.349
 3565POPC   C1B46507  22.071   0.850   6.243
 3565POPC   C2B46508  22.367   0.905   6.556
 3565POPC   C3B46509  22.313   1.022   6.959
 3565POPC   C4B46510  22.000   0.797   7.139
 3566POPC   NC346511   2.977   6.882   5.555
 3566POPC   PO446512   2.325   6.647   5.656
 3566POPC   GL146513   2.629   6.363   5.855
 3566POPC   GL246514   2.941   6.547   5.950
 3566POPC   C1A46515   2.626   6.369   6.306
 3566POPC   D2A46516   2.805   6.602   6.632
 3566POPC   C3A46517   2.538   6.889   6.878
 3566POPC   C4A46518   2.641   6.719   7.259
 3566POPC   C1B46519   2.872   6.917   6.203
 3566POPC   C2B46520   2.939   7.094   6.596
 3566POPC   C3B46521   3.043   6.910   6.996
 3566POPC   C4B46522   3.278   6.893   7.370
 3567POPC   NC346523  14.781  24.103   5.440
 3567POPC   PO446524  14.238  24.671   5.419
 3567POPC   GL146525  14.422  24.414   5.705
 3567POPC   GL246526  14.228  24.157   5.837
 3567POPC   C1A46527  14.577  24.400   6.147
 3567POPC   D2A46528  14.570  24.158   6.556
 3567POPC   C3A46529  14.480  24.459   6.881
 3567POPC   C4A46530  14.547  24.650   7.274
 3567POPC   C1B46531  14.181  24.098   6.227
 3567POPC   C2B46532  14.040  24.047   6.583
 3567POPC   C3B46533  14.225  24.025   6.950
 3567POPC   C4B46534  14.208  24.282   7.302
 3568POPC   NC346535  36.038  11.471   5.375
 3568POPC   PO446536  36.099  10.786   5.391
 3568POPC   GL146537  35.969  11.054   5.783
 3568POPC   GL246538  36.138  11.393   5.854
 3568POPC   C1A46539  36.012  11.185   6.271
 3568POPC   D2A46540  36.255  11.382   6.599
 3568POPC   C3A46541  36.139  11.121   6.937
 3568POPC   C4A46542  35.885  11.206   7.277
 3568POPC   C1B46543  35.947  11.698   6.155
 3568POPC   C2B46544  35.970  11.825   6.590
 3568POPC   C3B46545  36.049  11.651   7.005
 3568POPC   C4B46546  35.888  11.730   7.417
 3569POPC   NC346547  36.343  35.038   5.501
 3569POPC   PO446548  36.004  35.488   5.730
 3569POPC   GL146549  36.404  35.355   5.892
 3569POPC   GL246550  36.510  34.969   5.982
 3569POPC   C1A46551  36.555  35.391   6.274
 3569POPC   D2A46552  36.451  35.216   6.632
 3569POPC   C3A46553  36.315  35.556   6.830
 3569POPC   C4A46554  36.295  35.581   7.233
 3569POPC   C1B46555  36.102  35.077   6.199
 3569POPC   C2B46556  35.935  35.285   6.571
 3569POPC   C3B46557  36.033  35.163   7.000
 3569POPC   C4B46558  35.726  35.017   7.252
 3570POPC   NC346559  13.732  44.193   5.486
 3570POPC   PO446560  13.426  43.730   5.491
 3570POPC   GL146561  13.494  43.918   5.878
 3570POPC   GL246562  13.825  43.891   5.912
 3570POPC   C1A46563  13.504  43.893   6.314
 3570POPC   D2A46564  13.816  43.918   6.562
 3570POPC   C3A46565  13.674  43.795   6.911
 3570POPC   C4A46566  13.529  44.010   7.239
 3570POPC   C1B46567  13.839  43.527   6.190
 3570POPC   C2B46568  14.025  43.414   6.559
 3570POPC   C3B46569  13.951  43.349   7.000
 3570POPC   C4B46570  13.786  43.560   7.346
 3571POPC   NC346571  26.262  19.148   5.060
 3571POPC   PO446572  25.871  18.764   5.517
 3571POPC   GL146573  25.853  18.965   5.916
 3571POPC   GL246574  26.191  19.098   6.010
 3571POPC   C1A46575  25.790  19.263   6.242
 3571POPC   D2A46576  25.867  19.405   6.672
 3571POPC   C3A46577  26.034  19.089   6.901
 3571POPC   C4A46578  25.831  18.927   7.221
 3571POPC   C1B46579  26.254  19.433   6.306
 3571POPC   C2B46580  26.378  19.480   6.728
 3571POPC   C3B46581  26.309  19.431   7.159
 3571POPC   C4B46582  26.277  19.077   7.460
 3572POPC   NC346583   1.553  28.320   5.301
 3572POPC   PO446584   0.886  28.469   5.334
 3572POPC   GL146585   1.236  28.416   5.675
 3572POPC   GL246586   1.017  28.232   5.831
 3572POPC   C1A46587   1.388  28.428   6.112
 3572POPC   D2A46588   1.202  28.352   6.515
 3572POPC   C3A46589   1.483  28.199   6.808
 3572POPC   C4A46590   1.372  28.422   7.157
 3572POPC   C1B46591   1.065  27.993   6.188
 3572POPC   C2B46592   1.068  27.839   6.607
 3572POPC   C3B46593   1.042  27.994   7.001
 3572POPC   C4B46594   0.906  28.139   7.357
 3573POPC   NC346595  15.361  31.840   5.552
 3573POPC   PO446596  15.416  32.349   5.100
 3573POPC   GL146597  15.332  32.357   5.669
 3573POPC   GL246598  15.031  32.429   5.891
 3573POPC   C1A46599  15.443  32.356   6.149
 3573POPC   D2A46600  15.444  32.118   6.547
 3573POPC   C3A46601  15.169  32.231   6.900
 3573POPC   C4A46602  15.338  32.215   7.293
 3573POPC   C1B46603  15.009  32.102   6.229
 3573POPC   C2B46604  14.811  32.017   6.602
 3573POPC   C3B46605  14.677  32.028   7.023
 3573POPC   C4B46606  14.938  31.914   7.360
 3574POPC   NC346607  21.333  36.459   5.453
 3574POPC   PO446608  21.265  35.752   5.292
 3574POPC   GL146609  21.450  35.928   5.671
 3574POPC   GL246610  21.128  36.051   5.725
 3574POPC   C1A46611  21.621  35.884   6.132
 3574POPC   D2A46612  21.641  35.746   6.584
 3574POPC   C3A46613  21.568  36.054   6.954
 3574POPC   C4A46614  21.504  36.507   7.137
 3574POPC   C1B46615  21.124  35.818   6.117
 3574POPC   C2B46616  21.128  35.908   6.566
 3574POPC   C3B46617  21.025  35.782   6.994
 3574POPC   C4B46618  21.206  35.594   7.365
 3575POPC   NC346619   5.375  40.623   5.449
 3575POPC   PO446620   4.811  40.917   5.467
 3575POPC   GL146621   4.959  40.700   5.854
 3575POPC   GL246622   5.325  40.699   5.946
 3575POPC   C1A46623   4.985  40.712   6.329
 3575POPC   D2A46624   5.281  40.865   6.657
 3575POPC   C3A46625   5.235  40.687   7.060
 3575POPC   C4A46626   4.934  40.643   7.341
 3575POPC   C1B46627   5.418  41.080   6.196
 3575POPC   C2B46628   5.707  41.146   6.578
 3575POPC   C3B46629   5.509  41.232   6.981
 3575POPC   C4B46630   5.332  41.111   7.350
 3576POPC   NC346631   8.430  23.810   5.492
 3576POPC   PO446632   7.940  23.397   5.454
 3576POPC   GL146633   8.210  23.489   5.825
 3576POPC   GL246634   8.189  23.858   5.938
 3576POPC   C1A46635   8.074  23.486   6.255
 3576POPC   D2A46636   8.190  23.777   6.559
 3576POPC   C3A46637   8.093  23.619   6.942
 3576POPC   C4A46638   8.279  23.495   7.294
 3576POPC   C1B46639   8.557  23.724   6.167
 3576POPC   C2B46640   8.729  23.816   6.556
 3576POPC   C3B46641   8.644  23.707   6.980
 3576POPC   C4B46642   8.599  23.831   7.422
 3577POPC   NC346643  31.586  23.226   5.448
 3577POPC   PO446644  31.219  23.887   5.491
 3577POPC   GL146645  31.260  23.744   5.886
 3577POPC   GL246646  31.144  23.424   5.834
 3577POPC   C1A46647  31.420  23.837   6.298
 3577POPC   D2A46648  31.518  23.630   6.667
 3577POPC   C3A46649  31.539  23.820   7.032
 3577POPC   C4A46650  31.260  23.980   7.296
 3577POPC   C1B46651  31.305  23.329   6.263
 3577POPC   C2B46652  31.249  23.204   6.702
 3577POPC   C3B46653  31.175  23.418   7.113
 3577POPC   C4B46654  31.495  23.478   7.424
 3578POPC   NC346655   0.948  36.092   5.676
 3578POPC   PO446656   0.514  36.444   5.302
 3578POPC   GL146657   0.467  36.292   5.743
 3578POPC   GL246658   0.136  36.452   5.817
 3578POPC   C1A46659   0.396  36.021   6.103
 3578POPC   D2A46660   0.548  36.031   6.527
 3578POPC   C3A46661   0.461  36.098   6.982
 3578POPC   C4A46662   0.675  36.133   7.409
 3578POPC   C1B46663   0.107  36.383   6.272
 3578POPC   C2B46664   0.049  36.204   6.656
 3578POPC   C3B46665   0.116  36.449   6.976
 3578POPC   C4B46666   0.241  36.384   7.362
 3579POPC   NC346667  15.035   7.872   5.401
 3579POPC   PO446668  15.506   8.410   5.385
 3579POPC   GL146669  15.217   8.364   5.749
 3579POPC   GL246670  15.237   8.028   5.832
 3579POPC   C1A46671  14.963   8.370   6.152
 3579POPC   D2A46672  14.887   8.590   6.566
 3579POPC   C3A46673  14.949   8.385   6.984
 3579POPC   C4A46674  14.991   8.206   7.451
 3579POPC   C1B46675  15.350   8.072   6.233
 3579POPC   C2B46676  15.156   8.117   6.602
 3579POPC   C3B46677  15.406   8.200   6.931
 3579POPC   C4B46678  15.441   8.042   7.327
 3580POPC   NC346679  26.331  16.602   5.491
 3580POPC   PO446680  25.933  17.132   5.188
 3580POPC   GL146681  26.028  17.023   5.670
 3580POPC   GL246682  25.941  16.724   5.872
 3580POPC   C1A46683  25.833  17.153   6.117
 3580POPC   D2A46684  25.653  16.910   6.510
 3580POPC   C3A46685  25.845  16.925   6.943
 3580POPC   C4A46686  25.895  17.015   7.411
 3580POPC   C1B46687  26.211  16.518   6.171
 3580POPC   C2B46688  26.147  16.528   6.614
 3580POPC   C3B46689  26.032  16.462   7.027
 3580POPC   C4B46690  26.252  16.661   7.319
 3581POPC   NC346691  41.260  21.722   5.603
 3581POPC   PO446692  41.543  21.149   5.392
 3581POPC   GL146693  41.504  21.087   5.892
 3581POPC   GL246694  41.465  21.462   5.974
 3581POPC   C1A46695  41.675  21.227   6.352
 3581POPC   D2A46696  41.559  21.414   6.766
 3581POPC   C3A46697  41.663  21.373   7.216
 3581POPC   C4A46698  41.397  21.198   7.555
 3581POPC   C1B46699  41.372  21.815   6.267
 3581POPC   C2B46700  41.499  21.925   6.676
 3581POPC   C3B46701  41.386  21.801   7.080
 3581POPC   C4B46702  41.310  21.674   7.469
 3582POPC   NC346703  25.741   9.271   5.325
 3582POPC   PO446704  26.211   8.796   5.462
 3582POPC   GL146705  25.924   8.815   5.825
 3582POPC   GL246706  25.739   9.130   5.837
 3582POPC   C1A46707  25.942   8.633   6.240
 3582POPC   D2A46708  25.978   8.561   6.675
 3582POPC   C3A46709  26.023   8.884   6.907
 3582POPC   C4A46710  26.419   8.904   7.045
 3582POPC   C1B46711  26.124   9.141   6.143
 3582POPC   C2B46712  26.308   9.165   6.570
 3582POPC   C3B46713  26.209   9.362   6.966
 3582POPC   C4B46714  26.086   9.205   7.374
 3583POPC   NC346715  35.182  37.071   5.395
 3583POPC   PO446716  35.257  36.383   5.383
 3583POPC   GL146717  35.271  36.691   5.715
 3583POPC   GL246718  35.580  36.885   5.703
 3583POPC   C1A46719  35.261  37.027   6.078
 3583POPC   D2A46720  35.400  37.141   6.515
 3583POPC   C3A46721  35.099  37.009   6.839
 3583POPC   C4A46722  35.111  37.017   7.271
 3583POPC   C1B46723  35.743  36.856   6.142
 3583POPC   C2B46724  35.691  36.696   6.552
 3583POPC   C3B46725  35.561  36.780   6.965
 3583POPC   C4B46726  35.733  36.600   7.350
 3584POPC   NC346727  43.875  11.304   5.434
 3584POPC   PO446728  44.342  11.498   5.787
 3584POPC   GL146729  44.022  11.169   5.906
 3584POPC   GL246730  43.692  10.990   5.791
 3584POPC   C1A46731  43.713  11.343   6.181
 3584POPC   D2A46732  43.965  11.485   6.507
 3584POPC   C3A46733  43.858  11.554   6.932
 3584POPC   C4A46734  44.135  11.474   7.239
 3584POPC   C1B46735  43.744  10.855   6.236
 3584POPC   C2B46736  43.687  11.070   6.670
 3584POPC   C3B46737  43.722  11.014   7.140
 3584POPC   C4B46738  43.601  10.992   7.599
 3585POPC   NC346739  41.329  10.009   5.424
 3585POPC   PO446740  41.872   9.723   5.355
 3585POPC   GL146741  41.630   9.733   5.771
 3585POPC   GL246742  41.241   9.658   5.781
 3585POPC   C1A46743  41.655   9.924   6.206
 3585POPC   D2A46744  41.836  10.034   6.603
 3585POPC   C3A46745  41.578   9.945   6.943
 3585POPC   C4A46746  41.606   9.778   7.365
 3585POPC   C1B46747  41.168   9.996   6.090
 3585POPC   C2B46748  41.219   9.994   6.543
 3585POPC   C3B46749  41.115   9.696   6.866
 3585POPC   C4B46750  41.122   9.643   7.298
 3586POPC   NC346751  30.173  39.654   5.350
 3586POPC   PO446752  29.488  39.935   5.314
 3586POPC   GL146753  29.712  39.900   5.752
 3586POPC   GL246754  30.094  39.907   5.797
 3586POPC   C1A46755  29.692  39.863   6.242
 3586POPC   D2A46756  29.572  40.119   6.642
 3586POPC   C3A46757  29.819  40.229   7.025
 3586POPC   C4A46758  29.874  39.893   7.339
 3586POPC   C1B46759  30.118  40.132   6.214
 3586POPC   C2B46760  30.063  39.956   6.649
 3586POPC   C3B46761  30.296  40.072   7.026
 3586POPC   C4B46762  30.269  40.398   7.344
 3587POPC   NC346763  32.524  31.772   5.448
 3587POPC   PO446764  31.942  31.328   5.489
 3587POPC   GL146765  32.255  31.347   5.803
 3587POPC   GL246766  32.587  31.455   5.843
 3587POPC   C1A46767  32.292  31.465   6.267
 3587POPC   D2A46768  32.312  31.680   6.666
 3587POPC   C3A46769  32.163  31.600   7.076
 3587POPC   C4A46770  32.016  31.614   7.487
 3587POPC   C1B46771  32.784  31.318   6.182
 3587POPC   C2B46772  32.696  31.338   6.586
 3587POPC   C3B46773  32.487  31.201   6.933
 3587POPC   C4B46774  32.506  31.310   7.334
 3588POPC   NC346775  15.531   7.009   5.494
 3588POPC   PO446776  15.852   6.506   5.301
 3588POPC   GL146777  15.977   6.384   5.710
 3588POPC   GL246778  15.706   6.542   5.859
 3588POPC   C1A46779  16.016   6.340   6.189
 3588POPC   D2A46780  16.010   6.512   6.609
 3588POPC   C3A46781  15.768   6.344   6.933
 3588POPC   C4A46782  15.895   6.328   7.340
 3588POPC   C1B46783  15.564   6.624   6.297
 3588POPC   C2B46784  15.615   6.821   6.690
 3588POPC   C3B46785  15.421   6.767   7.024
 3588POPC   C4B46786  15.594   6.711   7.403
 3589POPC   NC346787  34.125   2.593   5.476
 3589POPC   PO446788  33.758   3.120   5.289
 3589POPC   GL146789  33.645   2.869   5.738
 3589POPC   GL246790  33.865   2.606   5.909
 3589POPC   C1A46791  33.449   2.703   6.154
 3589POPC   D2A46792  33.517   2.507   6.568
 3589POPC   C3A46793  33.570   2.782   6.893
 3589POPC   C4A46794  33.818   2.786   7.229
 3589POPC   C1B46795  34.123   2.477   6.286
 3589POPC   C2B46796  34.004   2.497   6.753
 3589POPC   C3B46797  34.106   2.368   7.175
 3589POPC   C4B46798  34.072   2.514   7.606
 3590POPC   NC346799  16.911  33.526   5.637
 3590POPC   PO446800  16.786  33.003   5.226
 3590POPC   GL146801  16.919  32.906   5.689
 3590POPC   GL246802  16.774  33.149   5.956
 3590POPC   C1A46803  16.947  32.727   6.144
 3590POPC   D2A46804  16.770  33.002   6.488
 3590POPC   C3A46805  16.732  32.894   6.925
 3590POPC   C4A46806  16.444  32.941   7.273
 3590POPC   C1B46807  16.760  33.508   6.269
 3590POPC   C2B46808  16.635  33.572   6.665
 3590POPC   C3B46809  16.550  33.379   7.021
 3590POPC   C4B46810  16.865  33.233   7.306
 3591POPC   NC346811  11.731  26.280   5.417
 3591POPC   PO446812  12.360  26.000   5.409
 3591POPC   GL146813  12.002  25.951   5.710
 3591POPC   GL246814  12.205  26.017   6.014
 3591POPC   C1A46815  11.747  26.122   6.103
 3591POPC   D2A46816  12.048  26.127   6.498
 3591POPC   C3A46817  11.928  26.074   6.912
 3591POPC   C4A46818  11.789  25.913   7.308
 3591POPC   C1B46819  12.362  25.747   6.331
 3591POPC   C2B46820  12.465  25.823   6.757
 3591POPC   C3B46821  12.334  25.786   7.168
 3591POPC   C4B46822  12.195  25.849   7.593
 3592POPC   NC346823   0.044  14.509   5.336
 3592POPC   PO446824   0.533  14.078   5.505
 3592POPC   GL146825   0.410  14.390   5.786
 3592POPC   GL246826   0.230  14.161   5.960
 3592POPC   C1A46827   0.333  14.574   6.242
 3592POPC   D2A46828   0.282  14.204   6.562
 3592POPC   C3A46829   0.286  14.314   6.984
 3592POPC   C4A46830   0.278  14.751   7.135
 3592POPC   C1B46831   0.635  14.188   6.211
 3592POPC   C2B46832   0.827  14.319   6.568
 3592POPC   C3B46833   0.752  14.522   6.948
 3592POPC   C4B46834   0.723  14.240   7.276
 3593POPC   NC346835  28.224   2.173   5.337
 3593POPC   PO446836  28.491   1.616   5.340
 3593POPC   GL146837  28.202   1.754   5.717
 3593POPC   GL246838  28.304   2.096   5.867
 3593POPC   C1A46839  28.136   1.783   6.200
 3593POPC   D2A46840  28.344   2.058   6.539
 3593POPC   C3A46841  28.443   1.898   6.956
 3593POPC   C4A46842  28.473   2.000   7.378
 3593POPC   C1B46843  28.025   2.297   6.220
 3593POPC   C2B46844  28.052   2.478   6.657
 3593POPC   C3B46845  28.048   2.221   7.046
 3593POPC   C4B46846  27.980   1.794   7.203
 3594POPC   NC346847  39.285  15.069   5.412
 3594POPC   PO446848  39.537  15.573   5.735
 3594POPC   GL146849  39.325  15.245   5.964
 3594POPC   GL246850  38.985  15.175   5.880
 3594POPC   C1A46851  39.282  15.245   6.414
 3594POPC   D2A46852  39.494  15.542   6.720
 3594POPC   C3A46853  39.517  15.394   7.132
 3594POPC   C4A46854  39.462  14.943   7.261
 3594POPC   C1B46855  38.862  14.835   6.194
 3594POPC   C2B46856  38.981  14.762   6.640
 3594POPC   C3B46857  39.140  15.123   6.900
 3594POPC   C4B46858  39.042  15.291   7.313
 3595POPC   NC346859  44.097  25.601   5.395
 3595POPC   PO446860  44.650  25.189   5.437
 3595POPC   GL146861  44.617  25.227   5.864
 3595POPC   GL246862  44.384  24.993   5.946
 3595POPC   C1A46863  44.740  25.204   6.289
 3595POPC   D2A46864  44.804  25.619   6.468
 3595POPC   C3A46865  44.978  25.626   6.893
 3595POPC   C4A46866  44.863  25.316   7.191
 3595POPC   C1B46867  44.236  25.267   6.277
 3595POPC   C2B46868  44.296  25.125   6.681
 3595POPC   C3B46869  44.396  25.130   7.105
 3595POPC   C4B46870  44.144  25.288   7.368
 3596POPC   NC346871  16.314  24.918   5.546
 3596POPC   PO446872  16.193  24.350   5.287
 3596POPC   GL146873  16.025  24.380   5.738
 3596POPC   GL246874  16.134  24.677   5.940
 3596POPC   C1A46875  15.967  24.282   6.213
 3596POPC   D2A46876  16.001  24.213   6.678
 3596POPC   C3A46877  15.910  24.536   7.005
 3596POPC   C4A46878  15.859  24.557   7.473
 3596POPC   C1B46879  16.014  24.801   6.358
 3596POPC   C2B46880  16.272  24.783   6.724
 3596POPC   C3B46881  16.293  24.855   7.177
 3596POPC   C4B46882  16.218  24.945   7.603
 3597POPC   NC346883  14.768  18.291   5.168
 3597POPC   PO446884  14.217  18.564   5.289
 3597POPC   GL146885  14.389  18.619   5.747
 3597POPC   GL246886  14.510  18.285   5.837
 3597POPC   C1A46887  14.234  18.545   6.235
 3597POPC   D2A46888  14.098  18.493   6.721
 3597POPC   C3A46889  14.374  18.468   7.132
 3597POPC   C4A46890  14.404  18.200   7.523
 3597POPC   C1B46891  14.531  18.136   6.285
 3597POPC   C2B46892  14.603  18.275   6.720
 3597POPC   C3B46893  14.652  18.019   7.130
 3597POPC   C4B46894  14.442  17.706   7.455
 3598POPC   NC346895  27.646  39.490   5.205
 3598POPC   PO446896  27.950  39.043   5.601
 3598POPC   GL146897  27.985  39.327   5.969
 3598POPC   GL246898  27.768  39.602   5.915
 3598POPC   C1A46899  27.929  39.351   6.461
 3598POPC   D2A46900  27.665  39.247   6.830
 3598POPC   C3A46901  27.789  39.365   7.251
 3598POPC   C4A46902  27.717  39.249   7.674
 3598POPC   C1B46903  27.453  39.438   6.274
 3598POPC   C2B46904  27.171  39.355   6.671
 3598POPC   C3B46905  27.043  39.247   7.095
 3598POPC   C4B46906  27.220  39.426   7.484
 3599POPC   NC346907  14.519  31.948   5.375
 3599POPC   PO446908  14.338  31.304   5.318
 3599POPC   GL146909  14.186  31.337   5.773
 3599POPC   GL246910  14.322  31.663   5.795
 3599POPC   C1A46911  14.322  31.368   6.245
 3599POPC   D2A46912  14.430  31.095   6.627
 3599POPC   C3A46913  14.407  31.264   7.065
 3599POPC   C4A46914  14.483  31.646   7.308
 3599POPC   C1B46915  13.985  31.740   6.105
 3599POPC   C2B46916  13.931  31.830   6.549
 3599POPC   C3B46917  14.103  31.665   6.937
 3599POPC   C4B46918  13.953  31.552   7.359
 3600POPC   NC346919  24.041  11.761   5.304
 3600POPC   PO446920  23.746  11.113   5.452
 3600POPC   GL146921  23.780  11.306   5.821
 3600POPC   GL246922  24.051  11.571   5.790
 3600POPC   C1A46923  23.718  11.129   6.237
 3600POPC   D2A46924  23.618  11.293   6.634
 3600POPC   C3A46925  23.820  11.112   6.974
 3600POPC   C4A46926  23.740  11.260   7.374
 3600POPC   C1B46927  24.190  11.385   6.200
 3600POPC   C2B46928  24.122  11.402   6.655
 3600POPC   C3B46929  23.931  11.615   6.987
 3600POPC   C4B46930  23.994  11.711   7.396
 3601POPC   NC346931  18.617  13.837   5.480
 3601POPC   PO446932  18.007  13.606   5.425
 3601POPC   GL146933  18.077  13.771   5.856
 3601POPC   GL246934  18.346  13.537   5.833
 3601POPC   C1A46935  18.014  13.732   6.339
 3601POPC   D2A46936  18.320  13.851   6.675
 3601POPC   C3A46937  18.190  13.731   7.055
 3601POPC   C4A46938  17.914  13.632   7.352
 3601POPC   C1B46939  18.513  13.638   6.232
 3601POPC   C2B46940  18.695  13.530   6.627
 3601POPC   C3B46941  18.564  13.408   7.024
 3601POPC   C4B46942  18.384  13.378   7.431
 3602POPC   NC346943  17.920   0.358   5.119
 3602POPC   PO446944  18.458   0.555   5.411
 3602POPC   GL146945  18.394   0.594   5.854
 3602POPC   GL246946  18.285   0.300   6.001
 3602POPC   C1A46947  18.360   0.679   6.323
 3602POPC   D2A46948  18.396   0.924   6.703
 3602POPC   C3A46949  18.447   0.659   7.076
 3602POPC   C4A46950  18.224   0.576   7.495
 3602POPC   C1B46951  18.551   0.164   6.305
 3602POPC   C2B46952  18.580   0.176   6.755
 3602POPC   C3B46953  18.316   0.171   7.138
 3602POPC   C4B46954  18.525   0.156   7.539
 3603POPC   NC346955  17.159  17.260   5.561
 3603POPC   PO446956  17.782  17.590   5.367
 3603POPC   GL146957  17.597  17.495   5.758
 3603POPC   GL246958  17.337  17.722   5.869
 3603POPC   C1A46959  17.490  17.342   6.177
 3603POPC   D2A46960  17.345  17.479   6.574
 3603POPC   C3A46961  17.560  17.264   6.896
 3603POPC   C4A46962  17.683  17.330   7.301
 3603POPC   C1B46963  17.732  17.784   6.158
 3603POPC   C2B46964  17.693  17.864   6.611
 3603POPC   C3B46965  17.479  17.770   7.013
 3603POPC   C4B46966  17.706  17.850   7.396
 3604POPC   NC346967  31.916  17.679   5.487
 3604POPC   PO446968  32.148  17.067   5.553
 3604POPC   GL146969  32.152  17.371   5.853
 3604POPC   GL246970  32.366  17.659   5.782
 3604POPC   C1A46971  32.203  17.299   6.269
 3604POPC   D2A46972  32.419  17.223   6.615
 3604POPC   C3A46973  32.147  17.282   6.910
 3604POPC   C4A46974  32.212  17.280   7.332
 3604POPC   C1B46975  32.230  17.805   6.184
 3604POPC   C2B46976  32.303  17.720   6.624
 3604POPC   C3B46977  32.227  17.766   7.054
 3604POPC   C4B46978  31.923  17.818   7.322
 3605POPC   NC346979  36.921  11.009   5.460
 3605POPC   PO446980  36.534  11.602   5.608
 3605POPC   GL146981  36.666  11.284   5.796
 3605POPC   GL246982  36.462  11.021   5.661
 3605POPC   C1A46983  36.909  11.209   6.147
 3605POPC   D2A46984  36.882  11.351   6.568
 3605POPC   C3A46985  37.221  11.517   6.791
 3605POPC   C4A46986  37.183  11.775   7.152
 3605POPC   C1B46987  36.428  10.942   6.109
 3605POPC   C2B46988  36.538  10.976   6.552
 3605POPC   C3B46989  36.652  11.150   6.969
 3605POPC   C4B46990  36.981  11.295   7.262
 3606POPC   NC346991   4.194  10.523   5.326
 3606POPC   PO446992   4.809  10.228   5.485
 3606POPC   GL146993   4.513  10.442   5.744
 3606POPC   GL246994   4.379  10.132   5.742
 3606POPC   C1A46995   4.479  10.675   6.155
 3606POPC   D2A46996   4.283  10.752   6.570
 3606POPC   C3A46997   4.506  10.749   6.969
 3606POPC   C4A46998   4.247  10.710   7.331
 3606POPC   C1B46999   4.294  10.209   6.159
 3606POPC   C2B47000   4.105  10.230   6.564
 3606POPC   C3B47001   4.221  10.326   6.957
 3606POPC   C4B47002   4.105  10.164   7.334
 3607POPC   NC347003  35.135  37.849   5.386
 3607POPC   PO447004  35.575  37.331   5.415
 3607POPC   GL147005  35.329  37.509   5.732
 3607POPC   GL247006  35.502  37.822   5.833
 3607POPC   C1A47007  35.261  37.548   6.181
 3607POPC   D2A47008  35.267  37.780   6.557
 3607POPC   C3A47009  35.277  37.494   6.917
 3607POPC   C4A47010  35.381  37.539   7.324
 3607POPC   C1B47011  35.614  38.131   6.183
 3607POPC   C2B47012  35.599  38.177   6.642
 3607POPC   C3B47013  35.429  37.989   7.019
 3607POPC   C4B47014  35.574  37.962   7.479
 3608POPC   NC347015   4.578   8.802   5.460
 3608POPC   PO447016   4.202   9.354   5.416
 3608POPC   GL147017   4.464   9.196   5.756
 3608POPC   GL247018   4.248   8.871   5.848
 3608POPC   C1A47019   4.624   9.002   6.154
 3608POPC   D2A47020   4.351   8.876   6.500
 3608POPC   C3A47021   4.556   8.697   6.852
 3608POPC   C4A47022   4.584   8.809   7.287
 3608POPC   C1B47023   4.074   8.566   6.183
 3608POPC   C2B47024   4.117   8.416   6.641
 3608POPC   C3B47025   4.037   8.727   6.981
 3608POPC   C4B47026   4.083   8.974   7.353
 3609POPC   NC347027  26.330  29.979   5.474
 3609POPC   PO447028  25.767  29.702   5.524
 3609POPC   GL147029  25.927  29.976   5.887
 3609POPC   GL247030  26.192  30.208   5.904
 3609POPC   C1A47031  26.056  30.009   6.364
 3609POPC   D2A47032  25.875  30.209   6.726
 3609POPC   C3A47033  25.950  29.898   7.087
 3609POPC   C4A47034  26.238  29.571   7.253
 3609POPC   C1B47035  26.332  30.425   6.272
 3609POPC   C2B47036  26.343  30.384   6.730
 3609POPC   C3B47037  26.114  30.388   7.142
 3609POPC   C4B47038  25.739  30.251   7.403
 3610POPC   NC347039  42.785  23.634   5.521
 3610POPC   PO447040  43.439  23.620   5.621
 3610POPC   GL147041  43.253  23.443   5.955
 3610POPC   GL247042  43.001  23.214   5.820
 3610POPC   C1A47043  43.074  23.683   6.308
 3610POPC   D2A47044  42.993  23.992   6.634
 3610POPC   C3A47045  43.092  23.923   7.032
 3610POPC   C4A47046  43.018  23.763   7.399
 3610POPC   C1B47047  42.963  23.175   6.280
 3610POPC   C2B47048  42.937  23.374   6.692
 3610POPC   C3B47049  43.020  23.343   7.107
 3610POPC   C4B47050  42.955  23.289   7.563
 3611POPC   NC347051  30.804  34.634   5.220
 3611POPC   PO447052  30.309  34.215   5.455
 3611POPC   GL147053  30.675  34.443   5.703
 3611POPC   GL247054  30.645  34.783   5.878
 3611POPC   C1A47055  30.819  34.394   6.157
 3611POPC   D2A47056  30.737  34.229   6.590
 3611POPC   C3A47057  31.031  34.344   6.931
 3611POPC   C4A47058  30.921  34.321   7.359
 3611POPC   C1B47059  30.608  34.844   6.332
 3611POPC   C2B47060  30.694  34.719   6.764
 3611POPC   C3B47061  30.502  34.669   7.150
 3611POPC   C4B47062  30.291  34.901   7.498
 3612POPC   NC347063   1.871  34.176   5.228
 3612POPC   PO447064   2.363  33.710   5.322
 3612POPC   GL147065   2.228  33.678   5.741
 3612POPC   GL247066   1.920  33.862   5.678
 3612POPC   C1A47067   2.104  33.519   6.155
 3612POPC   D2A47068   1.829  33.584   6.519
 3612POPC   C3A47069   2.047  33.618   6.904
 3612POPC   C4A47070   1.917  33.607   7.315
 3612POPC   C1B47071   1.996  34.020   6.088
 3612POPC   C2B47072   2.059  34.058   6.526
 3612POPC   C3B47073   1.958  34.145   6.949
 3612POPC   C4B47074   2.213  34.191   7.287
 3613POPC   NC347075  38.434  26.325   5.305
 3613POPC   PO447076  38.167  25.682   5.458
 3613POPC   GL147077  38.398  25.859   5.799
 3613POPC   GL247078  38.535  26.197   5.795
 3613POPC   C1A47079  38.322  25.987   6.228
 3613POPC   D2A47080  38.351  25.764   6.605
 3613POPC   C3A47081  38.481  26.042   6.881
 3613POPC   C4A47082  38.374  25.990   7.261
 3613POPC   C1B47083  38.738  26.389   6.164
 3613POPC   C2B47084  38.656  26.444   6.608
 3613POPC   C3B47085  38.788  26.495   7.034
 3613POPC   C4B47086  38.597  26.421   7.437
 3614POPC   NC347087  37.422  43.546   5.555
 3614POPC   PO447088  38.003  43.243   5.452
 3614POPC   GL147089  37.832  43.354   5.840
 3614POPC   GL247090  37.538  43.210   5.930
 3614POPC   C1A47091  37.853  43.285   6.299
 3614POPC   D2A47092  37.789  42.988   6.653
 3614POPC   C3A47093  37.896  43.102   7.060
 3614POPC   C4A47094  37.670  43.200   7.456
 3614POPC   C1B47095  37.371  42.969   6.251
 3614POPC   C2B47096  37.274  43.102   6.614
 3614POPC   C3B47097  37.398  42.997   7.009
 3614POPC   C4B47098  37.230  42.943   7.394
 3615POPC   NC347099  14.053   0.095   5.550
 3615POPC   PO447100  14.213   0.730   5.406
 3615POPC   GL147101  14.275   0.704   5.821
 3615POPC   GL247102  14.403   0.355   5.863
 3615POPC   C1A47103  14.474   0.752   6.188
 3615POPC   D2A47104  14.578   0.472   6.467
 3615POPC   C3A47105  14.369   0.566   6.818
 3615POPC   C4A47106  14.248   0.633   7.227
 3615POPC   C1B47107  14.131   0.324   6.244
 3615POPC   C2B47108  14.214   0.099   6.642
 3615POPC   C3B47109  14.265   0.111   7.094
 3615POPC   C4B47110  14.225   0.055   7.552
 3616POPC   NC347111  41.087   4.205   5.362
 3616POPC   PO447112  40.583   4.434   5.667
 3616POPC   GL147113  40.697   4.499   6.015
 3616POPC   GL247114  41.041   4.484   5.900
 3616POPC   C1A47115  40.568   4.363   6.416
 3616POPC   D2A47116  40.770   4.287   6.791
 3616POPC   C3A47117  40.540   4.380   7.173
 3616POPC   C4A47118  40.594   4.484   7.626
 3616POPC   C1B47119  41.060   4.234   6.267
 3616POPC   C2B47120  41.351   4.178   6.589
 3616POPC   C3B47121  41.218   4.190   7.006
 3616POPC   C4B47122  41.038   4.499   7.246
 3617POPC   NC347123  15.758  27.942   5.402
 3617POPC   PO447124  16.345  27.534   5.333
 3617POPC   GL147125  16.044  27.313   5.617
 3617POPC   GL247126  16.170  27.058   5.852
 3617POPC   C1A47127  15.696  27.381   5.910
 3617POPC   D2A47128  15.606  27.494   6.362
 3617POPC   C3A47129  15.573  27.564   6.826
 3617POPC   C4A47130  15.836  27.660   7.186
 3617POPC   C1B47131  16.112  27.376   6.212
 3617POPC   C2B47132  16.048  27.474   6.660
 3617POPC   C3B47133  16.286  27.430   7.045
 3617POPC   C4B47134  16.410  27.551   7.460
 3618POPC   NC347135  24.050   1.208   5.321
 3618POPC   PO447136  24.709   0.931   5.363
 3618POPC   GL147137  24.577   1.066   5.743
 3618POPC   GL247138  24.250   0.904   5.688
 3618POPC   C1A47139  24.581   1.254   6.164
 3618POPC   D2A47140  24.350   1.289   6.551
 3618POPC   C3A47141  24.553   1.301   6.955
 3618POPC   C4A47142  24.680   1.223   7.377
 3618POPC   C1B47143  24.137   0.981   6.073
 3618POPC   C2B47144  24.205   0.822   6.426
 3618POPC   C3B47145  24.197   0.901   6.843
 3618POPC   C4B47146  24.224   0.992   7.270
 3619POPC   NC347147  34.061  35.547   5.432
 3619POPC   PO447148  33.415  35.532   5.465
 3619POPC   GL147149  33.644  35.433   5.861
 3619POPC   GL247150  34.018  35.512   5.940
 3619POPC   C1A47151  33.602  35.512   6.305
 3619POPC   D2A47152  33.554  35.784   6.654
 3619POPC   C3A47153  33.572  35.574   7.008
 3619POPC   C4A47154  33.911  35.485   7.208
 3619POPC   C1B47155  34.032  35.237   6.317
 3619POPC   C2B47156  33.840  35.230   6.730
 3619POPC   C3B47157  34.042  35.011   7.071
 3619POPC   C4B47158  34.023  35.092   7.514
 3620POPC   NC347159  39.781  14.410   5.340
 3620POPC   PO447160  39.113  14.624   5.395
 3620POPC   GL147161  39.341  14.445   5.741
 3620POPC   GL247162  39.468  14.113   5.651
 3620POPC   C1A47163  39.232  14.470   6.208
 3620POPC   D2A47164  38.934  14.277   6.491
 3620POPC   C3A47165  39.118  14.313   6.915
 3620POPC   C4A47166  39.021  14.681   7.158
 3620POPC   C1B47167  39.628  14.179   6.093
 3620POPC   C2B47168  39.698  14.277   6.510
 3620POPC   C3B47169  39.725  14.073   6.904
 3620POPC   C4B47170  39.442  14.041   7.229
 3621POPC   NC347171  40.824  29.680   5.394
 3621POPC   PO447172  40.465  29.049   5.481
 3621POPC   GL147173  40.625  29.318   5.795
 3621POPC   GL247174  40.884  29.100   5.854
 3621POPC   C1A47175  40.539  29.211   6.262
 3621POPC   D2A47176  40.804  29.179   6.639
 3621POPC   C3A47177  40.650  29.322   7.070
 3621POPC   C4A47178  40.617  29.110   7.534
 3621POPC   C1B47179  41.024  29.370   6.159
 3621POPC   C2B47180  41.094  29.597   6.513
 3621POPC   C3B47181  41.145  29.457   6.947
 3621POPC   C4B47182  41.066  29.228   7.347
 3622POPC   NC347183   6.502  42.734   5.493
 3622POPC   PO447184   6.776  43.385   5.507
 3622POPC   GL147185   6.506  43.158   5.797
 3622POPC   GL247186   6.483  43.446   5.974
 3622POPC   C1A47187   6.476  42.940   6.231
 3622POPC   D2A47188   6.451  43.157   6.656
 3622POPC   C3A47189   6.450  42.932   7.079
 3622POPC   C4A47190   6.340  43.070   7.542
 3622POPC   C1B47191   6.878  43.254   6.153
 3622POPC   C2B47192   7.000  43.081   6.567
 3622POPC   C3B47193   6.858  43.230   6.994
 3622POPC   C4B47194   6.829  43.202   7.483
 3623POPC   NC347195  28.972  20.864   5.051
 3623POPC   PO447196  28.294  20.714   5.305
 3623POPC   GL147197  28.407  20.737   5.730
 3623POPC   GL247198  28.062  20.666   5.815
 3623POPC   C1A47199  28.309  20.925   6.169
 3623POPC   D2A47200  28.076  20.981   6.565
 3623POPC   C3A47201  28.241  20.795   6.978
 3623POPC   C4A47202  28.612  20.948   7.232
 3623POPC   C1B47203  28.055  20.433   6.225
 3623POPC   C2B47204  27.922  20.478   6.668
 3623POPC   C3B47205  27.943  20.399   7.154
 3623POPC   C4B47206  28.100  20.579   7.553
 3624POPC   NC347207   6.207   6.500   5.531
 3624POPC   PO447208   5.736   7.056   5.460
 3624POPC   GL147209   5.853   6.786   5.804
 3624POPC   GL247210   5.749   6.422   5.807
 3624POPC   C1A47211   6.034   6.702   6.204
 3624POPC   D2A47212   6.027   6.380   6.503
 3624POPC   C3A47213   5.929   6.557   6.869
 3624POPC   C4A47214   6.115   6.496   7.203
 3624POPC   C1B47215   5.533   6.558   6.201
 3624POPC   C2B47216   5.538   6.761   6.601
 3624POPC   C3B47217   5.541   6.820   7.033
 3624POPC   C4B47218   5.567   6.445   7.267
 3625POPC   NC347219   0.891   3.382   5.546
 3625POPC   PO447220   1.550   3.366   5.595
 3625POPC   GL147221   1.299   3.547   5.871
 3625POPC   GL247222   1.460   3.854   5.885
 3625POPC   C1A47223   1.034   3.445   6.207
 3625POPC   D2A47224   1.119   3.347   6.607
 3625POPC   C3A47225   0.982   3.615   6.937
 3625POPC   C4A47226   0.968   3.461   7.367
 3625POPC   C1B47227   1.431   3.725   6.344
 3625POPC   C2B47228   1.463   3.677   6.773
 3625POPC   C3B47229   1.431   3.680   7.215
 3625POPC   C4B47230   1.357   3.678   7.659
 3626POPC   NC347231  30.852   3.037   5.304
 3626POPC   PO447232  30.368   2.668   5.402
 3626POPC   GL147233  30.565   2.631   5.804
 3626POPC   GL247234  30.871   2.519   5.815
 3626POPC   C1A47235  30.600   2.572   6.295
 3626POPC   D2A47236  30.422   2.789   6.662
 3626POPC   C3A47237  30.463   2.696   7.103
 3626POPC   C4A47238  30.447   2.754   7.587
 3626POPC   C1B47239  30.846   2.947   6.068
 3626POPC   C2B47240  30.883   2.985   6.518
 3626POPC   C3B47241  30.917   2.690   6.854
 3626POPC   C4B47242  30.946   2.596   7.297
 3627POPC   NC347243  41.913   6.366   5.427
 3627POPC   PO447244  42.390   6.944   5.386
 3627POPC   GL147245  42.467   6.617   5.710
 3627POPC   GL247246  42.169   6.450   5.864
 3627POPC   C1A47247  42.556   6.593   6.182
 3627POPC   D2A47248  42.540   6.315   6.580
 3627POPC   C3A47249  42.563   6.523   6.943
 3627POPC   C4A47250  42.417   6.492   7.334
 3627POPC   C1B47251  42.118   6.314   6.304
 3627POPC   C2B47252  42.070   6.497   6.744
 3627POPC   C3B47253  42.070   6.793   7.101
 3627POPC   C4B47254  42.073   6.746   7.584
 3628POPC   NC347255   6.168  18.892   5.545
 3628POPC   PO447256   5.437  18.895   5.551
 3628POPC   GL147257   5.752  18.962   5.878
 3628POPC   GL247258   5.914  19.298   5.804
 3628POPC   C1A47259   5.733  19.157   6.296
 3628POPC   D2A47260   5.698  19.053   6.741
 3628POPC   C3A47261   5.636  19.332   7.086
 3628POPC   C4A47262   5.950  19.298   7.392
 3628POPC   C1B47263   6.238  19.229   6.138
 3628POPC   C2B47264   6.196  19.024   6.533
 3628POPC   C3B47265   6.183  19.148   6.959
 3628POPC   C4B47266   6.354  18.975   7.326
 3629POPC   NC347267  28.314  34.865   5.540
 3629POPC   PO447268  28.639  34.285   5.444
 3629POPC   GL147269  28.515  34.492   5.828
 3629POPC   GL247270  28.165  34.589   5.951
 3629POPC   C1A47271  28.488  34.335   6.247
 3629POPC   D2A47272  28.258  34.502   6.609
 3629POPC   C3A47273  28.529  34.370   6.925
 3629POPC   C4A47274  28.522  34.243   7.314
 3629POPC   C1B47275  28.438  34.879   6.189
 3629POPC   C2B47276  28.417  35.070   6.591
 3629POPC   C3B47277  28.501  34.875   6.955
 3629POPC   C4B47278  28.203  34.676   7.180
 3630POPC   NC347279  30.059  33.080   5.547
 3630POPC   PO447280  29.497  32.781   5.606
 3630POPC   GL147281  29.691  33.039   5.975
 3630POPC   GL247282  29.818  33.353   5.913
 3630POPC   C1A47283  29.888  33.067   6.430
 3630POPC   D2A47284  29.813  32.779   6.798
 3630POPC   C3A47285  30.033  32.776   7.219
 3630POPC   C4A47286  29.847  32.760   7.656
 3630POPC   C1B47287  29.921  33.561   6.281
 3630POPC   C2B47288  29.870  33.529   6.711
 3630POPC   C3B47289  29.942  33.239   7.048
 3630POPC   C4B47290  30.025  33.223   7.541
 3631POPC   NC347291  36.787   3.796   5.543
 3631POPC   PO447292  36.611   3.074   5.443
 3631POPC   GL147293  36.702   3.307   5.789
 3631POPC   GL247294  36.547   3.061   5.984
 3631POPC   C1A47295  36.639   3.556   6.192
 3631POPC   D2A47296  36.572   3.524   6.644
 3631POPC   C3A47297  36.891   3.717   6.891
 3631POPC   C4A47298  36.877   3.820   7.289
 3631POPC   C1B47299  36.880   3.098   6.284
 3631POPC   C2B47300  37.078   3.291   6.647
 3631POPC   C3B47301  37.048   3.275   7.096
 3631POPC   C4B47302  37.206   3.453   7.460
 3632POPC   NC347303   7.168  35.345   5.654
 3632POPC   PO447304   6.639  35.436   5.262
 3632POPC   GL147305   6.490  35.507   5.678
 3632POPC   GL247306   6.690  35.207   5.798
 3632POPC   C1A47307   6.583  35.573   6.129
 3632POPC   D2A47308   6.854  35.479   6.470
 3632POPC   C3A47309   6.645  35.511   6.885
 3632POPC   C4A47310   6.537  35.370   7.321
 3632POPC   C1B47311   6.909  34.985   6.172
 3632POPC   C2B47312   7.082  35.022   6.620
 3632POPC   C3B47313   6.842  35.047   7.021
 3632POPC   C4B47314   6.877  35.004   7.470
 3633POPC   NC347315  39.764  31.621   5.226
 3633POPC   PO447316  40.466  31.539   5.371
 3633POPC   GL147317  40.205  31.531   5.788
 3633POPC   GL247318  39.833  31.506   5.729
 3633POPC   C1A47319  40.203  31.720   6.227
 3633POPC   D2A47320  40.287  31.527   6.655
 3633POPC   C3A47321  40.383  31.716   7.040
 3633POPC   C4A47322  40.036  31.684   7.273
 3633POPC   C1B47323  39.752  31.440   6.172
 3633POPC   C2B47324  39.693  31.538   6.622
 3633POPC   C3B47325  39.809  31.320   6.989
 3633POPC   C4B47326  39.758  31.290   7.429
 3634POPC   NC347327  42.079   8.182   5.398
 3634POPC   PO447328  42.620   8.479   5.542
 3634POPC   GL147329  42.402   8.186   5.842
 3634POPC   GL247330  42.128   7.934   5.834
 3634POPC   C1A47331  42.240   8.280   6.256
 3634POPC   D2A47332  42.244   8.487   6.668
 3634POPC   C3A47333  42.224   8.261   7.048
 3634POPC   C4A47334  42.514   8.184   7.360
 3634POPC   C1B47335  42.086   7.800   6.250
 3634POPC   C2B47336  42.140   7.925   6.674
 3634POPC   C3B47337  41.992   7.800   7.097
 3634POPC   C4B47338  41.987   7.997   7.529
 3635POPC   NC347339  43.058  34.702   5.340
 3635POPC   PO447340  42.902  34.039   5.476
 3635POPC   GL147341  43.137  34.356   5.728
 3635POPC   GL247342  43.455  34.269   5.882
 3635POPC   C1A47343  43.089  34.613   6.112
 3635POPC   D2A47344  42.845  34.699   6.514
 3635POPC   C3A47345  43.021  34.666   6.941
 3635POPC   C4A47346  43.394  34.838   7.148
 3635POPC   C1B47347  43.345  34.219   6.352
 3635POPC   C2B47348  43.404  34.302   6.804
 3635POPC   C3B47349  43.361  34.225   7.233
 3635POPC   C4B47350  43.298  34.248   7.655
 3636POPC   NC347351  40.925  38.722   5.170
 3636POPC   PO447352  40.473  38.245   5.396
 3636POPC   GL147353  40.590  38.230   5.897
 3636POPC   GL247354  40.869  38.368   6.039
 3636POPC   C1A47355  40.475  38.454   6.312
 3636POPC   D2A47356  40.439  38.303   6.740
 3636POPC   C3A47357  40.716  38.543   6.965
 3636POPC   C4A47358  40.686  38.709   7.367
 3636POPC   C1B47359  41.191  38.230   6.313
 3636POPC   C2B47360  41.349  37.950   6.603
 3636POPC   C3B47361  41.127  38.185   6.906
 3636POPC   C4B47362  41.032  38.325   7.284
 3637POPC   NC347363  41.706  14.072   5.410
 3637POPC   PO447364  41.401  14.664   5.312
 3637POPC   GL147365  41.516  14.448   5.727
 3637POPC   GL247366  41.248  14.312   5.913
 3637POPC   C1A47367  41.850  14.331   6.051
 3637POPC   D2A47368  41.949  14.363   6.484
 3637POPC   C3A47369  41.654  14.288   6.822
 3637POPC   C4A47370  41.744  14.303   7.279
 3637POPC   C1B47371  41.416  14.546   6.298
 3637POPC   C2B47372  41.258  14.682   6.709
 3637POPC   C3B47373  41.246  14.467   7.096
 3637POPC   C4B47374  41.330  14.433   7.533
 3638POPC   NC347375  27.809  17.838   5.381
 3638POPC   PO447376  27.531  17.199   5.550
 3638POPC   GL147377  27.684  17.516   5.811
 3638POPC   GL247378  27.454  17.803   5.791
 3638POPC   C1A47379  27.775  17.500   6.252
 3638POPC   D2A47380  27.726  17.283   6.654
 3638POPC   C3A47381  27.642  17.501   7.042
 3638POPC   C4A47382  27.680  17.771   7.400
 3638POPC   C1B47383  27.229  17.787   6.192
 3638POPC   C2B47384  27.401  17.716   6.610
 3638POPC   C3B47385  27.173  17.729   6.984
 3638POPC   C4B47386  27.224  17.516   7.358
 3639POPC   NC347387  17.276   1.353   5.470
 3639POPC   PO447388  17.676   0.766   5.221
 3639POPC   GL147389  17.570   0.946   5.707
 3639POPC   GL247390  17.634   1.290   5.856
 3639POPC   C1A47391  17.563   0.999   6.243
 3639POPC   D2A47392  17.691   1.411   6.512
 3639POPC   C3A47393  17.703   1.364   6.971
 3639POPC   C4A47394  17.550   0.962   7.145
 3639POPC   C1B47395  17.311   1.450   6.148
 3639POPC   C2B47396  17.182   1.292   6.546
 3639POPC   C3B47397  17.203   1.477   6.960
 3639POPC   C4B47398  17.274   1.401   7.382
 3640POPC   NC347399  29.218  39.427   5.131
 3640POPC   PO447400  28.765  39.053   5.432
 3640POPC   GL147401  29.013  39.239   5.755
 3640POPC   GL247402  29.378  39.181   5.833
 3640POPC   C1A47403  28.940  39.219   6.199
 3640POPC   D2A47404  29.137  39.107   6.575
 3640POPC   C3A47405  28.896  39.154   6.914
 3640POPC   C4A47406  28.685  39.356   7.246
 3640POPC   C1B47407  29.389  39.436   6.225
 3640POPC   C2B47408  29.381  39.655   6.605
 3640POPC   C3B47409  29.500  39.614   7.026
 3640POPC   C4B47410  29.237  39.327   7.247
 3641POPC   NC347411  19.045  32.541   5.660
 3641POPC   PO447412  18.929  32.022   5.348
 3641POPC   GL147413  19.119  31.921   5.755
 3641POPC   GL247414  18.808  31.770   5.850
 3641POPC   C1A47415  19.070  32.046   6.229
 3641POPC   D2A47416  19.025  32.435   6.521
 3641POPC   C3A47417  19.231  32.437   6.954
 3641POPC   C4A47418  19.255  32.571   7.394
 3641POPC   C1B47419  18.551  31.965   6.154
 3641POPC   C2B47420  18.581  31.987   6.592
 3641POPC   C3B47421  18.875  32.080   6.865
 3641POPC   C4B47422  18.915  32.185   7.266
 3642POPC   NC347423   7.653  24.398   5.426
 3642POPC   PO447424   7.097  24.730   5.426
 3642POPC   GL147425   7.247  24.440   5.802
 3642POPC   GL247426   7.609  24.370   5.934
 3642POPC   C1A47427   7.231  24.144   6.190
 3642POPC   D2A47428   7.395  24.048   6.614
 3642POPC   C3A47429   7.554  24.369   6.909
 3642POPC   C4A47430   7.420  24.518   7.312
 3642POPC   C1B47431   7.622  24.461   6.401
 3642POPC   C2B47432   7.869  24.734   6.716
 3642POPC   C3B47433   7.743  24.942   7.122
 3642POPC   C4B47434   7.749  24.814   7.577
 3643POPC   NC347435  15.842   1.889   5.393
 3643POPC   PO447436  16.348   2.419   5.372
 3643POPC   GL147437  16.156   2.197   5.734
 3643POPC   GL247438  16.181   1.837   5.766
 3643POPC   C1A47439  15.892   2.100   6.111
 3643POPC   D2A47440  15.883   1.835   6.482
 3643POPC   C3A47441  15.645   1.790   6.848
 3643POPC   C4A47442  15.837   1.993   7.187
 3643POPC   C1B47443  16.293   1.749   6.178
 3643POPC   C2B47444  16.271   1.560   6.602
 3643POPC   C3B47445  16.258   1.788   6.978
 3643POPC   C4B47446  16.265   1.570   7.364
 3644POPC   NC347447  43.554  31.163   5.512
 3644POPC   PO447448  43.989  31.704   5.474
 3644POPC   GL147449  43.758  31.540   5.832
 3644POPC   GL247450  43.593  31.249   6.036
 3644POPC   C1A47451  43.977  31.531   6.208
 3644POPC   D2A47452  43.865  31.415   6.632
 3644POPC   C3A47453  44.133  31.600   6.947
 3644POPC   C4A47454  44.157  31.838   7.319
 3644POPC   C1B47455  43.477  31.663   6.255
 3644POPC   C2B47456  43.472  31.869   6.668
 3644POPC   C3B47457  43.607  31.672   7.074
 3644POPC   C4B47458  43.542  31.272   7.318
 3645POPC   NC347459  35.387  14.739   5.482
 3645POPC   PO447460  35.222  14.066   5.404
 3645POPC   GL147461  35.393  14.257   5.762
 3645POPC   GL247462  35.693  14.109   5.814
 3645POPC   C1A47463  35.314  14.423   6.200
 3645POPC   D2A47464  35.090  14.737   6.487
 3645POPC   C3A47465  35.184  14.757   6.951
 3645POPC   C4A47466  35.075  14.592   7.397
 3645POPC   C1B47467  35.854  14.004   6.244
 3645POPC   C2B47468  35.599  14.065   6.617
 3645POPC   C3B47469  35.610  14.038   7.039
 3645POPC   C4B47470  35.293  14.154   7.306
 3646POPC   NC347471  25.534  36.518   5.370
 3646POPC   PO447472  25.165  36.031   5.601
 3646POPC   GL147473  25.399  36.313   5.857
 3646POPC   GL247474  25.228  36.639   5.851
 3646POPC   C1A47475  25.515  36.126   6.250
 3646POPC   D2A47476  25.359  35.843   6.557
 3646POPC   C3A47477  25.600  35.877   6.910
 3646POPC   C4A47478  25.516  36.071   7.273
 3646POPC   C1B47479  25.376  36.617   6.295
 3646POPC   C2B47480  25.301  36.365   6.684
 3646POPC   C3B47481  25.116  36.322   7.091
 3646POPC   C4B47482  25.189  36.387   7.583
 3647POPC   NC347483  12.718  10.159   5.674
 3647POPC   PO447484  13.285  10.491   5.582
 3647POPC   GL147485  12.981  10.566   5.881
 3647POPC   GL247486  12.735  10.860   5.889
 3647POPC   C1A47487  13.085  10.722   6.273
 3647POPC   D2A47488  13.103  10.824   6.691
 3647POPC   C3A47489  13.052  10.708   7.074
 3647POPC   C4A47490  12.921  10.373   7.259
 3647POPC   C1B47491  12.585  10.554   6.212
 3647POPC   C2B47492  12.768  10.433   6.579
 3647POPC   C3B47493  12.589  10.323   6.902
 3647POPC   C4B47494  12.405  10.426   7.221
 3648POPC   NC347495  32.046  26.951   5.422
 3648POPC   PO447496  31.633  26.491   5.190
 3648POPC   GL147497  31.581  26.611   5.696
 3648POPC   GL247498  31.823  26.841   5.851
 3648POPC   C1A47499  31.520  26.636   6.213
 3648POPC   D2A47500  31.287  26.747   6.629
 3648POPC   C3A47501  31.463  26.638   7.033
 3648POPC   C4A47502  31.321  26.624   7.472
 3648POPC   C1B47503  31.836  27.085   6.236
 3648POPC   C2B47504  31.792  26.882   6.624
 3648POPC   C3B47505  31.759  27.042   7.038
 3648POPC   C4B47506  31.670  27.005   7.462
 3649POPC   NC347507  28.470   8.327   5.487
 3649POPC   PO447508  28.053   7.858   5.188
 3649POPC   GL147509  28.234   7.926   5.695
 3649POPC   GL247510  28.147   7.609   5.843
 3649POPC   C1A47511  28.330   8.141   6.106
 3649POPC   D2A47512  28.665   8.156   6.426
 3649POPC   C3A47513  28.523   8.260   6.849
 3649POPC   C4A47514  28.360   8.490   7.227
 3649POPC   C1B47515  28.048   7.703   6.265
 3649POPC   C2B47516  28.173   7.964   6.584
 3649POPC   C3B47517  28.129   7.891   6.993
 3649POPC   C4B47518  27.992   8.146   7.326
 3650POPC   NC347519   2.564   6.421   5.342
 3650POPC   PO447520   2.664   5.742   5.401
 3650POPC   GL147521   2.796   5.830   5.809
 3650POPC   GL247522   3.053   6.058   5.872
 3650POPC   C1A47523   2.634   5.863   6.210
 3650POPC   D2A47524   2.550   5.982   6.648
 3650POPC   C3A47525   2.649   5.707   6.988
 3650POPC   C4A47526   2.702   5.837   7.420
 3650POPC   C1B47527   3.074   6.127   6.308
 3650POPC   C2B47528   3.061   6.170   6.746
 3650POPC   C3B47529   2.779   6.246   7.082
 3650POPC   C4B47530   2.819   6.318   7.543
 3651POPC   NC347531   0.731  13.044   5.432
 3651POPC   PO447532   0.676  12.381   5.492
 3651POPC   GL147533   0.509  12.699   5.772
 3651POPC   GL247534   0.184  12.590   5.876
 3651POPC   C1A47535   0.459  13.007   6.124
 3651POPC   D2A47536   0.437  13.173   6.552
 3651POPC   C3A47537   0.392  13.006   6.999
 3651POPC   C4A47538   0.637  13.247   7.300
 3651POPC   C1B47539   0.418  12.540   6.271
 3651POPC   C2B47540   0.341  12.594   6.700
 3651POPC   C3B47541   0.576  12.519   7.051
 3651POPC   C4B47542   0.506  12.557   7.536
 3652POPC   NC347543  10.805  11.424   5.424
 3652POPC   PO447544  10.908  10.774   5.519
 3652POPC   GL147545  10.620  11.069   5.810
 3652POPC   GL247546  10.588  11.452   5.878
 3652POPC   C1A47547  10.497  11.089   6.243
 3652POPC   D2A47548  10.748  11.155   6.601
 3652POPC   C3A47549  10.525  11.050   6.975
 3652POPC   C4A47550  10.671  11.035   7.375
 3652POPC   C1B47551  10.414  11.609   6.256
 3652POPC   C2B47552  10.335  11.457   6.679
 3652POPC   C3B47553  10.373  11.515   7.153
 3652POPC   C4B47554  10.729  11.548   7.452
 3653POPC   NC347555   2.397  38.305   5.416
 3653POPC   PO447556   2.982  38.773   5.441
 3653POPC   GL147557   3.033  38.505   5.786
 3653POPC   GL247558   2.780  38.253   5.778
 3653POPC   C1A47559   2.870  38.508   6.236
 3653POPC   D2A47560   2.792  38.772   6.607
 3653POPC   C3A47561   3.008  38.573   6.924
 3653POPC   C4A47562   3.079  38.331   7.248
 3653POPC   C1B47563   2.411  38.309   6.088
 3653POPC   C2B47564   2.355  38.380   6.549
 3653POPC   C3B47565   2.519  38.420   6.970
 3653POPC   C4B47566   2.637  38.087   7.224
 3654POPC   NC347567  13.251   4.076   5.328
 3654POPC   PO447568  12.871   3.514   5.270
 3654POPC   GL147569  12.935   3.427   5.723
 3654POPC   GL247570  12.850   3.771   5.754
 3654POPC   C1A47571  13.090   3.372   6.151
 3654POPC   D2A47572  12.826   3.512   6.508
 3654POPC   C3A47573  13.035   3.425   6.887
 3654POPC   C4A47574  13.020   3.606   7.286
 3654POPC   C1B47575  12.572   3.742   6.122
 3654POPC   C2B47576  12.457   3.903   6.544
 3654POPC   C3B47577  12.670   3.847   6.920
 3654POPC   C4B47578  12.526   3.700   7.299
 3655POPC   NC347579  20.480  10.016   5.479
 3655POPC   PO447580  20.741   9.412   5.428
 3655POPC   GL147581  20.772   9.664   5.787
 3655POPC   GL247582  20.409   9.679   5.851
 3655POPC   C1A47583  20.972   9.778   6.181
 3655POPC   D2A47584  20.817   9.872   6.619
 3655POPC   C3A47585  20.911   9.997   7.058
 3655POPC   C4A47586  20.890   9.700   7.402
 3655POPC   C1B47587  20.471   9.784   6.250
 3655POPC   C2B47588  20.298   9.815   6.640
 3655POPC   C3B47589  20.372   9.910   7.044
 3655POPC   C4B47590  20.320   9.697   7.409
 3656POPC   NC347591   0.570  29.792   5.368
 3656POPC   PO447592   0.586  30.422   5.681
 3656POPC   GL147593   0.413  29.990   5.871
 3656POPC   GL247594   0.261  29.653   5.768
 3656POPC   C1A47595   0.484  29.692   6.245
 3656POPC   D2A47596   0.749  29.687   6.617
 3656POPC   C3A47597   0.574  29.782   7.036
 3656POPC   C4A47598   0.654  30.080   7.378
 3656POPC   C1B47599   0.002  29.729   6.174
 3656POPC   C2B47600   0.030  29.595   6.612
 3656POPC   C3B47601   0.055  29.784   7.056
 3656POPC   C4B47602   0.301  29.714   7.478
 3657POPC   NC347603   6.382  43.664   5.405
 3657POPC   PO447604   6.830  44.152   5.350
 3657POPC   GL147605   6.740  43.888   5.720
 3657POPC   GL247606   6.416  43.946   5.857
 3657POPC   C1A47607   6.790  43.827   6.177
 3657POPC   D2A47608   6.824  43.573   6.544
 3657POPC   C3A47609   6.840  43.783   6.905
 3657POPC   C4A47610   6.791  43.677   7.293
 3657POPC   C1B47611   6.201  43.770   6.244
 3657POPC   C2B47612   6.321  43.687   6.669
 3657POPC   C3B47613   6.378  43.924   7.051
 3657POPC   C4B47614   6.411  44.096   7.489
 3658POPC   NC347615  28.016  33.424   5.656
 3658POPC   PO447616  28.366  33.729   5.226
 3658POPC   GL147617  28.398  33.770   5.716
 3658POPC   GL247618  28.257  34.063   5.864
 3658POPC   C1A47619  28.521  33.789   6.188
 3658POPC   D2A47620  28.401  33.974   6.599
 3658POPC   C3A47621  28.455  33.801   7.009
 3658POPC   C4A47622  28.628  33.733   7.396
 3658POPC   C1B47623  28.017  34.175   6.241
 3658POPC   C2B47624  27.924  34.093   6.650
 3658POPC   C3B47625  28.079  34.145   7.051
 3658POPC   C4B47626  28.132  33.918   7.412
 3659POPC   NC347627  11.327  24.791   5.403
 3659POPC   PO447628  11.303  24.132   5.374
 3659POPC   GL147629  11.444  24.293   5.789
 3659POPC   GL247630  11.246  24.542   5.915
 3659POPC   C1A47631  11.694  24.568   6.122
 3659POPC   D2A47632  11.588  24.801   6.515
 3659POPC   C3A47633  11.389  24.566   6.806
 3659POPC   C4A47634  11.458  24.548   7.214
 3659POPC   C1B47635  11.156  24.856   6.244
 3659POPC   C2B47636  11.046  24.971   6.671
 3659POPC   C3B47637  10.983  24.749   7.062
 3659POPC   C4B47638  10.974  24.279   7.113
 3660POPC   NC347639  20.611  42.968   5.287
 3660POPC   PO447640  20.539  43.333   5.865
 3660POPC   GL147641  20.852  43.179   6.083
 3660POPC   GL247642  20.933  42.885   5.856
 3660POPC   C1A47643  20.878  43.150   6.527
 3660POPC   D2A47644  20.482  43.035   6.703
 3660POPC   C3A47645  20.468  43.134   7.116
 3660POPC   C4A47646  20.785  43.341   7.341
 3660POPC   C1B47647  20.650  42.747   6.229
 3660POPC   C2B47648  20.840  42.628   6.609
 3660POPC   C3B47649  20.876  42.755   7.024
 3660POPC   C4B47650  20.807  42.868   7.452
 3661POPC   NC347651  43.664   7.016   5.618
 3661POPC   PO447652  43.954   7.477   5.310
 3661POPC   GL147653  43.972   7.540   5.765
 3661POPC   GL247654  44.108   7.228   5.870
 3661POPC   C1A47655  43.688   7.702   6.123
 3661POPC   D2A47656  43.500   7.571   6.543
 3661POPC   C3A47657  43.543   7.728   6.967
 3661POPC   C4A47658  43.797   7.561   7.293
 3661POPC   C1B47659  43.941   7.287   6.316
 3661POPC   C2B47660  43.915   7.332   6.796
 3661POPC   C3B47661  44.208   7.298   7.170
 3661POPC   C4B47662  44.235   7.431   7.625
 3662POPC   NC347663   3.179  32.403   5.467
 3662POPC   PO447664   3.715  32.086   5.232
 3662POPC   GL147665   3.595  32.080   5.712
 3662POPC   GL247666   3.249  32.099   5.871
 3662POPC   C1A47667   3.663  32.276   6.154
 3662POPC   D2A47668   3.624  32.113   6.601
 3662POPC   C3A47669   3.618  32.398   6.964
 3662POPC   C4A47670   3.906  32.464   7.265
 3662POPC   C1B47671   3.160  32.301   6.284
 3662POPC   C2B47672   3.150  32.313   6.743
 3662POPC   C3B47673   3.234  32.085   7.122
 3662POPC   C4B47674   3.261  32.076   7.601
 3663POPC   NC347675  36.457  16.634   5.382
 3663POPC   PO447676  35.851  17.019   5.365
 3663POPC   GL147677  36.059  16.788   5.685
 3663POPC   GL247678  36.382  16.925   5.806
 3663POPC   C1A47679  36.013  16.686   6.115
 3663POPC   D2A47680  35.793  16.654   6.526
 3663POPC   C3A47681  35.945  16.595   6.964
 3663POPC   C4A47682  36.095  16.930   7.218
 3663POPC   C1B47683  36.511  16.603   6.147
 3663POPC   C2B47684  36.644  16.670   6.602
 3663POPC   C3B47685  36.567  16.879   7.034
 3663POPC   C4B47686  36.497  16.915   7.510
 3664POPC   NC347687  25.539  25.668   5.011
 3664POPC   PO447688  26.080  25.284   5.285
 3664POPC   GL147689  25.892  25.105   5.648
 3664POPC   GL247690  25.990  25.395   5.828
 3664POPC   C1A47691  25.818  24.964   6.076
 3664POPC   D2A47692  25.917  25.218   6.426
 3664POPC   C3A47693  25.905  25.067   6.834
 3664POPC   C4A47694  26.018  25.236   7.225
 3664POPC   C1B47695  26.045  25.640   6.177
 3664POPC   C2B47696  25.768  25.721   6.523
 3664POPC   C3B47697  25.994  25.591   6.861
 3664POPC   C4B47698  26.251  25.738   7.203
 3665POPC   NC347699  13.651  32.349   4.998
 3665POPC   PO447700  14.053  32.000   5.482
 3665POPC   GL147701  13.767  32.119   5.862
 3665POPC   GL247702  13.464  32.309   5.874
 3665POPC   C1A47703  13.886  32.300   6.298
 3665POPC   D2A47704  13.869  32.669   6.624
 3665POPC   C3A47705  13.762  32.546   7.052
 3665POPC   C4A47706  13.661  32.105   7.191
 3665POPC   C1B47707  13.382  32.184   6.326
 3665POPC   C2B47708  13.429  32.039   6.735
 3665POPC   C3B47709  13.174  32.038   7.133
 3665POPC   C4B47710  13.267  32.119   7.557
 3666POPC   NC347711  15.879  20.740   5.409
 3666POPC   PO447712  15.995  20.213   5.616
 3666POPC   GL147713  16.196  20.523   5.849
 3666POPC   GL247714  16.215  20.891   5.763
 3666POPC   C1A47715  16.062  20.536   6.257
 3666POPC   D2A47716  15.998  20.296   6.620
 3666POPC   C3A47717  16.213  20.276   6.978
 3666POPC   C4A47718  16.280  20.497   7.328
 3666POPC   C1B47719  16.148  21.083   6.156
 3666POPC   C2B47720  16.157  20.921   6.551
 3666POPC   C3B47721  16.068  20.752   6.910
 3666POPC   C4B47722  16.014  20.923   7.284
 3667POPC   NC347723  39.166  41.252   5.421
 3667POPC   PO447724  39.181  40.605   5.445
 3667POPC   GL147725  39.189  40.855   5.773
 3667POPC   GL247726  38.917  40.746   5.925
 3667POPC   C1A47727  39.438  40.794   6.145
 3667POPC   D2A47728  39.678  40.636   6.487
 3667POPC   C3A47729  39.522  40.768   6.884
 3667POPC   C4A47730  39.743  41.048   7.158
 3667POPC   C1B47731  38.968  40.667   6.358
 3667POPC   C2B47732  38.992  40.827   6.763
 3667POPC   C3B47733  39.083  40.767   7.194
 3667POPC   C4B47734  39.158  40.467   7.535
 3668POPC   NC347735  10.964  40.613   5.408
 3668POPC   PO447736  11.210  41.206   5.465
 3668POPC   GL147737  11.229  40.896   5.802
 3668POPC   GL247738  11.011  41.031   6.064
 3668POPC   C1A47739  11.340  40.614   6.178
 3668POPC   D2A47740  11.480  40.668   6.618
 3668POPC   C3A47741  11.391  40.452   6.995
 3668POPC   C4A47742  11.040  40.329   7.272
 3668POPC   C1B47743  11.413  41.126   6.259
 3668POPC   C2B47744  11.523  41.184   6.688
 3668POPC   C3B47745  11.247  40.971   6.941
 3668POPC   C4B47746  11.220  40.813   7.306
 3669POPC   NC347747  31.743  36.886   5.435
 3669POPC   PO447748  31.059  36.818   5.375
 3669POPC   GL147749  31.362  36.926   5.773
 3669POPC   GL247750  31.707  36.734   5.902
 3669POPC   C1A47751  31.586  37.176   6.135
 3669POPC   D2A47752  31.850  37.003   6.504
 3669POPC   C3A47753  31.868  37.143   6.960
 3669POPC   C4A47754  31.523  37.074   7.271
 3669POPC   C1B47755  31.444  36.702   6.228
 3669POPC   C2B47756  31.264  36.594   6.581
 3669POPC   C3B47757  31.454  36.725   6.916
 3669POPC   C4B47758  31.245  36.628   7.276
 3670POPC   NC347759  43.318  25.458   5.223
 3670POPC   PO447760  42.953  25.038   5.556
 3670POPC   GL147761  43.129  25.395   5.751
 3670POPC   GL247762  42.923  25.287   6.005
 3670POPC   C1A47763  43.369  25.487   6.168
 3670POPC   D2A47764  43.367  25.693   6.585
 3670POPC   C3A47765  43.433  25.501   7.004
 3670POPC   C4A47766  43.506  25.563   7.471
 3670POPC   C1B47767  42.870  25.406   6.406
 3670POPC   C2B47768  43.051  25.189   6.709
 3670POPC   C3B47769  43.317  24.995   6.970
 3670POPC   C4B47770  43.252  24.827   7.338
 3671POPC   NC347771  29.626  37.970   5.566
 3671POPC   PO447772  30.097  38.523   5.382
 3671POPC   GL147773  29.870  38.435   5.765
 3671POPC   GL247774  29.890  38.139   5.969
 3671POPC   C1A47775  30.067  38.604   6.134
 3671POPC   D2A47776  29.946  38.782   6.484
 3671POPC   C3A47777  29.905  38.508   6.840
 3671POPC   C4A47778  30.085  38.648   7.234
 3671POPC   C1B47779  29.620  38.363   6.272
 3671POPC   C2B47780  29.412  38.187   6.632
 3671POPC   C3B47781  29.644  37.983   6.963
 3671POPC   C4B47782  29.875  38.059   7.345
 3672POPC   NC347783   9.093   1.430   5.294
 3672POPC   PO447784   8.846   0.785   5.394
 3672POPC   GL147785   8.915   1.025   5.773
 3672POPC   GL247786   8.888   1.406   5.791
 3672POPC   C1A47787   9.126   0.859   6.135
 3672POPC   D2A47788   9.245   1.028   6.487
 3672POPC   C3A47789   9.051   0.927   6.875
 3672POPC   C4A47790   9.102   1.045   7.268
 3672POPC   C1B47791   8.824   1.280   6.252
 3672POPC   C2B47792   8.925   1.390   6.699
 3672POPC   C3B47793   8.739   1.353   7.120
 3672POPC   C4B47794   8.614   1.380   7.556
 3673POPC   NC347795  17.029   3.715   5.502
 3673POPC   PO447796  16.541   3.203   5.376
 3673POPC   GL147797  16.754   3.327   5.750
 3673POPC   GL247798  16.654   3.693   5.858
 3673POPC   C1A47799  16.752   3.354   6.209
 3673POPC   D2A47800  16.603   3.596   6.553
 3673POPC   C3A47801  16.675   3.313   6.887
 3673POPC   C4A47802  16.904   3.315   7.274
 3673POPC   C1B47803  16.959   3.827   6.199
 3673POPC   C2B47804  16.980   3.942   6.663
 3673POPC   C3B47805  16.797   3.783   7.072
 3673POPC   C4B47806  17.052   3.792   7.463
 3674POPC   NC347807   6.070  13.841   5.596
 3674POPC   PO447808   5.680  13.254   5.464
 3674POPC   GL147809   5.677  13.541   5.804
 3674POPC   GL247810   5.988  13.424   5.903
 3674POPC   C1A47811   5.633  13.740   6.229
 3674POPC   D2A47812   5.450  13.678   6.634
 3674POPC   C3A47813   5.733  13.777   6.967
 3674POPC   C4A47814   5.732  14.063   7.320
 3674POPC   C1B47815   6.133  13.674   6.199
 3674POPC   C2B47816   6.196  13.798   6.543
 3674POPC   C3B47817   6.436  13.632   6.781
 3674POPC   C4B47818   6.190  13.583   7.092
 3675POPC   NC347819   2.585  39.040   5.500
 3675POPC   PO447820   2.834  39.761   5.466
 3675POPC   GL147821   2.867  39.505   5.836
 3675POPC   GL247822   3.005  39.167   5.768
 3675POPC   C1A47823   2.773  39.323   6.234
 3675POPC   D2A47824   2.942  39.321   6.639
 3675POPC   C3A47825   2.679  39.445   7.013
 3675POPC   C4A47826   2.538  39.378   7.444
 3675POPC   C1B47827   3.139  38.975   6.184
 3675POPC   C2B47828   3.296  38.924   6.641
 3675POPC   C3B47829   3.063  39.057   7.039
 3675POPC   C4B47830   2.619  38.938   7.153
 3676POPC   NC347831  18.593  24.679   5.613
 3676POPC   PO447832  18.164  24.199   5.473
 3676POPC   GL147833  18.005  24.350   5.872
 3676POPC   GL247834  17.924  24.709   5.886
 3676POPC   C1A47835  18.055  24.183   6.277
 3676POPC   D2A47836  18.182  24.277   6.692
 3676POPC   C3A47837  18.520  24.310   6.920
 3676POPC   C4A47838  18.491  24.314   7.378
 3676POPC   C1B47839  18.179  24.692   6.265
 3676POPC   C2B47840  18.403  24.744   6.639
 3676POPC   C3B47841  18.237  24.726   6.991
 3676POPC   C4B47842  17.890  24.617   7.168
 3677POPC   NC347843  13.267  33.909   5.426
 3677POPC   PO447844  12.832  33.498   5.280
 3677POPC   GL147845  12.906  33.536   5.754
 3677POPC   GL247846  13.007  33.893   5.871
 3677POPC   C1A47847  12.960  33.551   6.230
 3677POPC   D2A47848  13.071  33.463   6.643
 3677POPC   C3A47849  12.785  33.722   6.881
 3677POPC   C4A47850  12.896  33.724   7.276
 3677POPC   C1B47851  12.941  34.110   6.298
 3677POPC   C2B47852  13.123  34.092   6.737
 3677POPC   C3B47853  13.143  34.193   7.203
 3677POPC   C4B47854  13.090  34.054   7.650
 3678POPC   NC347855  22.363  23.321   5.257
 3678POPC   PO447856  22.262  23.905   5.518
 3678POPC   GL147857  22.189  23.638   5.854
 3678POPC   GL247858  21.910  23.811   5.955
 3678POPC   C1A47859  22.355  23.704   6.281
 3678POPC   D2A47860  22.221  23.896   6.694
 3678POPC   C3A47861  22.564  23.955   6.973
 3678POPC   C4A47862  22.626  23.591   7.174
 3678POPC   C1B47863  21.861  23.709   6.395
 3678POPC   C2B47864  22.100  23.369   6.622
 3678POPC   C3B47865  22.132  23.426   7.064
 3678POPC   C4B47866  22.107  23.840   7.226
 3679POPC   NC347867  37.601  14.949   5.419
 3679POPC   PO447868  38.084  15.383   5.421
 3679POPC   GL147869  37.766  15.353   5.762
 3679POPC   GL247870  37.400  15.481   5.723
 3679POPC   C1A47871  37.831  15.182   6.206
 3679POPC   D2A47872  37.656  15.260   6.640
 3679POPC   C3A47873  37.834  15.093   7.056
 3679POPC   C4A47874  37.736  15.098   7.529
 3679POPC   C1B47875  37.334  15.129   6.047
 3679POPC   C2B47876  37.268  14.926   6.458
 3679POPC   C3B47877  37.343  14.954   6.902
 3679POPC   C4B47878  37.387  14.797   7.315
 3680POPC   NC347879  23.749  39.742   5.508
 3680POPC   PO447880  23.696  39.106   5.534
 3680POPC   GL147881  23.660  39.185   5.954
 3680POPC   GL247882  23.295  39.165   5.989
 3680POPC   C1A47883  23.585  38.995   6.345
 3680POPC   D2A47884  23.453  39.207   6.721
 3680POPC   C3A47885  23.816  39.292   6.975
 3680POPC   C4A47886  23.939  38.925   7.239
 3680POPC   C1B47887  23.338  39.512   6.292
 3680POPC   C2B47888  23.370  39.727   6.715
 3680POPC   C3B47889  23.362  39.561   7.140
 3680POPC   C4B47890  23.451  39.141   7.300
 3681POPC   NC347891  33.527  15.124   5.484
 3681POPC   PO447892  33.978  15.516   5.417
 3681POPC   GL147893  33.889  15.293   5.814
 3681POPC   GL247894  33.601  15.468   5.863
 3681POPC   C1A47895  34.034  15.232   6.281
 3681POPC   D2A47896  34.124  14.967   6.670
 3681POPC   C3A47897  34.223  15.225   7.017
 3681POPC   C4A47898  34.046  15.321   7.410
 3681POPC   C1B47899  33.523  15.208   6.217
 3681POPC   C2B47900  33.654  15.187   6.656
 3681POPC   C3B47901  33.680  15.128   7.097
 3681POPC   C4B47902  33.543  15.211   7.510
 3682POPC   NC347903  14.304  36.001   5.472
 3682POPC   PO447904  14.903  36.139   5.227
 3682POPC   GL147905  14.693  36.313   5.676
 3682POPC   GL247906  14.444  36.143   5.943
 3682POPC   C1A47907  14.776  36.428   6.154
 3682POPC   D2A47908  14.548  36.391   6.558
 3682POPC   C3A47909  14.340  36.340   6.941
 3682POPC   C4A47910  14.638  36.311   7.296
 3682POPC   C1B47911  14.155  36.142   6.322
 3682POPC   C2B47912  14.356  35.898   6.664
 3682POPC   C3B47913  14.560  35.887   7.037
 3682POPC   C4B47914  14.226  36.041   7.349
 3683POPC   NC347915  25.575  32.487   5.216
 3683POPC   PO447916  26.192  32.843   5.201
 3683POPC   GL147917  26.141  32.893   5.669
 3683POPC   GL247918  25.803  32.927   5.710
 3683POPC   C1A47919  26.081  32.893   6.167
 3683POPC   D2A47920  26.167  33.091   6.618
 3683POPC   C3A47921  26.020  33.067   7.087
 3683POPC   C4A47922  25.703  32.935   7.439
 3683POPC   C1B47923  25.803  33.293   5.919
 3683POPC   C2B47924  25.773  33.298   6.355
 3683POPC   C3B47925  25.681  33.283   6.774
 3683POPC   C4B47926  25.705  33.470   7.197
 3684POPC   NC347927  31.924  37.771   5.411
 3684POPC   PO447928  32.469  37.362   5.411
 3684POPC   GL147929  32.357  37.669   5.767
 3684POPC   GL247930  32.039  37.848   5.887
 3684POPC   C1A47931  32.443  37.773   6.210
 3684POPC   D2A47932  32.335  37.879   6.635
 3684POPC   C3A47933  32.039  37.629   6.867
 3684POPC   C4A47934  32.175  37.510   7.274
 3684POPC   C1B47935  31.917  37.834   6.305
 3684POPC   C2B47936  31.838  38.083   6.661
 3684POPC   C3B47937  32.049  38.120   7.047
 3684POPC   C4B47938  31.936  37.966   7.446
 3685POPC   NC347939  35.700  41.780   5.464
 3685POPC   PO447940  35.149  41.451   5.454
 3685POPC   GL147941  35.313  41.651   5.836
 3685POPC   GL247942  35.136  41.381   6.007
 3685POPC   C1A47943  35.545  41.581   6.241
 3685POPC   D2A47944  35.608  41.852   6.621
 3685POPC   C3A47945  35.689  41.620   6.994
 3685POPC   C4A47946  35.422  41.394   7.278
 3685POPC   C1B47947  34.993  41.157   6.389
 3685POPC   C2B47948  35.139  41.166   6.827
 3685POPC   C3B47949  34.988  41.130   7.247
 3685POPC   C4B47950  34.734  41.337   7.576
 3686POPC   NC347951  16.480  42.827   5.563
 3686POPC   PO447952  16.476  42.176   5.311
 3686POPC   GL147953  16.542  42.222   5.789
 3686POPC   GL247954  16.662  42.539   5.928
 3686POPC   C1A47955  16.734  42.100   6.229
 3686POPC   D2A47956  16.821  41.920   6.674
 3686POPC   C3A47957  16.842  42.239   7.003
 3686POPC   C4A47958  16.766  42.270   7.445
 3686POPC   C1B47959  16.475  42.571   6.316
 3686POPC   C2B47960  16.443  42.422   6.711
 3686POPC   C3B47961  16.501  42.628   7.102
 3686POPC   C4B47962  16.486  42.734   7.524
 3687POPC   NC347963  38.022  27.054   5.387
 3687POPC   PO447964  38.709  27.071   5.260
 3687POPC   GL147965  38.463  27.068   5.676
 3687POPC   GL247966  38.314  26.712   5.724
 3687POPC   C1A47967  38.245  27.064   6.107
 3687POPC   D2A47968  38.384  26.864   6.497
 3687POPC   C3A47969  38.238  26.968   6.905
 3687POPC   C4A47970  38.484  26.908   7.265
 3687POPC   C1B47971  38.221  26.517   6.147
 3687POPC   C2B47972  38.140  26.373   6.600
 3687POPC   C3B47973  38.241  26.462   7.054
 3687POPC   C4B47974  38.106  26.605   7.481
 3688POPC   NC347975  13.314  10.066   5.400
 3688POPC   PO447976  12.761   9.693   5.552
 3688POPC   GL147977  13.038   9.732   5.883
 3688POPC   GL247978  13.197  10.078   5.916
 3688POPC   C1A47979  12.861   9.824   6.284
 3688POPC   D2A47980  12.825   9.917   6.712
 3688POPC   C3A47981  12.696   9.566   6.968
 3688POPC   C4A47982  12.726   9.314   7.329
 3688POPC   C1B47983  13.170  10.213   6.358
 3688POPC   C2B47984  13.206  10.250   6.832
 3688POPC   C3B47985  13.075   9.917   7.157
 3688POPC   C4B47986  12.616   9.955   7.286
 3689POPC   NC347987  42.894  11.145   5.460
 3689POPC   PO447988  43.030  11.799   5.304
 3689POPC   GL147989  43.055  11.658   5.744
 3689POPC   GL247990  42.738  11.556   5.819
 3689POPC   C1A47991  43.196  11.543   6.194
 3689POPC   D2A47992  43.453  11.567   6.592
 3689POPC   C3A47993  43.380  11.383   6.986
 3689POPC   C4A47994  43.217  11.137   7.295
 3689POPC   C1B47995  42.756  11.249   6.169
 3689POPC   C2B47996  42.996  11.240   6.572
 3689POPC   C3B47997  42.863  11.358   6.971
 3689POPC   C4B47998  42.602  11.111   7.241
 3690POPC   NC347999  41.156  15.028   5.425
 3690POPC   PO448000  41.651  15.364   5.413
 3690POPC   GL148001  41.852  15.230   5.770
 3690POPC   GL248002  41.601  14.958   5.835
 3690POPC   C1A48003  41.812  15.342   6.202
 3690POPC   D2A48004  41.491  15.192   6.488
 3690POPC   C3A48005  41.592  15.228   6.930
 3690POPC   C4A48006  41.225  15.054   7.116
 3690POPC   C1B48007  41.836  14.833   6.229
 3690POPC   C2B48008  41.760  14.799   6.691
 3690POPC   C3B48009  41.655  14.772   7.146
 3690POPC   C4B48010  41.745  14.703   7.606
 3691POPC   NC348011  21.489   8.285   5.455
 3691POPC   PO448012  21.005   7.762   5.442
 3691POPC   GL148013  21.151   8.012   5.762
 3691POPC   GL248014  21.462   7.876   5.821
 3691POPC   C1A48015  21.267   8.288   6.105
 3691POPC   D2A48016  21.363   8.550   6.454
 3691POPC   C3A48017  21.529   8.399   6.825
 3691POPC   C4A48018  21.268   8.317   7.137
 3691POPC   C1B48019  21.620   7.920   6.214
 3691POPC   C2B48020  21.500   7.925   6.644
 3691POPC   C3B48021  21.627   7.942   7.094
 3691POPC   C4B48022  21.343   7.992   7.502
 3692POPC   NC348023  23.419  40.583   5.474
 3692POPC   PO448024  22.791  40.836   5.328
 3692POPC   GL148025  22.706  40.721   5.724
 3692POPC   GL248026  22.993  40.526   5.761
 3692POPC   C1A48027  22.535  40.912   6.102
 3692POPC   D2A48028  22.734  41.135   6.467
 3692POPC   C3A48029  22.707  40.999   6.882
 3692POPC   C4A48030  22.985  41.034   7.237
 3692POPC   C1B48031  23.033  40.805   6.123
 3692POPC   C2B48032  23.013  40.699   6.550
 3692POPC   C3B48033  23.233  40.748   6.919
 3692POPC   C4B48034  23.299  40.634   7.362
 3693POPC   NC348035   6.542  33.462   5.163
 3693POPC   PO448036   6.907  32.966   5.223
 3693POPC   GL148037   6.851  32.934   5.719
 3693POPC   GL248038   6.488  32.878   5.774
 3693POPC   C1A48039   6.817  32.880   6.197
 3693POPC   D2A48040   6.699  33.069   6.614
 3693POPC   C3A48041   6.817  32.940   7.040
 3693POPC   C4A48042   7.037  32.608   7.286
 3693POPC   C1B48043   6.346  33.089   6.161
 3693POPC   C2B48044   6.254  33.272   6.552
 3693POPC   C3B48045   6.301  33.016   6.931
 3693POPC   C4B48046   6.351  32.949   7.354
 3694POPC   NC348047  20.566  28.793   5.662
 3694POPC   PO448048  20.450  29.247   5.153
 3694POPC   GL148049  20.409  29.383   5.666
 3694POPC   GL248050  20.676  29.269   5.830
 3694POPC   C1A48051  20.343  29.213   6.182
 3694POPC   D2A48052  20.523  29.050   6.594
 3694POPC   C3A48053  20.345  29.232   6.969
 3694POPC   C4A48054  20.440  29.239   7.432
 3694POPC   C1B48055  20.879  29.119   6.224
 3694POPC   C2B48056  20.994  28.900   6.610
 3694POPC   C3B48057  20.912  29.048   6.987
 3694POPC   C4B48058  20.913  28.994   7.410
 3695POPC   NC348059   2.273  43.158   5.622
 3695POPC   PO448060   1.763  42.704   5.484
 3695POPC   GL148061   1.933  42.817   5.870
 3695POPC   GL248062   2.261  42.728   5.896
 3695POPC   C1A48063   1.831  42.875   6.299
 3695POPC   D2A48064   1.757  42.918   6.727
 3695POPC   C3A48065   1.798  43.328   6.889
 3695POPC   C4A48066   1.918  43.450   7.293
 3695POPC   C1B48067   2.346  42.948   6.247
 3695POPC   C2B48068   2.217  43.120   6.639
 3695POPC   C3B48069   2.133  42.981   7.067
 3695POPC   C4B48070   2.329  43.093   7.452
 3696POPC   NC348071  35.909  31.962   5.637
 3696POPC   PO448072  36.522  31.839   5.418
 3696POPC   GL148073  36.415  32.087   5.795
 3696POPC   GL248074  36.432  32.465   5.855
 3696POPC   C1A48075  36.330  32.122   6.241
 3696POPC   D2A48076  36.178  32.296   6.589
 3696POPC   C3A48077  36.028  32.054   6.886
 3696POPC   C4A48078  36.257  32.149   7.185
 3696POPC   C1B48079  36.093  32.604   6.183
 3696POPC   C2B48080  35.857  32.710   6.587
 3696POPC   C3B48081  36.029  32.581   7.000
 3696POPC   C4B48082  36.460  32.606   7.231
 3697POPC   NC348083  28.572  22.571   5.633
 3697POPC   PO448084  28.503  23.158   5.239
 3697POPC   GL148085  28.606  23.176   5.688
 3697POPC   GL248086  28.263  23.121   5.823
 3697POPC   C1A48087  28.673  23.038   6.117
 3697POPC   D2A48088  28.456  23.174   6.459
 3697POPC   C3A48089  28.585  23.068   6.871
 3697POPC   C4A48090  28.437  23.037   7.283
 3697POPC   C1B48091  28.242  22.774   6.150
 3697POPC   C2B48092  28.202  22.739   6.582
 3697POPC   C3B48093  28.055  22.972   6.924
 3697POPC   C4B48094  28.024  22.732   7.281
 3698POPC   NC348095   4.973  11.085   5.177
 3698POPC   PO448096   4.945  11.596   5.573
 3698POPC   GL148097   5.160  11.248   5.803
 3698POPC   GL248098   4.909  11.027   5.960
 3698POPC   C1A48099   5.358  11.210   6.222
 3698POPC   D2A48100   5.264  11.436   6.635
 3698POPC   C3A48101   5.283  11.283   7.086
 3698POPC   C4A48102   5.392  11.318   7.539
 3698POPC   C1B48103   4.894  11.433   6.218
 3698POPC   C2B48104   4.743  11.629   6.595
 3698POPC   C3B48105   4.847  11.603   7.016
 3698POPC   C4B48106   4.809  11.295   7.347
 3699POPC   NC348107  26.956  18.131   5.482
 3699POPC   PO448108  26.724  18.728   5.528
 3699POPC   GL148109  26.675  18.444   5.901
 3699POPC   GL248110  26.975  18.207   5.986
 3699POPC   C1A48111  26.618  18.343   6.351
 3699POPC   D2A48112  26.950  18.092   6.600
 3699POPC   C3A48113  27.004  18.249   7.023
 3699POPC   C4A48114  26.630  18.506   7.182
 3699POPC   C1B48115  26.698  17.871   6.165
 3699POPC   C2B48116  26.465  17.889   6.573
 3699POPC   C3B48117  26.524  18.021   7.020
 3699POPC   C4B48118  26.844  17.886   7.345
 3700POPC   NC348119  35.176  27.657   5.202
 3700POPC   PO448120  34.514  27.677   5.364
 3700POPC   GL148121  34.504  27.498   5.784
 3700POPC   GL248122  34.503  27.811   6.001
 3700POPC   C1A48123  34.530  27.375   6.236
 3700POPC   D2A48124  34.430  27.694   6.548
 3700POPC   C3A48125  34.412  27.530   6.947
 3700POPC   C4A48126  34.568  27.530   7.350
 3700POPC   C1B48127  34.875  27.780   6.323
 3700POPC   C2B48128  34.905  27.624   6.780
 3700POPC   C3B48129  35.022  27.692   7.230
 3700POPC   C4B48130  34.920  27.741   7.699
 3701POPC   NC348131   4.734  38.751   5.615
 3701POPC   PO448132   5.227  38.289   5.467
 3701POPC   GL148133   5.036  38.215   5.882
 3701POPC   GL248134   4.731  38.396   5.963
 3701POPC   C1A48135   5.019  38.272   6.345
 3701POPC   D2A48136   5.190  38.092   6.690
 3701POPC   C3A48137   5.119  38.341   7.059
 3701POPC   C4A48138   5.132  38.209   7.502
 3701POPC   C1B48139   4.848  38.761   6.273
 3701POPC   C2B48140   5.182  38.847   6.583
 3701POPC   C3B48141   5.350  38.803   7.010
 3701POPC   C4B48142   5.124  38.721   7.403
 3702POPC   NC348143  24.415   2.833   5.161
 3702POPC   PO448144  24.902   2.585   5.561
 3702POPC   GL148145  24.544   2.834   5.699
 3702POPC   GL248146  24.549   2.630   5.956
 3702POPC   C1A48147  24.226   2.997   6.064
 3702POPC   D2A48148  24.032   3.021   6.513
 3702POPC   C3A48149  24.146   2.890   6.947
 3702POPC   C4A48150  24.509   2.884   7.243
 3702POPC   C1B48151  24.666   2.860   6.335
 3702POPC   C2B48152  24.652   2.752   6.771
 3702POPC   C3B48153  24.834   2.530   7.170
 3702POPC   C4B48154  24.842   2.666   7.630
 3703POPC   NC348155  18.219  38.183   5.355
 3703POPC   PO448156  18.765  38.600   5.441
 3703POPC   GL148157  18.416  38.554   5.753
 3703POPC   GL248158  18.072  38.586   5.666
 3703POPC   C1A48159  18.180  38.779   6.133
 3703POPC   D2A48160  18.332  38.902   6.539
 3703POPC   C3A48161  18.160  38.655   6.887
 3703POPC   C4A48162  18.166  38.752   7.323
 3703POPC   C1B48163  18.076  38.298   6.029
 3703POPC   C2B48164  17.986  38.226   6.476
 3703POPC   C3B48165  17.990  38.057   6.883
 3703POPC   C4B48166  17.979  38.263   7.269
 3704POPC   NC348167  38.903  39.215   5.448
 3704POPC   PO448168  38.271  39.142   5.445
 3704POPC   GL148169  38.468  39.021   5.820
 3704POPC   GL248170  38.617  39.323   5.849
 3704POPC   C1A48171  38.682  39.107   6.286
 3704POPC   D2A48172  38.814  39.036   6.736
 3704POPC   C3A48173  38.467  39.119   7.024
 3704POPC   C4A48174  38.056  38.887   7.055
 3704POPC   C1B48175  38.641  39.634   6.161
 3704POPC   C2B48176  38.758  39.749   6.557
 3704POPC   C3B48177  38.868  39.520   6.902
 3704POPC   C4B48178  38.718  39.637   7.295
 3705POPC   NC348179   3.383  14.097   5.293
 3705POPC   PO448180   3.553  14.717   5.156
 3705POPC   GL148181   3.559  14.495   5.616
 3705POPC   GL248182   3.747  14.160   5.666
 3705POPC   C1A48183   3.545  14.568   6.105
 3705POPC   D2A48184   3.790  14.721   6.492
 3705POPC   C3A48185   3.708  14.503   6.907
 3705POPC   C4A48186   3.346  14.466   7.198
 3705POPC   C1B48187   3.538  14.047   6.081
 3705POPC   C2B48188   3.431  14.191   6.533
 3705POPC   C3B48189   3.497  13.995   6.963
 3705POPC   C4B48190   3.635  14.050   7.405
 3706POPC   NC348191  43.415  36.704   5.224
 3706POPC   PO448192  42.985  37.022   5.656
 3706POPC   GL148193  43.143  37.013   6.006
 3706POPC   GL248194  43.449  37.152   5.890
 3706POPC   C1A48195  42.980  36.751   6.324
 3706POPC   D2A48196  42.731  36.951   6.597
 3706POPC   C3A48197  42.950  36.903   6.917
 3706POPC   C4A48198  42.866  37.061   7.274
 3706POPC   C1B48199  43.543  36.866   6.278
 3706POPC   C2B48200  43.453  36.709   6.688
 3706POPC   C3B48201  43.437  36.850   7.103
 3706POPC   C4B48202  43.138  36.653   7.353
 3707POPC   NC348203  11.673   1.275   5.428
 3707POPC   PO448204  11.130   1.691   5.478
 3707POPC   GL148205  11.312   1.340   5.806
 3707POPC   GL248206  11.578   1.033   5.865
 3707POPC   C1A48207  11.152   1.008   6.105
 3707POPC   D2A48208  11.250   0.806   6.521
 3707POPC   C3A48209  11.277   0.962   6.907
 3707POPC   C4A48210  11.103   1.053   7.304
 3707POPC   C1B48211  11.543   1.282   6.267
 3707POPC   C2B48212  11.595   1.354   6.710
 3707POPC   C3B48213  11.345   1.441   7.041
 3707POPC   C4B48214  11.409   1.475   7.477
 3708POPC   NC348215  34.803  41.681   5.270
 3708POPC   PO448216  34.167  41.622   5.368
 3708POPC   GL148217  34.457  41.624   5.729
 3708POPC   GL248218  34.810  41.738   5.767
 3708POPC   C1A48219  34.613  41.471   6.144
 3708POPC   D2A48220  34.618  41.675   6.550
 3708POPC   C3A48221  34.640  41.442   6.945
 3708POPC   C4A48222  34.313  41.387   7.257
 3708POPC   C1B48223  34.944  41.867   6.168
 3708POPC   C2B48224  35.125  41.643   6.512
 3708POPC   C3B48225  35.128  41.681   6.939
 3708POPC   C4B48226  34.905  41.775   7.324
 3709POPC   NC348227   4.444  41.321   5.422
 3709POPC   PO448228   3.941  41.864   5.242
 3709POPC   GL148229   4.243  41.700   5.660
 3709POPC   GL248230   4.121  41.346   5.856
 3709POPC   C1A48231   4.510  41.586   6.069
 3709POPC   D2A48232   4.388  41.244   6.384
 3709POPC   C3A48233   4.458  41.295   6.849
 3709POPC   C4A48234   4.219  41.379   7.229
 3709POPC   C1B48235   4.041  41.593   6.266
 3709POPC   C2B48236   4.265  41.715   6.612
 3709POPC   C3B48237   4.101  41.833   7.000
 3709POPC   C4B48238   3.973  41.808   7.424
 3710POPC   NC348239   3.933  14.809   5.430
 3710POPC   PO448240   4.268  14.218   5.478
 3710POPC   GL148241   4.345  14.494   5.802
 3710POPC   GL248242   4.010  14.575   5.886
 3710POPC   C1A48243   4.503  14.469   6.224
 3710POPC   D2A48244   4.384  14.238   6.606
 3710POPC   C3A48245   4.417  14.452   7.026
 3710POPC   C4A48246   4.471  14.186   7.388
 3710POPC   C1B48247   4.018  14.224   6.193
 3710POPC   C2B48248   3.912  14.030   6.611
 3710POPC   C3B48249   4.019  14.107   7.048
 3710POPC   C4B48250   4.007  14.406   7.379
 3711POPC   NC348251  11.063  33.734   5.435
 3711POPC   PO448252  10.383  33.765   5.419
 3711POPC   GL148253  10.622  33.788   5.762
 3711POPC   GL248254  10.700  34.137   5.796
 3711POPC   C1A48255  10.474  33.622   6.149
 3711POPC   D2A48256  10.431  33.450   6.552
 3711POPC   C3A48257  10.576  33.709   6.869
 3711POPC   C4A48258  10.447  33.942   7.242
 3711POPC   C1B48259  10.790  34.062   6.249
 3711POPC   C2B48260  10.742  34.176   6.694
 3711POPC   C3B48261  10.956  34.042   7.087
 3711POPC   C4B48262  10.886  34.010   7.545
 3712POPC   NC348263  19.279  24.051   5.476
 3712POPC   PO448264  18.900  23.522   5.490
 3712POPC   GL148265  19.126  23.684   5.836
 3712POPC   GL248266  18.899  23.962   5.890
 3712POPC   C1A48267  19.163  23.783   6.303
 3712POPC   D2A48268  19.414  23.701   6.694
 3712POPC   C3A48269  19.408  24.017   7.000
 3712POPC   C4A48270  19.128  23.830   7.223
 3712POPC   C1B48271  18.672  23.617   6.150
 3712POPC   C2B48272  18.846  23.477   6.576
 3712POPC   C3B48273  18.893  23.445   7.006
 3712POPC   C4B48274  18.785  23.477   7.467
 3713POPC   NC348275   9.433  42.692   5.568
 3713POPC   PO448276  10.071  42.539   5.503
 3713POPC   GL148277   9.804  42.412   5.860
 3713POPC   GL248278   9.444  42.236   5.815
 3713POPC   C1A48279   9.931  42.232   6.262
 3713POPC   D2A48280  10.190  42.368   6.617
 3713POPC   C3A48281   9.998  42.277   6.982
 3713POPC   C4A48282   9.806  42.665   7.053
 3713POPC   C1B48283   9.449  42.373   6.243
 3713POPC   C2B48284   9.580  42.281   6.685
 3713POPC   C3B48285   9.436  42.331   7.134
 3713POPC   C4B48286   9.336  42.364   7.618
 3714POPC   NC348287  41.885  41.354   5.820
 3714POPC   PO448288  41.568  41.537   5.312
 3714POPC   GL148289  41.517  41.722   5.729
 3714POPC   GL248290  41.821  41.868   5.890
 3714POPC   C1A48291  41.408  41.631   6.172
 3714POPC   D2A48292  41.445  41.676   6.611
 3714POPC   C3A48293  41.207  41.502   6.934
 3714POPC   C4A48294  41.538  41.463   7.218
 3714POPC   C1B48295  41.885  41.781   6.328
 3714POPC   C2B48296  41.972  41.618   6.705
 3714POPC   C3B48297  41.959  41.788   7.123
 3714POPC   C4B48298  41.772  42.148   7.310
 3715POPC   NC348299  35.336   9.981   5.593
 3715POPC   PO448300  35.670   9.394   5.466
 3715POPC   GL148301  35.464   9.559   5.902
 3715POPC   GL248302  35.116   9.711   5.988
 3715POPC   C1A48303  35.463   9.681   6.379
 3715POPC   D2A48304  35.297   9.882   6.783
 3715POPC   C3A48305  35.514   9.757   7.180
 3715POPC   C4A48306  35.769   9.414   7.412
 3715POPC   C1B48307  35.078  10.013   6.313
 3715POPC   C2B48308  34.835  10.168   6.605
 3715POPC   C3B48309  34.865  10.063   7.010
 3715POPC   C4B48310  35.074   9.942   7.381
 3716POPC   NC348311  16.850  20.959   5.311
 3716POPC   PO448312  16.730  20.394   5.377
 3716POPC   GL148313  16.706  20.664   5.765
 3716POPC   GL248314  16.884  20.974   5.813
 3716POPC   C1A48315  16.527  20.761   6.177
 3716POPC   D2A48316  16.528  20.591   6.595
 3716POPC   C3A48317  16.867  20.369   6.731
 3716POPC   C4A48318  16.703  20.337   7.112
 3716POPC   C1B48319  17.021  20.796   6.204
 3716POPC   C2B48320  17.077  20.843   6.637
 3716POPC   C3B48321  16.834  20.836   6.989
 3716POPC   C4B48322  17.029  20.638   7.327
 3717POPC   NC348323  11.470  21.714   5.417
 3717POPC   PO448324  11.163  21.100   5.512
 3717POPC   GL148325  11.359  21.352   5.781
 3717POPC   GL248326  11.112  21.610   5.790
 3717POPC   C1A48327  11.467  21.221   6.175
 3717POPC   D2A48328  11.543  20.990   6.535
 3717POPC   C3A48329  11.371  21.130   6.893
 3717POPC   C4A48330  11.304  21.298   7.276
 3717POPC   C1B48331  11.324  21.719   6.159
 3717POPC   C2B48332  11.313  21.531   6.570
 3717POPC   C3B48333  11.529  21.629   6.952
 3717POPC   C4B48334  11.338  21.832   7.257
 3718POPC   NC348335  44.134  35.886   5.243
 3718POPC   PO448336  43.696  36.358   5.425
 3718POPC   GL148337  44.000  36.141   5.702
 3718POPC   GL248338  44.178  35.801   5.745
 3718POPC   C1A48339  44.196  36.155   6.118
 3718POPC   D2A48340  44.062  35.991   6.506
 3718POPC   C3A48341  44.178  36.104   6.910
 3718POPC   C4A48342  43.968  36.151   7.289
 3718POPC   C1B48343  43.817  35.794   6.061
 3718POPC   C2B48344  43.673  35.679   6.485
 3718POPC   C3B48345  43.834  35.709   6.913
 3718POPC   C4B48346  43.613  35.794   7.280
 3719POPC   NC348347  18.080  28.616   5.358
 3719POPC   PO448348  18.304  29.297   5.500
 3719POPC   GL148349  18.199  29.338   5.886
 3719POPC   GL248350  18.404  29.031   5.979
 3719POPC   C1A48351  18.366  29.438   6.274
 3719POPC   D2A48352  18.512  29.345   6.713
 3719POPC   C3A48353  18.234  29.460   7.100
 3719POPC   C4A48354  18.180  29.523   7.577
 3719POPC   C1B48355  18.045  29.043   6.277
 3719POPC   C2B48356  17.865  28.772   6.588
 3719POPC   C3B48357  17.861  28.762   7.041
 3719POPC   C4B48358  17.912  29.112   7.365
 3720POPC   NC348359  11.885   7.759   5.348
 3720POPC   PO448360  12.441   7.272   5.443
 3720POPC   GL148361  12.235   7.154   5.816
 3720POPC   GL248362  11.959   7.428   5.811
 3720POPC   C1A48363  12.237   7.318   6.234
 3720POPC   D2A48364  12.284   7.663   6.510
 3720POPC   C3A48365  12.289   7.512   6.923
 3720POPC   C4A48366  12.288   7.626   7.333
 3720POPC   C1B48367  11.761   7.482   6.246
 3720POPC   C2B48368  11.789   7.623   6.700
 3720POPC   C3B48369  11.789   7.594   7.174
 3720POPC   C4B48370  11.798   7.387   7.604
 3721POPC   NC348371  13.341  40.056   5.453
 3721POPC   PO448372  13.961  39.971   5.493
 3721POPC   GL148373  13.726  40.211   5.828
 3721POPC   GL248374  13.371  40.354   5.853
 3721POPC   C1A48375  13.685  40.051   6.258
 3721POPC   D2A48376  13.939  39.784   6.560
 3721POPC   C3A48377  13.778  39.794   6.991
 3721POPC   C4A48378  13.920  40.054   7.326
 3721POPC   C1B48379  13.438  40.502   6.253
 3721POPC   C2B48380  13.478  40.319   6.655
 3721POPC   C3B48381  13.357  40.369   7.069
 3721POPC   C4B48382  13.376  40.237   7.500
 3722POPC   NC348383  43.554  17.643   5.398
 3722POPC   PO448384  44.300  17.578   5.454
 3722POPC   GL148385  43.998  17.452   5.789
 3722POPC   GL248386  44.159  17.185   5.998
 3722POPC   C1A48387  43.672  17.293   6.133
 3722POPC   D2A48388  43.597  17.134   6.585
 3722POPC   C3A48389  43.861  17.269   6.929
 3722POPC   C4A48390  44.072  17.462   7.278
 3722POPC   C1B48391  44.102  17.571   6.274
 3722POPC   C2B48392  44.101  17.686   6.715
 3722POPC   C3B48393  44.391  17.768   7.016
 3722POPC   C4B48394  44.382  17.877   7.425
 3723POPC   NC348395  17.721  26.072   5.283
 3723POPC   PO448396  17.115  26.070   5.422
 3723POPC   GL148397  17.463  26.178   5.762
 3723POPC   GL248398  17.764  25.951   5.796
 3723POPC   C1A48399  17.573  26.170   6.223
 3723POPC   D2A48400  17.499  25.949   6.632
 3723POPC   C3A48401  17.540  26.076   7.064
 3723POPC   C4A48402  17.337  25.848   7.394
 3723POPC   C1B48403  18.017  25.944   6.169
 3723POPC   C2B48404  17.990  26.115   6.569
 3723POPC   C3B48405  18.145  26.147   6.969
 3723POPC   C4B48406  17.980  26.088   7.351
 3724POPC   NC348407  28.832  42.308   5.264
 3724POPC   PO448408  29.433  42.372   5.274
 3724POPC   GL148409  29.153  42.284   5.738
 3724POPC   GL248410  28.894  42.000   5.740
 3724POPC   C1A48411  29.017  42.497   6.217
 3724POPC   D2A48412  28.981  42.741   6.636
 3724POPC   C3A48413  28.928  42.473   7.024
 3724POPC   C4A48414  28.932  42.437   7.484
 3724POPC   C1B48415  29.049  41.997   6.178
 3724POPC   C2B48416  29.167  41.901   6.610
 3724POPC   C3B48417  29.234  41.993   7.038
 3724POPC   C4B48418  29.403  42.293   7.259
 3725POPC   NC348419  11.113   0.339   5.375
 3725POPC   PO448420  11.297   0.935   5.436
 3725POPC   GL148421  11.387   0.573   5.759
 3725POPC   GL248422  11.490   0.194   5.759
 3725POPC   C1A48423  11.516   0.574   6.181
 3725POPC   D2A48424  11.491   0.334   6.587
 3725POPC   C3A48425  11.209   0.462   6.923
 3725POPC   C4A48426  11.363   0.636   7.337
 3725POPC   C1B48427  11.283   0.089   6.186
 3725POPC   C2B48428  11.146  44.973   6.650
 3725POPC   C3B48429  11.370   0.008   7.059
 3725POPC   C4B48430  11.201   0.170   7.446
 3726POPC   NC348431  18.350   9.582   5.406
 3726POPC   PO448432  17.794   9.461   5.264
 3726POPC   GL148433  17.945   9.772   5.659
 3726POPC   GL248434  18.332   9.852   5.817
 3726POPC   C1A48435  17.937   9.838   6.126
 3726POPC   D2A48436  18.094   9.592   6.471
 3726POPC   C3A48437  18.044   9.678   6.898
 3726POPC   C4A48438  17.864   9.718   7.283
 3726POPC   C1B48439  18.500   9.803   6.235
 3726POPC   C2B48440  18.482   9.878   6.684
 3726POPC   C3B48441  18.520   9.625   7.068
 3726POPC   C4B48442  18.568   9.328   7.355
 3727POPC   NC348443   5.181   7.458   5.052
 3727POPC   PO448444   5.037   7.695   5.650
 3727POPC   GL148445   5.109   7.418   5.953
 3727POPC   GL248446   4.848   7.215   5.784
 3727POPC   C1A48447   5.339   7.435   6.347
 3727POPC   D2A48448   5.382   7.279   6.774
 3727POPC   C3A48449   5.287   7.618   7.086
 3727POPC   C4A48450   5.339   7.638   7.551
 3727POPC   C1B48451   4.714   7.192   6.185
 3727POPC   C2B48452   4.914   7.198   6.559
 3727POPC   C3B48453   4.881   7.346   6.954
 3727POPC   C4B48454   5.016   7.288   7.380
 3728POPC   NC348455  25.187  13.973   5.411
 3728POPC   PO448456  25.617  13.497   5.226
 3728POPC   GL148457  25.456  13.663   5.682
 3728POPC   GL248458  25.702  13.708   5.977
 3728POPC   C1A48459  25.201  13.773   6.061
 3728POPC   D2A48460  25.349  13.775   6.512
 3728POPC   C3A48461  25.074  13.846   6.885
 3728POPC   C4A48462  25.115  13.633   7.278
 3728POPC   C1B48463  25.445  13.342   6.222
 3728POPC   C2B48464  25.389  13.086   6.611
 3728POPC   C3B48465  25.346  13.243   7.039
 3728POPC   C4B48466  25.577  13.419   7.392
 3729POPC   NC348467  41.250  37.936   5.414
 3729POPC   PO448468  41.887  38.115   5.539
 3729POPC   GL148469  41.612  37.820   5.782
 3729POPC   GL248470  41.525  37.465   5.736
 3729POPC   C1A48471  41.756  37.630   6.183
 3729POPC   D2A48472  41.636  37.411   6.559
 3729POPC   C3A48473  41.641  37.665   6.931
 3729POPC   C4A48474  41.900  37.979   7.103
 3729POPC   C1B48475  41.258  37.491   6.153
 3729POPC   C2B48476  41.135  37.331   6.562
 3729POPC   C3B48477  41.321  37.272   6.956
 3729POPC   C4B48478  41.331  37.492   7.337
 3730POPC   NC348479  33.775  33.078   5.447
 3730POPC   PO448480  33.210  32.717   5.615
 3730POPC   GL148481  33.566  32.877   5.849
 3730POPC   GL248482  33.609  33.243   5.905
 3730POPC   C1A48483  33.823  32.816   6.197
 3730POPC   D2A48484  33.727  32.763   6.600
 3730POPC   C3A48485  34.033  32.778   6.902
 3730POPC   C4A48486  33.784  32.889   7.259
 3730POPC   C1B48487  34.043  33.255   6.063
 3730POPC   C2B48488  34.078  33.165   6.498
 3730POPC   C3B48489  33.772  33.225   6.819
 3730POPC   C4B48490  33.922  33.369   7.186
 3731POPC   NC348491  11.667  34.132   5.474
 3731POPC   PO448492  11.430  33.465   5.454
 3731POPC   GL148493  11.452  33.789   5.803
 3731POPC   GL248494  11.116  33.846   5.929
 3731POPC   C1A48495  11.478  34.014   6.227
 3731POPC   D2A48496  11.238  34.046   6.634
 3731POPC   C3A48497  11.377  33.753   6.972
 3731POPC   C4A48498  11.421  33.440   7.323
 3731POPC   C1B48499  11.249  33.451   6.154
 3731POPC   C2B48500  11.284  33.285   6.587
 3731POPC   C3B48501  11.018  33.403   6.922
 3731POPC   C4B48502  10.837  33.574   7.277
 3732POPC   NC348503   8.836  20.592   5.450
 3732POPC   PO448504   9.437  20.944   5.313
 3732POPC   GL148505   9.310  20.624   5.646
 3732POPC   GL248506   9.022  20.758   5.881
 3732POPC   C1A48507   9.371  20.430   6.065
 3732POPC   D2A48508   9.218  20.366   6.498
 3732POPC   C3A48509   9.288  20.620   6.856
 3732POPC   C4A48510   9.333  20.499   7.275
 3732POPC   C1B48511   8.800  20.553   6.223
 3732POPC   C2B48512   8.756  20.549   6.675
 3732POPC   C3B48513   8.840  20.723   7.080
 3732POPC   C4B48514   9.181  21.013   7.240
 3733POPC   NC348515  42.049   1.755   5.354
 3733POPC   PO448516  42.359   1.146   5.398
 3733POPC   GL148517  42.258   1.309   5.775
 3733POPC   GL248518  41.951   1.510   5.782
 3733POPC   C1A48519  42.511   1.182   6.126
 3733POPC   D2A48520  42.603   0.982   6.515
 3733POPC   C3A48521  42.642   1.268   6.829
 3733POPC   C4A48522  42.561   1.147   7.258
 3733POPC   C1B48523  41.929   1.302   6.153
 3733POPC   C2B48524  42.181   1.336   6.508
 3733POPC   C3B48525  42.151   1.149   6.871
 3733POPC   C4B48526  42.041   1.177   7.259
 3734POPC   NC348527  30.313  20.825   4.948
 3734POPC   PO448528  30.657  20.378   5.374
 3734POPC   GL148529  30.817  20.554   5.797
 3734POPC   GL248530  30.715  20.854   5.948
 3734POPC   C1A48531  30.723  20.446   6.246
 3734POPC   D2A48532  30.771  20.732   6.607
 3734POPC   C3A48533  30.671  20.486   6.957
 3734POPC   C4A48534  30.820  20.435   7.395
 3734POPC   C1B48535  30.357  20.831   6.252
 3734POPC   C2B48536  30.254  20.788   6.695
 3734POPC   C3B48537  30.362  20.832   7.125
 3734POPC   C4B48538  30.348  20.591   7.505
 3735POPC   NC348539  34.194  12.210   5.470
 3735POPC   PO448540  34.825  11.889   5.398
 3735POPC   GL148541  34.625  12.099   5.735
 3735POPC   GL248542  34.378  11.862   5.869
 3735POPC   C1A48543  34.653  12.356   6.122
 3735POPC   D2A48544  34.902  12.230   6.478
 3735POPC   C3A48545  34.726  12.163   6.898
 3735POPC   C4A48546  34.739  12.377   7.301
 3735POPC   C1B48547  34.725  11.828   6.167
 3735POPC   C2B48548  34.739  11.670   6.605
 3735POPC   C3B48549  34.591  11.664   7.031
 3735POPC   C4B48550  34.625  11.872   7.439
 3736POPC   NC348551  16.228   6.266   5.232
 3736POPC   PO448552  16.007   5.743   5.350
 3736POPC   GL148553  15.879   5.683   5.779
 3736POPC   GL248554  15.689   5.969   5.775
 3736POPC   C1A48555  15.963   5.836   6.202
 3736POPC   D2A48556  16.123   6.009   6.586
 3736POPC   C3A48557  16.008   5.841   6.965
 3736POPC   C4A48558  16.183   5.895   7.364
 3736POPC   C1B48559  15.540   6.139   6.133
 3736POPC   C2B48560  15.608   6.030   6.544
 3736POPC   C3B48561  15.483   5.911   6.941
 3736POPC   C4B48562  15.643   5.905   7.312
 3737POPC   NC348563   2.567   0.524   5.516
 3737POPC   PO448564   2.930  44.984   5.376
 3737POPC   GL148565   2.885   0.252   5.803
 3737POPC   GL248566   3.142   0.407   5.970
 3737POPC   C1A48567   2.595   0.433   6.157
 3737POPC   D2A48568   2.411   0.309   6.568
 3737POPC   C3A48569   2.694   0.163   6.924
 3737POPC   C4A48570   2.676   0.122   7.398
 3737POPC   C1B48571   2.998   0.709   6.308
 3737POPC   C2B48572   2.816   0.675   6.740
 3737POPC   C3B48573   2.777   0.597   7.203
 3737POPC   C4B48574   2.786   0.884   7.568
 3738POPC   NC348575  37.717  36.572   5.133
 3738POPC   PO448576  37.486  37.125   5.406
 3738POPC   GL148577  37.716  36.899   5.755
 3738POPC   GL248578  37.492  36.633   5.878
 3738POPC   C1A48579  37.851  36.852   6.207
 3738POPC   D2A48580  38.101  36.829   6.598
 3738POPC   C3A48581  37.900  37.022   6.942
 3738POPC   C4A48582  37.551  37.137   7.211
 3738POPC   C1B48583  37.548  36.433   6.282
 3738POPC   C2B48584  37.632  36.542   6.704
 3738POPC   C3B48585  37.635  36.627   7.148
 3738POPC   C4B48586  38.053  36.654   7.259
 3739POPC   NC348587   4.421   1.535   5.450
 3739POPC   PO448588   3.895   1.166   5.438
 3739POPC   GL148589   4.085   1.368   5.805
 3739POPC   GL248590   3.914   1.660   5.931
 3739POPC   C1A48591   4.397   1.449   6.157
 3739POPC   D2A48592   4.477   1.183   6.538
 3739POPC   C3A48593   4.454   1.299   6.985
 3739POPC   C4A48594   4.370   1.026   7.366
 3739POPC   C1B48595   3.915   1.397   6.295
 3739POPC   C2B48596   4.042   1.374   6.704
 3739POPC   C3B48597   3.983   1.253   7.120
 3739POPC   C4B48598   4.073   1.385   7.570
 3740POPC   NC348599  12.305  43.466   5.139
 3740POPC   PO448600  11.853  43.088   5.475
 3740POPC   GL148601  11.892  43.184   5.880
 3740POPC   GL248602  11.768  43.516   5.831
 3740POPC   C1A48603  12.162  43.098   6.256
 3740POPC   D2A48604  12.275  43.275   6.654
 3740POPC   C3A48605  12.216  42.974   6.954
 3740POPC   C4A48606  12.188  43.040   7.393
 3740POPC   C1B48607  11.858  43.516   6.288
 3740POPC   C2B48608  11.872  43.621   6.732
 3740POPC   C3B48609  11.952  43.404   7.121
 3740POPC   C4B48610  11.864  43.385   7.599
 3741POPC   NC348611  23.824   0.142   5.397
 3741POPC   PO448612  23.726   0.850   5.279
 3741POPC   GL148613  23.723   0.805   5.764
 3741POPC   GL248614  23.943   0.504   5.827
 3741POPC   C1A48615  23.693   0.690   6.248
 3741POPC   D2A48616  23.874   0.518   6.650
 3741POPC   C3A48617  23.795   0.669   7.076
 3741POPC   C4A48618  23.458   0.663   7.369
 3741POPC   C1B48619  23.838   0.203   6.178
 3741POPC   C2B48620  23.609   0.097   6.555
 3741POPC   C3B48621  23.854   0.106   6.954
 3741POPC   C4B48622  23.744   0.245   7.357
 3742POPC   NC348623  34.850  30.875   5.477
 3742POPC   PO448624  34.255  30.609   5.387
 3742POPC   GL148625  34.374  30.567   5.836
 3742POPC   GL248626  34.741  30.504   5.886
 3742POPC   C1A48627  34.456  30.694   6.277
 3742POPC   D2A48628  34.614  30.960   6.620
 3742POPC   C3A48629  34.397  30.876   6.968
 3742POPC   C4A48630  34.515  30.549   7.235
 3742POPC   C1B48631  34.778  30.314   6.320
 3742POPC   C2B48632  34.684  30.446   6.740
 3742POPC   C3B48633  35.000  30.527   7.044
 3742POPC   C4B48634  34.993  30.444   7.490
 3743POPC   NC348635  10.266   6.567   5.374
 3743POPC   PO448636  10.852   7.074   5.367
 3743POPC   GL148637  10.766   6.874   5.739
 3743POPC   GL248638  10.415   6.778   5.801
 3743POPC   C1A48639  10.768   6.693   6.152
 3743POPC   D2A48640  10.501   6.815   6.478
 3743POPC   C3A48641  10.699   6.694   6.862
 3743POPC   C4A48642  10.566   6.792   7.243
 3743POPC   C1B48643  10.320   6.440   6.149
 3743POPC   C2B48644  10.460   6.331   6.589
 3743POPC   C3B48645  10.306   6.358   7.018
 3743POPC   C4B48646  10.390   6.350   7.473
 3744POPC   NC348647  17.570  42.830   5.433
 3744POPC   PO448648  17.357  43.481   5.300
 3744POPC   GL148649  17.331  43.401   5.742
 3744POPC   GL248650  17.434  43.070   5.858
 3744POPC   C1A48651  17.388  43.445   6.199
 3744POPC   D2A48652  17.670  43.156   6.423
 3744POPC   C3A48653  17.642  43.150   6.882
 3744POPC   C4A48654  17.336  43.260   7.200
 3744POPC   C1B48655  17.378  42.748   6.146
 3744POPC   C2B48656  17.417  42.744   6.601
 3744POPC   C3B48657  17.291  42.767   7.032
 3744POPC   C4B48658  17.495  42.776   7.444
 3745POPC   NC348659  28.802  21.822   5.485
 3745POPC   PO448660  29.251  21.325   5.349
 3745POPC   GL148661  29.350  21.422   5.756
 3745POPC   GL248662  29.050  21.553   5.842
 3745POPC   C1A48663  29.348  21.315   6.210
 3745POPC   D2A48664  29.232  21.121   6.596
 3745POPC   C3A48665  29.346  21.305   6.995
 3745POPC   C4A48666  29.405  21.326   7.464
 3745POPC   C1B48667  28.861  21.763   6.183
 3745POPC   C2B48668  28.710  21.631   6.583
 3745POPC   C3B48669  28.854  21.767   7.003
 3745POPC   C4B48670  28.733  21.802   7.476
 3746POPC   NC348671   8.667  44.459   5.485
 3746POPC   PO448672   7.968  44.526   5.670
 3746POPC   GL148673   8.232  44.569   5.967
 3746POPC   GL248674   8.497  44.293   5.964
 3746POPC   C1A48675   8.328  44.857   6.326
 3746POPC   D2A48676   8.230   0.060   6.745
 3746POPC   C3A48677   8.360  44.788   7.117
 3746POPC   C4A48678   8.024  44.594   7.375
 3746POPC   C1B48679   8.293  44.321   6.393
 3746POPC   C2B48680   8.260  44.349   6.849
 3746POPC   C3B48681   8.283  44.168   7.257
 3746POPC   C4B48682   8.213  44.278   7.743
 3747POPC   NC348683  14.269  13.063   5.475
 3747POPC   PO448684  14.146  12.453   5.559
 3747POPC   GL148685  14.125  12.646   5.980
 3747POPC   GL248686  14.351  12.888   5.935
 3747POPC   C1A48687  14.361  12.686   6.404
 3747POPC   D2A48688  14.562  12.680   6.834
 3747POPC   C3A48689  14.261  12.783   7.171
 3747POPC   C4A48690  14.075  12.541   7.522
 3747POPC   C1B48691  14.589  13.174   6.134
 3747POPC   C2B48692  14.596  13.162   6.553
 3747POPC   C3B48693  14.836  13.115   6.874
 3747POPC   C4B48694  14.733  12.981   7.277
 3748POPC   NC348695   6.674  21.284   5.408
 3748POPC   PO448696   6.584  22.008   5.463
 3748POPC   GL148697   6.574  21.662   5.747
 3748POPC   GL248698   6.900  21.492   5.840
 3748POPC   C1A48699   6.518  21.593   6.180
 3748POPC   D2A48700   6.762  21.707   6.526
 3748POPC   C3A48701   6.552  21.568   6.887
 3748POPC   C4A48702   6.582  21.389   7.252
 3748POPC   C1B48703   6.780  21.149   6.126
 3748POPC   C2B48704   6.595  21.188   6.531
 3748POPC   C3B48705   6.752  21.033   6.916
 3748POPC   C4B48706   6.990  21.081   7.266
 3749POPC   NC348707  27.278  37.754   5.246
 3749POPC   PO448708  27.790  37.478   5.497
 3749POPC   GL148709  27.566  37.764   5.769
 3749POPC   GL248710  27.785  37.609   5.986
 3749POPC   C1A48711  27.533  37.963   6.215
 3749POPC   D2A48712  27.700  37.840   6.643
 3749POPC   C3A48713  27.513  38.004   7.044
 3749POPC   C4A48714  27.646  37.936   7.482
 3749POPC   C1B48715  27.423  37.480   6.260
 3749POPC   C2B48716  27.283  37.526   6.681
 3749POPC   C3B48717  27.436  37.511   7.088
 3749POPC   C4B48718  27.694  37.353   7.416
 3750POPC   NC348719  30.887   9.242   5.524
 3750POPC   PO448720  31.323   8.768   5.303
 3750POPC   GL148721  31.204   8.886   5.733
 3750POPC   GL248722  31.362   9.197   5.762
 3750POPC   C1A48723  31.219   8.677   6.170
 3750POPC   D2A48724  31.462   8.729   6.557
 3750POPC   C3A48725  31.247   8.726   6.959
 3750POPC   C4A48726  31.384   8.834   7.377
 3750POPC   C1B48727  31.467   9.117   6.186
 3750POPC   C2B48728  31.530   9.235   6.602
 3750POPC   C3B48729  31.728   9.284   6.964
 3750POPC   C4B48730  31.581   9.297   7.359
 3751POPC   NC348731  14.859  39.889   5.476
 3751POPC   PO448732  15.527  39.828   5.487
 3751POPC   GL148733  15.377  39.985   5.868
 3751POPC   GL248734  15.105  39.791   5.963
 3751POPC   C1A48735  15.402  40.091   6.288
 3751POPC   D2A48736  15.313  39.890   6.677
 3751POPC   C3A48737  15.296  40.211   7.053
 3751POPC   C4A48738  15.446  40.082   7.476
 3751POPC   C1B48739  14.895  39.971   6.358
 3751POPC   C2B48740  14.857  40.024   6.837
 3751POPC   C3B48741  15.123  39.749   7.177
 3751POPC   C4B48742  15.094  39.737   7.648
 3752POPC   NC348743  31.776  29.135   5.169
 3752POPC   PO448744  32.423  29.087   5.344
 3752POPC   GL148745  32.189  29.087   5.692
 3752POPC   GL248746  32.222  28.763   5.852
 3752POPC   C1A48747  32.169  29.259   6.090
 3752POPC   D2A48748  32.210  29.092   6.495
 3752POPC   C3A48749  32.202  29.352   6.820
 3752POPC   C4A48750  32.258  29.418   7.231
 3752POPC   C1B48751  31.908  28.797   6.204
 3752POPC   C2B48752  31.812  28.874   6.692
 3752POPC   C3B48753  32.127  28.882   7.042
 3752POPC   C4B48754  32.499  28.606   7.143
 3753POPC   NC348755   4.237  37.129   5.505
 3753POPC   PO448756   4.507  37.692   5.114
 3753POPC   GL148757   4.377  37.674   5.596
 3753POPC   GL248758   4.036  37.581   5.675
 3753POPC   C1A48759   4.430  37.472   6.047
 3753POPC   D2A48760   4.753  37.450   6.392
 3753POPC   C3A48761   4.581  37.507   6.829
 3753POPC   C4A48762   4.345  37.494   7.211
 3753POPC   C1B48763   3.956  37.671   6.112
 3753POPC   C2B48764   4.158  37.658   6.525
 3753POPC   C3B48765   3.985  37.721   6.936
 3753POPC   C4B48766   3.888  37.703   7.367
 3754POPC   NC348767  28.389  38.630   4.981
 3754POPC   PO448768  28.436  38.080   5.379
 3754POPC   GL148769  28.316  38.246   5.807
 3754POPC   GL248770  28.062  38.061   6.020
 3754POPC   C1A48771  28.265  38.493   6.192
 3754POPC   D2A48772  28.429  38.451   6.594
 3754POPC   C3A48773  28.253  38.477   6.975
 3754POPC   C4A48774  28.637  38.388   7.207
 3754POPC   C1B48775  28.415  38.031   6.302
 3754POPC   C2B48776  28.324  37.951   6.710
 3754POPC   C3B48777  28.035  38.014   7.023
 3754POPC   C4B48778  28.215  38.153   7.382
 3755POPC   NC348779  15.779  34.230   5.409
 3755POPC   PO448780  16.059  34.838   5.379
 3755POPC   GL148781  16.157  34.691   5.777
 3755POPC   GL248782  15.876  34.518   5.823
 3755POPC   C1A48783  16.081  34.857   6.182
 3755POPC   D2A48784  15.871  34.795   6.562
 3755POPC   C3A48785  16.062  34.895   6.932
 3755POPC   C4A48786  15.847  34.656   7.260
 3755POPC   C1B48787  15.805  34.393   6.233
 3755POPC   C2B48788  15.465  34.220   6.450
 3755POPC   C3B48789  15.596  34.263   6.854
 3755POPC   C4B48790  15.828  34.148   7.188
 3756POPC   NC348791   8.619   6.715   5.489
 3756POPC   PO448792   9.056   6.188   5.377
 3756POPC   GL148793   9.056   6.341   5.785
 3756POPC   GL248794   8.704   6.430   5.920
 3756POPC   C1A48795   9.146   6.508   6.182
 3756POPC   D2A48796   8.815   6.481   6.488
 3756POPC   C3A48797   8.964   6.459   6.883
 3756POPC   C4A48798   9.055   6.538   7.311
 3756POPC   C1B48799   8.765   6.851   6.139
 3756POPC   C2B48800   9.064   6.958   6.492
 3756POPC   C3B48801   9.171   6.928   6.958
 3756POPC   C4B48802   9.038   7.016   7.430
 3757POPC   NC348803   9.296  12.224   5.417
 3757POPC   PO448804   8.666  11.896   5.437
 3757POPC   GL148805   8.937  12.012   5.803
 3757POPC   GL248806   9.150  12.306   5.883
 3757POPC   C1A48807   9.047  11.975   6.240
 3757POPC   D2A48808   8.873  12.097   6.594
 3757POPC   C3A48809   9.072  11.957   6.959
 3757POPC   C4A48810   8.876  12.095   7.330
 3757POPC   C1B48811   9.268  12.527   6.255
 3757POPC   C2B48812   9.395  12.432   6.691
 3757POPC   C3B48813   9.424  12.451   7.168
 3757POPC   C4B48814   9.294  12.274   7.571
 3758POPC   NC348815  20.852  29.398   5.360
 3758POPC   PO448816  20.440  30.011   5.357
 3758POPC   GL148817  20.464  29.882   5.790
 3758POPC   GL248818  20.812  29.759   5.738
 3758POPC   C1A48819  20.442  29.995   6.259
 3758POPC   D2A48820  20.743  30.023   6.599
 3758POPC   C3A48821  20.571  30.069   7.000
 3758POPC   C4A48822  20.486  29.858   7.362
 3758POPC   C1B48823  20.769  29.623   6.164
 3758POPC   C2B48824  20.540  29.550   6.518
 3758POPC   C3B48825  20.677  29.595   6.898
 3758POPC   C4B48826  20.817  29.483   7.236
 3759POPC   NC348827  32.680  20.936   5.440
 3759POPC   PO448828  33.275  20.883   5.518
 3759POPC   GL148829  33.062  20.692   5.843
 3759POPC   GL248830  32.825  20.899   5.930
 3759POPC   C1A48831  33.063  20.646   6.314
 3759POPC   D2A48832  32.941  20.841   6.675
 3759POPC   C3A48833  33.193  20.775   6.997
 3759POPC   C4A48834  33.374  20.768   7.427
 3759POPC   C1B48835  32.600  20.554   6.133
 3759POPC   C2B48836  32.565  20.491   6.603
 3759POPC   C3B48837  32.705  20.590   7.069
 3759POPC   C4B48838  32.634  20.587   7.520
 3760POPC   NC348839  44.509   1.394   5.359
 3760POPC   PO448840  44.886   0.781   5.296
 3760POPC   GL148841  44.767   1.059   5.683
 3760POPC   GL248842  44.418   1.177   5.816
 3760POPC   C1A48843  44.854   1.123   6.138
 3760POPC   D2A48844  44.671   1.214   6.538
 3760POPC   C3A48845  44.922   1.210   6.919
 3760POPC   C4A48846  44.946   0.940   7.251
 3760POPC   C1B48847  44.348   1.478   6.202
 3760POPC   C2B48848  44.330   1.562   6.704
 3760POPC   C3B48849  44.469   1.399   7.151
 3760POPC   C4B48850  44.332   1.290   7.611
 3761POPC   NC348851  16.877  13.853   5.408
 3761POPC   PO448852  16.367  13.337   5.326
 3761POPC   GL148853  16.704  13.327   5.699
 3761POPC   GL248854  17.072  13.485   5.726
 3761POPC   C1A48855  16.618  13.332   6.169
 3761POPC   D2A48856  16.781  13.430   6.574
 3761POPC   C3A48857  16.632  13.608   6.951
 3761POPC   C4A48858  16.595  13.440   7.342
 3761POPC   C1B48859  17.043  13.665   6.153
 3761POPC   C2B48860  17.055  13.852   6.560
 3761POPC   C3B48861  17.154  13.696   6.950
 3761POPC   C4B48862  16.983  13.796   7.356
 3762POPC   NC348863  36.064  25.919   5.539
 3762POPC   PO448864  35.492  26.244   5.227
 3762POPC   GL148865  35.409  26.051   5.676
 3762POPC   GL248866  35.380  25.670   5.721
 3762POPC   C1A48867  35.201  26.024   6.110
 3762POPC   D2A48868  35.286  26.215   6.548
 3762POPC   C3A48869  35.050  26.205   6.945
 3762POPC   C4A48870  35.333  26.146   7.323
 3762POPC   C1B48871  35.424  25.564   6.180
 3762POPC   C2B48872  35.209  25.706   6.542
 3762POPC   C3B48873  35.317  25.770   6.953
 3762POPC   C4B48874  35.562  25.692   7.332
 3763POPC   NC348875  37.860  42.024   5.474
 3763POPC   PO448876  37.729  41.377   5.332
 3763POPC   GL148877  37.670  41.527   5.765
 3763POPC   GL248878  37.476  41.831   5.799
 3763POPC   C1A48879  37.570  41.323   6.177
 3763POPC   D2A48880  37.797  41.316   6.563
 3763POPC   C3A48881  37.690  41.380   6.983
 3763POPC   C4A48882  37.960  41.471   7.308
 3763POPC   C1B48883  37.685  41.825   6.231
 3763POPC   C2B48884  37.768  41.865   6.700
 3763POPC   C3B48885  37.917  41.960   7.141
 3763POPC   C4B48886  37.850  41.970   7.612
 3764POPC   NC348887  27.555   3.396   5.415
 3764POPC   PO448888  27.868   4.031   5.466
 3764POPC   GL148889  27.809   3.672   5.771
 3764POPC   GL248890  27.505   3.491   5.933
 3764POPC   C1A48891  27.936   3.652   6.189
 3764POPC   D2A48892  28.027   3.526   6.576
 3764POPC   C3A48893  27.745   3.527   6.889
 3764POPC   C4A48894  27.873   3.396   7.297
 3764POPC   C1B48895  27.469   3.538   6.404
 3764POPC   C2B48896  27.143   3.800   6.642
 3764POPC   C3B48897  27.187   3.979   7.062
 3764POPC   C4B48898  27.527   3.783   7.283
 3765POPC   NC348899  36.396  29.863   5.224
 3765POPC   PO448900  35.948  30.284   5.416
 3765POPC   GL148901  36.092  30.050   5.799
 3765POPC   GL248902  36.396  29.787   5.819
 3765POPC   C1A48903  36.009  29.948   6.244
 3765POPC   D2A48904  35.967  30.179   6.641
 3765POPC   C3A48905  36.026  30.077   7.049
 3765POPC   C4A48906  36.242  30.274   7.359
 3765POPC   C1B48907  36.360  29.574   6.278
 3765POPC   C2B48908  36.233  29.675   6.760
 3765POPC   C3B48909  36.456  29.790   7.191
 3765POPC   C4B48910  36.487  29.961   7.671
 3766POPC   NC348911  37.987  25.226   5.460
 3766POPC   PO448912  37.447  25.563   5.533
 3766POPC   GL148913  37.526  25.332   5.893
 3766POPC   GL248914  37.438  24.980   5.829
 3766POPC   C1A48915  37.827  25.432   6.226
 3766POPC   D2A48916  38.061  25.319   6.602
 3766POPC   C3A48917  37.882  25.470   6.999
 3766POPC   C4A48918  37.639  25.396   7.366
 3766POPC   C1B48919  37.682  24.929   6.231
 3766POPC   C2B48920  37.830  24.856   6.679
 3766POPC   C3B48921  37.597  24.986   7.042
 3766POPC   C4B48922  37.198  25.199   7.190
 3767POPC   NC348923  15.547  40.313   5.516
 3767POPC   PO448924  16.248  40.138   5.455
 3767POPC   GL148925  15.943  40.073   5.811
 3767POPC   GL248926  15.819  39.739   5.933
 3767POPC   C1A48927  15.921  40.132   6.278
 3767POPC   D2A48928  15.730  40.195   6.681
 3767POPC   C3A48929  15.683  39.917   7.017
 3767POPC   C4A48930  15.920  40.190   7.232
 3767POPC   C1B48931  16.217  39.738   6.170
 3767POPC   C2B48932  16.383  39.945   6.498
 3767POPC   C3B48933  16.154  39.878   6.866
 3767POPC   C4B48934  16.045  39.710   7.303
 3768POPC   NC348935  23.287  44.116   5.474
 3768POPC   PO448936  23.510  44.763   5.335
 3768POPC   GL148937  23.426  44.567   5.745
 3768POPC   GL248938  23.615  44.244   5.840
 3768POPC   C1A48939  23.616  44.716   6.147
 3768POPC   D2A48940  23.845  44.664   6.551
 3768POPC   C3A48941  23.573  44.697   6.925
 3768POPC   C4A48942  23.837  44.379   7.066
 3768POPC   C1B48943  23.328  44.288   6.201
 3768POPC   C2B48944  23.472  44.305   6.629
 3768POPC   C3B48945  23.343  44.245   7.061
 3768POPC   C4B48946  23.319  44.272   7.516
 3769POPC   NC348947  33.896  41.255   5.504
 3769POPC   PO448948  33.218  41.373   5.424
 3769POPC   GL148949  33.470  41.571   5.794
 3769POPC   GL248950  33.862  41.669   5.820
 3769POPC   C1A48951  33.568  41.583   6.250
 3769POPC   D2A48952  33.529  41.340   6.623
 3769POPC   C3A48953  33.632  41.522   7.031
 3769POPC   C4A48954  33.512  41.594   7.485
 3769POPC   C1B48955  34.087  41.495   6.210
 3769POPC   C2B48956  34.141  41.512   6.674
 3769POPC   C3B48957  34.239  41.818   6.977
 3769POPC   C4B48958  33.969  41.787   7.333
 3770POPC   NC348959  27.858  35.731   5.482
 3770POPC   PO448960  27.390  35.308   5.112
 3770POPC   GL148961  27.467  35.273   5.608
 3770POPC   GL248962  27.488  35.555   5.799
 3770POPC   C1A48963  27.447  35.113   6.075
 3770POPC   D2A48964  27.419  35.346   6.478
 3770POPC   C3A48965  27.404  35.273   6.945
 3770POPC   C4A48966  27.206  35.049   7.349
 3770POPC   C1B48967  27.794  35.556   6.168
 3770POPC   C2B48968  27.896  35.467   6.624
 3770POPC   C3B48969  27.810  35.631   7.040
 3770POPC   C4B48970  27.863  35.856   7.449
 3771POPC   NC348971  44.466  33.960   5.594
 3771POPC   PO448972  44.917  33.427   5.676
 3771POPC   GL148973  44.621  33.602   5.928
 3771POPC   GL248974  44.292  33.469   5.825
 3771POPC   C1A48975  44.700  33.914   6.234
 3771POPC   D2A48976   0.026  34.031   6.515
 3771POPC   C3A48977  44.822  34.080   6.866
 3771POPC   C4A48978  44.657  33.818   7.114
 3771POPC   C1B48979  44.347  33.380   6.289
 3771POPC   C2B48980  44.552  33.475   6.655
 3771POPC   C3B48981  44.510  33.330   7.055
 3771POPC   C4B48982  44.371  33.568   7.421
 3772POPC   NC348983  42.526  40.877   5.397
 3772POPC   PO448984  41.910  40.575   5.352
 3772POPC   GL148985  42.237  40.629   5.758
 3772POPC   GL248986  42.413  40.958   5.862
 3772POPC   C1A48987  42.159  40.770   6.227
 3772POPC   D2A48988  42.468  40.641   6.560
 3772POPC   C3A48989  42.311  40.769   6.960
 3772POPC   C4A48990  41.893  40.773   7.114
 3772POPC   C1B48991  42.645  41.055   6.246
 3772POPC   C2B48992  42.566  41.142   6.676
 3772POPC   C3B48993  42.748  41.114   7.046
 3772POPC   C4B48994  42.770  41.217   7.447
 3773POPC   NC348995  18.188  21.170   5.406
 3773POPC   PO448996  18.037  20.523   5.198
 3773POPC   GL148997  18.063  20.688   5.649
 3773POPC   GL248998  17.847  20.964   5.752
 3773POPC   C1A48999  17.999  20.597   6.109
 3773POPC   D2A49000  17.901  20.513   6.550
 3773POPC   C3A49001  18.278  20.536   6.789
 3773POPC   C4A49002  18.320  20.492   7.227
 3773POPC   C1B49003  17.851  21.093   6.202
 3773POPC   C2B49004  18.084  20.994   6.599
 3773POPC   C3B49005  17.995  20.864   7.044
 3773POPC   C4B49006  18.221  20.973   7.432
 3774POPC   NC349007  22.502   4.934   5.483
 3774POPC   PO449008  21.872   5.312   5.411
 3774POPC   GL149009  22.151   5.250   5.743
 3774POPC   GL249010  22.067   4.911   5.741
 3774POPC   C1A49011  22.426   5.312   6.108
 3774POPC   D2A49012  22.232   5.230   6.508
 3774POPC   C3A49013  22.452   5.171   6.883
 3774POPC   C4A49014  22.380   5.364   7.265
 3774POPC   C1B49015  22.243   4.836   6.134
 3774POPC   C2B49016  22.001   4.771   6.489
 3774POPC   C3B49017  21.999   4.922   6.868
 3774POPC   C4B49018  22.168   4.779   7.207
 3775POPC   NC349019  22.791   9.950   5.412
 3775POPC   PO449020  23.296   9.416   5.369
 3775POPC   GL149021  22.950   9.517   5.730
 3775POPC   GL249022  22.909   9.866   5.915
 3775POPC   C1A49023  22.875   9.433   6.198
 3775POPC   D2A49024  22.998   9.643   6.574
 3775POPC   C3A49025  22.848   9.591   7.004
 3775POPC   C4A49026  23.044   9.412   7.336
 3775POPC   C1B49027  23.232   9.971   6.261
 3775POPC   C2B49028  23.381   9.930   6.720
 3775POPC   C3B49029  23.295  10.141   7.135
 3775POPC   C4B49030  23.387  10.221   7.609
 3776POPC   NC349031   9.014  16.478   5.146
 3776POPC   PO449032   9.039  17.066   5.511
 3776POPC   GL149033   9.242  16.848   5.843
 3776POPC   GL249034   9.422  17.097   5.981
 3776POPC   C1A49035   9.174  16.700   6.289
 3776POPC   D2A49036   9.124  16.724   6.742
 3776POPC   C3A49037   8.798  16.494   6.987
 3776POPC   C4A49038   8.844  16.374   7.444
 3776POPC   C1B49039   9.018  17.192   6.189
 3776POPC   C2B49040   8.805  17.125   6.579
 3776POPC   C3B49041   8.908  17.098   7.020
 3776POPC   C4B49042   9.109  16.787   7.298
 3777POPC   NC349043  10.857  15.857   5.580
 3777POPC   PO449044  10.510  15.216   5.507
 3777POPC   GL149045  10.436  15.086   5.908
 3777POPC   GL249046  10.088  15.061   5.957
 3777POPC   C1A49047  10.674  14.908   6.225
 3777POPC   D2A49048  10.758  15.145   6.568
 3777POPC   C3A49049  10.815  14.975   6.932
 3777POPC   C4A49050  10.587  15.107   7.259
 3777POPC   C1B49051  10.216  15.097   6.391
 3777POPC   C2B49052  10.321  15.161   6.818
 3777POPC   C3B49053  10.183  15.422   7.137
 3777POPC   C4B49054  10.157  15.173   7.501
 3778POPC   NC349055  41.283  25.574   5.466
 3778POPC   PO449056  41.692  25.212   5.816
 3778POPC   GL149057  41.323  25.380   5.973
 3778POPC   GL249058  41.202  25.053   5.912
 3778POPC   C1A49059  41.218  25.355   6.406
 3778POPC   D2A49060  41.490  25.141   6.698
 3778POPC   C3A49061  41.538  25.347   7.076
 3778POPC   C4A49062  41.686  25.517   7.489
 3778POPC   C1B49063  41.262  24.874   6.281
 3778POPC   C2B49064  41.058  24.841   6.660
 3778POPC   C3B49065  41.227  24.876   7.070
 3778POPC   C4B49066  41.344  25.110   7.461
 3779POPC   NC349067  12.818  17.989   5.408
 3779POPC   PO449068  12.494  17.441   5.299
 3779POPC   GL149069  12.668  17.493   5.696
 3779POPC   GL249070  12.496  17.247   5.895
 3779POPC   C1A49071  12.838  17.536   6.128
 3779POPC   D2A49072  12.644  17.740   6.462
 3779POPC   C3A49073  12.769  17.811   6.874
 3779POPC   C4A49074  13.023  17.549   7.137
 3779POPC   C1B49075  12.374  17.248   6.349
 3779POPC   C2B49076  12.514  17.342   6.802
 3779POPC   C3B49077  12.623  17.217   7.236
 3779POPC   C4B49078  12.847  16.979   7.569
 3780POPC   NC349079  43.379  22.441   5.505
 3780POPC   PO449080  42.674  22.090   5.471
 3780POPC   GL149081  42.856  22.198   5.855
 3780POPC   GL249082  43.226  22.223   5.933
 3780POPC   C1A49083  42.868  22.116   6.287
 3780POPC   D2A49084  43.157  22.269   6.591
 3780POPC   C3A49085  43.044  22.447   6.953
 3780POPC   C4A49086  42.780  22.351   7.263
 3780POPC   C1B49087  43.470  22.046   6.264
 3780POPC   C2B49088  43.432  21.861   6.705
 3780POPC   C3B49089  43.427  22.101   7.107
 3780POPC   C4B49090  43.492  22.107   7.592
 3781POPC   NC349091  34.417  42.752   5.331
 3781POPC   PO449092  34.423  43.390   5.268
 3781POPC   GL149093  34.462  43.107   5.728
 3781POPC   GL249094  34.689  42.822   5.811
 3781POPC   C1A49095  34.631  43.176   6.194
 3781POPC   D2A49096  34.613  42.991   6.625
 3781POPC   C3A49097  34.660  43.227   6.994
 3781POPC   C4A49098  34.257  43.320   7.181
 3781POPC   C1B49099  34.375  42.736   6.201
 3781POPC   C2B49100  34.209  42.673   6.658
 3781POPC   C3B49101  34.353  42.795   7.101
 3781POPC   C4B49102  34.557  42.649   7.487
 3782POPC   NC349103  12.414  36.661   5.071
 3782POPC   PO449104  12.087  37.232   5.239
 3782POPC   GL149105  12.076  37.060   5.644
 3782POPC   GL249106  11.802  37.263   5.720
 3782POPC   C1A49107  12.279  36.877   6.035
 3782POPC   D2A49108  12.145  36.765   6.473
 3782POPC   C3A49109  12.373  36.901   6.845
 3782POPC   C4A49110  12.300  36.744   7.261
 3782POPC   C1B49111  11.773  36.988   6.078
 3782POPC   C2B49112  11.712  37.059   6.520
 3782POPC   C3B49113  11.861  36.904   6.904
 3782POPC   C4B49114  11.794  36.725   7.297
 3783POPC   NC349115   6.035  19.666   5.417
 3783POPC   PO449116   5.372  19.795   5.338
 3783POPC   GL149117   5.827  19.909   5.793
 3783POPC   GL249118   6.166  19.742   5.894
 3783POPC   C1A49119   5.866  19.716   6.282
 3783POPC   D2A49120   6.191  19.565   6.573
 3783POPC   C3A49121   6.049  19.645   6.990
 3783POPC   C4A49122   5.726  19.854   7.129
 3783POPC   C1B49123   6.214  20.079   6.231
 3783POPC   C2B49124   6.075  20.076   6.676
 3783POPC   C3B49125   6.142  20.187   7.128
 3783POPC   C4B49126   6.381  19.975   7.470
 3784POPC   NC349127  10.406  23.021   5.364
 3784POPC   PO449128  10.223  22.440   5.581
 3784POPC   GL149129  10.455  22.709   5.827
 3784POPC   GL249130  10.537  23.039   5.859
 3784POPC   C1A49131  10.342  22.722   6.246
 3784POPC   D2A49132  10.530  22.684   6.611
 3784POPC   C3A49133  10.379  22.844   6.956
 3784POPC   C4A49134  10.477  22.892   7.373
 3784POPC   C1B49135  10.786  22.964   6.221
 3784POPC   C2B49136  10.967  22.981   6.595
 3784POPC   C3B49137  10.829  23.084   6.977
 3784POPC   C4B49138  10.998  23.194   7.353
 3785POPC   NC349139   5.425  43.314   5.450
 3785POPC   PO449140   6.042  43.226   5.145
 3785POPC   GL149141   5.999  43.231   5.623
 3785POPC   GL249142   5.724  42.991   5.715
 3785POPC   C1A49143   6.049  43.196   6.106
 3785POPC   D2A49144   5.922  43.296   6.548
 3785POPC   C3A49145   6.003  43.102   6.944
 3785POPC   C4A49146   5.857  42.970   7.337
 3785POPC   C1B49147   5.551  43.077   6.128
 3785POPC   C2B49148   5.546  42.924   6.536
 3785POPC   C3B49149   5.499  43.046   6.949
 3785POPC   C4B49150   5.387  42.801   7.300
 3786POPC   NC349151   4.358  22.471   5.390
 3786POPC   PO449152   3.951  21.908   5.323
 3786POPC   GL149153   4.095  22.186   5.707
 3786POPC   GL249154   4.492  22.230   5.838
 3786POPC   C1A49155   4.083  22.409   6.118
 3786POPC   D2A49156   4.101  22.221   6.529
 3786POPC   C3A49157   4.441  22.156   6.849
 3786POPC   C4A49158   4.325  22.136   7.268
 3786POPC   C1B49159   4.562  22.402   6.305
 3786POPC   C2B49160   4.410  22.635   6.715
 3786POPC   C3B49161   4.641  22.513   7.141
 3786POPC   C4B49162   4.722  22.320   7.591
 3787POPC   NC349163  29.513  10.855   5.594
 3787POPC   PO449164  29.087  10.339   5.426
 3787POPC   GL149165  28.897  10.449   5.822
 3787POPC   GL249166  29.035  10.778   5.920
 3787POPC   C1A49167  28.956  10.348   6.241
 3787POPC   D2A49168  29.228  10.434   6.563
 3787POPC   C3A49169  29.093  10.353   6.961
 3787POPC   C4A49170  29.104  10.607   7.338
 3787POPC   C1B49171  29.232  10.905   6.328
 3787POPC   C2B49172  29.240  10.893   6.805
 3787POPC   C3B49173  29.525  10.892   7.133
 3787POPC   C4B49174  29.531  10.831   7.559
 3788POPC   NC349175   3.558  21.894   5.554
 3788POPC   PO449176   3.134  22.457   5.501
 3788POPC   GL149177   3.335  22.267   5.876
 3788POPC   GL249178   3.150  21.962   5.896
 3788POPC   C1A49179   3.629  22.180   6.251
 3788POPC   D2A49180   3.672  21.960   6.676
 3788POPC   C3A49181   3.854  22.282   6.971
 3788POPC   C4A49182   3.824  22.280   7.407
 3788POPC   C1B49183   3.129  22.079   6.343
 3788POPC   C2B49184   3.160  21.793   6.670
 3788POPC   C3B49185   3.333  21.735   7.062
 3788POPC   C4B49186   3.390  22.113   7.185
 3789POPC   NC349187  40.963  28.815   5.431
 3789POPC   PO449188  40.823  28.118   5.400
 3789POPC   GL149189  40.953  28.400   5.766
 3789POPC   GL249190  40.646  28.646   5.808
 3789POPC   C1A49191  41.059  28.328   6.223
 3789POPC   D2A49192  40.801  28.252   6.608
 3789POPC   C3A49193  40.939  28.344   7.038
 3789POPC   C4A49194  41.070  28.308   7.488
 3789POPC   C1B49195  40.818  28.771   6.222
 3789POPC   C2B49196  41.039  28.713   6.632
 3789POPC   C3B49197  40.839  28.845   7.033
 3789POPC   C4B49198  40.730  28.653   7.390
 3790POPC   NC349199  13.342  44.829   5.429
 3790POPC   PO449200  13.977  44.595   5.513
 3790POPC   GL149201  13.683  44.755   5.816
 3790POPC   GL249202  13.445  44.475   5.815
 3790POPC   C1A49203  13.626  44.904   6.258
 3790POPC   D2A49204  13.720  44.936   6.723
 3790POPC   C3A49205  13.454  44.780   7.074
 3790POPC   C4A49206  13.578  44.812   7.518
 3790POPC   C1B49207  13.733  44.343   6.139
 3790POPC   C2B49208  13.612  44.434   6.519
 3790POPC   C3B49209  13.692  44.339   6.897
 3790POPC   C4B49210  13.865  44.491   7.259
 3791POPC   NC349211  28.134  23.448   5.436
 3791POPC   PO449212  28.667  23.774   5.566
 3791POPC   GL149213  28.422  23.647   5.906
 3791POPC   GL249214  28.109  23.785   5.844
 3791POPC   C1A49215  28.412  23.695   6.380
 3791POPC   D2A49216  28.694  23.552   6.726
 3791POPC   C3A49217  28.723  23.720   7.161
 3791POPC   C4A49218  28.577  23.478   7.555
 3791POPC   C1B49219  28.015  23.436   6.157
 3791POPC   C2B49220  28.024  23.394   6.612
 3791POPC   C3B49221  28.255  23.479   7.007
 3791POPC   C4B49222  28.242  23.838   7.323
 3792POPC   NC349223  19.149  28.125   5.454
 3792POPC   PO449224  19.125  28.778   5.739
 3792POPC   GL149225  19.064  28.370   5.890
 3792POPC   GL249226  18.750  28.253   5.830
 3792POPC   C1A49227  19.068  28.152   6.262
 3792POPC   D2A49228  19.375  28.236   6.558
 3792POPC   C3A49229  19.201  28.184   6.946
 3792POPC   C4A49230  19.017  28.390   7.272
 3792POPC   C1B49231  18.767  28.568   6.257
 3792POPC   C2B49232  18.866  28.585   6.742
 3792POPC   C3B49233  18.609  28.660   7.153
 3792POPC   C4B49234  18.632  28.584   7.618
 3793POPC   NC349235  36.661  44.166   5.457
 3793POPC   PO449236  37.364  44.012   5.442
 3793POPC   GL149237  37.071  43.966   5.793
 3793POPC   GL249238  36.997  44.296   5.865
 3793POPC   C1A49239  36.756  43.828   6.153
 3793POPC   D2A49240  36.561  43.881   6.598
 3793POPC   C3A49241  36.775  43.774   7.019
 3793POPC   C4A49242  37.027  43.816   7.429
 3793POPC   C1B49243  37.137  44.135   6.276
 3793POPC   C2B49244  37.106  43.768   6.585
 3793POPC   C3B49245  37.261  43.932   6.977
 3793POPC   C4B49246  37.191  44.362   7.070
 3794POPC   NC349247  23.974   5.496   5.599
 3794POPC   PO449248  23.532   6.056   5.274
 3794POPC   GL149249  23.682   5.948   5.706
 3794POPC   GL249250  23.995   6.126   5.714
 3794POPC   C1A49251  23.781   5.727   6.149
 3794POPC   D2A49252  23.736   5.434   6.533
 3794POPC   C3A49253  23.543   5.572   6.895
 3794POPC   C4A49254  23.590   5.875   7.186
 3794POPC   C1B49255  23.943   6.232   6.165
 3794POPC   C2B49256  23.775   6.021   6.554
 3794POPC   C3B49257  23.997   5.855   6.872
 3794POPC   C4B49258  23.989   6.204   7.113
 3795POPC   NC349259   1.628  30.096   5.363
 3795POPC   PO449260   1.031  29.799   5.249
 3795POPC   GL149261   1.013  29.707   5.724
 3795POPC   GL249262   1.363  29.646   5.882
 3795POPC   C1A49263   0.933  29.909   6.141
 3795POPC   D2A49264   0.956  30.184   6.531
 3795POPC   C3A49265   1.045  29.995   6.947
 3795POPC   C4A49266   1.427  30.049   7.155
 3795POPC   C1B49267   1.412  29.849   6.308
 3795POPC   C2B49268   1.475  29.740   6.752
 3795POPC   C3B49269   1.426  29.510   7.168
 3795POPC   C4B49270   1.517  29.281   7.600
 3796POPC   NC349271   0.649  42.676   5.467
 3796POPC   PO449272   0.118  42.213   5.468
 3796POPC   GL149273   0.307  42.351   5.834
 3796POPC   GL249274   0.646  42.242   5.759
 3796POPC   C1A49275   0.224  42.301   6.290
 3796POPC   D2A49276   0.266  42.558   6.677
 3796POPC   C3A49277   0.312  42.384   7.097
 3796POPC   C4A49278   0.215  42.276   7.568
 3796POPC   C1B49279   0.736  42.368   6.176
 3796POPC   C2B49280   0.696  42.183   6.590
 3796POPC   C3B49281   0.915  42.083   6.992
 3796POPC   C4B49282   0.696  42.194   7.363
 3797POPC   NC349283  16.001   5.294   5.438
 3797POPC   PO449284  15.912   4.603   5.258
 3797POPC   GL149285  15.913   4.858   5.700
 3797POPC   GL249286  15.710   5.154   5.851
 3797POPC   C1A49287  15.975   4.818   6.173
 3797POPC   D2A49288  15.818   4.885   6.625
 3797POPC   C3A49289  15.992   5.031   7.073
 3797POPC   C4A49290  16.063   5.014   7.577
 3797POPC   C1B49291  15.919   5.330   6.192
 3797POPC   C2B49292  15.799   5.519   6.588
 3797POPC   C3B49293  15.675   5.429   6.986
 3797POPC   C4B49294  15.883   5.460   7.348
 3798POPC   NC349295  32.820  29.296   5.255
 3798POPC   PO449296  33.363  29.403   5.514
 3798POPC   GL149297  33.102  29.161   5.837
 3798POPC   GL249298  32.734  29.106   5.757
 3798POPC   C1A49299  33.098  29.019   6.291
 3798POPC   D2A49300  33.264  29.212   6.669
 3798POPC   C3A49301  33.108  29.270   7.070
 3798POPC   C4A49302  33.240  29.124   7.477
 3798POPC   C1B49303  32.600  28.963   6.174
 3798POPC   C2B49304  32.704  29.131   6.611
 3798POPC   C3B49305  32.609  29.102   7.043
 3798POPC   C4B49306  32.733  29.302   7.426
 3799POPC   NC349307  16.090  19.104   5.447
 3799POPC   PO449308  16.198  18.385   5.228
 3799POPC   GL149309  16.041  18.676   5.701
 3799POPC   GL249310  15.820  19.028   5.856
 3799POPC   C1A49311  16.080  18.779   6.182
 3799POPC   D2A49312  16.214  18.713   6.609
 3799POPC   C3A49313  16.142  18.974   6.980
 3799POPC   C4A49314  15.941  18.884   7.350
 3799POPC   C1B49315  15.663  19.099   6.284
 3799POPC   C2B49316  15.740  19.124   6.719
 3799POPC   C3B49317  15.608  19.196   7.135
 3799POPC   C4B49318  15.716  19.264   7.602
 3800POPC   NC349319  35.181  28.529   5.375
 3800POPC   PO449320  35.661  28.776   5.757
 3800POPC   GL149321  35.366  28.449   5.856
 3800POPC   GL249322  35.057  28.625   5.858
 3800POPC   C1A49323  35.208  28.279   6.259
 3800POPC   D2A49324  35.448  28.331   6.652
 3800POPC   C3A49325  35.373  28.152   7.041
 3800POPC   C4A49326  35.526  28.485   7.326
 3800POPC   C1B49327  34.799  28.762   6.180
 3800POPC   C2B49328  34.963  28.655   6.557
 3800POPC   C3B49329  35.120  28.590   6.946
 3800POPC   C4B49330  34.971  28.614   7.314
 3801POPC   NC349331  31.134   6.949   5.425
 3801POPC   PO449332  31.648   6.539   5.233
 3801POPC   GL149333  31.523   6.633   5.671
 3801POPC   GL249334  31.455   6.981   5.828
 3801POPC   C1A49335  31.553   6.549   6.095
 3801POPC   D2A49336  31.296   6.522   6.453
 3801POPC   C3A49337  31.435   6.445   6.845
 3801POPC   C4A49338  31.664   6.402   7.203
 3801POPC   C1B49339  31.271   6.990   6.264
 3801POPC   C2B49340  31.404   6.957   6.731
 3801POPC   C3B49341  31.406   6.855   7.195
 3801POPC   C4B49342  31.429   7.070   7.600
 3802POPC   NC349343  31.920  18.669   5.352
 3802POPC   PO449344  32.239  18.016   5.438
 3802POPC   GL149345  32.268  18.184   5.823
 3802POPC   GL249346  32.148  18.502   5.803
 3802POPC   C1A49347  32.307  18.307   6.253
 3802POPC   D2A49348  32.122  18.206   6.634
 3802POPC   C3A49349  32.459  18.204   6.921
 3802POPC   C4A49350  32.494  18.150   7.340
 3802POPC   C1B49351  31.861  18.527   6.185
 3802POPC   C2B49352  31.991  18.719   6.574
 3802POPC   C3B49353  32.082  18.597   6.970
 3802POPC   C4B49354  32.023  18.304   7.285
 3803POPC   NC349355   0.043  13.714   5.472
 3803POPC   PO449356  44.389  13.525   5.505
 3803POPC   GL149357  44.479  13.739   5.873
 3803POPC   GL249358  44.777  13.909   5.882
 3803POPC   C1A49359  44.421  13.864   6.290
 3803POPC   D2A49360  44.344  13.665   6.691
 3803POPC   C3A49361  44.505  13.816   7.067
 3803POPC   C4A49362  44.707  13.612   7.418
 3803POPC   C1B49363  44.925  13.929   6.291
 3803POPC   C2B49364  44.820  14.046   6.720
 3803POPC   C3B49365   0.032  13.882   7.090
 3803POPC   C4B49366   0.139  13.852   7.535
 3804POPC   NC349367  43.582   8.826   5.445
 3804POPC   PO449368  44.073   9.213   5.280
 3804POPC   GL149369  44.090   9.061   5.706
 3804POPC   GL249370  44.071   8.692   5.641
 3804POPC   C1A49371  43.945   9.101   6.157
 3804POPC   D2A49372  43.614   9.016   6.498
 3804POPC   C3A49373  43.744   9.106   6.924
 3804POPC   C4A49374  43.761   8.952   7.336
 3804POPC   C1B49375  44.278   8.709   6.044
 3804POPC   C2B49376  44.216   8.751   6.501
 3804POPC   C3B49377  43.993   8.650   6.900
 3804POPC   C4B49378  44.067   8.550   7.325
 3805POPC   NC349379  31.629  13.901   5.449
 3805POPC   PO449380  30.999  13.573   5.300
 3805POPC   GL149381  31.212  13.703   5.733
 3805POPC   GL249382  31.252  13.442   5.969
 3805POPC   C1A49383  31.451  13.884   6.108
 3805POPC   D2A49384  31.379  14.085   6.521
 3805POPC   C3A49385  31.460  13.883   6.929
 3805POPC   C4A49386  31.176  13.860   7.248
 3805POPC   C1B49387  31.628  13.383   6.220
 3805POPC   C2B49388  31.720  13.534   6.656
 3805POPC   C3B49389  31.647  13.403   7.106
 3805POPC   C4B49390  31.844  13.523   7.534
 3806POPC   NC349391  19.705   1.684   5.494
 3806POPC   PO449392  20.015   1.055   5.430
 3806POPC   GL149393  19.773   1.222   5.724
 3806POPC   GL249394  20.025   1.421   5.820
 3806POPC   C1A49395  19.585   1.104   6.101
 3806POPC   D2A49396  19.734   1.050   6.532
 3806POPC   C3A49397  19.578   1.189   6.921
 3806POPC   C4A49398  19.686   1.024   7.307
 3806POPC   C1B49399  19.905   1.472   6.205
 3806POPC   C2B49400  20.119   1.415   6.575
 3806POPC   C3B49401  20.003   1.463   6.980
 3806POPC   C4B49402  19.889   1.476   7.399
 3807POPC   NC349403  39.460  26.237   5.528
 3807POPC   PO449404  38.826  26.081   5.341
 3807POPC   GL149405  39.025  26.034   5.738
 3807POPC   GL249406  39.117  25.703   5.780
 3807POPC   C1A49407  39.208  26.113   6.163
 3807POPC   D2A49408  39.164  26.374   6.556
 3807POPC   C3A49409  39.251  26.224   6.961
 3807POPC   C4A49410  39.277  26.229   7.415
 3807POPC   C1B49411  38.796  25.757   6.100
 3807POPC   C2B49412  38.804  25.965   6.464
 3807POPC   C3B49413  38.943  25.835   6.840
 3807POPC   C4B49414  38.869  26.033   7.241
 3808POPC   NC349415   1.640   6.663   5.224
 3808POPC   PO449416   1.054   6.902   5.159
 3808POPC   GL149417   1.238   6.720   5.612
 3808POPC   GL249418   1.005   6.464   5.747
 3808POPC   C1A49419   1.344   6.774   6.117
 3808POPC   D2A49420   1.499   7.000   6.542
 3808POPC   C3A49421   1.418   6.799   6.932
 3808POPC   C4A49422   1.623   6.471   7.151
 3808POPC   C1B49423   1.025   6.372   6.195
 3808POPC   C2B49424   1.170   6.488   6.620
 3808POPC   C3B49425   1.106   6.418   7.095
 3808POPC   C4B49426   0.983   6.557   7.528
 3809POPC   NC349427  40.354  41.434   5.526
 3809POPC   PO449428  39.697  41.265   5.456
 3809POPC   GL149429  39.858  41.540   5.801
 3809POPC   GL249430  39.534  41.692   5.909
 3809POPC   C1A49431  40.149  41.535   6.170
 3809POPC   D2A49432  40.295  41.326   6.528
 3809POPC   C3A49433  40.171  41.478   6.935
 3809POPC   C4A49434  40.193  41.294   7.327
 3809POPC   C1B49435  39.628  41.472   6.274
 3809POPC   C2B49436  39.687  41.534   6.699
 3809POPC   C3B49437  39.675  41.547   7.122
 3809POPC   C4B49438  39.555  41.794   7.425
 3810POPC   NC349439  24.697  37.717   5.301
 3810POPC   PO449440  24.096  37.493   5.509
 3810POPC   GL149441  24.286  37.710   5.846
 3810POPC   GL249442  24.657  37.655   5.837
 3810POPC   C1A49443  24.317  37.640   6.312
 3810POPC   D2A49444  24.020  37.618   6.637
 3810POPC   C3A49445  24.242  37.670   7.004
 3810POPC   C4A49446  24.564  37.679   7.320
 3810POPC   C1B49447  24.743  37.912   6.228
 3810POPC   C2B49448  24.709  37.770   6.659
 3810POPC   C3B49449  24.961  37.729   7.016
 3810POPC   C4B49450  25.008  37.916   7.414
 3811POPC   NC349451  10.710  32.590   5.124
 3811POPC   PO449452  10.520  32.034   5.416
 3811POPC   GL149453  10.370  32.205   5.797
 3811POPC   GL249454  10.096  32.459   5.751
 3811POPC   C1A49455  10.501  32.156   6.235
 3811POPC   D2A49456  10.348  32.212   6.646
 3811POPC   C3A49457  10.596  32.053   6.932
 3811POPC   C4A49458  10.577  32.281   7.274
 3811POPC   C1B49459  10.103  32.592   6.169
 3811POPC   C2B49460   9.962  32.546   6.583
 3811POPC   C3B49461  10.215  32.665   6.937
 3811POPC   C4B49462  10.183  32.589   7.380
 3812POPC   NC349463  39.354  43.803   5.153
 3812POPC   PO449464  38.764  43.987   5.286
 3812POPC   GL149465  39.067  43.856   5.702
 3812POPC   GL249466  39.334  44.079   5.794
 3812POPC   C1A49467  39.002  43.984   6.190
 3812POPC   D2A49468  39.056  44.147   6.644
 3812POPC   C3A49469  39.167  43.858   7.007
 3812POPC   C4A49470  39.482  43.532   7.094
 3812POPC   C1B49471  39.566  44.105   6.189
 3812POPC   C2B49472  39.587  44.297   6.606
 3812POPC   C3B49473  39.607  44.101   7.008
 3812POPC   C4B49474  39.666  43.987   7.454
 3813POPC   NC349475  42.711  31.780   5.560
 3813POPC   PO449476  43.118  31.310   5.462
 3813POPC   GL149477  43.134  31.390   5.896
 3813POPC   GL249478  43.067  31.729   5.949
 3813POPC   C1A49479  43.132  31.295   6.337
 3813POPC   D2A49480  43.378  31.194   6.696
 3813POPC   C3A49481  43.117  31.133   7.033
 3813POPC   C4A49482  43.109  31.508   7.172
 3813POPC   C1B49483  43.009  31.920   6.351
 3813POPC   C2B49484  42.965  31.648   6.692
 3813POPC   C3B49485  42.664  31.420   6.900
 3813POPC   C4B49486  42.672  31.253   7.323
 3814POPC   NC349487  17.619   2.907   5.511
 3814POPC   PO449488  17.983   2.259   5.390
 3814POPC   GL149489  17.720   2.386   5.809
 3814POPC   GL249490  17.770   2.735   5.963
 3814POPC   C1A49491  17.447   2.464   6.240
 3814POPC   D2A49492  17.464   2.669   6.698
 3814POPC   C3A49493  17.428   2.666   7.187
 3814POPC   C4A49494  17.319   2.503   7.647
 3814POPC   C1B49495  17.637   3.007   6.328
 3814POPC   C2B49496  17.569   3.164   6.788
 3814POPC   C3B49497  17.773   3.117   7.209
 3814POPC   C4B49498  17.962   3.107   7.634
 3815POPC   NC349499  33.559  37.436   5.389
 3815POPC   PO449500  34.009  37.960   5.291
 3815POPC   GL149501  33.993  37.627   5.633
 3815POPC   GL249502  33.714  37.782   5.769
 3815POPC   C1A49503  33.929  37.456   6.098
 3815POPC   D2A49504  33.914  37.708   6.534
 3815POPC   C3A49505  33.836  37.561   6.983
 3815POPC   C4A49506  33.868  37.412   7.405
 3815POPC   C1B49507  33.506  37.711   6.194
 3815POPC   C2B49508  33.414  37.781   6.606
 3815POPC   C3B49509  33.385  37.922   7.021
 3815POPC   C4B49510  33.515  37.806   7.441
 3816POPC   NC349511  29.992  14.477   5.330
 3816POPC   PO449512  29.582  14.814   5.708
 3816POPC   GL149513  29.768  14.443   5.863
 3816POPC   GL249514  30.076  14.270   5.812
 3816POPC   C1A49515  29.833  14.349   6.296
 3816POPC   D2A49516  29.554  14.460   6.632
 3816POPC   C3A49517  29.425  14.088   6.823
 3816POPC   C4A49518  29.556  14.071   7.250
 3816POPC   C1B49519  30.228  14.614   6.102
 3816POPC   C2B49520  30.086  14.780   6.521
 3816POPC   C3B49521  29.941  14.645   6.928
 3816POPC   C4B49522  29.953  14.643   7.374
 3817POPC   NC349523   2.373  37.471   5.389
 3817POPC   PO449524   1.966  38.022   5.432
 3817POPC   GL149525   2.033  37.716   5.791
 3817POPC   GL249526   2.315  37.479   5.897
 3817POPC   C1A49527   1.873  37.579   6.205
 3817POPC   D2A49528   1.673  37.708   6.601
 3817POPC   C3A49529   1.906  37.669   7.015
 3817POPC   C4A49530   1.976  37.694   7.514
 3817POPC   C1B49531   2.387  37.524   6.344
 3817POPC   C2B49532   2.265  37.366   6.758
 3817POPC   C3B49533   2.418  37.176   7.152
 3817POPC   C4B49534   2.312  37.332   7.604
 3818POPC   NC349535  23.393  11.430   5.400
 3818POPC   PO449536  22.795  11.224   5.354
 3818POPC   GL149537  23.014  11.254   5.767
 3818POPC   GL249538  23.299  11.009   5.747
 3818POPC   C1A49539  22.907  11.384   6.216
 3818POPC   D2A49540  22.789  11.092   6.558
 3818POPC   C3A49541  22.927  11.164   6.985
 3818POPC   C4A49542  22.829  11.456   7.302
 3818POPC   C1B49543  23.205  10.963   6.194
 3818POPC   C2B49544  23.290  10.887   6.639
 3818POPC   C3B49545  23.377  10.930   7.090
 3818POPC   C4B49546  23.193  11.133   7.443
 3819POPC   NC349547   3.537  37.076   5.201
 3819POPC   PO449548   3.069  36.647   5.394
 3819POPC   GL149549   3.370  36.865   5.686
 3819POPC   GL249550   3.616  37.159   5.785
 3819POPC   C1A49551   3.362  36.879   6.134
 3819POPC   D2A49552   3.554  36.869   6.534
 3819POPC   C3A49553   3.373  36.989   6.919
 3819POPC   C4A49554   3.501  36.980   7.344
 3819POPC   C1B49555   3.803  37.192   6.215
 3819POPC   C2B49556   3.800  37.296   6.689
 3819POPC   C3B49557   3.878  37.245   7.164
 3819POPC   C4B49558   3.694  37.329   7.651
 3820POPC   NC349559  41.553  44.575   5.493
 3820POPC   PO449560  41.475   0.225   5.495
 3820POPC   GL149561  41.388  44.949   5.845
 3820POPC   GL249562  41.743  44.859   5.921
 3820POPC   C1A49563  41.372  44.755   6.268
 3820POPC   D2A49564  41.692  44.644   6.562
 3820POPC   C3A49565  41.528  44.629   6.960
 3820POPC   C4A49566  41.616  44.889   7.278
 3820POPC   C1B49567  41.803  44.423   6.104
 3820POPC   C2B49568  41.869  44.174   6.475
 3820POPC   C3B49569  41.912  44.225   6.900
 3820POPC   C4B49570  41.866  44.419   7.288
 3821POPC   NC349571  10.885  26.158   5.565
 3821POPC   PO449572  11.505  25.863   5.421
 3821POPC   GL149573  11.318  26.005   5.783
 3821POPC   GL249574  11.096  25.723   5.835
 3821POPC   C1A49575  11.250  26.252   6.183
 3821POPC   D2A49576  11.542  26.246   6.557
 3821POPC   C3A49577  11.430  26.165   7.010
 3821POPC   C4A49578  11.405  26.189   7.473
 3821POPC   C1B49579  11.317  25.748   6.220
 3821POPC   C2B49580  11.191  25.862   6.635
 3821POPC   C3B49581  11.177  25.726   7.066
 3821POPC   C4B49582  10.974  25.955   7.394
 3822POPC   NC349583  12.788   3.062   5.358
 3822POPC   PO449584  13.101   2.542   5.243
 3822POPC   GL149585  12.826   2.725   5.733
 3822POPC   GL249586  12.504   2.936   5.754
 3822POPC   C1A49587  12.707   2.643   6.185
 3822POPC   D2A49588  12.748   2.492   6.634
 3822POPC   C3A49589  13.183   2.589   6.808
 3822POPC   C4A49590  13.340   2.848   7.162
 3822POPC   C1B49591  12.647   3.151   6.136
 3822POPC   C2B49592  12.920   3.006   6.502
 3822POPC   C3B49593  12.803   2.922   6.918
 3822POPC   C4B49594  12.926   3.094   7.277
 3823POPC   NC349595  12.318  16.318   5.577
 3823POPC   PO449596  12.206  15.756   5.336
 3823POPC   GL149597  12.079  15.893   5.736
 3823POPC   GL249598  11.848  16.151   5.754
 3823POPC   C1A49599  12.044  15.984   6.179
 3823POPC   D2A49600  11.863  15.759   6.507
 3823POPC   C3A49601  12.142  15.798   6.828
 3823POPC   C4A49602  11.986  15.767   7.210
 3823POPC   C1B49603  11.699  16.392   6.129
 3823POPC   C2B49604  11.781  16.270   6.511
 3823POPC   C3B49605  11.753  16.133   6.905
 3823POPC   C4B49606  11.755  16.306   7.296
 3824POPC   NC349607  24.333   7.068   5.457
 3824POPC   PO449608  24.738   7.632   5.253
 3824POPC   GL149609  24.669   7.649   5.715
 3824POPC   GL249610  24.648   7.283   5.821
 3824POPC   C1A49611  24.590   7.640   6.194
 3824POPC   D2A49612  24.681   7.388   6.590
 3824POPC   C3A49613  24.635   7.616   6.982
 3824POPC   C4A49614  24.277   7.850   7.155
 3824POPC   C1B49615  24.436   7.101   6.215
 3824POPC   C2B49616  24.543   6.867   6.610
 3824POPC   C3B49617  24.531   7.068   7.003
 3824POPC   C4B49618  24.218   7.355   7.162
 3825POPC   NC349619  23.407  13.190   5.594
 3825POPC   PO449620  23.951  12.953   5.285
 3825POPC   GL149621  23.864  12.957   5.755
 3825POPC   GL249622  23.565  12.762   5.816
 3825POPC   C1A49623  23.739  13.025   6.217
 3825POPC   D2A49624  23.557  12.762   6.526
 3825POPC   C3A49625  23.652  12.914   6.903
 3825POPC   C4A49626  23.903  13.159   7.156
 3825POPC   C1B49627  23.755  12.511   6.094
 3825POPC   C2B49628  23.877  12.379   6.496
 3825POPC   C3B49629  23.922  12.469   6.912
 3825POPC   C4B49630  23.853  12.662   7.280
 3826POPC   NC349631  44.815  44.546   5.375
 3826POPC   PO449632   0.483  44.508   5.234
 3826POPC   GL149633   0.428  44.500   5.704
 3826POPC   GL249634   0.433  44.862   5.764
 3826POPC   C1A49635   0.558  44.533   6.159
 3826POPC   D2A49636   0.753  44.385   6.573
 3826POPC   C3A49637   0.568  44.518   6.984
 3826POPC   C4A49638   0.331  44.533   7.380
 3826POPC   C1B49639   0.333  44.998   6.204
 3826POPC   C2B49640   0.261  44.777   6.598
 3826POPC   C3B49641   0.188  44.923   7.033
 3826POPC   C4B49642   0.078   0.100   7.407
 3827POPC   NC349643  28.461   2.980   5.347
 3827POPC   PO449644  28.122   2.503   5.628
 3827POPC   GL149645  28.452   2.588   5.861
 3827POPC   GL249646  28.455   2.918   5.854
 3827POPC   C1A49647  28.490   2.503   6.285
 3827POPC   D2A49648  28.560   2.724   6.640
 3827POPC   C3A49649  28.514   2.412   6.913
 3827POPC   C4A49650  28.613   2.506   7.313
 3827POPC   C1B49651  28.317   2.983   6.266
 3827POPC   C2B49652  28.151   3.028   6.697
 3827POPC   C3B49653  28.223   2.792   7.082
 3827POPC   C4B49654  28.320   2.891   7.491
 3828POPC   NC349655  34.804  13.879   5.387
 3828POPC   PO449656  34.317  13.330   5.465
 3828POPC   GL149657  34.430  13.514   5.862
 3828POPC   GL249658  34.736  13.641   5.844
 3828POPC   C1A49659  34.437  13.772   6.227
 3828POPC   D2A49660  34.615  13.754   6.627
 3828POPC   C3A49661  34.492  13.998   6.961
 3828POPC   C4A49662  34.357  13.881   7.377
 3828POPC   C1B49663  34.994  13.556   6.199
 3828POPC   C2B49664  35.134  13.726   6.606
 3828POPC   C3B49665  35.000  13.876   6.982
 3828POPC   C4B49666  34.835  13.689   7.316
 3829POPC   NC349667  14.353  39.373   5.241
 3829POPC   PO449668  14.810  39.476   5.676
 3829POPC   GL149669  14.527  39.208   5.892
 3829POPC   GL249670  14.221  39.037   5.829
 3829POPC   C1A49671  14.485  39.087   6.311
 3829POPC   D2A49672  14.229  39.332   6.553
 3829POPC   C3A49673  14.319  39.284   6.953
 3829POPC   C4A49674  14.170  39.531   7.301
 3829POPC   C1B49675  14.005  38.965   6.234
 3829POPC   C2B49676  14.147  38.830   6.643
 3829POPC   C3B49677  14.051  38.851   7.077
 3829POPC   C4B49678  14.322  39.034   7.395
 3830POPC   NC349679   8.710  43.582   5.396
 3830POPC   PO449680   9.129  44.112   5.523
 3830POPC   GL149681   8.885  43.886   5.808
 3830POPC   GL249682   9.124  43.620   5.899
 3830POPC   C1A49683   8.752  43.775   6.234
 3830POPC   D2A49684   8.789  43.497   6.598
 3830POPC   C3A49685   8.922  43.637   7.005
 3830POPC   C4A49686   8.785  43.971   7.234
 3830POPC   C1B49687   9.224  43.601   6.340
 3830POPC   C2B49688   9.104  43.937   6.617
 3830POPC   C3B49689   9.281  44.144   6.959
 3830POPC   C4B49690   9.296  43.909   7.318
 3831POPC   NC349691   5.451  34.549   5.171
 3831POPC   PO449692   4.911  34.857   5.471
 3831POPC   GL149693   4.732  34.583   5.805
 3831POPC   GL249694   5.035  34.426   5.971
 3831POPC   C1A49695   4.731  34.718   6.247
 3831POPC   D2A49696   5.134  34.698   6.522
 3831POPC   C3A49697   5.085  34.575   6.953
 3831POPC   C4A49698   4.953  34.819   7.298
 3831POPC   C1B49699   5.265  34.241   6.310
 3831POPC   C2B49700   5.465  34.321   6.706
 3831POPC   C3B49701   5.474  34.247   7.132
 3831POPC   C4B49702   5.364  34.545   7.408
 3832POPC   NC349703  25.618  38.171   5.286
 3832POPC   PO449704  25.062  37.901   5.521
 3832POPC   GL149705  25.166  37.726   5.891
 3832POPC   GL249706  25.515  37.835   5.792
 3832POPC   C1A49707  25.126  37.576   6.330
 3832POPC   D2A49708  25.043  37.340   6.684
 3832POPC   C3A49709  25.270  37.310   7.043
 3832POPC   C4A49710  25.119  37.438   7.428
 3832POPC   C1B49711  25.579  37.505   6.092
 3832POPC   C2B49712  25.634  37.600   6.527
 3832POPC   C3B49713  25.482  37.745   6.912
 3832POPC   C4B49714  25.610  37.652   7.298
 3833POPC   NC349715   4.103  29.973   5.350
 3833POPC   PO449716   4.726  29.907   5.336
 3833POPC   GL149717   4.536  29.703   5.721
 3833POPC   GL249718   4.258  29.948   5.819
 3833POPC   C1A49719   4.411  29.693   6.198
 3833POPC   D2A49720   4.433  29.979   6.519
 3833POPC   C3A49721   4.455  29.786   6.923
 3833POPC   C4A49722   4.277  29.841   7.323
 3833POPC   C1B49723   3.901  29.819   6.094
 3833POPC   C2B49724   3.778  29.760   6.530
 3833POPC   C3B49725   3.938  29.816   6.928
 3833POPC   C4B49726   3.833  29.573   7.283
 3834POPC   NC349727  38.835   2.506   5.420
 3834POPC   PO449728  38.324   2.896   5.221
 3834POPC   GL149729  38.376   2.639   5.653
 3834POPC   GL249730  38.705   2.707   5.852
 3834POPC   C1A49731  38.171   2.694   6.081
 3834POPC   D2A49732  38.245   2.825   6.527
 3834POPC   C3A49733  38.132   2.615   6.910
 3834POPC   C4A49734  38.349   2.637   7.311
 3834POPC   C1B49735  38.639   2.538   6.231
 3834POPC   C2B49736  38.769   2.745   6.572
 3834POPC   C3B49737  38.661   2.775   6.925
 3834POPC   C4B49738  38.771   2.452   7.125
 3835POPC   NC349739  22.947   5.441   5.475
 3835POPC   PO449740  23.565   5.393   5.429
 3835POPC   GL149741  23.267   5.212   5.820
 3835POPC   GL249742  22.855   5.134   5.889
 3835POPC   C1A49743  23.127   5.311   6.253
 3835POPC   D2A49744  23.111   5.104   6.620
 3835POPC   C3A49745  22.956   5.260   7.010
 3835POPC   C4A49746  23.070   5.114   7.410
 3835POPC   C1B49747  22.719   4.921   6.292
 3835POPC   C2B49748  22.496   4.596   6.560
 3835POPC   C3B49749  22.548   4.510   7.007
 3835POPC   C4B49750  22.650   4.886   7.289
 3836POPC   NC349751  44.889  19.234   4.980
 3836POPC   PO449752  44.323  19.162   5.437
 3836POPC   GL149753  44.573  19.248   5.820
 3836POPC   GL249754  44.900  19.122   5.715
 3836POPC   C1A49755  44.661  19.079   6.249
 3836POPC   D2A49756  44.621  19.100   6.674
 3836POPC   C3A49757  44.599  18.878   7.029
 3836POPC   C4A49758  44.551  19.083   7.404
 3836POPC   C1B49759   0.111  18.932   6.078
 3836POPC   C2B49760   0.101  18.864   6.530
 3836POPC   C3B49761   0.071  19.059   6.940
 3836POPC   C4B49762   0.030  18.865   7.336
 3837POPC   NC349763  41.124  31.726   5.503
 3837POPC   PO449764  40.905  31.060   5.613
 3837POPC   GL149765  40.694  31.347   5.862
 3837POPC   GL249766  40.730  31.718   5.857
 3837POPC   C1A49767  40.656  31.421   6.310
 3837POPC   D2A49768  40.841  31.533   6.735
 3837POPC   C3A49769  40.726  31.309   7.085
 3837POPC   C4A49770  40.288  31.187   7.167
 3837POPC   C1B49771  41.045  31.732   6.225
 3837POPC   C2B49772  41.147  31.937   6.631
 3837POPC   C3B49773  41.091  31.842   7.091
 3837POPC   C4B49774  40.839  31.655   7.440
 3838POPC   NC349775  24.646  22.053   5.732
 3838POPC   PO449776  25.202  22.197   5.343
 3838POPC   GL149777  25.145  22.152   5.824
 3838POPC   GL249778  25.090  21.789   5.888
 3838POPC   C1A49779  25.202  22.348   6.281
 3838POPC   D2A49780  25.531  22.473   6.630
 3838POPC   C3A49781  25.383  22.372   7.050
 3838POPC   C4A49782  24.937  22.356   7.219
 3838POPC   C1B49783  25.363  21.874   6.242
 3838POPC   C2B49784  25.319  21.976   6.685
 3838POPC   C3B49785  25.177  21.898   7.119
 3838POPC   C4B49786  25.422  22.043   7.461
 3839POPC   NC349787  18.475  15.695   5.421
 3839POPC   PO449788  17.849  15.530   5.520
 3839POPC   GL149789  18.089  15.854   5.780
 3839POPC   GL249790  18.410  16.064   5.780
 3839POPC   C1A49791  18.147  15.920   6.207
 3839POPC   D2A49792  18.054  15.731   6.589
 3839POPC   C3A49793  18.124  15.974   6.916
 3839POPC   C4A49794  18.237  16.207   7.255
 3839POPC   C1B49795  18.534  16.299   6.153
 3839POPC   C2B49796  18.465  16.206   6.569
 3839POPC   C3B49797  18.627  16.101   6.921
 3839POPC   C4B49798  18.537  15.803   7.198
 3840POPC   NC349799  19.629  44.279   5.485
 3840POPC   PO449800  20.281  44.258   5.586
 3840POPC   GL149801  19.984  44.201   5.863
 3840POPC   GL249802  20.003  43.853   5.876
 3840POPC   C1A49803  19.828  44.143   6.263
 3840POPC   D2A49804  20.015  44.055   6.625
 3840POPC   C3A49805  19.724  44.135   6.935
 3840POPC   C4A49806  19.864  44.193   7.314
 3840POPC   C1B49807  19.944  43.648   6.280
 3840POPC   C2B49808  19.597  43.753   6.580
 3840POPC   C3B49809  19.444  43.710   7.034
 3840POPC   C4B49810  19.730  43.721   7.424
 3841POPC   NC349811  38.658  12.630   5.460
 3841POPC   PO449812  38.366  13.241   5.285
 3841POPC   GL149813  38.352  12.997   5.695
 3841POPC   GL249814  38.592  13.230   5.806
 3841POPC   C1A49815  38.269  12.840   6.164
 3841POPC   D2A49816  38.167  12.867   6.669
 3841POPC   C3A49817  38.207  12.581   7.075
 3841POPC   C4A49818  38.399  12.681   7.505
 3841POPC   C1B49819  38.763  12.993   6.156
 3841POPC   C2B49820  38.785  12.914   6.627
 3841POPC   C3B49821  38.586  12.953   7.061
 3841POPC   C4B49822  38.771  13.050   7.477
 3842POPC   NC349823  33.749   4.666   5.187
 3842POPC   PO449824  34.035   5.226   5.371
 3842POPC   GL149825  33.853   5.168   5.797
 3842POPC   GL249826  34.016   4.846   5.845
 3842POPC   C1A49827  33.679   5.222   6.243
 3842POPC   D2A49828  33.639   5.397   6.684
 3842POPC   C3A49829  33.896   5.169   6.972
 3842POPC   C4A49830  34.074   5.176   7.367
 3842POPC   C1B49831  33.918   4.724   6.286
 3842POPC   C2B49832  34.107   4.745   6.703
 3842POPC   C3B49833  34.079   4.695   7.156
 3842POPC   C4B49834  33.681   4.790   7.288
 3843POPC   NC349835  10.598  43.058   5.045
 3843POPC   PO449836  10.383  43.489   5.522
 3843POPC   GL149837  10.532  43.131   5.738
 3843POPC   GL249838  10.270  42.905   5.835
 3843POPC   C1A49839  10.556  43.122   6.190
 3843POPC   D2A49840  10.434  43.283   6.592
 3843POPC   C3A49841  10.576  43.211   7.020
 3843POPC   C4A49842  10.659  42.853   7.263
 3843POPC   C1B49843  10.191  42.687   6.185
 3843POPC   C2B49844  10.070  42.874   6.551
 3843POPC   C3B49845  10.253  42.842   6.917
 3843POPC   C4B49846  10.144  43.011   7.291
 3844POPC   NC349847  20.104  33.711   5.547
 3844POPC   PO449848  19.643  34.174   5.557
 3844POPC   GL149849  19.824  34.018   5.931
 3844POPC   GL249850  20.178  33.975   6.008
 3844POPC   C1A49851  19.771  33.784   6.315
 3844POPC   D2A49852  19.883  33.623   6.697
 3844POPC   C3A49853  19.589  33.708   7.028
 3844POPC   C4A49854  19.790  33.961   7.313
 3844POPC   C1B49855  20.170  33.497   6.152
 3844POPC   C2B49856  20.214  33.200   6.494
 3844POPC   C3B49857  20.236  33.310   6.918
 3844POPC   C4B49858  20.037  33.526   7.216
 3845POPC   NC349859  35.269   4.791   5.648
 3845POPC   PO449860  34.998   5.450   5.522
 3845POPC   GL149861  35.242   5.270   5.837
 3845POPC   GL249862  35.429   5.534   5.928
 3845POPC   C1A49863  35.325   5.051   6.245
 3845POPC   D2A49864  35.134   5.005   6.647
 3845POPC   C3A49865  35.399   4.910   6.983
 3845POPC   C4A49866  35.292   5.132   7.347
 3845POPC   C1B49867  35.579   5.671   6.278
 3845POPC   C2B49868  35.502   5.414   6.582
 3845POPC   C3B49869  35.465   5.419   6.981
 3845POPC   C4B49870  35.711   5.430   7.372
 3846POPC   NC349871   5.257  19.369   5.557
 3846POPC   PO449872   4.555  19.378   5.478
 3846POPC   GL149873   4.856  19.089   5.795
 3846POPC   GL249874   5.251  19.130   5.982
 3846POPC   C1A49875   4.915  18.891   6.239
 3846POPC   D2A49876   5.200  19.101   6.548
 3846POPC   C3A49877   5.060  19.062   6.979
 3846POPC   C4A49878   4.775  19.029   7.353
 3846POPC   C1B49879   5.390  18.745   6.221
 3846POPC   C2B49880   5.182  18.603   6.615
 3846POPC   C3B49881   5.428  18.707   6.997
 3846POPC   C4B49882   5.384  18.989   7.374
 3847POPC   NC349883  33.328  43.597   5.423
 3847POPC   PO449884  33.038  44.274   5.367
 3847POPC   GL149885  33.046  44.099   5.798
 3847POPC   GL249886  33.301  43.866   5.845
 3847POPC   C1A49887  32.906  43.981   6.228
 3847POPC   D2A49888  32.655  44.001   6.641
 3847POPC   C3A49889  32.855  44.000   7.088
 3847POPC   C4A49890  32.660  44.173   7.512
 3847POPC   C1B49891  33.290  43.648   6.231
 3847POPC   C2B49892  33.086  43.697   6.644
 3847POPC   C3B49893  33.120  43.562   7.063
 3847POPC   C4B49894  33.329  43.483   7.396
 3848POPC   NC349895  18.041  33.106   5.384
 3848POPC   PO449896  18.618  32.683   5.535
 3848POPC   GL149897  18.267  32.837   5.788
 3848POPC   GL249898  18.389  33.141   5.794
 3848POPC   C1A49899  18.226  32.885   6.243
 3848POPC   D2A49900  18.435  32.948   6.646
 3848POPC   C3A49901  18.277  32.817   7.050
 3848POPC   C4A49902  18.390  32.812   7.523
 3848POPC   C1B49903  18.149  33.356   6.095
 3848POPC   C2B49904  18.019  33.325   6.512
 3848POPC   C3B49905  18.253  33.355   6.893
 3848POPC   C4B49906  18.240  33.235   7.321
 3849POPC   NC349907  24.725   6.149   5.504
 3849POPC   PO449908  24.226   6.616   5.520
 3849POPC   GL149909  24.433   6.726   5.872
 3849POPC   GL249910  24.672   6.497   5.897
 3849POPC   C1A49911  24.359   6.520   6.284
 3849POPC   D2A49912  24.161   6.366   6.650
 3849POPC   C3A49913  24.324   6.593   7.021
 3849POPC   C4A49914  24.099   6.888   7.304
 3849POPC   C1B49915  24.885   6.475   6.340
 3849POPC   C2B49916  24.805   6.460   6.813
 3849POPC   C3B49917  24.824   6.372   7.273
 3849POPC   C4B49918  24.761   6.415   7.767
 3850POPC   NC349919   9.945  25.640   5.587
 3850POPC   PO449920   9.772  25.136   5.238
 3850POPC   GL149921   9.631  25.267   5.719
 3850POPC   GL249922   9.461  24.999   5.817
 3850POPC   C1A49923   9.674  25.438   6.165
 3850POPC   D2A49924   9.418  25.527   6.535
 3850POPC   C3A49925   9.595  25.462   6.955
 3850POPC   C4A49926   9.792  25.583   7.307
 3850POPC   C1B49927   9.585  24.927   6.223
 3850POPC   C2B49928   9.744  25.093   6.580
 3850POPC   C3B49929   9.651  24.947   6.962
 3850POPC   C4B49930   9.697  25.090   7.342
 3851POPC   NC349931  40.264  11.444   5.260
 3851POPC   PO449932  39.765  11.031   5.340
 3851POPC   GL149933  39.896  11.255   5.715
 3851POPC   GL249934  40.233  11.384   5.758
 3851POPC   C1A49935  40.037  11.129   6.134
 3851POPC   D2A49936  40.193  11.057   6.551
 3851POPC   C3A49937  40.042  11.085   6.980
 3851POPC   C4A49938  40.203  11.190   7.399
 3851POPC   C1B49939  40.314  11.568   6.191
 3851POPC   C2B49940  40.162  11.575   6.622
 3851POPC   C3B49941  40.331  11.532   7.023
 3851POPC   C4B49942  40.256  11.729   7.394
 3852POPC   NC349943  42.704   7.119   5.676
 3852POPC   PO449944  42.974   7.620   5.451
 3852POPC   GL149945  43.179   7.378   5.786
 3852POPC   GL249946  42.927   7.368   6.056
 3852POPC   C1A49947  43.396   7.223   6.175
 3852POPC   D2A49948  43.167   7.173   6.549
 3852POPC   C3A49949  43.413   7.177   6.931
 3852POPC   C4A49950  43.322   7.369   7.311
 3852POPC   C1B49951  43.120   7.753   6.206
 3852POPC   C2B49952  43.084   7.875   6.637
 3852POPC   C3B49953  43.023   7.547   6.924
 3852POPC   C4B49954  42.791   7.410   7.287
 3853POPC   NC349955   2.992  27.039   5.560
 3853POPC   PO449956   2.543  26.556   5.527
 3853POPC   GL149957   2.774  26.652   5.880
 3853POPC   GL249958   2.950  26.351   5.919
 3853POPC   C1A49959   2.943  26.872   6.246
 3853POPC   D2A49960   2.801  27.063   6.637
 3853POPC   C3A49961   2.683  26.847   7.003
 3853POPC   C4A49962   2.795  26.885   7.441
 3853POPC   C1B49963   2.869  26.382   6.359
 3853POPC   C2B49964   3.057  26.595   6.696
 3853POPC   C3B49965   3.068  26.503   7.133
 3853POPC   C4B49966   3.014  26.448   7.540
 3854POPC   NC349967  22.748  41.317   5.374
 3854POPC   PO449968  23.365  41.569   5.356
 3854POPC   GL149969  23.026  41.639   5.691
 3854POPC   GL249970  22.739  41.899   5.676
 3854POPC   C1A49971  22.928  41.360   6.057
 3854POPC   D2A49972  23.216  41.303   6.434
 3854POPC   C3A49973  23.064  41.383   6.863
 3854POPC   C4A49974  23.143  41.536   7.293
 3854POPC   C1B49975  22.702  41.823   6.125
 3854POPC   C2B49976  22.753  41.649   6.549
 3854POPC   C3B49977  22.772  41.788   7.017
 3854POPC   C4B49978  22.651  41.669   7.460
 3855POPC   NC349979   7.837   8.337   5.482
 3855POPC   PO449980   8.388   7.837   5.455
 3855POPC   GL149981   8.164   7.938   5.822
 3855POPC   GL249982   8.201   8.289   5.885
 3855POPC   C1A49983   8.238   7.877   6.264
 3855POPC   D2A49984   8.170   8.093   6.646
 3855POPC   C3A49985   8.244   7.917   7.046
 3855POPC   C4A49986   8.220   8.116   7.423
 3855POPC   C1B49987   8.476   8.337   6.257
 3855POPC   C2B49988   8.669   8.240   6.641
 3855POPC   C3B49989   8.573   8.288   7.071
 3855POPC   C4B49990   8.290   8.592   7.273
 3856POPC   NC349991  21.415   5.408   5.487
 3856POPC   PO449992  21.611   6.037   5.485
 3856POPC   GL149993  21.730   5.860   5.870
 3856POPC   GL249994  21.562   5.525   5.956
 3856POPC   C1A49995  21.628   5.926   6.303
 3856POPC   D2A49996  21.478   5.678   6.652
 3856POPC   C3A49997  21.657   5.827   7.037
 3856POPC   C4A49998  21.569   5.884   7.474
 3856POPC   C1B49999  21.188   5.663   6.207
 3856POPC   C2B50000  20.984   5.574   6.626
 3856POPC   C3B50001  21.144   5.799   7.014
 3856POPC   C4B50002  21.054   5.838   7.429
 3857POPC   NC350003  22.527  24.292   5.426
 3857POPC   PO450004  21.845  24.466   5.400
 3857POPC   GL150005  22.080  24.308   5.778
 3857POPC   GL250006  22.352  24.538   5.855
 3857POPC   C1A50007  22.122  24.185   6.221
 3857POPC   D2A50008  21.963  24.374   6.606
 3857POPC   C3A50009  22.171  24.301   7.019
 3857POPC   C4A50010  22.108  24.303   7.477
 3857POPC   C1B50011  22.294  24.694   6.311
 3857POPC   C2B50012  22.309  24.746   6.800
 3857POPC   C3B50013  22.402  24.686   7.266
 3857POPC   C4B50014  22.439  25.031   7.555
 3858POPC   NC350015   2.161  41.527   5.329
 3858POPC   PO450016   1.522  41.745   5.482
 3858POPC   GL150017   1.788  41.519   5.769
 3858POPC   GL250018   2.157  41.518   5.841
 3858POPC   C1A50019   1.773  41.438   6.193
 3858POPC   D2A50020   1.805  41.638   6.581
 3858POPC   C3A50021   1.663  41.446   6.938
 3858POPC   C4A50022   1.765  41.554   7.325
 3858POPC   C1B50023   2.306  41.418   6.250
 3858POPC   C2B50024   2.253  41.412   6.663
 3858POPC   C3B50025   2.180  41.623   7.010
 3858POPC   C4B50026   2.241  41.388   7.353
 3859POPC   NC350027  29.295  44.911   5.482
 3859POPC   PO450028  28.900  44.339   5.345
 3859POPC   GL150029  28.893  44.618   5.743
 3859POPC   GL250030  29.156  44.817   5.946
 3859POPC   C1A50031  28.787  44.571   6.197
 3859POPC   D2A50032  28.861  44.272   6.554
 3859POPC   C3A50033  28.999  44.524   6.939
 3859POPC   C4A50034  28.959  44.524   7.388
 3859POPC   C1B50035  29.202  44.819   6.371
 3859POPC   C2B50036  29.015   0.018   6.710
 3859POPC   C3B50037  29.233   0.084   7.047
 3859POPC   C4B50038  29.486  44.792   7.239
 3860POPC   NC350039  40.770  39.592   5.098
 3860POPC   PO450040  40.671  40.193   5.290
 3860POPC   GL150041  40.662  40.082   5.758
 3860POPC   GL250042  40.839  39.758   5.811
 3860POPC   C1A50043  40.693  40.227   6.211
 3860POPC   D2A50044  40.729  40.099   6.650
 3860POPC   C3A50045  40.509  40.193   7.038
 3860POPC   C4A50046  40.748  40.172   7.400
 3860POPC   C1B50047  40.943  39.736   6.259
 3860POPC   C2B50048  40.823  39.608   6.682
 3860POPC   C3B50049  40.849  39.694   7.149
 3860POPC   C4B50050  41.036  39.714   7.590
 3861POPC   NC350051  32.936  15.927   5.558
 3861POPC   PO450052  33.506  16.331   5.543
 3861POPC   GL150053  33.264  16.158   5.905
 3861POPC   GL250054  33.245  15.806   5.926
 3861POPC   C1A50055  32.913  16.063   6.225
 3861POPC   D2A50056  32.796  15.911   6.656
 3861POPC   C3A50057  33.074  15.994   6.996
 3861POPC   C4A50058  33.072  16.280   7.314
 3861POPC   C1B50059  33.165  15.589   6.280
 3861POPC   C2B50060  33.257  15.601   6.693
 3861POPC   C3B50061  33.298  15.505   7.095
 3861POPC   C4B50062  33.197  15.761   7.467
 3862POPC   NC350063  12.219   8.711   5.170
 3862POPC   PO450064  12.151   8.137   5.347
 3862POPC   GL150065  11.954   8.120   5.746
 3862POPC   GL250066  12.180   8.371   5.890
 3862POPC   C1A50067  11.979   7.960   6.182
 3862POPC   D2A50068  12.111   8.159   6.572
 3862POPC   C3A50069  11.866   8.093   6.955
 3862POPC   C4A50070  12.024   8.042   7.369
 3862POPC   C1B50071  12.162   8.626   6.266
 3862POPC   C2B50072  11.936   8.633   6.652
 3862POPC   C3B50073  12.059   8.559   7.071
 3862POPC   C4B50074  12.195   8.551   7.515
 3863POPC   NC350075  44.209  18.058   5.560
 3863POPC   PO450076  43.514  18.058   5.590
 3863POPC   GL150077  43.878  17.983   5.937
 3863POPC   GL250078  44.244  18.173   6.045
 3863POPC   C1A50079  43.907  18.036   6.385
 3863POPC   D2A50080  43.851  18.272   6.709
 3863POPC   C3A50081  44.000  18.111   7.068
 3863POPC   C4A50082  43.668  18.172   7.304
 3863POPC   C1B50083  44.251  18.531   6.363
 3863POPC   C2B50084  44.191  18.617   6.827
 3863POPC   C3B50085  43.779  18.639   7.076
 3863POPC   C4B50086  43.714  18.600   7.544
 3864POPC   NC350087  40.589  37.363   5.151
 3864POPC   PO450088  40.891  36.808   5.399
 3864POPC   GL150089  40.829  37.000   5.764
 3864POPC   GL250090  40.635  36.722   5.870
 3864POPC   C1A50091  40.985  36.984   6.195
 3864POPC   D2A50092  40.795  36.843   6.576
 3864POPC   C3A50093  40.843  37.090   6.954
 3864POPC   C4A50094  41.083  37.068   7.364
 3864POPC   C1B50095  40.375  36.537   6.190
 3864POPC   C2B50096  40.272  36.537   6.617
 3864POPC   C3B50097  40.527  36.614   6.944
 3864POPC   C4B50098  40.742  36.711   7.297
 3865POPC   NC350099  23.269  38.890   5.560
 3865POPC   PO450100  22.707  39.319   5.358
 3865POPC   GL150101  22.823  39.198   5.767
 3865POPC   GL250102  22.852  38.883   5.911
 3865POPC   C1A50103  22.832  39.334   6.204
 3865POPC   D2A50104  22.887  39.553   6.586
 3865POPC   C3A50105  22.985  39.281   6.934
 3865POPC   C4A50106  22.959  39.160   7.367
 3865POPC   C1B50107  22.546  38.899   6.248
 3865POPC   C2B50108  22.609  39.054   6.663
 3865POPC   C3B50109  22.588  38.978   7.110
 3865POPC   C4B50110  22.579  38.918   7.606
 3866POPC   NC350111  35.669  31.764   5.136
 3866POPC   PO450112  35.103  31.297   5.345
 3866POPC   GL150113  35.113  31.519   5.749
 3866POPC   GL250114  35.470  31.707   5.764
 3866POPC   C1A50115  35.275  31.482   6.167
 3866POPC   D2A50116  35.210  31.753   6.528
 3866POPC   C3A50117  35.289  31.495   6.897
 3866POPC   C4A50118  35.095  31.424   7.347
 3866POPC   C1B50119  35.592  31.871   6.198
 3866POPC   C2B50120  35.693  31.716   6.646
 3866POPC   C3B50121  35.584  31.893   7.088
 3866POPC   C4B50122  35.543  31.863   7.570
 3867POPC   NC350123  35.965  43.607   5.556
 3867POPC   PO450124  36.226  43.012   5.458
 3867POPC   GL150125  36.066  43.180   5.850
 3867POPC   GL250126  35.779  43.005   5.734
 3867POPC   C1A50127  36.138  43.143   6.321
 3867POPC   D2A50128  36.445  42.923   6.617
 3867POPC   C3A50129  36.496  43.179   6.983
 3867POPC   C4A50130  36.159  43.362   7.215
 3867POPC   C1B50131  35.676  42.919   6.159
 3867POPC   C2B50132  35.659  43.087   6.573
 3867POPC   C3B50133  35.906  43.009   6.958
 3867POPC   C4B50134  36.272  42.731   7.104
 3868POPC   NC350135  24.119  35.299   5.288
 3868POPC   PO450136  24.294  35.917   5.412
 3868POPC   GL150137  24.431  35.509   5.681
 3868POPC   GL250138  24.188  35.206   5.796
 3868POPC   C1A50139  24.562  35.384   6.124
 3868POPC   D2A50140  24.445  35.597   6.519
 3868POPC   C3A50141  24.448  35.493   6.928
 3868POPC   C4A50142  24.560  35.138   7.105
 3868POPC   C1B50143  24.191  35.018   6.238
 3868POPC   C2B50144  24.118  35.160   6.685
 3868POPC   C3B50145  24.049  35.037   7.126
 3868POPC   C4B50146  24.263  35.134   7.507
 3869POPC   NC350147  31.262  29.355   5.564
 3869POPC   PO450148  31.483  28.763   5.314
 3869POPC   GL150149  31.456  28.883   5.756
 3869POPC   GL250150  31.693  29.150   5.836
 3869POPC   C1A50151  31.258  29.033   6.151
 3869POPC   D2A50152  31.341  28.992   6.589
 3869POPC   C3A50153  31.244  29.172   6.984
 3869POPC   C4A50154  31.350  29.071   7.406
 3869POPC   C1B50155  31.697  29.235   6.297
 3869POPC   C2B50156  31.671  29.414   6.709
 3869POPC   C3B50157  31.755  29.230   7.101
 3869POPC   C4B50158  31.872  29.114   7.501
 3870POPC   NC350159  17.850  14.078   5.459
 3870POPC   PO450160  18.517  14.319   5.427
 3870POPC   GL150161  18.384  14.185   5.810
 3870POPC   GL250162  18.052  14.314   5.864
 3870POPC   C1A50163  18.310  14.130   6.245
 3870POPC   D2A50164  17.994  14.219   6.581
 3870POPC   C3A50165  18.242  14.264   6.974
 3870POPC   C4A50166  18.125  14.120   7.367
 3870POPC   C1B50167  18.080  14.603   6.228
 3870POPC   C2B50168  18.100  14.710   6.685
 3870POPC   C3B50169  17.880  14.607   7.071
 3870POPC   C4B50170  18.036  14.619   7.489
 3871POPC   NC350171  19.382  16.167   5.096
 3871POPC   PO450172  18.911  15.741   5.308
 3871POPC   GL150173  18.888  15.824   5.738
 3871POPC   GL250174  18.719  15.569   5.886
 3871POPC   C1A50175  19.115  15.932   6.118
 3871POPC   D2A50176  18.956  16.090   6.502
 3871POPC   C3A50177  19.135  16.088   6.901
 3871POPC   C4A50178  18.938  16.121   7.330
 3871POPC   C1B50179  18.632  15.808   6.213
 3871POPC   C2B50180  18.562  15.699   6.610
 3871POPC   C3B50181  18.891  15.643   6.835
 3871POPC   C4B50182  19.006  15.633   7.234
 3872POPC   NC350183  33.076  39.428   5.398
 3872POPC   PO450184  32.571  39.051   5.399
 3872POPC   GL150185  32.770  39.118   5.816
 3872POPC   GL250186  33.054  39.332   5.881
 3872POPC   C1A50187  32.895  39.023   6.260
 3872POPC   D2A50188  32.805  39.277   6.618
 3872POPC   C3A50189  32.900  39.142   6.987
 3872POPC   C4A50190  33.254  39.073   7.166
 3872POPC   C1B50191  32.806  39.532   6.177
 3872POPC   C2B50192  33.004  39.747   6.523
 3872POPC   C3B50193  33.161  39.589   6.913
 3872POPC   C4B50194  32.988  39.545   7.311
 3873POPC   NC350195  16.607  12.918   5.327
 3873POPC   PO450196  17.184  13.131   5.386
 3873POPC   GL150197  16.948  12.869   5.695
 3873POPC   GL250198  17.065  12.554   5.778
 3873POPC   C1A50199  16.684  12.836   6.057
 3873POPC   D2A50200  16.806  12.914   6.500
 3873POPC   C3A50201  16.565  13.053   6.876
 3873POPC   C4A50202  16.727  12.945   7.277
 3873POPC   C1B50203  17.151  12.660   6.194
 3873POPC   C2B50204  17.026  12.445   6.567
 3873POPC   C3B50205  16.978  12.620   6.950
 3873POPC   C4B50206  17.234  12.813   7.248
 3874POPC   NC350207  24.916  28.003   5.568
 3874POPC   PO450208  25.428  28.308   5.379
 3874POPC   GL150209  25.310  28.233   5.814
 3874POPC   GL250210  25.601  28.060   5.841
 3874POPC   C1A50211  25.066  28.160   6.246
 3874POPC   D2A50212  24.894  28.259   6.695
 3874POPC   C3A50213  25.097  28.501   7.030
 3874POPC   C4A50214  25.055  28.452   7.482
 3874POPC   C1B50215  25.586  28.209   6.272
 3874POPC   C2B50216  25.404  28.269   6.680
 3874POPC   C3B50217  25.449  28.135   7.125
 3874POPC   C4B50218  25.480  28.192   7.589
 3875POPC   NC350219  27.064  19.055   5.446
 3875POPC   PO450220  27.821  19.139   5.402
 3875POPC   GL150221  27.500  19.122   5.730
 3875POPC   GL250222  27.549  18.768   5.769
 3875POPC   C1A50223  27.405  19.017   6.190
 3875POPC   D2A50224  27.435  18.800   6.585
 3875POPC   C3A50225  27.476  19.090   6.915
 3875POPC   C4A50226  27.305  19.155   7.320
 3875POPC   C1B50227  27.902  18.949   6.043
 3875POPC   C2B50228  27.903  19.020   6.474
 3875POPC   C3B50229  27.963  18.920   6.886
 3875POPC   C4B50230  27.766  18.921   7.300
 3876POPC   NC350231   7.947   5.365   5.346
 3876POPC   PO450232   8.274   5.955   5.445
 3876POPC   GL150233   8.018   5.895   5.822
 3876POPC   GL250234   8.062   5.547   5.830
 3876POPC   C1A50235   8.095   6.115   6.225
 3876POPC   D2A50236   8.453   6.112   6.519
 3876POPC   C3A50237   8.345   6.132   6.950
 3876POPC   C4A50238   8.413   5.942   7.339
 3876POPC   C1B50239   7.872   5.651   6.255
 3876POPC   C2B50240   8.074   5.720   6.687
 3876POPC   C3B50241   7.929   5.839   7.098
 3876POPC   C4B50242   8.000   5.751   7.532
 3877POPC   NC350243  10.621  27.030   5.369
 3877POPC   PO450244  10.157  26.636   5.311
 3877POPC   GL150245  10.451  26.709   5.727
 3877POPC   GL250246  10.677  26.968   5.867
 3877POPC   C1A50247  10.369  26.715   6.196
 3877POPC   D2A50248  10.535  26.869   6.607
 3877POPC   C3A50249  10.614  26.694   7.000
 3877POPC   C4A50250  10.393  26.864   7.330
 3877POPC   C1B50251  10.734  27.190   6.266
 3877POPC   C2B50252  10.717  27.362   6.703
 3877POPC   C3B50253  10.751  27.153   7.139
 3877POPC   C4B50254  10.681  27.148   7.638
 3878POPC   NC350255  20.014  11.286   5.298
 3878POPC   PO450256  19.891  11.907   5.545
 3878POPC   GL150257  19.915  11.657   5.890
 3878POPC   GL250258  19.698  11.366   5.776
 3878POPC   C1A50259  20.064  11.656   6.343
 3878POPC   D2A50260  20.252  11.457   6.722
 3878POPC   C3A50261  19.904  11.301   6.967
 3878POPC   C4A50262  19.474  11.337   7.124
 3878POPC   C1B50263  19.984  11.181   6.090
 3878POPC   C2B50264  20.024  11.052   6.516
 3878POPC   C3B50265  19.919  10.758   6.844
 3878POPC   C4B50266  19.639  10.873   7.163
 3879POPC   NC350267  42.733  16.183   5.076
 3879POPC   PO450268  42.484  15.598   5.353
 3879POPC   GL150269  42.379  15.818   5.732
 3879POPC   GL250270  42.080  16.075   5.732
 3879POPC   C1A50271  42.371  15.637   6.154
 3879POPC   D2A50272  42.107  15.619   6.510
 3879POPC   C3A50273  42.284  15.739   6.897
 3879POPC   C4A50274  42.023  15.599   7.242
 3879POPC   C1B50275  42.306  16.136   6.132
 3879POPC   C2B50276  42.531  16.028   6.507
 3879POPC   C3B50277  42.408  16.316   6.822
 3879POPC   C4B50278  42.142  16.199   7.149
 3880POPC   NC350279  13.260   1.481   5.503
 3880POPC   PO450280  13.921   1.328   5.485
 3880POPC   GL150281  13.731   1.157   5.880
 3880POPC   GL250282  13.452   0.893   5.872
 3880POPC   C1A50283  13.880   1.208   6.331
 3880POPC   D2A50284  13.947   0.928   6.713
 3880POPC   C3A50285  13.920   1.230   7.066
 3880POPC   C4A50286  13.619   1.541   7.163
 3880POPC   C1B50287  13.397   1.075   6.299
 3880POPC   C2B50288  13.516   1.206   6.712
 3880POPC   C3B50289  13.464   1.043   7.108
 3880POPC   C4B50290  13.759   0.771   7.302
 3881POPC   NC350291   5.461   2.684   5.429
 3881POPC   PO450292   5.041   3.244   5.268
 3881POPC   GL150293   5.047   2.981   5.752
 3881POPC   GL250294   5.291   2.698   5.893
 3881POPC   C1A50295   4.905   2.797   6.187
 3881POPC   D2A50296   5.020   2.493   6.522
 3881POPC   C3A50297   4.968   2.617   6.957
 3881POPC   C4A50298   4.908   2.623   7.418
 3881POPC   C1B50299   5.494   2.669   6.304
 3881POPC   C2B50300   5.498   2.627   6.768
 3881POPC   C3B50301   5.398   2.702   7.206
 3881POPC   C4B50302   5.629   2.992   7.425
 3882POPC   NC350303  16.542  38.274   5.095
 3882POPC   PO450304  16.554  38.777   5.531
 3882POPC   GL150305  16.626  38.378   5.718
 3882POPC   GL250306  16.872  38.528   5.937
 3882POPC   C1A50307  16.587  38.092   6.079
 3882POPC   D2A50308  16.551  38.074   6.543
 3882POPC   C3A50309  16.684  38.491   6.748
 3882POPC   C4A50310  16.690  38.686   7.161
 3882POPC   C1B50311  16.949  38.775   6.328
 3882POPC   C2B50312  17.038  38.900   6.760
 3882POPC   C3B50313  17.162  38.578   7.052
 3882POPC   C4B50314  16.993  38.382   7.433
 3883POPC   NC350315   9.835  29.451   5.544
 3883POPC   PO450316   9.351  29.836   5.381
 3883POPC   GL150317   9.553  29.979   5.800
 3883POPC   GL250318   9.937  29.997   5.762
 3883POPC   C1A50319   9.522  29.945   6.282
 3883POPC   D2A50320   9.453  30.035   6.745
 3883POPC   C3A50321   9.471  29.766   7.093
 3883POPC   C4A50322   9.660  29.956   7.439
 3883POPC   C1B50323  10.032  29.968   6.202
 3883POPC   C2B50324   9.931  29.806   6.618
 3883POPC   C3B50325   9.896  30.024   6.998
 3883POPC   C4B50326  10.048  30.260   7.338
 3884POPC   NC350327  23.641  16.280   5.238
 3884POPC   PO450328  23.925  15.740   5.614
 3884POPC   GL150329  23.670  15.916   5.905
 3884POPC   GL250330  23.871  16.164   5.917
 3884POPC   C1A50331  23.644  15.765   6.308
 3884POPC   D2A50332  23.399  15.616   6.651
 3884POPC   C3A50333  23.502  15.882   6.969
 3884POPC   C4A50334  23.898  15.748   7.160
 3884POPC   C1B50335  23.906  16.240   6.320
 3884POPC   C2B50336  23.921  16.039   6.688
 3884POPC   C3B50337  24.044  16.217   7.049
 3884POPC   C4B50338  23.844  16.432   7.314
 3885POPC   NC350339  38.363  39.623   5.514
 3885POPC   PO450340  38.519  40.169   5.072
 3885POPC   GL150341  38.495  40.116   5.580
 3885POPC   GL250342  38.649  40.336   5.793
 3885POPC   C1A50343  38.327  40.043   6.063
 3885POPC   D2A50344  38.283  40.197   6.527
 3885POPC   C3A50345  38.410  39.944   6.925
 3885POPC   C4A50346  38.096  39.787   7.264
 3885POPC   C1B50347  38.782  40.213   6.212
 3885POPC   C2B50348  38.778  40.262   6.650
 3885POPC   C3B50349  38.719  40.407   7.053
 3885POPC   C4B50350  38.765  40.170   7.448
 3886POPC   NC350351   6.463  18.043   5.108
 3886POPC   PO450352   6.707  17.537   5.504
 3886POPC   GL150353   6.756  17.538   5.906
 3886POPC   GL250354   6.642  17.202   5.942
 3886POPC   C1A50355   6.567  17.634   6.290
 3886POPC   D2A50356   6.370  17.674   6.678
 3886POPC   C3A50357   6.655  17.766   6.986
 3886POPC   C4A50358   6.871  17.443   7.248
 3886POPC   C1B50359   6.916  17.226   6.306
 3886POPC   C2B50360   6.827  17.368   6.727
 3886POPC   C3B50361   6.448  17.281   7.008
 3886POPC   C4B50362   6.199  17.199   7.385
 3887POPC   NC350363  23.208  24.885   5.572
 3887POPC   PO450364  23.728  24.511   5.335
 3887POPC   GL150365  23.899  24.408   5.711
 3887POPC   GL250366  23.797  24.696   5.844
 3887POPC   C1A50367  23.741  24.247   6.117
 3887POPC   D2A50368  23.585  24.295   6.534
 3887POPC   C3A50369  23.683  24.381   6.959
 3887POPC   C4A50370  23.439  24.187   7.260
 3887POPC   C1B50371  23.585  24.735   6.228
 3887POPC   C2B50372  23.651  24.803   6.666
 3887POPC   C3B50373  23.698  24.857   7.107
 3887POPC   C4B50374  23.772  24.942   7.527
 3888POPC   NC350375  25.832  31.022   5.542
 3888POPC   PO450376  26.089  30.393   5.427
 3888POPC   GL150377  25.866  30.564   5.783
 3888POPC   GL250378  26.166  30.752   5.828
 3888POPC   C1A50379  25.813  30.454   6.232
 3888POPC   D2A50380  25.764  30.718   6.605
 3888POPC   C3A50381  25.644  30.580   7.028
 3888POPC   C4A50382  25.828  30.749   7.434
 3888POPC   C1B50383  26.070  30.924   6.207
 3888POPC   C2B50384  26.271  30.866   6.579
 3888POPC   C3B50385  26.095  30.865   6.966
 3888POPC   C4B50386  25.720  31.073   7.058
 3889POPC   NC350387  23.481  14.949   5.600
 3889POPC   PO450388  23.643  15.467   5.269
 3889POPC   GL150389  23.619  15.381   5.798
 3889POPC   GL250390  23.937  15.201   5.757
 3889POPC   C1A50391  23.497  15.262   6.264
 3889POPC   D2A50392  23.448  15.016   6.677
 3889POPC   C3A50393  23.388  15.266   7.066
 3889POPC   C4A50394  23.453  15.607   7.381
 3889POPC   C1B50395  23.996  15.280   6.200
 3889POPC   C2B50396  23.958  14.992   6.569
 3889POPC   C3B50397  23.866  15.187   6.953
 3889POPC   C4B50398  23.839  15.297   7.393
 3890POPC   NC350399  11.675  12.561   5.366
 3890POPC   PO450400  12.114  12.158   5.594
 3890POPC   GL150401  11.885  12.150   5.921
 3890POPC   GL250402  11.612  12.393   5.899
 3890POPC   C1A50403  12.148  12.088   6.265
 3890POPC   D2A50404  12.195  11.782   6.536
 3890POPC   C3A50405  12.386  11.907   6.885
 3890POPC   C4A50406  12.398  11.771   7.282
 3890POPC   C1B50407  11.643  12.280   6.356
 3890POPC   C2B50408  11.898  12.156   6.709
 3890POPC   C3B50409  11.796  12.086   7.132
 3890POPC   C4B50410  11.786  12.405   7.442
 3891POPC   NC350411  27.164  36.448   5.549
 3891POPC   PO450412  26.834  35.987   5.203
 3891POPC   GL150413  26.775  36.140   5.649
 3891POPC   GL250414  27.090  36.030   5.829
 3891POPC   C1A50415  26.600  36.209   6.083
 3891POPC   D2A50416  26.439  35.974   6.459
 3891POPC   C3A50417  26.643  35.947   6.856
 3891POPC   C4A50418  26.495  36.104   7.257
 3891POPC   C1B50419  27.093  36.280   6.219
 3891POPC   C2B50420  27.089  36.184   6.673
 3891POPC   C3B50421  27.045  36.309   7.120
 3891POPC   C4B50422  27.141  36.352   7.591
 3892POPC   NC350423  14.100   5.192   5.672
 3892POPC   PO450424  14.562   4.721   5.444
 3892POPC   GL150425  14.592   5.091   5.757
 3892POPC   GL250426  14.384   4.918   5.993
 3892POPC   C1A50427  14.562   5.357   6.160
 3892POPC   D2A50428  14.431   5.107   6.510
 3892POPC   C3A50429  14.329   5.181   6.930
 3892POPC   C4A50430  14.518   5.125   7.311
 3892POPC   C1B50431  14.158   4.681   6.291
 3892POPC   C2B50432  14.073   4.786   6.681
 3892POPC   C3B50433  14.111   4.692   7.051
 3892POPC   C4B50434  14.086   4.806   7.471
 3893POPC   NC350435  40.448  33.766   5.733
 3893POPC   PO450436  40.982  34.150   5.563
 3893POPC   GL150437  41.064  34.012   5.929
 3893POPC   GL250438  40.970  33.665   5.892
 3893POPC   C1A50439  40.864  33.944   6.317
 3893POPC   D2A50440  40.491  33.896   6.536
 3893POPC   C3A50441  40.665  34.067   6.907
 3893POPC   C4A50442  40.504  34.096   7.293
 3893POPC   C1B50443  40.928  33.440   6.294
 3893POPC   C2B50444  40.726  33.478   6.703
 3893POPC   C3B50445  40.666  33.590   7.137
 3893POPC   C4B50446  40.479  33.295   7.389
 3894POPC   NC350447  28.476  15.033   5.474
 3894POPC   PO450448  28.076  15.637   5.517
 3894POPC   GL150449  28.293  15.327   5.873
 3894POPC   GL250450  28.577  15.036   5.968
 3894POPC   C1A50451  28.197  15.155   6.304
 3894POPC   D2A50452  28.354  14.983   6.666
 3894POPC   C3A50453  28.424  15.158   7.087
 3894POPC   C4A50454  28.242  15.098   7.534
 3894POPC   C1B50455  28.769  14.893   6.381
 3894POPC   C2B50456  28.802  14.871   6.875
 3894POPC   C3B50457  28.696  14.825   7.354
 3894POPC   C4B50458  28.687  14.968   7.812
 3895POPC   NC350459  14.315  40.280   5.498
 3895POPC   PO450460  14.570  39.779   5.147
 3895POPC   GL150461  14.382  39.752   5.659
 3895POPC   GL250462  14.610  39.921   5.905
 3895POPC   C1A50463  14.170  39.948   6.110
 3895POPC   D2A50464  14.396  40.047   6.523
 3895POPC   C3A50465  14.268  39.932   6.949
 3895POPC   C4A50466  14.436  39.973   7.390
 3895POPC   C1B50467  14.534  39.610   6.243
 3895POPC   C2B50468  14.715  39.519   6.641
 3895POPC   C3B50469  14.649  39.633   7.064
 3895POPC   C4B50470  14.693  39.491   7.444
 3896POPC   NC350471  36.238  14.109   5.426
 3896POPC   PO450472  35.833  14.606   5.524
 3896POPC   GL150473  36.195  14.577   5.819
 3896POPC   GL250474  36.175  14.249   5.923
 3896POPC   C1A50475  36.325  14.505   6.310
 3896POPC   D2A50476  36.046  14.319   6.626
 3896POPC   C3A50477  36.106  14.259   7.052
 3896POPC   C4A50478  36.221  14.555   7.364
 3896POPC   C1B50479  35.828  14.513   6.184
 3896POPC   C2B50480  35.610  14.606   6.606
 3896POPC   C3B50481  35.670  14.540   7.041
 3896POPC   C4B50482  35.760  14.373   7.437
 3897POPC   NC350483  30.341  17.669   5.204
 3897POPC   PO450484  30.024  18.228   5.348
 3897POPC   GL150485  30.085  18.345   5.794
 3897POPC   GL250486  29.812  18.548   5.886
 3897POPC   C1A50487  30.067  18.256   6.232
 3897POPC   D2A50488  29.997  18.004   6.601
 3897POPC   C3A50489  30.108  18.166   7.008
 3897POPC   C4A50490  29.827  18.338   7.309
 3897POPC   C1B50491  29.588  18.783   6.150
 3897POPC   C2B50492  29.575  18.820   6.583
 3897POPC   C3B50493  29.604  18.574   6.934
 3897POPC   C4B50494  29.494  18.718   7.369
 3898POPC   NC350495   3.378  21.169   5.285
 3898POPC   PO450496   3.706  21.499   5.737
 3898POPC   GL150497   3.410  21.474   5.977
 3898POPC   GL250498   3.475  21.708   6.232
 3898POPC   C1A50499   3.321  21.229   6.315
 3898POPC   D2A50500   3.485  21.392   6.682
 3898POPC   C3A50501   3.352  21.227   7.064
 3898POPC   C4A50502   3.367  21.348   7.517
 3898POPC   C1B50503   3.902  21.566   6.376
 3898POPC   C2B50504   3.986  21.233   6.676
 3898POPC   C3B50505   3.850  21.406   7.061
 3898POPC   C4B50506   3.824  21.824   7.187
 3899POPC   NC350507  33.097   0.565   5.233
 3899POPC   PO450508  33.576   0.762   5.690
 3899POPC   GL150509  33.191   0.545   5.831
 3899POPC   GL250510  32.831   0.524   5.700
 3899POPC   C1A50511  33.083   0.512   6.256
 3899POPC   D2A50512  32.867   0.359   6.608
 3899POPC   C3A50513  33.103   0.296   6.971
 3899POPC   C4A50514  33.182   0.506   7.342
 3899POPC   C1B50515  32.648   0.706   6.103
 3899POPC   C2B50516  32.547   0.775   6.576
 3899POPC   C3B50517  32.705   0.646   7.029
 3899POPC   C4B50518  32.705   0.611   7.508
 3900POPC   NC350519  23.745  34.015   5.757
 3900POPC   PO450520  23.584  33.412   5.445
 3900POPC   GL150521  23.615  33.509   5.866
 3900POPC   GL250522  23.805  33.722   6.144
 3900POPC   C1A50523  23.520  33.327   6.251
 3900POPC   D2A50524  23.482  33.643   6.543
 3900POPC   C3A50525  23.635  33.623   6.915
 3900POPC   C4A50526  23.426  33.650   7.289
 3900POPC   C1B50527  23.652  34.106   6.391
 3900POPC   C2B50528  23.599  34.139   6.832
 3900POPC   C3B50529  23.814  34.055   7.235
 3900POPC   C4B50530  23.946  34.158   7.711
 3901POPC   NC350531  31.737   2.670   5.515
 3901POPC   PO450532  31.260   3.002   5.096
 3901POPC   GL150533  31.161   2.942   5.681
 3901POPC   GL250534  31.367   2.672   5.870
 3901POPC   C1A50535  31.308   3.041   6.219
 3901POPC   D2A50536  31.372   2.789   6.634
 3901POPC   C3A50537  31.320   2.999   7.051
 3901POPC   C4A50538  31.670   3.041   7.340
 3901POPC   C1B50539  31.132   2.545   6.249
 3901POPC   C2B50540  31.177   2.249   6.574
 3901POPC   C3B50541  31.479   2.259   6.852
 3901POPC   C4B50542  31.461   2.497   7.190
 3902POPC   NC350543  23.502   4.933   5.459
 3902POPC   PO450544  23.744   4.335   5.439
 3902POPC   GL150545  23.788   4.328   5.889
 3902POPC   GL250546  23.614   4.630   5.902
 3902POPC   C1A50547  23.593   4.052   6.236
 3902POPC   D2A50548  23.361   3.949   6.588
 3902POPC   C3A50549  23.650   3.954   6.913
 3902POPC   C4A50550  23.539   3.994   7.308
 3902POPC   C1B50551  23.570   4.533   6.336
 3902POPC   C2B50552  23.824   4.410   6.689
 3902POPC   C3B50553  23.715   4.442   7.126
 3902POPC   C4B50554  23.734   4.659   7.540
 3903POPC   NC350555  11.548  32.108   5.381
 3903POPC   PO450556  12.207  32.074   5.519
 3903POPC   GL150557  11.863  32.205   5.806
 3903POPC   GL250558  11.837  32.588   5.780
 3903POPC   C1A50559  11.959  32.236   6.253
 3903POPC   D2A50560  12.384  32.273   6.493
 3903POPC   C3A50561  12.328  32.255   6.926
 3903POPC   C4A50562  11.925  32.222   7.112
 3903POPC   C1B50563  11.976  32.727   6.204
 3903POPC   C2B50564  12.004  32.569   6.652
 3903POPC   C3B50565  11.972  32.735   7.065
 3903POPC   C4B50566  11.919  32.587   7.496
 3904POPC   NC350567  25.383  12.378   5.279
 3904POPC   PO450568  25.922  12.019   5.167
 3904POPC   GL150569  26.056  12.198   5.639
 3904POPC   GL250570  26.276  11.972   5.854
 3904POPC   C1A50571  26.020  12.326   6.119
 3904POPC   D2A50572  25.877  12.149   6.544
 3904POPC   C3A50573  25.988  12.084   6.999
 3904POPC   C4A50574  25.667  11.848   7.204
 3904POPC   C1B50575  26.211  11.841   6.277
 3904POPC   C2B50576  26.381  11.993   6.680
 3904POPC   C3B50577  26.389  11.737   7.057
 3904POPC   C4B50578  26.351  11.851   7.501
 3905POPC   NC350579   9.396   5.139   5.109
 3905POPC   PO450580   8.779   5.099   5.333
 3905POPC   GL150581   8.795   5.067   5.813
 3905POPC   GL250582   9.119   5.149   5.881
 3905POPC   C1A50583   8.774   5.193   6.257
 3905POPC   D2A50584   9.003   5.246   6.616
 3905POPC   C3A50585   8.767   5.210   6.978
 3905POPC   C4A50586   8.928   5.203   7.372
 3905POPC   C1B50587   9.249   4.942   6.254
 3905POPC   C2B50588   9.464   5.020   6.636
 3905POPC   C3B50589   9.226   4.982   7.018
 3905POPC   C4B50590   8.960   4.695   7.222
 3906POPC   NC350591  44.351  23.133   5.472
 3906POPC   PO450592  43.832  22.703   5.549
 3906POPC   GL150593  43.917  22.905   5.925
 3906POPC   GL250594  44.247  22.829   5.936
 3906POPC   C1A50595  43.955  23.170   6.298
 3906POPC   D2A50596  43.886  23.021   6.718
 3906POPC   C3A50597  43.752  23.312   7.018
 3906POPC   C4A50598  43.805  23.101   7.385
 3906POPC   C1B50599  44.099  22.685   6.358
 3906POPC   C2B50600  44.133  22.559   6.798
 3906POPC   C3B50601  44.169  22.748   7.218
 3906POPC   C4B50602  44.190  22.755   7.696
 3907POPC   NC350603  26.593  34.871   5.459
 3907POPC   PO450604  27.046  34.404   5.367
 3907POPC   GL150605  26.844  34.509   5.755
 3907POPC   GL250606  26.698  34.189   5.776
 3907POPC   C1A50607  26.745  34.818   6.096
 3907POPC   D2A50608  26.608  34.833   6.494
 3907POPC   C3A50609  26.869  34.636   6.743
 3907POPC   C4A50610  26.864  34.713   7.173
 3907POPC   C1B50611  26.636  34.339   6.210
 3907POPC   C2B50612  26.543  34.247   6.615
 3907POPC   C3B50613  26.705  34.244   7.013
 3907POPC   C4B50614  26.577  34.345   7.385
 3908POPC   NC350615  43.196  36.589   5.693
 3908POPC   PO450616  42.802  36.038   5.485
 3908POPC   GL150617  43.040  36.048   5.846
 3908POPC   GL250618  43.419  36.055   5.814
 3908POPC   C1A50619  42.971  36.184   6.251
 3908POPC   D2A50620  43.109  36.324   6.635
 3908POPC   C3A50621  42.875  36.070   6.881
 3908POPC   C4A50622  42.878  35.993   7.276
 3908POPC   C1B50623  43.492  36.132   6.295
 3908POPC   C2B50624  43.584  36.136   6.769
 3908POPC   C3B50625  43.465  36.295   7.187
 3908POPC   C4B50626  43.501  36.437   7.642
 3909POPC   NC350627  25.428  27.073   5.488
 3909POPC   PO450628  24.997  26.560   5.518
 3909POPC   GL150629  25.335  26.655   5.809
 3909POPC   GL250630  25.573  26.351   5.864
 3909POPC   C1A50631  25.262  26.915   6.206
 3909POPC   D2A50632  25.230  27.194   6.582
 3909POPC   C3A50633  25.311  27.002   6.987
 3909POPC   C4A50634  25.330  26.734   7.333
 3909POPC   C1B50635  25.630  26.562   6.216
 3909POPC   C2B50636  25.589  26.780   6.588
 3909POPC   C3B50637  25.611  26.536   6.939
 3909POPC   C4B50638  25.612  26.302   7.299
 3910POPC   NC350639  10.347  10.755   5.518
 3910POPC   PO450640  10.523  10.232   5.251
 3910POPC   GL150641  10.578  10.346   5.779
 3910POPC   GL250642  10.368  10.620   5.985
 3910POPC   C1A50643  10.709  10.423   6.273
 3910POPC   D2A50644  10.601  10.656   6.659
 3910POPC   C3A50645  10.682  10.476   7.079
 3910POPC   C4A50646  10.890  10.586   7.447
 3910POPC   C1B50647  10.065  10.776   6.262
 3910POPC   C2B50648  10.078  10.910   6.699
 3910POPC   C3B50649  10.192  10.639   7.061
 3910POPC   C4B50650  10.251  10.742   7.500
 3911POPC   NC350651  30.235  33.352   4.951
 3911POPC   PO450652  30.506  33.156   5.492
 3911POPC   GL150653  30.552  33.049   5.893
 3911POPC   GL250654  30.220  33.055   6.018
 3911POPC   C1A50655  30.820  33.204   6.247
 3911POPC   D2A50656  30.846  33.002   6.636
 3911POPC   C3A50657  30.739  33.242   6.965
 3911POPC   C4A50658  30.431  33.162   7.263
 3911POPC   C1B50659  30.393  32.953   6.377
 3911POPC   C2B50660  30.312  32.940   6.792
 3911POPC   C3B50661  30.584  32.745   7.038
 3911POPC   C4B50662  30.638  32.396   7.261
 3912POPC   NC350663  35.232  23.804   5.425
 3912POPC   PO450664  35.700  23.363   5.527
 3912POPC   GL150665  35.418  23.549   5.831
 3912POPC   GL250666  35.452  23.871   5.918
 3912POPC   C1A50667  35.236  23.540   6.251
 3912POPC   D2A50668  35.425  23.462   6.654
 3912POPC   C3A50669  35.219  23.500   7.049
 3912POPC   C4A50670  35.560  23.446   7.372
 3912POPC   C1B50671  35.579  24.134   6.252
 3912POPC   C2B50672  35.402  24.219   6.644
 3912POPC   C3B50673  35.469  23.927   6.911
 3912POPC   C4B50674  35.432  23.904   7.292
 3913POPC   NC350675  31.497  16.996   5.047
 3913POPC   PO450676  31.246  16.638   5.584
 3913POPC   GL150677  31.238  16.707   5.996
 3913POPC   GL250678  31.588  16.627   6.046
 3913POPC   C1A50679  31.344  16.905   6.388
 3913POPC   D2A50680  31.567  16.645   6.646
 3913POPC   C3A50681  31.334  16.500   6.998
 3913POPC   C4A50682  31.311  16.861   7.282
 3913POPC   C1B50683  31.867  16.362   6.314
 3913POPC   C2B50684  31.976  16.298   6.743
 3913POPC   C3B50685  31.834  16.554   7.070
 3913POPC   C4B50686  31.667  16.525   7.459
 3914POPC   NC350687  26.858  43.822   5.415
 3914POPC   PO450688  26.575  44.304   5.214
 3914POPC   GL150689  26.702  44.186   5.719
 3914POPC   GL250690  26.585  43.839   5.881
 3914POPC   C1A50691  27.056  44.033   6.012
 3914POPC   D2A50692  27.217  44.071   6.441
 3914POPC   C3A50693  27.017  44.005   6.840
 3914POPC   C4A50694  27.238  44.072   7.228
 3914POPC   C1B50695  26.719  43.849   6.353
 3914POPC   C2B50696  26.678  43.605   6.748
 3914POPC   C3B50697  26.709  43.707   7.210
 3914POPC   C4B50698  26.611  43.562   7.658
 3915POPC   NC350699  40.952   7.012   5.080
 3915POPC   PO450700  40.726   6.489   5.530
 3915POPC   GL150701  40.768   6.567   5.944
 3915POPC   GL250702  40.595   6.868   5.978
 3915POPC   C1A50703  40.661   6.424   6.336
 3915POPC   D2A50704  40.452   6.583   6.701
 3915POPC   C3A50705  40.691   6.412   7.024
 3915POPC   C4A50706  40.899   6.134   7.269
 3915POPC   C1B50707  40.978   7.033   6.220
 3915POPC   C2B50708  41.146   6.990   6.611
 3915POPC   C3B50709  40.929   6.893   6.959
 3915POPC   C4B50710  41.143   6.605   7.193
 3916POPC   NC350711  17.834  29.394   5.429
 3916POPC   PO450712  17.568  28.755   5.303
 3916POPC   GL150713  17.628  29.008   5.671
 3916POPC   GL250714  17.938  28.921   5.774
 3916POPC   C1A50715  17.676  29.320   6.060
 3916POPC   D2A50716  17.585  29.207   6.503
 3916POPC   C3A50717  17.669  29.336   6.933
 3916POPC   C4A50718  17.280  29.460   7.125
 3916POPC   C1B50719  17.606  28.817   6.129
 3916POPC   C2B50720  17.348  28.743   6.476
 3916POPC   C3B50721  17.180  28.917   6.865
 3916POPC   C4B50722  17.438  28.959   7.225
 3917POPC   NC350723  23.848  25.638   5.328
 3917POPC   PO450724  23.576  25.131   5.486
 3917POPC   GL150725  23.646  25.175   5.916
 3917POPC   GL250726  24.006  25.174   5.867
 3917POPC   C1A50727  23.822  25.176   6.352
 3917POPC   D2A50728  23.839  25.273   6.790
 3917POPC   C3A50729  23.562  25.358   7.119
 3917POPC   C4A50730  23.558  25.783   7.246
 3917POPC   C1B50731  24.260  24.959   6.225
 3917POPC   C2B50732  24.233  24.961   6.696
 3917POPC   C3B50733  24.167  25.073   7.162
 3917POPC   C4B50734  24.217  25.231   7.596
 3918POPC   NC350735   7.763   9.187   5.444
 3918POPC   PO450736   8.267   8.646   5.492
 3918POPC   GL150737   8.190   8.809   5.891
 3918POPC   GL250738   8.108   9.121   5.810
 3918POPC   C1A50739   8.147   8.754   6.343
 3918POPC   D2A50740   7.941   8.571   6.723
 3918POPC   C3A50741   7.910   8.887   7.047
 3918POPC   C4A50742   8.297   9.097   7.151
 3918POPC   C1B50743   7.789   9.211   6.130
 3918POPC   C2B50744   7.803   9.118   6.567
 3918POPC   C3B50745   7.976   9.408   6.855
 3918POPC   C4B50746   7.909   9.453   7.271
 3919POPC   NC350747   4.922  32.051   5.479
 3919POPC   PO450748   5.074  31.401   5.462
 3919POPC   GL150749   5.052  31.666   5.813
 3919POPC   GL250750   5.314  31.766   5.960
 3919POPC   C1A50751   4.903  31.664   6.270
 3919POPC   D2A50752   4.957  31.318   6.593
 3919POPC   C3A50753   5.003  31.407   7.052
 3919POPC   C4A50754   4.817  31.739   7.303
 3919POPC   C1B50755   5.313  31.378   6.198
 3919POPC   C2B50756   5.456  31.376   6.638
 3919POPC   C3B50757   5.518  31.280   7.063
 3919POPC   C4B50758   5.349  31.408   7.445
 3920POPC   NC350759  20.920  43.453   5.638
 3920POPC   PO450760  21.477  43.100   5.528
 3920POPC   GL150761  21.638  43.200   5.945
 3920POPC   GL250762  21.318  43.295   5.974
 3920POPC   C1A50763  21.606  43.390   6.377
 3920POPC   D2A50764  21.752  43.584   6.743
 3920POPC   C3A50765  21.570  43.450   7.097
 3920POPC   C4A50766  21.623  43.017   7.184
 3920POPC   C1B50767  21.283  42.932   6.264
 3920POPC   C2B50768  21.297  42.859   6.725
 3920POPC   C3B50769  21.151  43.172   7.036
 3920POPC   C4B50770  21.251  43.229   7.490
 3921POPC   NC350771  33.926   0.932   5.390
 3921POPC   PO450772  33.588   1.567   5.536
 3921POPC   GL150773  33.850   1.397   5.891
 3921POPC   GL250774  33.974   1.036   5.898
 3921POPC   C1A50775  33.874   1.352   6.365
 3921POPC   D2A50776  33.825   1.035   6.750
 3921POPC   C3A50777  33.824   1.240   7.141
 3921POPC   C4A50778  34.115   1.391   7.410
 3921POPC   C1B50779  33.770   0.849   6.283
 3921POPC   C2B50780  33.498   0.641   6.568
 3921POPC   C3B50781  33.535   0.628   6.988
 3921POPC   C4B50782  33.553   0.881   7.371
 3922POPC   NC350783  10.010   4.103   5.524
 3922POPC   PO450784   9.963   4.796   5.543
 3922POPC   GL150785   9.761   4.603   5.888
 3922POPC   GL250786   9.591   4.279   5.802
 3922POPC   C1A50787   9.735   4.688   6.328
 3922POPC   D2A50788   9.944   4.730   6.709
 3922POPC   C3A50789   9.752   4.470   7.007
 3922POPC   C4A50790   9.661   4.615   7.412
 3922POPC   C1B50791   9.823   4.195   6.207
 3922POPC   C2B50792  10.169   4.322   6.505
 3922POPC   C3B50793  10.238   4.291   6.952
 3922POPC   C4B50794  10.071   4.255   7.390
 3923POPC   NC350795  35.453   5.505   5.417
 3923POPC   PO450796  35.237   6.137   5.294
 3923POPC   GL150797  35.252   5.951   5.703
 3923POPC   GL250798  35.582   6.029   5.804
 3923POPC   C1A50799  35.164   5.940   6.157
 3923POPC   D2A50800  35.356   6.040   6.570
 3923POPC   C3A50801  35.231   5.942   6.982
 3923POPC   C4A50802  35.341   5.752   7.357
 3923POPC   C1B50803  35.828   6.113   6.177
 3923POPC   C2B50804  35.860   5.988   6.588
 3923POPC   C3B50805  35.764   5.818   6.988
 3923POPC   C4B50806  36.040   5.831   7.351
 3924POPC   NC350807  15.340   2.364   5.765
 3924POPC   PO450808  15.363   1.777   5.370
 3924POPC   GL150809  15.361   1.851   5.843
 3924POPC   GL250810  15.005   1.974   5.868
 3924POPC   C1A50811  15.418   1.740   6.317
 3924POPC   D2A50812  15.129   1.779   6.684
 3924POPC   C3A50813  15.212   1.719   7.137
 3924POPC   C4A50814  14.985   1.905   7.475
 3924POPC   C1B50815  15.050   2.093   6.278
 3924POPC   C2B50816  14.953   2.306   6.627
 3924POPC   C3B50817  15.063   2.186   7.004
 3924POPC   C4B50818  15.262   2.352   7.345
 3925POPC   NC350819  37.319  29.995   5.459
 3925POPC   PO450820  37.936  29.834   5.421
 3925POPC   GL150821  37.764  30.043   5.788
 3925POPC   GL250822  37.664  29.712   5.863
 3925POPC   C1A50823  37.802  29.969   6.257
 3925POPC   D2A50824  37.734  30.140   6.633
 3925POPC   C3A50825  37.723  29.973   7.031
 3925POPC   C4A50826  37.748  30.323   7.296
 3925POPC   C1B50827  37.535  29.511   6.252
 3925POPC   C2B50828  37.523  29.638   6.676
 3925POPC   C3B50829  37.549  29.466   7.072
 3925POPC   C4B50830  37.685  29.642   7.464
 3926POPC   NC350831  10.147  11.926   4.986
 3926POPC   PO450832   9.655  11.750   5.456
 3926POPC   GL150833   9.553  11.991   5.813
 3926POPC   GL250834   9.869  12.121   5.856
 3926POPC   C1A50835   9.535  12.109   6.242
 3926POPC   D2A50836   9.492  11.949   6.630
 3926POPC   C3A50837   9.727  11.838   6.976
 3926POPC   C4A50838   9.466  11.886   7.305
 3926POPC   C1B50839   9.988  11.904   6.246
 3926POPC   C2B50840   9.994  12.156   6.616
 3926POPC   C3B50841   9.891  12.305   7.026
 3926POPC   C4B50842   9.952  12.061   7.430
 3927POPC   NC350843   1.798  39.095   5.545
 3927POPC   PO450844   2.388  39.400   5.706
 3927POPC   GL150845   2.039  39.322   5.931
 3927POPC   GL250846   1.887  39.586   5.737
 3927POPC   C1A50847   1.849  39.243   6.334
 3927POPC   D2A50848   1.907  39.181   6.789
 3927POPC   C3A50849   2.166  39.275   7.110
 3927POPC   C4A50850   2.105  39.106   7.503
 3927POPC   C1B50851   1.700  39.706   6.095
 3927POPC   C2B50852   1.662  39.684   6.515
 3927POPC   C3B50853   1.668  39.651   6.926
 3927POPC   C4B50854   1.703  39.447   7.314
 3928POPC   NC350855  34.628  27.111   5.450
 3928POPC   PO450856  34.668  26.414   5.451
 3928POPC   GL150857  34.751  26.749   5.783
 3928POPC   GL250858  34.426  26.948   5.893
 3928POPC   C1A50859  34.856  26.918   6.198
 3928POPC   D2A50860  34.786  26.599   6.494
 3928POPC   C3A50861  34.847  26.681   6.910
 3928POPC   C4A50862  34.682  26.614   7.299
 3928POPC   C1B50863  34.341  26.907   6.338
 3928POPC   C2B50864  34.569  27.081   6.702
 3928POPC   C3B50865  34.451  27.060   7.148
 3928POPC   C4B50866  34.126  27.273   7.416
 3929POPC   NC350867  12.595  11.066   5.429
 3929POPC   PO450868  13.260  11.212   5.327
 3929POPC   GL150869  12.949  11.385   5.689
 3929POPC   GL250870  12.739  11.697   5.740
 3929POPC   C1A50871  13.019  11.558   6.139
 3929POPC   D2A50872  13.046  11.293   6.518
 3929POPC   C3A50873  12.973  11.253   6.981
 3929POPC   C4A50874  13.287  11.464   7.227
 3929POPC   C1B50875  12.485  11.460   6.081
 3929POPC   C2B50876  12.315  11.293   6.489
 3929POPC   C3B50877  12.407  11.383   6.914
 3929POPC   C4B50878  12.554  11.272   7.307
 3930POPC   NC350879  42.399  25.503   5.065
 3930POPC   PO450880  42.380  26.056   5.427
 3930POPC   GL150881  42.328  26.026   5.842
 3930POPC   GL250882  42.090  26.242   5.987
 3930POPC   C1A50883  42.493  25.826   6.187
 3930POPC   D2A50884  42.445  25.639   6.583
 3930POPC   C3A50885  42.450  25.846   6.995
 3930POPC   C4A50886  42.617  25.637   7.358
 3930POPC   C1B50887  41.989  25.939   6.289
 3930POPC   C2B50888  42.014  25.883   6.715
 3930POPC   C3B50889  41.968  25.645   7.057
 3930POPC   C4B50890  41.954  25.927   7.357
 3931POPC   NC350891  13.168  21.462   5.320
 3931POPC   PO450892  13.849  21.555   5.471
 3931POPC   GL150893  13.508  21.559   5.752
 3931POPC   GL250894  13.472  21.208   5.782
 3931POPC   C1A50895  13.507  21.673   6.206
 3931POPC   D2A50896  13.436  21.345   6.506
 3931POPC   C3A50897  13.378  21.507   6.929
 3931POPC   C4A50898  13.713  21.605   7.257
 3931POPC   C1B50899  13.802  21.252   6.118
 3931POPC   C2B50900  13.899  21.119   6.554
 3931POPC   C3B50901  13.862  21.155   7.002
 3931POPC   C4B50902  13.886  21.081   7.433
 3932POPC   NC350903  10.615  36.950   5.329
 3932POPC   PO450904   9.969  36.961   5.458
 3932POPC   GL150905  10.315  37.080   5.741
 3932POPC   GL250906  10.538  36.760   5.847
 3932POPC   C1A50907  10.512  37.167   6.148
 3932POPC   D2A50908  10.416  36.980   6.540
 3932POPC   C3A50909  10.619  37.090   6.912
 3932POPC   C4A50910  10.395  36.988   7.268
 3932POPC   C1B50911  10.788  36.734   6.282
 3932POPC   C2B50912  10.812  36.626   6.757
 3932POPC   C3B50913  10.898  36.747   7.207
 3932POPC   C4B50914  11.005  36.565   7.642
 3933POPC   NC350915   9.269   4.149   5.056
 3933POPC   PO450916   8.720   4.257   5.518
 3933POPC   GL150917   8.916   4.442   5.875
 3933POPC   GL250918   9.209   4.636   5.814
 3933POPC   C1A50919   8.832   4.289   6.296
 3933POPC   D2A50920   9.005   4.075   6.645
 3933POPC   C3A50921   8.775   4.204   6.996
 3933POPC   C4A50922   8.836   4.206   7.431
 3933POPC   C1B50923   9.314   4.425   6.233
 3933POPC   C2B50924   9.299   4.509   6.716
 3933POPC   C3B50925   9.289   4.301   7.165
 3933POPC   C4B50926   9.219   4.457   7.604
 3934POPC   NC350927  28.544   0.473   5.547
 3934POPC   PO450928  27.807   0.525   5.489
 3934POPC   GL150929  28.102   0.523   5.887
 3934POPC   GL250930  28.048   0.234   6.100
 3934POPC   C1A50931  28.504   0.443   6.208
 3934POPC   D2A50932  28.558   0.195   6.562
 3934POPC   C3A50933  28.463   0.419   6.902
 3934POPC   C4A50934  28.502   0.514   7.330
 3934POPC   C1B50935  28.069   0.542   6.431
 3934POPC   C2B50936  27.956   0.488   6.809
 3934POPC   C3B50937  28.065   0.271   7.164
 3934POPC   C4B50938  28.077   0.435   7.594
 3935POPC   NC350939  38.828  13.425   5.321
 3935POPC   PO450940  38.356  13.895   5.507
 3935POPC   GL150941  38.441  13.839   5.918
 3935POPC   GL250942  38.802  13.822   5.913
 3935POPC   C1A50943  38.480  13.964   6.349
 3935POPC   D2A50944  38.708  13.870   6.727
 3935POPC   C3A50945  38.393  13.957   7.022
 3935POPC   C4A50946  38.169  13.801   7.352
 3935POPC   C1B50947  38.671  13.505   6.242
 3935POPC   C2B50948  38.282  13.492   6.524
 3935POPC   C3B50949  38.220  13.419   6.965
 3935POPC   C4B50950  38.547  13.461   7.277
 3936POPC   NC350951  40.206   4.641   5.546
 3936POPC   PO450952  40.126   5.294   5.442
 3936POPC   GL150953  40.077   5.075   5.800
 3936POPC   GL250954  40.406   4.960   5.873
 3936POPC   C1A50955  39.926   4.974   6.190
 3936POPC   D2A50956  40.049   5.133   6.576
 3936POPC   C3A50957  39.774   5.091   6.913
 3936POPC   C4A50958  39.634   5.324   7.250
 3936POPC   C1B50959  40.417   4.833   6.293
 3936POPC   C2B50960  40.330   4.724   6.714
 3936POPC   C3B50961  40.270   4.941   7.077
 3936POPC   C4B50962  40.147   5.296   7.294
 3937POPC   NC350963  21.819  23.995   5.462
 3937POPC   PO450964  21.202  23.948   5.395
 3937POPC   GL150965  21.430  23.706   5.722
 3937POPC   GL250966  21.713  23.468   5.634
 3937POPC   C1A50967  21.403  23.646   6.169
 3937POPC   D2A50968  21.241  23.607   6.580
 3937POPC   C3A50969  21.266  23.859   6.930
 3937POPC   C4A50970  21.156  23.854   7.341
 3937POPC   C1B50971  21.789  23.329   6.078
 3937POPC   C2B50972  21.601  23.260   6.484
 3937POPC   C3B50973  21.669  23.509   6.847
 3937POPC   C4B50974  21.639  23.665   7.259
 3938POPC   NC350975  11.950  39.527   5.655
 3938POPC   PO450976  12.296  39.022   5.436
 3938POPC   GL150977  12.229  39.109   5.890
 3938POPC   GL250978  12.462  39.355   6.032
 3938POPC   C1A50979  11.968  39.291   6.257
 3938POPC   D2A50980  11.662  39.401   6.570
 3938POPC   C3A50981  11.794  39.409   6.997
 3938POPC   C4A50982  12.119  39.515   7.266
 3938POPC   C1B50983  12.394  39.040   6.385
 3938POPC   C2B50984  12.091  39.039   6.718
 3938POPC   C3B50985  12.006  38.909   7.132
 3938POPC   C4B50986  12.165  39.007   7.530
 3939POPC   NC350987  38.721  11.188   5.078
 3939POPC   PO450988  38.217  11.439   5.228
 3939POPC   GL150989  38.288  11.339   5.707
 3939POPC   GL250990  38.609  11.447   5.843
 3939POPC   C1A50991  38.309  11.192   6.179
 3939POPC   D2A50992  38.647  11.158   6.542
 3939POPC   C3A50993  38.631  11.276   6.975
 3939POPC   C4A50994  38.735  11.042   7.323
 3939POPC   C1B50995  38.587  11.601   6.290
 3939POPC   C2B50996  38.355  11.629   6.705
 3939POPC   C3B50997  38.557  11.779   7.077
 3939POPC   C4B50998  38.862  11.591   7.346
 3940POPC   NC350999  42.846  39.931   5.451
 3940POPC   PO451000  43.520  39.997   5.482
 3940POPC   GL151001  43.463  40.123   5.902
 3940POPC   GL251002  43.114  40.142   5.862
 3940POPC   C1A51003  43.339  40.039   6.340
 3940POPC   D2A51004  43.241  39.952   6.764
 3940POPC   C3A51005  43.251  40.304   7.050
 3940POPC   C4A51006  43.299  40.266   7.479
 3940POPC   C1B51007  42.910  39.810   6.123
 3940POPC   C2B51008  42.735  39.902   6.531
 3940POPC   C3B51009  42.782  40.100   6.927
 3940POPC   C4B51010  42.973  39.928   7.245
 3941POPC   NC351011  16.788   8.151   5.541
 3941POPC   PO451012  16.397   8.761   5.528
 3941POPC   GL151013  16.634   8.562   5.849
 3941POPC   GL251014  16.994   8.528   5.847
 3941POPC   C1A51015  16.556   8.283   6.169
 3941POPC   D2A51016  16.413   8.121   6.550
 3941POPC   C3A51017  16.757   8.139   6.875
 3941POPC   C4A51018  16.859   8.058   7.297
 3941POPC   C1B51019  16.935   8.624   6.294
 3941POPC   C2B51020  17.070   8.511   6.724
 3941POPC   C3B51021  17.115   8.544   7.168
 3941POPC   C4B51022  17.279   8.293   7.518
 3942POPC   NC351023   6.082  36.470   5.529
 3942POPC   PO451024   5.867  35.843   5.350
 3942POPC   GL151025   6.097  35.967   5.724
 3942POPC   GL251026   5.776  36.067   5.835
 3942POPC   C1A51027   6.219  35.982   6.149
 3942POPC   D2A51028   5.862  35.881   6.399
 3942POPC   C3A51029   5.896  35.908   6.818
 3942POPC   C4A51030   5.770  36.005   7.242
 3942POPC   C1B51031   5.848  36.342   6.161
 3942POPC   C2B51032   6.089  36.319   6.532
 3942POPC   C3B51033   6.017  36.375   6.956
 3942POPC   C4B51034   5.726  36.526   7.239
 3943POPC   NC351035  28.258  33.274   5.152
 3943POPC   PO451036  28.762  33.300   5.565
 3943POPC   GL151037  28.436  33.244   5.899
 3943POPC   GL251038  28.160  32.969   5.827
 3943POPC   C1A51039  28.465  33.291   6.373
 3943POPC   D2A51040  28.317  33.371   6.802
 3943POPC   C3A51041  28.623  33.260   7.144
 3943POPC   C4A51042  28.875  32.973   7.398
 3943POPC   C1B51043  27.996  33.121   6.213
 3943POPC   C2B51044  28.082  32.992   6.578
 3943POPC   C3B51045  28.233  32.879   6.999
 3943POPC   C4B51046  27.941  32.777   7.297
 3944POPC   NC351047  25.323  37.491   5.467
 3944POPC   PO451048  25.667  36.951   5.403
 3944POPC   GL151049  25.510  37.061   5.774
 3944POPC   GL251050  25.727  36.754   5.871
 3944POPC   C1A51051  25.194  37.100   6.137
 3944POPC   D2A51052  24.981  36.880   6.492
 3944POPC   C3A51053  25.142  36.826   6.904
 3944POPC   C4A51054  25.112  36.915   7.344
 3944POPC   C1B51055  25.696  37.024   6.232
 3944POPC   C2B51056  25.506  37.098   6.608
 3944POPC   C3B51057  25.642  36.952   7.006
 3944POPC   C4B51058  25.512  36.611   7.249
 3945POPC   NC351059   2.015   8.162   5.427
 3945POPC   PO451060   1.561   8.701   5.441
 3945POPC   GL151061   1.882   8.517   5.783
 3945POPC   GL251062   1.994   8.131   5.916
 3945POPC   C1A51063   2.199   8.545   6.118
 3945POPC   D2A51064   2.276   8.218   6.449
 3945POPC   C3A51065   2.359   8.370   6.862
 3945POPC   C4A51066   2.151   8.298   7.264
 3945POPC   C1B51067   1.767   8.265   6.234
 3945POPC   C2B51068   1.733   8.079   6.582
 3945POPC   C3B51069   1.753   8.089   6.978
 3945POPC   C4B51070   1.798   7.758   7.290
 3946POPC   NC351071   4.042  31.897   5.493
 3946POPC   PO451072   4.463  32.325   5.235
 3946POPC   GL151073   4.367  32.430   5.729
 3946POPC   GL251074   4.069  32.271   5.830
 3946POPC   C1A51075   4.472  32.310   6.186
 3946POPC   D2A51076   4.566  32.568   6.523
 3946POPC   C3A51077   4.599  32.594   6.943
 3946POPC   C4A51078   4.374  32.301   7.170
 3946POPC   C1B51079   4.079  31.981   6.194
 3946POPC   C2B51080   4.159  32.074   6.628
 3946POPC   C3B51081   3.968  31.995   7.027
 3946POPC   C4B51082   4.089  31.974   7.483
 3947POPC   NC351083  39.069  37.921   5.540
 3947POPC   PO451084  39.182  37.311   5.474
 3947POPC   GL151085  39.058  37.504   5.878
 3947POPC   GL251086  39.367  37.681   5.903
 3947POPC   C1A51087  39.089  37.486   6.364
 3947POPC   D2A51088  39.364  37.606   6.733
 3947POPC   C3A51089  39.231  37.535   7.156
 3947POPC   C4A51090  39.080  37.682   7.586
 3947POPC   C1B51091  39.312  37.938   6.246
 3947POPC   C2B51092  39.153  38.062   6.617
 3947POPC   C3B51093  39.253  38.035   7.064
 3947POPC   C4B51094  39.477  37.966   7.452
 3948POPC   NC351095   2.147  40.601   5.549
 3948POPC   PO451096   1.829  41.174   5.208
 3948POPC   GL151097   1.874  41.027   5.661
 3948POPC   GL251098   1.709  40.725   5.771
 3948POPC   C1A51099   2.028  40.998   6.118
 3948POPC   D2A51100   1.827  41.086   6.561
 3948POPC   C3A51101   2.023  41.083   6.989
 3948POPC   C4A51102   1.973  40.956   7.430
 3948POPC   C1B51103   1.620  40.717   6.231
 3948POPC   C2B51104   1.840  40.519   6.586
 3948POPC   C3B51105   1.974  40.567   7.007
 3948POPC   C4B51106   1.864  40.460   7.413
 3949POPC   NC351107   0.225  20.120   5.299
 3949POPC   PO451108   0.778  19.765   5.500
 3949POPC   GL151109   0.382  19.816   5.702
 3949POPC   GL251110   0.271  19.494   5.730
 3949POPC   C1A51111   0.343  19.828   6.149
 3949POPC   D2A51112   0.456  19.654   6.529
 3949POPC   C3A51113   0.476  19.900   6.897
 3949POPC   C4A51114   0.737  19.798   7.247
 3949POPC   C1B51115  44.992  19.454   6.092
 3949POPC   C2B51116   0.033  19.368   6.526
 3949POPC   C3B51117   0.067  19.575   6.945
 3949POPC   C4B51118   0.254  19.738   7.326
 3950POPC   NC351119  35.241   4.640   5.187
 3950POPC   PO451120  35.653   4.154   5.206
 3950POPC   GL151121  35.511   4.236   5.707
 3950POPC   GL251122  35.172   4.342   5.855
 3950POPC   C1A51123  35.527   4.398   6.200
 3950POPC   D2A51124  35.407   4.540   6.619
 3950POPC   C3A51125  35.626   4.379   6.963
 3950POPC   C4A51126  35.709   4.218   7.366
 3950POPC   C1B51127  35.031   4.599   6.276
 3950POPC   C2B51128  34.897   4.478   6.741
 3950POPC   C3B51129  35.123   4.356   7.143
 3950POPC   C4B51130  35.393   4.619   7.405
 3951POPC   NC351131  12.369  44.961   5.240
 3951POPC   PO451132  12.950  44.595   5.335
 3951POPC   GL151133  12.707  44.477   5.698
 3951POPC   GL251134  12.548  44.118   5.704
 3951POPC   C1A51135  12.866  44.635   6.079
 3951POPC   D2A51136  13.165  44.672   6.421
 3951POPC   C3A51137  12.967  44.682   6.807
 3951POPC   C4A51138  12.863  44.780   7.214
 3951POPC   C1B51139  12.618  43.996   6.107
 3951POPC   C2B51140  12.683  44.136   6.527
 3951POPC   C3B51141  12.683  44.265   6.966
 3951POPC   C4B51142  12.660  44.373   7.434
 3952POPC   NC351143   1.606  37.695   5.453
 3952POPC   PO451144   0.976  37.460   5.351
 3952POPC   GL151145   1.154  37.655   5.761
 3952POPC   GL251146   0.939  37.928   5.884
 3952POPC   C1A51147   1.342  37.821   6.195
 3952POPC   D2A51148   1.193  37.958   6.624
 3952POPC   C3A51149   1.411  37.880   6.998
 3952POPC   C4A51150   1.511  37.529   7.280
 3952POPC   C1B51151   0.878  37.578   6.190
 3952POPC   C2B51152   1.129  37.449   6.561
 3952POPC   C3B51153   1.051  37.523   6.998
 3952POPC   C4B51154   0.749  37.664   7.291
 3953POPC   NC351155   0.619  19.358   5.368
 3953POPC   PO451156   0.192  18.853   5.358
 3953POPC   GL151157   0.461  19.020   5.728
 3953POPC   GL251158   0.781  18.859   5.753
 3953POPC   C1A51159   0.475  19.271   6.152
 3953POPC   D2A51160   0.545  19.119   6.578
 3953POPC   C3A51161   0.545  19.362   6.940
 3953POPC   C4A51162   0.438  19.185   7.290
 3953POPC   C1B51163   0.569  18.694   6.139
 3953POPC   C2B51164   0.638  18.601   6.568
 3953POPC   C3B51165   0.449  18.723   6.958
 3953POPC   C4B51166   0.466  18.612   7.390
 3954POPC   NC351167  23.678   9.580   5.178
 3954POPC   PO451168  23.999  10.124   5.429
 3954POPC   GL151169  23.732   9.960   5.740
 3954POPC   GL251170  23.683   9.595   5.702
 3954POPC   C1A51171  23.737   9.871   6.194
 3954POPC   D2A51172  23.947   9.835   6.611
 3954POPC   C3A51173  23.794  10.059   6.966
 3954POPC   C4A51174  23.823  10.019   7.388
 3954POPC   C1B51175  23.397   9.500   6.048
 3954POPC   C2B51176  23.486   9.498   6.484
 3954POPC   C3B51177  23.384   9.431   6.919
 3954POPC   C4B51178  23.781   9.548   7.080
 3955POPC   NC351179  15.915  33.487   5.559
 3955POPC   PO451180  16.232  34.076   5.382
 3955POPC   GL151181  16.075  33.944   5.778
 3955POPC   GL251182  16.224  34.166   6.028
 3955POPC   C1A51183  15.821  33.890   6.147
 3955POPC   D2A51184  15.918  33.995   6.565
 3955POPC   C3A51185  15.704  33.710   6.840
 3955POPC   C4A51186  15.766  33.656   7.271
 3955POPC   C1B51187  16.293  33.753   6.269
 3955POPC   C2B51188  16.141  33.547   6.633
 3955POPC   C3B51189  16.193  33.767   7.040
 3955POPC   C4B51190  16.173  33.906   7.495
 3956POPC   NC351191  33.301  22.892   5.581
 3956POPC   PO451192  32.746  23.295   5.447
 3956POPC   GL151193  32.794  22.994   5.818
 3956POPC   GL251194  32.482  22.824   5.923
 3956POPC   C1A51195  33.051  22.977   6.202
 3956POPC   D2A51196  33.056  23.247   6.563
 3956POPC   C3A51197  33.146  23.045   6.935
 3956POPC   C4A51198  33.156  22.975   7.355
 3956POPC   C1B51199  32.615  22.686   6.269
 3956POPC   C2B51200  32.821  22.758   6.666
 3956POPC   C3B51201  32.706  22.821   7.105
 3956POPC   C4B51202  32.830  22.599   7.497
 3957POPC   NC351203  25.412  18.778   5.435
 3957POPC   PO451204  25.055  19.309   5.322
 3957POPC   GL151205  25.269  19.190   5.740
 3957POPC   GL251206  25.128  18.912   5.824
 3957POPC   C1A51207  25.350  19.044   6.228
 3957POPC   D2A51208  25.605  18.950   6.599
 3957POPC   C3A51209  25.473  19.175   6.964
 3957POPC   C4A51210  25.123  19.333   7.195
 3957POPC   C1B51211  24.998  18.680   6.165
 3957POPC   C2B51212  25.006  18.813   6.588
 3957POPC   C3B51213  25.286  18.694   6.910
 3957POPC   C4B51214  25.342  18.785   7.328
 3958POPC   NC351215  20.577   3.708   5.337
 3958POPC   PO451216  20.482   3.066   5.406
 3958POPC   GL151217  20.587   3.409   5.779
 3958POPC   GL251218  20.652   3.798   5.822
 3958POPC   C1A51219  20.707   3.458   6.207
 3958POPC   D2A51220  20.564   3.224   6.547
 3958POPC   C3A51221  20.580   3.356   6.937
 3958POPC   C4A51222  20.641   3.500   7.350
 3958POPC   C1B51223  20.368   3.837   6.163
 3958POPC   C2B51224  20.440   3.735   6.588
 3958POPC   C3B51225  20.477   3.854   7.019
 3958POPC   C4B51226  20.624   4.018   7.430
 3959POPC   NC351227   1.295  26.407   5.339
 3959POPC   PO451228   1.202  25.717   5.242
 3959POPC   GL151229   1.370  25.943   5.606
 3959POPC   GL251230   1.103  25.909   5.813
 3959POPC   C1A51231   1.522  26.074   6.044
 3959POPC   D2A51232   1.503  26.027   6.520
 3959POPC   C3A51233   1.173  26.309   6.728
 3959POPC   C4A51234   1.152  26.421   7.163
 3959POPC   C1B51235   1.056  26.062   6.264
 3959POPC   C2B51236   1.066  25.791   6.635
 3959POPC   C3B51237   1.279  25.902   7.013
 3959POPC   C4B51238   1.080  25.866   7.425
 3960POPC   NC351239  39.734  13.642   5.396
 3960POPC   PO451240  39.117  13.823   5.292
 3960POPC   GL151241  39.286  13.633   5.700
 3960POPC   GL251242  39.069  13.393   5.827
 3960POPC   C1A51243  39.295  13.771   6.159
 3960POPC   D2A51244  39.280  13.932   6.598
 3960POPC   C3A51245  39.352  13.644   6.926
 3960POPC   C4A51246  39.006  13.716   7.166
 3960POPC   C1B51247  39.166  13.285   6.269
 3960POPC   C2B51248  38.991  13.397   6.654
 3960POPC   C3B51249  39.041  13.205   7.041
 3960POPC   C4B51250  39.286  13.340   7.365
 3961POPC   NC351251  26.818  13.951   5.391
 3961POPC   PO451252  26.574  13.335   5.468
 3961POPC   GL151253  26.759  13.491   5.823
 3961POPC   GL251254  26.932  13.813   5.863
 3961POPC   C1A51255  26.594  13.648   6.203
 3961POPC   D2A51256  26.728  13.637   6.605
 3961POPC   C3A51257  26.477  13.629   6.955
 3961POPC   C4A51258  26.678  13.663   7.358
 3961POPC   C1B51259  27.124  13.755   6.270
 3961POPC   C2B51260  27.230  13.573   6.683
 3961POPC   C3B51261  27.131  13.736   7.068
 3961POPC   C4B51262  27.033  14.077   7.331
 3962POPC   NC351263   9.255  43.653   5.408
 3962POPC   PO451264   9.800  43.998   5.275
 3962POPC   GL151265   9.858  43.795   5.664
 3962POPC   GL251266  10.162  43.865   5.838
 3962POPC   C1A51267   9.714  43.675   6.106
 3962POPC   D2A51268   9.608  43.905   6.506
 3962POPC   C3A51269   9.576  43.665   6.896
 3962POPC   C4A51270   9.829  43.779   7.262
 3962POPC   C1B51271  10.071  44.023   6.290
 3962POPC   C2B51272  10.048  43.935   6.777
 3962POPC   C3B51273  10.235  44.104   7.148
 3962POPC   C4B51274  10.145  44.166   7.592
 3963POPC   NC351275   1.990   6.083   5.368
 3963POPC   PO451276   1.674   5.603   5.426
 3963POPC   GL151277   1.920   5.781   5.778
 3963POPC   GL251278   2.282   5.722   5.755
 3963POPC   C1A51279   1.814   5.882   6.211
 3963POPC   D2A51280   1.994   5.866   6.618
 3963POPC   C3A51281   1.740   5.706   6.952
 3963POPC   C4A51282   1.792   6.015   7.258
 3963POPC   C1B51283   2.187   5.530   6.145
 3963POPC   C2B51284   1.917   5.374   6.479
 3963POPC   C3B51285   2.147   5.422   6.845
 3963POPC   C4B51286   2.194   5.678   7.206
 3964POPC   NC351287   4.157  38.911   5.299
 3964POPC   PO451288   4.470  39.513   5.276
 3964POPC   GL151289   4.344  39.180   5.681
 3964POPC   GL251290   4.033  39.234   5.878
 3964POPC   C1A51291   4.440  39.111   6.154
 3964POPC   D2A51292   4.263  39.306   6.538
 3964POPC   C3A51293   4.263  39.109   6.924
 3964POPC   C4A51294   4.393  39.210   7.333
 3964POPC   C1B51295   3.874  39.480   6.236
 3964POPC   C2B51296   3.856  39.604   6.708
 3964POPC   C3B51297   4.005  39.499   7.164
 3964POPC   C4B51298   4.027  39.378   7.639
 3965POPC   NC351299  25.567   1.678   5.482
 3965POPC   PO451300  26.114   1.275   5.316
 3965POPC   GL151301  26.082   1.247   5.811
 3965POPC   GL251302  26.342   1.488   5.877
 3965POPC   C1A51303  25.859   1.149   6.266
 3965POPC   D2A51304  25.867   0.874   6.674
 3965POPC   C3A51305  26.048   1.032   7.073
 3965POPC   C4A51306  25.876   1.433   7.304
 3965POPC   C1B51307  26.316   1.361   6.300
 3965POPC   C2B51308  26.131   1.390   6.721
 3965POPC   C3B51309  26.353   1.426   7.136
 3965POPC   C4B51310  26.353   1.421   7.592
 3966POPC   NC351311  41.236   6.165   5.460
 3966POPC   PO451312  40.797   5.583   5.287
 3966POPC   GL151313  40.799   5.860   5.700
 3966POPC   GL251314  41.013   6.117   5.905
 3966POPC   C1A51315  40.729   5.792   6.159
 3966POPC   D2A51316  40.787   5.660   6.586
 3966POPC   C3A51317  40.586   5.864   6.959
 3966POPC   C4A51318  40.561   5.782   7.414
 3966POPC   C1B51319  41.215   5.892   6.268
 3966POPC   C2B51320  41.226   5.890   6.696
 3966POPC   C3B51321  41.077   5.677   7.083
 3966POPC   C4B51322  41.143   5.764   7.542
 3967POPC   NC351323   3.486   0.907   5.421
 3967POPC   PO451324   3.212   1.518   5.523
 3967POPC   GL151325   3.485   1.329   5.874
 3967POPC   GL251326   3.681   1.037   5.878
 3967POPC   C1A51327   3.468   1.151   6.309
 3967POPC   D2A51328   3.549   1.320   6.685
 3967POPC   C3A51329   3.309   1.287   7.005
 3967POPC   C4A51330   3.117   0.964   7.177
 3967POPC   C1B51331   3.928   0.902   6.241
 3967POPC   C2B51332   3.842   0.889   6.658
 3967POPC   C3B51333   3.634   0.900   7.079
 3967POPC   C4B51334   3.830   0.929   7.480
 3968POPC   NC351335   5.837  37.392   5.246
 3968POPC   PO451336   6.250  36.909   5.430
 3968POPC   GL151337   6.013  36.880   5.818
 3968POPC   GL251338   5.757  37.101   5.764
 3968POPC   C1A51339   5.908  36.828   6.256
 3968POPC   D2A51340   5.780  36.733   6.680
 3968POPC   C3A51341   6.026  36.881   7.004
 3968POPC   C4A51342   5.882  37.052   7.363
 3968POPC   C1B51343   6.049  37.301   6.110
 3968POPC   C2B51344   6.130  37.168   6.558
 3968POPC   C3B51345   6.062  37.384   6.944
 3968POPC   C4B51346   6.182  37.481   7.350
 3969POPC   NC351347  10.153  18.586   5.436
 3969POPC   PO451348  10.827  18.447   5.501
 3969POPC   GL151349  10.426  18.352   5.789
 3969POPC   GL251350  10.246  18.044   5.943
 3969POPC   C1A51351  10.481  18.402   6.212
 3969POPC   D2A51352  10.891  18.385   6.344
 3969POPC   C3A51353  10.854  18.285   6.754
 3969POPC   C4A51354  10.610  18.452   7.070
 3969POPC   C1B51355  10.377  17.914   6.368
 3969POPC   C2B51356  10.421  17.966   6.826
 3969POPC   C3B51357  10.318  18.035   7.259
 3969POPC   C4B51358  10.276  17.949   7.752
 3970POPC   NC351359   9.464  21.957   5.417
 3970POPC   PO451360   9.891  22.386   5.165
 3970POPC   GL151361   9.789  22.231   5.675
 3970POPC   GL251362   9.840  21.888   5.828
 3970POPC   C1A51363   9.863  22.316   6.137
 3970POPC   D2A51364  10.052  22.386   6.557
 3970POPC   C3A51365   9.800  22.333   6.945
 3970POPC   C4A51366   9.654  22.510   7.337
 3970POPC   C1B51367   9.496  21.913   6.180
 3970POPC   C2B51368   9.345  22.031   6.639
 3970POPC   C3B51369   9.462  21.947   7.088
 3970POPC   C4B51370   9.407  22.091   7.525
 3971POPC   NC351371  31.824  28.465   5.475
 3971POPC   PO451372  31.332  27.997   5.433
 3971POPC   GL151373  31.422  28.304   5.754
 3971POPC   GL251374  31.725  28.081   5.806
 3971POPC   C1A51375  31.482  28.524   6.149
 3971POPC   D2A51376  31.566  28.412   6.559
 3971POPC   C3A51377  31.375  28.587   6.926
 3971POPC   C4A51378  31.610  28.630   7.294
 3971POPC   C1B51379  31.530  28.005   6.201
 3971POPC   C2B51380  31.526  27.891   6.644
 3971POPC   C3B51381  31.561  28.108   6.990
 3971POPC   C4B51382  31.663  28.064   7.356
 3972POPC   NC351383  18.760   3.335   5.072
 3972POPC   PO451384  19.074   3.703   5.487
 3972POPC   GL151385  19.181   3.540   5.877
 3972POPC   GL251386  18.978   3.242   5.861
 3972POPC   C1A51387  19.160   3.345   6.312
 3972POPC   D2A51388  19.041   3.492   6.699
 3972POPC   C3A51389  19.184   3.474   7.109
 3972POPC   C4A51390  19.281   3.660   7.517
 3972POPC   C1B51391  18.707   3.088   6.222
 3972POPC   C2B51392  18.870   3.003   6.652
 3972POPC   C3B51393  18.708   3.259   7.002
 3972POPC   C4B51394  18.802   3.295   7.465
 3973POPC   NC351395   8.195   7.407   5.398
 3973POPC   PO451396   7.564   7.285   5.323
 3973POPC   GL151397   7.841   7.338   5.791
 3973POPC   GL251398   8.192   7.420   5.905
 3973POPC   C1A51399   7.823   7.538   6.269
 3973POPC   D2A51400   7.707   7.377   6.693
 3973POPC   C3A51401   7.828   7.597   7.076
 3973POPC   C4A51402   8.092   7.616   7.462
 3973POPC   C1B51403   8.298   7.383   6.337
 3973POPC   C2B51404   8.190   7.539   6.721
 3973POPC   C3B51405   8.420   7.450   7.113
 3973POPC   C4B51406   8.534   7.033   7.295
 3974POPC   NC351407   8.314  16.528   5.150
 3974POPC   PO451408   7.862  16.941   5.304
 3974POPC   GL151409   8.110  16.684   5.607
 3974POPC   GL251410   8.485  16.720   5.632
 3974POPC   C1A51411   8.176  16.517   6.026
 3974POPC   D2A51412   7.964  16.459   6.417
 3974POPC   C3A51413   8.187  16.302   6.783
 3974POPC   C4A51414   8.157  16.543   7.153
 3974POPC   C1B51415   8.620  16.818   6.079
 3974POPC   C2B51416   8.497  16.678   6.505
 3974POPC   C3B51417   8.435  16.891   6.902
 3974POPC   C4B51418   8.557  16.787   7.324
 3975POPC   NC351419  36.055  41.052   5.509
 3975POPC   PO451420  36.419  40.570   5.586
 3975POPC   GL151421  36.306  40.804   5.911
 3975POPC   GL251422  35.972  40.751   5.920
 3975POPC   C1A51423  36.257  40.819   6.346
 3975POPC   D2A51424  35.989  40.792   6.672
 3975POPC   C3A51425  36.226  40.721   7.007
 3975POPC   C4A51426  36.336  40.992   7.296
 3975POPC   C1B51427  35.770  40.564   6.253
 3975POPC   C2B51428  35.732  40.351   6.654
 3975POPC   C3B51429  35.754  40.506   7.077
 3975POPC   C4B51430  35.991  40.658   7.459
 3976POPC   NC351431  27.676  27.095   5.635
 3976POPC   PO451432  27.357  26.479   5.430
 3976POPC   GL151433  27.373  26.673   5.809
 3976POPC   GL251434  27.708  26.598   5.845
 3976POPC   C1A51435  27.484  26.849   6.227
 3976POPC   D2A51436  27.526  26.696   6.612
 3976POPC   C3A51437  27.456  27.001   6.893
 3976POPC   C4A51438  27.757  27.132   7.148
 3976POPC   C1B51439  27.760  26.391   6.233
 3976POPC   C2B51440  27.954  26.407   6.647
 3976POPC   C3B51441  27.875  26.635   7.009
 3976POPC   C4B51442  27.970  26.751   7.406
 3977POPC   NC351443  34.888  33.299   5.562
 3977POPC   PO451444  34.234  33.184   5.449
 3977POPC   GL151445  34.496  33.091   5.829
 3977POPC   GL251446  34.317  32.822   5.973
 3977POPC   C1A51447  34.802  33.086   6.196
 3977POPC   D2A51448  34.856  33.143   6.651
 3977POPC   C3A51449  34.438  33.241   6.885
 3977POPC   C4A51450  34.295  33.028   7.254
 3977POPC   C1B51451  34.705  32.588   6.136
 3977POPC   C2B51452  34.854  32.614   6.548
 3977POPC   C3B51453  34.622  32.754   6.900
 3977POPC   C4B51454  34.724  32.764   7.281
 3978POPC   NC351455  42.560  39.276   5.420
 3978POPC   PO451456  41.955  38.891   5.453
 3978POPC   GL151457  42.259  38.988   5.789
 3978POPC   GL251458  42.646  38.922   5.782
 3978POPC   C1A51459  42.276  39.337   6.102
 3978POPC   D2A51460  42.543  39.417   6.468
 3978POPC   C3A51461  42.298  39.424   6.842
 3978POPC   C4A51462  42.369  39.368   7.288
 3978POPC   C1B51463  42.522  38.919   6.232
 3978POPC   C2B51464  42.202  39.026   6.543
 3978POPC   C3B51465  42.204  38.945   7.012
 3978POPC   C4B51466  42.425  38.808   7.388
 3979POPC   NC351467   7.662  23.602   5.144
 3979POPC   PO451468   7.351  24.005   5.546
 3979POPC   GL151469   7.437  23.809   5.864
 3979POPC   GL251470   7.718  23.625   5.877
 3979POPC   C1A51471   7.326  23.624   6.232
 3979POPC   D2A51472   7.176  23.558   6.619
 3979POPC   C3A51473   7.018  23.850   6.897
 3979POPC   C4A51474   7.029  23.666   7.288
 3979POPC   C1B51475   7.764  23.903   6.251
 3979POPC   C2B51476   7.690  23.641   6.618
 3979POPC   C3B51477   7.557  23.750   7.035
 3979POPC   C4B51478   7.849  23.845   7.366
 3980POPC   NC351479  28.804  12.409   5.111
 3980POPC   PO451480  29.248  11.974   5.231
 3980POPC   GL151481  29.132  12.011   5.687
 3980POPC   GL251482  28.790  12.101   5.755
 3980POPC   C1A51483  29.161  12.085   6.165
 3980POPC   D2A51484  29.377  12.200   6.587
 3980POPC   C3A51485  29.153  12.101   6.994
 3980POPC   C4A51486  29.137  12.295   7.419
 3980POPC   C1B51487  28.650  11.917   6.134
 3980POPC   C2B51488  28.716  11.700   6.492
 3980POPC   C3B51489  28.739  11.761   6.929
 3980POPC   C4B51490  28.861  11.887   7.357
 3981POPC   NC351491  20.606  41.932   5.425
 3981POPC   PO451492  20.882  42.589   5.292
 3981POPC   GL151493  20.713  42.394   5.696
 3981POPC   GL251494  20.337  42.264   5.692
 3981POPC   C1A51495  20.800  42.277   6.140
 3981POPC   D2A51496  20.589  42.190   6.519
 3981POPC   C3A51497  20.721  42.259   6.964
 3981POPC   C4A51498  20.914  42.372   7.390
 3981POPC   C1B51499  20.335  42.017   6.087
 3981POPC   C2B51500  20.162  41.924   6.506
 3981POPC   C3B51501  20.306  41.982   6.897
 3981POPC   C4B51502  20.505  41.698   7.151
 3982POPC   NC351503  20.046  34.429   5.536
 3982POPC   PO451504  19.475  34.878   5.441
 3982POPC   GL151505  19.802  34.800   5.782
 3982POPC   GL251506  20.030  35.072   5.943
 3982POPC   C1A51507  19.748  34.494   6.138
 3982POPC   D2A51508  19.602  34.493   6.540
 3982POPC   C3A51509  19.776  34.280   6.896
 3982POPC   C4A51510  19.750  34.465   7.299
 3982POPC   C1B51511  20.212  34.692   6.156
 3982POPC   C2B51512  20.121  34.459   6.512
 3982POPC   C3B51513  20.018  34.723   6.858
 3982POPC   C4B51514  20.271  34.688   7.217
 3983POPC   NC351515  38.729   1.742   5.238
 3983POPC   PO451516  39.236   2.184   5.405
 3983POPC   GL151517  39.162   2.006   5.788
 3983POPC   GL251518  38.844   2.188   5.843
 3983POPC   C1A51519  39.358   1.819   6.166
 3983POPC   D2A51520  39.416   1.951   6.592
 3983POPC   C3A51521  39.616   1.761   6.947
 3983POPC   C4A51522  39.438   1.843   7.349
 3983POPC   C1B51523  39.048   2.236   6.251
 3983POPC   C2B51524  38.972   2.242   6.689
 3983POPC   C3B51525  39.037   2.020   7.070
 3983POPC   C4B51526  39.163   2.295   7.400
 3984POPC   NC351527  24.537  38.173   4.810
 3984POPC   PO451528  24.415  38.488   5.407
 3984POPC   GL151529  24.351  38.456   5.835
 3984POPC   GL251530  24.545  38.159   5.821
 3984POPC   C1A51531  24.565  38.444   6.266
 3984POPC   D2A51532  24.761  38.329   6.672
 3984POPC   C3A51533  24.619  38.601   7.030
 3984POPC   C4A51534  24.408  38.530   7.469
 3984POPC   C1B51535  24.211  38.102   6.174
 3984POPC   C2B51536  24.302  38.072   6.630
 3984POPC   C3B51537  24.495  38.107   7.051
 3984POPC   C4B51538  24.168  38.069   7.347
 3985POPC   NC351539  21.796  12.931   5.660
 3985POPC   PO451540  22.339  12.819   5.283
 3985POPC   GL151541  22.345  12.985   5.697
 3985POPC   GL251542  22.234  12.706   5.818
 3985POPC   C1A51543  22.196  13.073   6.165
 3985POPC   D2A51544  21.981  12.868   6.537
 3985POPC   C3A51545  22.156  12.901   6.936
 3985POPC   C4A51546  22.043  12.815   7.349
 3985POPC   C1B51547  22.242  12.528   6.238
 3985POPC   C2B51548  22.301  12.438   6.692
 3985POPC   C3B51549  22.369  12.468   7.140
 3985POPC   C4B51550  22.345  12.483   7.590
 3986POPC   NC351551  25.578  35.694   5.561
 3986POPC   PO451552  25.376  35.085   5.357
 3986POPC   GL151553  25.223  35.305   5.751
 3986POPC   GL251554  24.965  35.602   5.827
 3986POPC   C1A51555  25.333  35.442   6.186
 3986POPC   D2A51556  25.469  35.331   6.605
 3986POPC   C3A51557  25.147  35.123   6.832
 3986POPC   C4A51558  25.030  35.137   7.242
 3986POPC   C1B51559  24.904  35.761   6.285
 3986POPC   C2B51560  24.943  35.578   6.734
 3986POPC   C3B51561  25.222  35.589   7.122
 3986POPC   C4B51562  25.212  35.466   7.605
 3987POPC   NC351563  32.034   4.116   5.411
 3987POPC   PO451564  32.425   4.510   5.109
 3987POPC   GL151565  32.382   4.319   5.670
 3987POPC   GL251566  32.460   4.008   5.801
 3987POPC   C1A51567  32.451   4.406   6.152
 3987POPC   D2A51568  32.580   4.323   6.590
 3987POPC   C3A51569  32.445   4.483   7.018
 3987POPC   C4A51570  32.513   4.180   7.340
 3987POPC   C1B51571  32.048   4.121   6.046
 3987POPC   C2B51572  31.893   4.063   6.460
 3987POPC   C3B51573  32.081   4.230   6.789
 3987POPC   C4B51574  32.034   4.194   7.216
 3988POPC   NC351575   0.748  23.586   5.373
 3988POPC   PO451576   0.149  23.838   5.207
 3988POPC   GL151577   0.373  23.864   5.610
 3988POPC   GL251578   0.348  23.515   5.726
 3988POPC   C1A51579   0.391  23.929   6.065
 3988POPC   D2A51580   0.352  23.685   6.448
 3988POPC   C3A51581   0.306  23.847   6.848
 3988POPC   C4A51582   0.145  23.740   7.250
 3988POPC   C1B51583   0.570  23.358   6.095
 3988POPC   C2B51584   0.730  23.347   6.513
 3988POPC   C3B51585   0.595  23.403   6.907
 3988POPC   C4B51586   0.676  23.704   7.195
 3989POPC   NC351587   8.863  33.418   5.428
 3989POPC   PO451588   8.919  34.073   5.321
 3989POPC   GL151589   8.848  33.945   5.746
 3989POPC   GL251590   9.139  33.736   5.849
 3989POPC   C1A51591   8.773  33.801   6.191
 3989POPC   D2A51592   8.924  33.530   6.517
 3989POPC   C3A51593   8.835  33.683   6.921
 3989POPC   C4A51594   8.889  33.433   7.245
 3989POPC   C1B51595   9.366  33.562   6.244
 3989POPC   C2B51596   9.443  33.423   6.700
 3989POPC   C3B51597   9.382  33.512   7.164
 3989POPC   C4B51598   9.157  33.829   7.403
 3990POPC   NC351599  26.934   7.015   5.386
 3990POPC   PO451600  26.579   7.557   5.384
 3990POPC   GL151601  26.781   7.396   5.745
 3990POPC   GL251602  26.584   7.112   5.781
 3990POPC   C1A51603  26.936   7.564   6.157
 3990POPC   D2A51604  26.668   7.529   6.519
 3990POPC   C3A51605  26.702   7.552   6.932
 3990POPC   C4A51606  26.825   7.555   7.328
 3990POPC   C1B51607  26.801   7.081   6.191
 3990POPC   C2B51608  26.989   7.116   6.587
 3990POPC   C3B51609  26.933   7.106   7.023
 3990POPC   C4B51610  26.674   7.080   7.385
 3991POPC   NC351611  18.071   0.832   5.487
 3991POPC   PO451612  18.611   1.302   5.370
 3991POPC   GL151613  18.301   1.383   5.706
 3991POPC   GL251614  18.214   1.095   5.896
 3991POPC   C1A51615  18.256   1.575   6.128
 3991POPC   D2A51616  18.425   1.610   6.549
 3991POPC   C3A51617  18.237   1.448   6.916
 3991POPC   C4A51618  18.365   1.390   7.353
 3991POPC   C1B51619  18.071   1.109   6.324
 3991POPC   C2B51620  17.894   0.939   6.713
 3991POPC   C3B51621  18.078   1.008   7.129
 3991POPC   C4B51622  17.893   1.233   7.432
 3992POPC   NC351623   3.300  43.958   5.382
 3992POPC   PO451624   3.935  43.728   5.432
 3992POPC   GL151625   3.698  43.744   5.819
 3992POPC   GL251626   3.648  44.118   5.864
 3992POPC   C1A51627   3.451  43.785   6.231
 3992POPC   D2A51628   3.180  43.754   6.607
 3992POPC   C3A51629   3.400  43.722   6.978
 3992POPC   C4A51630   3.497  43.697   7.418
 3992POPC   C1B51631   3.833  44.170   6.294
 3992POPC   C2B51632   3.747  44.124   6.746
 3992POPC   C3B51633   3.724  44.087   7.186
 3992POPC   C4B51634   3.896  43.963   7.571
 3993POPC   NC351635  33.208  40.841   5.293
 3993POPC   PO451636  33.105  40.424   5.771
 3993POPC   GL151637  33.108  40.867   5.895
 3993POPC   GL251638  32.825  41.015   5.964
 3993POPC   C1A51639  33.165  40.989   6.353
 3993POPC   D2A51640  33.433  40.769   6.653
 3993POPC   C3A51641  33.202  40.659   7.034
 3993POPC   C4A51642  33.031  40.715   7.451
 3993POPC   C1B51643  32.708  40.687   6.242
 3993POPC   C2B51644  32.834  40.634   6.669
 3993POPC   C3B51645  32.698  40.833   7.060
 3993POPC   C4B51646  32.830  41.169   7.336
 3994POPC   NC351647  23.449  29.181   5.349
 3994POPC   PO451648  24.054  28.902   5.220
 3994POPC   GL151649  24.057  29.157   5.651
 3994POPC   GL251650  24.151  28.973   5.961
 3994POPC   C1A51651  23.844  29.360   6.075
 3994POPC   D2A51652  23.892  29.214   6.552
 3994POPC   C3A51653  23.678  29.345   6.975
 3994POPC   C4A51654  23.630  29.314   7.436
 3994POPC   C1B51655  24.355  28.982   6.385
 3994POPC   C2B51656  24.242  28.904   6.812
 3994POPC   C3B51657  23.943  28.929   7.153
 3994POPC   C4B51658  24.006  28.812   7.575
 3995POPC   NC351659  42.044  19.255   5.511
 3995POPC   PO451660  42.598  18.886   5.442
 3995POPC   GL151661  42.402  19.030   5.805
 3995POPC   GL251662  42.506  19.377   5.688
 3995POPC   C1A51663  42.192  19.073   6.222
 3995POPC   D2A51664  41.975  19.131   6.644
 3995POPC   C3A51665  42.205  19.221   7.018
 3995POPC   C4A51666  42.453  18.934   7.250
 3995POPC   C1B51667  42.578  19.444   6.126
 3995POPC   C2B51668  42.518  19.328   6.569
 3995POPC   C3B51669  42.657  19.452   6.993
 3995POPC   C4B51670  42.546  19.403   7.428
 3996POPC   NC351671  16.013   7.837   5.208
 3996POPC   PO451672  15.477   7.433   5.309
 3996POPC   GL151673  15.637   7.394   5.801
 3996POPC   GL251674  15.535   7.064   5.988
 3996POPC   C1A51675  15.776   7.498   6.265
 3996POPC   D2A51676  16.093   7.678   6.597
 3996POPC   C3A51677  16.082   7.511   7.035
 3996POPC   C4A51678  16.078   7.463   7.488
 3996POPC   C1B51679  15.404   7.173   6.387
 3996POPC   C2B51680  15.639   7.354   6.765
 3996POPC   C3B51681  15.790   7.109   7.119
 3996POPC   C4B51682  16.065   6.746   7.101
 3997POPC   NC351683  40.287  20.683   5.243
 3997POPC   PO451684  40.012  21.232   5.356
 3997POPC   GL151685  40.075  20.875   5.709
 3997POPC   GL251686  40.130  20.524   5.744
 3997POPC   C1A51687  40.137  20.866   6.157
 3997POPC   D2A51688  40.311  20.958   6.562
 3997POPC   C3A51689  40.080  20.850   6.897
 3997POPC   C4A51690  40.142  20.678   7.254
 3997POPC   C1B51691  39.844  20.440   6.109
 3997POPC   C2B51692  39.907  20.526   6.530
 3997POPC   C3B51693  40.134  20.340   6.871
 3997POPC   C4B51694  39.854  20.266   7.215
 3998POPC   NC351695  36.476   0.861   5.352
 3998POPC   PO451696  36.011   0.340   5.331
 3998POPC   GL151697  35.978   0.422   5.734
 3998POPC   GL251698  36.276   0.589   5.748
 3998POPC   C1A51699  36.027   0.275   6.160
 3998POPC   D2A51700  36.234   0.282   6.544
 3998POPC   C3A51701  35.963   0.298   6.892
 3998POPC   C4A51702  35.792   0.325   7.299
 3998POPC   C1B51703  36.469   0.563   6.141
 3998POPC   C2B51704  36.606   0.641   6.550
 3998POPC   C3B51705  36.377   0.609   6.941
 3998POPC   C4B51706  36.281   0.443   7.345
 3999POPC   NC351707  39.774   7.746   5.459
 3999POPC   PO451708  40.337   8.013   5.467
 3999POPC   GL151709  40.342   8.227   5.895
 3999POPC   GL251710  40.094   8.489   5.870
 3999POPC   C1A51711  40.331   8.443   6.334
 3999POPC   D2A51712  40.402   8.620   6.748
 3999POPC   C3A51713  40.290   8.299   7.045
 3999POPC   C4A51714  40.378   7.858   6.965
 3999POPC   C1B51715  39.834   8.389   6.270
 3999POPC   C2B51716  39.882   8.366   6.750
 3999POPC   C3B51717  39.828   8.137   7.178
 3999POPC   C4B51718  39.742   7.886   7.564
 4000POPC   NC351719  35.592  39.397   5.525
 4000POPC   PO451720  35.065  39.044   5.373
 4000POPC   GL151721  35.231  39.142   5.816
 4000POPC   GL251722  35.588  39.150   5.970
 4000POPC   C1A51723  35.187  39.324   6.241
 4000POPC   D2A51724  35.375  39.157   6.596
 4000POPC   C3A51725  35.336  39.391   6.977
 4000POPC   C4A51726  35.144  39.347   7.372
 4000POPC   C1B51727  35.656  39.516   6.257
 4000POPC   C2B51728  35.761  39.459   6.686
 4000POPC   C3B51729  35.737  39.084   7.013
 4000POPC   C4B51730  35.450  38.939   7.353
 4001POPC   NC351731  22.350  44.292   5.474
 4001POPC   PO451732  22.089  43.616   5.508
 4001POPC   GL151733  22.111  43.707   5.897
 4001POPC   GL251734  22.036  44.066   5.921
 4001POPC   C1A51735  22.034  43.725   6.314
 4001POPC   D2A51736  22.239  43.564   6.629
 4001POPC   C3A51737  22.150  43.866   6.910
 4001POPC   C4A51738  21.933  43.777   7.243
 4001POPC   C1B51739  22.435  44.039   6.114
 4001POPC   C2B51740  22.544  44.005   6.536
 4001POPC   C3B51741  22.554  44.162   6.938
 4001POPC   C4B51742  22.430  43.949   7.356
 4002POPC   NC351743  44.282  24.821   5.442
 4002POPC   PO451744  44.750  24.324   5.430
 4002POPC   GL151745  44.537  24.520   5.764
 4002POPC   GL251746  44.821  24.772   5.745
 4002POPC   C1A51747  44.346  24.402   6.167
 4002POPC   D2A51748  44.531  24.215   6.557
 4002POPC   C3A51749  44.585  24.465   6.972
 4002POPC   C4A51750  44.569  24.643   7.414
 4002POPC   C1B51751  44.820  24.627   6.167
 4002POPC   C2B51752  44.591  24.734   6.504
 4002POPC   C3B51753  44.772  24.940   6.826
 4002POPC   C4B51754  44.993  24.798   7.159
 4003POPC   NC351755  13.487  19.447   5.467
 4003POPC   PO451756  13.639  18.787   5.470
 4003POPC   GL151757  13.704  19.110   5.790
 4003POPC   GL251758  13.353  19.264   5.921
 4003POPC   C1A51759  13.811  19.305   6.177
 4003POPC   D2A51760  13.517  19.433   6.501
 4003POPC   C3A51761  13.729  19.285   6.843
 4003POPC   C4A51762  13.729  19.181   7.251
 4003POPC   C1B51763  13.406  18.933   6.226
 4003POPC   C2B51764  13.384  18.772   6.653
 4003POPC   C3B51765  13.406  18.786   7.099
 4003POPC   C4B51766  13.482  18.849   7.531
 4004POPC   NC351767   2.445  23.876   5.534
 4004POPC   PO451768   3.070  23.452   5.580
 4004POPC   GL151769   2.785  23.623   5.838
 4004POPC   GL251770   2.429  23.466   5.865
 4004POPC   C1A51771   2.910  23.855   6.179
 4004POPC   D2A51772   2.726  24.061   6.515
 4004POPC   C3A51773   2.832  23.920   6.885
 4004POPC   C4A51774   2.786  24.111   7.258
 4004POPC   C1B51775   2.625  23.425   6.292
 4004POPC   C2B51776   3.023  23.489   6.543
 4004POPC   C3B51777   3.032  23.467   6.986
 4004POPC   C4B51778   2.767  23.603   7.306
 4005POPC   NC351779   5.437  38.786   5.416
 4005POPC   PO451780   5.987  38.343   5.478
 4005POPC   GL151781   5.883  38.292   5.876
 4005POPC   GL251782   5.545  38.443   5.836
 4005POPC   C1A51783   6.118  38.318   6.255
 4005POPC   D2A51784   6.429  38.361   6.584
 4005POPC   C3A51785   6.186  38.339   6.970
 4005POPC   C4A51786   5.903  38.684   7.111
 4005POPC   C1B51787   5.487  38.166   6.173
 4005POPC   C2B51788   5.700  38.142   6.544
 4005POPC   C3B51789   5.619  38.269   6.962
 4005POPC   C4B51790   5.600  38.362   7.375
 4006POPC   NC351791  26.889   4.783   5.287
 4006POPC   PO451792  26.730   4.296   5.725
 4006POPC   GL151793  26.860   4.382   6.090
 4006POPC   GL251794  26.533   4.513   6.210
 4006POPC   C1A51795  26.845   4.234   6.491
 4006POPC   D2A51796  26.794   4.547   6.810
 4006POPC   C3A51797  26.846   4.412   7.234
 4006POPC   C4A51798  26.856   4.219   7.638
 4006POPC   C1B51799  26.407   4.046   6.223
 4006POPC   C2B51800  26.562   3.806   6.563
 4006POPC   C3B51801  26.685   3.994   6.933
 4006POPC   C4B51802  26.497   4.031   7.305
 4007POPC   NC351803  25.764  33.088   5.233
 4007POPC   PO451804  25.814  33.768   5.243
 4007POPC   GL151805  25.895  33.795   5.712
 4007POPC   GL251806  26.173  34.044   5.793
 4007POPC   C1A51807  26.058  33.682   6.143
 4007POPC   D2A51808  26.283  33.566   6.485
 4007POPC   C3A51809  26.078  33.572   6.869
 4007POPC   C4A51810  26.185  33.631   7.287
 4007POPC   C1B51811  26.139  34.189   6.227
 4007POPC   C2B51812  26.094  34.027   6.638
 4007POPC   C3B51813  26.215  34.106   7.055
 4007POPC   C4B51814  26.079  34.416   7.351
 4008POPC   NC351815  29.457  17.700   5.356
 4008POPC   PO451816  28.960  17.253   5.101
 4008POPC   GL151817  28.987  17.331   5.640
 4008POPC   GL251818  29.108  17.644   5.784
 4008POPC   C1A51819  28.835  17.369   6.125
 4008POPC   D2A51820  28.732  17.596   6.531
 4008POPC   C3A51821  29.080  17.616   6.858
 4008POPC   C4A51822  29.193  17.468   7.262
 4008POPC   C1B51823  29.374  17.841   6.125
 4008POPC   C2B51824  29.507  17.826   6.568
 4008POPC   C3B51825  29.625  17.966   6.992
 4008POPC   C4B51826  29.583  17.832   7.434
 4009POPC   NC351827   5.965  17.203   5.324
 4009POPC   PO451828   6.073  17.870   5.323
 4009POPC   GL151829   5.924  17.658   5.683
 4009POPC   GL251830   6.217  17.431   5.738
 4009POPC   C1A51831   5.688  17.826   6.091
 4009POPC   D2A51832   5.466  17.741   6.510
 4009POPC   C3A51833   5.702  17.825   6.941
 4009POPC   C4A51834   6.018  17.586   7.099
 4009POPC   C1B51835   5.926  17.366   6.112
 4009POPC   C2B51836   5.925  17.461   6.559
 4009POPC   C3B51837   5.965  17.141   6.877
 4009POPC   C4B51838   5.717  17.135   7.226
 4010POPC   NC351839   3.796   9.619   5.452
 4010POPC   PO451840   3.172   9.902   5.350
 4010POPC   GL151841   3.288   9.672   5.750
 4010POPC   GL251842   3.597   9.578   5.908
 4010POPC   C1A51843   3.237   9.748   6.220
 4010POPC   D2A51844   3.228   9.546   6.646
 4010POPC   C3A51845   3.557   9.695   6.913
 4010POPC   C4A51846   3.590  10.048   7.186
 4010POPC   C1B51847   3.667   9.468   6.331
 4010POPC   C2B51848   3.696   9.216   6.687
 4010POPC   C3B51849   3.896   9.337   7.054
 4010POPC   C4B51850   3.916   9.682   7.328
 4011POPC   NC351851  37.019  25.670   5.377
 4011POPC   PO451852  36.789  24.952   5.429
 4011POPC   GL151853  36.996  25.255   5.687
 4011POPC   GL251854  36.663  25.378   5.756
 4011POPC   C1A51855  37.070  25.258   6.136
 4011POPC   D2A51856  36.780  25.024   6.426
 4011POPC   C3A51857  36.798  25.130   6.850
 4011POPC   C4A51858  36.716  24.946   7.229
 4011POPC   C1B51859  36.603  25.455   6.178
 4011POPC   C2B51860  36.866  25.590   6.532
 4011POPC   C3B51861  36.876  25.638   6.976
 4011POPC   C4B51862  36.547  25.478   7.207
 4012POPC   NC351863  31.698  23.851   5.553
 4012POPC   PO451864  31.758  24.597   5.534
 4012POPC   GL151865  31.515  24.571   5.897
 4012POPC   GL251866  31.167  24.571   5.861
 4012POPC   C1A51867  31.492  24.383   6.304
 4012POPC   D2A51868  31.683  24.149   6.647
 4012POPC   C3A51869  31.538  24.349   7.025
 4012POPC   C4A51870  31.750  24.389   7.410
 4012POPC   C1B51871  31.050  24.663   6.277
 4012POPC   C2B51872  31.231  24.701   6.678
 4012POPC   C3B51873  31.050  24.899   7.029
 4012POPC   C4B51874  31.003  24.692   7.396
 4013POPC   NC351875   3.908  43.251   5.405
 4013POPC   PO451876   4.445  42.686   5.401
 4013POPC   GL151877   4.270  43.007   5.772
 4013POPC   GL251878   4.058  43.301   5.881
 4013POPC   C1A51879   4.541  43.247   6.105
 4013POPC   D2A51880   4.421  43.441   6.499
 4013POPC   C3A51881   4.550  43.300   6.921
 4013POPC   C4A51882   4.621  42.956   7.211
 4013POPC   C1B51883   4.093  43.107   6.297
 4013POPC   C2B51884   4.042  43.196   6.736
 4013POPC   C3B51885   4.116  43.136   7.164
 4013POPC   C4B51886   4.046  43.017   7.558
 4014POPC   NC351887  29.843  27.019   5.285
 4014POPC   PO451888  29.402  26.597   5.638
 4014POPC   GL151889  29.595  26.897   5.882
 4014POPC   GL251890  29.967  26.980   5.807
 4014POPC   C1A51891  29.570  27.107   6.265
 4014POPC   D2A51892  29.898  27.222   6.544
 4014POPC   C3A51893  30.003  27.004   6.914
 4014POPC   C4A51894  30.127  27.200   7.295
 4014POPC   C1B51895  30.049  26.795   6.237
 4014POPC   C2B51896  30.339  26.714   6.615
 4014POPC   C3B51897  30.204  26.531   7.011
 4014POPC   C4B51898  29.836  26.474   7.234
 4015POPC   NC351899  11.001  37.293   5.597
 4015POPC   PO451900  11.569  37.674   5.397
 4015POPC   GL151901  11.653  37.735   5.851
 4015POPC   GL251902  11.363  37.517   5.870
 4015POPC   C1A51903  11.513  37.651   6.314
 4015POPC   D2A51904  11.207  37.785   6.643
 4015POPC   C3A51905  11.506  37.723   6.989
 4015POPC   C4A51906  11.508  37.766   7.434
 4015POPC   C1B51907  11.001  37.598   6.175
 4015POPC   C2B51908  10.871  37.343   6.525
 4015POPC   C3B51909  11.072  37.378   6.932
 4015POPC   C4B51910  11.054  37.767   7.211
 4016POPC   NC351911  21.802  16.022   5.495
 4016POPC   PO451912  22.434  15.897   5.476
 4016POPC   GL151913  22.179  15.855   5.809
 4016POPC   GL251914  21.904  15.588   5.787
 4016POPC   C1A51915  22.102  16.051   6.193
 4016POPC   D2A51916  22.091  16.209   6.582
 4016POPC   C3A51917  22.118  16.057   6.999
 4016POPC   C4A51918  22.268  16.202   7.377
 4016POPC   C1B51919  22.127  15.542   6.194
 4016POPC   C2B51920  21.987  15.707   6.600
 4016POPC   C3B51921  22.043  15.554   7.019
 4016POPC   C4B51922  22.083  15.752   7.450
 4017POPC   NC351923  35.463  13.216   5.528
 4017POPC   PO451924  35.120  12.744   5.358
 4017POPC   GL151925  35.147  12.876   5.779
 4017POPC   GL251926  35.473  12.744   5.861
 4017POPC   C1A51927  35.043  12.754   6.202
 4017POPC   D2A51928  35.255  12.730   6.585
 4017POPC   C3A51929  34.993  12.775   6.943
 4017POPC   C4A51930  34.948  12.877   7.363
 4017POPC   C1B51931  35.669  12.771   6.266
 4017POPC   C2B51932  35.675  13.073   6.604
 4017POPC   C3B51933  35.445  13.034   6.978
 4017POPC   C4B51934  35.492  12.942   7.391
 4018POPC   NC351935  20.170  10.709   5.611
 4018POPC   PO451936  20.744  10.396   5.601
 4018POPC   GL151937  20.697  10.170   5.960
 4018POPC   GL251938  20.979  10.275   6.188
 4018POPC   C1A51939  20.443  10.289   6.312
 4018POPC   D2A51940  20.545  10.294   6.733
 4018POPC   C3A51941  20.366  10.537   7.050
 4018POPC   C4A51942  20.355  10.251   7.440
 4018POPC   C1B51943  20.777  10.679   6.201
 4018POPC   C2B51944  20.621  10.793   6.585
 4018POPC   C3B51945  20.847  10.670   6.958
 4018POPC   C4B51946  20.709  10.629   7.397
 4019POPC   NC351947   4.757  21.656   5.308
 4019POPC   PO451948   5.231  21.279   5.648
 4019POPC   GL151949   4.922  21.451   5.911
 4019POPC   GL251950   4.823  21.812   5.786
 4019POPC   C1A51951   4.845  21.155   6.257
 4019POPC   D2A51952   5.012  20.955   6.612
 4019POPC   C3A51953   5.057  21.252   6.950
 4019POPC   C4A51954   5.156  21.167   7.383
 4019POPC   C1B51955   4.862  21.921   6.182
 4019POPC   C2B51956   4.924  21.695   6.560
 4019POPC   C3B51957   4.746  21.719   6.970
 4019POPC   C4B51958   5.030  21.659   7.303
 4020POPC   NC351959  25.768   3.227   5.317
 4020POPC   PO451960  26.140   3.714   5.290
 4020POPC   GL151961  25.816   3.657   5.634
 4020POPC   GL251962  25.627   3.978   5.697
 4020POPC   C1A51963  25.878   3.460   6.050
 4020POPC   D2A51964  26.111   3.571   6.423
 4020POPC   C3A51965  25.913   3.513   6.818
 4020POPC   C4A51966  26.126   3.362   7.177
 4020POPC   C1B51967  25.878   3.985   6.093
 4020POPC   C2B51968  25.879   4.024   6.552
 4020POPC   C3B51969  26.093   4.002   6.942
 4020POPC   C4B51970  26.016   3.849   7.313
 4021POPC   NC351971   7.861  43.164   5.345
 4021POPC   PO451972   8.495  43.178   5.478
 4021POPC   GL151973   8.481  43.344   5.860
 4021POPC   GL251974   8.127  43.339   5.838
 4021POPC   C1A51975   8.398  43.349   6.306
 4021POPC   D2A51976   8.398  43.069   6.657
 4021POPC   C3A51977   8.619  43.071   7.048
 4021POPC   C4A51978   8.273  43.004   7.390
 4021POPC   C1B51979   7.875  43.490   6.195
 4021POPC   C2B51980   7.969  43.378   6.626
 4021POPC   C3B51981   7.948  43.011   6.927
 4021POPC   C4B51982   7.686  43.002   7.300
 4022POPC   NC351983  15.968  42.162   5.358
 4022POPC   PO451984  15.871  42.876   5.453
 4022POPC   GL151985  16.093  42.525   5.713
 4022POPC   GL251986  15.798  42.367   5.777
 4022POPC   C1A51987  16.140  42.236   6.133
 4022POPC   D2A51988  15.922  42.203   6.577
 4022POPC   C3A51989  16.092  42.216   7.009
 4022POPC   C4A51990  16.260  42.296   7.412
 4022POPC   C1B51991  15.637  42.358   6.171
 4022POPC   C2B51992  15.444  42.407   6.561
 4022POPC   C3B51993  15.603  42.397   6.973
 4022POPC   C4B51994  15.757  42.294   7.393
 4023POPC   NC351995   9.141  32.516   5.604
 4023POPC   PO451996   8.759  33.000   5.257
 4023POPC   GL151997   8.994  33.006   5.680
 4023POPC   GL251998   8.671  33.097   5.813
 4023POPC   C1A51999   9.136  33.055   6.147
 4023POPC   D2A52000   9.266  32.906   6.579
 4023POPC   C3A52001   9.160  33.076   6.990
 4023POPC   C4A52002   9.035  33.015   7.462
 4023POPC   C1B52003   8.654  32.894   6.236
 4023POPC   C2B52004   8.777  33.043   6.635
 4023POPC   C3B52005   8.714  32.850   7.022
 4023POPC   C4B52006   8.606  32.759   7.392
 4024POPC   NC352007  25.065  15.410   5.455
 4024POPC   PO452008  25.562  14.982   5.518
 4024POPC   GL152009  25.333  15.200   5.818
 4024POPC   GL252010  25.060  15.004   5.907
 4024POPC   C1A52011  25.186  15.378   6.195
 4024POPC   D2A52012  25.274  15.086   6.538
 4024POPC   C3A52013  25.199  15.245   6.956
 4024POPC   C4A52014  25.226  15.570   7.262
 4024POPC   C1B52015  24.819  15.028   6.278
 4024POPC   C2B52016  24.794  15.242   6.669
 4024POPC   C3B52017  24.689  15.066   7.080
 4024POPC   C4B52018  24.616  15.206   7.515
 4025POPC   NC352019  23.125  35.223   5.204
 4025POPC   PO452020  22.865  35.445   5.776
 4025POPC   GL152021  22.871  35.092   5.961
 4025POPC   GL252022  22.501  35.091   5.905
 4025POPC   C1A52023  23.036  35.114   6.357
 4025POPC   D2A52024  22.861  35.500   6.468
 4025POPC   C3A52025  22.905  35.582   6.867
 4025POPC   C4A52026  23.117  35.387   7.204
 4025POPC   C1B52027  22.529  35.027   6.337
 4025POPC   C2B52028  22.725  34.950   6.733
 4025POPC   C3B52029  22.652  35.082   7.157
 4025POPC   C4B52030  22.541  35.240   7.565
 4026POPC   NC352031  13.507   7.665   5.504
 4026POPC   PO452032  14.002   7.119   5.557
 4026POPC   GL152033  13.684   7.312   5.829
 4026POPC   GL252034  13.895   7.604   5.856
 4026POPC   C1A52035  13.439   7.546   6.176
 4026POPC   D2A52036  13.260   7.563   6.612
 4026POPC   C3A52037  13.577   7.361   6.869
 4026POPC   C4A52038  13.645   7.346   7.297
 4026POPC   C1B52039  13.864   7.836   6.222
 4026POPC   C2B52040  13.697   7.846   6.615
 4026POPC   C3B52041  13.850   7.845   7.036
 4026POPC   C4B52042  13.851   7.766   7.472
 4027POPC   NC352043   1.733  29.170   5.443
 4027POPC   PO452044   2.294  29.633   5.269
 4027POPC   GL152045   2.140  29.200   5.698
 4027POPC   GL252046   1.783  29.247   5.938
 4027POPC   C1A52047   2.148  28.940   6.102
 4027POPC   D2A52048   2.025  28.852   6.546
 4027POPC   C3A52049   1.970  29.227   6.799
 4027POPC   C4A52050   1.892  29.318   7.213
 4027POPC   C1B52051   1.628  28.885   6.217
 4027POPC   C2B52052   1.525  28.725   6.652
 4027POPC   C3B52053   1.680  28.858   7.058
 4027POPC   C4B52054   2.094  28.858   7.159
 4028POPC   NC352055  30.552  25.762   5.485
 4028POPC   PO452056  31.034  26.216   5.275
 4028POPC   GL152057  30.826  26.096   5.783
 4028POPC   GL252058  30.454  25.954   5.940
 4028POPC   C1A52059  30.804  26.004   6.275
 4028POPC   D2A52060  31.065  25.883   6.605
 4028POPC   C3A52061  30.827  25.843   6.946
 4028POPC   C4A52062  30.954  25.954   7.329
 4028POPC   C1B52063  30.324  25.507   6.125
 4028POPC   C2B52064  30.246  25.323   6.556
 4028POPC   C3B52065  30.273  25.597   6.934
 4028POPC   C4B52066  30.489  25.701   7.314
 4029POPC   NC352067  40.194  10.897   5.490
 4029POPC   PO452068  40.092  10.230   5.519
 4029POPC   GL152069  40.052  10.431   5.863
 4029POPC   GL252070  39.841  10.731   5.813
 4029POPC   C1A52071  40.315  10.212   6.173
 4029POPC   D2A52072  40.200  10.342   6.539
 4029POPC   C3A52073  40.300  10.305   6.946
 4029POPC   C4A52074  39.965  10.436   7.230
 4029POPC   C1B52075  39.858  10.657   6.274
 4029POPC   C2B52076  39.856  10.661   6.712
 4029POPC   C3B52077  39.567  10.645   7.005
 4029POPC   C4B52078  39.666  10.902   7.322
 4030POPC   NC352079   8.745   5.817   5.449
 4030POPC   PO452080   9.347   5.441   5.529
 4030POPC   GL152081   9.119   5.796   5.780
 4030POPC   GL252082   8.837   5.587   5.911
 4030POPC   C1A52083   8.909   6.007   6.181
 4030POPC   D2A52084   8.886   5.743   6.565
 4030POPC   C3A52085   8.710   5.747   6.967
 4030POPC   C4A52086   8.859   6.085   7.204
 4030POPC   C1B52087   9.205   5.540   6.210
 4030POPC   C2B52088   9.391   5.614   6.618
 4030POPC   C3B52089   9.188   5.531   7.017
 4030POPC   C4B52090   9.066   5.691   7.429
 4031POPC   NC352091  33.560  11.251   5.565
 4031POPC   PO452092  34.056  11.751   5.485
 4031POPC   GL152093  34.080  11.397   5.823
 4031POPC   GL252094  33.755  11.284   6.014
 4031POPC   C1A52095  34.151  11.078   6.185
 4031POPC   D2A52096  33.917  11.264   6.538
 4031POPC   C3A52097  33.769  11.051   6.923
 4031POPC   C4A52098  33.870  11.164   7.332
 4031POPC   C1B52099  33.470  11.402   6.310
 4031POPC   C2B52100  33.548  11.597   6.679
 4031POPC   C3B52101  33.468  11.439   7.057
 4031POPC   C4B52102  33.574  11.685   7.350
 4032POPC   NC352103   7.852  22.079   5.501
 4032POPC   PO452104   8.324  22.573   5.380
 4032POPC   GL152105   8.241  22.324   5.757
 4032POPC   GL252106   8.258  21.927   5.785
 4032POPC   C1A52107   8.027  22.279   6.158
 4032POPC   D2A52108   8.242  22.218   6.563
 4032POPC   C3A52109   7.962  22.051   6.848
 4032POPC   C4A52110   7.885  22.265   7.245
 4032POPC   C1B52111   8.255  21.824   6.230
 4032POPC   C2B52112   8.303  21.657   6.649
 4032POPC   C3B52113   8.508  21.835   6.999
 4032POPC   C4B52114   8.407  22.206   7.226
 4033POPC   NC352115  16.663  41.472   5.562
 4033POPC   PO452116  16.758  40.709   5.373
 4033POPC   GL152117  16.824  40.702   5.830
 4033POPC   GL252118  16.486  40.594   5.949
 4033POPC   C1A52119  16.827  40.742   6.297
 4033POPC   D2A52120  16.574  40.802   6.660
 4033POPC   C3A52121  16.800  40.967   6.999
 4033POPC   C4A52122  16.854  41.244   7.324
 4033POPC   C1B52123  16.316  40.457   6.362
 4033POPC   C2B52124  16.277  40.367   6.806
 4033POPC   C3B52125  16.569  40.511   7.126
 4033POPC   C4B52126  17.001  40.647   7.343
 4034POPC   NC352127  17.731  24.054   5.544
 4034POPC   PO452128  17.062  23.737   5.465
 4034POPC   GL152129  17.342  23.865   5.820
 4034POPC   GL252130  17.471  23.551   5.943
 4034POPC   C1A52131  17.598  23.909   6.242
 4034POPC   D2A52132  17.474  23.597   6.567
 4034POPC   C3A52133  17.300  23.835   6.904
 4034POPC   C4A52134  17.493  23.845   7.287
 4034POPC   C1B52135  17.776  23.336   6.213
 4034POPC   C2B52136  17.953  23.347   6.638
 4034POPC   C3B52137  17.726  23.334   7.012
 4034POPC   C4B52138  17.833  23.068   7.360
 4035POPC   NC352139  24.353  13.497   5.493
 4035POPC   PO452140  24.962  13.620   5.224
 4035POPC   GL152141  24.812  13.751   5.707
 4035POPC   GL252142  24.545  13.555   5.962
 4035POPC   C1A52143  24.716  13.984   6.145
 4035POPC   D2A52144  24.400  13.774   6.455
 4035POPC   C3A52145  24.547  13.754   6.894
 4035POPC   C4A52146  24.710  13.933   7.268
 4035POPC   C1B52147  24.349  13.267   6.298
 4035POPC   C2B52148  24.426  13.249   6.755
 4035POPC   C3B52149  24.341  13.384   7.180
 4035POPC   C4B52150  24.227  13.271   7.591
 4036POPC   NC352151  24.425  10.117   5.171
 4036POPC   PO452152  24.149   9.469   5.140
 4036POPC   GL152153  24.222   9.719   5.646
 4036POPC   GL252154  24.577   9.701   5.771
 4036POPC   C1A52155  24.252   9.827   6.169
 4036POPC   D2A52156  24.518   9.892   6.580
 4036POPC   C3A52157  24.348   9.923   6.999
 4036POPC   C4A52158  24.278   9.533   7.179
 4036POPC   C1B52159  24.558   9.427   6.149
 4036POPC   C2B52160  24.662   9.376   6.604
 4036POPC   C3B52161  24.759   9.597   6.975
 4036POPC   C4B52162  24.803   9.455   7.381
 4037POPC   NC352163  30.121  13.352   5.342
 4037POPC   PO452164  29.508  13.427   5.658
 4037POPC   GL152165  29.721  13.767   5.885
 4037POPC   GL252166  30.110  13.746   5.855
 4037POPC   C1A52167  29.735  13.837   6.334
 4037POPC   D2A52168  29.895  13.565   6.666
 4037POPC   C3A52169  29.653  13.596   7.030
 4037POPC   C4A52170  29.813  13.674   7.418
 4037POPC   C1B52171  30.231  13.724   6.297
 4037POPC   C2B52172  30.279  13.968   6.686
 4037POPC   C3B52173  30.177  13.924   7.148
 4037POPC   C4B52174  30.272  13.766   7.588
 4038POPC   NC352175  16.520   0.271   5.410
 4038POPC   PO452176  16.791   0.809   5.159
 4038POPC   GL152177  16.676   0.661   5.652
 4038POPC   GL252178  16.440   0.746   5.871
 4038POPC   C1A52179  16.781   0.415   6.058
 4038POPC   D2A52180  16.676   0.355   6.513
 4038POPC   C3A52181  16.899   0.321   6.885
 4038POPC   C4A52182  16.825   0.285   7.314
 4038POPC   C1B52183  16.569   0.811   6.322
 4038POPC   C2B52184  16.608   0.781   6.778
 4038POPC   C3B52185  16.630   0.795   7.210
 4038POPC   C4B52186  16.654   0.856   7.653
 4039POPC   NC352187  22.435  40.527   5.309
 4039POPC   PO452188  21.797  40.783   5.316
 4039POPC   GL152189  21.977  40.803   5.755
 4039POPC   GL252190  22.231  40.553   5.790
 4039POPC   C1A52191  22.002  41.004   6.194
 4039POPC   D2A52192  22.275  40.956   6.533
 4039POPC   C3A52193  22.226  40.791   6.888
 4039POPC   C4A52194  22.020  40.926   7.212
 4039POPC   C1B52195  22.165  40.528   6.233
 4039POPC   C2B52196  22.083  40.232   6.548
 4039POPC   C3B52197  22.013  40.328   6.999
 4039POPC   C4B52198  22.326  40.454   7.249
 4040POPC   NC352199  20.548  16.892   5.426
 4040POPC   PO452200  21.203  16.869   5.647
 4040POPC   GL152201  20.790  16.731   5.900
 4040POPC   GL252202  20.410  16.720   5.886
 4040POPC   C1A52203  20.662  16.902   6.332
 4040POPC   D2A52204  20.864  17.009   6.761
 4040POPC   C3A52205  20.684  17.006   7.213
 4040POPC   C4A52206  20.638  16.863   7.666
 4040POPC   C1B52207  20.490  16.433   6.215
 4040POPC   C2B52208  20.458  16.342   6.617
 4040POPC   C3B52209  20.627  16.557   6.962
 4040POPC   C4B52210  20.538  16.449   7.362
 4041POPC   NC352211  36.383  13.229   5.136
 4041POPC   PO452212  35.893  13.343   5.569
 4041POPC   GL152213  35.874  13.105   5.930
 4041POPC   GL252214  36.046  12.796   5.858
 4041POPC   C1A52215  36.126  13.023   6.323
 4041POPC   D2A52216  36.213  13.018   6.776
 4041POPC   C3A52217  35.938  13.089   7.097
 4041POPC   C4A52218  35.869  12.634   7.196
 4041POPC   C1B52219  36.369  12.596   6.127
 4041POPC   C2B52220  36.360  12.422   6.537
 4041POPC   C3B52221  36.442  12.578   6.964
 4041POPC   C4B52222  36.422  12.974   7.257
 4042POPC   NC352223  30.886  13.916   5.030
 4042POPC   PO452224  30.491  13.546   5.524
 4042POPC   GL152225  30.744  13.449   5.841
 4042POPC   GL252226  30.634  13.720   6.006
 4042POPC   C1A52227  30.848  13.344   6.260
 4042POPC   D2A52228  30.668  13.587   6.563
 4042POPC   C3A52229  31.001  13.612   6.833
 4042POPC   C4A52230  30.917  13.423   7.223
 4042POPC   C1B52231  30.955  13.871   6.247
 4042POPC   C2B52232  30.833  14.068   6.631
 4042POPC   C3B52233  30.706  13.978   7.066
 4042POPC   C4B52234  30.755  13.852   7.515
 4043POPC   NC352235  30.885  36.434   5.603
 4043POPC   PO452236  30.481  36.014   5.239
 4043POPC   GL152237  30.512  36.110   5.755
 4043POPC   GL252238  30.847  36.053   6.008
 4043POPC   C1A52239  30.458  36.248   6.228
 4043POPC   D2A52240  30.841  36.302   6.512
 4043POPC   C3A52241  30.752  36.254   6.950
 4043POPC   C4A52242  30.486  36.077   7.304
 4043POPC   C1B52243  31.104  35.745   6.263
 4043POPC   C2B52244  31.116  35.645   6.713
 4043POPC   C3B52245  30.930  35.811   7.105
 4043POPC   C4B52246  31.015  36.148   7.420
 4044POPC   NC352247   8.643  21.570   5.528
 4044POPC   PO452248   8.020  21.640   5.427
 4044POPC   GL152249   8.217  21.361   5.731
 4044POPC   GL252250   7.953  21.147   5.858
 4044POPC   C1A52251   8.374  21.337   6.160
 4044POPC   D2A52252   8.070  21.219   6.467
 4044POPC   C3A52253   8.200  21.128   6.888
 4044POPC   C4A52254   8.338  21.392   7.203
 4044POPC   C1B52255   7.848  21.544   6.075
 4044POPC   C2B52256   7.775  21.625   6.515
 4044POPC   C3B52257   7.868  21.530   6.943
 4044POPC   C4B52258   8.044  21.786   7.266
 4045POPC   NC352259  37.724  25.922   5.491
 4045POPC   PO452260  37.959  26.578   5.368
 4045POPC   GL152261  37.847  26.404   5.763
 4045POPC   GL252262  37.502  26.331   5.754
 4045POPC   C1A52263  37.794  26.234   6.210
 4045POPC   D2A52264  37.856  25.881   6.520
 4045POPC   C3A52265  37.959  25.989   6.949
 4045POPC   C4A52266  37.911  26.158   7.365
 4045POPC   C1B52267  37.361  25.986   6.050
 4045POPC   C2B52268  37.377  25.678   6.422
 4045POPC   C3B52269  37.407  25.680   6.895
 4045POPC   C4B52270  37.471  26.029   7.179
 4046POPC   NC352271  41.343  12.951   5.208
 4046POPC   PO452272  41.926  13.032   5.531
 4046POPC   GL152273  41.581  13.025   5.803
 4046POPC   GL252274  41.498  12.669   5.817
 4046POPC   C1A52275  41.472  12.961   6.243
 4046POPC   D2A52276  41.715  12.913   6.623
 4046POPC   C3A52277  41.406  13.039   6.917
 4046POPC   C4A52278  41.287  13.020   7.328
 4046POPC   C1B52279  41.848  12.587   6.150
 4046POPC   C2B52280  41.932  12.405   6.573
 4046POPC   C3B52281  41.895  12.568   7.001
 4046POPC   C4B52282  41.481  12.588   7.179
 4047POPC   NC352283  13.810   9.209   5.539
 4047POPC   PO452284  13.217   8.803   5.586
 4047POPC   GL152285  13.509   8.912   5.835
 4047POPC   GL252286  13.369   9.250   5.863
 4047POPC   C1A52287  13.768   8.813   6.193
 4047POPC   D2A52288  13.650   8.785   6.624
 4047POPC   C3A52289  13.984   8.779   6.938
 4047POPC   C4A52290  13.893   8.883   7.346
 4047POPC   C1B52291  13.357   9.131   6.287
 4047POPC   C2B52292  13.558   9.303   6.644
 4047POPC   C3B52293  13.783   9.257   7.007
 4047POPC   C4B52294  13.574   9.250   7.435
 4048POPC   NC352295  11.741  23.881   5.367
 4048POPC   PO452296  12.403  23.528   5.391
 4048POPC   GL152297  12.188  23.774   5.724
 4048POPC   GL252298  11.885  23.605   5.752
 4048POPC   C1A52299  12.169  23.698   6.183
 4048POPC   D2A52300  12.155  23.392   6.534
 4048POPC   C3A52301  12.241  23.607   6.915
 4048POPC   C4A52302  12.509  23.768   7.200
 4048POPC   C1B52303  11.680  23.549   6.113
 4048POPC   C2B52304  11.709  23.664   6.514
 4048POPC   C3B52305  11.754  23.485   6.897
 4048POPC   C4B52306  11.773  23.753   7.212
 4049POPC   NC352307   4.280   6.182   5.457
 4049POPC   PO452308   4.144   6.808   5.394
 4049POPC   GL152309   4.253   6.637   5.733
 4049POPC   GL252310   4.450   6.884   5.838
 4049POPC   C1A52311   4.307   6.407   6.084
 4049POPC   D2A52312   4.156   6.496   6.459
 4049POPC   C3A52313   4.343   6.479   6.846
 4049POPC   C4A52314   4.130   6.368   7.189
 4049POPC   C1B52315   4.269   6.946   6.215
 4049POPC   C2B52316   4.537   6.847   6.532
 4049POPC   C3B52317   4.550   6.932   6.935
 4049POPC   C4B52318   4.267   6.834   7.256
 4050POPC   NC352319  28.585  26.597   5.530
 4050POPC   PO452320  27.986  26.845   5.414
 4050POPC   GL152321  28.187  26.796   5.827
 4050POPC   GL252322  28.509  26.990   5.846
 4050POPC   C1A52323  28.060  26.802   6.283
 4050POPC   D2A52324  27.966  27.013   6.683
 4050POPC   C3A52325  28.259  26.987   7.029
 4050POPC   C4A52326  28.422  26.607   7.206
 4050POPC   C1B52327  28.570  26.713   6.203
 4050POPC   C2B52328  28.463  26.632   6.635
 4050POPC   C3B52329  28.813  26.668   6.906
 4050POPC   C4B52330  28.764  26.984   7.209
 4051POPC   NC352331  27.779  24.298   5.216
 4051POPC   PO452332  27.796  23.567   5.121
 4051POPC   GL152333  27.726  23.443   5.716
 4051POPC   GL252334  27.619  23.688   5.915
 4051POPC   C1A52335  27.498  23.350   6.234
 4051POPC   D2A52336  27.547  23.269   6.725
 4051POPC   C3A52337  27.653  23.580   7.095
 4051POPC   C4A52338  27.483  23.527   7.551
 4051POPC   C1B52339  27.758  23.897   6.281
 4051POPC   C2B52340  27.579  23.914   6.685
 4051POPC   C3B52341  27.585  24.107   7.106
 4051POPC   C4B52342  27.575  24.057   7.545
 4052POPC   NC352343  33.920  14.257   5.177
 4052POPC   PO452344  33.931  14.846   5.515
 4052POPC   GL152345  34.035  14.480   5.818
 4052POPC   GL252346  33.905  14.161   5.683
 4052POPC   C1A52347  33.996  14.509   6.293
 4052POPC   D2A52348  33.693  14.662   6.600
 4052POPC   C3A52349  33.829  14.646   7.010
 4052POPC   C4A52350  33.644  14.615   7.390
 4052POPC   C1B52351  34.004  14.006   6.098
 4052POPC   C2B52352  34.136  14.062   6.521
 4052POPC   C3B52353  33.867  14.172   6.819
 4052POPC   C4B52354  33.870  14.152   7.240
 4053POPC   NC352355  38.048  44.531   5.427
 4053POPC   PO452356  37.528  44.916   5.518
 4053POPC   GL152357  37.731  44.708   5.851
 4053POPC   GL252358  37.423  44.578   6.058
 4053POPC   C1A52359  37.861  44.835   6.246
 4053POPC   D2A52360  37.675  44.821   6.641
 4053POPC   C3A52361  37.901  44.708   6.997
 4053POPC   C4A52362  38.060  44.462   7.300
 4053POPC   C1B52363  37.315  44.983   6.296
 4053POPC   C2B52364  37.258   0.081   6.762
 4053POPC   C3B52365  37.429  44.830   7.144
 4053POPC   C4B52366  37.397  44.662   7.597
 4054POPC   NC352367  15.974  39.667   5.454
 4054POPC   PO452368  15.592  39.039   5.460
 4054POPC   GL152369  15.875  39.169   5.808
 4054POPC   GL252370  16.174  38.940   5.919
 4054POPC   C1A52371  15.922  39.342   6.221
 4054POPC   D2A52372  15.798  39.672   6.520
 4054POPC   C3A52373  15.852  39.458   6.908
 4054POPC   C4A52374  15.980  39.196   7.244
 4054POPC   C1B52375  15.840  38.850   6.218
 4054POPC   C2B52376  15.857  39.031   6.626
 4054POPC   C3B52377  16.242  38.989   6.858
 4054POPC   C4B52378  16.205  38.727   7.195
 4055POPC   NC352379   7.730   0.772   5.639
 4055POPC   PO452380   7.297   1.313   5.401
 4055POPC   GL152381   7.332   1.078   5.756
 4055POPC   GL252382   7.605   1.287   5.890
 4055POPC   C1A52383   7.416   0.919   6.188
 4055POPC   D2A52384   7.757   0.875   6.490
 4055POPC   C3A52385   7.562   1.017   6.830
 4055POPC   C4A52386   7.183   0.987   7.043
 4055POPC   C1B52387   7.524   1.428   6.313
 4055POPC   C2B52388   7.460   1.528   6.756
 4055POPC   C3B52389   7.359   1.680   7.148
 4055POPC   C4B52390   7.246   1.339   7.406
 4056POPC   NC352391  44.777  23.570   5.135
 4056POPC   PO452392  44.814  22.972   5.414
 4056POPC   GL152393  44.730  23.094   5.828
 4056POPC   GL252394  44.758  22.774   5.950
 4056POPC   C1A52395  44.495  23.168   6.227
 4056POPC   D2A52396  44.390  23.036   6.654
 4056POPC   C3A52397  44.684  22.986   6.998
 4056POPC   C4A52398  44.583  22.965   7.438
 4056POPC   C1B52399  44.939  22.886   6.339
 4056POPC   C2B52400  44.982  22.599   6.679
 4056POPC   C3B52401  44.908  22.537   7.119
 4056POPC   C4B52402   0.033  22.751   7.506
 4057POPC   NC352403  38.056  19.183   5.502
 4057POPC   PO452404  38.224  18.565   5.482
 4057POPC   GL152405  38.468  18.946   5.711
 4057POPC   GL252406  38.517  19.345   5.706
 4057POPC   C1A52407  38.423  19.075   6.144
 4057POPC   D2A52408  38.630  19.097   6.566
 4057POPC   C3A52409  38.314  19.028   6.847
 4057POPC   C4A52410  38.179  19.031   7.241
 4057POPC   C1B52411  38.775  19.434   6.126
 4057POPC   C2B52412  38.758  19.593   6.564
 4057POPC   C3B52413  38.820  19.443   6.996
 4057POPC   C4B52414  38.684  19.097   7.231
 4058POPC   NC352415  16.880   2.904   5.289
 4058POPC   PO452416  17.331   2.544   5.503
 4058POPC   GL152417  17.034   2.843   5.774
 4058POPC   GL252418  16.648   2.763   5.728
 4058POPC   C1A52419  16.830   2.850   6.216
 4058POPC   D2A52420  16.998   2.952   6.640
 4058POPC   C3A52421  16.840   2.845   7.064
 4058POPC   C4A52422  17.002   2.857   7.475
 4058POPC   C1B52423  16.879   2.404   5.967
 4058POPC   C2B52424  16.941   2.303   6.405
 4058POPC   C3B52425  17.017   2.447   6.810
 4058POPC   C4B52426  17.007   2.365   7.248
 4059POPC   NC352427  12.488   3.823   5.358
 4059POPC   PO452428  12.071   3.249   5.423
 4059POPC   GL152429  12.153   3.618   5.687
 4059POPC   GL252430  12.436   3.453   5.731
 4059POPC   C1A52431  12.058   3.853   6.094
 4059POPC   D2A52432  11.935   3.873   6.548
 4059POPC   C3A52433  12.116   3.673   6.922
 4059POPC   C4A52434  12.027   3.541   7.348
 4059POPC   C1B52435  12.179   3.358   6.110
 4059POPC   C2B52436  12.287   3.412   6.521
 4059POPC   C3B52437  12.519   3.344   6.903
 4059POPC   C4B52438  12.451   3.212   7.326
 4060POPC   NC352439  26.738  31.415   5.478
 4060POPC   PO452440  27.111  31.826   5.868
 4060POPC   GL152441  26.843  31.598   6.079
 4060POPC   GL252442  26.836  31.283   5.944
 4060POPC   C1A52443  26.755  31.571   6.501
 4060POPC   D2A52444  26.503  31.785   6.813
 4060POPC   C3A52445  26.644  31.768   7.232
 4060POPC   C4A52446  27.033  31.658   7.459
 4060POPC   C1B52447  26.529  31.191   6.224
 4060POPC   C2B52448  26.700  31.108   6.678
 4060POPC   C3B52449  26.827  31.237   7.132
 4060POPC   C4B52450  26.647  31.359   7.542
 4061POPC   NC352451  33.194  34.912   5.487
 4061POPC   PO452452  32.924  34.220   5.542
 4061POPC   GL152453  32.859  34.575   5.818
 4061POPC   GL252454  33.126  34.797   5.977
 4061POPC   C1A52455  32.788  34.483   6.244
 4061POPC   D2A52456  32.993  34.310   6.602
 4061POPC   C3A52457  32.995  34.544   6.999
 4061POPC   C4A52458  32.788  34.488   7.407
 4061POPC   C1B52459  33.311  34.439   6.200
 4061POPC   C2B52460  33.511  34.348   6.617
 4061POPC   C3B52461  33.344  34.118   6.941
 4061POPC   C4B52462  33.197  34.172   7.324
 4062POPC   NC352463  11.708  35.121   5.337
 4062POPC   PO452464  12.213  35.543   5.384
 4062POPC   GL152465  12.033  35.320   5.739
 4062POPC   GL252466  11.673  35.344   5.814
 4062POPC   C1A52467  12.015  35.134   6.161
 4062POPC   D2A52468  11.905  35.262   6.565
 4062POPC   C3A52469  12.170  35.201   6.912
 4062POPC   C4A52470  11.965  35.116   7.269
 4062POPC   C1B52471  11.873  35.630   6.150
 4062POPC   C2B52472  11.925  35.764   6.592
 4062POPC   C3B52473  11.845  35.585   7.004
 4062POPC   C4B52474  11.898  35.584   7.435
 4063POPC   NC352475  43.665  15.629   5.497
 4063POPC   PO452476  44.010  16.200   5.344
 4063POPC   GL152477  43.977  15.963   5.758
 4063POPC   GL252478  44.078  15.609   5.886
 4063POPC   C1A52479  43.755  15.918   6.168
 4063POPC   D2A52480  43.798  16.147   6.561
 4063POPC   C3A52481  43.858  15.829   6.841
 4063POPC   C4A52482  43.747  15.748   7.238
 4063POPC   C1B52483  44.268  15.909   6.229
 4063POPC   C2B52484  44.327  16.037   6.676
 4063POPC   C3B52485  44.285  15.902   7.135
 4063POPC   C4B52486  44.397  15.733   7.559
 4064POPC   NC352487   8.637  38.318   5.416
 4064POPC   PO452488   9.182  38.634   5.559
 4064POPC   GL152489   8.904  38.436   5.885
 4064POPC   GL252490   8.577  38.228   5.901
 4064POPC   C1A52491   8.947  38.648   6.286
 4064POPC   D2A52492   8.813  38.857   6.649
 4064POPC   C3A52493   9.046  38.680   7.021
 4064POPC   C4A52494   9.200  38.299   7.316
 4064POPC   C1B52495   8.739  38.179   6.322
 4064POPC   C2B52496   8.667  38.369   6.729
 4064POPC   C3B52497   8.720  38.317   7.173
 4064POPC   C4B52498   8.745  38.213   7.618
 4065POPC   NC352499  10.146  22.045   5.328
 4065POPC   PO452500  10.730  21.842   5.538
 4065POPC   GL152501  10.354  22.011   5.788
 4065POPC   GL252502  10.486  22.239   6.008
 4065POPC   C1A52503  10.188  21.902   6.214
 4065POPC   D2A52504  10.455  22.094   6.522
 4065POPC   C3A52505  10.312  22.098   6.928
 4065POPC   C4A52506  10.244  22.437   7.205
 4065POPC   C1B52507  10.805  22.439   6.241
 4065POPC   C2B52508  10.886  22.326   6.663
 4065POPC   C3B52509  10.727  22.469   7.037
 4065POPC   C4B52510  10.955  22.693   7.280
 4066POPC   NC352511  39.091  24.181   5.492
 4066POPC   PO452512  39.111  23.515   5.429
 4066POPC   GL152513  39.251  23.739   5.827
 4066POPC   GL252514  39.251  24.107   5.947
 4066POPC   C1A52515  39.200  23.552   6.248
 4066POPC   D2A52516  38.928  23.496   6.623
 4066POPC   C3A52517  39.124  23.516   7.045
 4066POPC   C4A52518  39.133  23.749   7.438
 4066POPC   C1B52519  39.282  24.036   6.348
 4066POPC   C2B52520  39.189  23.937   6.728
 4066POPC   C3B52521  39.441  23.943   7.054
 4066POPC   C4B52522  39.451  24.176   7.398
 4067POPC   NC352523  16.768  23.391   5.417
 4067POPC   PO452524  16.518  22.786   5.412
 4067POPC   GL152525  16.677  22.992   5.746
 4067POPC   GL252526  16.386  23.051   5.871
 4067POPC   C1A52527  16.801  22.946   6.171
 4067POPC   D2A52528  16.973  22.730   6.509
 4067POPC   C3A52529  16.730  22.869   6.848
 4067POPC   C4A52530  16.726  23.100   7.212
 4067POPC   C1B52531  16.359  22.682   6.090
 4067POPC   C2B52532  16.459  22.549   6.478
 4067POPC   C3B52533  16.237  22.620   6.831
 4067POPC   C4B52534  16.414  22.710   7.240
 4068POPC   NC352535  32.642  25.376   5.505
 4068POPC   PO452536  33.313  25.087   5.398
 4068POPC   GL152537  33.104  25.288   5.738
 4068POPC   GL252538  33.038  24.936   5.822
 4068POPC   C1A52539  33.064  25.532   6.127
 4068POPC   D2A52540  33.419  25.509   6.439
 4068POPC   C3A52541  33.311  25.362   6.846
 4068POPC   C4A52542  33.110  25.586   7.171
 4068POPC   C1B52543  33.210  25.062   6.217
 4068POPC   C2B52544  32.936  25.135   6.588
 4068POPC   C3B52545  32.884  25.102   7.058
 4068POPC   C4B52546  32.987  24.946   7.509
 4069POPC   NC352547   9.079  29.338   5.439
 4069POPC   PO452548   8.425  28.950   5.395
 4069POPC   GL152549   8.701  29.097   5.725
 4069POPC   GL252550   9.022  28.985   5.854
 4069POPC   C1A52551   8.708  29.299   6.140
 4069POPC   D2A52552   8.755  29.506   6.548
 4069POPC   C3A52553   8.784  29.286   6.951
 4069POPC   C4A52554   9.073  29.423   7.264
 4069POPC   C1B52555   9.190  28.820   6.253
 4069POPC   C2B52556   9.126  28.798   6.725
 4069POPC   C3B52557   8.911  28.771   7.128
 4069POPC   C4B52558   8.959  28.712   7.560
 4070POPC   NC352559  18.880  19.281   5.417
 4070POPC   PO452560  19.277  18.726   5.425
 4070POPC   GL152561  18.986  18.715   5.833
 4070POPC   GL252562  18.862  19.034   5.866
 4070POPC   C1A52563  18.944  18.843   6.335
 4070POPC   D2A52564  19.246  19.004   6.700
 4070POPC   C3A52565  19.198  18.978   7.171
 4070POPC   C4A52566  18.977  18.643   7.402
 4070POPC   C1B52567  18.747  19.311   6.204
 4070POPC   C2B52568  18.869  19.346   6.614
 4070POPC   C3B52569  18.787  19.134   6.954
 4070POPC   C4B52570  18.849  19.345   7.300
 4071POPC   NC352571   7.301  28.964   5.432
 4071POPC   PO452572   7.016  29.592   5.359
 4071POPC   GL152573   7.209  29.405   5.760
 4071POPC   GL252574   7.201  29.042   5.916
 4071POPC   C1A52575   7.314  29.441   6.226
 4071POPC   D2A52576   7.582  29.233   6.546
 4071POPC   C3A52577   7.488  29.295   6.979
 4071POPC   C4A52578   7.771  29.212   7.271
 4071POPC   C1B52579   7.222  28.919   6.357
 4071POPC   C2B52580   7.409  28.792   6.760
 4071POPC   C3B52581   7.457  28.804   7.219
 4071POPC   C4B52582   7.264  28.714   7.630
 4072POPC   NC352583   9.970  14.270   5.420
 4072POPC   PO452584   9.296  14.173   5.567
 4072POPC   GL152585   9.560  14.392   5.894
 4072POPC   GL252586   9.930  14.356   5.898
 4072POPC   C1A52587   9.727  14.575   6.282
 4072POPC   D2A52588   9.877  14.766   6.645
 4072POPC   C3A52589   9.747  14.562   7.077
 4072POPC   C4A52590   9.821  14.447   7.551
 4072POPC   C1B52591  10.094  14.148   6.231
 4072POPC   C2B52592   9.927  14.246   6.634
 4072POPC   C3B52593   9.745  14.061   6.989
 4072POPC   C4B52594  10.089  14.157   7.227
 4073POPC   NC352595   6.200   8.987   5.089
 4073POPC   PO452596   5.679   8.769   5.509
 4073POPC   GL152597   5.635   8.895   5.942
 4073POPC   GL252598   5.988   8.839   6.023
 4073POPC   C1A52599   5.700   8.872   6.424
 4073POPC   D2A52600   6.092   9.003   6.592
 4073POPC   C3A52601   5.948   9.042   7.009
 4073POPC   C4A52602   5.495   9.063   7.132
 4073POPC   C1B52603   6.032   8.511   6.327
 4073POPC   C2B52604   6.067   8.506   6.721
 4073POPC   C3B52605   6.217   8.538   7.095
 4073POPC   C4B52606   6.155   8.473   7.500
 4074POPC   NC352607  28.270  19.254   5.300
 4074POPC   PO452608  28.752  18.878   5.575
 4074POPC   GL152609  28.455  19.042   5.899
 4074POPC   GL252610  28.182  19.328   5.819
 4074POPC   C1A52611  28.590  19.084   6.340
 4074POPC   D2A52612  28.392  19.180   6.723
 4074POPC   C3A52613  28.466  18.921   7.063
 4074POPC   C4A52614  28.192  18.637   7.245
 4074POPC   C1B52615  28.175  19.426   6.296
 4074POPC   C2B52616  27.986  19.461   6.740
 4074POPC   C3B52617  28.105  19.301   7.168
 4074POPC   C4B52618  28.466  19.315   7.424
 4075POPC   NC352619  20.106  31.965   5.501
 4075POPC   PO452620  19.625  32.436   5.343
 4075POPC   GL152621  19.503  32.284   5.754
 4075POPC   GL252622  19.693  32.036   5.798
 4075POPC   C1A52623  19.534  32.281   6.247
 4075POPC   D2A52624  19.793  32.275   6.641
 4075POPC   C3A52625  19.597  32.077   7.004
 4075POPC   C4A52626  19.576  32.190   7.429
 4075POPC   C1B52627  20.006  32.117   6.141
 4075POPC   C2B52628  20.155  31.911   6.505
 4075POPC   C3B52629  20.033  31.825   6.932
 4075POPC   C4B52630  20.216  31.918   7.324
 4076POPC   NC352631  19.639   3.426   5.540
 4076POPC   PO452632  20.138   3.911   5.286
 4076POPC   GL152633  20.136   3.660   5.725
 4076POPC   GL252634  20.106   3.271   5.683
 4076POPC   C1A52635  19.883   3.706   6.182
 4076POPC   D2A52636  19.548   3.614   6.506
 4076POPC   C3A52637  19.628   3.343   6.855
 4076POPC   C4A52638  19.709   3.431   7.296
 4076POPC   C1B52639  20.213   3.315   6.127
 4076POPC   C2B52640  20.060   3.394   6.540
 4076POPC   C3B52641  20.100   3.507   6.952
 4076POPC   C4B52642  20.150   3.189   7.202
 4077POPC   NC352643  33.325   6.428   5.068
 4077POPC   PO452644  32.889   6.699   5.539
 4077POPC   GL152645  33.133   6.730   5.920
 4077POPC   GL252646  33.154   6.407   5.947
 4077POPC   C1A52647  33.155   6.738   6.396
 4077POPC   D2A52648  33.367   6.744   6.815
 4077POPC   C3A52649  33.101   6.682   7.168
 4077POPC   C4A52650  33.258   6.967   7.424
 4077POPC   C1B52651  32.954   6.265   6.341
 4077POPC   C2B52652  33.043   6.336   6.775
 4077POPC   C3B52653  32.931   6.180   7.172
 4077POPC   C4B52654  32.870   6.278   7.631
 4078POPC   NC352655  30.407  29.011   5.508
 4078POPC   PO452656  30.821  29.472   5.559
 4078POPC   GL152657  30.861  29.078   5.818
 4078POPC   GL252658  30.964  28.769   5.621
 4078POPC   C1A52659  30.740  28.997   6.281
 4078POPC   D2A52660  30.538  29.053   6.714
 4078POPC   C3A52661  30.739  29.265   7.090
 4078POPC   C4A52662  30.971  29.423   7.476
 4078POPC   C1B52663  31.001  28.605   6.047
 4078POPC   C2B52664  31.001  28.628   6.544
 4078POPC   C3B52665  30.886  28.774   6.988
 4078POPC   C4B52666  30.443  28.815   7.182
 4079POPC   NC352667  14.330  12.151   5.256
 4079POPC   PO452668  13.727  12.000   5.159
 4079POPC   GL152669  13.728  11.934   5.680
 4079POPC   GL252670  13.785  12.244   5.841
 4079POPC   C1A52671  13.569  11.956   6.183
 4079POPC   D2A52672  13.596  12.171   6.641
 4079POPC   C3A52673  13.435  11.933   7.040
 4079POPC   C4A52674  13.684  11.763   7.418
 4079POPC   C1B52675  14.015  12.232   6.246
 4079POPC   C2B52676  14.164  12.290   6.670
 4079POPC   C3B52677  13.900  12.454   7.000
 4079POPC   C4B52678  13.675  12.275   7.345
 4080POPC   NC352679  33.019  27.376   5.079
 4080POPC   PO452680  33.084  26.758   5.374
 4080POPC   GL152681  33.055  26.864   5.767
 4080POPC   GL252682  33.210  27.154   5.724
 4080POPC   C1A52683  32.841  26.819   6.150
 4080POPC   D2A52684  32.816  26.813   6.598
 4080POPC   C3A52685  33.180  26.758   6.897
 4080POPC   C4A52686  33.105  26.700   7.356
 4080POPC   C1B52687  33.280  27.131   6.154
 4080POPC   C2B52688  33.144  27.251   6.571
 4080POPC   C3B52689  32.766  27.276   6.796
 4080POPC   C4B52690  32.758  26.992   7.119
 4081POPC   NC352691  32.476  26.120   5.491
 4081POPC   PO452692  31.970  25.610   5.521
 4081POPC   GL152693  32.303  25.718   5.756
 4081POPC   GL252694  32.129  26.037   5.839
 4081POPC   C1A52695  32.442  25.726   6.169
 4081POPC   D2A52696  32.080  25.789   6.472
 4081POPC   C3A52697  32.177  25.755   6.907
 4081POPC   C4A52698  32.445  25.788   7.302
 4081POPC   C1B52699  32.313  26.206   6.203
 4081POPC   C2B52700  32.485  26.090   6.598
 4081POPC   C3B52701  32.354  26.215   6.981
 4081POPC   C4B52702  32.157  26.211   7.355
 4082POPC   NC352703   2.923  14.736   5.586
 4082POPC   PO452704   2.965  14.031   5.524
 4082POPC   GL152705   2.768  14.301   5.853
 4082POPC   GL252706   2.994  14.532   6.065
 4082POPC   C1A52707   2.573  14.249   6.254
 4082POPC   D2A52708   2.677  14.442   6.644
 4082POPC   C3A52709   2.488  14.257   7.020
 4082POPC   C4A52710   2.671  14.288   7.435
 4082POPC   C1B52711   2.620  14.769   6.221
 4082POPC   C2B52712   2.333  14.900   6.548
 4082POPC   C3B52713   2.321  14.761   6.971
 4082POPC   C4B52714   2.436  14.736   7.408
 4083POPC   NC352715  17.691  36.266   5.530
 4083POPC   PO452716  17.169  35.849   5.375
 4083POPC   GL152717  17.303  35.982   5.787
 4083POPC   GL252718  17.339  36.332   5.896
 4083POPC   C1A52719  17.538  35.976   6.190
 4083POPC   D2A52720  17.461  36.208   6.578
 4083POPC   C3A52721  17.565  36.000   6.954
 4083POPC   C4A52722  17.577  36.202   7.336
 4083POPC   C1B52723  17.084  36.381   6.269
 4083POPC   C2B52724  16.957  36.250   6.702
 4083POPC   C3B52725  17.183  36.395   7.080
 4083POPC   C4B52726  17.187  36.452   7.578
 4084POPC   NC352727   3.699   6.621   5.363
 4084POPC   PO452728   3.030   6.406   5.448
 4084POPC   GL152729   3.410   6.454   5.764
 4084POPC   GL252730   3.800   6.355   5.801
 4084POPC   C1A52731   3.449   6.478   6.232
 4084POPC   D2A52732   3.321   6.706   6.622
 4084POPC   C3A52733   3.348   6.489   7.036
 4084POPC   C4A52734   3.652   6.184   7.184
 4084POPC   C1B52735   3.840   6.741   6.029
 4084POPC   C2B52736   3.802   6.853   6.474
 4084POPC   C3B52737   3.824   6.632   6.854
 4084POPC   C4B52738   3.758   6.720   7.270
 4085POPC   NC352739  15.946  43.227   5.154
 4085POPC   PO452740  16.420  43.289   5.551
 4085POPC   GL152741  16.126  43.067   5.844
 4085POPC   GL252742  15.888  43.225   6.072
 4085POPC   C1A52743  16.021  42.748   6.148
 4085POPC   D2A52744  15.992  42.926   6.526
 4085POPC   C3A52745  16.004  42.696   6.860
 4085POPC   C4A52746  16.017  42.735   7.290
 4085POPC   C1B52747  15.693  43.339   6.449
 4085POPC   C2B52748  15.811  43.265   6.874
 4085POPC   C3B52749  15.875  43.226   7.333
 4085POPC   C4B52750  15.725  43.355   7.762
 4086POPC   NC352751  33.908   0.017   5.028
 4086POPC   PO452752  33.579   0.630   5.187
 4086POPC   GL152753  33.992   0.485   5.602
 4086POPC   GL252754  33.851   0.260   5.886
 4086POPC   C1A52755  34.152   0.579   6.085
 4086POPC   D2A52756  33.902   0.358   6.453
 4086POPC   C3A52757  34.023   0.373   6.893
 4086POPC   C4A52758  33.964   0.551   7.259
 4086POPC   C1B52759  33.487   0.221   6.152
 4086POPC   C2B52760  33.354   0.152   6.539
 4086POPC   C3B52761  33.596   0.102   6.867
 4086POPC   C4B52762  33.614   0.202   7.253
 4087POPC   NC352763  13.807  35.542   5.162
 4087POPC   PO452764  13.645  35.080   5.658
 4087POPC   GL152765  13.622  35.317   5.978
 4087POPC   GL252766  13.976  35.417   5.892
 4087POPC   C1A52767  13.287  35.491   6.203
 4087POPC   D2A52768  13.092  35.596   6.590
 4087POPC   C3A52769  13.438  35.512   6.829
 4087POPC   C4A52770  13.562  35.362   7.201
 4087POPC   C1B52771  13.961  35.126   6.275
 4087POPC   C2B52772  13.808  35.141   6.684
 4087POPC   C3B52773  13.951  35.064   7.091
 4087POPC   C4B52774  14.003  35.361   7.452
 4088POPC   NC352775  42.398  43.284   5.593
 4088POPC   PO452776  42.068  42.815   5.315
 4088POPC   GL152777  42.199  42.834   5.776
 4088POPC   GL252778  41.851  42.824   5.858
 4088POPC   C1A52779  42.508  42.981   6.161
 4088POPC   D2A52780  42.709  42.949   6.587
 4088POPC   C3A52781  42.468  43.162   6.926
 4088POPC   C4A52782  42.448  43.480   7.244
 4088POPC   C1B52783  42.030  42.829   6.272
 4088POPC   C2B52784  41.982  43.010   6.703
 4088POPC   C3B52785  41.999  42.763   7.063
 4088POPC   C4B52786  42.292  42.894   7.322
 4089POPC   NC352787  21.944  43.164   5.531
 4089POPC   PO452788  22.482  42.763   5.553
 4089POPC   GL152789  22.271  42.980   5.859
 4089POPC   GL252790  22.428  43.256   5.826
 4089POPC   C1A52791  22.096  43.219   6.226
 4089POPC   D2A52792  21.942  43.076   6.626
 4089POPC   C3A52793  22.050  43.245   7.010
 4089POPC   C4A52794  22.111  42.954   7.365
 4089POPC   C1B52795  22.576  43.042   6.254
 4089POPC   C2B52796  22.515  43.126   6.683
 4089POPC   C3B52797  22.532  43.127   7.115
 4089POPC   C4B52798  22.333  43.436   7.385
 4090POPC   NC352799  13.355  33.048   5.532
 4090POPC   PO452800  14.053  32.861   5.482
 4090POPC   GL152801  13.823  33.117   5.781
 4090POPC   GL252802  13.715  32.790   5.932
 4090POPC   C1A52803  13.694  33.207   6.225
 4090POPC   D2A52804  13.508  33.086   6.634
 4090POPC   C3A52805  13.738  33.070   7.016
 4090POPC   C4A52806  13.689  33.361   7.386
 4090POPC   C1B52807  13.462  32.679   6.314
 4090POPC   C2B52808  13.271  32.535   6.719
 4090POPC   C3B52809  13.278  32.530   7.184
 4090POPC   C4B52810  13.483  32.881   7.404
 4091POPC   NC352811   8.046  18.088   5.637
 4091POPC   PO452812   8.524  18.661   5.403
 4091POPC   GL152813   8.368  18.477   5.802
 4091POPC   GL252814   8.561  18.178   5.787
 4091POPC   C1A52815   8.081  18.429   6.189
 4091POPC   D2A52816   8.024  18.591   6.592
 4091POPC   C3A52817   8.117  18.367   6.957
 4091POPC   C4A52818   8.198  18.482   7.390
 4091POPC   C1B52819   8.445  17.934   6.130
 4091POPC   C2B52820   8.490  17.937   6.539
 4091POPC   C3B52821   8.251  17.850   6.878
 4091POPC   C4B52822   8.372  18.048   7.231
 4092POPC   NC352823  23.729  43.417   5.279
 4092POPC   PO452824  24.110  42.915   5.464
 4092POPC   GL152825  24.024  43.188   5.777
 4092POPC   GL252826  23.673  43.216   5.757
 4092POPC   C1A52827  23.865  43.032   6.197
 4092POPC   D2A52828  23.684  43.229   6.578
 4092POPC   C3A52829  23.871  43.175   6.969
 4092POPC   C4A52830  24.093  42.974   7.300
 4092POPC   C1B52831  23.435  43.312   6.142
 4092POPC   C2B52832  23.304  43.568   6.533
 4092POPC   C3B52833  23.433  43.460   6.978
 4092POPC   C4B52834  23.647  43.432   7.339
 4093POPC   NC352835   8.447  35.730   5.217
 4093POPC   PO452836   8.150  36.289   5.394
 4093POPC   GL152837   7.968  36.097   5.797
 4093POPC   GL252838   8.141  35.783   5.877
 4093POPC   C1A52839   8.063  36.099   6.273
 4093POPC   D2A52840   8.413  36.155   6.602
 4093POPC   C3A52841   8.223  36.267   6.996
 4093POPC   C4A52842   7.831  36.441   7.189
 4093POPC   C1B52843   8.471  35.792   6.247
 4093POPC   C2B52844   8.441  35.599   6.617
 4093POPC   C3B52845   8.492  35.781   6.970
 4093POPC   C4B52846   8.495  35.917   7.378
 4094POPC   NC352847  27.520  43.368   5.099
 4094POPC   PO452848  28.001  43.086   5.461
 4094POPC   GL152849  27.651  42.949   5.809
 4094POPC   GL252850  27.295  43.081   5.775
 4094POPC   C1A52851  27.604  42.948   6.278
 4094POPC   D2A52852  27.885  42.798   6.635
 4094POPC   C3A52853  27.874  42.988   7.050
 4094POPC   C4A52854  27.612  42.768   7.342
 4094POPC   C1B52855  27.319  43.390   6.124
 4094POPC   C2B52856  27.148  43.558   6.523
 4094POPC   C3B52857  27.135  43.489   6.971
 4094POPC   C4B52858  27.328  43.154   7.201
 4095POPC   NC352859  26.694   7.989   5.263
 4095POPC   PO452860  27.128   8.488   5.208
 4095POPC   GL152861  26.908   8.395   5.637
 4095POPC   GL252862  26.548   8.382   5.616
 4095POPC   C1A52863  26.857   8.146   6.072
 4095POPC   D2A52864  27.000   7.943   6.498
 4095POPC   C3A52865  26.783   8.047   6.878
 4095POPC   C4A52866  26.908   8.039   7.326
 4095POPC   C1B52867  26.406   8.418   6.035
 4095POPC   C2B52868  26.398   8.336   6.473
 4095POPC   C3B52869  26.389   8.371   6.911
 4095POPC   C4B52870  26.554   8.397   7.315
 4096POPC   NC352871  29.790  11.166   5.136
 4096POPC   PO452872  30.150  11.765   5.212
 4096POPC   GL152873  29.988  11.422   5.554
 4096POPC   GL252874  30.154  11.114   5.750
 4096POPC   C1A52875  29.835  11.391   6.016
 4096POPC   D2A52876  29.917  11.364   6.465
 4096POPC   C3A52877  29.677  11.383   6.869
 4096POPC   C4A52878  29.851  11.582   7.244
 4096POPC   C1B52879  30.332  11.155   6.205
 4096POPC   C2B52880  30.317  11.130   6.664
 4096POPC   C3B52881  30.218  11.245   7.119
 4096POPC   C4B52882  30.022  10.966   7.470
 4097POPC   NC352883  14.537  36.920   5.358
 4097POPC   PO452884  14.158  36.418   5.645
 4097POPC   GL152885  14.401  36.724   5.870
 4097POPC   GL252886  14.743  36.814   5.801
 4097POPC   C1A52887  14.253  37.053   6.145
 4097POPC   D2A52888  13.988  37.008   6.511
 4097POPC   C3A52889  14.154  36.843   6.889
 4097POPC   C4A52890  14.300  37.041   7.240
 4097POPC   C1B52891  14.757  36.938   6.210
 4097POPC   C2B52892  14.544  36.910   6.582
 4097POPC   C3B52893  14.646  36.734   6.992
 4097POPC   C4B52894  14.649  36.765   7.454
 4098POPC   NC352895  38.446  44.265   5.115
 4098POPC   PO452896  38.392  44.916   5.296
 4098POPC   GL152897  38.368  44.888   5.757
 4098POPC   GL252898  38.699  44.772   5.837
 4098POPC   C1A52899  38.392  44.881   6.236
 4098POPC   D2A52900  38.230  44.600   6.578
 4098POPC   C3A52901  38.434  44.586   6.986
 4098POPC   C4A52902  38.399  44.846   7.396
 4098POPC   C1B52903  38.707  44.458   6.178
 4098POPC   C2B52904  38.761  44.591   6.572
 4098POPC   C3B52905  38.838  44.887   6.880
 4098POPC   C4B52906  38.851  44.661   7.262
 4099POPC   NC352907  29.306   8.264   5.452
 4099POPC   PO452908  28.784   7.891   5.524
 4099POPC   GL152909  29.049   8.032   5.846
 4099POPC   GL252910  28.807   8.295   5.901
 4099POPC   C1A52911  29.227   7.911   6.260
 4099POPC   D2A52912  28.951   7.776   6.594
 4099POPC   C3A52913  28.990   8.018   6.986
 4099POPC   C4A52914  29.013   8.006   7.442
 4099POPC   C1B52915  29.085   8.418   6.229
 4099POPC   C2B52916  29.300   8.303   6.626
 4099POPC   C3B52917  29.475   8.199   7.040
 4099POPC   C4B52918  29.294   8.409   7.368
 4100POPC   NC352919  31.287  10.898   5.422
 4100POPC   PO452920  31.314  10.215   5.337
 4100POPC   GL152921  31.412  10.365   5.750
 4100POPC   GL252922  31.281  10.166   5.976
 4100POPC   C1A52923  31.756  10.531   6.041
 4100POPC   D2A52924  31.941  10.642   6.459
 4100POPC   C3A52925  31.781  10.552   6.871
 4100POPC   C4A52926  31.476  10.695   7.124
 4100POPC   C1B52927  31.330  10.442   6.297
 4100POPC   C2B52928  31.315  10.454   6.705
 4100POPC   C3B52929  31.359  10.211   7.071
 4100POPC   C4B52930  31.246  10.375   7.469
 4101POPC   NC352931  40.864  17.850   5.315
 4101POPC   PO452932  40.473  18.410   5.272
 4101POPC   GL152933  40.629  18.176   5.662
 4101POPC   GL252934  40.993  18.045   5.786
 4101POPC   C1A52935  40.581  18.053   6.104
 4101POPC   D2A52936  40.898  18.034   6.431
 4101POPC   C3A52937  40.780  18.020   6.862
 4101POPC   C4A52938  40.646  18.342   7.173
 4101POPC   C1B52939  41.181  18.330   6.128
 4101POPC   C2B52940  41.300  18.351   6.607
 4101POPC   C3B52941  41.161  18.312   7.054
 4101POPC   C4B52942  41.021  18.103   7.442
 4102POPC   NC352943  27.420  25.267   5.312
 4102POPC   PO452944  27.954  25.077   5.603
 4102POPC   GL152945  27.562  25.131   5.821
 4102POPC   GL252946  27.287  24.910   5.695
 4102POPC   C1A52947  27.437  25.311   6.247
 4102POPC   D2A52948  27.461  25.656   6.575
 4102POPC   C3A52949  27.582  25.504   6.987
 4102POPC   C4A52950  27.289  25.595   7.326
 4102POPC   C1B52951  27.307  24.803   6.135
 4102POPC   C2B52952  27.395  24.841   6.585
 4102POPC   C3B52953  27.226  24.884   6.999
 4102POPC   C4B52954  27.517  25.089   7.298
 4103POPC   NC352955  28.227   3.701   5.450
 4103POPC   PO452956  28.778   3.342   5.322
 4103POPC   GL152957  28.573   3.404   5.713
 4103POPC   GL252958  28.226   3.369   5.872
 4103POPC   C1A52959  28.700   3.294   6.134
 4103POPC   D2A52960  28.505   3.383   6.517
 4103POPC   C3A52961  28.552   3.594   6.905
 4103POPC   C4A52962  28.381   3.398   7.266
 4103POPC   C1B52963  28.449   3.743   6.092
 4103POPC   C2B52964  28.471   3.920   6.505
 4103POPC   C3B52965  28.162   3.956   6.800
 4103POPC   C4B52966  28.035   3.839   7.185
 4104POPC   NC352967  37.886  34.832   5.172
 4104POPC   PO452968  37.480  34.404   5.411
 4104POPC   GL152969  37.622  34.526   5.801
 4104POPC   GL252970  37.978  34.610   5.700
 4104POPC   C1A52971  37.517  34.325   6.193
 4104POPC   D2A52972  37.663  34.149   6.566
 4104POPC   C3A52973  37.391  34.183   6.918
 4104POPC   C4A52974  37.644  34.168   7.246
 4104POPC   C1B52975  38.009  34.481   6.146
 4104POPC   C2B52976  37.903  34.601   6.560
 4104POPC   C3B52977  37.796  34.585   6.984
 4104POPC   C4B52978  37.458  34.676   7.271
 4105POPC   NC352979   2.021  23.054   5.206
 4105POPC   PO452980   1.643  22.635   5.664
 4105POPC   GL152981   1.967  22.880   5.880
 4105POPC   GL252982   1.878  23.155   5.694
 4105POPC   C1A52983   2.126  23.204   6.222
 4105POPC   D2A52984   2.256  23.313   6.681
 4105POPC   C3A52985   2.153  22.990   6.991
 4105POPC   C4A52986   1.856  22.677   7.106
 4105POPC   C1B52987   1.607  23.255   6.050
 4105POPC   C2B52988   1.619  23.326   6.513
 4105POPC   C3B52989   1.647  23.176   6.943
 4105POPC   C4B52990   1.857  23.203   7.363
 4106POPC   NC352991   7.742  10.844   5.465
 4106POPC   PO452992   7.286  10.316   5.447
 4106POPC   GL152993   7.159  10.389   5.854
 4106POPC   GL252994   7.354  10.687   5.860
 4106POPC   C1A52995   7.291  10.336   6.272
 4106POPC   D2A52996   7.126  10.330   6.689
 4106POPC   C3A52997   7.463  10.335   6.988
 4106POPC   C4A52998   7.282  10.402   7.370
 4106POPC   C1B52999   7.687  10.853   6.156
 4106POPC   C2B53000   7.856  10.967   6.589
 4106POPC   C3B53001   7.635  10.841   6.996
 4106POPC   C4B53002   7.695  10.684   7.416
 4107POPC   NC353003  40.566   3.249   5.271
 4107POPC   PO453004  41.087   3.683   5.417
 4107POPC   GL153005  40.801   3.662   5.764
 4107POPC   GL253006  40.827   4.009   5.863
 4107POPC   C1A53007  40.738   3.378   6.139
 4107POPC   D2A53008  40.624   3.447   6.569
 4107POPC   C3A53009  40.743   3.327   6.946
 4107POPC   C4A53010  40.801   3.426   7.310
 4107POPC   C1B53011  40.604   3.877   6.229
 4107POPC   C2B53012  40.451   3.903   6.648
 4107POPC   C3B53013  40.647   3.837   7.041
 4107POPC   C4B53014  40.900   3.953   7.390
 4108POPC   NC353015   3.497  20.310   5.349
 4108POPC   PO453016   3.795  20.872   5.309
 4108POPC   GL153017   3.553  20.722   5.665
 4108POPC   GL253018   3.821  20.483   5.764
 4108POPC   C1A53019   3.461  20.627   6.123
 4108POPC   D2A53020   3.611  20.867   6.522
 4108POPC   C3A53021   3.538  20.737   6.934
 4108POPC   C4A53022   3.250  20.781   7.285
 4108POPC   C1B53023   3.944  20.615   6.216
 4108POPC   C2B53024   4.006  20.562   6.679
 4108POPC   C3B53025   4.045  20.820   7.051
 4108POPC   C4B53026   3.736  20.997   7.321
 4109POPC   NC353027  27.950  28.016   5.360
 4109POPC   PO453028  27.484  28.518   5.548
 4109POPC   GL153029  27.493  28.356   5.933
 4109POPC   GL253030  27.225  28.165   5.981
 4109POPC   C1A53031  27.561  28.531   6.351
 4109POPC   D2A53032  27.675  28.779   6.714
 4109POPC   C3A53033  27.533  28.617   7.112
 4109POPC   C4A53034  27.891  28.394   7.145
 4109POPC   C1B53035  27.521  28.024   6.325
 4109POPC   C2B53036  27.530  28.209   6.746
 4109POPC   C3B53037  27.439  28.061   7.092
 4109POPC   C4B53038  27.803  27.917   7.198
 4110POPC   NC353039  30.302   2.206   5.387
 4110POPC   PO453040  30.764   1.750   5.422
 4110POPC   GL153041  30.823   1.960   5.798
 4110POPC   GL253042  30.512   2.111   5.829
 4110POPC   C1A53043  30.843   2.121   6.207
 4110POPC   D2A53044  30.690   2.048   6.608
 4110POPC   C3A53045  30.871   2.187   7.000
 4110POPC   C4A53046  30.896   1.977   7.402
 4110POPC   C1B53047  30.307   2.153   6.198
 4110POPC   C2B53048  30.257   2.307   6.594
 4110POPC   C3B53049  30.337   2.147   7.009
 4110POPC   C4B53050  30.488   2.278   7.403
 4111POPC   NC353051   6.432  11.519   5.409
 4111POPC   PO453052   7.118  11.288   5.405
 4111POPC   GL153053   6.893  11.382   5.777
 4111POPC   GL253054   6.578  11.204   5.849
 4111POPC   C1A53055   6.840  11.454   6.232
 4111POPC   D2A53056   6.946  11.204   6.597
 4111POPC   C3A53057   6.774  11.272   7.005
 4111POPC   C4A53058   6.815  11.552   7.384
 4111POPC   C1B53059   6.526  11.024   6.293
 4111POPC   C2B53060   6.224  11.032   6.661
 4111POPC   C3B53061   6.263  11.293   7.047
 4111POPC   C4B53062   6.515  11.119   7.439
 4112POPC   NC353063  14.309  26.780   5.374
 4112POPC   PO453064  14.871  26.855   5.557
 4112POPC   GL153065  14.574  26.668   5.815
 4112POPC   GL253066  14.420  26.988   5.861
 4112POPC   C1A53067  14.410  26.565   6.245
 4112POPC   D2A53068  14.245  26.550   6.693
 4112POPC   C3A53069  14.364  26.874   7.008
 4112POPC   C4A53070  14.161  26.968   7.446
 4112POPC   C1B53071  14.614  27.062   6.297
 4112POPC   C2B53072  14.619  27.256   6.755
 4112POPC   C3B53073  14.428  27.348   7.203
 4112POPC   C4B53074  14.539  27.212   7.663
 4113POPC   NC353075   7.855  17.395   5.346
 4113POPC   PO453076   8.378  17.780   5.478
 4113POPC   GL153077   8.111  17.540   5.770
 4113POPC   GL253078   8.228  17.181   5.767
 4113POPC   C1A53079   7.956  17.366   6.173
 4113POPC   D2A53080   7.822  17.547   6.563
 4113POPC   C3A53081   7.972  17.388   6.948
 4113POPC   C4A53082   8.071  17.652   7.315
 4113POPC   C1B53083   8.485  17.348   6.146
 4113POPC   C2B53084   8.392  17.432   6.596
 4113POPC   C3B53085   8.475  17.387   7.043
 4113POPC   C4B53086   8.246  17.183   7.341
 4114POPC   NC353087  33.982  23.172   5.372
 4114POPC   PO453088  34.099  22.518   5.552
 4114POPC   GL153089  33.877  22.822   5.814
 4114POPC   GL253090  34.045  23.144   5.901
 4114POPC   C1A53091  33.668  22.840   6.224
 4114POPC   D2A53092  33.842  22.689   6.621
 4114POPC   C3A53093  34.055  22.919   6.932
 4114POPC   C4A53094  33.997  22.791   7.377
 4114POPC   C1B53095  33.862  23.286   6.322
 4114POPC   C2B53096  33.583  23.140   6.669
 4114POPC   C3B53097  33.618  23.053   7.123
 4114POPC   C4B53098  33.841  23.260   7.441
 4115POPC   NC353099  42.179  32.211   5.363
 4115POPC   PO453100  42.519  31.801   5.142
 4115POPC   GL153101  42.589  32.233   5.609
 4115POPC   GL253102  42.336  32.471   5.789
 4115POPC   C1A53103  42.593  32.158   6.103
 4115POPC   D2A53104  42.662  32.321   6.550
 4115POPC   C3A53105  42.402  32.423   6.924
 4115POPC   C4A53106  42.566  32.266   7.326
 4115POPC   C1B53107  42.192  32.447   6.247
 4115POPC   C2B53108  41.967  32.593   6.634
 4115POPC   C3B53109  41.892  32.475   7.070
 4115POPC   C4B53110  42.083  32.297   7.457
 4116POPC   NC353111  23.228  33.168   5.636
 4116POPC   PO453112  22.657  33.059   5.315
 4116POPC   GL153113  22.720  32.908   5.765
 4116POPC   GL253114  23.028  32.734   5.879
 4116POPC   C1A53115  22.630  32.808   6.231
 4116POPC   D2A53116  22.761  32.990   6.623
 4116POPC   C3A53117  22.866  32.811   7.024
 4116POPC   C4A53118  22.672  33.064   7.330
 4116POPC   C1B53119  23.122  32.988   6.254
 4116POPC   C2B53120  23.249  33.154   6.657
 4116POPC   C3B53121  23.150  33.253   7.066
 4116POPC   C4B53122  23.120  33.247   7.489
 4117POPC   NC353123  23.702  17.019   5.533
 4117POPC   PO453124  24.023  16.353   5.477
 4117POPC   GL153125  23.908  16.642   5.782
 4117POPC   GL253126  23.552  16.539   5.704
 4117POPC   C1A53127  23.804  16.733   6.203
 4117POPC   D2A53128  23.936  16.665   6.648
 4117POPC   C3A53129  23.837  17.006   6.934
 4117POPC   C4A53130  23.469  16.985   7.197
 4117POPC   C1B53131  23.438  16.373   6.092
 4117POPC   C2B53132  23.440  16.205   6.516
 4117POPC   C3B53133  23.545  16.394   6.904
 4117POPC   C4B53134  23.266  16.506   7.244
 4118POPC   NC353135  12.247  43.461   5.659
 4118POPC   PO453136  12.135  44.021   5.252
 4118POPC   GL153137  12.023  43.950   5.668
 4118POPC   GL253138  11.660  44.004   5.652
 4118POPC   C1A53139  12.094  43.974   6.126
 4118POPC   D2A53140  12.328  43.736   6.454
 4118POPC   C3A53141  12.305  43.872   6.893
 4118POPC   C4A53142  12.201  44.235   7.172
 4118POPC   C1B53143  11.584  43.924   6.087
 4118POPC   C2B53144  11.551  44.031   6.528
 4118POPC   C3B53145  11.746  44.093   6.938
 4118POPC   C4B53146  11.853  43.858   7.293
 4119POPC   NC353147   1.972   8.882   5.407
 4119POPC   PO453148   2.547   8.857   5.481
 4119POPC   GL153149   2.219   9.016   5.827
 4119POPC   GL253150   1.800   9.026   5.858
 4119POPC   C1A53151   2.131   9.088   6.259
 4119POPC   D2A53152   2.289   9.240   6.650
 4119POPC   C3A53153   2.242   8.921   6.979
 4119POPC   C4A53154   2.142   9.097   7.387
 4119POPC   C1B53155   1.752   8.764   6.250
 4119POPC   C2B53156   1.913   8.587   6.650
 4119POPC   C3B53157   1.815   8.642   7.108
 4119POPC   C4B53158   1.901   8.643   7.565
 4120POPC   NC353159  26.995  42.800   5.446
 4120POPC   PO453160  27.094  43.453   5.293
 4120POPC   GL153161  26.821  43.380   5.702
 4120POPC   GL253162  26.683  43.036   5.789
 4120POPC   C1A53163  26.809  43.374   6.162
 4120POPC   D2A53164  27.010  43.051   6.402
 4120POPC   C3A53165  26.978  42.975   6.869
 4120POPC   C4A53166  26.772  43.189   7.244
 4120POPC   C1B53167  26.482  42.982   6.205
 4120POPC   C2B53168  26.546  43.099   6.641
 4120POPC   C3B53169  26.496  42.818   7.023
 4120POPC   C4B53170  26.299  42.713   7.428
 4121POPC   NC353171   6.315  40.365   5.426
 4121POPC   PO453172   6.813  40.089   5.189
 4121POPC   GL153173   6.741  40.271   5.706
 4121POPC   GL253174   6.486  40.125   5.866
 4121POPC   C1A53175   6.884  40.175   6.190
 4121POPC   D2A53176   6.969  40.362   6.596
 4121POPC   C3A53177   6.904  40.132   6.984
 4121POPC   C4A53178   6.749  39.920   7.356
 4121POPC   C1B53179   6.404  40.051   6.282
 4121POPC   C2B53180   6.466  40.239   6.646
 4121POPC   C3B53181   6.404  40.113   7.016
 4121POPC   C4B53182   6.543  40.364   7.345
 4122POPC   NC353183  19.520   0.125   5.354
 4122POPC   PO453184  19.148  44.530   5.181
 4122POPC   GL153185  19.105  44.656   5.646
 4122POPC   GL253186  19.398  44.570   5.856
 4122POPC   C1A53187  18.938  44.563   6.088
 4122POPC   D2A53188  18.836  44.768   6.488
 4122POPC   C3A53189  18.954  44.612   6.901
 4122POPC   C4A53190  19.129  44.895   7.218
 4122POPC   C1B53191  19.397  44.751   6.298
 4122POPC   C2B53192  19.385  44.819   6.755
 4122POPC   C3B53193  19.501  44.566   7.142
 4122POPC   C4B53194  19.401  44.567   7.610
 4123POPC   NC353195   7.966  34.790   5.418
 4123POPC   PO453196   8.617  34.760   5.494
 4123POPC   GL153197   8.335  34.602   5.794
 4123POPC   GL253198   8.455  34.288   5.922
 4123POPC   C1A53199   8.320  34.745   6.226
 4123POPC   D2A53200   8.502  34.714   6.650
 4123POPC   C3A53201   8.194  34.782   6.961
 4123POPC   C4A53202   8.163  34.604   7.326
 4123POPC   C1B53203   8.600  34.287   6.320
 4123POPC   C2B53204   8.570  34.106   6.735
 4123POPC   C3B53205   8.544  34.291   7.158
 4123POPC   C4B53206   8.450  34.321   7.643
 4124POPC   NC353207  40.631  18.779   5.056
 4124POPC   PO453208  40.783  19.327   5.390
 4124POPC   GL153209  40.690  19.080   5.787
 4124POPC   GL253210  40.539  18.736   5.703
 4124POPC   C1A53211  40.757  19.064   6.249
 4124POPC   D2A53212  40.983  19.070   6.654
 4124POPC   C3A53213  40.755  19.287   6.953
 4124POPC   C4A53214  40.469  19.303   7.297
 4124POPC   C1B53215  40.524  18.587   6.157
 4124POPC   C2B53216  40.496  18.758   6.603
 4124POPC   C3B53217  40.563  18.832   7.063
 4124POPC   C4B53218  40.390  18.690   7.464
 4125POPC   NC353219  21.600  34.096   5.516
 4125POPC   PO453220  21.182  33.647   5.390
 4125POPC   GL153221  21.327  33.744   5.758
 4125POPC   GL253222  21.099  34.053   5.779
 4125POPC   C1A53223  21.577  33.614   6.079
 4125POPC   D2A53224  21.509  33.680   6.490
 4125POPC   C3A53225  21.689  33.793   6.858
 4125POPC   C4A53226  21.499  33.637   7.233
 4125POPC   C1B53227  21.282  34.038   6.186
 4125POPC   C2B53228  21.358  34.142   6.618
 4125POPC   C3B53229  21.266  34.048   7.035
 4125POPC   C4B53230  21.625  34.174   7.271
 4126POPC   NC353231  33.488   2.746   5.260
 4126POPC   PO453232  32.818   2.777   5.277
 4126POPC   GL153233  32.978   2.820   5.702
 4126POPC   GL253234  33.187   3.123   5.705
 4126POPC   C1A53235  32.934   2.646   6.134
 4126POPC   D2A53236  33.025   2.430   6.494
 4126POPC   C3A53237  32.939   2.621   6.867
 4126POPC   C4A53238  33.185   2.658   7.210
 4126POPC   C1B53239  33.129   3.144   6.141
 4126POPC   C2B53240  33.262   2.984   6.535
 4126POPC   C3B53241  33.124   3.097   6.919
 4126POPC   C4B53242  32.959   3.126   7.300
 4127POPC   NC353243  41.201   8.652   5.433
 4127POPC   PO453244  40.597   8.943   5.473
 4127POPC   GL153245  40.786   8.730   5.833
 4127POPC   GL253246  41.095   8.922   5.866
 4127POPC   C1A53247  40.711   8.793   6.298
 4127POPC   D2A53248  40.783   8.989   6.700
 4127POPC   C3A53249  40.706   8.833   7.109
 4127POPC   C4A53250  40.624   8.976   7.490
 4127POPC   C1B53251  41.184   8.986   6.292
 4127POPC   C2B53252  41.239   9.202   6.665
 4127POPC   C3B53253  41.096   9.173   7.091
 4127POPC   C4B53254  41.122   8.916   7.444
 4128POPC   NC353255  38.773  27.741   5.684
 4128POPC   PO453256  39.287  27.348   5.353
 4128POPC   GL153257  39.422  27.461   5.772
 4128POPC   GL253258  39.186  27.657   5.948
 4128POPC   C1A53259  39.413  27.289   6.200
 4128POPC   D2A53260  39.104  27.334   6.533
 4128POPC   C3A53261  39.290  27.332   6.930
 4128POPC   C4A53262  39.234  27.476   7.349
 4128POPC   C1B53263  39.074  27.841   6.350
 4128POPC   C2B53264  39.071  27.807   6.809
 4128POPC   C3B53265  39.243  27.968   7.201
 4128POPC   C4B53266  39.085  27.925   7.612
 4129POPC   NC353267  26.786  15.656   5.439
 4129POPC   PO453268  26.692  16.310   5.570
 4129POPC   GL153269  26.929  16.033   5.849
 4129POPC   GL253270  26.683  15.799   5.920
 4129POPC   C1A53271  27.126  15.797   6.196
 4129POPC   D2A53272  27.232  15.807   6.649
 4129POPC   C3A53273  26.984  16.097   6.884
 4129POPC   C4A53274  26.985  16.284   7.274
 4129POPC   C1B53275  26.508  15.828   6.327
 4129POPC   C2B53276  26.569  15.767   6.763
 4129POPC   C3B53277  26.693  15.790   7.192
 4129POPC   C4B53278  27.155  15.723   7.220
 4130POPC   NC353279  37.695  12.383   5.571
 4130POPC   PO453280  38.024  11.772   5.692
 4130POPC   GL153281  37.817  12.044   5.972
 4130POPC   GL253282  37.468  12.008   5.872
 4130POPC   C1A53283  37.733  12.104   6.412
 4130POPC   D2A53284  37.416  11.991   6.723
 4130POPC   C3A53285  37.632  11.978   7.123
 4130POPC   C4A53286  37.712  12.114   7.552
 4130POPC   C1B53287  37.265  12.164   6.225
 4130POPC   C2B53288  37.375  12.448   6.497
 4130POPC   C3B53289  37.670  12.417   6.839
 4130POPC   C4B53290  37.505  12.465   7.240
 4131POPC   NC353291  39.560  41.709   5.399
 4131POPC   PO453292  38.963  41.694   5.315
 4131POPC   GL153293  39.046  41.622   5.747
 4131POPC   GL253294  38.861  41.315   5.837
 4131POPC   C1A53295  39.103  41.655   6.180
 4131POPC   D2A53296  39.045  41.479   6.583
 4131POPC   C3A53297  39.226  41.713   6.881
 4131POPC   C4A53298  39.084  41.798   7.267
 4131POPC   C1B53299  39.083  41.149   6.193
 4131POPC   C2B53300  39.380  41.106   6.535
 4131POPC   C3B53301  39.307  41.215   6.948
 4131POPC   C4B53302  38.913  41.318   7.094
 4132POPC   NC353303   8.943  23.076   5.048
 4132POPC   PO453304   9.290  22.792   5.516
 4132POPC   GL153305   9.138  22.958   5.899
 4132POPC   GL253306   8.809  22.910   5.957
 4132POPC   C1A53307   9.127  22.868   6.343
 4132POPC   D2A53308   8.865  23.035   6.638
 4132POPC   C3A53309   8.945  22.847   7.032
 4132POPC   C4A53310   8.764  22.631   7.340
 4132POPC   C1B53311   8.484  23.177   6.178
 4132POPC   C2B53312   8.443  23.338   6.602
 4132POPC   C3B53313   8.492  23.134   6.995
 4132POPC   C4B53314   8.389  23.013   7.422
 4133POPC   NC353315  40.420  25.345   5.378
 4133POPC   PO453316  41.075  25.131   5.423
 4133POPC   GL153317  40.866  25.404   5.740
 4133POPC   GL253318  40.560  25.529   5.835
 4133POPC   C1A53319  40.788  25.216   6.158
 4133POPC   D2A53320  40.699  25.232   6.576
 4133POPC   C3A53321  41.009  25.300   6.883
 4133POPC   C4A53322  40.873  25.263   7.296
 4133POPC   C1B53323  40.447  25.729   6.195
 4133POPC   C2B53324  40.570  25.741   6.613
 4133POPC   C3B53325  40.564  25.543   6.989
 4133POPC   C4B53326  40.352  25.431   7.330
 4134POPC   NC353327  29.056  41.333   5.270
 4134POPC   PO453328  29.606  41.569   5.432
 4134POPC   GL153329  29.300  41.523   5.785
 4134POPC   GL253330  28.908  41.469   5.739
 4134POPC   C1A53331  29.424  41.636   6.222
 4134POPC   D2A53332  29.552  41.406   6.577
 4134POPC   C3A53333  29.384  41.485   6.962
 4134POPC   C4A53334  29.127  41.576   7.307
 4134POPC   C1B53335  28.932  41.517   6.148
 4134POPC   C2B53336  29.038  41.420   6.551
 4134POPC   C3B53337  28.849  41.440   6.911
 4134POPC   C4B53338  28.580  41.585   7.220
 4135POPC   NC353339  19.339  22.415   5.338
 4135POPC   PO453340  18.786  22.050   5.565
 4135POPC   GL153341  19.158  22.124   5.745
 4135POPC   GL253342  19.164  22.445   5.818
 4135POPC   C1A53343  19.248  22.080   6.169
 4135POPC   D2A53344  19.245  22.312   6.537
 4135POPC   C3A53345  19.015  22.132   6.889
 4135POPC   C4A53346  19.089  22.233   7.298
 4135POPC   C1B53347  18.855  22.424   6.192
 4135POPC   C2B53348  18.733  22.498   6.646
 4135POPC   C3B53349  18.727  22.548   7.105
 4135POPC   C4B53350  18.840  22.559   7.583
 4136POPC   NC353351  40.182  29.437   5.488
 4136POPC   PO453352  39.740  28.902   5.516
 4136POPC   GL153353  39.835  29.203   5.824
 4136POPC   GL253354  40.165  29.127   5.903
 4136POPC   C1A53355  39.650  29.429   6.171
 4136POPC   D2A53356  39.552  29.232   6.541
 4136POPC   C3A53357  39.669  29.321   6.955
 4136POPC   C4A53358  39.785  28.997   7.216
 4136POPC   C1B53359  40.027  29.114   6.338
 4136POPC   C2B53360  40.261  29.140   6.739
 4136POPC   C3B53361  40.290  28.986   7.169
 4136POPC   C4B53362  40.108  29.150   7.568
 4137POPC   NC353363  39.124  26.915   5.364
 4137POPC   PO453364  39.550  26.644   5.742
 4137POPC   GL153365  39.180  26.873   5.907
 4137POPC   GL253366  38.972  27.191   5.795
 4137POPC   C1A53367  39.200  26.837   6.349
 4137POPC   D2A53368  39.382  26.859   6.756
 4137POPC   C3A53369  39.414  26.665   7.160
 4137POPC   C4A53370  39.548  26.584   7.595
 4137POPC   C1B53371  38.768  27.065   6.221
 4137POPC   C2B53372  38.845  26.919   6.699
 4137POPC   C3B53373  38.992  26.966   7.117
 4137POPC   C4B53374  38.869  27.131   7.515
 4138POPC   NC353375  42.874   1.306   5.464
 4138POPC   PO453376  43.254   0.714   5.410
 4138POPC   GL153377  43.198   1.024   5.764
 4138POPC   GL253378  43.495   1.160   5.857
 4138POPC   C1A53379  43.036   1.277   6.142
 4138POPC   D2A53380  43.137   1.252   6.589
 4138POPC   C3A53381  43.080   1.493   6.972
 4138POPC   C4A53382  43.096   1.178   7.305
 4138POPC   C1B53383  43.445   0.969   6.265
 4138POPC   C2B53384  43.546   0.784   6.675
 4138POPC   C3B53385  43.369   0.795   7.088
 4138POPC   C4B53386  43.560   0.981   7.468
 4139POPC   NC353387  43.190  41.241   5.464
 4139POPC   PO453388  42.907  40.594   5.435
 4139POPC   GL153389  42.930  40.918   5.766
 4139POPC   GL253390  42.831  40.663   5.964
 4139POPC   C1A53391  43.162  41.037   6.181
 4139POPC   D2A53392  43.055  40.942   6.620
 4139POPC   C3A53393  43.296  40.821   6.990
 4139POPC   C4A53394  43.094  40.824   7.419
 4139POPC   C1B53395  42.798  40.330   6.244
 4139POPC   C2B53396  42.978  40.431   6.621
 4139POPC   C3B53397  42.815  40.605   7.006
 4139POPC   C4B53398  42.830  40.394   7.393
 4140POPC   NC353399   6.049  15.618   5.403
 4140POPC   PO453400   5.875  14.946   5.476
 4140POPC   GL153401   5.984  15.193   5.845
 4140POPC   GL253402   5.817  15.534   5.870
 4140POPC   C1A53403   5.808  15.143   6.270
 4140POPC   D2A53404   5.773  15.380   6.632
 4140POPC   C3A53405   5.975  15.305   7.028
 4140POPC   C4A53406   6.063  15.354   7.460
 4140POPC   C1B53407   5.524  15.620   6.227
 4140POPC   C2B53408   5.332  15.639   6.656
 4140POPC   C3B53409   5.447  15.378   7.043
 4140POPC   C4B53410   5.555  15.414   7.474
 4141POPC   NC353411   7.037  22.803   5.415
 4141POPC   PO453412   7.465  23.194   5.222
 4141POPC   GL153413   7.519  23.182   5.702
 4141POPC   GL253414   7.347  22.891   5.816
 4141POPC   C1A53415   7.579  23.164   6.194
 4141POPC   D2A53416   7.612  22.760   6.504
 4141POPC   C3A53417   7.561  22.839   6.963
 4141POPC   C4A53418   7.462  23.254   7.130
 4141POPC   C1B53419   7.179  22.846   6.240
 4141POPC   C2B53420   7.203  23.057   6.654
 4141POPC   C3B53421   7.024  22.994   7.075
 4141POPC   C4B53422   7.075  22.745   7.435
 4142POPC   NC353423  33.803  24.963   5.449
 4142POPC   PO453424  33.479  24.311   5.407
 4142POPC   GL153425  33.597  24.328   5.807
 4142POPC   GL253426  33.954  24.423   5.787
 4142POPC   C1A53427  33.538  24.622   6.131
 4142POPC   D2A53428  33.833  24.597   6.449
 4142POPC   C3A53429  33.721  24.517   6.887
 4142POPC   C4A53430  33.834  24.538   7.316
 4142POPC   C1B53431  34.009  24.176   6.173
 4142POPC   C2B53432  34.161  24.225   6.613
 4142POPC   C3B53433  34.071  24.144   7.068
 4142POPC   C4B53434  34.101  24.124   7.539
 4143POPC   NC353435  43.603  21.534   5.591
 4143POPC   PO453436  44.200  21.692   5.573
 4143POPC   GL153437  44.000  21.417   5.900
 4143POPC   GL253438  43.661  21.559   6.083
 4143POPC   C1A53439  43.982  21.216   6.298
 4143POPC   D2A53440  43.813  21.536   6.594
 4143POPC   C3A53441  43.690  21.455   7.009
 4143POPC   C4A53442  43.881  21.084   7.121
 4143POPC   C1B53443  43.498  21.149   6.205
 4143POPC   C2B53444  43.640  21.002   6.625
 4143POPC   C3B53445  43.386  21.013   7.006
 4143POPC   C4B53446  43.418  21.052   7.427
 4144POPC   NC353447  44.978   8.212   5.432
 4144POPC   PO453448  44.452   7.836   5.506
 4144POPC   GL153449  44.735   8.001   5.835
 4144POPC   GL253450  44.741   8.370   5.869
 4144POPC   C1A53451  44.956   8.082   6.232
 4144POPC   D2A53452  44.782   8.123   6.660
 4144POPC   C3A53453  44.991   8.021   7.039
 4144POPC   C4A53454  44.920   8.362   7.297
 4144POPC   C1B53455  44.486   8.283   6.251
 4144POPC   C2B53456  44.277   8.248   6.648
 4144POPC   C3B53457  44.438   8.250   7.057
 4144POPC   C4B53458  44.466   8.299   7.497
 4145POPC   NC353459   0.842  13.807   5.310
 4145POPC   PO453460   0.361  13.325   5.387
 4145POPC   GL153461   0.377  13.412   5.810
 4145POPC   GL253462   0.585  13.700   5.811
 4145POPC   C1A53463   0.091  13.367   6.198
 4145POPC   D2A53464   0.065  13.569   6.609
 4145POPC   C3A53465   0.337  13.502   6.927
 4145POPC   C4A53466   0.149  13.403   7.286
 4145POPC   C1B53467   0.420  13.740   6.198
 4145POPC   C2B53468   0.607  13.688   6.538
 4145POPC   C3B53469   0.649  13.921   6.889
 4145POPC   C4B53470   0.565  13.763   7.291
 4146POPC   NC353471  23.794  19.314   5.424
 4146POPC   PO453472  23.684  20.054   5.455
 4146POPC   GL153473  23.737  20.129   5.870
 4146POPC   GL253474  23.538  20.409   5.959
 4146POPC   C1A53475  23.947  19.953   6.229
 4146POPC   D2A53476  24.081  19.675   6.575
 4146POPC   C3A53477  23.798  19.626   6.917
 4146POPC   C4A53478  23.822  19.603   7.359
 4146POPC   C1B53479  23.808  20.449   6.353
 4146POPC   C2B53480  23.888  20.143   6.715
 4146POPC   C3B53481  23.924  20.076   7.161
 4146POPC   C4B53482  23.969  20.332   7.530
 4147POPC   NC353483  31.043  15.620   5.383
 4147POPC   PO453484  31.355  14.994   5.280
 4147POPC   GL153485  31.390  15.282   5.627
 4147POPC   GL253486  31.083  15.199   5.768
 4147POPC   C1A53487  31.550  15.360   6.053
 4147POPC   D2A53488  31.619  15.097   6.429
 4147POPC   C3A53489  31.580  15.241   6.864
 4147POPC   C4A53490  31.497  15.527   7.215
 4147POPC   C1B53491  31.112  15.137   6.219
 4147POPC   C2B53492  31.152  15.049   6.651
 4147POPC   C3B53493  31.101  15.142   7.071
 4147POPC   C4B53494  30.937  15.029   7.468
 4148POPC   NC353495   5.408  31.045   5.432
 4148POPC   PO453496   5.165  30.504   5.710
 4148POPC   GL153497   5.075  30.923   5.848
 4148POPC   GL253498   4.728  30.956   5.758
 4148POPC   C1A53499   5.051  30.908   6.287
 4148POPC   D2A53500   5.213  30.589   6.566
 4148POPC   C3A53501   5.288  30.830   6.920
 4148POPC   C4A53502   5.154  30.958   7.325
 4148POPC   C1B53503   4.648  30.643   6.075
 4148POPC   C2B53504   4.693  30.457   6.481
 4148POPC   C3B53505   4.799  30.603   6.900
 4148POPC   C4B53506   4.592  30.506   7.261
 4149POPC   NC353507  37.096  15.651   5.073
 4149POPC   PO453508  36.679  16.073   5.505
 4149POPC   GL153509  36.733  16.041   5.914
 4149POPC   GL253510  37.073  15.911   6.013
 4149POPC   C1A53511  36.612  15.876   6.283
 4149POPC   D2A53512  36.772  15.745   6.665
 4149POPC   C3A53513  36.528  15.862   7.006
 4149POPC   C4A53514  36.641  16.042   7.390
 4149POPC   C1B53515  37.138  15.557   6.335
 4149POPC   C2B53516  37.171  15.450   6.796
 4149POPC   C3B53517  37.006  15.674   7.170
 4149POPC   C4B53518  37.002  15.555   7.591
 4150POPC   NC353519  22.892  42.881   5.390
 4150POPC   PO453520  23.246  43.360   5.227
 4150POPC   GL153521  23.105  43.375   5.669
 4150POPC   GL253522  23.190  43.040   5.777
 4150POPC   C1A53523  22.949  43.350   6.107
 4150POPC   D2A53524  23.043  43.117   6.507
 4150POPC   C3A53525  22.986  43.257   6.944
 4150POPC   C4A53526  23.169  43.248   7.403
 4150POPC   C1B53527  22.995  42.789   6.087
 4150POPC   C2B53528  22.871  42.636   6.474
 4150POPC   C3B53529  22.848  42.762   6.868
 4150POPC   C4B53530  22.997  42.814   7.262
 4151POPC   NC353531  20.113  24.616   5.009
 4151POPC   PO453532  19.696  24.244   5.416
 4151POPC   GL153533  19.868  24.372   5.808
 4151POPC   GL253534  20.133  24.616   5.780
 4151POPC   C1A53535  19.701  24.414   6.214
 4151POPC   D2A53536  19.599  24.133   6.518
 4151POPC   C3A53537  19.682  24.414   6.853
 4151POPC   C4A53538  19.690  24.397   7.270
 4151POPC   C1B53539  20.195  24.575   6.226
 4151POPC   C2B53540  20.056  24.735   6.648
 4151POPC   C3B53541  20.155  24.522   7.053
 4151POPC   C4B53542  20.186  24.650   7.532
 4152POPC   NC353543  42.758  24.637   5.399
 4152POPC   PO453544  43.405  24.590   5.382
 4152POPC   GL153545  43.234  24.481   5.827
 4152POPC   GL253546  42.928  24.669   5.907
 4152POPC   C1A53547  43.255  24.271   6.269
 4152POPC   D2A53548  43.496  24.169   6.692
 4152POPC   C3A53549  43.408  24.311   7.137
 4152POPC   C4A53550  43.355  24.440   7.617
 4152POPC   C1B53551  43.146  24.817   6.275
 4152POPC   C2B53552  43.200  24.613   6.651
 4152POPC   C3B53553  42.984  24.569   6.984
 4152POPC   C4B53554  42.954  24.311   7.329
 4153POPC   NC353555  18.215  44.417   5.284
 4153POPC   PO453556  18.277  43.759   5.397
 4153POPC   GL153557  18.152  43.884   5.819
 4153POPC   GL253558  18.316  43.590   5.880
 4153POPC   C1A53559  18.281  43.925   6.287
 4153POPC   D2A53560  18.174  44.156   6.656
 4153POPC   C3A53561  18.286  44.177   7.108
 4153POPC   C4A53562  17.996  44.118   7.444
 4153POPC   C1B53563  17.984  43.509   6.163
 4153POPC   C2B53564  17.967  43.538   6.591
 4153POPC   C3B53565  18.059  43.741   6.957
 4153POPC   C4B53566  18.392  43.646   7.220
 4154POPC   NC353567   2.479  31.414   5.326
 4154POPC   PO453568   2.909  31.849   5.571
 4154POPC   GL153569   2.667  31.536   5.790
 4154POPC   GL253570   2.956  31.410   5.933
 4154POPC   C1A53571   2.510  31.290   6.151
 4154POPC   D2A53572   2.666  31.391   6.557
 4154POPC   C3A53573   2.657  31.104   6.897
 4154POPC   C4A53574   2.646  31.374   7.253
 4154POPC   C1B53575   3.047  31.762   6.210
 4154POPC   C2B53576   2.962  31.870   6.605
 4154POPC   C3B53577   2.947  31.623   6.939
 4154POPC   C4B53578   3.077  31.669   7.366
 4155POPC   NC353579  37.222  28.284   5.397
 4155POPC   PO453580  37.843  28.428   5.370
 4155POPC   GL153581  37.637  28.302   5.750
 4155POPC   GL253582  37.528  27.965   5.686
 4155POPC   C1A53583  37.573  28.471   6.185
 4155POPC   D2A53584  37.415  28.622   6.581
 4155POPC   C3A53585  37.617  28.527   6.977
 4155POPC   C4A53586  37.894  28.620   7.330
 4155POPC   C1B53587  37.239  28.119   6.026
 4155POPC   C2B53588  37.258  28.126   6.453
 4155POPC   C3B53589  37.296  28.010   6.879
 4155POPC   C4B53590  37.294  28.242   7.252
 4156POPC   NC353591  44.297  28.938   5.487
 4156POPC   PO453592  43.621  28.919   5.381
 4156POPC   GL153593  43.810  29.112   5.723
 4156POPC   GL253594  44.057  29.353   5.700
 4156POPC   C1A53595  43.898  29.067   6.147
 4156POPC   D2A53596  43.715  29.153   6.532
 4156POPC   C3A53597  43.687  28.912   6.899
 4156POPC   C4A53598  43.784  29.121   7.293
 4156POPC   C1B53599  44.196  29.491   6.102
 4156POPC   C2B53600  44.213  29.301   6.512
 4156POPC   C3B53601  44.158  29.130   6.887
 4156POPC   C4B53602  44.286  29.207   7.280
 4157POPC   NC353603  10.953  10.264   5.412
 4157POPC   PO453604  11.568  10.595   5.273
 4157POPC   GL153605  11.352  10.535   5.673
 4157POPC   GL253606  11.434  10.843   5.843
 4157POPC   C1A53607  11.184  10.479   6.093
 4157POPC   D2A53608  11.197  10.217   6.441
 4157POPC   C3A53609  11.181  10.365   6.861
 4157POPC   C4A53610  11.282  10.089   7.185
 4157POPC   C1B53611  11.594  10.762   6.203
 4157POPC   C2B53612  11.592  10.561   6.553
 4157POPC   C3B53613  11.528  10.768   6.913
 4157POPC   C4B53614  11.388  10.582   7.287
 4158POPC   NC353615   0.347  22.750   5.090
 4158POPC   PO453616   0.805  23.102   5.378
 4158POPC   GL153617   0.693  22.942   5.798
 4158POPC   GL253618   0.310  22.976   5.833
 4158POPC   C1A53619   0.742  22.903   6.266
 4158POPC   D2A53620   0.671  22.894   6.740
 4158POPC   C3A53621   0.250  23.008   6.867
 4158POPC   C4A53622   0.224  23.229   7.242
 4158POPC   C1B53623   0.349  22.627   6.138
 4158POPC   C2B53624   0.458  22.412   6.515
 4158POPC   C3B53625   0.410  22.503   6.941
 4158POPC   C4B53626   0.484  22.778   7.268
 4159POPC   NC353627  18.316  35.822   5.540
 4159POPC   PO453628  18.083  36.508   5.444
 4159POPC   GL153629  18.176  36.270   5.794
 4159POPC   GL253630  18.517  36.198   5.813
 4159POPC   C1A53631  18.155  36.105   6.202
 4159POPC   D2A53632  17.929  36.019   6.555
 4159POPC   C3A53633  18.115  36.001   6.943
 4159POPC   C4A53634  18.087  36.293   7.261
 4159POPC   C1B53635  18.586  36.369   6.192
 4159POPC   C2B53636  18.426  36.354   6.616
 4159POPC   C3B53637  18.563  36.250   7.056
 4159POPC   C4B53638  18.611  36.296   7.502
 4160POPC   NC353639   6.928  22.034   5.145
 4160POPC   PO453640   7.419  22.255   5.562
 4160POPC   GL153641   7.552  22.113   5.955
 4160POPC   GL253642   7.500  22.455   6.058
 4160POPC   C1A53643   7.576  22.081   6.417
 4160POPC   D2A53644   7.353  21.831   6.734
 4160POPC   C3A53645   7.527  21.871   7.147
 4160POPC   C4A53646   7.269  21.974   7.480
 4160POPC   C1B53647   7.133  22.319   6.296
 4160POPC   C2B53648   7.158  22.340   6.719
 4160POPC   C3B53649   7.263  22.338   7.126
 4160POPC   C4B53650   7.506  22.545   7.389
 4161POPC   NC353651  11.236   6.809   5.396
 4161POPC   PO453652  11.238   6.156   5.266
 4161POPC   GL153653  11.246   6.314   5.765
 4161POPC   GL253654  11.234   6.688   5.893
 4161POPC   C1A53655  11.415   6.362   6.238
 4161POPC   D2A53656  11.418   6.664   6.610
 4161POPC   C3A53657  11.294   6.531   7.053
 4161POPC   C4A53658  10.889   6.388   7.236
 4161POPC   C1B53659  11.513   6.987   6.141
 4161POPC   C2B53660  11.797   7.029   6.509
 4161POPC   C3B53661  11.646   7.023   6.925
 4161POPC   C4B53662  11.526   7.065   7.327
 4162POPC   NC353663   9.556   8.082   5.173
 4162POPC   PO453664   9.940   8.507   5.478
 4162POPC   GL153665   9.777   8.236   5.794
 4162POPC   GL253666   9.993   7.981   5.845
 4162POPC   C1A53667   9.534   8.309   6.170
 4162POPC   D2A53668   9.706   8.204   6.536
 4162POPC   C3A53669   9.556   8.330   6.899
 4162POPC   C4A53670   9.673   8.597   7.189
 4162POPC   C1B53671   9.661   7.819   6.151
 4162POPC   C2B53672   9.615   7.689   6.562
 4162POPC   C3B53673   9.814   7.856   6.893
 4162POPC   C4B53674   9.661   7.988   7.257
 4163POPC   NC353675  18.638  12.275   5.505
 4163POPC   PO453676  18.224  11.940   5.158
 4163POPC   GL153677  18.287  12.029   5.750
 4163POPC   GL253678  17.975  12.054   5.921
 4163POPC   C1A53679  18.314  12.276   6.206
 4163POPC   D2A53680  18.477  12.435   6.620
 4163POPC   C3A53681  18.344  12.214   6.982
 4163POPC   C4A53682  18.495  12.020   7.349
 4163POPC   C1B53683  18.225  11.768   6.199
 4163POPC   C2B53684  18.158  11.904   6.600
 4163POPC   C3B53685  18.144  11.733   6.998
 4163POPC   C4B53686  18.205  11.602   7.419
 4164POPC   NC353687  10.890  41.435   5.699
 4164POPC   PO453688  10.528  41.780   5.234
 4164POPC   GL153689  10.358  41.744   5.733
 4164POPC   GL253690  10.215  41.459   5.842
 4164POPC   C1A53691  10.599  41.688   6.202
 4164POPC   D2A53692  10.459  41.567   6.582
 4164POPC   C3A53693  10.669  41.556   6.911
 4164POPC   C4A53694  10.544  41.558   7.299
 4164POPC   C1B53695  10.107  41.732   6.209
 4164POPC   C2B53696  10.033  41.865   6.630
 4164POPC   C3B53697  10.134  41.649   6.996
 4164POPC   C4B53698  10.148  41.858   7.390
 4165POPC   NC353699  10.913  17.405   4.986
 4165POPC   PO453700  10.729  17.412   5.607
 4165POPC   GL153701  10.495  17.607   5.877
 4165POPC   GL253702  10.686  17.919   5.716
 4165POPC   C1A53703  10.301  17.417   6.246
 4165POPC   D2A53704  10.469  17.288   6.647
 4165POPC   C3A53705  10.351  17.426   7.053
 4165POPC   C4A53706  10.705  17.251   7.264
 4165POPC   C1B53707  10.836  17.868   6.143
 4165POPC   C2B53708  10.804  17.690   6.581
 4165POPC   C3B53709  10.829  17.692   7.036
 4165POPC   C4B53710  10.683  17.766   7.487
 4166POPC   NC353711  31.344   4.396   5.525
 4166POPC   PO453712  31.720   3.791   5.498
 4166POPC   GL153713  31.571   4.034   5.839
 4166POPC   GL253714  31.193   4.039   5.848
 4166POPC   C1A53715  31.642   4.391   6.158
 4166POPC   D2A53716  31.741   4.604   6.561
 4166POPC   C3A53717  31.624   4.399   6.951
 4166POPC   C4A53718  31.663   4.530   7.360
 4166POPC   C1B53719  31.149   4.382   6.168
 4166POPC   C2B53720  31.216   4.532   6.574
 4166POPC   C3B53721  31.104   4.421   6.988
 4166POPC   C4B53722  31.043   4.275   7.393
 4167POPC   NC353723   5.853   5.817   5.269
 4167POPC   PO453724   6.240   6.075   5.699
 4167POPC   GL153725   5.965   5.858   5.967
 4167POPC   GL253726   5.777   5.580   5.783
 4167POPC   C1A53727   5.678   6.063   6.285
 4167POPC   D2A53728   5.569   6.222   6.718
 4167POPC   C3A53729   5.859   6.081   7.051
 4167POPC   C4A53730   5.679   5.980   7.478
 4167POPC   C1B53731   5.586   5.555   6.212
 4167POPC   C2B53732   5.625   5.694   6.652
 4167POPC   C3B53733   5.609   5.663   7.091
 4167POPC   C4B53734   5.950   5.575   7.367
 4168POPC   NC353735  35.923  29.019   5.476
 4168POPC   PO453736  36.410  29.414   5.373
 4168POPC   GL153737  36.292  29.242   5.796
 4168POPC   GL253738  36.264  28.849   5.817
 4168POPC   C1A53739  35.984  29.224   6.146
 4168POPC   D2A53740  35.978  29.027   6.539
 4168POPC   C3A53741  35.918  29.246   6.884
 4168POPC   C4A53742  36.177  29.348   7.201
 4168POPC   C1B53743  36.122  28.643   6.196
 4168POPC   C2B53744  35.928  28.535   6.595
 4168POPC   C3B53745  36.064  28.720   6.983
 4168POPC   C4B53746  35.879  28.917   7.328
 4169POPC   NC353747  26.175  27.147   5.340
 4169POPC   PO453748  25.746  26.651   5.465
 4169POPC   GL153749  25.831  26.907   5.800
 4169POPC   GL253750  26.197  26.932   5.803
 4169POPC   C1A53751  25.942  26.934   6.237
 4169POPC   D2A53752  26.088  26.889   6.632
 4169POPC   C3A53753  25.830  26.995   6.995
 4169POPC   C4A53754  25.788  26.883   7.449
 4169POPC   C1B53755  26.449  26.960   6.217
 4169POPC   C2B53756  26.492  27.221   6.606
 4169POPC   C3B53757  26.420  26.987   6.985
 4169POPC   C4B53758  26.132  26.597   7.083
 4170POPC   NC353759  18.726   4.956   5.662
 4170POPC   PO453760  18.274   5.399   5.567
 4170POPC   GL153761  18.293   5.122   5.925
 4170POPC   GL253762  18.283   4.756   5.866
 4170POPC   C1A53763  18.369   5.203   6.355
 4170POPC   D2A53764  18.139   5.162   6.713
 4170POPC   C3A53765  18.197   5.368   7.095
 4170POPC   C4A53766  18.300   5.232   7.528
 4170POPC   C1B53767  18.030   4.828   6.264
 4170POPC   C2B53768  18.035   4.660   6.708
 4170POPC   C3B53769  18.160   4.854   7.130
 4170POPC   C4B53770  18.459   4.756   7.499
 4171POPC   NC353771  36.475   1.730   5.632
 4171POPC   PO453772  36.037   1.990   5.211
 4171POPC   GL153773  36.159   2.171   5.639
 4171POPC   GL253774  36.009   1.910   5.821
 4171POPC   C1A53775  36.296   2.195   6.142
 4171POPC   D2A53776  36.113   2.062   6.547
 4171POPC   C3A53777  36.327   1.927   6.927
 4171POPC   C4A53778  36.275   2.093   7.342
 4171POPC   C1B53779  35.720   2.037   6.158
 4171POPC   C2B53780  35.587   2.015   6.585
 4171POPC   C3B53781  35.796   1.862   6.951
 4171POPC   C4B53782  35.499   1.731   7.227
 4172POPC   NC353783  32.797  32.573   5.437
 4172POPC   PO453784  32.208  32.198   5.378
 4172POPC   GL153785  32.410  32.360   5.765
 4172POPC   GL253786  32.081  32.522   5.827
 4172POPC   C1A53787  32.575  32.260   6.209
 4172POPC   D2A53788  32.346  32.192   6.614
 4172POPC   C3A53789  32.542  32.251   6.984
 4172POPC   C4A53790  32.819  32.173   7.313
 4172POPC   C1B53791  32.109  32.462   6.253
 4172POPC   C2B53792  32.034  32.592   6.663
 4172POPC   C3B53793  32.050  32.446   7.081
 4172POPC   C4B53794  32.021  32.313   7.502
 4173POPC   NC353795  14.812  34.154   5.623
 4173POPC   PO453796  14.334  33.748   5.353
 4173POPC   GL153797  14.382  33.796   5.783
 4173POPC   GL253798  14.143  34.068   5.866
 4173POPC   C1A53799  14.398  33.732   6.233
 4173POPC   D2A53800  14.217  33.865   6.638
 4173POPC   C3A53801  14.351  33.596   6.966
 4173POPC   C4A53802  14.180  33.271   7.243
 4173POPC   C1B53803  14.462  34.239   6.142
 4173POPC   C2B53804  14.738  34.071   6.445
 4173POPC   C3B53805  14.673  34.051   6.864
 4173POPC   C4B53806  14.408  34.052   7.215
 4174POPC   NC353807   9.338   6.621   5.412
 4174POPC   PO453808   9.925   6.908   5.093
 4174POPC   GL153809   9.776   6.793   5.651
 4174POPC   GL253810   9.558   6.497   5.832
 4174POPC   C1A53811   9.536   6.879   6.141
 4174POPC   D2A53812   9.468   6.640   6.578
 4174POPC   C3A53813   9.672   6.760   6.996
 4174POPC   C4A53814   9.981   6.640   7.338
 4174POPC   C1B53815   9.799   6.442   6.190
 4174POPC   C2B53816   9.952   6.385   6.586
 4174POPC   C3B53817   9.805   6.224   6.945
 4174POPC   C4B53818   9.619   6.290   7.339
 4175POPC   NC353819  19.702  36.839   5.400
 4175POPC   PO453820  20.242  37.047   5.755
 4175POPC   GL153821  19.980  36.760   5.842
 4175POPC   GL253822  20.214  36.453   5.806
 4175POPC   C1A53823  19.657  36.797   6.169
 4175POPC   D2A53824  19.729  36.712   6.617
 4175POPC   C3A53825  20.009  37.011   6.879
 4175POPC   C4A53826  19.863  37.164   7.299
 4175POPC   C1B53827  20.040  36.423   6.236
 4175POPC   C2B53828  20.210  36.518   6.634
 4175POPC   C3B53829  20.055  36.531   7.057
 4175POPC   C4B53830  19.643  36.734   7.123
 4176POPC   NC353831  15.348   8.807   5.231
 4176POPC   PO453832  14.900   9.205   5.427
 4176POPC   GL153833  15.155   9.045   5.759
 4176POPC   GL253834  15.468   8.824   5.734
 4176POPC   C1A53835  15.122   8.851   6.165
 4176POPC   D2A53836  15.191   9.013   6.575
 4176POPC   C3A53837  15.043   8.889   6.967
 4176POPC   C4A53838  15.330   9.069   7.251
 4176POPC   C1B53839  15.546   8.553   6.091
 4176POPC   C2B53840  15.454   8.531   6.510
 4176POPC   C3B53841  15.515   8.691   6.913
 4176POPC   C4B53842  15.337   8.557   7.297
 4177POPC   NC353843  42.692  26.376   5.330
 4177POPC   PO453844  42.504  27.026   5.218
 4177POPC   GL153845  42.601  26.831   5.637
 4177POPC   GL253846  42.442  26.529   5.742
 4177POPC   C1A53847  42.528  26.894   6.112
 4177POPC   D2A53848  42.315  26.720   6.521
 4177POPC   C3A53849  42.515  26.844   6.938
 4177POPC   C4A53850  42.309  27.096   7.250
 4177POPC   C1B53851  42.549  26.370   6.169
 4177POPC   C2B53852  42.402  26.182   6.545
 4177POPC   C3B53853  42.290  26.360   6.919
 4177POPC   C4B53854  42.014  26.714   7.063
 4178POPC   NC353855  30.415  12.088   5.013
 4178POPC   PO453856  30.915  12.041   5.502
 4178POPC   GL153857  30.829  11.862   5.895
 4178POPC   GL253858  31.082  12.089   6.003
 4178POPC   C1A53859  30.689  11.954   6.328
 4178POPC   D2A53860  30.403  12.170   6.583
 4178POPC   C3A53861  30.544  12.219   6.983
 4178POPC   C4A53862  30.633  12.049   7.378
 4178POPC   C1B53863  30.892  12.420   6.273
 4178POPC   C2B53864  30.969  12.288   6.656
 4178POPC   C3B53865  31.037  12.033   6.980
 4178POPC   C4B53866  31.098  12.205   7.346
 4179POPC   NC353867  22.625   3.298   5.461
 4179POPC   PO453868  21.960   3.620   5.494
 4179POPC   GL153869  22.183   3.722   5.890
 4179POPC   GL253870  22.556   3.644   5.856
 4179POPC   C1A53871  21.965   3.741   6.308
 4179POPC   D2A53872  21.831   3.341   6.510
 4179POPC   C3A53873  21.880   3.277   6.952
 4179POPC   C4A53874  21.888   3.390   7.397
 4179POPC   C1B53875  22.486   3.728   6.298
 4179POPC   C2B53876  22.318   3.547   6.688
 4179POPC   C3B53877  22.282   3.566   7.138
 4179POPC   C4B53878  22.238   3.704   7.567
 4180POPC   NC353879   4.164  39.635   5.607
 4180POPC   PO453880   3.551  39.889   5.396
 4180POPC   GL153881   3.701  39.769   5.816
 4180POPC   GL253882   3.987  39.960   5.965
 4180POPC   C1A53883   3.541  39.865   6.260
 4180POPC   D2A53884   3.327  40.169   6.560
 4180POPC   C3A53885   3.313  40.070   6.992
 4180POPC   C4A53886   3.610  39.790   7.159
 4180POPC   C1B53887   3.940  40.148   6.393
 4180POPC   C2B53888   3.818  40.129   6.817
 4180POPC   C3B53889   4.070  40.021   7.174
 4180POPC   C4B53890   3.955  39.868   7.583
 4181POPC   NC353891   7.467  29.743   5.282
 4181POPC   PO453892   7.246  30.334   5.432
 4181POPC   GL153893   7.458  30.072   5.733
 4181POPC   GL253894   7.725  30.281   5.787
 4181POPC   C1A53895   7.575  29.913   6.182
 4181POPC   D2A53896   7.577  29.735   6.617
 4181POPC   C3A53897   7.451  29.833   7.027
 4181POPC   C4A53898   7.506  29.673   7.433
 4181POPC   C1B53899   7.642  30.412   6.184
 4181POPC   C2B53900   7.807  30.284   6.593
 4181POPC   C3B53901   7.600  30.339   6.977
 4181POPC   C4B53902   7.687  30.237   7.410
 4182POPC   NC353903   3.519  17.893   5.381
 4182POPC   PO453904   3.637  18.535   5.560
 4182POPC   GL153905   3.539  18.224   5.847
 4182POPC   GL253906   3.254  17.982   5.832
 4182POPC   C1A53907   3.418  18.372   6.268
 4182POPC   D2A53908   3.699  18.348   6.634
 4182POPC   C3A53909   3.494  18.436   7.019
 4182POPC   C4A53910   3.651  18.410   7.458
 4182POPC   C1B53911   3.516  17.879   6.222
 4182POPC   C2B53912   3.411  17.920   6.681
 4182POPC   C3B53913   3.302  17.961   7.118
 4182POPC   C4B53914   3.299  18.051   7.576
 4183POPC   NC353915  30.721  35.621   5.355
 4183POPC   PO453916  30.930  34.972   5.495
 4183POPC   GL153917  30.714  35.277   5.738
 4183POPC   GL253918  30.991  35.518   5.815
 4183POPC   C1A53919  30.462  35.311   6.122
 4183POPC   D2A53920  30.456  35.433   6.572
 4183POPC   C3A53921  30.505  35.176   6.967
 4183POPC   C4A53922  30.619  35.285   7.393
 4183POPC   C1B53923  30.963  35.211   6.183
 4183POPC   C2B53924  30.890  35.166   6.633
 4183POPC   C3B53925  31.021  35.119   7.078
 4183POPC   C4B53926  31.135  35.454   7.384
 4184POPC   NC353927  37.227  24.582   5.551
 4184POPC   PO453928  36.503  24.486   5.338
 4184POPC   GL153929  36.695  24.525   5.760
 4184POPC   GL253930  36.786  24.841   5.929
 4184POPC   C1A53931  36.772  24.396   6.205
 4184POPC   D2A53932  36.994  24.450   6.600
 4184POPC   C3A53933  36.706  24.521   6.946
 4184POPC   C4A53934  36.827  24.443   7.370
 4184POPC   C1B53935  37.166  24.754   6.206
 4184POPC   C2B53936  37.273  24.891   6.634
 4184POPC   C3B53937  37.155  24.723   7.042
 4184POPC   C4B53938  37.350  24.481   7.355
 4185POPC   NC353939   0.669   4.997   5.336
 4185POPC   PO453940   0.722   5.695   5.267
 4185POPC   GL153941   0.736   5.429   5.689
 4185POPC   GL253942   0.403   5.263   5.761
 4185POPC   C1A53943   0.814   5.051   5.993
 4185POPC   D2A53944   0.837   5.052   6.463
 4185POPC   C3A53945   0.663   5.059   6.879
 4185POPC   C4A53946   0.779   5.080   7.275
 4185POPC   C1B53947   0.522   5.407   6.183
 4185POPC   C2B53948   0.401   5.363   6.571
 4185POPC   C3B53949   0.463   5.561   6.945
 4185POPC   C4B53950   0.367   5.403   7.352
 4186POPC   NC353951   7.016  38.909   5.472
 4186POPC   PO453952   7.661  39.108   5.481
 4186POPC   GL153953   7.472  39.215   5.900
 4186POPC   GL253954   7.162  38.998   5.952
 4186POPC   C1A53955   7.342  39.378   6.324
 4186POPC   D2A53956   7.180  39.411   6.755
 4186POPC   C3A53957   7.457  39.246   7.058
 4186POPC   C4A53958   7.676  39.593   7.215
 4186POPC   C1B53959   6.949  39.072   6.400
 4186POPC   C2B53960   6.919  39.007   6.879
 4186POPC   C3B53961   7.018  39.158   7.290
 4186POPC   C4B53962   7.018  39.012   7.733
 4187POPC   NC353963  12.668  35.397   5.364
 4187POPC   PO453964  13.307  35.154   5.256
 4187POPC   GL153965  13.029  35.283   5.761
 4187POPC   GL253966  12.793  35.571   5.866
 4187POPC   C1A53967  12.867  35.215   6.233
 4187POPC   D2A53968  12.793  35.005   6.648
 4187POPC   C3A53969  12.953  35.197   7.021
 4187POPC   C4A53970  13.038  35.604   7.145
 4187POPC   C1B53971  12.419  35.438   6.072
 4187POPC   C2B53972  12.366  35.466   6.493
 4187POPC   C3B53973  12.613  35.552   6.842
 4187POPC   C4B53974  12.521  35.399   7.241
 4188POPC   NC353975  42.973   0.311   5.441
 4188POPC   PO453976  43.682   0.366   5.599
 4188POPC   GL153977  43.488   0.597   5.912
 4188POPC   GL253978  43.143   0.518   5.874
 4188POPC   C1A53979  43.381   0.456   6.326
 4188POPC   D2A53980  43.130   0.213   6.612
 4188POPC   C3A53981  43.085   0.364   7.019
 4188POPC   C4A53982  43.299   0.383   7.434
 4188POPC   C1B53983  42.976   0.769   6.186
 4188POPC   C2B53984  43.050   0.745   6.611
 4188POPC   C3B53985  42.860   0.836   6.977
 4188POPC   C4B53986  42.863   0.676   7.374
 4189POPC   NC353987   1.031  20.650   5.524
 4189POPC   PO453988   1.462  21.227   5.425
 4189POPC   GL153989   1.285  20.979   5.809
 4189POPC   GL253990   1.432  20.701   5.942
 4189POPC   C1A53991   1.004  20.832   6.179
 4189POPC   D2A53992   0.905  20.590   6.552
 4189POPC   C3A53993   0.870  20.766   6.931
 4189POPC   C4A53994   0.818  20.754   7.360
 4189POPC   C1B53995   1.560  20.484   6.313
 4189POPC   C2B53996   1.383  20.449   6.718
 4189POPC   C3B53997   1.276  20.537   7.142
 4189POPC   C4B53998   1.427  20.295   7.471
 4190POPC   NC353999   8.612  41.407   5.510
 4190POPC   PO454000   8.958  41.930   5.255
 4190POPC   GL154001   8.949  41.728   5.736
 4190POPC   GL254002   9.266  41.746   5.902
 4190POPC   C1A54003   8.868  41.533   6.167
 4190POPC   D2A54004   8.571  41.463   6.519
 4190POPC   C3A54005   8.729  41.239   6.891
 4190POPC   C4A54006   8.926  41.445   7.247
 4190POPC   C1B54007   9.116  41.982   6.222
 4190POPC   C2B54008   8.803  41.935   6.520
 4190POPC   C3B54009   8.926  41.840   6.915
 4190POPC   C4B54010   9.136  41.969   7.289
 4191POPC   NC354011   0.666  37.751   5.497
 4191POPC   PO454012   0.084  38.045   5.488
 4191POPC   GL154013   0.161  38.000   5.921
 4191POPC   GL254014   0.278  37.677   5.875
 4191POPC   C1A54015   0.513  37.944   6.238
 4191POPC   D2A54016   0.596  37.701   6.646
 4191POPC   C3A54017   0.405  37.939   6.996
 4191POPC   C4A54018   0.317  37.868   7.433
 4191POPC   C1B54019   0.351  37.450   6.255
 4191POPC   C2B54020   0.169  37.314   6.647
 4191POPC   C3B54021   0.332  37.432   7.059
 4191POPC   C4B54022   0.687  37.180   7.192
 4192POPC   NC354023  24.998   8.465   5.115
 4192POPC   PO454024  25.460   8.145   5.408
 4192POPC   GL154025  25.110   8.192   5.687
 4192POPC   GL254026  25.172   8.519   5.844
 4192POPC   C1A54027  24.997   8.117   6.113
 4192POPC   D2A54028  25.217   8.133   6.500
 4192POPC   C3A54029  25.011   8.001   6.851
 4192POPC   C4A54030  25.178   8.229   7.187
 4192POPC   C1B54031  25.483   8.392   6.140
 4192POPC   C2B54032  25.500   8.574   6.549
 4192POPC   C3B54033  25.566   8.502   6.990
 4192POPC   C4B54034  25.580   8.420   7.457
 4193POPC   NC354035  11.552  39.982   5.383
 4193POPC   PO454036  11.459  40.596   5.415
 4193POPC   GL154037  11.341  40.290   5.753
 4193POPC   GL254038  11.559  39.987   5.873
 4193POPC   C1A54039  11.133  40.131   6.128
 4193POPC   D2A54040  11.224  40.221   6.562
 4193POPC   C3A54041  11.068  39.973   6.894
 4193POPC   C4A54042  11.154  39.771   7.266
 4193POPC   C1B54043  11.639  40.134   6.265
 4193POPC   C2B54044  11.653  39.915   6.651
 4193POPC   C3B54045  11.571  39.986   7.065
 4193POPC   C4B54046  11.664  39.724   7.378
 4194POPC   NC354047  36.463  27.828   5.447
 4194POPC   PO454048  35.949  27.313   5.497
 4194POPC   GL154049  36.132  27.575   5.808
 4194POPC   GL254050  35.852  27.782   5.941
 4194POPC   C1A54051  36.354  27.439   6.184
 4194POPC   D2A54052  36.503  27.201   6.554
 4194POPC   C3A54053  36.413  27.414   6.951
 4194POPC   C4A54054  36.128  27.764   7.025
 4194POPC   C1B54055  35.797  27.452   6.265
 4194POPC   C2B54056  35.978  27.364   6.680
 4194POPC   C3B54057  35.939  27.276   7.122
 4194POPC   C4B54058  35.795  27.413   7.509
 4195POPC   NC354059   1.734  36.701   5.411
 4195POPC   PO454060   1.914  37.331   5.444
 4195POPC   GL154061   1.899  37.178   5.871
 4195POPC   GL254062   1.947  36.837   5.865
 4195POPC   C1A54063   2.101  37.097   6.286
 4195POPC   D2A54064   2.246  36.859   6.661
 4195POPC   C3A54065   1.946  36.930   6.996
 4195POPC   C4A54066   1.892  37.206   7.349
 4195POPC   C1B54067   1.881  36.622   6.253
 4195POPC   C2B54068   2.046  36.380   6.600
 4195POPC   C3B54069   2.180  36.465   7.012
 4195POPC   C4B54070   1.850  36.490   7.312
 4196POPC   NC354071  44.075   0.078   5.632
 4196POPC   PO454072  43.891  44.431   5.482
 4196POPC   GL154073  43.715  44.569   5.835
 4196POPC   GL254074  44.025  44.686   5.941
 4196POPC   C1A54075  43.700  44.595   6.286
 4196POPC   D2A54076  43.873  44.839   6.592
 4196POPC   C3A54077  43.649  44.787   6.942
 4196POPC   C4A54078  43.835  44.531   7.229
 4196POPC   C1B54079  44.221  44.537   6.333
 4196POPC   C2B54080  44.321  44.600   6.773
 4196POPC   C3B54081  44.339  44.558   7.223
 4196POPC   C4B54082  44.136  44.789   7.560
 4197POPC   NC354083  27.862  26.383   5.412
 4197POPC   PO454084  27.585  25.719   5.301
 4197POPC   GL154085  27.561  26.042   5.685
 4197POPC   GL254086  27.230  26.159   5.800
 4197POPC   C1A54087  27.571  25.933   6.136
 4197POPC   D2A54088  27.925  25.918   6.442
 4197POPC   C3A54089  27.800  25.965   6.878
 4197POPC   C4A54090  27.780  25.829   7.324
 4197POPC   C1B54091  27.240  26.363   6.209
 4197POPC   C2B54092  27.424  26.193   6.584
 4197POPC   C3B54093  27.478  26.323   6.999
 4197POPC   C4B54094  27.621  26.375   7.402
 4198POPC   NC354095  25.175   7.748   5.373
 4198POPC   PO454096  25.647   7.215   5.271
 4198POPC   GL154097  25.309   7.337   5.681
 4198POPC   GL254098  25.171   7.671   5.857
 4198POPC   C1A54099  25.299   7.305   6.181
 4198POPC   D2A54100  25.452   7.214   6.622
 4198POPC   C3A54101  25.093   7.298   6.917
 4198POPC   C4A54102  24.848   7.292   7.328
 4198POPC   C1B54103  25.481   7.859   6.113
 4198POPC   C2B54104  25.485   7.704   6.516
 4198POPC   C3B54105  25.490   7.852   6.930
 4198POPC   C4B54106  25.218   7.676   7.237
 4199POPC   NC354107  29.775  42.012   5.419
 4199POPC   PO454108  30.240  42.489   5.436
 4199POPC   GL154109  30.075  42.250   5.803
 4199POPC   GL254110  29.719  42.243   5.874
 4199POPC   C1A54111  30.051  42.128   6.274
 4199POPC   D2A54112  29.792  41.996   6.665
 4199POPC   C3A54113  29.869  41.978   7.110
 4199POPC   C4A54114  29.929  42.360   7.295
 4199POPC   C1B54115  29.512  42.187   6.282
 4199POPC   C2B54116  29.401  42.377   6.688
 4199POPC   C3B54117  29.635  42.641   6.974
 4199POPC   C4B54118  29.580  42.744   7.395
 4200POPC   NC354119  43.528  30.164   5.517
 4200POPC   PO454120  44.174  30.146   5.425
 4200POPC   GL154121  43.952  29.868   5.748
 4200POPC   GL254122  43.625  29.631   5.704
 4200POPC   C1A54123  43.980  29.966   6.184
 4200POPC   D2A54124  44.040  29.770   6.565
 4200POPC   C3A54125  43.971  30.003   6.916
 4200POPC   C4A54126  44.127  30.102   7.309
 4200POPC   C1B54127  43.675  29.543   6.150
 4200POPC   C2B54128  43.543  29.635   6.592
 4200POPC   C3B54129  43.807  29.495   6.930
 4200POPC   C4B54130  43.893  29.647   7.336
 4201POPC   NC354131  15.470  24.825   5.377
 4201POPC   PO454132  15.222  24.261   5.509
 4201POPC   GL154133  15.266  24.639   5.816
 4201POPC   GL254134  15.620  24.669   5.920
 4201POPC   C1A54135  15.233  24.801   6.265
 4201POPC   D2A54136  15.406  24.756   6.709
 4201POPC   C3A54137  15.061  24.696   7.028
 4201POPC   C4A54138  14.869  25.037   7.239
 4201POPC   C1B54139  15.454  24.328   6.209
 4201POPC   C2B54140  15.488  24.249   6.662
 4201POPC   C3B54141  15.461  24.323   7.111
 4201POPC   C4B54142  15.519  24.151   7.521
 4202POPC   NC354143  27.942   6.021   5.375
 4202POPC   PO454144  28.478   5.583   5.393
 4202POPC   GL154145  28.150   5.710   5.728
 4202POPC   GL254146  28.346   6.002   5.746
 4202POPC   C1A54147  28.089   5.791   6.202
 4202POPC   D2A54148  27.872   5.793   6.630
 4202POPC   C3A54149  28.032   5.686   7.070
 4202POPC   C4A54150  28.446   5.771   7.328
 4202POPC   C1B54151  28.588   5.781   6.108
 4202POPC   C2B54152  28.465   5.710   6.567
 4202POPC   C3B54153  28.357   6.029   6.905
 4202POPC   C4B54154  28.622   6.282   7.196
 4203POPC   NC354155  34.634  29.838   5.080
 4203POPC   PO454156  34.185  29.624   5.549
 4203POPC   GL154157  34.444  29.702   5.912
 4203POPC   GL254158  34.703  29.969   5.916
 4203POPC   C1A54159  34.563  29.672   6.324
 4203POPC   D2A54160  34.550  29.959   6.610
 4203POPC   C3A54161  34.561  29.831   6.988
 4203POPC   C4A54162  34.771  30.104   7.216
 4203POPC   C1B54163  34.326  30.140   6.159
 4203POPC   C2B54164  34.183  30.323   6.559
 4203POPC   C3B54165  34.186  30.211   7.018
 4203POPC   C4B54166  34.332  30.116   7.453
 4204POPC   NC354167  32.798   4.270   5.351
 4204POPC   PO454168  33.369   4.595   5.428
 4204POPC   GL154169  33.097   4.439   5.807
 4204POPC   GL254170  32.974   4.097   5.805
 4204POPC   C1A54171  32.958   4.501   6.241
 4204POPC   D2A54172  33.186   4.438   6.647
 4204POPC   C3A54173  32.922   4.350   6.997
 4204POPC   C4A54174  32.829   4.559   7.406
 4204POPC   C1B54175  32.793   4.004   6.215
 4204POPC   C2B54176  32.946   3.948   6.645
 4204POPC   C3B54177  32.826   3.864   7.085
 4204POPC   C4B54178  32.976   4.038   7.505
 4205POPC   NC354179  17.891  12.121   5.418
 4205POPC   PO454180  17.209  12.264   5.360
 4205POPC   GL154181  17.465  12.222   5.735
 4205POPC   GL254182  17.518  11.864   5.818
 4205POPC   C1A54183  17.357  12.206   6.176
 4205POPC   D2A54184  17.505  12.243   6.582
 4205POPC   C3A54185  17.227  12.134   6.925
 4205POPC   C4A54186  17.188  12.295   7.351
 4205POPC   C1B54187  17.687  11.807   6.299
 4205POPC   C2B54188  17.677  11.818   6.800
 4205POPC   C3B54189  17.522  11.872   7.253
 4205POPC   C4B54190  17.714  11.707   7.645
 4206POPC   NC354191  14.038  37.499   5.460
 4206POPC   PO454192  13.494  37.906   5.543
 4206POPC   GL154193  13.815  37.874   5.884
 4206POPC   GL254194  14.157  37.714   5.899
 4206POPC   C1A54195  13.950  37.882   6.337
 4206POPC   D2A54196  14.052  37.827   6.801
 4206POPC   C3A54197  13.758  38.013   7.103
 4206POPC   C4A54198  13.407  37.752   7.230
 4206POPC   C1B54199  13.844  37.410   6.112
 4206POPC   C2B54200  13.708  37.438   6.534
 4206POPC   C3B54201  13.846  37.275   6.919
 4206POPC   C4B54202  13.883  37.522   7.232
 4207POPC   NC354203   9.273  23.357   5.610
 4207POPC   PO454204   8.847  23.790   5.306
 4207POPC   GL154205   8.925  23.743   5.765
 4207POPC   GL254206   8.762  23.416   5.805
 4207POPC   C1A54207   9.167  23.786   6.183
 4207POPC   D2A54208   9.196  24.045   6.522
 4207POPC   C3A54209   9.246  23.930   6.913
 4207POPC   C4A54210   9.086  23.764   7.279
 4207POPC   C1B54211   8.949  23.346   6.222
 4207POPC   C2B54212   9.128  23.494   6.615
 4207POPC   C3B54213   9.034  23.341   7.013
 4207POPC   C4B54214   8.772  23.352   7.349
 4208POPC   NC354215  19.302  23.238   5.576
 4208POPC   PO454216  18.983  22.730   5.335
 4208POPC   GL154217  18.952  22.898   5.755
 4208POPC   GL254218  18.727  23.174   5.816
 4208POPC   C1A54219  19.199  22.810   6.165
 4208POPC   D2A54220  19.019  22.928   6.568
 4208POPC   C3A54221  19.184  22.685   6.888
 4208POPC   C4A54222  19.214  22.744   7.300
 4208POPC   C1B54223  19.027  23.275   6.149
 4208POPC   C2B54224  19.370  23.273   6.425
 4208POPC   C3B54225  19.352  23.205   6.888
 4208POPC   C4B54226  19.262  23.261   7.325
 4209POPC   NC354227   3.179  38.054   5.316
 4209POPC   PO454228   3.599  37.495   5.396
 4209POPC   GL154229   3.547  37.678   5.767
 4209POPC   GL254230   3.532  38.004   5.720
 4209POPC   C1A54231   3.415  37.535   6.148
 4209POPC   D2A54232   3.273  37.280   6.468
 4209POPC   C3A54233   3.215  37.492   6.837
 4209POPC   C4A54234   3.429  37.470   7.225
 4209POPC   C1B54235   3.628  38.056   6.168
 4209POPC   C2B54236   3.617  37.784   6.543
 4209POPC   C3B54237   3.503  37.904   6.947
 4209POPC   C4B54238   3.524  38.053   7.350
 4210POPC   NC354239  24.755  17.243   5.409
 4210POPC   PO454240  24.528  17.829   5.580
 4210POPC   GL154241  24.416  17.431   5.829
 4210POPC   GL254242  24.121  17.154   5.912
 4210POPC   C1A54243  24.495  17.426   6.280
 4210POPC   D2A54244  24.791  17.258   6.597
 4210POPC   C3A54245  24.700  17.428   7.007
 4210POPC   C4A54246  24.365  17.736   7.145
 4210POPC   C1B54247  24.210  17.015   6.356
 4210POPC   C2B54248  24.290  17.214   6.758
 4210POPC   C3B54249  24.266  17.225   7.211
 4210POPC   C4B54250  24.163  17.280   7.679
 4211POPC   NC354251  44.357  15.365   5.505
 4211POPC   PO454252  44.862  14.931   5.415
 4211POPC   GL154253  44.656  15.001   5.773
 4211POPC   GL254254  44.776  15.337   5.811
 4211POPC   C1A54255  44.559  14.853   6.198
 4211POPC   D2A54256  44.642  15.116   6.550
 4211POPC   C3A54257  44.635  14.977   6.947
 4211POPC   C4A54258  44.832  15.045   7.331
 4211POPC   C1B54259  44.525  15.452   6.186
 4211POPC   C2B54260  44.308  15.510   6.617
 4211POPC   C3B54261  44.481  15.448   7.045
 4211POPC   C4B54262  44.839  15.553   7.292
 4212POPC   NC354263  26.893  26.480   5.543
 4212POPC   PO454264  26.624  27.128   5.398
 4212POPC   GL154265  26.701  26.876   5.782
 4212POPC   GL254266  26.493  26.520   5.838
 4212POPC   C1A54267  26.963  26.827   6.161
 4212POPC   D2A54268  26.844  26.849   6.603
 4212POPC   C3A54269  27.094  26.627   6.881
 4212POPC   C4A54270  27.294  26.732   7.282
 4212POPC   C1B54271  26.617  26.465   6.264
 4212POPC   C2B54272  26.465  26.502   6.682
 4212POPC   C3B54273  26.649  26.557   7.084
 4212POPC   C4B54274  26.834  26.924   7.265
 4213POPC   NC354275  27.210  33.993   5.492
 4213POPC   PO454276  26.828  33.452   5.370
 4213POPC   GL154277  26.861  33.703   5.754
 4213POPC   GL254278  27.211  33.656   5.909
 4213POPC   C1A54279  26.580  33.817   6.123
 4213POPC   D2A54280  26.758  33.767   6.529
 4213POPC   C3A54281  26.550  33.737   6.909
 4213POPC   C4A54282  26.644  33.835   7.332
 4213POPC   C1B54283  27.049  34.032   6.158
 4213POPC   C2B54284  27.058  34.168   6.598
 4213POPC   C3B54285  27.031  33.888   6.970
 4213POPC   C4B54286  27.137  33.976   7.415
 4214POPC   NC354287  13.173   4.822   5.613
 4214POPC   PO454288  12.802   4.209   5.441
 4214POPC   GL154289  12.898   4.276   5.873
 4214POPC   GL254290  12.690   4.582   5.945
 4214POPC   C1A54291  12.862   4.148   6.324
 4214POPC   D2A54292  12.642   4.416   6.589
 4214POPC   C3A54293  12.723   4.358   7.009
 4214POPC   C4A54294  12.961   4.109   7.281
 4214POPC   C1B54295  13.012   4.624   6.242
 4214POPC   C2B54296  13.201   4.427   6.619
 4214POPC   C3B54297  13.175   4.604   7.033
 4214POPC   C4B54298  12.935   4.626   7.414
 4215POPC   NC354299   0.708  44.112   5.492
 4215POPC   PO454300   1.192  43.552   5.506
 4215POPC   GL154301   1.072  43.838   5.855
 4215POPC   GL254302   0.864  44.124   5.980
 4215POPC   C1A54303   1.314  44.054   6.204
 4215POPC   D2A54304   1.445  43.846   6.577
 4215POPC   C3A54305   1.406  44.007   6.966
 4215POPC   C4A54306   1.500  43.770   7.310
 4215POPC   C1B54307   0.884  43.810   6.327
 4215POPC   C2B54308   0.939  43.905   6.739
 4215POPC   C3B54309   0.963  43.784   7.140
 4215POPC   C4B54310   1.084  44.095   7.378
 4216POPC   NC354311  28.091   4.508   5.658
 4216POPC   PO454312  28.574   4.077   5.417
 4216POPC   GL154313  28.476   4.239   5.860
 4216POPC   GL254314  28.669   4.534   5.906
 4216POPC   C1A54315  28.333   4.376   6.305
 4216POPC   D2A54316  27.991   4.403   6.640
 4216POPC   C3A54317  28.143   4.384   7.082
 4216POPC   C4A54318  28.482   4.044   7.180
 4216POPC   C1B54319  28.953   4.719   6.208
 4216POPC   C2B54320  28.849   4.667   6.607
 4216POPC   C3B54321  28.571   4.403   6.803
 4216POPC   C4B54322  28.616   4.518   7.231
 4217POPC   NC354323  33.175   9.267   5.650
 4217POPC   PO454324  32.709   8.899   5.317
 4217POPC   GL154325  32.985   8.782   5.689
 4217POPC   GL254326  33.355   8.739   5.669
 4217POPC   C1A54327  32.868   8.885   6.144
 4217POPC   D2A54328  32.623   8.915   6.545
 4217POPC   C3A54329  32.898   9.013   6.868
 4217POPC   C4A54330  33.017   9.028   7.277
 4217POPC   C1B54331  33.229   8.533   6.091
 4217POPC   C2B54332  33.181   8.699   6.545
 4217POPC   C3B54333  33.200   8.605   6.995
 4217POPC   C4B54334  33.410   8.718   7.373
 4218POPC   NC354335  29.548  16.173   5.625
 4218POPC   PO454336  29.021  15.803   5.407
 4218POPC   GL154337  29.035  15.917   5.822
 4218POPC   GL254338  29.345  15.709   5.807
 4218POPC   C1A54339  28.783  15.965   6.228
 4218POPC   D2A54340  28.672  15.763   6.653
 4218POPC   C3A54341  28.913  15.897   7.047
 4218POPC   C4A54342  28.854  16.226   7.364
 4218POPC   C1B54343  29.193  15.633   6.210
 4218POPC   C2B54344  29.169  15.863   6.580
 4218POPC   C3B54345  29.439  15.896   6.944
 4218POPC   C4B54346  29.529  15.924   7.405
 4219POPC   NC354347   2.094  26.601   5.598
 4219POPC   PO454348   1.748  27.129   5.307
 4219POPC   GL154349   1.956  27.072   5.721
 4219POPC   GL254350   2.315  27.044   5.776
 4219POPC   C1A54351   1.975  26.965   6.193
 4219POPC   D2A54352   2.157  27.050   6.637
 4219POPC   C3A54353   1.858  26.974   7.005
 4219POPC   C4A54354   1.651  26.564   7.133
 4219POPC   C1B54355   2.476  27.049   6.205
 4219POPC   C2B54356   2.486  26.684   6.528
 4219POPC   C3B54357   2.234  26.611   6.938
 4219POPC   C4B54358   2.288  26.869   7.337
 4220POPC   NC354359  37.078  27.239   5.662
 4220POPC   PO454360  37.558  27.072   5.180
 4220POPC   GL154361  37.578  26.918   5.661
 4220POPC   GL254362  37.260  26.782   5.829
 4220POPC   C1A54363  37.760  26.810   6.071
 4220POPC   D2A54364  37.891  26.850   6.503
 4220POPC   C3A54365  37.791  26.693   6.921
 4220POPC   C4A54366  37.562  26.911   7.209
 4220POPC   C1B54367  37.349  26.526   6.217
 4220POPC   C2B54368  37.445  26.427   6.651
 4220POPC   C3B54369  37.294  26.499   7.102
 4220POPC   C4B54370  37.568  26.489   7.509
 4221POPC   NC354371  25.998  15.759   5.513
 4221POPC   PO454372  25.857  16.428   5.487
 4221POPC   GL154373  25.854  16.158   5.862
 4221POPC   GL254374  26.196  15.994   5.921
 4221POPC   C1A54375  25.904  16.129   6.311
 4221POPC   D2A54376  26.126  16.013   6.640
 4221POPC   C3A54377  25.867  15.991   6.958
 4221POPC   C4A54378  26.071  16.033   7.346
 4221POPC   C1B54379  26.025  15.659   6.197
 4221POPC   C2B54380  26.066  15.501   6.608
 4221POPC   C3B54381  26.170  15.585   7.004
 4221POPC   C4B54382  26.259  15.519   7.389
 4222POPC   NC354383  12.941   6.175   5.358
 4222POPC   PO454384  12.779   5.478   5.379
 4222POPC   GL154385  12.749   5.843   5.690
 4222POPC   GL254386  13.071   5.893   5.835
 4222POPC   C1A54387  12.602   5.931   6.137
 4222POPC   D2A54388  12.692   5.776   6.555
 4222POPC   C3A54389  12.765   6.042   6.942
 4222POPC   C4A54390  12.813   5.936   7.348
 4222POPC   C1B54391  13.077   6.052   6.281
 4222POPC   C2B54392  13.184   5.862   6.694
 4222POPC   C3B54393  13.305   6.016   7.094
 4222POPC   C4B54394  13.159   6.315   7.397
 4223POPC   NC354395  32.282  19.315   5.311
 4223POPC   PO454396  32.412  18.714   5.368
 4223POPC   GL154397  32.227  18.987   5.695
 4223POPC   GL254398  32.089  19.327   5.773
 4223POPC   C1A54399  32.168  18.940   6.140
 4223POPC   D2A54400  32.379  19.071   6.508
 4223POPC   C3A54401  32.225  19.135   6.917
 4223POPC   C4A54402  32.420  18.887   7.199
 4223POPC   C1B54403  32.357  19.429   6.136
 4223POPC   C2B54404  32.351  19.565   6.600
 4223POPC   C3B54405  32.484  19.597   7.046
 4223POPC   C4B54406  32.393  19.337   7.410
 4224POPC   NC354407   1.255   7.449   5.416
 4224POPC   PO454408   1.861   7.756   5.567
 4224POPC   GL154409   1.445   7.645   5.827
 4224POPC   GL254410   1.051   7.613   5.890
 4224POPC   C1A54411   1.346   7.295   6.133
 4224POPC   D2A54412   1.049   7.257   6.495
 4224POPC   C3A54413   1.213   7.270   6.921
 4224POPC   C4A54414   1.430   7.365   7.328
 4224POPC   C1B54415   0.891   7.716   6.335
 4224POPC   C2B54416   0.869   7.679   6.819
 4224POPC   C3B54417   0.941   7.525   7.269
 4224POPC   C4B54418   1.062   7.545   7.736
 4225POPC   NC354419  31.307   3.572   5.543
 4225POPC   PO454420  31.618   3.086   5.683
 4225POPC   GL154421  31.618   3.466   5.925
 4225POPC   GL254422  31.278   3.553   6.051
 4225POPC   C1A54423  31.778   3.584   6.311
 4225POPC   D2A54424  31.633   3.361   6.677
 4225POPC   C3A54425  31.693   3.546   7.077
 4225POPC   C4A54426  31.375   3.482   7.348
 4225POPC   C1B54427  31.386   3.918   6.293
 4225POPC   C2B54428  31.371   4.052   6.678
 4225POPC   C3B54429  31.307   3.944   7.097
 4225POPC   C4B54430  31.614   4.021   7.413
 4226POPC   NC354431  15.497   2.825   5.390
 4226POPC   PO454432  14.936   2.435   5.574
 4226POPC   GL154433  15.038   2.763   5.872
 4226POPC   GL254434  15.378   2.859   5.890
 4226POPC   C1A54435  14.994   2.771   6.295
 4226POPC   D2A54436  15.248   2.725   6.644
 4226POPC   C3A54437  15.024   2.699   7.007
 4226POPC   C4A54438  14.915   3.028   7.235
 4226POPC   C1B54439  15.591   2.844   6.272
 4226POPC   C2B54440  15.702   2.967   6.695
 4226POPC   C3B54441  15.420   3.024   7.050
 4226POPC   C4B54442  15.507   3.260   7.412
 4227POPC   NC354443  34.055  43.333   5.535
 4227POPC   PO454444  33.359  43.126   5.432
 4227POPC   GL154445  33.644  43.098   5.750
 4227POPC   GL254446  33.606  43.434   5.827
 4227POPC   C1A54447  33.882  42.973   6.128
 4227POPC   D2A54448  34.147  43.160   6.431
 4227POPC   C3A54449  33.966  43.148   6.810
 4227POPC   C4A54450  33.854  42.828   7.072
 4227POPC   C1B54451  33.772  43.465   6.238
 4227POPC   C2B54452  33.560  43.458   6.634
 4227POPC   C3B54453  33.690  43.517   7.042
 4227POPC   C4B54454  33.781  43.230   7.400
 4228POPC   NC354455   2.980  27.888   5.479
 4228POPC   PO454456   2.611  27.268   5.441
 4228POPC   GL154457   2.655  27.582   5.756
 4228POPC   GL254458   2.864  27.393   5.942
 4228POPC   C1A54459   2.647  27.812   6.173
 4228POPC   D2A54460   2.893  27.823   6.561
 4228POPC   C3A54461   2.759  27.813   6.996
 4228POPC   C4A54462   2.360  27.875   7.184
 4228POPC   C1B54463   3.063  27.385   6.335
 4228POPC   C2B54464   3.080  27.436   6.809
 4228POPC   C3B54465   2.856  27.319   7.202
 4228POPC   C4B54466   3.044  27.315   7.646
 4229POPC   NC354467   6.839  10.479   5.457
 4229POPC   PO454468   6.317  10.792   5.651
 4229POPC   GL154469   6.698  10.697   5.899
 4229POPC   GL254470   6.637  10.348   5.906
 4229POPC   C1A54471   6.861  10.621   6.313
 4229POPC   D2A54472   6.677  10.729   6.710
 4229POPC   C3A54473   6.809  10.518   7.079
 4229POPC   C4A54474   6.818  10.688   7.499
 4229POPC   C1B54475   6.448  10.307   6.294
 4229POPC   C2B54476   6.584  10.184   6.706
 4229POPC   C3B54477   6.377  10.259   7.093
 4229POPC   C4B54478   6.377  10.451   7.480
 4230POPC   NC354479   1.296   5.762   5.194
 4230POPC   PO454480   1.087   5.180   5.426
 4230POPC   GL154481   1.300   4.946   5.816
 4230POPC   GL254482   1.624   4.743   5.742
 4230POPC   C1A54483   1.276   4.978   6.237
 4230POPC   D2A54484   1.319   5.245   6.573
 4230POPC   C3A54485   1.175   4.983   6.865
 4230POPC   C4A54486   1.272   4.880   7.250
 4230POPC   C1B54487   1.519   4.529   6.160
 4230POPC   C2B54488   1.269   4.541   6.551
 4230POPC   C3B54489   1.457   4.522   6.945
 4230POPC   C4B54490   1.765   4.673   7.231
 4231POPC   NC354491  37.170  13.821   5.448
 4231POPC   PO454492  36.789  13.233   5.401
 4231POPC   GL154493  36.797  13.470   5.826
 4231POPC   GL254494  36.901  13.810   5.878
 4231POPC   C1A54495  36.968  13.477   6.262
 4231POPC   D2A54496  37.121  13.370   6.662
 4231POPC   C3A54497  36.871  13.520   7.012
 4231POPC   C4A54498  36.754  13.341   7.396
 4231POPC   C1B54499  37.123  13.992   6.208
 4231POPC   C2B54500  36.997  13.897   6.610
 4231POPC   C3B54501  36.940  14.037   7.010
 4231POPC   C4B54502  37.079  13.951   7.417
 4232POPC   NC354503  37.475  26.609   5.275
 4232POPC   PO454504  36.833  26.846   5.508
 4232POPC   GL154505  36.690  26.994   5.922
 4232POPC   GL254506  36.898  27.227   6.131
 4232POPC   C1A54507  36.687  26.782   6.311
 4232POPC   D2A54508  36.940  26.550   6.598
 4232POPC   C3A54509  36.707  26.462   6.959
 4232POPC   C4A54510  36.703  26.756   7.262
 4232POPC   C1B54511  37.344  27.096   6.257
 4232POPC   C2B54512  37.459  27.059   6.683
 4232POPC   C3B54513  37.114  26.967   6.940
 4232POPC   C4B54514  37.114  27.085   7.335
 4233POPC   NC354515  29.354  44.171   5.383
 4233POPC   PO454516  29.043  43.580   5.276
 4233POPC   GL154517  28.900  43.807   5.641
 4233POPC   GL254518  29.182  43.662   5.863
 4233POPC   C1A54519  28.914  44.063   6.042
 4233POPC   D2A54520  29.093  43.768   6.391
 4233POPC   C3A54521  29.074  43.690   6.855
 4233POPC   C4A54522  29.205  43.960   7.220
 4233POPC   C1B54523  29.559  43.583   6.150
 4233POPC   C2B54524  29.689  43.501   6.604
 4233POPC   C3B54525  29.543  43.584   7.046
 4233POPC   C4B54526  29.193  43.449   7.321
 4234POPC   NC354527  18.386  34.120   5.614
 4234POPC   PO454528  18.298  33.502   5.289
 4234POPC   GL154529  18.413  33.633   5.721
 4234POPC   GL254530  18.172  33.818   5.948
 4234POPC   C1A54531  18.625  33.671   6.106
 4234POPC   D2A54532  18.418  33.631   6.473
 4234POPC   C3A54533  18.487  33.838   6.853
 4234POPC   C4A54534  18.381  33.708   7.250
 4234POPC   C1B54535  18.362  34.103   6.269
 4234POPC   C2B54536  18.390  34.334   6.630
 4234POPC   C3B54537  18.140  34.230   6.959
 4234POPC   C4B54538  18.088  34.101   7.371
 4235POPC   NC354539  31.766  25.260   5.750
 4235POPC   PO454540  32.329  25.017   5.433
 4235POPC   GL154541  32.272  25.194   5.846
 4235POPC   GL254542  32.611  25.179   5.983
 4235POPC   C1A54543  32.191  25.302   6.288
 4235POPC   D2A54544  32.509  25.455   6.608
 4235POPC   C3A54545  32.420  25.343   7.024
 4235POPC   C4A54546  31.974  25.235   7.087
 4235POPC   C1B54547  32.519  24.903   6.325
 4235POPC   C2B54548  32.248  24.982   6.689
 4235POPC   C3B54549  32.413  24.849   7.081
 4235POPC   C4B54550  32.497  24.863   7.518
 4236POPC   NC354551   3.383  10.306   5.456
 4236POPC   PO454552   3.807  10.808   5.285
 4236POPC   GL154553   3.697  10.621   5.709
 4236POPC   GL254554   4.004  10.493   5.821
 4236POPC   C1A54555   3.432  10.449   6.100
 4236POPC   D2A54556   3.363  10.274   6.553
 4236POPC   C3A54557   3.286  10.466   7.001
 4236POPC   C4A54558   3.384  10.414   7.463
 4236POPC   C1B54559   3.908  10.584   6.256
 4236POPC   C2B54560   3.752  10.590   6.707
 4236POPC   C3B54561   3.780  10.527   7.160
 4236POPC   C4B54562   3.848  10.534   7.610
 4237POPC   NC354563  44.289   3.036   5.441
 4237POPC   PO454564  44.888   2.827   5.430
 4237POPC   GL154565  44.775   2.693   5.859
 4237POPC   GL254566  44.434   2.774   5.858
 4237POPC   C1A54567  44.879   2.716   6.295
 4237POPC   D2A54568   0.057   2.650   6.695
 4237POPC   C3A54569  44.858   2.907   6.957
 4237POPC   C4A54570  44.638   2.808   7.302
 4237POPC   C1B54571  44.262   2.530   6.172
 4237POPC   C2B54572  44.143   2.644   6.555
 4237POPC   C3B54573  44.277   2.683   6.951
 4237POPC   C4B54574  44.149   2.656   7.362
 4238POPC   NC354575  15.004   5.305   5.520
 4238POPC   PO454576  15.041   5.955   5.498
 4238POPC   GL154577  15.178   5.855   5.865
 4238POPC   GL254578  15.378   5.561   5.765
 4238POPC   C1A54579  14.968   5.666   6.219
 4238POPC   D2A54580  14.734   5.672   6.638
 4238POPC   C3A54581  14.943   5.960   6.972
 4238POPC   C4A54582  15.135   5.884   7.404
 4238POPC   C1B54583  15.488   5.638   6.194
 4238POPC   C2B54584  15.282   5.584   6.612
 4238POPC   C3B54585  15.179   5.510   7.048
 4238POPC   C4B54586  15.397   5.464   7.430
 4239POPC   NC354587  40.730  34.548   5.511
 4239POPC   PO454588  41.393  34.637   5.390
 4239POPC   GL154589  41.200  34.618   5.808
 4239POPC   GL254590  40.917  34.845   5.882
 4239POPC   C1A54591  40.992  34.444   6.195
 4239POPC   D2A54592  41.038  34.330   6.620
 4239POPC   C3A54593  41.144  34.593   6.967
 4239POPC   C4A54594  40.978  34.331   7.242
 4239POPC   C1B54595  40.617  34.760   6.202
 4239POPC   C2B54596  40.771  34.771   6.601
 4239POPC   C3B54597  40.648  34.640   6.985
 4239POPC   C4B54598  40.514  34.590   7.374
 4240POPC   NC354599   0.976  22.616   5.455
 4240POPC   PO454600   1.581  22.885   5.217
 4240POPC   GL154601   1.283  22.978   5.658
 4240POPC   GL254602   1.125  23.296   5.721
 4240POPC   C1A54603   1.208  22.765   6.110
 4240POPC   D2A54604   1.441  22.530   6.475
 4240POPC   C3A54605   1.368  22.693   6.916
 4240POPC   C4A54606   1.441  22.912   7.326
 4240POPC   C1B54607   1.096  23.272   6.162
 4240POPC   C2B54608   1.164  23.043   6.566
 4240POPC   C3B54609   1.081  23.165   6.999
 4240POPC   C4B54610   0.770  23.208   7.355
 4241POPC   NC354611  35.214   8.032   5.428
 4241POPC   PO454612  35.147   8.678   5.479
 4241POPC   GL154613  35.084   8.349   5.821
 4241POPC   GL254614  35.386   8.146   5.890
 4241POPC   C1A54615  35.068   8.238   6.276
 4241POPC   D2A54616  34.965   8.214   6.720
 4241POPC   C3A54617  35.314   8.101   7.014
 4241POPC   C4A54618  35.386   8.221   7.458
 4241POPC   C1B54619  35.345   7.803   6.195
 4241POPC   C2B54620  35.419   7.672   6.622
 4241POPC   C3B54621  35.538   7.607   7.032
 4241POPC   C4B54622  35.314   7.711   7.361
 4242POPC   NC354623  35.966  42.618   5.409
 4242POPC   PO454624  36.614  42.327   5.299
 4242POPC   GL154625  36.371  42.159   5.711
 4242POPC   GL254626  35.971  42.183   5.755
 4242POPC   C1A54627  36.259  42.126   6.177
 4242POPC   D2A54628  36.051  42.151   6.622
 4242POPC   C3A54629  36.312  42.207   7.005
 4242POPC   C4A54630  36.281  42.132   7.471
 4242POPC   C1B54631  35.830  42.394   6.191
 4242POPC   C2B54632  35.929  42.648   6.571
 4242POPC   C3B54633  35.794  42.502   6.989
 4242POPC   C4B54634  35.840  42.116   7.210
 4243POPC   NC354635  24.429   9.234   4.822
 4243POPC   PO454636  24.342   8.894   5.477
 4243POPC   GL154637  24.476   8.934   5.940
 4243POPC   GL254638  24.683   8.637   6.086
 4243POPC   C1A54639  24.446   8.968   6.387
 4243POPC   D2A54640  24.654   8.865   6.744
 4243POPC   C3A54641  24.522   9.101   7.113
 4243POPC   C4A54642  24.433   9.218   7.589
 4243POPC   C1B54643  25.019   8.599   6.361
 4243POPC   C2B54644  25.063   8.552   6.800
 4243POPC   C3B54645  24.835   8.617   7.161
 4243POPC   C4B54646  24.839   8.885   7.432
 4244POPC   NC354647  12.736   7.673   5.519
 4244POPC   PO454648  13.287   7.277   5.399
 4244POPC   GL154649  13.117   7.395   5.795
 4244POPC   GL254650  12.799   7.218   5.818
 4244POPC   C1A54651  12.919   7.540   6.210
 4244POPC   D2A54652  12.738   7.421   6.627
 4244POPC   C3A54653  12.834   7.582   7.055
 4244POPC   C4A54654  13.090   7.356   7.401
 4244POPC   C1B54655  12.647   7.014   6.195
 4244POPC   C2B54656  12.439   7.007   6.577
 4244POPC   C3B54657  12.561   7.065   6.970
 4244POPC   C4B54658  12.602   7.227   7.329
 4245POPC   NC354659   0.227  10.674   5.297
 4245POPC   PO454660   0.385  10.051   5.201
 4245POPC   GL154661   0.334  10.365   5.669
 4245POPC   GL254662   0.478  10.740   5.750
 4245POPC   C1A54663   0.234  10.472   6.113
 4245POPC   D2A54664   0.631  10.583   6.425
 4245POPC   C3A54665   0.551  10.533   6.896
 4245POPC   C4A54666   0.134  10.408   7.089
 4245POPC   C1B54667   0.350  10.948   6.168
 4245POPC   C2B54668   0.181  10.756   6.578
 4245POPC   C3B54669   0.204  10.911   6.998
 4245POPC   C4B54670   0.381  10.779   7.377
 4246POPC   NC354671  30.934  26.686   5.460
 4246POPC   PO454672  30.304  26.897   5.326
 4246POPC   GL154673  30.495  26.837   5.759
 4246POPC   GL254674  30.479  26.493   5.876
 4246POPC   C1A54675  30.526  26.993   6.195
 4246POPC   D2A54676  30.815  26.941   6.545
 4246POPC   C3A54677  30.743  26.915   6.992
 4246POPC   C4A54678  30.477  26.814   7.350
 4246POPC   C1B54679  30.796  26.524   6.217
 4246POPC   C2B54680  30.893  26.387   6.649
 4246POPC   C3B54681  30.998  26.416   7.094
 4246POPC   C4B54682  30.825  26.496   7.522
 4247POPC   NC354683   3.004  23.235   5.188
 4247POPC   PO454684   2.538  22.768   5.239
 4247POPC   GL154685   2.696  22.739   5.679
 4247POPC   GL254686   2.916  23.012   5.803
 4247POPC   C1A54687   2.508  22.852   6.098
 4247POPC   D2A54688   2.509  22.839   6.570
 4247POPC   C3A54689   2.667  23.055   6.961
 4247POPC   C4A54690   2.494  22.955   7.399
 4247POPC   C1B54691   2.969  23.003   6.264
 4247POPC   C2B54692   3.043  22.797   6.664
 4247POPC   C3B54693   3.220  23.009   7.015
 4247POPC   C4B54694   2.955  23.146   7.385
 4248POPC   NC354695  42.541  25.423   5.593
 4248POPC   PO454696  42.042  25.251   5.200
 4248POPC   GL154697  42.186  25.143   5.747
 4248POPC   GL254698  42.532  24.992   5.849
 4248POPC   C1A54699  42.222  25.229   6.214
 4248POPC   D2A54700  42.010  25.380   6.592
 4248POPC   C3A54701  42.312  25.298   6.940
 4248POPC   C4A54702  42.256  24.983   7.208
 4248POPC   C1B54703  42.625  24.905   6.303
 4248POPC   C2B54704  42.572  24.848   6.768
 4248POPC   C3B54705  42.789  25.033   7.120
 4248POPC   C4B54706  43.067  25.323   7.339
 4249POPC   NC354707  21.717  35.556   5.262
 4249POPC   PO454708  21.128  35.257   5.365
 4249POPC   GL154709  21.295  35.435   5.762
 4249POPC   GL254710  20.995  35.352   5.965
 4249POPC   C1A54711  21.425  35.411   6.207
 4249POPC   D2A54712  21.162  35.413   6.561
 4249POPC   C3A54713  21.396  35.422   6.905
 4249POPC   C4A54714  21.682  35.572   7.185
 4249POPC   C1B54715  21.042  35.035   6.256
 4249POPC   C2B54716  21.055  34.922   6.700
 4249POPC   C3B54717  21.203  35.032   7.139
 4249POPC   C4B54718  21.245  35.125   7.556
 4250POPC   NC354719  26.381   9.844   5.442
 4250POPC   PO454720  25.696   9.734   5.326
 4250POPC   GL154721  25.913   9.940   5.680
 4250POPC   GL254722  25.981   9.588   5.771
 4250POPC   C1A54723  26.112   9.941   6.109
 4250POPC   D2A54724  25.966   9.983   6.547
 4250POPC   C3A54725  26.287  10.026   6.861
 4250POPC   C4A54726  26.237  10.206   7.270
 4250POPC   C1B54727  25.768   9.515   6.193
 4250POPC   C2B54728  25.732   9.504   6.659
 4250POPC   C3B54729  25.708   9.455   7.105
 4250POPC   C4B54730  26.025   9.754   7.223
 4251POPC   NC354731  20.857  35.584   5.542
 4251POPC   PO454732  20.239  35.516   5.296
 4251POPC   GL154733  20.452  35.325   5.709
 4251POPC   GL254734  20.566  35.623   5.937
 4251POPC   C1A54735  20.545  35.156   6.136
 4251POPC   D2A54736  20.551  35.180   6.587
 4251POPC   C3A54737  20.818  35.298   6.938
 4251POPC   C4A54738  20.785  35.268   7.372
 4251POPC   C1B54739  20.710  35.622   6.355
 4251POPC   C2B54740  20.574  35.692   6.754
 4251POPC   C3B54741  20.527  35.669   7.179
 4251POPC   C4B54742  20.770  35.794   7.515
 4252POPC   NC354743  41.148  35.473   5.224
 4252POPC   PO454744  41.754  35.496   5.531
 4252POPC   GL154745  41.351  35.537   5.756
 4252POPC   GL254746  41.313  35.202   5.970
 4252POPC   C1A54747  41.238  35.653   6.187
 4252POPC   D2A54748  41.441  35.441   6.535
 4252POPC   C3A54749  41.570  35.581   6.949
 4252POPC   C4A54750  41.750  35.342   7.314
 4252POPC   C1B54751  41.217  34.904   6.299
 4252POPC   C2B54752  41.161  35.050   6.720
 4252POPC   C3B54753  41.161  35.113   7.144
 4252POPC   C4B54754  41.257  35.475   7.329
 4253POPC   NC354755  32.370  36.180   5.245
 4253POPC   PO454756  31.832  36.370   5.545
 4253POPC   GL154757  32.050  36.079   5.834
 4253POPC   GL254758  32.419  36.139   5.778
 4253POPC   C1A54759  32.076  36.019   6.310
 4253POPC   D2A54760  32.263  36.294   6.638
 4253POPC   C3A54761  32.150  36.214   7.063
 4253POPC   C4A54762  32.361  36.471   7.318
 4253POPC   C1B54763  32.562  36.163   6.221
 4253POPC   C2B54764  32.608  35.929   6.639
 4253POPC   C3B54765  32.646  36.020   7.091
 4253POPC   C4B54766  32.785  35.856   7.496
 4254POPC   NC354767  12.966  24.874   5.416
 4254POPC   PO454768  12.628  25.399   5.191
 4254POPC   GL154769  12.762  25.436   5.718
 4254POPC   GL254770  13.085  25.571   5.819
 4254POPC   C1A54771  12.673  25.350   6.174
 4254POPC   D2A54772  12.881  25.117   6.545
 4254POPC   C3A54773  12.727  25.189   6.976
 4254POPC   C4A54774  12.881  25.061   7.336
 4254POPC   C1B54775  13.182  25.283   6.138
 4254POPC   C2B54776  13.394  25.314   6.523
 4254POPC   C3B54777  13.244  25.228   6.911
 4254POPC   C4B54778  13.340  25.393   7.290
 4255POPC   NC354779  28.044  37.879   5.544
 4255POPC   PO454780  28.490  37.356   5.548
 4255POPC   GL154781  28.309  37.619   5.897
 4255POPC   GL254782  28.597  37.813   5.894
 4255POPC   C1A54783  28.113  37.631   6.348
 4255POPC   D2A54784  28.242  37.443   6.743
 4255POPC   C3A54785  27.989  37.508   7.049
 4255POPC   C4A54786  28.083  37.671   7.452
 4255POPC   C1B54787  28.631  37.564   6.314
 4255POPC   C2B54788  28.735  37.578   6.777
 4255POPC   C3B54789  28.504  37.758   7.153
 4255POPC   C4B54790  28.707  37.977   7.509
 4256POPC   NC354791   6.550   0.358   5.355
 4256POPC   PO454792   7.056   0.777   5.353
 4256POPC   GL154793   6.731   0.695   5.738
 4256POPC   GL254794   6.572   0.352   5.843
 4256POPC   C1A54795   6.488   0.729   6.167
 4256POPC   D2A54796   6.287   0.777   6.585
 4256POPC   C3A54797   6.541   0.608   6.924
 4256POPC   C4A54798   6.784   0.763   7.261
 4256POPC   C1B54799   6.632   0.203   6.222
 4256POPC   C2B54800   6.394   0.212   6.573
 4256POPC   C3B54801   6.690   0.121   6.854
 4256POPC   C4B54802   6.753   0.225   7.251
 4257POPC   NC354803  24.332  15.540   5.640
 4257POPC   PO454804  24.762  15.005   5.498
 4257POPC   GL154805  24.538  15.105   5.849
 4257POPC   GL254806  24.758  15.418   5.901
 4257POPC   C1A54807  24.332  14.912   6.210
 4257POPC   D2A54808  24.458  14.852   6.653
 4257POPC   C3A54809  24.228  14.849   7.059
 4257POPC   C4A54810  24.442  14.743   7.463
 4257POPC   C1B54811  24.500  15.427   6.285
 4257POPC   C2B54812  24.303  15.352   6.710
 4257POPC   C3B54813  24.277  15.386   7.180
 4257POPC   C4B54814  24.217  15.517   7.646
 4258POPC   NC354815  33.528   0.314   5.517
 4258POPC   PO454816  33.710  44.643   5.255
 4258POPC   GL154817  33.596  44.814   5.675
 4258POPC   GL254818  33.925  44.753   5.867
 4258POPC   C1A54819  33.466  44.709   6.114
 4258POPC   D2A54820  33.691  44.763   6.503
 4258POPC   C3A54821  33.608  44.517   6.867
 4258POPC   C4A54822  33.744  44.722   7.219
 4258POPC   C1B54823  33.935  44.436   6.219
 4258POPC   C2B54824  34.070  44.364   6.675
 4258POPC   C3B54825  34.146  44.425   7.147
 4258POPC   C4B54826  34.026  44.538   7.596
 4259POPC   NC354827  12.430  19.187   5.418
 4259POPC   PO454828  13.014  19.401   5.394
 4259POPC   GL154829  12.821  19.214   5.768
 4259POPC   GL254830  12.506  19.357   5.899
 4259POPC   C1A54831  12.852  19.018   6.186
 4259POPC   D2A54832  12.750  18.827   6.598
 4259POPC   C3A54833  12.989  19.036   6.917
 4259POPC   C4A54834  13.058  19.076   7.345
 4259POPC   C1B54835  12.839  19.564   6.139
 4259POPC   C2B54836  12.905  19.431   6.549
 4259POPC   C3B54837  12.555  19.284   6.780
 4259POPC   C4B54838  12.616  19.328   7.212
 4260POPC   NC354839  36.124   3.198   5.461
 4260POPC   PO454840  36.331   3.829   5.626
 4260POPC   GL154841  36.224   3.477   5.886
 4260POPC   GL254842  35.886   3.359   5.915
 4260POPC   C1A54843  36.160   3.422   6.321
 4260POPC   D2A54844  35.851   3.495   6.593
 4260POPC   C3A54845  36.109   3.457   6.935
 4260POPC   C4A54846  36.508   3.461   7.155
 4260POPC   C1B54847  35.818   3.779   6.143
 4260POPC   C2B54848  35.680   4.002   6.541
 4260POPC   C3B54849  35.792   3.875   6.973
 4260POPC   C4B54850  35.775   3.536   7.304
 4261POPC   NC354851  29.499   0.603   5.280
 4261POPC   PO454852  28.958   0.253   5.406
 4261POPC   GL154853  29.082   0.305   5.807
 4261POPC   GL254854  29.432   0.318   5.774
 4261POPC   C1A54855  28.987   0.284   6.248
 4261POPC   D2A54856  28.872   0.616   6.545
 4261POPC   C3A54857  28.948   0.501   6.949
 4261POPC   C4A54858  29.029   0.489   7.351
 4261POPC   C1B54859  29.493   0.245   6.217
 4261POPC   C2B54860  29.344   0.418   6.643
 4261POPC   C3B54861  29.445   0.584   7.080
 4261POPC   C4B54862  29.507   0.286   7.423
 4262POPC   NC354863   7.012  41.215   5.411
 4262POPC   PO454864   6.449  40.832   5.424
 4262POPC   GL154865   6.761  40.824   5.734
 4262POPC   GL254866   6.764  41.149   5.916
 4262POPC   C1A54867   6.830  40.688   6.161
 4262POPC   D2A54868   6.825  40.865   6.585
 4262POPC   C3A54869   6.693  40.626   6.928
 4262POPC   C4A54870   6.937  40.672   7.309
 4262POPC   C1B54871   6.465  41.070   6.299
 4262POPC   C2B54872   6.485  41.255   6.732
 4262POPC   C3B54873   6.756  41.153   7.073
 4262POPC   C4B54874   6.470  40.899   7.289
 4263POPC   NC354875  37.729  23.918   5.475
 4263POPC   PO454876  37.723  24.602   5.510
 4263POPC   GL154877  38.013  24.528   5.871
 4263POPC   GL254878  38.125  24.184   5.860
 4263POPC   C1A54879  37.971  24.516   6.307
 4263POPC   D2A54880  37.545  24.463   6.462
 4263POPC   C3A54881  37.555  24.451   6.887
 4263POPC   C4A54882  37.862  24.555   7.229
 4263POPC   C1B54883  37.776  24.095   6.121
 4263POPC   C2B54884  37.836  24.026   6.548
 4263POPC   C3B54885  37.923  24.106   6.960
 4263POPC   C4B54886  37.589  24.056   7.246
 4264POPC   NC354887  42.506   7.319   5.129
 4264POPC   PO454888  41.986   7.730   5.350
 4264POPC   GL154889  42.246   7.452   5.658
 4264POPC   GL254890  42.551   7.628   5.738
 4264POPC   C1A54891  42.248   7.332   6.135
 4264POPC   D2A54892  42.071   7.422   6.590
 4264POPC   C3A54893  42.270   7.332   6.994
 4264POPC   C4A54894  42.531   7.000   7.143
 4264POPC   C1B54895  42.585   7.738   6.168
 4264POPC   C2B54896  42.583   7.595   6.602
 4264POPC   C3B54897  42.520   7.774   7.009
 4264POPC   C4B54898  42.375   7.689   7.417
 4265POPC   NC354899  34.779   1.454   5.365
 4265POPC   PO454900  35.274   0.893   5.413
 4265POPC   GL154901  35.294   1.101   5.795
 4265POPC   GL254902  35.053   1.378   5.840
 4265POPC   C1A54903  35.508   1.246   6.176
 4265POPC   D2A54904  35.661   1.071   6.572
 4265POPC   C3A54905  35.604   1.280   6.988
 4265POPC   C4A54906  35.378   1.279   7.385
 4265POPC   C1B54907  35.012   1.080   6.212
 4265POPC   C2B54908  35.159   0.854   6.590
 4265POPC   C3B54909  35.165   0.976   7.017
 4265POPC   C4B54910  35.109   0.843   7.438
 4266POPC   NC354911  39.519  25.623   5.045
 4266POPC   PO454912  39.075  25.295   5.501
 4266POPC   GL154913  39.266  25.127   5.835
 4266POPC   GL254914  39.569  25.332   5.900
 4266POPC   C1A54915  39.306  24.968   6.225
 4266POPC   D2A54916  39.467  24.834   6.585
 4266POPC   C3A54917  39.279  24.936   6.933
 4266POPC   C4A54918  39.483  25.031   7.304
 4266POPC   C1B54919  39.253  25.487   6.214
 4266POPC   C2B54920  39.178  25.336   6.632
 4266POPC   C3B54921  39.195  25.441   7.080
 4266POPC   C4B54922  38.786  25.546   7.233
 4267POPC   NC354923  40.266  26.037   5.367
 4267POPC   PO454924  39.745  26.465   5.245
 4267POPC   GL154925  39.947  26.296   5.670
 4267POPC   GL254926  39.744  26.045   5.895
 4267POPC   C1A54927  40.215  26.163   6.042
 4267POPC   D2A54928  40.359  26.195   6.494
 4267POPC   C3A54929  40.145  25.942   6.841
 4267POPC   C4A54930  40.149  25.916   7.301
 4267POPC   C1B54931  39.746  26.307   6.296
 4267POPC   C2B54932  39.699  26.407   6.768
 4267POPC   C3B54933  39.721  26.171   7.190
 4267POPC   C4B54934  39.653  25.950   7.630
 4268POPC   NC354935   7.593   1.687   5.468
 4268POPC   PO454936   7.196   2.305   5.330
 4268POPC   GL154937   7.337   2.052   5.734
 4268POPC   GL254938   7.178   1.681   5.856
 4268POPC   C1A54939   7.498   1.940   6.159
 4268POPC   D2A54940   7.795   1.910   6.476
 4268POPC   C3A54941   7.764   2.156   6.861
 4268POPC   C4A54942   7.694   2.041   7.291
 4268POPC   C1B54943   7.079   1.716   6.350
 4268POPC   C2B54944   7.318   1.992   6.662
 4268POPC   C3B54945   7.289   2.285   7.031
 4268POPC   C4B54946   7.246   2.150   7.468
 4269POPC   NC354947  11.764  19.188   5.132
 4269POPC   PO454948  11.297  18.756   5.230
 4269POPC   GL154949  11.256  18.837   5.759
 4269POPC   GL254950  11.107  19.144   5.835
 4269POPC   C1A54951  11.115  18.855   6.256
 4269POPC   D2A54952  10.780  18.814   6.627
 4269POPC   C3A54953  10.907  18.869   7.084
 4269POPC   C4A54954  11.290  18.987   7.304
 4269POPC   C1B54955  11.188  19.380   6.204
 4269POPC   C2B54956  11.391  19.535   6.583
 4269POPC   C3B54957  11.363  19.421   7.024
 4269POPC   C4B54958  11.346  19.543   7.464
 4270POPC   NC354959   2.634  33.336   5.460
 4270POPC   PO454960   3.002  32.787   5.238
 4270POPC   GL154961   2.953  32.931   5.704
 4270POPC   GL254962   3.112  33.209   5.861
 4270POPC   C1A54963   2.695  33.052   6.105
 4270POPC   D2A54964   2.596  32.843   6.473
 4270POPC   C3A54965   2.664  33.041   6.873
 4270POPC   C4A54966   2.546  32.809   7.252
 4270POPC   C1B54967   3.142  32.865   6.211
 4270POPC   C2B54968   3.068  32.803   6.672
 4270POPC   C3B54969   3.125  32.981   7.095
 4270POPC   C4B54970   3.243  33.415   7.189
 4271POPC   NC354971  37.788   3.592   5.353
 4271POPC   PO454972  37.161   3.514   5.641
 4271POPC   GL154973  37.558   3.351   5.862
 4271POPC   GL254974  37.941   3.305   5.754
 4271POPC   C1A54975  37.644   3.421   6.310
 4271POPC   D2A54976  37.698   3.738   6.653
 4271POPC   C3A54977  37.454   3.663   7.040
 4271POPC   C4A54978  37.797   3.834   7.268
 4271POPC   C1B54979  38.085   3.198   6.164
 4271POPC   C2B54980  38.054   3.325   6.599
 4271POPC   C3B54981  37.853   3.348   6.997
 4271POPC   C4B54982  38.021   3.390   7.404
 4272POPC   NC354983  24.999   3.047   5.527
 4272POPC   PO454984  25.613   2.772   5.290
 4272POPC   GL154985  25.354   2.728   5.761
 4272POPC   GL254986  25.040   2.846   5.968
 4272POPC   C1A54987  25.466   2.682   6.197
 4272POPC   D2A54988  25.474   2.399   6.513
 4272POPC   C3A54989  25.463   2.610   6.861
 4272POPC   C4A54990  25.639   2.566   7.213
 4272POPC   C1B54991  25.183   3.127   6.244
 4272POPC   C2B54992  25.149   2.882   6.565
 4272POPC   C3B54993  25.095   2.928   6.949
 4272POPC   C4B54994  25.204   2.837   7.321
 4273POPC   NC354995  44.383  32.446   5.401
 4273POPC   PO454996  44.866  31.823   5.427
 4273POPC   GL154997  44.775  32.037   5.807
 4273POPC   GL254998  44.589  32.336   5.867
 4273POPC   C1A54999  44.886  31.984   6.246
 4273POPC   D2A55000  44.588  31.962   6.590
 4273POPC   C3A55001  44.669  32.058   7.025
 4273POPC   C4A55002  44.713  32.456   7.265
 4273POPC   C1B55003  44.338  32.115   6.132
 4273POPC   C2B55004  44.277  32.353   6.472
 4273POPC   C3B55005  44.350  32.396   6.838
 4273POPC   C4B55006  44.234  32.319   7.213
 4274POPC   NC355007  13.940  20.984   5.528
 4274POPC   PO455008  13.460  20.651   5.297
 4274POPC   GL155009  13.574  20.686   5.747
 4274POPC   GL255010  13.886  20.481   5.723
 4274POPC   C1A55011  13.747  20.747   6.189
 4274POPC   D2A55012  13.649  20.656   6.632
 4274POPC   C3A55013  13.395  20.983   6.855
 4274POPC   C4A55014  13.411  21.153   7.292
 4274POPC   C1B55015  13.932  20.278   6.123
 4274POPC   C2B55016  13.978  20.245   6.572
 4274POPC   C3B55017  13.962  20.428   6.994
 4274POPC   C4B55018  13.658  20.690   7.172
 4275POPC   NC355019  19.677  31.062   5.528
 4275POPC   PO455020  19.773  31.686   5.320
 4275POPC   GL155021  19.597  31.548   5.697
 4275POPC   GL255022  19.940  31.568   5.842
 4275POPC   C1A55023  19.458  31.693   6.105
 4275POPC   D2A55024  19.641  31.806   6.501
 4275POPC   C3A55025  19.591  31.564   6.880
 4275POPC   C4A55026  19.766  31.528   7.265
 4275POPC   C1B55027  20.187  31.463   6.223
 4275POPC   C2B55028  19.999  31.423   6.597
 4275POPC   C3B55029  20.108  31.241   6.942
 4275POPC   C4B55030  20.264  31.426   7.276
 4276POPC   NC355031   8.319  33.039   5.376
 4276POPC   PO455032   7.735  33.109   5.562
 4276POPC   GL155033   8.057  32.939   5.795
 4276POPC   GL255034   8.185  33.261   5.861
 4276POPC   C1A55035   8.134  32.918   6.223
 4276POPC   D2A55036   8.279  32.977   6.619
 4276POPC   C3A55037   7.984  33.022   6.926
 4276POPC   C4A55038   8.132  32.898   7.318
 4276POPC   C1B55039   8.458  33.382   6.203
 4276POPC   C2B55040   8.420  33.507   6.629
 4276POPC   C3B55041   8.451  33.289   7.007
 4276POPC   C4B55042   8.463  33.269   7.439
 4277POPC   NC355043  19.810   5.157   5.389
 4277POPC   PO455044  19.698   4.483   5.438
 4277POPC   GL155045  19.905   4.779   5.743
 4277POPC   GL255046  19.704   5.030   5.884
 4277POPC   C1A55047  19.983   4.782   6.228
 4277POPC   D2A55048  20.092   5.027   6.592
 4277POPC   C3A55049  19.913   5.005   6.996
 4277POPC   C4A55050  19.757   5.154   7.367
 4277POPC   C1B55051  19.867   5.277   6.216
 4277POPC   C2B55052  20.039   5.529   6.560
 4277POPC   C3B55053  19.904   5.533   6.994
 4277POPC   C4B55054  19.483   5.537   7.153
 4278POPC   NC355055  26.379  37.527   5.356
 4278POPC   PO455056  25.807  37.739   5.357
 4278POPC   GL155057  26.019  37.778   5.767
 4278POPC   GL255058  26.359  37.661   5.857
 4278POPC   C1A55059  25.893  37.904   6.187
 4278POPC   D2A55060  26.141  37.880   6.553
 4278POPC   C3A55061  25.984  37.815   6.934
 4278POPC   C4A55062  26.144  37.827   7.311
 4278POPC   C1B55063  26.525  37.626   6.279
 4278POPC   C2B55064  26.653  37.891   6.592
 4278POPC   C3B55065  26.515  38.040   6.976
 4278POPC   C4B55066  26.645  37.922   7.356
 4279POPC   NC355067  29.781  42.626   5.480
 4279POPC   PO455068  29.705  43.330   5.361
 4279POPC   GL155069  29.768  43.099   5.736
 4279POPC   GL255070  30.095  42.930   5.772
 4279POPC   C1A55071  29.768  43.113   6.202
 4279POPC   D2A55072  30.052  43.088   6.554
 4279POPC   C3A55073  29.913  43.137   6.966
 4279POPC   C4A55074  29.815  43.291   7.355
 4279POPC   C1B55075  30.019  42.649   6.138
 4279POPC   C2B55076  29.946  42.552   6.574
 4279POPC   C3B55077  30.157  42.678   6.962
 4279POPC   C4B55078  30.050  42.841   7.400
 4280POPC   NC355079  41.726  18.344   5.366
 4280POPC   PO455080  41.321  17.894   5.390
 4280POPC   GL155081  41.559  18.104   5.796
 4280POPC   GL255082  41.609  18.492   5.855
 4280POPC   C1A55083  41.659  18.182   6.268
 4280POPC   D2A55084  41.852  18.010   6.634
 4280POPC   C3A55085  41.679  17.963   7.031
 4280POPC   C4A55086  41.514  18.160   7.398
 4280POPC   C1B55087  41.909  18.614   6.202
 4280POPC   C2B55088  41.938  18.536   6.661
 4280POPC   C3B55089  41.651  18.486   7.018
 4280POPC   C4B55090  41.385  18.681   7.360
 4281POPC   NC355091  42.978   2.158   5.424
 4281POPC   PO455092  43.258   1.557   5.551
 4281POPC   GL155093  43.230   1.866   5.912
 4281POPC   GL255094  43.445   2.188   5.833
 4281POPC   C1A55095  43.050   1.796   6.353
 4281POPC   D2A55096  42.839   2.039   6.708
 4281POPC   C3A55097  42.814   2.025   7.177
 4281POPC   C4A55098  42.842   2.114   7.655
 4281POPC   C1B55099  43.302   2.256   6.266
 4281POPC   C2B55100  43.379   2.052   6.654
 4281POPC   C3B55101  43.290   2.297   7.000
 4281POPC   C4B55102  43.291   2.106   7.396
 4282POPC   NC355103  25.226  13.265   5.400
 4282POPC   PO455104  25.043  12.630   5.115
 4282POPC   GL155105  25.123  12.754   5.592
 4282POPC   GL255106  25.398  12.942   5.784
 4282POPC   C1A55107  25.080  12.656   6.073
 4282POPC   D2A55108  25.218  12.524   6.519
 4282POPC   C3A55109  25.079  12.511   6.949
 4282POPC   C4A55110  25.088  12.849   7.256
 4282POPC   C1B55111  25.565  12.780   6.214
 4282POPC   C2B55112  25.714  12.641   6.632
 4282POPC   C3B55113  25.528  12.769   7.009
 4282POPC   C4B55114  25.561  12.892   7.457
 4283POPC   NC355115  20.942   2.152   5.606
 4283POPC   PO455116  20.505   2.475   5.192
 4283POPC   GL155117  20.435   2.191   5.685
 4283POPC   GL255118  20.543   1.822   5.823
 4283POPC   C1A55119  20.635   2.149   6.183
 4283POPC   D2A55120  20.634   2.209   6.597
 4283POPC   C3A55121  20.742   1.922   6.894
 4283POPC   C4A55122  20.774   2.043   7.284
 4283POPC   C1B55123  20.242   1.850   6.212
 4283POPC   C2B55124  20.228   1.909   6.696
 4283POPC   C3B55125  20.294   1.827   7.168
 4283POPC   C4B55126  20.218   1.767   7.630
 4284POPC   NC355127  35.799  44.185   5.375
 4284POPC   PO455128  36.396  43.763   5.482
 4284POPC   GL155129  36.319  43.868   5.894
 4284POPC   GL255130  36.027  44.015   5.898
 4284POPC   C1A55131  36.146  43.709   6.304
 4284POPC   D2A55132  36.192  43.536   6.732
 4284POPC   C3A55133  36.283  43.834   7.100
 4284POPC   C4A55134  36.476  43.751   7.521
 4284POPC   C1B55135  36.076  44.228   6.307
 4284POPC   C2B55136  35.995  44.071   6.733
 4284POPC   C3B55137  35.911  44.174   7.185
 4284POPC   C4B55138  35.754  44.122   7.610
 4285POPC   NC355139  10.187  43.748   5.191
 4285POPC   PO455140  10.572  44.150   5.466
 4285POPC   GL155141  10.654  43.967   5.901
 4285POPC   GL255142  10.741  43.592   5.910
 4285POPC   C1A55143  10.522  43.794   6.326
 4285POPC   D2A55144  10.527  43.751   6.772
 4285POPC   C3A55145  10.749  44.096   7.009
 4285POPC   C4A55146  10.793  44.014   7.421
 4285POPC   C1B55147  10.911  43.465   6.314
 4285POPC   C2B55148  10.942  43.420   6.742
 4285POPC   C3B55149  10.893  43.619   7.114
 4285POPC   C4B55150  10.902  43.530   7.532
 4286POPC   NC355151   2.981  26.450   5.414
 4286POPC   PO455152   2.826  25.768   5.282
 4286POPC   GL155153   2.806  25.872   5.702
 4286POPC   GL255154   2.549  26.095   5.767
 4286POPC   C1A55155   2.852  25.902   6.148
 4286POPC   D2A55156   2.757  25.894   6.569
 4286POPC   C3A55157   2.925  25.759   6.943
 4286POPC   C4A55158   2.869  26.037   7.280
 4286POPC   C1B55159   2.424  26.256   6.146
 4286POPC   C2B55160   2.361  26.195   6.588
 4286POPC   C3B55161   2.655  26.313   6.895
 4286POPC   C4B55162   2.544  26.428   7.326
 4287POPC   NC355163  28.539  36.318   5.425
 4287POPC   PO455164  27.942  36.511   5.291
 4287POPC   GL155165  28.085  36.284   5.706
 4287POPC   GL255166  28.292  35.988   5.755
 4287POPC   C1A55167  28.079  36.300   6.178
 4287POPC   D2A55168  27.989  35.996   6.537
 4287POPC   C3A55169  28.102  36.046   6.988
 4287POPC   C4A55170  28.299  35.708   7.245
 4287POPC   C1B55171  28.568  36.182   6.098
 4287POPC   C2B55172  28.495  36.171   6.568
 4287POPC   C3B55173  28.624  36.060   7.012
 4287POPC   C4B55174  28.797  35.971   7.431
 4288POPC   NC355175  25.372  43.616   5.491
 4288POPC   PO455176  24.978  44.174   5.525
 4288POPC   GL155177  25.132  43.931   5.830
 4288POPC   GL255178  24.874  43.730   5.777
 4288POPC   C1A55179  25.321  43.837   6.226
 4288POPC   D2A55180  25.363  44.061   6.577
 4288POPC   C3A55181  25.425  43.900   6.952
 4288POPC   C4A55182  25.222  43.920   7.322
 4288POPC   C1B55183  24.789  43.631   6.182
 4288POPC   C2B55184  25.017  43.555   6.549
 4288POPC   C3B55185  25.025  43.569   6.980
 4288POPC   C4B55186  24.989  43.469   7.399
 4289POPC   NC355187  38.860   3.426   5.568
 4289POPC   PO455188  39.508   3.141   5.499
 4289POPC   GL155189  39.297   3.371   5.862
 4289POPC   GL255190  38.987   3.208   5.989
 4289POPC   C1A55191  39.255   3.766   6.171
 4289POPC   D2A55192  39.063   3.941   6.605
 4289POPC   C3A55193  39.259   3.743   7.028
 4289POPC   C4A55194  39.326   3.364   7.310
 4289POPC   C1B55195  38.864   3.479   6.297
 4289POPC   C2B55196  39.072   3.425   6.663
 4289POPC   C3B55197  38.945   3.217   7.002
 4289POPC   C4B55198  38.628   3.500   7.093
 4290POPC   NC355199  14.606  20.846   5.125
 4290POPC   PO455200  14.400  20.254   5.419
 4290POPC   GL155201  14.388  20.475   5.838
 4290POPC   GL255202  14.377  20.851   5.795
 4290POPC   C1A55203  14.395  20.480   6.312
 4290POPC   D2A55204  14.701  20.480   6.678
 4290POPC   C3A55205  14.529  20.341   7.083
 4290POPC   C4A55206  14.483  20.455   7.524
 4290POPC   C1B55207  14.302  20.986   6.243
 4290POPC   C2B55208  14.287  20.815   6.703
 4290POPC   C3B55209  14.283  20.831   7.160
 4290POPC   C4B55210  14.367  20.986   7.580
 4291POPC   NC355211   0.023  17.343   5.122
 4291POPC   PO455212   0.587  17.218   5.472
 4291POPC   GL155213   0.302  17.434   5.739
 4291POPC   GL255214   0.124  17.129   5.838
 4291POPC   C1A55215   0.428  17.651   6.143
 4291POPC   D2A55216   0.568  17.839   6.552
 4291POPC   C3A55217   0.721  17.599   6.927
 4291POPC   C4A55218   0.644  17.632   7.365
 4291POPC   C1B55219   0.077  17.273   6.220
 4291POPC   C2B55220   0.307  17.378   6.587
 4291POPC   C3B55221   0.282  17.355   7.027
 4291POPC   C4B55222  44.994  17.098   7.218
 4292POPC   NC355223  30.727  37.076   5.213
 4292POPC   PO455224  30.500  36.699   5.708
 4292POPC   GL155225  30.569  37.042   5.928
 4292POPC   GL255226  30.867  37.126   5.747
 4292POPC   C1A55227  30.435  37.052   6.345
 4292POPC   D2A55228  30.762  37.101   6.634
 4292POPC   C3A55229  30.815  36.759   6.946
 4292POPC   C4A55230  30.751  36.564   7.354
 4292POPC   C1B55231  31.035  37.019   6.175
 4292POPC   C2B55232  31.282  37.105   6.573
 4292POPC   C3B55233  31.114  37.160   6.997
 4292POPC   C4B55234  30.974  37.046   7.410
 4293POPC   NC355235  29.511   5.223   5.321
 4293POPC   PO455236  30.029   4.926   5.496
 4293POPC   GL155237  29.675   5.043   5.790
 4293POPC   GL255238  29.565   5.412   5.793
 4293POPC   C1A55239  29.689   4.933   6.239
 4293POPC   D2A55240  29.928   5.066   6.612
 4293POPC   C3A55241  29.834   4.907   7.032
 4293POPC   C4A55242  29.868   4.864   7.492
 4293POPC   C1B55243  29.725   5.439   6.209
 4293POPC   C2B55244  29.738   5.552   6.639
 4293POPC   C3B55245  29.913   5.425   7.026
 4293POPC   C4B55246  29.712   5.336   7.390
 4294POPC   NC355247   3.219  25.575   5.087
 4294POPC   PO455248   3.801  25.911   5.334
 4294POPC   GL155249   3.479  26.117   5.696
 4294POPC   GL255250   3.294  25.890   5.866
 4294POPC   C1A55251   3.355  26.253   6.181
 4294POPC   D2A55252   3.211  26.086   6.587
 4294POPC   C3A55253   3.358  26.087   7.021
 4294POPC   C4A55254   3.529  26.368   7.353
 4294POPC   C1B55255   3.646  25.830   6.227
 4294POPC   C2B55256   3.889  25.681   6.617
 4294POPC   C3B55257   3.751  25.597   7.037
 4294POPC   C4B55258   3.661  25.854   7.392
 4295POPC   NC355259  42.653  22.651   5.399
 4295POPC   PO455260  42.460  23.305   5.430
 4295POPC   GL155261  42.527  22.991   5.803
 4295POPC   GL255262  42.220  22.866   5.897
 4295POPC   C1A55263  42.485  23.001   6.299
 4295POPC   D2A55264  42.234  23.284   6.575
 4295POPC   C3A55265  42.374  23.159   6.987
 4295POPC   C4A55266  42.440  22.727   7.178
 4295POPC   C1B55267  42.058  22.714   6.281
 4295POPC   C2B55268  42.199  22.774   6.693
 4295POPC   C3B55269  41.970  22.789   7.068
 4295POPC   C4B55270  41.783  22.503   7.292
 4296POPC   NC355271  41.718  32.660   5.688
 4296POPC   PO455272  41.475  32.039   5.511
 4296POPC   GL155273  41.626  32.170   5.893
 4296POPC   GL255274  41.951  32.135   5.826
 4296POPC   C1A55275  41.694  32.300   6.323
 4296POPC   D2A55276  41.525  32.270   6.743
 4296POPC   C3A55277  41.547  32.112   7.170
 4296POPC   C4A55278  41.610  32.330   7.580
 4296POPC   C1B55279  42.060  31.938   6.222
 4296POPC   C2B55280  42.075  32.086   6.650
 4296POPC   C3B55281  42.027  31.973   7.077
 4296POPC   C4B55282  41.855  31.834   7.494
 4297POPC   NC355283  41.259  13.423   5.649
 4297POPC   PO455284  41.825  13.631   5.316
 4297POPC   GL155285  41.741  13.561   5.743
 4297POPC   GL255286  41.607  13.875   5.878
 4297POPC   C1A55287  41.638  13.457   6.179
 4297POPC   D2A55288  41.635  13.663   6.565
 4297POPC   C3A55289  41.357  13.543   6.842
 4297POPC   C4A55290  41.414  13.485   7.256
 4297POPC   C1B55291  41.495  14.040   6.276
 4297POPC   C2B55292  41.197  14.148   6.605
 4297POPC   C3B55293  41.185  13.969   7.014
 4297POPC   C4B55294  41.388  13.971   7.377
 4298POPC   NC355295  27.546   8.489   5.421
 4298POPC   PO455296  27.742   7.886   5.707
 4298POPC   GL155297  27.729   8.279   5.888
 4298POPC   GL255298  27.375   8.423   5.881
 4298POPC   C1A55299  27.843   8.264   6.310
 4298POPC   D2A55300  27.648   7.920   6.547
 4298POPC   C3A55301  27.649   8.053   6.947
 4298POPC   C4A55302  27.494   8.094   7.326
 4298POPC   C1B55303  27.337   8.254   6.261
 4298POPC   C2B55304  27.424   8.412   6.649
 4298POPC   C3B55305  27.195   8.313   6.997
 4298POPC   C4B55306  27.164   8.457   7.430
 4299POPC   NC355307  43.580  42.140   5.538
 4299POPC   PO455308  42.994  42.443   5.252
 4299POPC   GL155309  43.070  42.454   5.734
 4299POPC   GL255310  43.388  42.525   5.900
 4299POPC   C1A55311  42.957  42.315   6.185
 4299POPC   D2A55312  42.731  42.339   6.617
 4299POPC   C3A55313  42.958  42.350   7.019
 4299POPC   C4A55314  43.230  42.047   7.113
 4299POPC   C1B55315  43.472  42.289   6.314
 4299POPC   C2B55316  43.539  42.365   6.771
 4299POPC   C3B55317  43.412  42.526   7.168
 4299POPC   C4B55318  43.455  42.238   7.556
 4300POPC   NC355319  11.100  17.076   5.616
 4300POPC   PO455320  11.519  17.302   5.128
 4300POPC   GL155321  11.497  17.446   5.641
 4300POPC   GL255322  11.157  17.571   5.792
 4300POPC   C1A55323  11.499  17.632   6.129
 4300POPC   D2A55324  11.356  17.539   6.577
 4300POPC   C3A55325  11.623  17.579   6.957
 4300POPC   C4A55326  11.583  17.915   7.273
 4300POPC   C1B55327  11.005  17.372   6.215
 4300POPC   C2B55328  10.988  17.197   6.651
 4300POPC   C3B55329  11.184  17.282   7.055
 4300POPC   C4B55330  11.150  17.099   7.476
 4301POPC   NC355331  28.764  37.021   5.714
 4301POPC   PO455332  29.265  36.718   5.367
 4301POPC   GL155333  29.189  36.743   5.797
 4301POPC   GL255334  28.869  36.522   5.795
 4301POPC   C1A55335  29.245  37.004   6.193
 4301POPC   D2A55336  29.008  36.935   6.577
 4301POPC   C3A55337  29.048  37.141   6.999
 4301POPC   C4A55338  29.461  37.141   7.156
 4301POPC   C1B55339  28.975  36.538   6.226
 4301POPC   C2B55340  28.929  36.434   6.656
 4301POPC   C3B55341  29.131  36.635   6.977
 4301POPC   C4B55342  29.160  36.770   7.410
 4302POPC   NC355343   4.491   7.159   5.411
 4302POPC   PO455344   4.090   7.788   5.343
 4302POPC   GL155345   4.040   7.542   5.737
 4302POPC   GL255346   4.024   7.169   5.747
 4302POPC   C1A55347   4.272   7.551   6.143
 4302POPC   D2A55348   4.546   7.573   6.519
 4302POPC   C3A55349   4.374   7.504   6.927
 4302POPC   C4A55350   4.499   7.285   7.276
 4302POPC   C1B55351   3.846   7.249   6.143
 4302POPC   C2B55352   4.000   7.326   6.531
 4302POPC   C3B55353   4.048   7.106   6.884
 4302POPC   C4B55354   3.982   7.265   7.282
 4303POPC   NC355355  28.952  11.629   5.300
 4303POPC   PO455356  29.441  11.274   5.418
 4303POPC   GL155357  29.036  11.269   5.729
 4303POPC   GL255358  28.876  11.584   5.820
 4303POPC   C1A55359  28.792  11.196   6.159
 4303POPC   D2A55360  28.961  11.274   6.574
 4303POPC   C3A55361  28.777  11.217   6.949
 4303POPC   C4A55362  29.060  11.108   7.264
 4303POPC   C1B55363  29.162  11.571   6.188
 4303POPC   C2B55364  29.241  11.704   6.629
 4303POPC   C3B55365  29.208  11.574   7.068
 4303POPC   C4B55366  29.367  11.809   7.416
 4304POPC   NC355367  15.779  44.855   5.528
 4304POPC   PO455368  16.202  44.409   5.581
 4304POPC   GL155369  16.058  44.708   5.956
 4304POPC   GL255370  15.781  45.000   6.008
 4304POPC   C1A55371  15.802  44.578   6.337
 4304POPC   D2A55372  15.734  44.731   6.775
 4304POPC   C3A55373  15.856  44.466   7.157
 4304POPC   C4A55374  16.159  44.530   7.522
 4304POPC   C1B55375  15.973   0.050   6.409
 4304POPC   C2B55376  16.320   0.001   6.665
 4304POPC   C3B55377  16.202  44.839   7.009
 4304POPC   C4B55378  15.916  44.940   7.278
 4305POPC   NC355379  20.853  31.882   5.661
 4305POPC   PO455380  20.374  32.357   5.526
 4305POPC   GL155381  20.655  32.332   5.845
 4305POPC   GL255382  20.945  32.547   5.769
 4305POPC   C1A55383  20.503  32.281   6.253
 4305POPC   D2A55384  20.290  32.393   6.617
 4305POPC   C3A55385  20.437  32.136   6.903
 4305POPC   C4A55386  20.579  32.345   7.219
 4305POPC   C1B55387  21.013  32.421   6.234
 4305POPC   C2B55388  20.857  32.347   6.672
 4305POPC   C3B55389  21.043  32.224   7.100
 4305POPC   C4B55390  20.972  32.350   7.568
 4306POPC   NC355391  26.115  26.346   5.496
 4306POPC   PO455392  25.688  25.924   5.361
 4306POPC   GL155393  25.857  25.918   5.780
 4306POPC   GL255394  26.228  25.875   5.737
 4306POPC   C1A55395  25.901  26.130   6.201
 4306POPC   D2A55396  25.970  26.378   6.589
 4306POPC   C3A55397  25.978  26.116   6.965
 4306POPC   C4A55398  25.767  25.823   7.256
 4306POPC   C1B55399  26.393  26.026   6.129
 4306POPC   C2B55400  26.321  25.971   6.573
 4306POPC   C3B55401  26.536  26.074   6.955
 4306POPC   C4B55402  26.431  26.206   7.368
 4307POPC   NC355403  34.974  32.315   5.598
 4307POPC   PO455404  35.597  32.166   5.360
 4307POPC   GL155405  35.429  32.210   5.804
 4307POPC   GL255406  35.114  32.000   5.966
 4307POPC   C1A55407  35.611  32.408   6.167
 4307POPC   D2A55408  35.670  32.220   6.557
 4307POPC   C3A55409  35.550  32.390   6.915
 4307POPC   C4A55410  35.266  32.323   7.251
 4307POPC   C1B55411  35.163  32.244   6.339
 4307POPC   C2B55412  35.077  32.187   6.769
 4307POPC   C3B55413  35.054  31.885   7.114
 4307POPC   C4B55414  35.067  31.994   7.576
 4308POPC   NC355415  23.984  24.928   5.388
 4308POPC   PO455416  24.590  24.624   5.262
 4308POPC   GL155417  24.537  24.551   5.682
 4308POPC   GL255418  24.302  24.749   5.767
 4308POPC   C1A55419  24.729  24.584   6.080
 4308POPC   D2A55420  24.562  24.597   6.497
 4308POPC   C3A55421  24.691  24.786   6.881
 4308POPC   C4A55422  24.687  24.555   7.256
 4308POPC   C1B55423  24.214  24.452   6.141
 4308POPC   C2B55424  24.072  24.474   6.611
 4308POPC   C3B55425  24.175  24.534   7.087
 4308POPC   C4B55426  24.298  24.230   7.472
 4309POPC   NC355427  14.793   9.638   5.272
 4309POPC   PO455428  14.158   9.527   5.488
 4309POPC   GL155429  14.381   9.752   5.798
 4309POPC   GL255430  14.233  10.056   5.872
 4309POPC   C1A55431  14.594   9.729   6.201
 4309POPC   D2A55432  14.429   9.757   6.599
 4309POPC   C3A55433  14.579   9.597   6.962
 4309POPC   C4A55434  14.473   9.633   7.360
 4309POPC   C1B55435  14.482  10.218   6.239
 4309POPC   C2B55436  14.380  10.252   6.675
 4309POPC   C3B55437  14.494  10.100   7.063
 4309POPC   C4B55438  14.376  10.113   7.494
 4310POPC   NC355439   0.613   2.543   5.573
 4310POPC   PO455440   0.566   3.221   5.812
 4310POPC   GL155441   0.667   2.882   5.947
 4310POPC   GL255442   0.293   2.755   5.910
 4310POPC   C1A55443   0.858   2.972   6.339
 4310POPC   D2A55444   0.604   3.244   6.594
 4310POPC   C3A55445   0.391   2.987   6.900
 4310POPC   C4A55446   0.579   2.819   7.266
 4310POPC   C1B55447   0.377   2.833   6.353
 4310POPC   C2B55448   0.634   2.574   6.634
 4310POPC   C3B55449   0.462   2.397   7.001
 4310POPC   C4B55450   0.123   2.600   7.242
 4311POPC   NC355451  27.155  16.396   5.543
 4311POPC   PO455452  26.709  16.901   5.486
 4311POPC   GL155453  26.979  16.885   5.887
 4311POPC   GL255454  26.974  16.541   5.982
 4311POPC   C1A55455  26.987  16.872   6.368
 4311POPC   D2A55456  27.052  16.650   6.774
 4311POPC   C3A55457  26.717  16.676   7.061
 4311POPC   C4A55458  26.721  16.696   7.488
 4311POPC   C1B55459  26.979  16.288   6.356
 4311POPC   C2B55460  26.600  16.276   6.603
 4311POPC   C3B55461  26.465  16.213   7.017
 4311POPC   C4B55462  26.512  16.251   7.453
 4312POPC   NC355463  15.654   0.757   5.528
 4312POPC   PO455464  16.080   1.456   5.411
 4312POPC   GL155465  16.134   1.319   5.807
 4312POPC   GL255466  16.026   1.008   5.762
 4312POPC   C1A55467  15.921   1.391   6.210
 4312POPC   D2A55468  15.733   1.324   6.610
 4312POPC   C3A55469  15.945   1.371   6.995
 4312POPC   C4A55470  15.722   1.505   7.368
 4312POPC   C1B55471  16.065   0.893   6.196
 4312POPC   C2B55472  16.191   1.038   6.610
 4312POPC   C3B55473  16.142   0.872   7.027
 4312POPC   C4B55474  15.746   0.942   7.229
 4313POPC   NC355475   7.116   8.581   5.610
 4313POPC   PO455476   7.468   8.032   5.464
 4313POPC   GL155477   7.428   8.086   5.869
 4313POPC   GL255478   7.663   7.815   5.889
 4313POPC   C1A55479   7.285   8.302   6.250
 4313POPC   D2A55480   7.448   8.403   6.663
 4313POPC   C3A55481   7.274   8.207   7.048
 4313POPC   C4A55482   7.380   8.308   7.495
 4313POPC   C1B55483   7.755   8.055   6.261
 4313POPC   C2B55484   7.675   7.922   6.671
 4313POPC   C3B55485   7.785   8.142   7.034
 4313POPC   C4B55486   7.734   7.963   7.414
 4314POPC   NC355487  42.754   6.308   5.349
 4314POPC   PO455488  43.358   6.697   5.463
 4314POPC   GL155489  43.256   6.585   5.846
 4314POPC   GL255490  42.938   6.434   5.816
 4314POPC   C1A55491  43.097   6.749   6.213
 4314POPC   D2A55492  42.991   6.556   6.582
 4314POPC   C3A55493  42.966   6.856   6.903
 4314POPC   C4A55494  42.920   6.699   7.298
 4314POPC   C1B55495  42.832   6.178   6.186
 4314POPC   C2B55496  42.970   6.019   6.596
 4314POPC   C3B55497  42.995   6.248   7.018
 4314POPC   C4B55498  42.824   6.233   7.478
 4315POPC   NC355499  40.017  39.060   5.420
 4315POPC   PO455500  39.957  39.675   5.462
 4315POPC   GL155501  39.932  39.399   5.830
 4315POPC   GL255502  40.258  39.224   5.846
 4315POPC   C1A55503  40.045  39.407   6.288
 4315POPC   D2A55504  39.896  39.534   6.703
 4315POPC   C3A55505  39.992  39.265   7.044
 4315POPC   C4A55506  39.710  39.179   7.399
 4315POPC   C1B55507  40.323  38.961   6.223
 4315POPC   C2B55508  40.225  39.012   6.641
 4315POPC   C3B55509  40.286  38.820   7.024
 4315POPC   C4B55510  40.336  39.087   7.377
 4316POPC   NC355511  39.184  40.170   5.348
 4316POPC   PO455512  38.834  39.670   5.521
 4316POPC   GL155513  38.998  39.951   5.816
 4316POPC   GL255514  39.164  40.289   5.854
 4316POPC   C1A55515  39.136  39.838   6.213
 4316POPC   D2A55516  39.476  39.752   6.478
 4316POPC   C3A55517  39.397  39.867   6.876
 4316POPC   C4A55518  39.012  39.987   7.047
 4316POPC   C1B55519  39.359  40.291   6.256
 4316POPC   C2B55520  39.272  40.363   6.679
 4316POPC   C3B55521  39.389  40.333   7.085
 4316POPC   C4B55522  39.413  40.031   7.390
 4317POPC   NC355523  17.947  25.166   5.026
 4317POPC   PO455524  18.401  25.228   5.515
 4317POPC   GL155525  18.564  25.139   5.901
 4317POPC   GL255526  18.208  25.147   5.995
 4317POPC   C1A55527  18.569  25.115   6.341
 4317POPC   D2A55528  18.289  25.249   6.693
 4317POPC   C3A55529  18.484  25.163   7.077
 4317POPC   C4A55530  18.397  25.292   7.472
 4317POPC   C1B55531  17.901  25.156   6.324
 4317POPC   C2B55532  17.780  25.069   6.764
 4317POPC   C3B55533  17.971  25.134   7.176
 4317POPC   C4B55534  17.945  25.113   7.638
 4318POPC   NC355535  43.518  39.192   5.502
 4318POPC   PO455536  42.968  39.489   5.379
 4318POPC   GL155537  43.099  39.369   5.766
 4318POPC   GL255538  43.330  39.634   5.802
 4318POPC   C1A55539  42.916  39.247   6.144
 4318POPC   D2A55540  42.974  39.014   6.537
 4318POPC   C3A55541  42.684  39.061   6.838
 4318POPC   C4A55542  42.801  39.109   7.236
 4318POPC   C1B55543  43.331  39.534   6.249
 4318POPC   C2B55544  43.046  39.511   6.573
 4318POPC   C3B55545  42.822  39.549   6.939
 4318POPC   C4B55546  43.187  39.469   7.187
 4319POPC   NC355547   2.915  16.336   5.677
 4319POPC   PO455548   2.631  16.602   5.117
 4319POPC   GL155549   2.669  16.811   5.676
 4319POPC   GL255550   2.977  16.861   5.783
 4319POPC   C1A55551   2.645  16.626   6.169
 4319POPC   D2A55552   2.901  16.342   6.473
 4319POPC   C3A55553   3.043  16.485   6.900
 4319POPC   C4A55554   3.010  16.304   7.298
 4319POPC   C1B55555   3.115  16.774   6.214
 4319POPC   C2B55556   2.868  16.853   6.596
 4319POPC   C3B55557   2.999  17.007   7.006
 4319POPC   C4B55558   2.981  17.069   7.446
 4320POPC   NC355559  41.373   2.939   5.091
 4320POPC   PO455560  41.794   2.765   5.494
 4320POPC   GL155561  41.655   2.683   5.895
 4320POPC   GL255562  41.462   2.993   5.885
 4320POPC   C1A55563  41.521   2.748   6.330
 4320POPC   D2A55564  41.525   2.986   6.679
 4320POPC   C3A55565  41.460   2.716   7.018
 4320POPC   C4A55566  41.678   2.602   7.404
 4320POPC   C1B55567  41.231   3.193   6.216
 4320POPC   C2B55568  41.086   3.203   6.624
 4320POPC   C3B55569  41.219   3.187   7.086
 4320POPC   C4B55570  41.403   3.006   7.439
 4321POPC   NC355571  35.969  24.299   5.333
 4321POPC   PO455572  36.423  23.772   5.346
 4321POPC   GL155573  36.439  23.785   5.828
 4321POPC   GL255574  36.413  24.126   5.936
 4321POPC   C1A55575  36.290  23.622   6.261
 4321POPC   D2A55576  36.330  23.703   6.723
 4321POPC   C3A55577  36.311  23.399   7.073
 4321POPC   C4A55578  35.972  23.188   7.255
 4321POPC   C1B55579  36.099  24.103   6.292
 4321POPC   C2B55580  35.859  23.833   6.597
 4321POPC   C3B55581  35.931  23.771   7.073
 4321POPC   C4B55582  35.880  23.817   7.529
 4322POPC   NC355583   3.077  42.744   5.633
 4322POPC   PO455584   3.391  43.269   5.296
 4322POPC   GL155585   3.547  43.120   5.749
 4322POPC   GL255586   3.330  42.928   6.013
 4322POPC   C1A55587   3.627  43.298   6.170
 4322POPC   D2A55588   3.364  43.287   6.527
 4322POPC   C3A55589   3.558  43.234   6.905
 4322POPC   C4A55590   3.626  43.182   7.323
 4322POPC   C1B55591   3.254  42.637   6.361
 4322POPC   C2B55592   3.140  42.852   6.733
 4322POPC   C3B55593   3.269  42.871   7.131
 4322POPC   C4B55594   3.263  42.881   7.572
 4323POPC   NC355595   3.315  18.861   5.527
 4323POPC   PO455596   3.865  19.197   5.343
 4323POPC   GL155597   3.696  19.119   5.743
 4323POPC   GL255598   3.394  19.321   5.732
 4323POPC   C1A55599   3.663  18.819   6.129
 4323POPC   D2A55600   3.682  18.857   6.571
 4323POPC   C3A55601   3.381  18.933   6.915
 4323POPC   C4A55602   3.358  18.827   7.356
 4323POPC   C1B55603   3.515  19.294   6.190
 4323POPC   C2B55604   3.486  19.378   6.635
 4323POPC   C3B55605   3.569  19.409   7.084
 4323POPC   C4B55606   3.430  19.353   7.502
 4324POPC   NC355607  18.970   1.658   5.367
 4324POPC   PO455608  19.571   2.167   5.370
 4324POPC   GL155609  19.321   1.976   5.762
 4324POPC   GL255610  18.946   1.888   5.815
 4324POPC   C1A55611  19.292   1.859   6.231
 4324POPC   D2A55612  19.319   2.086   6.653
 4324POPC   C3A55613  19.121   1.946   7.038
 4324POPC   C4A55614  18.774   1.671   7.165
 4324POPC   C1B55615  18.830   1.613   6.170
 4324POPC   C2B55616  18.899   1.787   6.568
 4324POPC   C3B55617  18.715   2.112   6.794
 4324POPC   C4B55618  18.593   2.129   7.216
 4325POPC   NC355619  36.068   6.224   5.354
 4325POPC   PO455620  35.986   5.588   5.460
 4325POPC   GL155621  35.937   5.674   5.869
 4325POPC   GL255622  36.128   5.983   5.812
 4325POPC   C1A55623  36.097   5.660   6.270
 4325POPC   D2A55624  35.999   5.474   6.648
 4325POPC   C3A55625  36.268   5.649   6.940
 4325POPC   C4A55626  36.415   5.482   7.323
 4325POPC   C1B55627  36.419   6.064   6.169
 4325POPC   C2B55628  36.377   6.071   6.629
 4325POPC   C3B55629  36.096   6.202   6.974
 4325POPC   C4B55630  36.388   6.220   7.206
 4326POPC   NC355631   0.055  22.610   5.569
 4326POPC   PO455632  44.631  22.109   5.451
 4326POPC   GL155633  44.525  21.990   5.860
 4326POPC   GL255634  44.480  22.328   5.945
 4326POPC   C1A55635  44.701  21.914   6.252
 4326POPC   D2A55636  44.751  22.140   6.648
 4326POPC   C3A55637  44.717  21.820   6.956
 4326POPC   C4A55638  44.705  21.595   7.294
 4326POPC   C1B55639  44.327  22.239   6.343
 4326POPC   C2B55640  44.281  21.978   6.701
 4326POPC   C3B55641  44.436  22.230   7.071
 4326POPC   C4B55642  44.523  22.454   7.453
 4327POPC   NC355643  26.986  19.858   5.434
 4327POPC   PO455644  26.690  19.269   5.244
 4327POPC   GL155645  26.541  19.535   5.721
 4327POPC   GL255646  26.648  19.909   5.805
 4327POPC   C1A55647  26.699  19.642   6.219
 4327POPC   D2A55648  26.641  19.917   6.604
 4327POPC   C3A55649  26.667  19.772   7.037
 4327POPC   C4A55650  26.671  19.724   7.479
 4327POPC   C1B55651  27.095  19.967   6.064
 4327POPC   C2B55652  27.194  19.985   6.507
 4327POPC   C3B55653  27.126  19.945   6.943
 4327POPC   C4B55654  26.967  20.111   7.319
 4328POPC   NC355655  14.404  11.435   5.483
 4328POPC   PO455656  14.855  10.890   5.423
 4328POPC   GL155657  14.676  11.098   5.789
 4328POPC   GL255658  14.325  11.045   5.816
 4328POPC   C1A55659  14.510  11.314   6.186
 4328POPC   D2A55660  14.468  11.144   6.580
 4328POPC   C3A55661  14.537  11.338   6.990
 4328POPC   C4A55662  14.751  11.132   7.335
 4328POPC   C1B55663  14.034  11.041   6.171
 4328POPC   C2B55664  13.971  11.236   6.578
 4328POPC   C3B55665  14.083  11.065   6.964
 4328POPC   C4B55666  14.250  11.115   7.392
 4329POPC   NC355667   6.317  41.929   5.317
 4329POPC   PO455668   6.819  42.395   5.374
 4329POPC   GL155669   6.690  42.417   5.851
 4329POPC   GL255670   6.457  42.141   5.941
 4329POPC   C1A55671   6.841  42.477   6.271
 4329POPC   D2A55672   6.636  42.654   6.636
 4329POPC   C3A55673   6.771  42.545   7.053
 4329POPC   C4A55674   6.681  42.700   7.465
 4329POPC   C1B55675   6.308  42.403   6.227
 4329POPC   C2B55676   6.083  42.294   6.560
 4329POPC   C3B55677   6.270  42.444   6.926
 4329POPC   C4B55678   6.455  42.197   7.256
 4330POPC   NC355679  44.559   5.389   5.773
 4330POPC   PO455680  44.305   4.865   5.418
 4330POPC   GL155681  44.550   4.871   5.818
 4330POPC   GL255682  44.909   4.992   5.778
 4330POPC   C1A55683  44.546   4.957   6.300
 4330POPC   D2A55684  44.556   4.930   6.794
 4330POPC   C3A55685  44.314   5.091   7.150
 4330POPC   C4A55686  44.338   5.203   7.598
 4330POPC   C1B55687   0.049   5.183   6.178
 4330POPC   C2B55688  44.903   5.267   6.582
 4330POPC   C3B55689   0.049   5.169   6.988
 4330POPC   C4B55690  44.858   5.254   7.383
 4331POPC   NC355691   8.397   3.905   5.469
 4331POPC   PO455692   8.082   3.303   5.553
 4331POPC   GL155693   8.340   3.472   5.883
 4331POPC   GL255694   8.154   3.786   5.904
 4331POPC   C1A55695   8.295   3.529   6.364
 4331POPC   D2A55696   8.032   3.773   6.694
 4331POPC   C3A55697   8.069   3.634   7.155
 4331POPC   C4A55698   8.457   3.406   7.334
 4331POPC   C1B55699   8.512   3.929   6.115
 4331POPC   C2B55700   8.516   3.961   6.553
 4331POPC   C3B55701   8.526   3.746   6.926
 4331POPC   C4B55702   8.458   3.916   7.326
 4332POPC   NC355703  10.691  31.593   5.354
 4332POPC   PO455704  10.191  31.134   5.579
 4332POPC   GL155705  10.590  31.358   5.800
 4332POPC   GL255706  10.711  31.757   5.834
 4332POPC   C1A55707  10.726  31.378   6.243
 4332POPC   D2A55708  10.536  31.265   6.642
 4332POPC   C3A55709  10.647  31.455   7.026
 4332POPC   C4A55710  10.566  31.285   7.459
 4332POPC   C1B55711  10.314  31.705   6.083
 4332POPC   C2B55712  10.266  31.708   6.553
 4332POPC   C3B55713  10.208  31.712   7.014
 4332POPC   C4B55714  10.517  31.792   7.364
 4333POPC   NC355715  31.542  41.850   5.387
 4333POPC   PO455716  31.598  41.147   5.348
 4333POPC   GL155717  31.580  41.297   5.766
 4333POPC   GL255718  31.353  41.581   5.780
 4333POPC   C1A55719  31.645  41.430   6.214
 4333POPC   D2A55720  31.415  41.419   6.618
 4333POPC   C3A55721  31.707  41.393   7.006
 4333POPC   C4A55722  31.568  41.415   7.446
 4333POPC   C1B55723  31.294  41.802   6.183
 4333POPC   C2B55724  31.302  41.906   6.627
 4333POPC   C3B55725  31.289  41.714   7.029
 4333POPC   C4B55726  31.220  42.035   7.287
 4334POPC   NC355727  14.615  42.891   5.447
 4334POPC   PO455728  14.298  43.421   5.673
 4334POPC   GL155729  14.393  43.049   5.909
 4334POPC   GL255730  14.725  43.148   5.943
 4334POPC   C1A55731  14.198  42.923   6.317
 4334POPC   D2A55732  14.182  42.947   6.770
 4334POPC   C3A55733  14.086  42.867   7.195
 4334POPC   C4A55734  14.081  43.173   7.552
 4334POPC   C1B55735  14.518  43.359   6.322
 4334POPC   C2B55736  14.470  43.407   6.785
 4334POPC   C3B55737  14.455  43.212   7.160
 4334POPC   C4B55738  14.666  42.811   7.178
 4335POPC   NC355739  26.236   2.416   5.163
 4335POPC   PO455740  25.703   2.165   5.513
 4335POPC   GL155741  25.943   2.089   5.894
 4335POPC   GL255742  26.283   1.997   5.849
 4335POPC   C1A55743  26.003   1.810   6.266
 4335POPC   D2A55744  25.719   1.789   6.616
 4335POPC   C3A55745  25.693   2.157   6.915
 4335POPC   C4A55746  25.726   2.077   7.396
 4335POPC   C1B55747  26.373   2.172   6.287
 4335POPC   C2B55748  26.135   2.135   6.670
 4335POPC   C3B55749  26.053   1.825   7.003
 4335POPC   C4B55750  26.236   1.863   7.392
 4336POPC   NC355751   1.853  31.836   5.152
 4336POPC   PO455752   2.110  32.421   5.386
 4336POPC   GL155753   1.958  32.418   5.824
 4336POPC   GL255754   2.264  32.347   6.030
 4336POPC   C1A55755   1.876  32.578   6.264
 4336POPC   D2A55756   2.210  32.522   6.578
 4336POPC   C3A55757   2.105  32.410   7.009
 4336POPC   C4A55758   1.688  32.253   7.111
 4336POPC   C1B55759   2.073  32.061   6.361
 4336POPC   C2B55760   1.963  31.884   6.792
 4336POPC   C3B55761   2.189  31.934   7.183
 4336POPC   C4B55762   2.001  32.211   7.517
 4337POPC   NC355763  41.997   5.519   5.519
 4337POPC   PO455764  42.344   6.133   5.470
 4337POPC   GL155765  42.413   5.983   5.889
 4337POPC   GL255766  42.429   5.620   5.835
 4337POPC   C1A55767  42.406   5.883   6.332
 4337POPC   D2A55768  42.143   5.961   6.687
 4337POPC   C3A55769  42.389   6.031   7.089
 4337POPC   C4A55770  42.287   6.043   7.550
 4337POPC   C1B55771  42.119   5.499   6.173
 4337POPC   C2B55772  42.184   5.434   6.608
 4337POPC   C3B55773  42.103   5.579   7.036
 4337POPC   C4B55774  42.263   5.520   7.453
 4338POPC   NC355775  17.589  13.373   5.320
 4338POPC   PO455776  17.358  13.981   5.403
 4338POPC   GL155777  17.561  13.726   5.728
 4338POPC   GL255778  17.744  13.393   5.805
 4338POPC   C1A55779  17.544  13.785   6.155
 4338POPC   D2A55780  17.520  13.633   6.564
 4338POPC   C3A55781  17.699  13.831   6.913
 4338POPC   C4A55782  17.481  13.875   7.314
 4338POPC   C1B55783  17.642  13.271   6.205
 4338POPC   C2B55784  17.728  13.182   6.631
 4338POPC   C3B55785  17.548  13.338   7.005
 4338POPC   C4B55786  17.633  13.220   7.408
 4339POPC   NC355787  18.278  14.702   5.585
 4339POPC   PO455788  18.575  15.256   5.525
 4339POPC   GL155789  18.241  15.352   5.810
 4339POPC   GL255790  18.059  15.044   5.921
 4339POPC   C1A55791  18.310  15.423   6.239
 4339POPC   D2A55792  18.556  15.178   6.549
 4339POPC   C3A55793  18.563  15.309   6.999
 4339POPC   C4A55794  18.545  15.356   7.446
 4339POPC   C1B55795  17.961  15.100   6.370
 4339POPC   C2B55796  18.095  15.237   6.773
 4339POPC   C3B55797  18.173  15.025   7.163
 4339POPC   C4B55798  17.785  15.071   7.303
 4340POPC   NC355799  16.497  17.842   5.451
 4340POPC   PO455800  16.707  17.203   5.520
 4340POPC   GL155801  16.655  17.424   5.911
 4340POPC   GL255802  16.798  17.665   5.845
 4340POPC   C1A55803  16.904  17.644   6.318
 4340POPC   D2A55804  17.022  17.875   6.707
 4340POPC   C3A55805  17.024  17.509   7.014
 4340POPC   C4A55806  16.683  17.221   7.173
 4340POPC   C1B55807  16.482  17.879   6.115
 4340POPC   C2B55808  16.494  17.887   6.564
 4340POPC   C3B55809  16.516  17.685   6.967
 4340POPC   C4B55810  16.346  17.858   7.374
 4341POPC   NC355811   3.878  35.485   5.560
 4341POPC   PO455812   3.306  35.138   5.472
 4341POPC   GL155813   3.530  35.185   5.852
 4341POPC   GL255814   3.622  35.533   6.014
 4341POPC   C1A55815   3.419  35.158   6.275
 4341POPC   D2A55816   3.523  35.499   6.545
 4341POPC   C3A55817   3.358  35.479   6.931
 4341POPC   C4A55818   3.403  35.200   7.230
 4341POPC   C1B55819   3.941  35.697   6.313
 4341POPC   C2B55820   4.040  35.668   6.763
 4341POPC   C3B55821   3.763  35.694   7.114
 4341POPC   C4B55822   3.646  35.582   7.535
 4342POPC   NC355823   9.655  34.924   5.263
 4342POPC   PO455824   9.760  34.266   5.337
 4342POPC   GL155825   9.812  34.583   5.656
 4342POPC   GL255826  10.044  34.878   5.637
 4342POPC   C1A55827   9.727  34.512   6.101
 4342POPC   D2A55828   9.400  34.483   6.407
 4342POPC   C3A55829   9.429  34.469   6.855
 4342POPC   C4A55830   9.358  34.604   7.287
 4342POPC   C1B55831   9.882  34.990   6.056
 4342POPC   C2B55832   9.784  34.845   6.507
 4342POPC   C3B55833   9.834  34.791   6.976
 4342POPC   C4B55834   9.927  34.850   7.422
 4343POPC   NC355835  33.490  28.573   5.429
 4343POPC   PO455836  33.879  27.958   5.554
 4343POPC   GL155837  33.982  28.283   5.881
 4343POPC   GL255838  33.832  28.631   5.856
 4343POPC   C1A55839  33.852  28.370   6.315
 4343POPC   D2A55840  33.895  28.616   6.693
 4343POPC   C3A55841  33.898  28.370   7.093
 4343POPC   C4A55842  34.025  28.298   7.571
 4343POPC   C1B55843  33.540  28.777   6.201
 4343POPC   C2B55844  33.371  28.712   6.634
 4343POPC   C3B55845  33.495  28.877   7.051
 4343POPC   C4B55846  33.764  28.740   7.400
 4344POPC   NC355847  21.108  17.572   5.577
 4344POPC   PO455848  21.705  17.288   5.402
 4344POPC   GL155849  21.520  17.308   5.838
 4344POPC   GL255850  21.574  17.689   5.942
 4344POPC   C1A55851  21.365  17.378   6.269
 4344POPC   D2A55852  21.185  17.580   6.612
 4344POPC   C3A55853  21.198  17.370   6.994
 4344POPC   C4A55854  21.256  17.433   7.412
 4344POPC   C1B55855  21.648  17.775   6.412
 4344POPC   C2B55856  21.711  17.447   6.723
 4344POPC   C3B55857  21.696  17.426   7.185
 4344POPC   C4B55858  21.658  17.690   7.583
 4345POPC   NC355859  22.351  30.420   5.390
 4345POPC   PO455860  21.958  31.088   5.472
 4345POPC   GL155861  22.169  30.847   5.801
 4345POPC   GL255862  22.021  30.531   5.769
 4345POPC   C1A55863  22.238  30.784   6.241
 4345POPC   D2A55864  21.920  30.878   6.543
 4345POPC   C3A55865  21.952  30.825   6.980
 4345POPC   C4A55866  22.336  30.929   7.192
 4345POPC   C1B55867  21.918  30.381   6.178
 4345POPC   C2B55868  22.089  30.302   6.583
 4345POPC   C3B55869  21.944  30.311   6.993
 4345POPC   C4B55870  22.145  30.471   7.303
 4346POPC   NC355871  10.354  19.566   5.404
 4346POPC   PO455872  10.779  20.183   5.418
 4346POPC   GL155873  10.600  19.932   5.738
 4346POPC   GL255874  10.227  19.973   5.743
 4346POPC   C1A55875  10.580  19.683   6.137
 4346POPC   D2A55876  10.362  19.648   6.537
 4346POPC   C3A55877  10.615  19.785   6.882
 4346POPC   C4A55878  10.482  19.673   7.265
 4346POPC   C1B55879  10.378  20.161   6.132
 4346POPC   C2B55880  10.409  20.160   6.575
 4346POPC   C3B55881  10.182  20.052   6.945
 4346POPC   C4B55882  10.213  20.079   7.387
 4347POPC   NC355883  21.110   0.244   5.424
 4347POPC   PO455884  21.484   0.807   5.307
 4347POPC   GL155885  21.450   0.558   5.652
 4347POPC   GL255886  21.111   0.677   5.734
 4347POPC   C1A55887  21.434   0.422   6.087
 4347POPC   D2A55888  21.507   0.529   6.513
 4347POPC   C3A55889  21.328   0.214   6.814
 4347POPC   C4A55890  21.394   0.288   7.247
 4347POPC   C1B55891  21.011   0.687   6.182
 4347POPC   C2B55892  21.004   0.593   6.619
 4347POPC   C3B55893  21.274   0.693   6.962
 4347POPC   C4B55894  21.135   0.757   7.339
 4348POPC   NC355895  12.245   6.827   5.385
 4348POPC   PO455896  11.633   6.583   5.540
 4348POPC   GL155897  11.979   6.668   5.807
 4348POPC   GL255898  12.181   6.359   5.806
 4348POPC   C1A55899  12.146   6.785   6.196
 4348POPC   D2A55900  12.228   6.553   6.577
 4348POPC   C3A55901  12.109   6.808   6.917
 4348POPC   C4A55902  12.092   7.134   7.249
 4348POPC   C1B55903  11.938   6.292   6.199
 4348POPC   C2B55904  11.792   6.282   6.638
 4348POPC   C3B55905  12.023   6.273   7.031
 4348POPC   C4B55906  12.194   6.526   7.316
 4349POPC   NC355907  30.867  38.756   5.434
 4349POPC   PO455908  30.590  39.416   5.397
 4349POPC   GL155909  30.715  39.210   5.729
 4349POPC   GL255910  30.466  38.911   5.754
 4349POPC   C1A55911  30.837  39.419   6.110
 4349POPC   D2A55912  30.840  39.588   6.536
 4349POPC   C3A55913  30.592  39.430   6.896
 4349POPC   C4A55914  30.736  39.316   7.318
 4349POPC   C1B55915  30.737  38.908   6.120
 4349POPC   C2B55916  30.804  39.080   6.533
 4349POPC   C3B55917  30.898  38.977   6.959
 4349POPC   C4B55918  30.605  38.815   7.269
 4350POPC   NC355919   3.597  25.585   5.602
 4350POPC   PO455920   3.109  25.188   5.292
 4350POPC   GL155921   3.128  25.426   5.705
 4350POPC   GL255922   3.398  25.230   5.879
 4350POPC   C1A55923   3.198  25.542   6.203
 4350POPC   D2A55924   3.370  25.608   6.631
 4350POPC   C3A55925   3.290  25.385   7.018
 4350POPC   C4A55926   3.477  25.391   7.443
 4350POPC   C1B55927   3.449  25.115   6.292
 4350POPC   C2B55928   3.678  25.193   6.676
 4350POPC   C3B55929   3.711  25.079   7.091
 4350POPC   C4B55930   3.342  24.925   7.286
 4351POPC   NC355931  30.492   4.816   5.513
 4351POPC   PO455932  30.914   5.393   5.482
 4351POPC   GL155933  30.753   5.194   5.809
 4351POPC   GL255934  30.974   4.912   5.852
 4351POPC   C1A55935  30.546   5.238   6.195
 4351POPC   D2A55936  30.443   5.154   6.617
 4351POPC   C3A55937  30.649   5.298   6.986
 4351POPC   C4A55938  30.392   5.293   7.355
 4351POPC   C1B55939  30.906   4.873   6.312
 4351POPC   C2B55940  30.809   4.816   6.760
 4351POPC   C3B55941  30.815   4.778   7.216
 4351POPC   C4B55942  31.216   4.741   7.454
 4352POPC   NC355943  33.086  41.829   5.381
 4352POPC   PO455944  32.940  42.530   5.268
 4352POPC   GL155945  32.927  42.495   5.701
 4352POPC   GL255946  33.168  42.227   5.724
 4352POPC   C1A55947  33.091  42.524   6.145
 4352POPC   D2A55948  33.203  42.457   6.594
 4352POPC   C3A55949  32.981  42.647   6.926
 4352POPC   C4A55950  33.035  42.472   7.332
 4352POPC   C1B55951  33.240  41.970   6.109
 4352POPC   C2B55952  33.356  41.949   6.569
 4352POPC   C3B55953  33.188  42.078   6.988
 4352POPC   C4B55954  33.206  41.985   7.430
 4353POPC   NC355955  15.288   1.320   5.240
 4353POPC   PO455956  15.186   0.823   5.619
 4353POPC   GL155957  15.271   1.204   5.805
 4353POPC   GL255958  15.064   1.476   5.675
 4353POPC   C1A55959  15.398   1.234   6.228
 4353POPC   D2A55960  15.181   1.266   6.625
 4353POPC   C3A55961  15.389   1.259   7.016
 4353POPC   C4A55962  15.257   1.064   7.393
 4353POPC   C1B55963  14.994   1.537   6.118
 4353POPC   C2B55964  14.752   1.497   6.475
 4353POPC   C3B55965  14.759   1.491   6.919
 4353POPC   C4B55966  14.874   1.411   7.375
 4354POPC   NC355967  39.562  15.936   5.442
 4354POPC   PO455968  38.960  16.327   5.419
 4354POPC   GL155969  39.227  16.061   5.804
 4354POPC   GL255970  39.072  15.715   5.882
 4354POPC   C1A55971  39.375  15.907   6.258
 4354POPC   D2A55972  39.329  16.049   6.678
 4354POPC   C3A55973  39.541  15.945   7.065
 4354POPC   C4A55974  39.297  16.224   7.353
 4354POPC   C1B55975  38.913  15.624   6.248
 4354POPC   C2B55976  38.999  15.631   6.659
 4354POPC   C3B55977  39.070  15.742   7.047
 4354POPC   C4B55978  38.813  15.809   7.377
 4355POPC   NC355979  42.254  27.203   5.563
 4355POPC   PO455980  41.723  27.676   5.331
 4355POPC   GL155981  41.473  27.532   5.688
 4355POPC   GL255982  41.790  27.542   5.876
 4355POPC   C1A55983  41.293  27.455   6.095
 4355POPC   D2A55984  41.486  27.543   6.501
 4355POPC   C3A55985  41.335  27.473   6.918
 4355POPC   C4A55986  41.588  27.477   7.297
 4355POPC   C1B55987  41.940  27.824   6.189
 4355POPC   C2B55988  41.912  27.826   6.642
 4355POPC   C3B55989  41.780  27.920   7.070
 4355POPC   C4B55990  41.824  27.887   7.518
 4356POPC   NC355991  35.157  12.284   5.336
 4356POPC   PO455992  35.575  11.867   5.511
 4356POPC   GL155993  35.207  11.982   5.794
 4356POPC   GL255994  35.099  12.342   5.848
 4356POPC   C1A55995  35.232  11.826   6.209
 4356POPC   D2A55996  35.449  11.768   6.578
 4356POPC   C3A55997  35.150  11.818   6.881
 4356POPC   C4A55998  35.132  12.068   7.226
 4356POPC   C1B55999  35.366  12.330   6.226
 4356POPC   C2B56000  35.363  12.256   6.682
 4356POPC   C3B56001  35.392  12.495   7.063
 4356POPC   C4B56002  35.230  12.492   7.490
 4357POPC   NC356003  33.190   7.044   5.518
 4357POPC   PO456004  32.913   7.694   5.444
 4357POPC   GL156005  33.056   7.646   5.873
 4357POPC   GL256006  33.094   7.269   5.956
 4357POPC   C1A56007  33.293   7.597   6.272
 4357POPC   D2A56008  33.049   7.497   6.634
 4357POPC   C3A56009  33.147   7.424   7.105
 4357POPC   C4A56010  33.114   7.738   7.440
 4357POPC   C1B56011  32.750   7.004   6.096
 4357POPC   C2B56012  32.670   6.933   6.482
 4357POPC   C3B56013  32.902   7.034   6.829
 4357POPC   C4B56014  32.765   7.069   7.222
 4358POPC   NC356015  42.789  30.194   5.259
 4358POPC   PO456016  43.323  29.781   5.322
 4358POPC   GL156017  43.066  29.640   5.682
 4358POPC   GL256018  42.984  29.965   5.762
 4358POPC   C1A56019  42.859  29.618   6.144
 4358POPC   D2A56020  42.803  29.855   6.579
 4358POPC   C3A56021  43.063  29.759   6.963
 4358POPC   C4A56022  43.508  29.887   7.100
 4358POPC   C1B56023  43.080  30.082   6.202
 4358POPC   C2B56024  43.283  30.130   6.624
 4358POPC   C3B56025  43.206  30.272   7.034
 4358POPC   C4B56026  42.824  30.168   7.250
 4359POPC   NC356027  18.660  31.392   5.527
 4359POPC   PO456028  19.226  31.070   5.426
 4359POPC   GL156029  19.114  31.355   5.798
 4359POPC   GL256030  18.787  31.249   5.995
 4359POPC   C1A56031  19.218  31.262   6.233
 4359POPC   D2A56032  18.987  31.183   6.605
 4359POPC   C3A56033  19.167  31.268   6.969
 4359POPC   C4A56034  19.342  31.228   7.347
 4359POPC   C1B56035  18.822  31.578   6.331
 4359POPC   C2B56036  19.140  31.696   6.648
 4359POPC   C3B56037  19.185  31.760   7.122
 4359POPC   C4B56038  18.919  31.726   7.489
 4360POPC   NC356039  39.480   0.931   5.368
 4360POPC   PO456040  38.969   1.354   5.451
 4360POPC   GL156041  39.219   1.219   5.800
 4360POPC   GL256042  39.583   1.190   5.815
 4360POPC   C1A56043  39.185   1.315   6.260
 4360POPC   D2A56044  39.432   1.372   6.649
 4360POPC   C3A56045  39.185   1.507   7.020
 4360POPC   C4A56046  39.114   1.458   7.471
 4360POPC   C1B56047  39.578   0.998   6.229
 4360POPC   C2B56048  39.296   0.854   6.571
 4360POPC   C3B56049  39.373   0.986   7.000
 4360POPC   C4B56050  39.576   1.289   7.248
 4361POPC   NC356051  12.447   4.647   5.497
 4361POPC   PO456052  12.015   4.018   5.390
 4361POPC   GL156053  12.293   4.201   5.721
 4361POPC   GL256054  12.121   4.526   5.880
 4361POPC   C1A56055  12.395   4.234   6.158
 4361POPC   D2A56056  12.119   4.347   6.478
 4361POPC   C3A56057  12.220   4.361   6.889
 4361POPC   C4A56058  12.203   4.081   7.209
 4361POPC   C1B56059  11.871   4.728   6.252
 4361POPC   C2B56060  11.869   4.789   6.683
 4361POPC   C3B56061  11.942   4.737   7.108
 4361POPC   C4B56062  12.077   4.513   7.480
 4362POPC   NC356063  28.833   4.496   5.431
 4362POPC   PO456064  29.376   4.160   5.293
 4362POPC   GL156065  29.229   4.320   5.710
 4362POPC   GL256066  28.962   4.092   5.787
 4362POPC   C1A56067  29.330   4.368   6.171
 4362POPC   D2A56068  29.385   4.646   6.549
 4362POPC   C3A56069  29.335   4.453   6.956
 4362POPC   C4A56070  29.473   4.010   7.071
 4362POPC   C1B56071  28.843   4.179   6.245
 4362POPC   C2B56072  28.997   4.121   6.688
 4362POPC   C3B56073  28.967   4.149   7.152
 4362POPC   C4B56074  28.765   4.142   7.603
 4363POPC   NC356075   2.823  17.788   5.518
 4363POPC   PO456076   2.404  17.241   5.369
 4363POPC   GL156077   2.531  17.412   5.787
 4363POPC   GL256078   2.889  17.360   5.801
 4363POPC   C1A56079   2.663  17.678   6.167
 4363POPC   D2A56080   2.917  17.772   6.548
 4363POPC   C3A56081   2.735  17.681   6.941
 4363POPC   C4A56082   2.830  17.868   7.329
 4363POPC   C1B56083   2.791  17.174   6.176
 4363POPC   C2B56084   2.595  17.326   6.552
 4363POPC   C3B56085   2.514  17.101   6.909
 4363POPC   C4B56086   2.593  17.332   7.272
 4364POPC   NC356087  42.011   3.187   5.427
 4364POPC   PO456088  42.516   2.788   5.218
 4364POPC   GL156089  42.454   2.715   5.673
 4364POPC   GL256090  42.157   2.902   5.820
 4364POPC   C1A56091  42.514   2.764   6.142
 4364POPC   D2A56092  42.442   3.116   6.424
 4364POPC   C3A56093  42.376   3.062   6.874
 4364POPC   C4A56094  42.600   2.899   7.215
 4364POPC   C1B56095  41.976   2.962   6.229
 4364POPC   C2B56096  41.985   2.800   6.667
 4364POPC   C3B56097  41.902   2.993   7.082
 4364POPC   C4B56098  42.141   2.901   7.447
 4365POPC   NC356099   9.658  33.118   5.266
 4365POPC   PO456100   9.537  32.458   5.294
 4365POPC   GL156101   9.634  32.684   5.696
 4365POPC   GL256102   9.754  33.042   5.777
 4365POPC   C1A56103   9.590  32.725   6.161
 4365POPC   D2A56104   9.742  33.011   6.488
 4365POPC   C3A56105   9.673  32.859   6.920
 4365POPC   C4A56106   9.549  33.045   7.310
 4365POPC   C1B56107  10.078  33.127   6.105
 4365POPC   C2B56108  10.247  32.987   6.508
 4365POPC   C3B56109  10.069  33.199   6.855
 4365POPC   C4B56110  10.054  33.051   7.242
 4366POPC   NC356111  18.174  27.429   5.300
 4366POPC   PO456112  18.792  27.646   5.372
 4366POPC   GL156113  18.530  27.509   5.754
 4366POPC   GL256114  18.234  27.612   5.842
 4366POPC   C1A56115  18.476  27.312   6.181
 4366POPC   D2A56116  18.483  27.512   6.615
 4366POPC   C3A56117  18.336  27.304   7.001
 4366POPC   C4A56118  18.577  27.255   7.392
 4366POPC   C1B56119  18.215  27.739   6.230
 4366POPC   C2B56120  18.179  27.929   6.620
 4366POPC   C3B56121  18.265  27.849   7.029
 4366POPC   C4B56122  18.230  27.623   7.413
 4367POPC   NC356123  14.631  19.818   5.564
 4367POPC   PO456124  13.997  19.507   5.538
 4367POPC   GL156125  14.253  19.600   5.867
 4367POPC   GL256126  14.202  19.958   5.836
 4367POPC   C1A56127  14.317  19.475   6.298
 4367POPC   D2A56128  14.440  19.515   6.725
 4367POPC   C3A56129  14.655  19.794   7.027
 4367POPC   C4A56130  14.345  19.594   7.272
 4367POPC   C1B56131  14.349  19.976   6.228
 4367POPC   C2B56132  14.443  20.027   6.629
 4367POPC   C3B56133  14.174  19.958   6.966
 4367POPC   C4B56134  14.139  20.111   7.373
 4368POPC   NC356135  43.566  14.771   5.653
 4368POPC   PO456136  43.821  14.283   5.186
 4368POPC   GL156137  43.963  14.457   5.656
 4368POPC   GL256138  44.060  14.211   5.886
 4368POPC   C1A56139  43.917  14.617   6.158
 4368POPC   D2A56140  43.917  14.470   6.596
 4368POPC   C3A56141  43.929  14.621   7.031
 4368POPC   C4A56142  43.962  14.411   7.446
 4368POPC   C1B56143  43.878  14.067   6.233
 4368POPC   C2B56144  43.800  13.951   6.620
 4368POPC   C3B56145  43.886  14.106   6.992
 4368POPC   C4B56146  43.789  13.943   7.328
 4369POPC   NC356147  19.607  10.373   5.193
 4369POPC   PO456148  19.776  10.915   5.483
 4369POPC   GL156149  19.723  10.731   5.895
 4369POPC   GL256150  19.674  10.398   5.735
 4369POPC   C1A56151  19.974  10.595   6.289
 4369POPC   D2A56152  19.989  10.210   6.566
 4369POPC   C3A56153  19.977  10.242   7.009
 4369POPC   C4A56154  19.941  10.516   7.344
 4369POPC   C1B56155  19.622  10.258   6.166
 4369POPC   C2B56156  19.537  10.451   6.578
 4369POPC   C3B56157  19.482  10.292   6.991
 4369POPC   C4B56158  19.607  10.141   7.379
 4370POPC   NC356159   1.018  18.576   5.379
 4370POPC   PO456160   1.119  19.227   5.395
 4370POPC   GL156161   1.215  19.196   5.814
 4370POPC   GL256162   0.889  19.371   5.862
 4370POPC   C1A56163   1.429  19.025   6.236
 4370POPC   D2A56164   1.465  19.262   6.639
 4370POPC   C3A56165   1.442  19.008   6.993
 4370POPC   C4A56166   1.306  18.938   7.407
 4370POPC   C1B56167   0.928  19.054   6.219
 4370POPC   C2B56168   1.036  18.940   6.666
 4370POPC   C3B56169   0.875  18.952   7.106
 4370POPC   C4B56170   0.793  18.965   7.583
 4371POPC   NC356171  28.633  10.431   5.382
 4371POPC   PO456172  28.032  10.687   5.448
 4371POPC   GL156173  28.294  10.499   5.774
 4371POPC   GL256174  28.518  10.797   5.766
 4371POPC   C1A56175  28.420  10.229   6.146
 4371POPC   D2A56176  28.575  10.326   6.585
 4371POPC   C3A56177  28.313  10.377   6.934
 4371POPC   C4A56178  28.375  10.468   7.351
 4371POPC   C1B56179  28.604  10.708   6.190
 4371POPC   C2B56180  28.792  10.788   6.576
 4371POPC   C3B56181  28.734  10.700   7.002
 4371POPC   C4B56182  28.622  10.893   7.396
 4372POPC   NC356183  12.089  20.639   5.158
 4372POPC   PO456184  11.673  20.240   5.535
 4372POPC   GL156185  11.899  20.486   5.817
 4372POPC   GL256186  12.031  20.749   5.686
 4372POPC   C1A56187  11.771  20.715   6.164
 4372POPC   D2A56188  11.746  20.502   6.555
 4372POPC   C3A56189  11.739  20.720   6.914
 4372POPC   C4A56190  11.875  20.501   7.235
 4372POPC   C1B56191  12.249  20.878   6.056
 4372POPC   C2B56192  12.198  20.746   6.475
 4372POPC   C3B56193  12.252  20.681   6.907
 4372POPC   C4B56194  12.172  20.907   7.253
 4373POPC   NC356195  19.370  29.877   5.461
 4373POPC   PO456196  18.776  30.178   5.461
 4373POPC   GL156197  18.944  29.957   5.844
 4373POPC   GL256198  19.265  30.148   5.889
 4373POPC   C1A56199  19.017  30.024   6.320
 4373POPC   D2A56200  19.319  30.215   6.602
 4373POPC   C3A56201  19.227  30.061   7.005
 4373POPC   C4A56202  19.193  29.605   7.045
 4373POPC   C1B56203  19.489  29.867   6.215
 4373POPC   C2B56204  19.599  29.775   6.663
 4373POPC   C3B56205  19.659  29.810   7.116
 4373POPC   C4B56206  19.572  30.138   7.396
 4374POPC   NC356207   3.071   9.435   5.259
 4374POPC   PO456208   2.545   9.846   5.331
 4374POPC   GL156209   2.764   9.867   5.741
 4374POPC   GL256210   3.024  10.116   5.794
 4374POPC   C1A56211   2.737   9.737   6.184
 4374POPC   D2A56212   2.494   9.727   6.573
 4374POPC   C3A56213   2.660   9.761   6.976
 4374POPC   C4A56214   2.581   9.524   7.326
 4374POPC   C1B56215   2.919  10.216   6.213
 4374POPC   C2B56216   2.924  10.012   6.595
 4374POPC   C3B56217   3.129   9.975   6.960
 4374POPC   C4B56218   3.137   9.658   7.276
 4375POPC   NC356219   6.136  22.136   5.416
 4375POPC   PO456220   5.619  21.769   5.355
 4375POPC   GL156221   5.793  21.951   5.765
 4375POPC   GL256222   5.762  22.303   5.755
 4375POPC   C1A56223   6.052  22.167   6.139
 4375POPC   D2A56224   6.156  22.122   6.586
 4375POPC   C3A56225   5.862  21.875   6.830
 4375POPC   C4A56226   5.950  21.719   7.211
 4375POPC   C1B56227   5.610  22.425   6.138
 4375POPC   C2B56228   5.818  22.522   6.520
 4375POPC   C3B56229   5.749  22.361   6.920
 4375POPC   C4B56230   5.913  22.230   7.314
 4376POPC   NC356231  42.896  17.741   5.523
 4376POPC   PO456232  43.369  17.228   5.356
 4376POPC   GL156233  43.129  17.315   5.696
 4376POPC   GL256234  43.294  17.614   5.853
 4376POPC   C1A56235  42.944  17.313   6.106
 4376POPC   D2A56236  43.196  17.410   6.449
 4376POPC   C3A56237  43.053  17.569   6.835
 4376POPC   C4A56238  43.191  17.455   7.245
 4376POPC   C1B56239  43.498  17.769   6.237
 4376POPC   C2B56240  43.593  17.678   6.681
 4376POPC   C3B56241  43.633  17.690   7.150
 4376POPC   C4B56242  43.351  17.843   7.530
 4377POPC   NC356243   0.918  44.841   5.302
 4377POPC   PO456244   1.149  44.239   5.540
 4377POPC   GL156245   0.976  44.577   5.759
 4377POPC   GL256246   1.286  44.782   5.782
 4377POPC   C1A56247   1.071  44.559   6.197
 4377POPC   D2A56248   1.247  44.671   6.588
 4377POPC   C3A56249   1.126  44.456   6.970
 4377POPC   C4A56250   1.462  44.407   7.285
 4377POPC   C1B56251   1.344   0.019   6.197
 4377POPC   C2B56252   1.356   0.221   6.613
 4377POPC   C3B56253   1.136   0.033   6.946
 4377POPC   C4B56254   1.165  44.821   7.323
 4378POPC   NC356255  26.738   3.232   5.453
 4378POPC   PO456256  27.216   2.751   5.581
 4378POPC   GL156257  27.067   2.591   5.987
 4378POPC   GL256258  26.763   2.827   5.964
 4378POPC   C1A56259  26.783   2.490   6.336
 4378POPC   D2A56260  26.737   2.781   6.678
 4378POPC   C3A56261  26.898   2.802   7.111
 4378POPC   C4A56262  26.921   2.810   7.583
 4378POPC   C1B56263  26.421   2.873   6.283
 4378POPC   C2B56264  26.190   3.072   6.635
 4378POPC   C3B56265  26.467   3.087   6.961
 4378POPC   C4B56266  26.517   3.053   7.351
 4379POPC   NC356267  19.638  25.454   5.319
 4379POPC   PO456268  19.989  24.896   5.358
 4379POPC   GL156269  19.896  25.073   5.766
 4379POPC   GL256270  19.905  25.427   5.751
 4379POPC   C1A56271  19.788  24.909   6.189
 4379POPC   D2A56272  19.501  24.940   6.560
 4379POPC   C3A56273  19.620  24.897   6.995
 4379POPC   C4A56274  19.983  24.969   7.181
 4379POPC   C1B56275  19.677  25.405   6.144
 4379POPC   C2B56276  19.879  25.287   6.529
 4379POPC   C3B56277  19.798  25.373   6.934
 4379POPC   C4B56278  20.081  25.505   7.266
 4380POPC   NC356279  16.954  42.294   5.461
 4380POPC   PO456280  17.653  42.373   5.331
 4380POPC   GL156281  17.630  42.437   5.784
 4380POPC   GL256282  17.836  42.720   5.858
 4380POPC   C1A56283  17.425  42.226   6.158
 4380POPC   D2A56284  17.187  42.264   6.546
 4380POPC   C3A56285  17.332  42.087   6.944
 4380POPC   C4A56286  17.253  42.332   7.321
 4380POPC   C1B56287  17.820  42.543   6.278
 4380POPC   C2B56288  17.712  42.326   6.652
 4380POPC   C3B56289  17.720  42.466   7.072
 4380POPC   C4B56290  18.055  42.339   7.319
 4381POPC   NC356291   6.783  42.001   5.597
 4381POPC   PO456292   6.399  41.477   5.399
 4381POPC   GL156293   6.551  41.624   5.897
 4381POPC   GL256294   6.872  41.866   6.057
 4381POPC   C1A56295   6.703  41.503   6.333
 4381POPC   D2A56296   6.854  41.655   6.737
 4381POPC   C3A56297   6.574  41.680   7.074
 4381POPC   C4A56298   6.329  41.405   7.229
 4381POPC   C1B56299   6.642  42.018   6.387
 4381POPC   C2B56300   6.638  42.120   6.786
 4381POPC   C3B56301   6.928  42.031   7.134
 4381POPC   C4B56302   6.942  41.895   7.577
 4382POPC   NC356303   4.398  12.932   5.590
 4382POPC   PO456304   3.817  12.532   5.599
 4382POPC   GL156305   4.086  12.814   5.956
 4382POPC   GL256306   4.184  13.185   5.994
 4382POPC   C1A56307   4.089  12.992   6.429
 4382POPC   D2A56308   3.996  13.116   6.863
 4382POPC   C3A56309   4.313  12.938   7.096
 4382POPC   C4A56310   4.620  12.598   7.147
 4382POPC   C1B56311   4.576  13.041   6.248
 4382POPC   C2B56312   4.760  12.885   6.660
 4382POPC   C3B56313   4.819  13.063   7.066
 4382POPC   C4B56314   4.705  12.993   7.491
 4383POPC   NC356315  16.413   4.501   5.458
 4383POPC   PO456316  16.990   4.166   5.379
 4383POPC   GL156317  16.836   4.223   5.795
 4383POPC   GL256318  17.037   4.520   5.811
 4383POPC   C1A56319  16.646   4.237   6.234
 4383POPC   D2A56320  16.285   4.360   6.542
 4383POPC   C3A56321  16.399   4.227   6.972
 4383POPC   C4A56322  16.816   4.275   7.141
 4383POPC   C1B56323  17.124   4.521   6.244
 4383POPC   C2B56324  16.987   4.454   6.656
 4383POPC   C3B56325  17.133   4.651   7.042
 4383POPC   C4B56326  16.828   4.837   7.237
 4384POPC   NC356327  30.282  24.804   5.389
 4384POPC   PO456328  29.793  24.430   5.145
 4384POPC   GL156329  29.846  24.372   5.633
 4384POPC   GL256330  30.176  24.505   5.773
 4384POPC   C1A56331  29.716  24.514   6.072
 4384POPC   D2A56332  29.701  24.319   6.511
 4384POPC   C3A56333  29.584  24.378   6.973
 4384POPC   C4A56334  29.734  24.736   7.210
 4384POPC   C1B56335  30.134  24.253   6.116
 4384POPC   C2B56336  30.210  24.224   6.545
 4384POPC   C3B56337  30.084  24.447   6.885
 4384POPC   C4B56338  30.034  24.295   7.263
 4385POPC   NC356339  27.288   9.774   5.462
 4385POPC   PO456340  26.659   9.470   5.394
 4385POPC   GL156341  26.832   9.692   5.760
 4385POPC   GL256342  27.148   9.563   5.908
 4385POPC   C1A56343  26.764   9.739   6.218
 4385POPC   D2A56344  26.989   9.605   6.589
 4385POPC   C3A56345  26.660   9.596   6.887
 4385POPC   C4A56346  26.537   9.782   7.245
 4385POPC   C1B56347  27.176   9.993   6.096
 4385POPC   C2B56348  27.040  10.126   6.505
 4385POPC   C3B56349  26.853  10.067   6.876
 4385POPC   C4B56350  27.113   9.934   7.178
 4386POPC   NC356351  15.122  40.840   5.311
 4386POPC   PO456352  15.081  40.283   5.567
 4386POPC   GL156353  15.177  40.626   5.825
 4386POPC   GL256354  15.229  40.986   5.779
 4386POPC   C1A56355  15.105  40.575   6.264
 4386POPC   D2A56356  15.330  40.538   6.656
 4386POPC   C3A56357  15.156  40.702   7.102
 4386POPC   C4A56358  15.217  40.575   7.562
 4386POPC   C1B56359  15.047  41.088   6.180
 4386POPC   C2B56360  14.999  40.954   6.617
 4386POPC   C3B56361  14.820  41.087   6.996
 4386POPC   C4B56362  14.964  41.376   7.278
 4387POPC   NC356363  34.394  14.767   5.598
 4387POPC   PO456364  34.348  14.143   5.332
 4387POPC   GL156365  34.491  14.106   5.751
 4387POPC   GL256366  34.870  14.144   5.815
 4387POPC   C1A56367  34.439  14.300   6.131
 4387POPC   D2A56368  34.572  14.344   6.540
 4387POPC   C3A56369  34.288  14.476   6.836
 4387POPC   C4A56370  34.322  14.379   7.256
 4387POPC   C1B56371  34.889  14.056   6.254
 4387POPC   C2B56372  35.075  14.244   6.633
 4387POPC   C3B56373  34.831  14.387   6.990
 4387POPC   C4B56374  34.768  14.182   7.376
 4388POPC   NC356375  41.291  17.448   5.274
 4388POPC   PO456376  41.866  17.069   5.460
 4388POPC   GL156377  41.739  17.305   5.859
 4388POPC   GL256378  41.489  17.579   5.773
 4388POPC   C1A56379  41.427  17.347   6.235
 4388POPC   D2A56380  41.234  17.331   6.669
 4388POPC   C3A56381  41.560  17.385   6.969
 4388POPC   C4A56382  41.863  17.210   7.257
 4388POPC   C1B56383  41.319  17.829   6.154
 4388POPC   C2B56384  41.342  17.835   6.622
 4388POPC   C3B56385  41.211  17.779   7.064
 4388POPC   C4B56386  41.488  17.649   7.392
 4389POPC   NC356387  20.701  39.042   5.426
 4389POPC   PO456388  20.487  39.675   5.434
 4389POPC   GL156389  20.552  39.366   5.809
 4389POPC   GL256390  20.850  39.101   5.888
 4389POPC   C1A56391  20.629  39.378   6.266
 4389POPC   D2A56392  20.700  39.538   6.664
 4389POPC   C3A56393  20.618  39.389   7.086
 4389POPC   C4A56394  20.768  39.477   7.537
 4389POPC   C1B56395  20.593  38.871   6.178
 4389POPC   C2B56396  20.464  38.990   6.593
 4389POPC   C3B56397  20.681  38.898   6.967
 4389POPC   C4B56398  20.493  38.868   7.366
 4390POPC   NC356399   6.149  35.479   5.255
 4390POPC   PO456400   5.767  34.861   5.314
 4390POPC   GL156401   5.883  35.085   5.724
 4390POPC   GL256402   5.963  35.460   5.733
 4390POPC   C1A56403   5.834  35.062   6.188
 4390POPC   D2A56404   5.790  35.349   6.560
 4390POPC   C3A56405   5.855  35.160   6.950
 4390POPC   C4A56406   5.905  35.204   7.366
 4390POPC   C1B56407   6.085  35.493   6.152
 4390POPC   C2B56408   6.252  35.593   6.572
 4390POPC   C3B56409   6.155  35.555   7.047
 4390POPC   C4B56410   6.047  35.665   7.496
 4391POPC   NC356411  40.388  36.846   5.353
 4391POPC   PO456412  39.725  36.881   5.647
 4391POPC   GL156413  40.106  36.847   5.861
 4391POPC   GL256414  40.323  37.138   5.790
 4391POPC   C1A56415  39.976  36.864   6.293
 4391POPC   D2A56416  39.707  36.755   6.618
 4391POPC   C3A56417  39.941  36.801   6.998
 4391POPC   C4A56418  40.208  36.659   7.343
 4391POPC   C1B56419  40.444  37.033   6.220
 4391POPC   C2B56420  40.292  37.037   6.681
 4391POPC   C3B56421  40.357  37.090   7.129
 4391POPC   C4B56422  40.248  37.424   7.416
 4392POPC   NC356423  29.014  19.284   5.578
 4392POPC   PO456424  29.418  18.916   5.222
 4392POPC   GL156425  29.341  18.885   5.694
 4392POPC   GL256426  29.474  19.179   5.831
 4392POPC   C1A56427  29.111  18.948   6.146
 4392POPC   D2A56428  29.179  19.158   6.554
 4392POPC   C3A56429  28.870  19.238   6.856
 4392POPC   C4A56430  28.894  19.112   7.277
 4392POPC   C1B56431  29.414  19.437   6.197
 4392POPC   C2B56432  29.573  19.478   6.657
 4392POPC   C3B56433  29.346  19.348   7.043
 4392POPC   C4B56434  29.326  19.277   7.478
 4393POPC   NC356435  23.112  38.119   5.510
 4393POPC   PO456436  22.598  37.730   5.461
 4393POPC   GL156437  22.906  37.587   5.773
 4393POPC   GL256438  23.167  37.363   5.706
 4393POPC   C1A56439  22.838  37.401   6.179
 4393POPC   D2A56440  23.002  37.509   6.594
 4393POPC   C3A56441  22.839  37.862   6.837
 4393POPC   C4A56442  22.752  37.739   7.262
 4393POPC   C1B56443  23.312  37.582   6.111
 4393POPC   C2B56444  23.477  37.714   6.547
 4393POPC   C3B56445  23.315  37.694   6.993
 4393POPC   C4B56446  23.256  37.867   7.400
 4394POPC   NC356447  39.416  35.647   5.181
 4394POPC   PO456448  38.985  35.203   5.491
 4394POPC   GL156449  39.367  35.276   5.744
 4394POPC   GL256450  39.521  35.628   5.757
 4394POPC   C1A56451  39.229  35.198   6.159
 4394POPC   D2A56452  39.052  35.444   6.456
 4394POPC   C3A56453  39.084  35.183   6.803
 4394POPC   C4A56454  39.237  35.161   7.191
 4394POPC   C1B56455  39.471  35.644   6.209
 4394POPC   C2B56456  39.541  35.381   6.608
 4394POPC   C3B56457  39.638  35.449   7.060
 4394POPC   C4B56458  39.525  35.487   7.551
 4395POPC   NC356459  32.352  35.189   5.384
 4395POPC   PO456460  32.030  35.724   5.100
 4395POPC   GL156461  32.037  35.566   5.587
 4395POPC   GL256462  32.374  35.631   5.723
 4395POPC   C1A56463  32.111  35.317   6.044
 4395POPC   D2A56464  32.282  35.118   6.484
 4395POPC   C3A56465  32.227  35.298   6.937
 4395POPC   C4A56466  32.215  35.713   7.133
 4395POPC   C1B56467  32.447  35.663   6.191
 4395POPC   C2B56468  32.708  35.446   6.492
 4395POPC   C3B56469  32.716  35.480   6.943
 4395POPC   C4B56470  32.557  35.420   7.361
 4396POPC   NC356471   8.107  11.594   5.380
 4396POPC   PO456472   8.555  11.097   5.301
 4396POPC   GL156473   8.196  11.152   5.676
 4396POPC   GL256474   7.937  11.420   5.846
 4396POPC   C1A56475   8.165  11.080   6.156
 4396POPC   D2A56476   8.368  11.292   6.537
 4396POPC   C3A56477   8.234  11.180   6.979
 4396POPC   C4A56478   8.575  11.188   7.350
 4396POPC   C1B56479   8.070  11.580   6.221
 4396POPC   C2B56480   7.926  11.522   6.631
 4396POPC   C3B56481   8.098  11.656   6.993
 4396POPC   C4B56482   8.079  11.476   7.367
 4397POPC   NC356483  29.506  27.784   5.564
 4397POPC   PO456484  30.194  27.708   5.475
 4397POPC   GL156485  30.029  27.524   5.835
 4397POPC   GL256486  30.008  27.831   5.969
 4397POPC   C1A56487  30.227  27.470   6.252
 4397POPC   D2A56488  30.098  27.756   6.603
 4397POPC   C3A56489  29.966  27.804   7.073
 4397POPC   C4A56490  29.845  27.914   7.548
 4397POPC   C1B56491  29.713  27.607   6.215
 4397POPC   C2B56492  29.593  27.650   6.621
 4397POPC   C3B56493  29.609  27.367   6.952
 4397POPC   C4B56494  29.665  27.486   7.347
 4398POPC   NC356495  18.122  42.288   5.403
 4398POPC   PO456496  18.491  42.798   5.571
 4398POPC   GL156497  18.294  42.478   5.830
 4398POPC   GL256498  18.288  42.642   6.106
 4398POPC   C1A56499  18.136  42.160   6.162
 4398POPC   D2A56500  18.259  42.359   6.565
 4398POPC   C3A56501  18.286  42.076   6.896
 4398POPC   C4A56502  18.351  41.901   7.296
 4398POPC   C1B56503  18.639  42.748   6.301
 4398POPC   C2B56504  18.559  42.814   6.701
 4398POPC   C3B56505  18.772  42.617   6.976
 4398POPC   C4B56506  18.550  42.367   7.236
 4399POPC   NC356507   0.041  28.894   5.422
 4399POPC   PO456508  44.503  29.384   5.456
 4399POPC   GL156509  44.760  29.380   5.820
 4399POPC   GL256510  44.754  29.017   5.861
 4399POPC   C1A56511  44.668  29.385   6.266
 4399POPC   D2A56512  44.718  29.125   6.606
 4399POPC   C3A56513  44.724  29.310   6.997
 4399POPC   C4A56514  44.849  29.448   7.386
 4399POPC   C1B56515  44.405  28.973   6.184
 4399POPC   C2B56516  44.367  28.744   6.601
 4399POPC   C3B56517  44.461  28.758   7.063
 4399POPC   C4B56518  44.791  28.931   7.330
 4400POPC   NC356519  17.973  17.142   5.431
 4400POPC   PO456520  18.254  16.475   5.481
 4400POPC   GL156521  18.217  16.797   5.741
 4400POPC   GL256522  18.113  16.534   5.978
 4400POPC   C1A56523  18.326  16.959   6.127
 4400POPC   D2A56524  18.433  16.710   6.464
 4400POPC   C3A56525  18.580  16.808   6.879
 4400POPC   C4A56526  18.634  16.513   7.209
 4400POPC   C1B56527  18.038  16.389   6.388
 4400POPC   C2B56528  18.127  16.501   6.839
 4400POPC   C3B56529  18.165  16.807   7.194
 4400POPC   C4B56530  18.053  17.079   7.561
 4401POPC   NC356531  18.517  26.457   5.504
 4401POPC   PO456532  18.525  27.144   5.382
 4401POPC   GL156533  18.316  27.001   5.760
 4401POPC   GL256534  18.096  26.685   5.754
 4401POPC   C1A56535  18.421  26.783   6.148
 4401POPC   D2A56536  18.381  26.969   6.554
 4401POPC   C3A56537  18.231  26.799   6.909
 4401POPC   C4A56538  18.329  26.829   7.302
 4401POPC   C1B56539  18.036  26.456   6.158
 4401POPC   C2B56540  17.918  26.621   6.563
 4401POPC   C3B56541  17.805  26.525   7.011
 4401POPC   C4B56542  17.936  26.579   7.464
 4402POPC   NC356543  14.719  41.152   5.583
 4402POPC   PO456544  14.170  41.587   5.478
 4402POPC   GL156545  14.310  41.365   5.822
 4402POPC   GL256546  14.539  41.630   5.836
 4402POPC   C1A56547  14.452  41.348   6.254
 4402POPC   D2A56548  14.352  41.593   6.622
 4402POPC   C3A56549  14.592  41.546   6.946
 4402POPC   C4A56550  14.395  41.350   7.256
 4402POPC   C1B56551  14.442  41.879   6.213
 4402POPC   C2B56552  14.221  42.082   6.554
 4402POPC   C3B56553  14.037  41.992   6.920
 4402POPC   C4B56554  14.316  41.873   7.219
 4403POPC   NC356555  22.425  33.585   5.289
 4403POPC   PO456556  22.389  34.259   5.491
 4403POPC   GL156557  22.358  33.863   5.711
 4403POPC   GL256558  22.006  33.694   5.773
 4403POPC   C1A56559  22.354  33.775   6.130
 4403POPC   D2A56560  22.087  33.857   6.473
 4403POPC   C3A56561  22.212  33.754   6.887
 4403POPC   C4A56562  21.986  33.810   7.283
 4403POPC   C1B56563  22.026  33.399   6.156
 4403POPC   C2B56564  21.937  33.382   6.607
 4403POPC   C3B56565  21.894  33.365   7.059
 4403POPC   C4B56566  21.878  33.360   7.543
 4404POPC   NC356567  14.696  21.579   5.403
 4404POPC   PO456568  14.223  22.129   5.443
 4404POPC   GL156569  14.416  22.186   5.829
 4404POPC   GL256570  14.568  21.867   5.789
 4404POPC   C1A56571  14.487  22.359   6.247
 4404POPC   D2A56572  14.277  22.401   6.662
 4404POPC   C3A56573  14.042  22.116   6.939
 4404POPC   C4A56574  14.158  22.154   7.373
 4404POPC   C1B56575  14.631  21.869   6.203
 4404POPC   C2B56576  14.737  22.055   6.596
 4404POPC   C3B56577  14.543  22.044   7.007
 4404POPC   C4B56578  14.577  21.889   7.455
 4405POPC   NC356579  14.757   4.342   5.619
 4405POPC   PO456580  15.378   4.144   5.447
 4405POPC   GL156581  15.289   4.390   5.833
 4405POPC   GL256582  15.495   4.685   5.969
 4405POPC   C1A56583  15.258   4.221   6.237
 4405POPC   D2A56584  14.963   4.202   6.575
 4405POPC   C3A56585  15.214   4.099   6.916
 4405POPC   C4A56586  15.502   4.303   7.205
 4405POPC   C1B56587  15.291   4.699   6.384
 4405POPC   C2B56588  15.079   4.661   6.780
 4405POPC   C3B56589  15.027   4.501   7.200
 4405POPC   C4B56590  15.292   4.614   7.570
 4406POPC   NC356591  30.277  22.338   5.393
 4406POPC   PO456592  30.707  21.814   5.414
 4406POPC   GL156593  30.511  22.006   5.764
 4406POPC   GL256594  30.775  22.231   5.923
 4406POPC   C1A56595  30.423  21.911   6.193
 4406POPC   D2A56596  30.629  22.034   6.579
 4406POPC   C3A56597  30.470  21.817   6.959
 4406POPC   C4A56598  30.487  22.000   7.384
 4406POPC   C1B56599  31.042  22.300   6.299
 4406POPC   C2B56600  31.163  22.207   6.721
 4406POPC   C3B56601  30.834  22.188   7.031
 4406POPC   C4B56602  30.658  22.497   7.303
 4407POPC   NC356603  34.613   3.898   5.421
 4407POPC   PO456604  35.060   3.364   5.362
 4407POPC   GL156605  34.897   3.489   5.762
 4407POPC   GL256606  34.954   3.850   5.797
 4407POPC   C1A56607  34.587   3.318   6.088
 4407POPC   D2A56608  34.334   3.399   6.474
 4407POPC   C3A56609  34.485   3.329   6.886
 4407POPC   C4A56610  34.484   3.490   7.281
 4407POPC   C1B56611  34.870   3.715   6.236
 4407POPC   C2B56612  34.844   3.664   6.662
 4407POPC   C3B56613  34.756   3.974   6.966
 4407POPC   C4B56614  34.864   3.828   7.338
 4408POPC   NC356615  42.797  21.630   5.447
 4408POPC   PO456616  43.302  21.166   5.474
 4408POPC   GL156617  43.034  21.334   5.830
 4408POPC   GL256618  43.139  21.705   5.820
 4408POPC   C1A56619  42.996  21.205   6.302
 4408POPC   D2A56620  43.284  21.351   6.633
 4408POPC   C3A56621  43.167  21.524   7.012
 4408POPC   C4A56622  43.002  21.355   7.328
 4408POPC   C1B56623  43.169  21.664   6.239
 4408POPC   C2B56624  42.940  21.728   6.605
 4408POPC   C3B56625  42.826  21.940   6.958
 4408POPC   C4B56626  43.035  21.913   7.357
 4409POPC   NC356627  16.817  24.068   5.722
 4409POPC   PO456628  16.377  23.650   5.428
 4409POPC   GL156629  16.538  23.541   5.865
 4409POPC   GL256630  16.907  23.567   5.903
 4409POPC   C1A56631  16.666  23.443   6.320
 4409POPC   D2A56632  16.604  23.443   6.764
 4409POPC   C3A56633  16.926  23.520   7.055
 4409POPC   C4A56634  16.555  23.589   7.312
 4409POPC   C1B56635  17.078  23.780   6.272
 4409POPC   C2B56636  16.851  23.875   6.645
 4409POPC   C3B56637  16.748  23.991   7.074
 4409POPC   C4B56638  16.992  23.865   7.427
 4410POPC   NC356639  37.303   7.043   5.377
 4410POPC   PO456640  37.482   6.465   5.435
 4410POPC   GL156641  37.583   6.615   5.832
 4410POPC   GL256642  37.708   6.335   5.981
 4410POPC   C1A56643  37.671   6.762   6.275
 4410POPC   D2A56644  37.760   6.631   6.692
 4410POPC   C3A56645  37.698   6.779   7.095
 4410POPC   C4A56646  37.686   6.620   7.531
 4410POPC   C1B56647  37.994   6.321   6.325
 4410POPC   C2B56648  37.925   6.168   6.734
 4410POPC   C3B56649  37.866   6.286   7.165
 4410POPC   C4B56650  38.043   6.251   7.613
 4411POPC   NC356651  31.486  19.489   5.355
 4411POPC   PO456652  31.424  20.165   5.416
 4411POPC   GL156653  31.396  19.824   5.766
 4411POPC   GL256654  31.709  19.678   5.797
 4411POPC   C1A56655  31.462  19.720   6.238
 4411POPC   D2A56656  31.706  19.706   6.609
 4411POPC   C3A56657  31.552  19.522   6.944
 4411POPC   C4A56658  31.195  19.630   7.176
 4411POPC   C1B56659  31.700  20.122   6.044
 4411POPC   C2B56660  31.594  20.213   6.500
 4411POPC   C3B56661  31.455  20.029   6.916
 4411POPC   C4B56662  31.590  19.888   7.362
 4412POPC   NC356663  34.961   7.396   5.588
 4412POPC   PO456664  34.342   6.999   5.523
 4412POPC   GL156665  34.541   7.186   5.842
 4412POPC   GL256666  34.464   7.530   5.748
 4412POPC   C1A56667  34.677   7.091   6.272
 4412POPC   D2A56668  34.698   7.302   6.691
 4412POPC   C3A56669  34.596   7.084   7.093
 4412POPC   C4A56670  34.839   7.068   7.485
 4412POPC   C1B56671  34.562   7.578   6.173
 4412POPC   C2B56672  34.368   7.764   6.506
 4412POPC   C3B56673  34.516   7.758   6.892
 4412POPC   C4B56674  34.366   7.588   7.250
 4413POPC   NC356675   5.597  42.527   5.490
 4413POPC   PO456676   6.270  42.332   5.531
 4413POPC   GL156677   5.921  42.277   5.859
 4413POPC   GL256678   5.646  41.984   5.883
 4413POPC   C1A56679   5.840  42.621   6.176
 4413POPC   D2A56680   6.052  42.795   6.542
 4413POPC   C3A56681   5.801  42.631   6.914
 4413POPC   C4A56682   5.866  42.291   7.198
 4413POPC   C1B56683   5.648  42.140   6.299
 4413POPC   C2B56684   5.618  42.161   6.764
 4413POPC   C3B56685   5.630  41.863   7.076
 4413POPC   C4B56686   5.665  41.925   7.547
 4414POPC   NC356687  22.894  39.718   5.205
 4414POPC   PO456688  23.413  40.059   5.428
 4414POPC   GL156689  22.978  39.999   5.703
 4414POPC   GL256690  22.616  40.181   5.724
 4414POPC   C1A56691  22.852  39.914   6.166
 4414POPC   D2A56692  22.906  40.130   6.594
 4414POPC   C3A56693  22.935  39.873   6.979
 4414POPC   C4A56694  22.802  39.620   7.277
 4414POPC   C1B56695  22.663  40.406   6.147
 4414POPC   C2B56696  22.541  40.506   6.583
 4414POPC   C3B56697  22.766  40.507   6.974
 4414POPC   C4B56698  22.869  40.299   7.318
 4415POPC   NC356699  43.151  27.865   5.461
 4415POPC   PO456700  43.442  27.243   5.487
 4415POPC   GL156701  43.193  27.569   5.858
 4415POPC   GL256702  42.887  27.829   5.892
 4415POPC   C1A56703  43.265  27.799   6.286
 4415POPC   D2A56704  43.438  27.608   6.690
 4415POPC   C3A56705  43.252  27.606   7.088
 4415POPC   C4A56706  43.098  27.644   7.519
 4415POPC   C1B56707  42.781  27.597   6.261
 4415POPC   C2B56708  42.897  27.597   6.701
 4415POPC   C3B56709  42.763  27.786   7.111
 4415POPC   C4B56710  42.614  27.658   7.527
 4416POPC   NC356711  37.763  37.513   5.431
 4416POPC   PO456712  37.957  38.192   5.457
 4416POPC   GL156713  37.725  37.895   5.807
 4416POPC   GL256714  37.559  37.544   5.890
 4416POPC   C1A56715  37.569  37.900   6.260
 4416POPC   D2A56716  37.742  37.974   6.712
 4416POPC   C3A56717  37.452  37.818   7.059
 4416POPC   C4A56718  37.431  37.878   7.527
 4416POPC   C1B56719  37.672  37.374   6.298
 4416POPC   C2B56720  37.680  37.451   6.736
 4416POPC   C3B56721  37.879  37.505   7.111
 4416POPC   C4B56722  37.966  37.273   7.461
 4417POPC   NC356723   2.692  44.574   5.327
 4417POPC   PO456724   2.343   0.144   5.339
 4417POPC   GL156725   2.573  44.865   5.731
 4417POPC   GL256726   2.927  44.692   5.785
 4417POPC   C1A56727   2.728  44.928   6.185
 4417POPC   D2A56728   3.014  44.681   6.471
 4417POPC   C3A56729   3.025  44.752   6.926
 4417POPC   C4A56730   2.640  44.688   7.149
 4417POPC   C1B56731   3.209  44.409   6.041
 4417POPC   C2B56732   3.290  44.240   6.471
 4417POPC   C3B56733   3.015  44.203   6.859
 4417POPC   C4B56734   3.035  44.379   7.296
 4418POPC   NC356735   2.126   0.381   5.005
 4418POPC   PO456736   1.676   0.357   5.533
 4418POPC   GL156737   1.879   0.455   5.901
 4418POPC   GL256738   2.139   0.698   5.860
 4418POPC   C1A56739   1.814   0.310   6.308
 4418POPC   D2A56740   1.847   0.515   6.694
 4418POPC   C3A56741   1.811   0.249   7.003
 4418POPC   C4A56742   1.504   0.200   7.280
 4418POPC   C1B56743   2.140   0.713   6.315
 4418POPC   C2B56744   2.296   0.760   6.761
 4418POPC   C3B56745   2.297   0.447   7.074
 4418POPC   C4B56746   2.179   0.127   7.345
 4419POPC   NC356747   8.574   9.002   5.564
 4419POPC   PO456748   9.016   8.551   5.481
 4419POPC   GL156749   9.041   8.683   5.877
 4419POPC   GL256750   8.664   8.571   5.852
 4419POPC   C1A56751   9.296   8.770   6.292
 4419POPC   D2A56752   9.306   9.088   6.666
 4419POPC   C3A56753   8.891   9.144   6.899
 4419POPC   C4A56754   8.745   9.239   7.336
 4419POPC   C1B56755   8.671   8.821   6.193
 4419POPC   C2B56756   8.842   8.717   6.550
 4419POPC   C3B56757   8.565   8.741   6.855
 4419POPC   C4B56758   8.766   8.751   7.228
 4420POPC   NC356759  24.142  20.077   5.498
 4420POPC   PO456760  24.253  19.455   5.399
 4420POPC   GL156761  24.330  19.643   5.790
 4420POPC   GL256762  24.628  19.821   5.732
 4420POPC   C1A56763  24.446  19.818   6.205
 4420POPC   D2A56764  24.588  19.666   6.580
 4420POPC   C3A56765  24.403  19.890   6.946
 4420POPC   C4A56766  24.404  20.172   7.294
 4420POPC   C1B56767  24.947  19.818   6.094
 4420POPC   C2B56768  25.058  19.850   6.500
 4420POPC   C3B56769  24.934  19.887   6.879
 4420POPC   C4B56770  24.889  19.813   7.243
 4421POPC   NC356771  42.039  12.587   5.470
 4421POPC   PO456772  42.599  12.998   5.353
 4421POPC   GL156773  42.527  13.043   5.796
 4421POPC   GL256774  42.218  12.868   5.895
 4421POPC   C1A56775  42.516  13.082   6.253
 4421POPC   D2A56776  42.258  12.828   6.519
 4421POPC   C3A56777  42.188  12.999   6.884
 4421POPC   C4A56778  42.278  12.893   7.259
 4421POPC   C1B56779  41.984  13.091   6.192
 4421POPC   C2B56780  42.059  13.364   6.538
 4421POPC   C3B56781  41.819  13.344   6.919
 4421POPC   C4B56782  41.794  13.070   7.242
 4422POPC   NC356783  33.366  42.663   5.377
 4422POPC   PO456784  34.022  42.543   5.454
 4422POPC   GL156785  33.893  42.535   5.878
 4422POPC   GL256786  33.530  42.604   5.876
 4422POPC   C1A56787  34.068  42.316   6.259
 4422POPC   D2A56788  33.884  41.938   6.488
 4422POPC   C3A56789  33.751  42.020   6.920
 4422POPC   C4A56790  34.043  42.322   7.086
 4422POPC   C1B56791  33.570  42.358   6.257
 4422POPC   C2B56792  33.717  42.461   6.674
 4422POPC   C3B56793  33.468  42.517   7.055
 4422POPC   C4B56794  33.474  42.694   7.497
 4423POPC   NC356795  24.998  10.504   5.628
 4423POPC   PO456796  25.563  10.722   5.395
 4423POPC   GL156797  25.549  10.585   5.800
 4423POPC   GL256798  25.429  10.248   5.779
 4423POPC   C1A56799  25.459  10.547   6.242
 4423POPC   D2A56800  25.236  10.622   6.606
 4423POPC   C3A56801  25.374  10.504   6.993
 4423POPC   C4A56802  25.580  10.802   7.240
 4423POPC   C1B56803  25.124  10.153   6.160
 4423POPC   C2B56804  24.912  10.232   6.543
 4423POPC   C3B56805  25.020  10.071   6.956
 4423POPC   C4B56806  25.254  10.148   7.346
 4424POPC   NC356807  25.600  30.219   5.506
 4424POPC   PO456808  25.284  30.949   5.389
 4424POPC   GL156809  25.398  30.777   5.739
 4424POPC   GL256810  25.082  30.808   5.909
 4424POPC   C1A56811  25.526  30.876   6.165
 4424POPC   D2A56812  25.324  31.000   6.559
 4424POPC   C3A56813  25.051  30.846   6.849
 4424POPC   C4A56814  25.244  30.967   7.245
 4424POPC   C1B56815  25.087  30.624   6.319
 4424POPC   C2B56816  25.346  30.412   6.631
 4424POPC   C3B56817  25.181  30.354   7.036
 4424POPC   C4B56818  24.929  30.573   7.269
 4425POPC   NC356819   5.415  20.153   5.638
 4425POPC   PO456820   5.747  20.779   5.409
 4425POPC   GL156821   5.917  20.772   5.830
 4425POPC   GL256822   5.998  20.408   5.890
 4425POPC   C1A56823   5.784  20.748   6.256
 4425POPC   D2A56824   5.830  20.534   6.649
 4425POPC   C3A56825   5.819  20.799   6.992
 4425POPC   C4A56826   5.985  20.706   7.362
 4425POPC   C1B56827   5.713  20.224   6.251
 4425POPC   C2B56828   5.563  20.079   6.687
 4425POPC   C3B56829   5.460  20.275   7.113
 4425POPC   C4B56830   5.720  20.235   7.492
 4426POPC   NC356831  33.633  12.026   5.412
 4426POPC   PO456832  33.242  11.568   5.682
 4426POPC   GL156833  33.657  11.740   5.841
 4426POPC   GL256834  33.878  12.050   5.855
 4426POPC   C1A56835  33.857  11.740   6.250
 4426POPC   D2A56836  33.807  12.067   6.544
 4426POPC   C3A56837  33.753  11.991   6.955
 4426POPC   C4A56838  33.560  12.214   7.230
 4426POPC   C1B56839  34.161  12.188   6.194
 4426POPC   C2B56840  34.120  12.483   6.556
 4426POPC   C3B56841  34.274  12.433   6.984
 4426POPC   C4B56842  34.232  12.043   7.168
 4427POPC   NC356843  21.253   9.394   5.351
 4427POPC   PO456844  21.528  10.009   5.581
 4427POPC   GL156845  21.404   9.812   5.915
 4427POPC   GL256846  21.485   9.486   5.821
 4427POPC   C1A56847  21.486   9.694   6.333
 4427POPC   D2A56848  21.551   9.471   6.718
 4427POPC   C3A56849  21.528   9.737   7.067
 4427POPC   C4A56850  21.829   9.897   7.357
 4427POPC   C1B56851  21.198   9.317   6.079
 4427POPC   C2B56852  21.078   9.422   6.514
 4427POPC   C3B56853  21.079   9.507   6.938
 4427POPC   C4B56854  21.368   9.272   7.180
 4428POPC   NC356855  24.934  34.940   5.380
 4428POPC   PO456856  25.029  34.274   5.473
 4428POPC   GL156857  25.136  34.665   5.768
 4428POPC   GL256858  25.484  34.630   5.739
 4428POPC   C1A56859  25.365  34.889   6.172
 4428POPC   D2A56860  25.629  34.825   6.596
 4428POPC   C3A56861  25.409  34.717   6.985
 4428POPC   C4A56862  25.055  34.625   7.256
 4428POPC   C1B56863  25.314  34.364   6.129
 4428POPC   C2B56864  25.230  34.080   6.488
 4428POPC   C3B56865  25.196  34.152   6.928
 4428POPC   C4B56866  25.448  34.278   7.254
 4429POPC   NC356867  18.102  40.319   5.549
 4429POPC   PO456868  18.382  40.918   5.288
 4429POPC   GL156869  18.547  40.773   5.749
 4429POPC   GL256870  18.304  40.549   5.945
 4429POPC   C1A56871  18.514  40.896   6.237
 4429POPC   D2A56872  18.149  40.789   6.519
 4429POPC   C3A56873  18.193  40.744   6.980
 4429POPC   C4A56874  18.079  41.089   7.256
 4429POPC   C1B56875  18.448  40.384   6.330
 4429POPC   C2B56876  18.621  40.604   6.692
 4429POPC   C3B56877  18.693  40.527   7.126
 4429POPC   C4B56878  18.326  40.378   7.347
 4430POPC   NC356879  25.704  23.269   5.500
 4430POPC   PO456880  26.153  22.783   5.391
 4430POPC   GL156881  26.091  22.985   5.769
 4430POPC   GL256882  26.173  23.333   5.722
 4430POPC   C1A56883  25.956  23.012   6.202
 4430POPC   D2A56884  26.124  22.982   6.615
 4430POPC   C3A56885  25.890  22.747   6.938
 4430POPC   C4A56886  25.810  22.769   7.376
 4430POPC   C1B56887  26.115  23.492   6.162
 4430POPC   C2B56888  25.989  23.509   6.585
 4430POPC   C3B56889  25.827  23.291   6.928
 4430POPC   C4B56890  25.670  23.242   7.303
 4431POPC   NC356891  27.173  35.672   5.342
 4431POPC   PO456892  26.993  35.070   5.569
 4431POPC   GL156893  27.008  35.378   5.862
 4431POPC   GL256894  26.786  35.629   5.725
 4431POPC   C1A56895  26.942  35.256   6.284
 4431POPC   D2A56896  26.967  35.140   6.701
 4431POPC   C3A56897  26.612  35.082   6.934
 4431POPC   C4A56898  26.697  35.199   7.326
 4431POPC   C1B56899  26.847  35.759   6.188
 4431POPC   C2B56900  27.024  35.663   6.599
 4431POPC   C3B56901  26.918  35.533   7.010
 4431POPC   C4B56902  26.916  35.848   7.286
 4432POPC   NC356903  29.467  22.525   5.739
 4432POPC   PO456904  28.902  22.298   5.415
 4432POPC   GL156905  29.101  22.127   5.805
 4432POPC   GL256906  29.408  21.956   5.670
 4432POPC   C1A56907  29.111  22.207   6.274
 4432POPC   D2A56908  28.816  22.117   6.608
 4432POPC   C3A56909  28.868  22.277   7.003
 4432POPC   C4A56910  29.228  22.328   7.198
 4432POPC   C1B56911  29.401  21.814   6.106
 4432POPC   C2B56912  29.252  21.740   6.534
 4432POPC   C3B56913  29.370  21.882   6.939
 4432POPC   C4B56914  29.233  21.808   7.360
 4433POPC   NC356915   8.908  31.705   5.579
 4433POPC   PO456916   9.197  31.078   5.538
 4433POPC   GL156917   9.002  31.251   5.884
 4433POPC   GL256918   8.960  31.598   6.053
 4433POPC   C1A56919   9.181  31.220   6.274
 4433POPC   D2A56920   9.294  31.396   6.638
 4433POPC   C3A56921   9.118  31.188   6.984
 4433POPC   C4A56922   8.819  31.432   7.149
 4433POPC   C1B56923   8.703  31.788   6.371
 4433POPC   C2B56924   8.834  32.059   6.679
 4433POPC   C3B56925   8.954  31.939   7.090
 4433POPC   C4B56926   8.696  31.800   7.463
 4434POPC   NC356927   0.375  20.997   5.584
 4434POPC   PO456928   0.385  21.522   5.158
 4434POPC   GL156929   0.553  21.522   5.614
 4434POPC   GL256930   0.215  21.590   5.720
 4434POPC   C1A56931   0.608  21.432   6.111
 4434POPC   D2A56932   0.806  21.223   6.515
 4434POPC   C3A56933   0.579  21.185   6.934
 4434POPC   C4A56934   0.265  21.233   7.286
 4434POPC   C1B56935   0.144  21.663   6.156
 4434POPC   C2B56936   0.286  21.436   6.548
 4434POPC   C3B56937   0.326  21.623   6.965
 4434POPC   C4B56938   0.199  21.731   7.402
 4435POPC   NC356939  41.054  14.376   5.425
 4435POPC   PO456940  40.457  14.065   5.379
 4435POPC   GL156941  40.675  14.133   5.769
 4435POPC   GL256942  40.733  14.445   5.846
 4435POPC   C1A56943  40.547  14.134   6.222
 4435POPC   D2A56944  40.407  14.294   6.628
 4435POPC   C3A56945  40.755  14.248   6.919
 4435POPC   C4A56946  40.893  14.192   7.352
 4435POPC   C1B56947  40.900  14.513   6.252
 4435POPC   C2B56948  40.738  14.674   6.622
 4435POPC   C3B56949  40.823  14.750   7.030
 4435POPC   C4B56950  40.949  14.725   7.440
 4436POPC   NC356951  20.982  12.627   5.433
 4436POPC   PO456952  20.458  13.083   5.491
 4436POPC   GL156953  20.614  12.803   5.732
 4436POPC   GL256954  20.433  12.525   5.551
 4436POPC   C1A56955  20.643  12.877   6.164
 4436POPC   D2A56956  20.583  12.985   6.592
 4436POPC   C3A56957  20.304  12.907   6.956
 4436POPC   C4A56958  20.566  12.870   7.309
 4436POPC   C1B56959  20.242  12.597   5.974
 4436POPC   C2B56960  20.311  12.569   6.427
 4436POPC   C3B56961  20.206  12.423   6.844
 4436POPC   C4B56962  20.301  12.452   7.280
 4437POPC   NC356963  42.070  41.647   5.265
 4437POPC   PO456964  42.685  41.335   5.443
 4437POPC   GL156965  42.369  41.597   5.734
 4437POPC   GL256966  42.367  41.428   6.014
 4437POPC   C1A56967  42.351  41.896   6.150
 4437POPC   D2A56968  42.510  41.655   6.517
 4437POPC   C3A56969  42.409  41.553   6.969
 4437POPC   C4A56970  42.378  41.665   7.431
 4437POPC   C1B56971  42.181  41.270   6.374
 4437POPC   C2B56972  41.942  41.062   6.658
 4437POPC   C3B56973  41.963  41.255   7.052
 4437POPC   C4B56974  42.275  41.179   7.296
 4438POPC   NC356975  27.758  28.932   5.603
 4438POPC   PO456976  27.200  29.268   5.440
 4438POPC   GL156977  27.312  29.096   5.824
 4438POPC   GL256978  27.562  29.350   5.872
 4438POPC   C1A56979  27.494  29.015   6.251
 4438POPC   D2A56980  27.344  29.173   6.662
 4438POPC   C3A56981  27.617  29.200   7.012
 4438POPC   C4A56982  27.947  28.929   7.161
 4438POPC   C1B56983  27.393  29.515   6.280
 4438POPC   C2B56984  27.449  29.665   6.722
 4438POPC   C3B56985  27.596  29.693   7.169
 4438POPC   C4B56986  27.612  29.623   7.637
 4439POPC   NC356987  33.140   8.943   5.150
 4439POPC   PO456988  33.062   8.339   5.436
 4439POPC   GL156989  32.937   8.178   5.807
 4439POPC   GL256990  32.698   8.405   5.948
 4439POPC   C1A56991  33.076   8.047   6.207
 4439POPC   D2A56992  33.169   8.179   6.619
 4439POPC   C3A56993  33.082   7.955   6.981
 4439POPC   C4A56994  32.953   8.208   7.356
 4439POPC   C1B56995  32.780   8.436   6.376
 4439POPC   C2B56996  32.739   8.475   6.824
 4439POPC   C3B56997  32.697   8.623   7.242
 4439POPC   C4B56998  32.970   8.668   7.619
 4440POPC   NC356999  13.544  10.857   5.429
 4440POPC   PO457000  13.688  10.262   5.202
 4440POPC   GL157001  13.776  10.442   5.629
 4440POPC   GL257002  13.727  10.198   5.808
 4440POPC   C1A57003  13.625  10.682   6.077
 4440POPC   D2A57004  13.519  10.541   6.502
 4440POPC   C3A57005  13.580  10.606   6.918
 4440POPC   C4A57006  13.424  10.389   7.284
 4440POPC   C1B57007  13.657  10.132   6.211
 4440POPC   C2B57008  13.871  10.184   6.589
 4440POPC   C3B57009  13.737  10.123   6.980
 4440POPC   C4B57010  13.900  10.201   7.367
 4441POPC   NC357011  37.707  40.321   5.341
 4441POPC   PO457012  37.836  39.692   5.574
 4441POPC   GL157013  37.706  40.056   5.799
 4441POPC   GL257014  38.009  40.256   5.742
 4441POPC   C1A57015  37.521  40.013   6.221
 4441POPC   D2A57016  37.355  39.779   6.567
 4441POPC   C3A57017  37.442  40.002   6.923
 4441POPC   C4A57018  37.590  39.891   7.360
 4441POPC   C1B57019  37.901  40.394   6.161
 4441POPC   C2B57020  37.763  40.344   6.578
 4441POPC   C3B57021  37.918  40.163   6.950
 4441POPC   C4B57022  37.771  40.396   7.281
 4442POPC   NC357023   8.762  35.164   5.219
 4442POPC   PO457024   8.576  35.628   5.655
 4442POPC   GL157025   9.035  35.483   5.824
 4442POPC   GL257026   9.356  35.267   5.823
 4442POPC   C1A57027   9.069  35.346   6.288
 4442POPC   D2A57028   8.710  35.156   6.505
 4442POPC   C3A57029   8.600  35.133   6.966
 4442POPC   C4A57030   8.649  35.435   7.323
 4442POPC   C1B57031   9.380  34.955   6.179
 4442POPC   C2B57032   9.195  34.946   6.608
 4442POPC   C3B57033   9.061  35.310   6.863
 4442POPC   C4B57034   9.028  35.111   7.267
 4443POPC   NC357035  30.431  33.756   5.520
 4443POPC   PO457036  31.071  33.571   5.391
 4443POPC   GL157037  31.016  33.777   5.783
 4443POPC   GL257038  30.766  33.512   5.832
 4443POPC   C1A57039  30.849  33.842   6.213
 4443POPC   D2A57040  30.779  33.644   6.620
 4443POPC   C3A57041  30.804  33.877   7.014
 4443POPC   C4A57042  30.467  34.130   7.191
 4443POPC   C1B57043  30.422  33.509   6.143
 4443POPC   C2B57044  30.337  33.405   6.573
 4443POPC   C3B57045  30.366  33.588   6.969
 4443POPC   C4B57046  30.512  33.644   7.406
 4444POPC   NC357047  33.648  39.952   5.160
 4444POPC   PO457048  34.259  39.949   5.386
 4444POPC   GL157049  33.886  39.982   5.680
 4444POPC   GL257050  33.979  40.288   5.838
 4444POPC   C1A57051  33.672  40.039   6.136
 4444POPC   D2A57052  33.732  40.168   6.551
 4444POPC   C3A57053  33.576  39.877   6.808
 4444POPC   C4A57054  33.604  39.829   7.226
 4444POPC   C1B57055  34.146  39.865   6.104
 4444POPC   C2B57056  34.112  39.793   6.543
 4444POPC   C3B57057  34.070  39.958   6.930
 4444POPC   C4B57058  34.103  39.864   7.310
 4445POPC   NC357059  35.047   2.959   5.601
 4445POPC   PO457060  34.566   2.498   5.583
 4445POPC   GL157061  34.379   2.744   5.897
 4445POPC   GL257062  34.141   3.032   5.798
 4445POPC   C1A57063  34.625   2.826   6.239
 4445POPC   D2A57064  34.801   3.122   6.529
 4445POPC   C3A57065  34.869   2.884   6.919
 4445POPC   C4A57066  34.850   2.847   7.361
 4445POPC   C1B57067  34.109   2.987   6.263
 4445POPC   C2B57068  34.341   2.869   6.651
 4445POPC   C3B57069  34.309   2.865   7.081
 4445POPC   C4B57070  34.063   3.228   7.206
 4446POPC   NC357071  10.613  39.748   5.506
 4446POPC   PO457072  10.361  39.185   5.481
 4446POPC   GL157073  10.343  38.955   5.882
 4446POPC   GL257074  10.698  38.996   6.014
 4446POPC   C1A57075  10.270  39.073   6.315
 4446POPC   D2A57076  10.401  39.312   6.662
 4446POPC   C3A57077  10.302  39.173   7.073
 4446POPC   C4A57078  10.590  39.134   7.404
 4446POPC   C1B57079  10.742  39.402   6.265
 4446POPC   C2B57080  10.734  39.692   6.631
 4446POPC   C3B57081  10.706  39.571   7.086
 4446POPC   C4B57082  10.838  39.566   7.590
 4447POPC   NC357083  25.503   5.963   5.451
 4447POPC   PO457084  24.857   5.698   5.483
 4447POPC   GL157085  25.157   5.868   5.837
 4447POPC   GL257086  24.942   6.091   5.977
 4447POPC   C1A57087  25.365   6.164   6.215
 4447POPC   D2A57088  25.276   6.291   6.658
 4447POPC   C3A57089  25.367   5.997   7.001
 4447POPC   C4A57090  25.606   5.654   7.105
 4447POPC   C1B57091  25.001   5.814   6.337
 4447POPC   C2B57092  25.096   5.432   6.582
 4447POPC   C3B57093  25.133   5.521   7.018
 4447POPC   C4B57094  24.888   5.887   7.170
 4448POPC   NC357095  40.528   1.492   5.289
 4448POPC   PO457096  39.934   1.096   5.395
 4448POPC   GL157097  40.098   1.113   5.796
 4448POPC   GL257098  40.396   1.215   5.691
 4448POPC   C1A57099  40.034   1.290   6.203
 4448POPC   D2A57100  39.920   1.549   6.569
 4448POPC   C3A57101  39.914   1.219   6.869
 4448POPC   C4A57102  40.247   1.084   7.123
 4448POPC   C1B57103  40.489   1.509   6.041
 4448POPC   C2B57104  40.433   1.477   6.494
 4448POPC   C3B57105  40.372   1.535   6.946
 4448POPC   C4B57106  40.017   1.562   7.250
 4449POPC   NC357107  18.468  43.264   5.504
 4449POPC   PO457108  17.850  43.164   5.582
 4449POPC   GL157109  18.185  43.099   5.917
 4449POPC   GL257110  18.567  43.123   5.979
 4449POPC   C1A57111  18.217  43.085   6.383
 4449POPC   D2A57112  17.991  42.812   6.685
 4449POPC   C3A57113  18.201  42.748   7.069
 4449POPC   C4A57114  18.540  42.875   7.336
 4449POPC   C1B57115  18.582  43.478   6.274
 4449POPC   C2B57116  18.485  43.536   6.681
 4449POPC   C3B57117  18.268  43.234   6.900
 4449POPC   C4B57118  18.011  43.277   7.223
 4450POPC   NC357119  16.725  27.229   5.433
 4450POPC   PO457120  16.986  27.883   5.366
 4450POPC   GL157121  16.722  27.707   5.748
 4450POPC   GL257122  16.508  27.420   5.852
 4450POPC   C1A57123  16.761  27.626   6.218
 4450POPC   D2A57124  16.521  27.648   6.586
 4450POPC   C3A57125  16.803  27.705   6.918
 4450POPC   C4A57126  16.951  27.705   7.360
 4450POPC   C1B57127  16.549  27.146   6.281
 4450POPC   C2B57128  16.653  27.164   6.737
 4450POPC   C3B57129  16.748  27.269   7.175
 4450POPC   C4B57130  16.847  27.289   7.629
 4451POPC   NC357131  37.065   6.265   5.410
 4451POPC   PO457132  36.867   6.932   5.458
 4451POPC   GL157133  37.074   6.664   5.748
 4451POPC   GL257134  36.842   6.419   5.883
 4451POPC   C1A57135  37.194   6.617   6.189
 4451POPC   D2A57136  37.255   6.636   6.631
 4451POPC   C3A57137  37.207   6.951   6.934
 4451POPC   C4A57138  37.284   6.902   7.372
 4451POPC   C1B57139  36.674   6.543   6.303
 4451POPC   C2B57140  36.762   6.651   6.747
 4451POPC   C3B57141  36.806   6.746   7.172
 4451POPC   C4B57142  36.848   7.146   7.366
 4452POPC   NC357143   5.660  40.080   5.388
 4452POPC   PO457144   6.275  39.857   5.480
 4452POPC   GL157145   5.988  40.154   5.783
 4452POPC   GL257146   5.605  40.225   5.869
 4452POPC   C1A57147   5.948  40.254   6.223
 4452POPC   D2A57148   5.995  40.042   6.601
 4452POPC   C3A57149   5.856  40.105   7.011
 4452POPC   C4A57150   6.090  40.113   7.404
 4452POPC   C1B57151   5.598  39.896   6.264
 4452POPC   C2B57152   5.655  39.688   6.717
 4452POPC   C3B57153   5.425  39.799   7.104
 4452POPC   C4B57154   5.623  39.961   7.494
 4453POPC   NC357155  39.009  35.656   5.675
 4453POPC   PO457156  39.460  36.075   5.375
 4453POPC   GL157157  39.091  36.169   5.669
 4453POPC   GL257158  39.365  36.122   5.893
 4453POPC   C1A57159  38.955  36.203   6.156
 4453POPC   D2A57160  39.028  35.963   6.548
 4453POPC   C3A57161  39.188  36.192   6.940
 4453POPC   C4A57162  38.887  36.468   7.192
 4453POPC   C1B57163  39.464  36.139   6.339
 4453POPC   C2B57164  39.495  35.868   6.688
 4453POPC   C3B57165  39.189  35.662   6.934
 4453POPC   C4B57166  39.343  35.843   7.261
 4454POPC   NC357167  14.722   8.799   5.570
 4454POPC   PO457168  14.008   8.763   5.520
 4454POPC   GL157169  14.291   8.916   5.849
 4454POPC   GL257170  14.469   9.219   5.772
 4454POPC   C1A57171  14.539   8.892   6.243
 4454POPC   D2A57172  14.361   8.689   6.591
 4454POPC   C3A57173  14.534   8.756   6.988
 4454POPC   C4A57174  14.346   8.724   7.404
 4454POPC   C1B57175  14.272   9.333   6.178
 4454POPC   C2B57176  14.244   9.253   6.643
 4454POPC   C3B57177  14.281   9.199   7.089
 4454POPC   C4B57178  14.665   9.154   7.311
 4455POPC   NC357179  18.088  10.787   5.512
 4455POPC   PO457180  18.252  10.063   5.342
 4455POPC   GL157181  18.193  10.324   5.739
 4455POPC   GL257182  18.474  10.540   5.761
 4455POPC   C1A57183  18.397  10.294   6.181
 4455POPC   D2A57184  18.603  10.497   6.523
 4455POPC   C3A57185  18.383  10.341   6.861
 4455POPC   C4A57186  18.268  10.055   7.186
 4455POPC   C1B57187  18.405  10.816   6.145
 4455POPC   C2B57188  18.166  10.809   6.537
 4455POPC   C3B57189  17.971  10.636   6.894
 4455POPC   C4B57190  18.134  10.542   7.274
 4456POPC   NC357191  27.029  27.308   5.251
 4456POPC   PO457192  26.746  27.867   5.462
 4456POPC   GL157193  26.687  27.789   5.852
 4456POPC   GL257194  26.610  27.431   5.813
 4456POPC   C1A57195  26.502  27.736   6.216
 4456POPC   D2A57196  26.694  27.705   6.596
 4456POPC   C3A57197  26.519  27.741   6.981
 4456POPC   C4A57198  26.610  27.424   7.267
 4456POPC   C1B57199  26.809  27.322   6.192
 4456POPC   C2B57200  27.084  27.324   6.539
 4456POPC   C3B57201  27.016  27.285   6.962
 4456POPC   C4B57202  27.089  27.337   7.415
 4457POPC   NC357203  10.550  33.305   5.455
 4457POPC   PO457204  10.068  32.921   5.391
 4457POPC   GL157205  10.356  32.920   5.739
 4457POPC   GL257206  10.553  32.660   5.611
 4457POPC   C1A57207  10.601  33.103   6.145
 4457POPC   D2A57208  10.803  33.066   6.587
 4457POPC   C3A57209  10.563  33.169   6.976
 4457POPC   C4A57210  10.327  33.461   7.254
 4457POPC   C1B57211  10.607  32.609   6.046
 4457POPC   C2B57212  10.610  32.612   6.476
 4457POPC   C3B57213  10.735  32.601   6.897
 4457POPC   C4B57214  10.635  32.781   7.289
 4458POPC   NC357215  43.459  12.935   5.212
 4458POPC   PO457216  44.123  12.976   5.244
 4458POPC   GL157217  44.069  12.971   5.738
 4458POPC   GL257218  44.000  12.668   5.897
 4458POPC   C1A57219  43.872  13.010   6.212
 4458POPC   D2A57220  43.867  12.771   6.577
 4458POPC   C3A57221  43.647  12.996   6.854
 4458POPC   C4A57222  43.595  12.961   7.257
 4458POPC   C1B57223  44.313  12.785   6.245
 4458POPC   C2B57224  44.388  12.787   6.696
 4458POPC   C3B57225  44.105  12.803   7.063
 4458POPC   C4B57226  44.052  13.033   7.455
 4459POPC   NC357227  35.661  33.625   5.434
 4459POPC   PO457228  35.335  34.200   5.329
 4459POPC   GL157229  35.360  33.979   5.731
 4459POPC   GL257230  35.702  33.936   5.828
 4459POPC   C1A57231  35.211  33.894   6.164
 4459POPC   D2A57232  35.113  34.167   6.527
 4459POPC   C3A57233  35.206  33.937   6.891
 4459POPC   C4A57234  35.223  33.727   7.246
 4459POPC   C1B57235  35.654  33.621   6.124
 4459POPC   C2B57236  35.570  33.744   6.542
 4459POPC   C3B57237  35.685  33.666   6.982
 4459POPC   C4B57238  35.701  33.765   7.427
 4460POPC   NC357239  21.725  43.882   5.529
 4460POPC   PO457240  21.125  44.034   5.459
 4460POPC   GL157241  21.260  43.799   5.842
 4460POPC   GL257242  21.602  43.726   5.990
 4460POPC   C1A57243  21.140  43.662   6.267
 4460POPC   D2A57244  21.264  43.706   6.690
 4460POPC   C3A57245  21.056  43.987   6.967
 4460POPC   C4A57246  21.141  43.683   7.247
 4460POPC   C1B57247  21.627  44.038   6.314
 4460POPC   C2B57248  21.681  44.076   6.767
 4460POPC   C3B57249  21.525  44.055   7.184
 4460POPC   C4B57250  21.714  44.123   7.600
 4461POPC   NC357251   6.070   9.997   5.448
 4461POPC   PO457252   5.977   9.287   5.390
 4461POPC   GL157253   5.921   9.541   5.781
 4461POPC   GL257254   6.155   9.313   5.948
 4461POPC   C1A57255   5.725   9.775   6.182
 4461POPC   D2A57256   5.510   9.850   6.559
 4461POPC   C3A57257   5.729  10.004   6.883
 4461POPC   C4A57258   5.584   9.962   7.281
 4461POPC   C1B57259   5.817   9.298   6.223
 4461POPC   C2B57260   5.685   9.360   6.663
 4461POPC   C3B57261   5.714   9.512   7.096
 4461POPC   C4B57262   5.534   9.527   7.521
 4462POPC   NC357263  41.871  21.345   5.695
 4462POPC   PO457264  42.517  21.230   5.448
 4462POPC   GL157265  42.496  21.264   5.842
 4462POPC   GL257266  42.417  21.627   5.820
 4462POPC   C1A57267  42.262  21.232   6.215
 4462POPC   D2A57268  42.077  21.492   6.534
 4462POPC   C3A57269  42.065  21.254   6.890
 4462POPC   C4A57270  42.183  21.324   7.297
 4462POPC   C1B57271  42.657  21.595   6.192
 4462POPC   C2B57272  42.590  21.358   6.584
 4462POPC   C3B57273  42.607  21.433   6.993
 4462POPC   C4B57274  42.586  21.651   7.335
 4463POPC   NC357275  20.401  40.958   5.326
 4463POPC   PO457276  20.931  40.565   5.337
 4463POPC   GL157277  20.738  40.821   5.710
 4463POPC   GL257278  20.952  40.894   6.013
 4463POPC   C1A57279  20.458  41.040   6.037
 4463POPC   D2A57280  20.583  41.044   6.483
 4463POPC   C3A57281  20.335  40.875   6.825
 4463POPC   C4A57282  20.556  40.745   7.185
 4463POPC   C1B57283  20.631  40.587   6.199
 4463POPC   C2B57284  20.506  40.410   6.615
 4463POPC   C3B57285  20.718  40.297   7.026
 4463POPC   C4B57286  20.857  40.435   7.479
 4464POPC   NC357287  38.154  31.978   5.463
 4464POPC   PO457288  37.791  31.371   5.383
 4464POPC   GL157289  37.697  31.528   5.777
 4464POPC   GL257290  38.000  31.698   5.872
 4464POPC   C1A57291  37.498  31.299   6.103
 4464POPC   D2A57292  37.637  31.172   6.530
 4464POPC   C3A57293  37.461  31.333   6.894
 4464POPC   C4A57294  37.573  31.325   7.294
 4464POPC   C1B57295  37.698  31.771   6.258
 4464POPC   C2B57296  37.631  31.781   6.734
 4464POPC   C3B57297  37.911  31.718   7.120
 4464POPC   C4B57298  37.830  31.645   7.593
 4465POPC   NC357299  31.010   9.970   5.601
 4465POPC   PO457300  30.522   9.515   5.443
 4465POPC   GL157301  30.664   9.668   5.833
 4465POPC   GL257302  30.647  10.021   5.936
 4465POPC   C1A57303  30.570   9.572   6.258
 4465POPC   D2A57304  30.647   9.774   6.624
 4465POPC   C3A57305  30.630   9.529   6.950
 4465POPC   C4A57306  30.310   9.350   7.178
 4465POPC   C1B57307  30.932   9.941   6.250
 4465POPC   C2B57308  31.115  10.012   6.613
 4465POPC   C3B57309  30.906   9.975   7.002
 4465POPC   C4B57310  30.994   9.967   7.407
 4466POPC   NC357311   7.358  34.388   5.434
 4466POPC   PO457312   8.007  34.340   5.458
 4466POPC   GL157313   7.719  34.579   5.815
 4466POPC   GL257314   7.332  34.571   5.888
 4466POPC   C1A57315   7.631  34.624   6.296
 4466POPC   D2A57316   7.678  34.390   6.702
 4466POPC   C3A57317   7.680  34.580   7.085
 4466POPC   C4A57318   7.303  34.812   7.037
 4466POPC   C1B57319   7.098  34.393   6.207
 4466POPC   C2B57320   7.167  34.457   6.628
 4466POPC   C3B57321   7.249  34.299   7.019
 4466POPC   C4B57322   7.103  34.447   7.367
 4467POPC   NC357323   3.910  39.721   5.151
 4467POPC   PO457324   4.463  39.993   5.540
 4467POPC   GL157325   4.508  39.963   5.937
 4467POPC   GL257326   4.474  39.600   5.999
 4467POPC   C1A57327   4.456  40.257   6.316
 4467POPC   D2A57328   4.288  40.350   6.743
 4467POPC   C3A57329   4.563  40.121   7.049
 4467POPC   C4A57330   4.676  40.208   7.464
 4467POPC   C1B57331   4.285  39.770   6.338
 4467POPC   C2B57332   4.295  39.835   6.725
 4467POPC   C3B57333   4.477  39.608   7.025
 4467POPC   C4B57334   4.435  39.724   7.447
 4468POPC   NC357335  42.054  10.254   5.382
 4468POPC   PO457336  41.538  10.665   5.393
 4468POPC   GL157337  41.602  10.661   5.859
 4468POPC   GL257338  41.903  10.449   5.978
 4468POPC   C1A57339  41.479  10.432   6.282
 4468POPC   D2A57340  41.623  10.482   6.729
 4468POPC   C3A57341  41.327  10.550   7.069
 4468POPC   C4A57342  41.184  10.139   7.200
 4468POPC   C1B57343  41.856  10.808   6.286
 4468POPC   C2B57344  41.755  10.977   6.705
 4468POPC   C3B57345  41.808  10.761   7.130
 4468POPC   C4B57346  41.952  10.945   7.525
 4469POPC   NC357347  19.822  21.543   5.261
 4469POPC   PO457348  19.372  21.242   5.514
 4469POPC   GL157349  19.571  21.523   5.871
 4469POPC   GL257350  19.849  21.740   5.757
 4469POPC   C1A57351  19.709  21.482   6.371
 4469POPC   D2A57352  19.563  21.343   6.823
 4469POPC   C3A57353  19.856  21.229   7.184
 4469POPC   C4A57354  20.272  21.227   7.416
 4469POPC   C1B57355  19.740  21.941   6.159
 4469POPC   C2B57356  19.826  21.988   6.590
 4469POPC   C3B57357  19.745  21.797   6.999
 4469POPC   C4B57358  19.481  21.913   7.352
 4470POPC   NC357359  33.456  23.879   5.550
 4470POPC   PO457360  33.566  23.338   5.195
 4470POPC   GL157361  33.895  23.606   5.617
 4470POPC   GL257362  33.691  23.668   5.953
 4470POPC   C1A57363  34.176  23.612   6.074
 4470POPC   D2A57364  34.014  23.747   6.494
 4470POPC   C3A57365  34.069  23.589   6.931
 4470POPC   C4A57366  33.813  23.757   7.296
 4470POPC   C1B57367  33.375  23.549   6.269
 4470POPC   C2B57368  33.204  23.837   6.564
 4470POPC   C3B57369  33.378  23.851   6.979
 4470POPC   C4B57370  33.359  23.466   7.211
 4471POPC   NC357371  26.869  42.249   5.121
 4471POPC   PO457372  26.532  42.741   5.389
 4471POPC   GL157373  26.713  42.418   5.653
 4471POPC   GL257374  26.461  42.199   5.803
 4471POPC   C1A57375  26.846  42.544   6.098
 4471POPC   D2A57376  26.713  42.627   6.524
 4471POPC   C3A57377  26.897  42.423   6.843
 4471POPC   C4A57378  26.960  42.586   7.225
 4471POPC   C1B57379  26.435  42.269   6.276
 4471POPC   C2B57380  26.392  42.261   6.739
 4471POPC   C3B57381  26.532  42.303   7.189
 4471POPC   C4B57382  26.885  42.115   7.446
 4472POPC   NC357383  35.409   6.549   5.181
 4472POPC   PO457384  35.121   6.972   5.690
 4472POPC   GL157385  35.343   6.787   5.910
 4472POPC   GL257386  35.350   6.486   5.710
 4472POPC   C1A57387  35.382   6.898   6.343
 4472POPC   D2A57388  35.097   6.959   6.676
 4472POPC   C3A57389  35.325   6.776   7.015
 4472POPC   C4A57390  35.284   6.811   7.435
 4472POPC   C1B57391  35.413   6.382   6.172
 4472POPC   C2B57392  35.638   6.476   6.563
 4472POPC   C3B57393  35.583   6.325   6.972
 4472POPC   C4B57394  35.637   6.151   7.359
 4473POPC   NC357395  44.254  10.379   5.469
 4473POPC   PO457396  44.822  10.660   5.527
 4473POPC   GL157397  44.565  10.519   5.854
 4473POPC   GL257398  44.733  10.181   5.927
 4473POPC   C1A57399  44.479  10.562   6.277
 4473POPC   D2A57400  44.771  10.418   6.574
 4473POPC   C3A57401  44.736  10.746   6.855
 4473POPC   C4A57402  44.792  10.744   7.272
 4473POPC   C1B57403  44.411  10.060   6.247
 4473POPC   C2B57404  44.295  10.207   6.687
 4473POPC   C3B57405  44.576  10.290   7.075
 4473POPC   C4B57406  44.825  10.278   7.482
 4474POPC   NC357407  13.933   5.727   5.378
 4474POPC   PO457408  13.319   5.892   5.340
 4474POPC   GL157409  13.555   5.737   5.726
 4474POPC   GL257410  13.789   6.018   5.789
 4474POPC   C1A57411  13.721   5.540   6.120
 4474POPC   D2A57412  13.483   5.493   6.505
 4474POPC   C3A57413  13.621   5.624   6.937
 4474POPC   C4A57414  13.653   5.541   7.386
 4474POPC   C1B57415  13.591   6.023   6.198
 4474POPC   C2B57416  13.803   5.994   6.584
 4474POPC   C3B57417  13.911   6.055   7.002
 4474POPC   C4B57418  13.753   6.053   7.387
 4475POPC   NC357419  36.906  33.447   5.354
 4475POPC   PO457420  36.633  32.833   5.418
 4475POPC   GL157421  36.752  33.125   5.755
 4475POPC   GL257422  37.119  33.142   5.768
 4475POPC   C1A57423  36.845  33.082   6.217
 4475POPC   D2A57424  36.740  32.862   6.600
 4475POPC   C3A57425  36.828  33.019   7.011
 4475POPC   C4A57426  36.899  32.848   7.434
 4475POPC   C1B57427  37.327  33.220   6.194
 4475POPC   C2B57428  37.223  33.106   6.652
 4475POPC   C3B57429  37.324  33.104   7.113
 4475POPC   C4B57430  37.146  33.290   7.523
 4476POPC   NC357431  39.229  29.434   5.433
 4476POPC   PO457432  39.066  28.832   5.371
 4476POPC   GL157433  39.153  29.033   5.762
 4476POPC   GL257434  38.902  29.345   5.809
 4476POPC   C1A57435  39.374  28.901   6.139
 4476POPC   D2A57436  39.209  28.709   6.520
 4476POPC   C3A57437  39.310  28.928   6.882
 4476POPC   C4A57438  39.287  29.055   7.258
 4476POPC   C1B57439  39.142  29.365   6.167
 4476POPC   C2B57440  39.057  29.250   6.569
 4476POPC   C3B57441  39.161  29.452   6.966
 4476POPC   C4B57442  39.373  29.543   7.333
 4477POPC   NC357443  33.768   5.619   5.454
 4477POPC   PO457444  33.506   6.249   5.468
 4477POPC   GL157445  33.733   6.012   5.813
 4477POPC   GL257446  33.641   5.654   5.939
 4477POPC   C1A57447  33.896   6.116   6.222
 4477POPC   D2A57448  33.746   5.880   6.564
 4477POPC   C3A57449  33.855   5.942   6.980
 4477POPC   C4A57450  34.136   6.119   7.228
 4477POPC   C1B57451  34.014   5.608   6.184
 4477POPC   C2B57452  34.172   5.609   6.619
 4477POPC   C3B57453  34.203   5.589   7.069
 4477POPC   C4B57454  34.043   5.675   7.488
 4478POPC   NC357455  33.417  38.395   5.636
 4478POPC   PO457456  33.945  38.628   5.196
 4478POPC   GL157457  33.925  38.503   5.656
 4478POPC   GL257458  34.110  38.194   5.778
 4478POPC   C1A57459  33.906  38.596   6.114
 4478POPC   D2A57460  33.999  38.743   6.543
 4478POPC   C3A57461  33.865  38.562   6.948
 4478POPC   C4A57462  33.538  38.676   7.259
 4478POPC   C1B57463  33.853  38.091   6.142
 4478POPC   C2B57464  33.759  38.207   6.547
 4478POPC   C3B57465  33.881  38.056   6.942
 4478POPC   C4B57466  33.781  38.233   7.333
 4479POPC   NC357467  31.517   9.211   5.272
 4479POPC   PO457468  32.048   8.886   5.460
 4479POPC   GL157469  32.243   8.644   5.767
 4479POPC   GL257470  32.502   8.863   5.791
 4479POPC   C1A57471  32.296   8.709   6.211
 4479POPC   D2A57472  32.058   8.857   6.534
 4479POPC   C3A57473  32.249   8.738   6.901
 4479POPC   C4A57474  31.990   8.894   7.213
 4479POPC   C1B57475  32.453   9.202   6.111
 4479POPC   C2B57476  32.275   9.323   6.494
 4479POPC   C3B57477  32.258   9.270   6.918
 4479POPC   C4B57478  32.500   9.083   7.211
 4480POPC   NC357479  28.336  39.297   5.583
 4480POPC   PO457480  28.313  38.613   5.431
 4480POPC   GL157481  28.338  38.866   5.869
 4480POPC   GL257482  28.607  38.990   5.906
 4480POPC   C1A57483  28.374  39.205   6.271
 4480POPC   D2A57484  28.409  39.445   6.676
 4480POPC   C3A57485  28.191  39.208   6.982
 4480POPC   C4A57486  28.224  39.160   7.455
 4480POPC   C1B57487  28.671  38.799   6.303
 4480POPC   C2B57488  28.507  38.932   6.696
 4480POPC   C3B57489  28.529  38.873   7.145
 4480POPC   C4B57490  28.644  38.852   7.586
 4481POPC   NC357491  43.687  23.209   5.592
 4481POPC   PO457492  43.109  22.807   5.399
 4481POPC   GL157493  43.021  22.696   5.790
 4481POPC   GL257494  43.379  22.806   5.867
 4481POPC   C1A57495  43.039  22.614   6.207
 4481POPC   D2A57496  43.092  22.784   6.573
 4481POPC   C3A57497  42.815  22.907   6.870
 4481POPC   C4A57498  42.898  22.861   7.305
 4481POPC   C1B57499  43.457  23.033   6.240
 4481POPC   C2B57500  43.401  23.150   6.672
 4481POPC   C3B57501  43.359  22.954   7.091
 4481POPC   C4B57502  43.341  22.977   7.573
 4482POPC   NC357503   6.385  14.817   5.416
 4482POPC   PO457504   6.511  15.582   5.339
 4482POPC   GL157505   6.662  15.312   5.704
 4482POPC   GL257506   6.550  15.008   5.846
 4482POPC   C1A57507   6.683  15.448   6.150
 4482POPC   D2A57508   6.583  15.366   6.582
 4482POPC   C3A57509   6.701  15.575   7.000
 4482POPC   C4A57510   6.567  15.464   7.446
 4482POPC   C1B57511   6.319  15.029   6.214
 4482POPC   C2B57512   6.188  15.047   6.635
 4482POPC   C3B57513   6.454  15.096   7.006
 4482POPC   C4B57514   6.236  14.907   7.322
 4483POPC   NC357515  25.079  19.734   5.470
 4483POPC   PO457516  25.548  20.176   5.254
 4483POPC   GL157517  25.583  19.809   5.574
 4483POPC   GL257518  25.435  20.006   5.762
 4483POPC   C1A57519  25.437  19.576   6.016
 4483POPC   D2A57520  25.402  19.481   6.483
 4483POPC   C3A57521  25.377  19.663   6.896
 4483POPC   C4A57522  25.408  19.731   7.327
 4483POPC   C1B57523  25.407  20.051   6.201
 4483POPC   C2B57524  25.562  20.032   6.627
 4483POPC   C3B57525  25.511  20.181   7.049
 4483POPC   C4B57526  25.202  20.198   7.380
 4484POPC   NC357527  39.513  12.054   5.514
 4484POPC   PO457528  38.908  12.005   5.387
 4484POPC   GL157529  39.084  12.024   5.816
 4484POPC   GL257530  39.221  12.369   5.840
 4484POPC   C1A57531  39.266  12.078   6.264
 4484POPC   D2A57532  39.105  12.276   6.657
 4484POPC   C3A57533  39.037  11.990   7.013
 4484POPC   C4A57534  39.362  11.794   7.265
 4484POPC   C1B57535  39.599  12.467   6.118
 4484POPC   C2B57536  39.724  12.424   6.560
 4484POPC   C3B57537  39.545  12.219   6.935
 4484POPC   C4B57538  39.306  12.319   7.303
 4485POPC   NC357539  27.390  23.655   5.413
 4485POPC   PO457540  26.737  23.595   5.398
 4485POPC   GL157541  26.997  23.650   5.776
 4485POPC   GL257542  27.211  23.954   5.778
 4485POPC   C1A57543  26.916  23.438   6.180
 4485POPC   D2A57544  27.033  23.399   6.615
 4485POPC   C3A57545  26.747  23.617   6.870
 4485POPC   C4A57546  26.609  23.670   7.284
 4485POPC   C1B57547  27.245  23.831   6.212
 4485POPC   C2B57548  27.063  23.922   6.589
 4485POPC   C3B57549  27.186  23.814   6.993
 4485POPC   C4B57550  27.114  23.847   7.395
 4486POPC   NC357551  12.370   5.409   5.574
 4486POPC   PO457552  12.021   4.832   5.477
 4486POPC   GL157553  12.019   5.039   5.873
 4486POPC   GL257554  12.348   5.010   5.939
 4486POPC   C1A57555  11.936   5.221   6.317
 4486POPC   D2A57556  11.672   5.281   6.684
 4486POPC   C3A57557  11.926   5.244   7.043
 4486POPC   C4A57558  12.121   5.089   7.453
 4486POPC   C1B57559  12.367   4.764   6.309
 4486POPC   C2B57560  12.384   4.844   6.759
 4486POPC   C3B57561  12.449   4.749   7.185
 4486POPC   C4B57562  12.503   4.780   7.604
 4487POPC   NC357563  11.902  42.619   5.484
 4487POPC   PO457564  12.313  42.151   5.317
 4487POPC   GL157565  12.070  42.099   5.725
 4487POPC   GL257566  11.758  41.887   5.747
 4487POPC   C1A57567  12.028  42.315   6.145
 4487POPC   D2A57568  11.984  42.640   6.493
 4487POPC   C3A57569  11.926  42.521   6.935
 4487POPC   C4A57570  12.248  42.548   7.256
 4487POPC   C1B57571  11.930  41.822   6.186
 4487POPC   C2B57572  11.835  42.086   6.583
 4487POPC   C3B57573  11.951  42.008   7.022
 4487POPC   C4B57574  11.898  41.829   7.443
 4488POPC   NC357575  12.391  34.439   5.440
 4488POPC   PO457576  11.747  34.659   5.374
 4488POPC   GL157577  11.929  34.806   5.750
 4488POPC   GL257578  12.299  34.860   5.725
 4488POPC   C1A57579  12.020  34.616   6.157
 4488POPC   D2A57580  12.110  34.430   6.564
 4488POPC   C3A57581  11.926  34.708   6.866
 4488POPC   C4A57582  12.026  34.552   7.241
 4488POPC   C1B57583  12.471  34.904   6.129
 4488POPC   C2B57584  12.312  34.893   6.531
 4488POPC   C3B57585  12.435  34.751   6.953
 4488POPC   C4B57586  12.395  34.899   7.363
 4489POPC   NC357587   5.661  21.258   5.466
 4489POPC   PO457588   6.287  21.074   5.540
 4489POPC   GL157589   6.069  21.423   5.764
 4489POPC   GL257590   5.789  21.260   5.954
 4489POPC   C1A57591   6.012  21.653   6.174
 4489POPC   D2A57592   6.145  21.494   6.588
 4489POPC   C3A57593   5.805  21.335   6.873
 4489POPC   C4A57594   5.490  21.495   7.160
 4489POPC   C1B57595   6.161  21.119   6.193
 4489POPC   C2B57596   6.145  20.954   6.602
 4489POPC   C3B57597   6.259  21.114   6.955
 4489POPC   C4B57598   6.101  21.243   7.294
 4490POPC   NC357599   7.252  18.486   5.430
 4490POPC   PO457600   7.910  18.532   5.558
 4490POPC   GL157601   7.584  18.214   5.780
 4490POPC   GL257602   7.254  18.056   5.754
 4490POPC   C1A57603   7.577  18.117   6.218
 4490POPC   D2A57604   7.526  18.483   6.502
 4490POPC   C3A57605   7.622  18.483   6.944
 4490POPC   C4A57606   7.735  18.226   7.329
 4490POPC   C1B57607   7.193  18.410   6.074
 4490POPC   C2B57608   7.019  18.392   6.491
 4490POPC   C3B57609   7.159  18.249   6.884
 4490POPC   C4B57610   7.198  18.477   7.246
 4491POPC   NC357611  24.867  38.319   5.377
 4491POPC   PO457612  25.487  38.611   5.321
 4491POPC   GL157613  25.548  38.384   5.761
 4491POPC   GL257614  25.220  38.254   5.866
 4491POPC   C1A57615  25.570  38.483   6.246
 4491POPC   D2A57616  25.258  38.499   6.611
 4491POPC   C3A57617  25.179  38.693   7.040
 4491POPC   C4A57618  25.335  38.623   7.467
 4491POPC   C1B57619  25.366  38.021   6.245
 4491POPC   C2B57620  25.163  38.000   6.621
 4491POPC   C3B57621  25.220  38.181   7.030
 4491POPC   C4B57622  25.482  38.144   7.406
 4492POPC   NC357623  29.356  14.719   5.305
 4492POPC   PO457624  28.861  15.223   5.314
 4492POPC   GL157625  28.815  15.439   5.731
 4492POPC   GL257626  29.098  15.244   5.846
 4492POPC   C1A57627  28.703  15.456   6.207
 4492POPC   D2A57628  28.950  15.326   6.587
 4492POPC   C3A57629  28.900  15.377   7.022
 4492POPC   C4A57630  29.274  15.486   7.229
 4492POPC   C1B57631  29.290  15.129   6.254
 4492POPC   C2B57632  29.589  14.978   6.558
 4492POPC   C3B57633  29.311  15.013   6.884
 4492POPC   C4B57634  29.160  14.974   7.271
 4493POPC   NC357635  43.600  10.425   5.289
 4493POPC   PO457636  44.128  10.874   5.480
 4493POPC   GL157637  43.985  10.573   5.855
 4493POPC   GL257638  43.611  10.482   5.872
 4493POPC   C1A57639  43.970  10.401   6.294
 4493POPC   D2A57640  44.057  10.693   6.641
 4493POPC   C3A57641  44.156  10.638   7.080
 4493POPC   C4A57642  43.867  10.548   7.450
 4493POPC   C1B57643  43.468  10.187   6.218
 4493POPC   C2B57644  43.643  10.110   6.640
 4493POPC   C3B57645  43.739  10.355   6.975
 4493POPC   C4B57646  43.581  10.120   7.285
 4494POPC   NC357647  14.298  13.937   5.398
 4494POPC   PO457648  14.686  14.408   5.284
 4494POPC   GL157649  14.519  14.283   5.723
 4494POPC   GL257650  14.159  14.195   5.813
 4494POPC   C1A57651  14.498  14.297   6.201
 4494POPC   D2A57652  14.300  14.390   6.617
 4494POPC   C3A57653  14.556  14.288   6.995
 4494POPC   C4A57654  14.545  14.253   7.477
 4494POPC   C1B57655  14.074  14.009   6.225
 4494POPC   C2B57656  14.130  13.904   6.678
 4494POPC   C3B57657  14.062  14.151   7.040
 4494POPC   C4B57658  14.032  14.136   7.492
 4495POPC   NC357659  40.214  40.096   5.476
 4495POPC   PO457660  39.587  40.200   5.568
 4495POPC   GL157661  39.912  39.973   5.881
 4495POPC   GL257662  40.258  39.783   5.883
 4495POPC   C1A57663  39.921  39.930   6.312
 4495POPC   D2A57664  39.771  40.175   6.676
 4495POPC   C3A57665  39.903  40.058   7.079
 4495POPC   C4A57666  39.758  39.684   7.194
 4495POPC   C1B57667  40.426  39.788   6.296
 4495POPC   C2B57668  40.260  39.894   6.696
 4495POPC   C3B57669  40.299  39.685   7.077
 4495POPC   C4B57670  40.329  39.897   7.429
 4496POPC   NC357671  15.394   6.261   5.483
 4496POPC   PO457672  14.883   6.748   5.265
 4496POPC   GL157673  14.787   6.658   5.745
 4496POPC   GL257674  14.952   6.343   5.891
 4496POPC   C1A57675  14.910   6.791   6.173
 4496POPC   D2A57676  15.119   6.788   6.545
 4496POPC   C3A57677  14.895   6.747   6.905
 4496POPC   C4A57678  14.990   6.716   7.317
 4496POPC   C1B57679  15.105   6.315   6.329
 4496POPC   C2B57680  15.265   6.351   6.767
 4496POPC   C3B57681  15.329   6.314   7.229
 4496POPC   C4B57682  15.496   6.270   7.672
 4497POPC   NC357683  38.405  15.039   5.336
 4497POPC   PO457684  38.967  15.416   5.376
 4497POPC   GL157685  38.567  15.422   5.724
 4497POPC   GL257686  38.263  15.152   5.821
 4497POPC   C1A57687  38.542  15.277   6.197
 4497POPC   D2A57688  38.770  15.201   6.537
 4497POPC   C3A57689  38.628  15.064   6.917
 4497POPC   C4A57690  38.551  15.387   7.203
 4497POPC   C1B57691  38.156  15.571   6.052
 4497POPC   C2B57692  37.980  15.622   6.450
 4497POPC   C3B57693  37.982  15.596   6.883
 4497POPC   C4B57694  38.130  15.666   7.275
 4498POPC   NC357695  12.393  31.652   5.437
 4498POPC   PO457696  11.870  31.271   5.235
 4498POPC   GL157697  12.027  31.378   5.679
 4498POPC   GL257698  12.071  31.711   5.843
 4498POPC   C1A57699  12.027  31.307   6.148
 4498POPC   D2A57700  11.808  31.474   6.514
 4498POPC   C3A57701  11.832  31.276   6.919
 4498POPC   C4A57702  12.105  31.271   7.296
 4498POPC   C1B57703  12.157  31.786   6.289
 4498POPC   C2B57704  12.005  31.920   6.691
 4498POPC   C3B57705  12.178  31.768   7.082
 4498POPC   C4B57706  12.316  31.695   7.507
 4499POPC   NC357707  37.392  44.472   5.549
 4499POPC   PO457708  36.793  44.718   5.377
 4499POPC   GL157709  36.837  44.775   5.787
 4499POPC   GL257710  36.515  44.614   5.802
 4499POPC   C1A57711  36.895  44.684   6.206
 4499POPC   D2A57712  37.095  44.590   6.586
 4499POPC   C3A57713  36.878  44.773   6.918
 4499POPC   C4A57714  36.941  44.713   7.316
 4499POPC   C1B57715  36.539  44.309   6.109
 4499POPC   C2B57716  36.587  44.401   6.523
 4499POPC   C3B57717  36.701  44.288   6.917
 4499POPC   C4B57718  36.634  44.186   7.321
 4500POPC   NC357719   7.021  22.017   5.683
 4500POPC   PO457720   6.763  22.482   5.241
 4500POPC   GL157721   6.676  22.436   5.716
 4500POPC   GL257722   6.986  22.515   5.853
 4500POPC   C1A57723   6.576  22.163   6.136
 4500POPC   D2A57724   6.674  22.250   6.580
 4500POPC   C3A57725   6.793  22.020   6.949
 4500POPC   C4A57726   6.418  21.969   7.201
 4500POPC   C1B57727   6.720  22.640   6.222
 4500POPC   C2B57728   6.811  22.743   6.641
 4500POPC   C3B57729   6.792  22.534   7.035
 4500POPC   C4B57730   6.813  22.279   7.396
 4501POPC   NC357731  43.674  12.448   5.553
 4501POPC   PO457732  43.878  11.762   5.353
 4501POPC   GL157733  43.925  11.824   5.818
 4501POPC   GL257734  43.884  12.168   5.942
 4501POPC   C1A57735  43.681  11.840   6.230
 4501POPC   D2A57736  43.832  11.974   6.620
 4501POPC   C3A57737  43.647  12.059   7.000
 4501POPC   C4A57738  43.877  11.927   7.348
 4501POPC   C1B57739  44.021  12.360   6.320
 4501POPC   C2B57740  44.202  12.307   6.738
 4501POPC   C3B57741  44.241  12.258   7.185
 4501POPC   C4B57742  44.069  12.483   7.556
 4502POPC   NC357743  30.373   6.388   5.403
 4502POPC   PO457744  30.996   6.520   5.546
 4502POPC   GL157745  31.067   6.540   5.949
 4502POPC   GL257746  31.179   6.223   5.979
 4502POPC   C1A57747  30.822   6.614   6.316
 4502POPC   D2A57748  30.892   6.902   6.646
 4502POPC   C3A57749  30.563   6.877   6.929
 4502POPC   C4A57750  30.546   6.721   7.324
 4502POPC   C1B57751  31.073   6.074   6.390
 4502POPC   C2B57752  30.938   6.285   6.741
 4502POPC   C3B57753  30.980   6.563   7.078
 4502POPC   C4B57754  30.859   6.356   7.443
 4503POPC   NC357755  35.502   3.045   5.281
 4503POPC   PO457756  35.248   2.519   5.519
 4503POPC   GL157757  35.358   2.618   5.898
 4503POPC   GL257758  35.570   2.862   5.814
 4503POPC   C1A57759  35.161   2.821   6.242
 4503POPC   D2A57760  35.299   3.016   6.597
 4503POPC   C3A57761  35.351   2.662   6.833
 4503POPC   C4A57762  35.337   2.718   7.255
 4503POPC   C1B57763  35.657   3.030   6.220
 4503POPC   C2B57764  35.819   2.991   6.645
 4503POPC   C3B57765  35.794   2.827   7.058
 4503POPC   C4B57766  35.670   3.052   7.412
 4504POPC   NC357767  35.182  11.574   5.479
 4504POPC   PO457768  35.675  11.178   5.321
 4504POPC   GL157769  35.545  11.349   5.783
 4504POPC   GL257770  35.179  11.365   5.922
 4504POPC   C1A57771  35.542  11.372   6.263
 4504POPC   D2A57772  35.746  11.364   6.682
 4504POPC   C3A57773  35.530  11.513   7.052
 4504POPC   C4A57774  35.381  11.244   7.358
 4504POPC   C1B57775  35.015  11.359   6.306
 4504POPC   C2B57776  35.202  11.326   6.675
 4504POPC   C3B57777  34.986  11.276   7.027
 4504POPC   C4B57778  35.016  11.581   7.313
 4505POPC   NC357779  10.067  23.807   5.201
 4505POPC   PO457780   9.523  23.755   5.654
 4505POPC   GL157781   9.669  23.668   6.075
 4505POPC   GL257782   9.930  23.431   6.041
 4505POPC   C1A57783  10.017  23.838   6.343
 4505POPC   D2A57784  10.262  23.711   6.706
 4505POPC   C3A57785  10.014  23.718   7.081
 4505POPC   C4A57786   9.672  23.977   7.205
 4505POPC   C1B57787   9.900  23.365   6.456
 4505POPC   C2B57788   9.639  23.601   6.672
 4505POPC   C3B57789   9.499  23.517   7.043
 4505POPC   C4B57790   9.680  23.441   7.377
 4506POPC   NC357791  31.609  16.937   5.558
 4506POPC   PO457792  31.516  17.606   5.271
 4506POPC   GL157793  31.534  17.448   5.727
 4506POPC   GL257794  31.343  17.195   5.899
 4506POPC   C1A57795  31.711  17.629   6.115
 4506POPC   D2A57796  31.540  17.732   6.499
 4506POPC   C3A57797  31.727  17.595   6.903
 4506POPC   C4A57798  31.533  17.492   7.300
 4506POPC   C1B57799  31.721  17.132   6.142
 4506POPC   C2B57800  31.723  17.240   6.535
 4506POPC   C3B57801  31.477  17.134   6.875
 4506POPC   C4B57802  31.778  17.048   7.174
 4507POPC   NC357803  26.967  29.649   5.445
 4507POPC   PO457804  26.731  30.175   5.380
 4507POPC   GL157805  26.729  29.933   5.786
 4507POPC   GL257806  27.065  29.803   5.916
 4507POPC   C1A57807  26.474  29.866   6.129
 4507POPC   D2A57808  26.415  29.641   6.490
 4507POPC   C3A57809  26.398  29.857   6.853
 4507POPC   C4A57810  26.722  29.747   7.130
 4507POPC   C1B57811  26.891  29.640   6.271
 4507POPC   C2B57812  26.938  29.571   6.688
 4507POPC   C3B57813  27.135  29.455   7.067
 4507POPC   C4B57814  27.149  29.679   7.447
 4508POPC   NC357815  37.884   4.711   5.339
 4508POPC   PO457816  37.601   4.098   5.188
 4508POPC   GL157817  37.703   4.295   5.657
 4508POPC   GL257818  37.920   4.567   5.815
 4508POPC   C1A57819  37.951   4.132   6.069
 4508POPC   D2A57820  38.122   4.068   6.504
 4508POPC   C3A57821  37.938   4.195   6.900
 4508POPC   C4A57822  38.075   4.279   7.342
 4508POPC   C1B57823  37.668   4.557   6.172
 4508POPC   C2B57824  37.578   4.287   6.511
 4508POPC   C3B57825  37.418   4.151   6.898
 4508POPC   C4B57826  37.575   4.324   7.250
 4509POPC   NC357827  20.769   8.172   5.406
 4509POPC   PO457828  20.255   8.595   5.433
 4509POPC   GL157829  20.454   8.377   5.858
 4509POPC   GL257830  20.635   8.048   5.880
 4509POPC   C1A57831  20.758   8.404   6.253
 4509POPC   D2A57832  20.902   8.510   6.705
 4509POPC   C3A57833  20.779   8.263   7.059
 4509POPC   C4A57834  20.798   7.875   7.274
 4509POPC   C1B57835  20.478   7.976   6.310
 4509POPC   C2B57836  20.424   8.197   6.709
 4509POPC   C3B57837  20.304   8.073   7.156
 4509POPC   C4B57838  20.341   8.119   7.617
 4510POPC   NC357839   1.618  27.573   5.186
 4510POPC   PO457840   1.228  27.972   5.448
 4510POPC   GL157841   1.366  27.806   5.826
 4510POPC   GL257842   1.051  27.641   5.805
 4510POPC   C1A57843   1.386  27.626   6.276
 4510POPC   D2A57844   1.236  27.309   6.587
 4510POPC   C3A57845   1.479  27.377   6.951
 4510POPC   C4A57846   1.464  27.773   7.132
 4510POPC   C1B57847   0.913  27.486   6.186
 4510POPC   C2B57848   0.741  27.448   6.586
 4510POPC   C3B57849   0.917  27.478   6.984
 4510POPC   C4B57850   1.125  27.296   7.299
 4511POPC   NC357851  13.150   0.523   5.514
 4511POPC   PO457852  12.497   0.485   5.299
 4511POPC   GL157853  12.603   0.646   5.703
 4511POPC   GL257854  12.778   0.342   5.856
 4511POPC   C1A57855  12.732   0.753   6.136
 4511POPC   D2A57856  12.816   0.492   6.523
 4511POPC   C3A57857  12.788   0.555   6.970
 4511POPC   C4A57858  12.697   0.249   7.330
 4511POPC   C1B57859  13.106   0.119   6.127
 4511POPC   C2B57860  13.266   0.167   6.558
 4511POPC   C3B57861  13.111   0.158   6.970
 4511POPC   C4B57862  13.218   0.127   7.414
 4512POPC   NC357863  12.410  23.009   5.447
 4512POPC   PO457864  11.779  22.767   5.568
 4512POPC   GL157865  11.868  23.097   5.865
 4512POPC   GL257866  12.220  23.237   5.916
 4512POPC   C1A57867  11.820  23.072   6.306
 4512POPC   D2A57868  11.797  22.887   6.730
 4512POPC   C3A57869  12.111  23.084   6.995
 4512POPC   C4A57870  12.130  23.362   7.345
 4512POPC   C1B57871  12.288  22.820   6.140
 4512POPC   C2B57872  12.362  22.588   6.541
 4512POPC   C3B57873  12.119  22.508   6.921
 4512POPC   C4B57874  12.180  22.670   7.314
 4513POPC   NC357875   1.538  18.074   5.569
 4513POPC   PO457876   0.886  18.148   5.508
 4513POPC   GL157877   1.156  18.317   5.842
 4513POPC   GL257878   1.256  18.678   5.862
 4513POPC   C1A57879   1.382  18.152   6.226
 4513POPC   D2A57880   1.502  17.879   6.568
 4513POPC   C3A57881   1.574  18.075   6.959
 4513POPC   C4A57882   1.378  18.193   7.327
 4513POPC   C1B57883   1.118  18.582   6.285
 4513POPC   C2B57884   1.371  18.486   6.646
 4513POPC   C3B57885   1.161  18.536   7.011
 4513POPC   C4B57886   0.972  18.525   7.401
 4514POPC   NC357887  30.394   1.440   5.374
 4514POPC   PO457888  30.474   0.814   5.622
 4514POPC   GL157889  30.741   1.031   5.888
 4514POPC   GL257890  30.750   1.396   5.802
 4514POPC   C1A57891  30.678   1.117   6.305
 4514POPC   D2A57892  30.699   0.900   6.688
 4514POPC   C3A57893  30.665   1.193   7.049
 4514POPC   C4A57894  31.001   1.440   7.267
 4514POPC   C1B57895  30.636   1.629   6.186
 4514POPC   C2B57896  30.651   1.512   6.629
 4514POPC   C3B57897  30.653   1.718   6.999
 4514POPC   C4B57898  30.475   1.653   7.363
 4515POPC   NC357899  33.725  10.409   5.456
 4515POPC   PO457900  34.194  10.809   5.566
 4515POPC   GL157901  33.959  10.552   5.899
 4515POPC   GL257902  33.606  10.443   5.952
 4515POPC   C1A57903  33.954  10.434   6.341
 4515POPC   D2A57904  34.053  10.775   6.612
 4515POPC   C3A57905  34.088  10.587   7.008
 4515POPC   C4A57906  33.922  10.187   7.224
 4515POPC   C1B57907  33.667  10.831   6.219
 4515POPC   C2B57908  33.541  10.698   6.610
 4515POPC   C3B57909  33.587  10.533   6.990
 4515POPC   C4B57910  33.686  10.695   7.387
 4516POPC   NC357911  16.518  34.903   5.459
 4516POPC   PO457912  17.042  34.327   5.408
 4516POPC   GL157913  16.885  34.590   5.705
 4516POPC   GL257914  16.576  34.396   5.704
 4516POPC   C1A57915  16.956  34.850   6.094
 4516POPC   D2A57916  16.734  34.805   6.508
 4516POPC   C3A57917  16.644  34.499   6.848
 4516POPC   C4A57918  16.772  34.595   7.274
 4516POPC   C1B57919  16.537  34.555   6.107
 4516POPC   C2B57920  16.279  34.477   6.454
 4516POPC   C3B57921  16.106  34.395   6.842
 4516POPC   C4B57922  16.309  34.350   7.229
 4517POPC   NC357923   9.383  35.656   5.467
 4517POPC   PO457924   9.913  35.295   5.283
 4517POPC   GL157925   9.934  35.384   5.739
 4517POPC   GL257926  10.192  35.627   5.773
 4517POPC   C1A57927   9.699  35.464   6.163
 4517POPC   D2A57928   9.548  35.305   6.568
 4517POPC   C3A57929   9.517  35.188   7.015
 4517POPC   C4A57930   9.363  35.510   7.322
 4517POPC   C1B57931  10.082  35.822   6.177
 4517POPC   C2B57932   9.924  35.670   6.583
 4517POPC   C3B57933   9.865  35.549   7.022
 4517POPC   C4B57934  10.082  35.625   7.424
 4518POPC   NC357935  11.042  34.798   5.426
 4518POPC   PO457936  11.189  34.164   5.511
 4518POPC   GL157937  11.115  34.454   5.845
 4518POPC   GL257938  11.387  34.692   5.778
 4518POPC   C1A57939  11.259  34.485   6.280
 4518POPC   D2A57940  11.592  34.412   6.588
 4518POPC   C3A57941  11.427  34.468   7.009
 4518POPC   C4A57942  11.166  34.420   7.378
 4518POPC   C1B57943  11.558  34.919   6.093
 4518POPC   C2B57944  11.547  34.917   6.528
 4518POPC   C3B57945  11.578  35.091   6.936
 4518POPC   C4B57946  11.541  34.854   7.324
 4519POPC   NC357947   1.792  34.917   5.580
 4519POPC   PO457948   2.179  34.527   5.226
 4519POPC   GL157949   2.061  34.395   5.671
 4519POPC   GL257950   2.349  34.173   5.720
 4519POPC   C1A57951   1.807  34.495   6.088
 4519POPC   D2A57952   1.584  34.703   6.457
 4519POPC   C3A57953   1.566  34.523   6.869
 4519POPC   C4A57954   1.820  34.578   7.235
 4519POPC   C1B57955   2.314  34.443   6.117
 4519POPC   C2B57956   2.113  34.600   6.522
 4519POPC   C3B57957   2.254  34.595   6.966
 4519POPC   C4B57958   2.302  34.659   7.445
 4520POPC   NC357959   6.194  13.116   5.557
 4520POPC   PO457960   5.812  12.752   5.175
 4520POPC   GL157961   5.847  12.659   5.684
 4520POPC   GL257962   5.993  12.909   5.961
 4520POPC   C1A57963   5.600  12.661   6.114
 4520POPC   D2A57964   5.804  12.859   6.485
 4520POPC   C3A57965   5.788  12.748   6.911
 4520POPC   C4A57966   5.542  12.728   7.283
 4520POPC   C1B57967   6.160  13.172   6.316
 4520POPC   C2B57968   5.894  13.394   6.597
 4520POPC   C3B57969   5.765  13.272   6.990
 4520POPC   C4B57970   5.978  13.072   7.290
 4521POPC   NC357971  22.574   0.237   5.303
 4521POPC   PO457972  23.068   0.585   5.478
 4521POPC   GL157973  22.884   0.271   5.738
 4521POPC   GL257974  23.180   0.050   5.696
 4521POPC   C1A57975  22.823   0.165   6.187
 4521POPC   D2A57976  22.637   0.128   6.613
 4521POPC   C3A57977  22.865   0.363   6.916
 4521POPC   C4A57978  22.938   0.608   7.272
 4521POPC   C1B57979  23.324   0.274   6.094
 4521POPC   C2B57980  23.276   0.478   6.527
 4521POPC   C3B57981  23.385   0.346   6.960
 4521POPC   C4B57982  23.181   0.143   7.311
 4522POPC   NC357983  35.282  24.657   5.405
 4522POPC   PO457984  35.599  24.084   5.487
 4522POPC   GL157985  35.363  24.372   5.842
 4522POPC   GL257986  35.050  24.621   5.847
 4522POPC   C1A57987  35.275  24.540   6.276
 4522POPC   D2A57988  35.298  24.750   6.653
 4522POPC   C3A57989  35.579  24.719   6.995
 4522POPC   C4A57990  35.410  24.374   7.170
 4522POPC   C1B57991  34.780  24.687   6.245
 4522POPC   C2B57992  34.794  24.805   6.712
 4522POPC   C3B57993  34.940  24.566   7.078
 4522POPC   C4B57994  34.901  24.615   7.537
 4523POPC   NC357995  28.463  28.789   5.294
 4523POPC   PO457996  28.145  29.180   5.587
 4523POPC   GL157997  28.225  28.789   5.827
 4523POPC   GL257998  28.443  29.023   6.006
 4523POPC   C1A57999  28.306  28.632   6.288
 4523POPC   D2A58000  28.441  29.005   6.525
 4523POPC   C3A58001  28.238  29.193   6.852
 4523POPC   C4A58002  28.497  29.060   7.167
 4523POPC   C1B58003  28.246  29.401   6.237
 4523POPC   C2B58004  28.396  29.625   6.612
 4523POPC   C3B58005  28.616  29.536   7.016
 4523POPC   C4B58006  28.525  29.483   7.469
 4524POPC   NC358007  31.118  20.529   5.377
 4524POPC   PO458008  31.430  21.127   5.486
 4524POPC   GL158009  31.244  20.858   5.802
 4524POPC   GL258010  31.374  20.492   5.825
 4524POPC   C1A58011  31.145  20.717   6.220
 4524POPC   D2A58012  31.290  20.751   6.617
 4524POPC   C3A58013  31.172  20.571   6.986
 4524POPC   C4A58014  31.339  20.363   7.304
 4524POPC   C1B58015  31.663  20.629   6.175
 4524POPC   C2B58016  31.750  20.920   6.533
 4524POPC   C3B58017  31.672  20.681   6.947
 4524POPC   C4B58018  31.814  20.303   7.129
 4525POPC   NC358019  19.953  35.872   5.349
 4525POPC   PO458020  19.768  36.450   5.107
 4525POPC   GL158021  19.752  36.366   5.626
 4525POPC   GL258022  19.804  36.046   5.788
 4525POPC   C1A58023  19.521  36.315   6.089
 4525POPC   D2A58024  19.393  36.078   6.482
 4525POPC   C3A58025  19.481  36.303   6.876
 4525POPC   C4A58026  19.691  36.226   7.258
 4525POPC   C1B58027  19.796  35.893   6.225
 4525POPC   C2B58028  19.864  36.061   6.649
 4525POPC   C3B58029  19.918  35.837   7.016
 4525POPC   C4B58030  20.178  35.994   7.355
 4526POPC   NC358031  25.050  44.534   5.259
 4526POPC   PO458032  25.749  44.485   5.291
 4526POPC   GL158033  25.400  44.460   5.630
 4526POPC   GL258034  25.328  44.813   5.660
 4526POPC   C1A58035  25.312  44.360   6.099
 4526POPC   D2A58036  25.483  44.559   6.508
 4526POPC   C3A58037  25.380  44.414   6.945
 4526POPC   C4A58038  25.391  44.562   7.365
 4526POPC   C1B58039  25.210  44.865   6.110
 4526POPC   C2B58040  25.047  44.812   6.533
 4526POPC   C3B58041  25.235  44.900   6.934
 4526POPC   C4B58042  25.119   0.060   7.310
 4527POPC   NC358043  10.883  32.250   5.596
 4527POPC   PO458044  11.397  32.546   5.361
 4527POPC   GL158045  11.360  32.370   5.786
 4527POPC   GL258046  11.293  32.055   5.859
 4527POPC   C1A58047  11.496  32.482   6.202
 4527POPC   D2A58048  11.575  32.303   6.608
 4527POPC   C3A58049  11.510  32.518   6.993
 4527POPC   C4A58050  11.508  32.307   7.389
 4527POPC   C1B58051  11.091  32.154   6.254
 4527POPC   C2B58052  11.054  32.131   6.700
 4527POPC   C3B58053  11.076  32.262   7.100
 4527POPC   C4B58054  11.095  32.596   7.357
 4528POPC   NC358055  42.660  14.414   5.425
 4528POPC   PO458056  41.933  14.469   5.397
 4528POPC   GL158057  42.236  14.581   5.757
 4528POPC   GL258058  42.436  14.278   5.860
 4528POPC   C1A58059  42.308  14.624   6.224
 4528POPC   D2A58060  42.270  14.779   6.645
 4528POPC   C3A58061  42.095  14.521   6.972
 4528POPC   C4A58062  42.197  14.118   7.189
 4528POPC   C1B58063  42.391  14.131   6.273
 4528POPC   C2B58064  42.453  14.281   6.663
 4528POPC   C3B58065  42.615  13.989   6.936
 4528POPC   C4B58066  42.605  13.816   7.296
 4529POPC   NC358067  11.624   6.070   5.504
 4529POPC   PO458068  12.258   5.856   5.578
 4529POPC   GL158069  12.106   5.850   5.950
 4529POPC   GL258070  11.978   5.546   5.939
 4529POPC   C1A58071  12.131   5.842   6.379
 4529POPC   D2A58072  12.301   6.062   6.673
 4529POPC   C3A58073  12.310   5.794   7.012
 4529POPC   C4A58074  11.981   5.687   7.293
 4529POPC   C1B58075  12.389   5.446   6.212
 4529POPC   C2B58076  12.418   5.352   6.658
 4529POPC   C3B58077  12.427   5.288   7.102
 4529POPC   C4B58078  12.450   5.560   7.463
 4530POPC   NC358079   7.764  15.030   5.269
 4530POPC   PO458080   8.415  15.290   5.249
 4530POPC   GL158081   8.298  15.210   5.711
 4530POPC   GL258082   7.940  15.247   5.787
 4530POPC   C1A58083   8.280  15.392   6.158
 4530POPC   D2A58084   8.503  15.348   6.575
 4530POPC   C3A58085   8.384  15.330   7.001
 4530POPC   C4A58086   8.002  15.313   7.203
 4530POPC   C1B58087   7.825  15.173   6.244
 4530POPC   C2B58088   7.962  15.132   6.700
 4530POPC   C3B58089   7.887  14.846   7.080
 4530POPC   C4B58090   7.973  14.921   7.543
 4531POPC   NC358091  21.118  41.203   5.613
 4531POPC   PO458092  20.482  41.402   5.456
 4531POPC   GL158093  20.548  41.610   5.841
 4531POPC   GL258094  20.902  41.587   5.905
 4531POPC   C1A58095  20.503  41.546   6.288
 4531POPC   D2A58096  20.357  41.476   6.703
 4531POPC   C3A58097  20.657  41.255   6.975
 4531POPC   C4A58098  20.476  41.213   7.365
 4531POPC   C1B58099  20.932  41.812   6.309
 4531POPC   C2B58100  20.802  41.782   6.753
 4531POPC   C3B58101  20.971  41.884   7.194
 4531POPC   C4B58102  20.925  41.929   7.667
 4532POPC   NC358103  41.025  23.111   5.567
 4532POPC   PO458104  40.535  22.700   5.500
 4532POPC   GL158105  40.847  22.713   5.826
 4532POPC   GL258106  40.657  23.028   5.903
 4532POPC   C1A58107  41.045  22.877   6.226
 4532POPC   D2A58108  41.219  23.146   6.576
 4532POPC   C3A58109  40.998  23.048   6.965
 4532POPC   C4A58110  40.943  22.636   7.153
 4532POPC   C1B58111  40.672  23.227   6.264
 4532POPC   C2B58112  40.496  23.058   6.622
 4532POPC   C3B58113  40.503  22.882   7.040
 4532POPC   C4B58114  40.722  23.039   7.407
 4533POPC   NC358115   3.801  41.518   5.515
 4533POPC   PO458116   3.088  41.686   5.398
 4533POPC   GL158117   3.293  41.626   5.827
 4533POPC   GL258118   3.606  41.443   5.981
 4533POPC   C1A58119   3.293  41.700   6.287
 4533POPC   D2A58120   3.068  41.603   6.673
 4533POPC   C3A58121   3.214  41.508   7.110
 4533POPC   C4A58122   3.301  41.311   7.531
 4533POPC   C1B58123   3.850  41.137   6.275
 4533POPC   C2B58124   3.943  41.271   6.725
 4533POPC   C3B58125   3.728  41.491   7.091
 4533POPC   C4B58126   3.582  41.950   7.080
 4534POPC   NC358127  20.353  15.934   5.143
 4534POPC   PO458128  20.659  16.428   5.507
 4534POPC   GL158129  20.686  16.142   5.842
 4534POPC   GL258130  20.380  15.972   5.981
 4534POPC   C1A58131  20.816  16.043   6.258
 4534POPC   D2A58132  20.801  15.834   6.662
 4534POPC   C3A58133  20.693  16.059   7.014
 4534POPC   C4A58134  20.765  16.005   7.427
 4534POPC   C1B58135  20.218  15.918   6.404
 4534POPC   C2B58136  20.216  15.966   6.859
 4534POPC   C3B58137  20.303  15.847   7.297
 4534POPC   C4B58138  20.483  15.630   7.669
 4535POPC   NC358139  27.335  34.864   5.336
 4535POPC   PO458140  27.942  34.563   5.487
 4535POPC   GL158141  27.678  34.717   5.814
 4535POPC   GL258142  27.340  34.618   5.786
 4535POPC   C1A58143  27.707  34.619   6.259
 4535POPC   D2A58144  27.521  34.384   6.608
 4535POPC   C3A58145  27.737  34.502   6.996
 4535POPC   C4A58146  27.748  34.933   7.183
 4535POPC   C1B58147  27.185  34.566   6.203
 4535POPC   C2B58148  27.323  34.845   6.521
 4535POPC   C3B58149  27.318  34.766   6.938
 4535POPC   C4B58150  27.233  34.349   7.074
 4536POPC   NC358151  11.810   4.429   5.423
 4536POPC   PO458152  11.253   4.661   5.462
 4536POPC   GL158153  11.358   4.469   5.813
 4536POPC   GL258154  11.628   4.671   5.832
 4536POPC   C1A58155  11.223   4.215   6.174
 4536POPC   D2A58156  11.071   4.337   6.564
 4536POPC   C3A58157  11.237   4.166   6.931
 4536POPC   C4A58158  11.076   4.139   7.325
 4536POPC   C1B58159  11.730   4.275   6.106
 4536POPC   C2B58160  11.611   4.270   6.545
 4536POPC   C3B58161  11.746   4.163   6.963
 4536POPC   C4B58162  11.563   4.436   7.254
 4537POPC   NC358163  36.313  33.198   5.425
 4537POPC   PO458164  35.601  33.166   5.367
 4537POPC   GL158165  35.893  33.216   5.756
 4537POPC   GL258166  36.195  32.958   5.837
 4537POPC   C1A58167  35.895  33.131   6.211
 4537POPC   D2A58168  35.763  33.258   6.609
 4537POPC   C3A58169  35.876  33.089   7.010
 4537POPC   C4A58170  35.669  33.267   7.345
 4537POPC   C1B58171  36.390  33.276   6.096
 4537POPC   C2B58172  36.497  33.339   6.529
 4537POPC   C3B58173  36.525  33.428   6.968
 4537POPC   C4B58174  36.393  33.100   7.276
 4538POPC   NC358175   4.453   3.866   5.425
 4538POPC   PO458176   4.527   4.606   5.557
 4538POPC   GL158177   4.323   4.351   5.859
 4538POPC   GL258178   4.530   4.053   5.917
 4538POPC   C1A58179   4.304   4.507   6.277
 4538POPC   D2A58180   4.473   4.643   6.650
 4538POPC   C3A58181   4.257   4.502   7.024
 4538POPC   C4A58182   4.040   4.351   7.371
 4538POPC   C1B58183   4.595   4.098   6.378
 4538POPC   C2B58184   4.607   4.165   6.817
 4538POPC   C3B58185   4.426   4.037   7.191
 4538POPC   C4B58186   4.579   3.932   7.604
 4539POPC   NC358187  34.875  43.898   5.626
 4539POPC   PO458188  35.523  43.722   5.416
 4539POPC   GL158189  35.539  43.905   5.792
 4539POPC   GL258190  35.249  43.830   5.951
 4539POPC   C1A58191  35.629  43.979   6.239
 4539POPC   D2A58192  35.321  43.958   6.597
 4539POPC   C3A58193  35.444  44.125   6.979
 4539POPC   C4A58194  35.441  44.419   7.323
 4539POPC   C1B58195  35.223  43.538   6.305
 4539POPC   C2B58196  34.995  43.533   6.699
 4539POPC   C3B58197  34.957  43.868   6.992
 4539POPC   C4B58198  35.145  43.967   7.363
 4540POPC   NC358199   6.643  13.988   5.365
 4540POPC   PO458200   6.838  14.677   5.460
 4540POPC   GL158201   6.652  14.447   5.760
 4540POPC   GL258202   6.816  14.122   5.815
 4540POPC   C1A58203   6.538  14.555   6.170
 4540POPC   D2A58204   6.593  14.737   6.576
 4540POPC   C3A58205   6.445  14.576   6.953
 4540POPC   C4A58206   6.692  14.704   7.295
 4540POPC   C1B58207   6.519  14.045   6.159
 4540POPC   C2B58208   6.417  14.236   6.553
 4540POPC   C3B58209   6.625  14.093   6.912
 4540POPC   C4B58210   6.604  14.200   7.313
 4541POPC   NC358211  19.930  38.691   5.355
 4541POPC   PO458212  19.610  38.120   5.205
 4541POPC   GL158213  19.639  38.209   5.652
 4541POPC   GL258214  20.002  38.321   5.723
 4541POPC   C1A58215  19.709  38.114   6.111
 4541POPC   D2A58216  19.893  38.088   6.541
 4541POPC   C3A58217  19.795  38.404   6.870
 4541POPC   C4A58218  19.649  38.690   7.231
 4541POPC   C1B58219  20.140  38.543   6.106
 4541POPC   C2B58220  20.317  38.480   6.513
 4541POPC   C3B58221  20.260  38.624   6.923
 4541POPC   C4B58222  20.126  38.478   7.299
 4542POPC   NC358223   1.505   9.238   5.448
 4542POPC   PO458224   0.848   8.947   5.558
 4542POPC   GL158225   1.242   8.962   5.797
 4542POPC   GL258226   1.383   8.648   5.907
 4542POPC   C1A58227   1.391   9.117   6.196
 4542POPC   D2A58228   1.464   8.995   6.643
 4542POPC   C3A58229   1.120   9.043   6.958
 4542POPC   C4A58230   1.191   9.113   7.396
 4542POPC   C1B58231   1.265   8.614   6.320
 4542POPC   C2B58232   1.394   8.456   6.703
 4542POPC   C3B58233   1.311   8.591   7.103
 4542POPC   C4B58234   1.405   8.677   7.516
 4543POPC   NC358235  21.320   6.403   5.511
 4543POPC   PO458236  21.487   6.999   5.242
 4543POPC   GL158237  21.249   6.894   5.732
 4543POPC   GL258238  21.497   6.635   5.933
 4543POPC   C1A58239  21.306   6.976   6.254
 4543POPC   D2A58240  21.535   7.023   6.676
 4543POPC   C3A58241  21.538   6.733   7.026
 4543POPC   C4A58242  21.157   6.690   7.255
 4543POPC   C1B58243  21.411   6.420   6.340
 4543POPC   C2B58244  21.372   6.192   6.751
 4543POPC   C3B58245  21.360   6.242   7.207
 4543POPC   C4B58246  21.635   6.381   7.570
 4544POPC   NC358247  39.440   4.456   5.485
 4544POPC   PO458248  39.074   3.839   5.464
 4544POPC   GL158249  39.106   4.153   5.812
 4544POPC   GL258250  39.464   4.200   5.935
 4544POPC   C1A58251  39.034   4.340   6.236
 4544POPC   D2A58252  39.132   4.531   6.658
 4544POPC   C3A58253  38.980   4.485   7.093
 4544POPC   C4A58254  38.948   4.566   7.561
 4544POPC   C1B58255  39.529   4.612   6.167
 4544POPC   C2B58256  39.619   4.716   6.609
 4544POPC   C3B58257  39.542   4.435   6.985
 4544POPC   C4B58258  39.689   4.110   7.292
 4545POPC   NC358259   1.493  41.036   4.930
 4545POPC   PO458260   1.273  40.830   5.488
 4545POPC   GL158261   1.226  40.795   5.920
 4545POPC   GL258262   1.296  40.459   5.908
 4545POPC   C1A58263   1.145  41.010   6.294
 4545POPC   D2A58264   0.879  41.142   6.647
 4545POPC   C3A58265   1.033  40.885   7.011
 4545POPC   C4A58266   1.460  40.694   7.180
 4545POPC   C1B58267   1.175  40.432   6.291
 4545POPC   C2B58268   1.322  40.623   6.656
 4545POPC   C3B58269   1.132  40.391   6.952
 4545POPC   C4B58270   0.991  40.420   7.299
 4546POPC   NC358271   4.023  32.464   5.335
 4546POPC   PO458272   4.505  33.038   5.479
 4546POPC   GL158273   4.150  33.076   5.783
 4546POPC   GL258274   3.991  32.786   5.792
 4546POPC   C1A58275   4.047  33.171   6.212
 4546POPC   D2A58276   4.306  32.995   6.548
 4546POPC   C3A58277   4.478  33.159   6.939
 4546POPC   C4A58278   4.288  33.299   7.327
 4546POPC   C1B58279   4.091  32.628   6.203
 4546POPC   C2B58280   4.008  32.568   6.637
 4546POPC   C3B58281   4.076  32.835   6.977
 4546POPC   C4B58282   4.319  32.799   7.326
 4547POPC   NC358283  26.891  36.853   5.053
 4547POPC   PO458284  26.840  36.754   5.686
 4547POPC   GL158285  26.982  36.893   6.037
 4547POPC   GL258286  26.665  36.959   6.113
 4547POPC   C1A58287  26.931  36.718   6.477
 4547POPC   D2A58288  26.626  36.453   6.722
 4547POPC   C3A58289  26.604  36.586   7.153
 4547POPC   C4A58290  26.935  36.771   7.387
 4547POPC   C1B58291  26.478  37.135   6.439
 4547POPC   C2B58292  26.557  36.977   6.802
 4547POPC   C3B58293  26.581  37.093   7.207
 4547POPC   C4B58294  26.422  36.935   7.587
 4548POPC   NC358295  37.678  17.761   5.408
 4548POPC   PO458296  37.813  17.123   5.335
 4548POPC   GL158297  37.692  17.216   5.759
 4548POPC   GL258298  37.573  17.520   5.820
 4548POPC   C1A58299  37.844  17.332   6.210
 4548POPC   D2A58300  38.004  17.285   6.645
 4548POPC   C3A58301  37.713  17.370   6.985
 4548POPC   C4A58302  37.944  17.443   7.334
 4548POPC   C1B58303  37.437  17.685   6.185
 4548POPC   C2B58304  37.629  17.671   6.569
 4548POPC   C3B58305  37.500  17.879   6.920
 4548POPC   C4B58306  37.516  17.770   7.320
 4549POPC   NC358307  22.501  31.893   5.401
 4549POPC   PO458308  21.951  32.352   5.364
 4549POPC   GL158309  22.009  32.138   5.775
 4549POPC   GL258310  21.925  32.385   6.043
 4549POPC   C1A58311  21.892  31.864   6.133
 4549POPC   D2A58312  21.779  31.882   6.580
 4549POPC   C3A58313  22.091  32.074   6.851
 4549POPC   C4A58314  22.234  32.105   7.277
 4549POPC   C1B58315  22.258  32.447   6.331
 4549POPC   C2B58316  22.317  32.702   6.698
 4549POPC   C3B58317  22.139  32.555   7.054
 4549POPC   C4B58318  21.780  32.394   7.256
 4550POPC   NC358319  10.979  14.035   5.752
 4550POPC   PO458320  11.223  14.635   5.464
 4550POPC   GL158321  11.071  14.528   5.837
 4550POPC   GL258322  11.348  14.344   5.917
 4550POPC   C1A58323  11.052  14.565   6.261
 4550POPC   D2A58324  11.186  14.281   6.580
 4550POPC   C3A58325  11.021  14.216   6.972
 4550POPC   C4A58326  11.125  14.344   7.392
 4550POPC   C1B58327  11.605  14.381   6.284
 4550POPC   C2B58328  11.671  14.336   6.717
 4550POPC   C3B58329  11.605  14.383   7.140
 4550POPC   C4B58330  11.608  14.161   7.526
 4551POPC   NC358331  29.163   3.074   5.274
 4551POPC   PO458332  28.732   2.576   5.200
 4551POPC   GL158333  28.897   2.782   5.626
 4551POPC   GL258334  29.254   2.811   5.754
 4551POPC   C1A58335  28.878   2.779   6.108
 4551POPC   D2A58336  28.979   2.484   6.471
 4551POPC   C3A58337  28.987   2.606   6.914
 4551POPC   C4A58338  28.732   2.970   7.105
 4551POPC   C1B58339  29.379   2.667   6.197
 4551POPC   C2B58340  29.479   2.678   6.651
 4551POPC   C3B58341  29.485   2.568   7.111
 4551POPC   C4B58342  29.596   2.577   7.573
 4552POPC   NC358343   1.087   8.540   5.482
 4552POPC   PO458344   1.019   7.861   5.442
 4552POPC   GL158345   1.139   8.121   5.800
 4552POPC   GL258346   1.494   8.156   5.796
 4552POPC   C1A58347   0.960   8.222   6.218
 4552POPC   D2A58348   0.795   8.268   6.638
 4552POPC   C3A58349   1.013   8.174   7.036
 4552POPC   C4A58350   0.896   8.448   7.351
 4552POPC   C1B58351   1.381   7.936   6.214
 4552POPC   C2B58352   1.237   7.972   6.620
 4552POPC   C3B58353   1.346   7.771   7.003
 4552POPC   C4B58354   1.294   7.862   7.416
 4553POPC   NC358355  38.644  21.403   5.411
 4553POPC   PO458356  38.037  21.485   5.520
 4553POPC   GL158357  38.360  21.554   5.850
 4553POPC   GL258358  38.754  21.568   5.886
 4553POPC   C1A58359  38.360  21.684   6.261
 4553POPC   D2A58360  38.544  21.662   6.674
 4553POPC   C3A58361  38.242  21.547   6.968
 4553POPC   C4A58362  38.255  21.326   7.335
 4553POPC   C1B58363  38.655  21.200   6.164
 4553POPC   C2B58364  38.638  21.114   6.622
 4553POPC   C3B58365  38.708  21.294   7.042
 4553POPC   C4B58366  38.732  21.371   7.506
 4554POPC   NC358367   3.180  42.865   5.154
 4554POPC   PO458368   2.606  42.823   5.568
 4554POPC   GL158369   2.765  43.059   5.884
 4554POPC   GL258370   3.042  43.256   5.727
 4554POPC   C1A58371   2.863  42.943   6.286
 4554POPC   D2A58372   2.628  42.812   6.640
 4554POPC   C3A58373   2.621  43.067   6.980
 4554POPC   C4A58374   2.818  43.000   7.332
 4554POPC   C1B58375   3.026  43.431   6.166
 4554POPC   C2B58376   2.846  43.346   6.592
 4554POPC   C3B58377   3.060  43.322   6.961
 4554POPC   C4B58378   3.153  43.356   7.359
 4555POPC   NC358379   3.605  27.184   5.143
 4555POPC   PO458380   3.432  27.797   5.381
 4555POPC   GL158381   3.656  27.706   5.740
 4555POPC   GL258382   3.333  27.609   5.874
 4555POPC   C1A58383   3.741  27.573   6.176
 4555POPC   D2A58384   3.457  27.633   6.515
 4555POPC   C3A58385   3.652  27.621   6.897
 4555POPC   C4A58386   3.688  27.510   7.300
 4555POPC   C1B58387   3.176  27.904   6.151
 4555POPC   C2B58388   3.316  28.129   6.524
 4555POPC   C3B58389   3.255  27.941   6.908
 4555POPC   C4B58390   3.212  27.650   7.239
 4556POPC   NC358391  11.425   5.092   5.497
 4556POPC   PO458392  10.774   4.999   5.556
 4556POPC   GL158393  11.153   4.942   5.915
 4556POPC   GL258394  11.506   5.144   5.992
 4556POPC   C1A58395  11.354   4.758   6.326
 4556POPC   D2A58396  11.385   4.667   6.808
 4556POPC   C3A58397  11.467   4.992   7.117
 4556POPC   C4A58398  11.214   5.162   7.487
 4556POPC   C1B58399  11.346   5.437   6.290
 4556POPC   C2B58400  11.273   5.605   6.726
 4556POPC   C3B58401  11.464   5.522   7.130
 4556POPC   C4B58402  11.669   5.337   7.478
 4557POPC   NC358403  43.240  26.038   5.524
 4557POPC   PO458404  42.855  25.563   5.274
 4557POPC   GL158405  42.813  25.826   5.707
 4557POPC   GL258406  42.834  26.196   5.792
 4557POPC   C1A58407  42.995  25.819   6.127
 4557POPC   D2A58408  42.861  25.931   6.555
 4557POPC   C3A58409  42.947  25.678   6.930
 4557POPC   C4A58410  43.107  25.841   7.341
 4557POPC   C1B58411  43.075  26.310   6.186
 4557POPC   C2B58412  43.290  26.197   6.575
 4557POPC   C3B58413  43.172  26.244   7.030
 4557POPC   C4B58414  43.150  26.344   7.502
 4558POPC   NC358415  36.404   5.586   5.680
 4558POPC   PO458416  36.523   6.236   5.522
 4558POPC   GL158417  36.803   5.916   5.798
 4558POPC   GL258418  37.034   5.614   5.713
 4558POPC   C1A58419  36.879   5.827   6.260
 4558POPC   D2A58420  36.988   6.194   6.541
 4558POPC   C3A58421  36.885   6.202   6.974
 4558POPC   C4A58422  36.719   5.840   7.147
 4558POPC   C1B58423  37.310   5.587   6.088
 4558POPC   C2B58424  37.373   5.742   6.506
 4558POPC   C3B58425  37.153   5.698   6.861
 4558POPC   C4B58426  37.213   5.841   7.245
 4559POPC   NC358427  43.909  27.336   5.421
 4559POPC   PO458428  43.596  27.939   5.542
 4559POPC   GL158429  43.716  27.583   5.848
 4559POPC   GL258430  43.585  27.259   5.961
 4559POPC   C1A58431  43.770  27.621   6.304
 4559POPC   D2A58432  43.694  28.021   6.563
 4559POPC   C3A58433  43.629  27.975   7.008
 4559POPC   C4A58434  43.937  28.014   7.287
 4559POPC   C1B58435  43.723  27.054   6.312
 4559POPC   C2B58436  43.875  27.258   6.669
 4559POPC   C3B58437  43.970  27.616   6.862
 4559POPC   C4B58438  43.755  27.483   7.190
 4560POPC   NC358439   3.906   8.157   5.572
 4560POPC   PO458440   3.354   7.963   5.362
 4560POPC   GL158441   3.446   8.004   5.786
 4560POPC   GL258442   3.573   8.337   5.929
 4560POPC   C1A58443   3.247   7.887   6.153
 4560POPC   D2A58444   3.183   8.093   6.526
 4560POPC   C3A58445   3.235   7.909   6.891
 4560POPC   C4A58446   3.388   8.048   7.219
 4560POPC   C1B58447   3.667   8.203   6.360
 4560POPC   C2B58448   3.718   8.112   6.810
 4560POPC   C3B58449   3.843   8.292   7.194
 4560POPC   C4B58450   3.958   8.555   7.574
 4561POPC   NC358451  30.608  12.331   5.696
 4561POPC   PO458452  30.656  12.669   5.076
 4561POPC   GL158453  30.697  12.830   5.568
 4561POPC   GL258454  30.433  13.062   5.692
 4561POPC   C1A58455  30.727  12.872   6.066
 4561POPC   D2A58456  30.887  12.886   6.525
 4561POPC   C3A58457  30.733  12.683   6.863
 4561POPC   C4A58458  30.699  12.580   7.309
 4561POPC   C1B58459  30.375  13.229   6.166
 4561POPC   C2B58460  30.450  13.132   6.652
 4561POPC   C3B58461  30.480  13.032   7.134
 4561POPC   C4B58462  30.199  12.716   7.363
 4562POPC   NC358463  40.942   6.904   5.604
 4562POPC   PO458464  41.462   6.569   5.366
 4562POPC   GL158465  41.536   6.480   5.792
 4562POPC   GL258466  41.770   6.785   5.756
 4562POPC   C1A58467  41.361   6.387   6.242
 4562POPC   D2A58468  41.185   6.423   6.709
 4562POPC   C3A58469  41.367   6.161   7.101
 4562POPC   C4A58470  41.307   6.267   7.560
 4562POPC   C1B58471  41.799   6.678   6.184
 4562POPC   C2B58472  41.598   6.737   6.558
 4562POPC   C3B58473  41.517   6.855   6.958
 4562POPC   C4B58474  41.644   6.567   7.260
 4563POPC   NC358475  43.383  29.318   5.289
 4563POPC   PO458476  42.711  29.018   5.170
 4563POPC   GL158477  42.915  29.136   5.606
 4563POPC   GL258478  43.282  29.181   5.793
 4563POPC   C1A58479  42.806  29.074   6.077
 4563POPC   D2A58480  42.798  29.247   6.512
 4563POPC   C3A58481  42.785  29.022   6.899
 4563POPC   C4A58482  42.914  29.265   7.245
 4563POPC   C1B58483  43.262  29.262   6.285
 4563POPC   C2B58484  43.258  29.236   6.780
 4563POPC   C3B58485  43.384  29.406   7.201
 4563POPC   C4B58486  43.512  29.444   7.647
 4564POPC   NC358487  38.997  33.631   5.361
 4564POPC   PO458488  39.662  33.774   5.378
 4564POPC   GL158489  39.362  33.744   5.743
 4564POPC   GL258490  39.078  33.528   5.837
 4564POPC   C1A58491  39.240  33.907   6.146
 4564POPC   D2A58492  39.517  33.995   6.477
 4564POPC   C3A58493  39.400  34.031   6.898
 4564POPC   C4A58494  39.497  34.104   7.323
 4564POPC   C1B58495  39.160  33.398   6.223
 4564POPC   C2B58496  39.177  33.606   6.598
 4564POPC   C3B58497  39.279  33.456   6.974
 4564POPC   C4B58498  39.045  33.407   7.321
 4565POPC   NC358499  36.682  32.337   5.396
 4565POPC   PO458500  37.360  32.147   5.434
 4565POPC   GL158501  37.023  32.244   5.776
 4565POPC   GL258502  36.924  32.620   5.818
 4565POPC   C1A58503  36.832  32.269   6.204
 4565POPC   D2A58504  36.687  32.352   6.669
 4565POPC   C3A58505  36.768  32.218   7.107
 4565POPC   C4A58506  36.921  31.860   7.284
 4565POPC   C1B58507  37.192  32.690   6.197
 4565POPC   C2B58508  37.163  32.557   6.608
 4565POPC   C3B58509  37.099  32.595   7.023
 4565POPC   C4B58510  37.201  32.369   7.381
 4566POPC   NC358511   4.106  18.538   5.554
 4566POPC   PO458512   3.985  17.877   5.342
 4566POPC   GL158513   4.117  18.047   5.795
 4566POPC   GL258514   4.389  18.318   5.924
 4566POPC   C1A58515   4.378  17.847   6.155
 4566POPC   D2A58516   4.492  17.798   6.600
 4566POPC   C3A58517   4.404  18.158   6.886
 4566POPC   C4A58518   4.646  18.272   7.233
 4566POPC   C1B58519   4.126  18.553   6.241
 4566POPC   C2B58520   4.168  18.680   6.686
 4566POPC   C3B58521   3.993  18.513   7.047
 4566POPC   C4B58522   4.165  18.279   7.383
 4567POPC   NC358523  30.252  28.170   5.447
 4567POPC   PO458524  29.581  28.227   5.403
 4567POPC   GL158525  29.703  28.217   5.859
 4567POPC   GL258526  30.065  28.342   5.894
 4567POPC   C1A58527  29.680  28.098   6.342
 4567POPC   D2A58528  29.516  28.176   6.776
 4567POPC   C3A58529  29.661  28.226   7.178
 4567POPC   C4A58530  29.560  28.610   7.365
 4567POPC   C1B58531  30.175  28.185   6.311
 4567POPC   C2B58532  30.026  28.259   6.728
 4567POPC   C3B58533  30.136  28.402   7.113
 4567POPC   C4B58534  30.312  28.094   7.383
 4568POPC   NC358535  29.464   2.173   5.585
 4568POPC   PO458536  30.048   1.774   5.416
 4568POPC   GL158537  29.791   1.796   5.770
 4568POPC   GL258538  29.972   2.106   5.806
 4568POPC   C1A58539  29.891   1.838   6.235
 4568POPC   D2A58540  30.237   1.798   6.554
 4568POPC   C3A58541  30.151   1.608   6.936
 4568POPC   C4A58542  29.779   1.657   7.144
 4568POPC   C1B58543  29.758   2.323   6.125
 4568POPC   C2B58544  29.753   2.256   6.510
 4568POPC   C3B58545  29.855   2.058   6.843
 4568POPC   C4B58546  29.868   2.230   7.235
 4569POPC   NC358547  34.359  24.291   5.423
 4569POPC   PO458548  35.074  24.248   5.434
 4569POPC   GL158549  34.734  24.218   5.766
 4569POPC   GL258550  34.545  24.552   5.807
 4569POPC   C1A58551  34.555  24.207   6.191
 4569POPC   D2A58552  34.787  24.293   6.579
 4569POPC   C3A58553  34.557  24.225   6.933
 4569POPC   C4A58554  34.583  24.271   7.359
 4569POPC   C1B58555  34.262  24.642   6.147
 4569POPC   C2B58556  34.324  24.714   6.563
 4569POPC   C3B58557  34.233  24.647   6.987
 4569POPC   C4B58558  34.309  24.705   7.427
 4570POPC   NC358559   4.287  19.143   5.191
 4570POPC   PO458560   4.563  18.664   5.557
 4570POPC   GL158561   4.395  18.856   5.887
 4570POPC   GL258562   4.207  19.061   5.718
 4570POPC   C1A58563   4.438  18.952   6.307
 4570POPC   D2A58564   4.660  19.146   6.633
 4570POPC   C3A58565   4.421  19.156   6.992
 4570POPC   C4A58566   4.325  18.818   7.244
 4570POPC   C1B58567   4.026  19.184   6.132
 4570POPC   C2B58568   4.089  19.179   6.584
 4570POPC   C3B58569   3.917  19.043   6.980
 4570POPC   C4B58570   3.912  19.107   7.403
 4571POPC   NC358571  35.157  38.609   5.461
 4571POPC   PO458572  35.543  38.089   5.385
 4571POPC   GL158573  35.465  38.331   5.752
 4571POPC   GL258574  35.150  38.206   5.811
 4571POPC   C1A58575  35.344  38.564   6.152
 4571POPC   D2A58576  35.256  38.649   6.598
 4571POPC   C3A58577  35.192  38.461   7.013
 4571POPC   C4A58578  35.535  38.427   7.279
 4571POPC   C1B58579  35.089  38.092   6.200
 4571POPC   C2B58580  34.924  38.207   6.604
 4571POPC   C3B58581  34.832  38.030   7.012
 4571POPC   C4B58582  35.087  38.068   7.380
 4572POPC   NC358583  19.000  10.137   4.935
 4572POPC   PO458584  18.791   9.693   5.434
 4572POPC   GL158585  19.047   9.879   5.783
 4572POPC   GL258586  19.391   9.959   5.683
 4572POPC   C1A58587  19.002   9.925   6.250
 4572POPC   D2A58588  18.985   9.726   6.663
 4572POPC   C3A58589  18.874   9.971   7.022
 4572POPC   C4A58590  18.941   9.688   7.388
 4572POPC   C1B58591  19.469   9.784   6.118
 4572POPC   C2B58592  19.462   9.911   6.600
 4572POPC   C3B58593  19.352   9.807   7.091
 4572POPC   C4B58594  19.400   9.738   7.607
 4573POPC   NC358595  25.855  22.432   5.353
 4573POPC   PO458596  26.244  21.936   5.304
 4573POPC   GL158597  26.298  22.119   5.729
 4573POPC   GL258598  26.320  22.483   5.784
 4573POPC   C1A58599  26.124  22.126   6.161
 4573POPC   D2A58600  26.132  21.919   6.575
 4573POPC   C3A58601  25.814  22.071   6.871
 4573POPC   C4A58602  25.843  22.264   7.263
 4573POPC   C1B58603  26.318  22.625   6.254
 4573POPC   C2B58604  26.271  22.479   6.711
 4573POPC   C3B58605  26.298  22.514   7.198
 4573POPC   C4B58606  26.123  22.458   7.638
 4574POPC   NC358607  15.686  30.482   5.334
 4574POPC   PO458608  16.242  30.042   5.442
 4574POPC   GL158609  16.074  29.977   5.860
 4574POPC   GL258610  15.745  30.014   5.789
 4574POPC   C1A58611  16.094  30.016   6.328
 4574POPC   D2A58612  16.042  29.703   6.652
 4574POPC   C3A58613  16.064  29.904   7.023
 4574POPC   C4A58614  16.310  29.909   7.342
 4574POPC   C1B58615  15.634  29.832   6.199
 4574POPC   C2B58616  15.616  29.990   6.644
 4574POPC   C3B58617  15.564  29.937   7.103
 4574POPC   C4B58618  15.830  29.790   7.483
 4575POPC   NC358619  41.147  10.991   5.377
 4575POPC   PO458620  40.651  11.390   5.007
 4575POPC   GL158621  40.704  11.419   5.549
 4575POPC   GL258622  41.033  11.417   5.726
 4575POPC   C1A58623  40.635  11.182   6.009
 4575POPC   D2A58624  40.868  10.924   6.352
 4575POPC   C3A58625  40.885  10.956   6.846
 4575POPC   C4A58626  40.949  11.013   7.303
 4575POPC   C1B58627  40.849  11.624   6.133
 4575POPC   C2B58628  40.707  11.569   6.588
 4575POPC   C3B58629  40.852  11.449   7.027
 4575POPC   C4B58630  40.676  11.402   7.486
 4576POPC   NC358631  23.375  15.732   5.539
 4576POPC   PO458632  23.181  16.351   5.342
 4576POPC   GL158633  23.111  16.146   5.746
 4576POPC   GL258634  22.883  15.848   5.762
 4576POPC   C1A58635  23.178  15.945   6.157
 4576POPC   D2A58636  22.988  15.878   6.529
 4576POPC   C3A58637  23.069  16.168   6.862
 4576POPC   C4A58638  23.055  16.027   7.274
 4576POPC   C1B58639  22.648  16.028   6.135
 4576POPC   C2B58640  22.593  16.181   6.578
 4576POPC   C3B58641  22.614  16.034   7.014
 4576POPC   C4B58642  22.534  15.660   7.245
 4577POPC   NC358643  18.933  14.537   5.252
 4577POPC   PO458644  19.400  14.144   5.497
 4577POPC   GL158645  19.228  14.390   5.807
 4577POPC   GL258646  18.900  14.309   5.758
 4577POPC   C1A58647  19.306  14.601   6.183
 4577POPC   D2A58648  19.394  14.431   6.588
 4577POPC   C3A58649  19.426  14.740   6.912
 4577POPC   C4A58650  19.256  14.645   7.302
 4577POPC   C1B58651  18.832  14.203   6.205
 4577POPC   C2B58652  18.623  14.321   6.606
 4577POPC   C3B58653  18.771  14.485   7.009
 4577POPC   C4B58654  18.964  14.192   7.284
 4578POPC   NC358655  25.822  34.950   5.292
 4578POPC   PO458656  26.037  35.562   5.460
 4578POPC   GL158657  26.088  35.205   5.775
 4578POPC   GL258658  25.716  35.099   5.794
 4578POPC   C1A58659  26.380  35.217   6.191
 4578POPC   D2A58660  26.550  35.465   6.575
 4578POPC   C3A58661  26.361  35.512   7.002
 4578POPC   C4A58662  26.133  35.289   7.333
 4578POPC   C1B58663  25.874  35.076   6.229
 4578POPC   C2B58664  26.074  35.189   6.636
 4578POPC   C3B58665  25.830  35.407   6.958
 4578POPC   C4B58666  25.530  35.173   7.212
 4579POPC   NC358667   7.201  11.583   5.065
 4579POPC   PO458668   7.718  11.322   5.418
 4579POPC   GL158669   7.443  11.213   5.818
 4579POPC   GL258670   7.328  11.513   6.020
 4579POPC   C1A58671   7.144  11.036   6.147
 4579POPC   D2A58672   7.300  10.799   6.527
 4579POPC   C3A58673   7.132  10.873   6.951
 4579POPC   C4A58674   7.197  11.177   7.278
 4579POPC   C1B58675   7.535  11.308   6.343
 4579POPC   C2B58676   7.444  11.230   6.756
 4579POPC   C3B58677   7.648  11.391   7.083
 4579POPC   C4B58678   7.659  11.804   7.234
 4580POPC   NC358679   0.147  30.695   5.290
 4580POPC   PO458680  44.665  30.397   5.644
 4580POPC   GL158681  44.769  30.754   5.862
 4580POPC   GL258682  44.505  30.978   5.803
 4580POPC   C1A58683  44.923  30.752   6.288
 4580POPC   D2A58684  44.681  30.572   6.646
 4580POPC   C3A58685  44.887  30.464   7.038
 4580POPC   C4A58686  44.779  30.558   7.464
 4580POPC   C1B58687  44.578  31.116   6.226
 4580POPC   C2B58688  44.754  31.078   6.670
 4580POPC   C3B58689  44.690  31.000   7.138
 4580POPC   C4B58690  44.417  31.055   7.525
 4581POPC   NC358691  35.304   3.855   5.298
 4581POPC   PO458692  35.711   3.403   5.453
 4581POPC   GL158693  35.399   3.329   5.743
 4581POPC   GL258694  35.422   3.661   5.803
 4581POPC   C1A58695  35.219   3.334   6.163
 4581POPC   D2A58696  35.343   3.586   6.509
 4581POPC   C3A58697  35.461   3.411   6.910
 4581POPC   C4A58698  35.278   3.350   7.304
 4581POPC   C1B58699  35.325   3.939   6.130
 4581POPC   C2B58700  35.151   4.089   6.504
 4581POPC   C3B58701  35.270   3.930   6.891
 4581POPC   C4B58702  35.377   3.851   7.293
 4582POPC   NC358703   9.916  21.185   5.645
 4582POPC   PO458704   9.963  20.606   5.248
 4582POPC   GL158705   9.889  20.471   5.694
 4582POPC   GL258706   9.763  20.755   5.868
 4582POPC   C1A58707   9.897  20.381   6.173
 4582POPC   D2A58708   9.705  20.550   6.571
 4582POPC   C3A58709   9.777  20.358   7.021
 4582POPC   C4A58710   9.750  19.936   7.253
 4582POPC   C1B58711   9.984  20.904   6.251
 4582POPC   C2B58712  10.083  20.869   6.702
 4582POPC   C3B58713   9.734  20.873   7.013
 4582POPC   C4B58714   9.791  20.767   7.407
 4583POPC   NC358715  24.090  31.573   5.122
 4583POPC   PO458716  24.710  31.437   5.335
 4583POPC   GL158717  24.537  31.458   5.753
 4583POPC   GL258718  24.670  31.740   5.940
 4583POPC   C1A58719  24.414  31.318   6.169
 4583POPC   D2A58720  24.138  31.276   6.513
 4583POPC   C3A58721  24.368  31.383   6.893
 4583POPC   C4A58722  24.236  31.660   7.213
 4583POPC   C1B58723  24.959  31.722   6.293
 4583POPC   C2B58724  25.025  31.904   6.697
 4583POPC   C3B58725  24.716  31.793   6.969
 4583POPC   C4B58726  24.706  31.732   7.395
 4584POPC   NC358727  43.624  33.065   5.201
 4584POPC   PO458728  42.998  33.045   5.433
 4584POPC   GL158729  43.094  33.020   5.858
 4584POPC   GL258730  43.293  32.739   5.974
 4584POPC   C1A58731  43.146  33.153   6.261
 4584POPC   D2A58732  42.937  33.314   6.610
 4584POPC   C3A58733  43.026  33.223   7.024
 4584POPC   C4A58734  43.092  32.935   7.378
 4584POPC   C1B58735  43.569  32.810   6.193
 4584POPC   C2B58736  43.416  32.869   6.573
 4584POPC   C3B58737  43.364  32.823   6.954
 4584POPC   C4B58738  43.399  32.466   7.146
 4585POPC   NC358739  41.149  24.685   5.560
 4585POPC   PO458740  40.484  24.422   5.571
 4585POPC   GL158741  40.772  24.335   5.888
 4585POPC   GL258742  41.067  24.170   5.775
 4585POPC   C1A58743  40.835  24.581   6.266
 4585POPC   D2A58744  40.546  24.713   6.613
 4585POPC   C3A58745  40.736  24.702   7.035
 4585POPC   C4A58746  40.619  24.462   7.388
 4585POPC   C1B58747  41.082  24.105   6.226
 4585POPC   C2B58748  41.095  24.309   6.658
 4585POPC   C3B58749  41.072  24.323   7.121
 4585POPC   C4B58750  41.056  24.294   7.562
 4586POPC   NC358751  36.314  24.977   5.450
 4586POPC   PO458752  35.867  25.569   5.299
 4586POPC   GL158753  36.127  25.425   5.673
 4586POPC   GL258754  35.859  25.557   5.875
 4586POPC   C1A58755  36.158  25.179   6.098
 4586POPC   D2A58756  36.156  24.952   6.520
 4586POPC   C3A58757  36.245  25.179   6.917
 4586POPC   C4A58758  36.251  25.066   7.369
 4586POPC   C1B58759  36.147  25.719   6.158
 4586POPC   C2B58760  36.297  25.627   6.561
 4586POPC   C3B58761  36.104  25.741   6.923
 4586POPC   C4B58762  36.038  25.528   7.291
 4587POPC   NC358763   4.154   0.746   5.311
 4587POPC   PO458764   3.884   0.076   5.405
 4587POPC   GL158765   4.120   0.387   5.701
 4587POPC   GL258766   4.095   0.742   5.798
 4587POPC   C1A58767   4.482   0.409   6.014
 4587POPC   D2A58768   4.662   0.323   6.445
 4587POPC   C3A58769   4.451   0.322   6.844
 4587POPC   C4A58770   4.488   0.184   7.261
 4587POPC   C1B58771   4.416   0.905   6.091
 4587POPC   C2B58772   4.338   0.708   6.498
 4587POPC   C3B58773   4.248   0.791   6.937
 4587POPC   C4B58774   4.153   0.564   7.332
 4588POPC   NC358775  20.751  33.480   5.407
 4588POPC   PO458776  20.383  34.083   5.505
 4588POPC   GL158777  20.628  33.834   5.810
 4588POPC   GL258778  20.874  33.568   5.870
 4588POPC   C1A58779  20.600  33.751   6.252
 4588POPC   D2A58780  20.387  33.674   6.604
 4588POPC   C3A58781  20.542  33.756   7.018
 4588POPC   C4A58782  20.315  33.977   7.368
 4588POPC   C1B58783  21.077  33.547   6.240
 4588POPC   C2B58784  20.986  33.786   6.595
 4588POPC   C3B58785  21.047  33.595   6.963
 4588POPC   C4B58786  20.968  33.702   7.351
 4589POPC   NC358787  18.186  17.817   5.337
 4589POPC   PO458788  18.419  17.187   5.305
 4589POPC   GL158789  18.374  17.311   5.740
 4589POPC   GL258790  18.109  17.551   5.779
 4589POPC   C1A58791  18.532  17.426   6.159
 4589POPC   D2A58792  18.467  17.212   6.565
 4589POPC   C3A58793  18.413  17.409   6.972
 4589POPC   C4A58794  18.491  17.244   7.379
 4589POPC   C1B58795  18.016  17.361   6.166
 4589POPC   C2B58796  18.030  17.481   6.591
 4589POPC   C3B58797  17.976  17.662   7.004
 4589POPC   C4B58798  18.125  17.581   7.427
 4590POPC   NC358799   0.841  40.707   5.613
 4590POPC   PO458800   0.586  41.329   5.448
 4590POPC   GL158801   0.498  41.067   5.819
 4590POPC   GL258802   0.290  40.798   5.758
 4590POPC   C1A58803   0.652  40.876   6.216
 4590POPC   D2A58804   0.813  40.630   6.580
 4590POPC   C3A58805   0.584  40.538   6.952
 4590POPC   C4A58806   0.628  40.778   7.330
 4590POPC   C1B58807   0.111  40.881   6.178
 4590POPC   C2B58808   0.010  40.874   6.635
 4590POPC   C3B58809   0.228  40.933   7.052
 4590POPC   C4B58810   0.227  40.986   7.545
 4591POPC   NC358811  34.743  13.045   5.471
 4591POPC   PO458812  34.201  12.635   5.646
 4591POPC   GL158813  34.338  12.995   5.875
 4591POPC   GL258814  34.709  13.097   5.972
 4591POPC   C1A58815  34.357  12.862   6.294
 4591POPC   D2A58816  34.599  12.693   6.633
 4591POPC   C3A58817  34.506  12.888   7.057
 4591POPC   C4A58818  34.417  12.722   7.456
 4591POPC   C1B58819  34.592  13.299   6.353
 4591POPC   C2B58820  34.392  13.283   6.738
 4591POPC   C3B58821  34.414  13.402   7.160
 4591POPC   C4B58822  34.649  13.254   7.489
 4592POPC   NC358823  34.754  16.287   5.163
 4592POPC   PO458824  34.908  15.638   5.202
 4592POPC   GL158825  34.599  15.636   5.776
 4592POPC   GL258826  34.569  15.991   5.970
 4592POPC   C1A58827  34.469  15.599   6.259
 4592POPC   D2A58828  34.575  15.889   6.646
 4592POPC   C3A58829  34.441  15.727   7.072
 4592POPC   C4A58830  34.304  15.720   7.558
 4592POPC   C1B58831  34.888  16.136   6.286
 4592POPC   C2B58832  35.063  16.079   6.648
 4592POPC   C3B58833  34.945  16.191   7.052
 4592POPC   C4B58834  34.935  16.334   7.440
 4593POPC   NC358835   8.666  40.689   5.465
 4593POPC   PO458836   9.115  41.244   5.538
 4593POPC   GL158837   9.075  40.855   5.794
 4593POPC   GL258838   9.241  40.510   5.790
 4593POPC   C1A58839   9.076  40.773   6.239
 4593POPC   D2A58840   9.219  40.663   6.633
 4593POPC   C3A58841   9.176  41.000   6.880
 4593POPC   C4A58842   8.983  40.943   7.266
 4593POPC   C1B58843   8.945  40.303   6.128
 4593POPC   C2B58844   8.768  40.233   6.522
 4593POPC   C3B58845   8.925  40.263   6.897
 4593POPC   C4B58846   8.846  40.462   7.238
 4594POPC   NC358847  18.575  36.513   5.403
 4594POPC   PO458848  19.288  36.655   5.542
 4594POPC   GL158849  18.993  36.917   5.745
 4594POPC   GL258850  18.867  36.572   5.816
 4594POPC   C1A58851  19.057  37.160   6.152
 4594POPC   D2A58852  19.264  36.994   6.543
 4594POPC   C3A58853  19.113  37.129   6.958
 4594POPC   C4A58854  19.284  37.004   7.374
 4594POPC   C1B58855  19.089  36.641   6.182
 4594POPC   C2B58856  18.805  36.781   6.470
 4594POPC   C3B58857  18.777  36.680   6.891
 4594POPC   C4B58858  18.834  36.766   7.327
 4595POPC   NC358859  23.786   6.451   5.372
 4595POPC   PO458860  23.954   7.043   5.180
 4595POPC   GL158861  23.775   6.869   5.667
 4595POPC   GL258862  23.614   6.490   5.837
 4595POPC   C1A58863  23.681   6.871   6.146
 4595POPC   D2A58864  23.650   6.555   6.495
 4595POPC   C3A58865  23.826   6.682   6.899
 4595POPC   C4A58866  23.582   6.763   7.256
 4595POPC   C1B58867  23.447   6.180   6.174
 4595POPC   C2B58868  23.288   6.210   6.631
 4595POPC   C3B58869  23.496   6.325   7.011
 4595POPC   C4B58870  23.457   6.243   7.493
 4596POPC   NC358871  34.991  44.696   5.302
 4596POPC   PO458872  35.680  44.650   5.355
 4596POPC   GL158873  35.316  44.688   5.688
 4596POPC   GL258874  35.176  44.346   5.754
 4596POPC   C1A58875  35.237  44.782   6.123
 4596POPC   D2A58876  35.446  44.878   6.526
 4596POPC   C3A58877  35.291  44.837   6.955
 4596POPC   C4A58878  35.456  44.957   7.339
 4596POPC   C1B58879  35.202  44.282   6.208
 4596POPC   C2B58880  35.114  44.458   6.630
 4596POPC   C3B58881  34.997  44.413   7.072
 4596POPC   C4B58882  34.967  44.407   7.540
 4597POPC   NC358883  24.846  11.171   5.365
 4597POPC   PO458884  25.205  11.691   5.421
 4597POPC   GL158885  25.171  11.352   5.758
 4597POPC   GL258886  25.185  10.973   5.747
 4597POPC   C1A58887  25.407  11.255   6.154
 4597POPC   D2A58888  25.509  11.505   6.521
 4597POPC   C3A58889  25.561  11.333   6.921
 4597POPC   C4A58890  25.459  11.410   7.361
 4597POPC   C1B58891  25.041  10.891   6.198
 4597POPC   C2B58892  25.110  11.132   6.590
 4597POPC   C3B58893  25.116  11.146   7.042
 4597POPC   C4B58894  25.058  10.827   7.355
 4598POPC   NC358895  26.335  28.288   5.509
 4598POPC   PO458896  26.855  28.443   5.272
 4598POPC   GL158897  26.779  28.308   5.753
 4598POPC   GL258898  26.530  28.504   5.922
 4598POPC   C1A58899  26.758  28.169   6.220
 4598POPC   D2A58900  27.114  28.304   6.479
 4598POPC   C3A58901  27.064  28.389   6.925
 4598POPC   C4A58902  26.661  28.251   7.067
 4598POPC   C1B58903  26.866  28.650   6.180
 4598POPC   C2B58904  26.707  28.589   6.619
 4598POPC   C3B58905  26.655  28.783   7.053
 4598POPC   C4B58906  26.824  28.771   7.483
 4599POPC   NC358907  15.030  42.008   5.295
 4599POPC   PO458908  15.124  41.301   5.395
 4599POPC   GL158909  15.274  41.507   5.751
 4599POPC   GL258910  15.030  41.769   5.752
 4599POPC   C1A58911  15.426  41.462   6.176
 4599POPC   D2A58912  15.209  41.431   6.556
 4599POPC   C3A58913  15.328  41.288   6.941
 4599POPC   C4A58914  15.456  41.522   7.297
 4599POPC   C1B58915  14.921  41.605   6.151
 4599POPC   C2B58916  14.838  41.758   6.544
 4599POPC   C3B58917  15.070  41.767   6.942
 4599POPC   C4B58918  14.825  41.844   7.320
 4600POPC   NC358919  43.493  18.527   5.674
 4600POPC   PO458920  43.011  18.139   5.311
 4600POPC   GL158921  43.031  18.269   5.746
 4600POPC   GL258922  42.842  18.580   5.843
 4600POPC   C1A58923  43.107  18.117   6.175
 4600POPC   D2A58924  43.372  18.200   6.543
 4600POPC   C3A58925  43.298  18.006   6.952
 4600POPC   C4A58926  42.955  17.923   7.207
 4600POPC   C1B58927  43.126  18.642   6.196
 4600POPC   C2B58928  43.103  18.673   6.617
 4600POPC   C3B58929  43.288  18.499   6.982
 4600POPC   C4B58930  43.208  18.336   7.409
 4601POPC   NC358931  22.128  37.862   5.488
 4601POPC   PO458932  22.255  37.206   5.415
 4601POPC   GL158933  22.180  37.494   5.819
 4601POPC   GL258934  22.434  37.671   5.958
 4601POPC   C1A58935  22.036  37.730   6.285
 4601POPC   D2A58936  21.780  37.812   6.713
 4601POPC   C3A58937  21.933  37.866   7.105
 4601POPC   C4A58938  22.247  37.659   7.299
 4601POPC   C1B58939  22.333  37.287   6.232
 4601POPC   C2B58940  22.520  37.240   6.580
 4601POPC   C3B58941  22.545  37.445   6.904
 4601POPC   C4B58942  22.576  37.251   7.246
 4602POPC   NC358943  20.177  43.452   5.614
 4602POPC   PO458944  19.730  42.994   5.385
 4602POPC   GL158945  19.856  43.107   5.806
 4602POPC   GL258946  19.700  43.429   5.797
 4602POPC   C1A58947  19.913  42.936   6.239
 4602POPC   D2A58948  19.943  43.156   6.645
 4602POPC   C3A58949  19.996  42.882   7.007
 4602POPC   C4A58950  19.656  42.733   7.238
 4602POPC   C1B58951  19.574  43.301   6.219
 4602POPC   C2B58952  19.410  43.279   6.648
 4602POPC   C3B58953  19.560  43.208   7.083
 4602POPC   C4B58954  19.429  43.159   7.542
 4603POPC   NC358955  12.901  22.427   5.438
 4603POPC   PO458956  12.879  21.760   5.102
 4603POPC   GL158957  12.965  21.868   5.597
 4603POPC   GL258958  12.663  22.030   5.717
 4603POPC   C1A58959  13.070  22.046   6.058
 4603POPC   D2A58960  12.856  22.264   6.434
 4603POPC   C3A58961  12.931  22.199   6.900
 4603POPC   C4A58962  12.788  22.329   7.321
 4603POPC   C1B58963  12.621  21.765   6.086
 4603POPC   C2B58964  12.578  21.824   6.535
 4603POPC   C3B58965  12.748  21.698   6.914
 4603POPC   C4B58966  12.883  21.834   7.317
 4604POPC   NC358967  43.160  35.759   5.432
 4604POPC   PO458968  43.237  35.137   5.492
 4604POPC   GL158969  43.103  35.448   5.825
 4604POPC   GL258970  42.982  35.240   6.082
 4604POPC   C1A58971  43.199  35.689   6.196
 4604POPC   D2A58972  43.248  35.419   6.555
 4604POPC   C3A58973  43.242  35.669   6.927
 4604POPC   C4A58974  43.137  35.537   7.337
 4604POPC   C1B58975  42.673  35.178   6.407
 4604POPC   C2B58976  42.632  35.061   6.852
 4604POPC   C3B58977  42.848  35.073   7.257
 4604POPC   C4B58978  42.697  34.966   7.694
 4605POPC   NC358979  22.270  12.361   5.384
 4605POPC   PO458980  21.970  11.790   5.347
 4605POPC   GL158981  22.180  11.936   5.726
 4605POPC   GL258982  22.041  12.248   5.826
 4605POPC   C1A58983  22.359  12.017   6.150
 4605POPC   D2A58984  22.169  11.930   6.547
 4605POPC   C3A58985  22.362  11.972   6.934
 4605POPC   C4A58986  22.035  12.084   7.204
 4605POPC   C1B58987  21.847  12.202   6.229
 4605POPC   C2B58988  21.794  12.380   6.646
 4605POPC   C3B58989  21.677  12.453   7.089
 4605POPC   C4B58990  21.792  12.391   7.530
 4606POPC   NC358991   1.001  24.620   5.372
 4606POPC   PO458992   1.648  24.571   5.280
 4606POPC   GL158993   1.357  24.608   5.727
 4606POPC   GL258994   1.134  24.319   5.776
 4606POPC   C1A58995   1.156  24.626   6.184
 4606POPC   D2A58996   0.910  24.555   6.571
 4606POPC   C3A58997   1.125  24.661   6.955
 4606POPC   C4A58998   1.299  24.458   7.316
 4606POPC   C1B58999   0.785  24.281   6.084
 4606POPC   C2B59000   0.564  24.175   6.491
 4606POPC   C3B59001   0.756  24.100   6.870
 4606POPC   C4B59002   0.836  24.327   7.223
 4607POPC   NC359003  31.296  12.375   5.388
 4607POPC   PO459004  31.752  11.858   5.424
 4607POPC   GL159005  31.577  11.892   5.834
 4607POPC   GL259006  31.547  12.239   5.830
 4607POPC   C1A59007  31.695  11.895   6.246
 4607POPC   D2A59008  31.601  12.132   6.569
 4607POPC   C3A59009  31.782  12.025   6.923
 4607POPC   C4A59010  31.536  11.970   7.250
 4607POPC   C1B59011  31.390  12.435   6.222
 4607POPC   C2B59012  31.356  12.642   6.612
 4607POPC   C3B59013  31.421  12.390   6.970
 4607POPC   C4B59014  31.528  12.472   7.394
 4608POPC   NC359015   4.889   5.631   5.078
 4608POPC   PO459016   5.465   6.107   5.203
 4608POPC   GL159017   5.150   5.965   5.554
 4608POPC   GL259018   5.209   5.660   5.813
 4608POPC   C1A59019   4.972   6.109   5.976
 4608POPC   D2A59020   5.165   6.186   6.388
 4608POPC   C3A59021   5.134   5.884   6.745
 4608POPC   C4A59022   5.242   6.024   7.172
 4608POPC   C1B59023   5.004   5.669   6.261
 4608POPC   C2B59024   4.685   5.534   6.589
 4608POPC   C3B59025   4.776   5.341   6.973
 4608POPC   C4B59026   5.134   5.509   7.145
 4609POPC   NC359027  31.029   8.504   5.027
 4609POPC   PO459028  30.581   8.188   5.468
 4609POPC   GL159029  30.766   8.046   5.834
 4609POPC   GL259030  30.428   7.947   5.916
 4609POPC   C1A59031  30.990   8.202   6.209
 4609POPC   D2A59032  30.897   8.457   6.598
 4609POPC   C3A59033  31.007   8.282   7.023
 4609POPC   C4A59034  30.799   8.119   7.430
 4609POPC   C1B59035  30.489   8.236   6.256
 4609POPC   C2B59036  30.502   8.102   6.670
 4609POPC   C3B59037  30.495   8.278   7.058
 4609POPC   C4B59038  30.299   8.197   7.444
 4610POPC   NC359039   2.909  16.216   5.144
 4610POPC   PO459040   2.430  16.384   5.618
 4610POPC   GL159041   2.664  15.941   5.794
 4610POPC   GL259042   2.612  15.582   5.714
 4610POPC   C1A59043   2.972  15.845   6.191
 4610POPC   D2A59044   3.173  15.907   6.635
 4610POPC   C3A59045   2.863  16.012   6.905
 4610POPC   C4A59046   2.694  15.909   7.289
 4610POPC   C1B59047   2.490  15.666   6.151
 4610POPC   C2B59048   2.503  15.953   6.472
 4610POPC   C3B59049   2.385  15.839   6.863
 4610POPC   C4B59050   2.234  16.045   7.203
 4611POPC   NC359051  14.113  19.004   5.419
 4611POPC   PO459052  14.704  19.431   5.311
 4611POPC   GL159053  14.544  19.163   5.683
 4611POPC   GL259054  14.817  18.977   5.860
 4611POPC   C1A59055  14.308  19.027   6.077
 4611POPC   D2A59056  14.104  19.029   6.530
 4611POPC   C3A59057  14.207  19.140   6.990
 4611POPC   C4A59058  14.247  19.133   7.447
 4611POPC   C1B59059  14.758  19.166   6.296
 4611POPC   C2B59060  14.646  19.022   6.711
 4611POPC   C3B59061  14.634  18.892   7.151
 4611POPC   C4B59062  14.750  19.051   7.547
 4612POPC   NC359063  33.791  29.520   5.344
 4612POPC   PO459064  33.898  28.801   5.353
 4612POPC   GL159065  33.961  29.121   5.713
 4612POPC   GL259066  33.629  29.124   5.838
 4612POPC   C1A59067  33.978  29.043   6.186
 4612POPC   D2A59068  33.753  29.099   6.564
 4612POPC   C3A59069  33.986  29.071   6.921
 4612POPC   C4A59070  34.000  29.181   7.324
 4612POPC   C1B59071  33.489  29.375   6.206
 4612POPC   C2B59072  33.606  29.593   6.609
 4612POPC   C3B59073  33.613  29.423   7.050
 4612POPC   C4B59074  33.626  29.457   7.522
 4613POPC   NC359075   9.170   7.603   5.508
 4613POPC   PO459076   9.012   6.962   5.498
 4613POPC   GL159077   9.028   7.251   5.859
 4613POPC   GL259078   8.745   7.522   5.847
 4613POPC   C1A59079   9.276   7.437   6.219
 4613POPC   D2A59080   9.121   7.583   6.638
 4613POPC   C3A59081   9.370   7.591   7.029
 4613POPC   C4A59082   9.461   7.225   7.265
 4613POPC   C1B59083   8.785   7.348   6.294
 4613POPC   C2B59084   8.662   7.215   6.714
 4613POPC   C3B59085   8.910   7.351   7.067
 4613POPC   C4B59086   9.017   7.511   7.473
 4614POPC   NC359087  15.433  23.071   5.762
 4614POPC   PO459088  14.901  22.894   5.420
 4614POPC   GL159089  15.025  22.741   5.859
 4614POPC   GL259090  15.334  22.550   5.848
 4614POPC   C1A59091  14.996  22.782   6.345
 4614POPC   D2A59092  14.842  22.586   6.770
 4614POPC   C3A59093  14.888  22.826   7.177
 4614POPC   C4A59094  15.036  22.646   7.598
 4614POPC   C1B59095  15.494  22.636   6.246
 4614POPC   C2B59096  15.451  22.804   6.672
 4614POPC   C3B59097  15.345  22.611   7.066
 4614POPC   C4B59098  15.406  22.310   7.382
 4615POPC   NC359099  13.074  43.441   5.434
 4615POPC   PO459100  12.457  43.135   5.419
 4615POPC   GL159101  12.745  43.264   5.798
 4615POPC   GL259102  13.080  43.064   5.826
 4615POPC   C1A59103  12.735  43.329   6.282
 4615POPC   D2A59104  13.035  43.195   6.669
 4615POPC   C3A59105  12.900  43.331   7.084
 4615POPC   C4A59106  12.471  43.426   7.124
 4615POPC   C1B59107  12.967  42.884   6.249
 4615POPC   C2B59108  12.617  42.902   6.569
 4615POPC   C3B59109  12.725  42.861   6.987
 4615POPC   C4B59110  13.169  42.894   7.156
 4616POPC   NC359111   5.260   0.303   5.337
 4616POPC   PO459112   4.624   0.710   5.282
 4616POPC   GL159113   4.812   0.671   5.718
 4616POPC   GL259114   5.066   0.436   5.770
 4616POPC   C1A59115   4.960   0.713   6.161
 4616POPC   D2A59116   4.863   0.841   6.540
 4616POPC   C3A59117   5.026   0.748   6.942
 4616POPC   C4A59118   4.687   0.647   7.191
 4616POPC   C1B59119   5.058   0.218   6.147
 4616POPC   C2B59120   5.113   0.137   6.586
 4616POPC   C3B59121   4.959   0.228   6.999
 4616POPC   C4B59122   5.288   0.416   7.221
 4617POPC   NC359123  40.553   5.158   5.315
 4617POPC   PO459124  40.898   4.617   5.241
 4617POPC   GL159125  40.862   4.899   5.659
 4617POPC   GL259126  40.796   5.293   5.754
 4617POPC   C1A59127  40.943   4.917   6.133
 4617POPC   D2A59128  41.044   4.691   6.534
 4617POPC   C3A59129  40.794   4.795   6.914
 4617POPC   C4A59130  40.707   4.891   7.344
 4617POPC   C1B59131  40.615   5.294   6.196
 4617POPC   C2B59132  40.608   5.180   6.649
 4617POPC   C3B59133  40.633   5.347   7.102
 4617POPC   C4B59134  40.549   5.317   7.598
 4618POPC   NC359135  39.853  16.804   5.529
 4618POPC   PO459136  40.428  16.647   5.246
 4618POPC   GL159137  40.205  16.473   5.727
 4618POPC   GL259138  39.944  16.687   6.002
 4618POPC   C1A59139  40.247  16.365   6.205
 4618POPC   D2A59140  40.058  16.693   6.509
 4618POPC   C3A59141  40.111  16.736   6.947
 4618POPC   C4A59142  40.347  16.408   7.165
 4618POPC   C1B59143  39.852  17.098   6.279
 4618POPC   C2B59144  39.918  17.258   6.727
 4618POPC   C3B59145  39.839  17.155   7.172
 4618POPC   C4B59146  39.667  17.054   7.616
 4619POPC   NC359147  15.333  12.757   5.249
 4619POPC   PO459148  14.702  12.839   5.533
 4619POPC   GL159149  14.896  12.824   5.894
 4619POPC   GL259150  15.238  12.865   5.774
 4619POPC   C1A59151  14.879  12.699   6.328
 4619POPC   D2A59152  15.186  12.765   6.639
 4619POPC   C3A59153  15.118  12.729   7.045
 4619POPC   C4A59154  15.250  13.117   7.222
 4619POPC   C1B59155  15.264  12.471   6.008
 4619POPC   C2B59156  15.316  12.336   6.427
 4619POPC   C3B59157  15.281  12.273   6.885
 4619POPC   C4B59158  15.399  12.423   7.346
 4620POPC   NC359159  19.334  26.360   5.613
 4620POPC   PO459160  19.557  25.874   5.138
 4620POPC   GL159161  19.618  25.877   5.630
 4620POPC   GL259162  19.409  25.962   5.924
 4620POPC   C1A59163  19.874  25.874   6.054
 4620POPC   D2A59164  19.698  25.833   6.503
 4620POPC   C3A59165  19.909  25.869   6.922
 4620POPC   C4A59166  19.622  25.722   7.270
 4620POPC   C1B59167  19.524  26.247   6.235
 4620POPC   C2B59168  19.378  26.297   6.634
 4620POPC   C3B59169  19.521  26.158   7.018
 4620POPC   C4B59170  19.789  26.180   7.382
 4621POPC   NC359171  10.341  20.369   5.432
 4621POPC   PO459172  10.372  21.008   5.660
 4621POPC   GL159173  10.342  20.632   5.898
 4621POPC   GL259174  10.680  20.461   5.851
 4621POPC   C1A59175  10.414  20.621   6.344
 4621POPC   D2A59176  10.710  20.749   6.657
 4621POPC   C3A59177  10.547  20.821   7.070
 4621POPC   C4A59178  10.249  20.585   7.304
 4621POPC   C1B59179  10.880  20.307   6.259
 4621POPC   C2B59180  10.891  20.269   6.735
 4621POPC   C3B59181  10.647  20.268   7.101
 4621POPC   C4B59182  10.712  20.284   7.533
 4622POPC   NC359183  11.612  37.250   5.171
 4622POPC   PO459184  11.095  36.891   5.390
 4622POPC   GL159185  11.351  36.961   5.772
 4622POPC   GL259186  11.149  36.718   5.928
 4622POPC   C1A59187  11.291  37.132   6.216
 4622POPC   D2A59188  11.191  36.914   6.596
 4622POPC   C3A59189  11.353  36.937   7.016
 4622POPC   C4A59190  11.177  37.161   7.378
 4622POPC   C1B59191  11.470  36.611   6.244
 4622POPC   C2B59192  11.576  36.565   6.646
 4622POPC   C3B59193  11.279  36.434   6.901
 4622POPC   C4B59194  11.357  36.481   7.294
 4623POPC   NC359195  12.542  12.064   5.432
 4623POPC   PO459196  13.241  12.028   5.519
 4623POPC   GL159197  13.033  12.110   5.898
 4623POPC   GL259198  12.851  12.351   5.739
 4623POPC   C1A59199  12.704  12.014   6.220
 4623POPC   D2A59200  12.685  11.671   6.525
 4623POPC   C3A59201  12.949  11.748   6.861
 4623POPC   C4A59202  12.902  11.935   7.240
 4623POPC   C1B59203  12.530  12.488   6.047
 4623POPC   C2B59204  12.471  12.454   6.498
 4623POPC   C3B59205  12.706  12.300   6.857
 4623POPC   C4B59206  12.752  12.407   7.289
 4624POPC   NC359207  33.509  27.680   5.616
 4624POPC   PO459208  32.926  27.507   5.509
 4624POPC   GL159209  33.037  27.671   5.874
 4624POPC   GL259210  32.715  27.848   5.914
 4624POPC   C1A59211  33.334  27.639   6.233
 4624POPC   D2A59212  33.595  27.518   6.575
 4624POPC   C3A59213  33.365  27.604   6.960
 4624POPC   C4A59214  33.089  27.369   7.232
 4624POPC   C1B59215  32.929  27.978   6.264
 4624POPC   C2B59216  33.007  27.748   6.610
 4624POPC   C3B59217  32.848  27.746   6.958
 4624POPC   C4B59218  32.976  27.875   7.301
 4625POPC   NC359219  41.923  43.196   5.080
 4625POPC   PO459220  41.438  43.280   5.446
 4625POPC   GL159221  41.572  43.306   5.883
 4625POPC   GL259222  41.370  43.034   5.993
 4625POPC   C1A59223  41.714  43.232   6.320
 4625POPC   D2A59224  41.457  42.986   6.645
 4625POPC   C3A59225  41.582  43.062   7.090
 4625POPC   C4A59226  41.976  43.277   7.200
 4625POPC   C1B59227  41.228  43.338   6.305
 4625POPC   C2B59228  41.165  43.393   6.739
 4625POPC   C3B59229  41.311  43.625   7.066
 4625POPC   C4B59230  41.475  43.483   7.456
 4626POPC   NC359231  30.971   8.429   5.571
 4626POPC   PO459232  30.520   8.875   5.430
 4626POPC   GL159233  30.694   8.842   5.802
 4626POPC   GL259234  30.591   9.171   5.928
 4626POPC   C1A59235  30.712   8.750   6.220
 4626POPC   D2A59236  30.538   8.961   6.572
 4626POPC   C3A59237  30.642   8.741   6.933
 4626POPC   C4A59238  30.776   8.650   7.347
 4626POPC   C1B59239  30.963   9.216   6.182
 4626POPC   C2B59240  31.046   9.018   6.574
 4626POPC   C3B59241  30.943   9.126   7.016
 4626POPC   C4B59242  31.014   9.160   7.451
 4627POPC   NC359243   9.964  16.217   5.312
 4627POPC   PO459244   9.674  15.639   5.619
 4627POPC   GL159245   9.543  15.807   5.973
 4627POPC   GL259246   9.585  16.139   5.773
 4627POPC   C1A59247   9.754  15.766   6.385
 4627POPC   D2A59248  10.070  15.908   6.682
 4627POPC   C3A59249   9.928  15.887   7.116
 4627POPC   C4A59250   9.504  15.968   7.276
 4627POPC   C1B59251   9.783  16.228   6.158
 4627POPC   C2B59252   9.548  16.368   6.520
 4627POPC   C3B59253   9.679  16.288   6.918
 4627POPC   C4B59254   9.869  16.462   7.292
 4628POPC   NC359255  28.566  13.241   5.613
 4628POPC   PO459256  28.235  12.693   5.347
 4628POPC   GL159257  28.175  12.859   5.804
 4628POPC   GL259258  28.110  13.242   5.837
 4628POPC   C1A59259  28.279  12.727   6.251
 4628POPC   D2A59260  28.487  12.636   6.632
 4628POPC   C3A59261  28.287  12.625   7.031
 4628POPC   C4A59262  28.404  12.822   7.413
 4628POPC   C1B59263  28.383  13.233   6.207
 4628POPC   C2B59264  28.275  13.214   6.596
 4628POPC   C3B59265  28.433  13.123   6.976
 4628POPC   C4B59266  28.393  13.343   7.349
 4629POPC   NC359267  36.124   5.170   5.302
 4629POPC   PO459268  35.449   5.054   5.298
 4629POPC   GL159269  35.751   5.208   5.703
 4629POPC   GL259270  36.118   5.111   5.797
 4629POPC   C1A59271  35.800   5.227   6.180
 4629POPC   D2A59272  35.751   4.960   6.586
 4629POPC   C3A59273  35.916   5.111   7.020
 4629POPC   C4A59274  36.085   5.141   7.493
 4629POPC   C1B59275  36.159   4.863   6.197
 4629POPC   C2B59276  36.272   4.884   6.655
 4629POPC   C3B59277  36.371   4.847   7.110
 4629POPC   C4B59278  36.386   4.759   7.546
 4630POPC   NC359279   8.098  28.595   5.410
 4630POPC   PO459280   8.631  28.272   5.510
 4630POPC   GL159281   8.432  28.523   5.799
 4630POPC   GL259282   8.180  28.252   5.855
 4630POPC   C1A59283   8.386  28.539   6.252
 4630POPC   D2A59284   8.290  28.353   6.668
 4630POPC   C3A59285   8.415  28.564   7.036
 4630POPC   C4A59286   8.464  28.786   7.398
 4630POPC   C1B59287   7.943  28.280   6.294
 4630POPC   C2B59288   7.764  28.399   6.707
 4630POPC   C3B59289   7.949  28.252   7.064
 4630POPC   C4B59290   8.361  28.054   7.096
 4631POPC   NC359291  31.828  32.486   5.376
 4631POPC   PO459292  31.252  32.589   5.454
 4631POPC   GL159293  31.486  32.369   5.805
 4631POPC   GL259294  31.204  32.387   6.006
 4631POPC   C1A59295  31.628  32.304   6.297
 4631POPC   D2A59296  31.562  32.445   6.791
 4631POPC   C3A59297  31.625  32.146   7.166
 4631POPC   C4A59298  31.664  31.988   7.613
 4631POPC   C1B59299  31.247  32.605   6.420
 4631POPC   C2B59300  31.034  32.556   6.840
 4631POPC   C3B59301  31.188  32.472   7.269
 4631POPC   C4B59302  31.609  32.593   7.412
 4632POPC   NC359303  44.524  11.116   5.618
 4632POPC   PO459304  44.914  11.734   5.534
 4632POPC   GL159305  44.831  11.417   5.928
 4632POPC   GL259306  44.952  11.034   5.865
 4632POPC   C1A59307  44.567  11.405   6.378
 4632POPC   D2A59308  44.383  11.121   6.708
 4632POPC   C3A59309  44.515  11.153   7.155
 4632POPC   C4A59310  44.657  11.468   7.491
 4632POPC   C1B59311  44.829  10.975   6.289
 4632POPC   C2B59312  44.957  11.221   6.657
 4632POPC   C3B59313  44.966  11.371   7.067
 4632POPC   C4B59314   0.040  11.143   7.452
 4633POPC   NC359315  28.568  20.337   5.342
 4633POPC   PO459316  28.350  19.696   5.399
 4633POPC   GL159317  28.229  19.892   5.818
 4633POPC   GL259318  28.395  20.230   5.825
 4633POPC   C1A59319  28.306  19.941   6.292
 4633POPC   D2A59320  28.573  19.670   6.582
 4633POPC   C3A59321  28.396  19.665   6.993
 4633POPC   C4A59322  27.980  19.843   7.089
 4633POPC   C1B59323  28.602  20.503   6.148
 4633POPC   C2B59324  28.437  20.552   6.553
 4633POPC   C3B59325  28.317  20.176   6.787
 4633POPC   C4B59326  28.374  20.132   7.211
 4634POPC   NC359327  24.986  22.573   5.519
 4634POPC   PO459328  25.241  23.194   5.407
 4634POPC   GL159329  25.344  22.921   5.738
 4634POPC   GL259330  25.027  22.963   5.890
 4634POPC   C1A59331  25.484  22.780   6.171
 4634POPC   D2A59332  25.581  23.009   6.579
 4634POPC   C3A59333  25.400  22.895   7.001
 4634POPC   C4A59334  25.262  22.718   7.412
 4634POPC   C1B59335  25.222  23.213   6.235
 4634POPC   C2B59336  25.102  23.295   6.685
 4634POPC   C3B59337  25.209  23.357   7.136
 4634POPC   C4B59338  25.360  23.521   7.576
 4635POPC   NC359339  27.744  24.657   5.621
 4635POPC   PO459340  27.690  23.983   5.537
 4635POPC   GL159341  27.793  24.214   5.875
 4635POPC   GL259342  27.471  24.360   5.933
 4635POPC   C1A59343  27.860  24.459   6.260
 4635POPC   D2A59344  27.800  24.380   6.704
 4635POPC   C3A59345  27.670  24.647   7.036
 4635POPC   C4A59346  27.596  24.546   7.471
 4635POPC   C1B59347  27.368  24.312   6.373
 4635POPC   C2B59348  27.249  24.370   6.800
 4635POPC   C3B59349  27.152  24.354   7.225
 4635POPC   C4B59350  27.113  24.302   7.684
 4636POPC   NC359351  10.666   3.610   5.379
 4636POPC   PO459352  10.098   3.703   5.714
 4636POPC   GL159353  10.397   3.411   5.835
 4636POPC   GL259354  10.176   3.332   6.080
 4636POPC   C1A59355  10.701   3.365   6.185
 4636POPC   D2A59356  10.848   3.573   6.572
 4636POPC   C3A59357  10.716   3.342   6.949
 4636POPC   C4A59358  10.620   3.410   7.383
 4636POPC   C1B59359  10.281   3.060   6.410
 4636POPC   C2B59360  10.267   3.100   6.858
 4636POPC   C3B59361  10.155   3.248   7.263
 4636POPC   C4B59362  10.220   3.336   7.705
 4637POPC   NC359363  23.822   5.694   5.164
 4637POPC   PO459364  23.980   5.049   5.474
 4637POPC   GL159365  23.820   5.093   5.882
 4637POPC   GL259366  24.067   4.834   5.964
 4637POPC   C1A59367  23.560   5.040   6.276
 4637POPC   D2A59368  23.540   4.851   6.737
 4637POPC   C3A59369  23.515   5.112   7.117
 4637POPC   C4A59370  23.578   5.254   7.542
 4637POPC   C1B59371  23.996   4.805   6.356
 4637POPC   C2B59372  24.044   4.990   6.710
 4637POPC   C3B59373  23.984   4.879   7.129
 4637POPC   C4B59374  24.120   5.042   7.509
 4638POPC   NC359375  24.774  18.212   5.440
 4638POPC   PO459376  24.147  18.074   5.145
 4638POPC   GL159377  24.252  18.230   5.629
 4638POPC   GL259378  24.381  18.529   5.775
 4638POPC   C1A59379  24.330  18.105   6.132
 4638POPC   D2A59380  24.438  17.885   6.569
 4638POPC   C3A59381  24.653  18.122   6.915
 4638POPC   C4A59382  24.622  18.126   7.378
 4638POPC   C1B59383  24.499  18.593   6.244
 4638POPC   C2B59384  24.343  18.457   6.679
 4638POPC   C3B59385  24.344  18.511   7.161
 4638POPC   C4B59386  24.127  18.662   7.533
 4639POPC   NC359387  20.659  44.089   5.361
 4639POPC   PO459388  20.555  43.437   5.340
 4639POPC   GL159389  20.529  43.815   5.749
 4639POPC   GL259390  20.706  44.165   5.859
 4639POPC   C1A59391  20.423  43.879   6.209
 4639POPC   D2A59392  20.405  43.551   6.549
 4639POPC   C3A59393  20.734  43.556   6.878
 4639POPC   C4A59394  20.646  43.819   7.254
 4639POPC   C1B59395  20.439  44.400   6.196
 4639POPC   C2B59396  20.479  44.277   6.623
 4639POPC   C3B59397  20.331  44.178   7.040
 4639POPC   C4B59398  20.329  44.402   7.418
 4640POPC   NC359399  17.098  25.020   5.605
 4640POPC   PO459400  17.655  25.325   5.346
 4640POPC   GL159401  17.475  25.535   5.733
 4640POPC   GL259402  17.355  25.291   5.940
 4640POPC   C1A59403  17.610  25.645   6.203
 4640POPC   D2A59404  17.883  25.598   6.605
 4640POPC   C3A59405  17.650  25.544   7.021
 4640POPC   C4A59406  17.567  25.405   7.483
 4640POPC   C1B59407  17.172  25.410   6.317
 4640POPC   C2B59408  17.263  25.251   6.735
 4640POPC   C3B59409  17.188  25.345   7.169
 4640POPC   C4B59410  17.132  25.145   7.609
 4641POPC   NC359411  28.359  40.205   5.453
 4641POPC   PO459412  28.032  39.623   5.422
 4641POPC   GL159413  28.287  39.782   5.799
 4641POPC   GL259414  28.500  40.113   5.921
 4641POPC   C1A59415  28.403  39.724   6.234
 4641POPC   D2A59416  28.572  40.024   6.532
 4641POPC   C3A59417  28.534  39.904   6.965
 4641POPC   C4A59418  28.269  39.642   7.184
 4641POPC   C1B59419  28.190  40.213   6.222
 4641POPC   C2B59420  28.109  40.196   6.676
 4641POPC   C3B59421  28.295  40.341   7.040
 4641POPC   C4B59422  28.582  40.271   7.339
 4642POPC   NC359423  41.946  28.689   5.560
 4642POPC   PO459424  42.443  28.333   5.284
 4642POPC   GL159425  42.326  28.396   5.764
 4642POPC   GL259426  42.002  28.300   5.877
 4642POPC   C1A59427  42.468  28.572   6.180
 4642POPC   D2A59428  42.440  28.375   6.593
 4642POPC   C3A59429  42.506  28.550   6.987
 4642POPC   C4A59430  42.737  28.319   7.259
 4642POPC   C1B59431  42.026  28.309   6.310
 4642POPC   C2B59432  41.929  28.328   6.751
 4642POPC   C3B59433  42.013  28.372   7.180
 4642POPC   C4B59434  42.027  28.338   7.657
 4643POPC   NC359435  44.664  33.130   5.423
 4643POPC   PO459436  44.855  32.454   5.452
 4643POPC   GL159437  44.836  32.788   5.809
 4643POPC   GL259438  44.470  32.856   5.815
 4643POPC   C1A59439  44.942  33.000   6.244
 4643POPC   D2A59440  44.825  33.024   6.725
 4643POPC   C3A59441  44.920  32.928   7.175
 4643POPC   C4A59442  44.655  33.127   7.498
 4643POPC   C1B59443  44.460  32.777   6.244
 4643POPC   C2B59444  44.338  32.880   6.660
 4643POPC   C3B59445  44.418  32.820   7.095
 4643POPC   C4B59446  44.346  32.710   7.556
 4644POPC   NC359447   4.016   5.680   5.243
 4644POPC   PO459448   4.653   5.893   5.406
 4644POPC   GL159449   4.385   5.787   5.798
 4644POPC   GL259450   4.013   5.860   5.806
 4644POPC   C1A59451   4.482   5.882   6.255
 4644POPC   D2A59452   4.460   6.003   6.715
 4644POPC   C3A59453   4.694   5.849   7.067
 4644POPC   C4A59454   4.431   5.561   7.294
 4644POPC   C1B59455   3.986   6.031   6.265
 4644POPC   C2B59456   3.957   6.123   6.739
 4644POPC   C3B59457   4.062   5.876   7.122
 4644POPC   C4B59458   4.026   5.723   7.587
 4645POPC   NC359459  10.678  12.534   5.292
 4645POPC   PO459460  10.662  13.149   4.998
 4645POPC   GL159461  10.759  13.116   5.522
 4645POPC   GL259462  10.764  12.779   5.742
 4645POPC   C1A59463  10.716  13.188   6.036
 4645POPC   D2A59464  10.392  13.051   6.377
 4645POPC   C3A59465  10.450  13.004   6.833
 4645POPC   C4A59466  10.517  12.881   7.259
 4645POPC   C1B59467  10.696  12.652   6.213
 4645POPC   C2B59468  10.814  12.628   6.683
 4645POPC   C3B59469  10.835  12.393   7.093
 4645POPC   C4B59470  10.788  12.526   7.516
 4646POPC   NC359471   3.944   8.958   5.364
 4646POPC   PO459472   3.455   9.277   5.452
 4646POPC   GL159473   3.444   9.106   5.828
 4646POPC   GL259474   3.802   9.119   5.830
 4646POPC   C1A59475   3.242   9.194   6.239
 4646POPC   D2A59476   3.222   9.010   6.677
 4646POPC   C3A59477   3.378   9.238   7.076
 4646POPC   C4A59478   3.622   9.173   7.454
 4646POPC   C1B59479   3.773   8.975   6.243
 4646POPC   C2B59480   3.678   8.684   6.566
 4646POPC   C3B59481   3.451   8.538   6.913
 4646POPC   C4B59482   3.571   8.709   7.281
 4647POPC   NC359483  26.330  20.760   5.666
 4647POPC   PO459484  26.543  20.201   5.346
 4647POPC   GL159485  26.700  20.427   5.742
 4647POPC   GL259486  26.381  20.361   5.944
 4647POPC   C1A59487  26.743  20.739   6.144
 4647POPC   D2A59488  27.047  20.882   6.467
 4647POPC   C3A59489  26.923  20.906   6.892
 4647POPC   C4A59490  26.750  20.866   7.312
 4647POPC   C1B59491  26.715  20.244   6.215
 4647POPC   C2B59492  26.845  20.417   6.576
 4647POPC   C3B59493  26.707  20.297   6.950
 4647POPC   C4B59494  26.529  20.393   7.359
 4648POPC   NC359495   9.029  29.932   5.069
 4648POPC   PO459496   8.634  29.453   5.324
 4648POPC   GL159497   8.843  29.640   5.742
 4648POPC   GL259498   8.986  29.997   5.727
 4648POPC   C1A59499   9.044  29.705   6.141
 4648POPC   D2A59500   9.034  29.963   6.484
 4648POPC   C3A59501   8.970  29.806   6.916
 4648POPC   C4A59502   9.070  29.964   7.342
 4648POPC   C1B59503   8.775  30.215   6.084
 4648POPC   C2B59504   8.826  30.413   6.503
 4648POPC   C3B59505   8.907  30.324   6.938
 4648POPC   C4B59506   8.606  30.078   7.154
 4649POPC   NC359507  17.517  30.003   5.323
 4649POPC   PO459508  17.297  29.399   5.526
 4649POPC   GL159509  17.236  29.717   5.817
 4649POPC   GL259510  17.525  29.942   5.843
 4649POPC   C1A59511  17.301  29.653   6.246
 4649POPC   D2A59512  17.495  29.716   6.633
 4649POPC   C3A59513  17.388  30.103   6.863
 4649POPC   C4A59514  17.246  30.201   7.266
 4649POPC   C1B59515  17.548  30.103   6.272
 4649POPC   C2B59516  17.844  30.105   6.605
 4649POPC   C3B59517  17.825  29.864   7.001
 4649POPC   C4B59518  17.752  30.069   7.348
 4650POPC   NC359519  44.042  43.027   5.516
 4650POPC   PO459520  43.477  43.232   5.352
 4650POPC   GL159521  43.676  43.301   5.761
 4650POPC   GL259522  43.731  42.947   5.904
 4650POPC   C1A59523  43.851  43.379   6.183
 4650POPC   D2A59524  43.753  43.194   6.588
 4650POPC   C3A59525  43.956  43.296   6.980
 4650POPC   C4A59526  43.765  43.591   7.223
 4650POPC   C1B59527  43.600  42.790   6.291
 4650POPC   C2B59528  43.885  42.691   6.602
 4650POPC   C3B59529  43.963  42.786   6.980
 4650POPC   C4B59530  44.019  42.912   7.402
 4651POPC   NC359531  39.699  18.272   5.284
 4651POPC   PO459532  39.047  18.144   5.480
 4651POPC   GL159533  39.034  18.077   5.891
 4651POPC   GL259534  39.234  18.395   5.955
 4651POPC   C1A59535  38.907  18.209   6.293
 4651POPC   D2A59536  39.167  18.503   6.516
 4651POPC   C3A59537  39.172  18.309   6.897
 4651POPC   C4A59538  38.877  18.188   7.149
 4651POPC   C1B59539  39.420  18.094   6.262
 4651POPC   C2B59540  39.644  18.171   6.652
 4651POPC   C3B59541  39.625  18.507   6.966
 4651POPC   C4B59542  39.423  18.397   7.354
 4652POPC   NC359543  29.378  13.793   5.421
 4652POPC   PO459544  28.795  13.521   5.326
 4652POPC   GL159545  29.007  13.442   5.763
 4652POPC   GL259546  29.191  13.716   5.958
 4652POPC   C1A59547  28.896  13.424   6.232
 4652POPC   D2A59548  29.074  13.724   6.562
 4652POPC   C3A59549  29.123  13.540   6.987
 4652POPC   C4A59550  29.282  13.648   7.421
 4652POPC   C1B59551  29.406  13.447   6.300
 4652POPC   C2B59552  29.498  13.226   6.698
 4652POPC   C3B59553  29.283  13.064   7.060
 4652POPC   C4B59554  29.281  13.141   7.525
 4653POPC   NC359555   5.134  30.088   5.533
 4653POPC   PO459556   5.328  29.422   5.407
 4653POPC   GL159557   5.078  29.610   5.730
 4653POPC   GL259558   5.348  29.757   5.874
 4653POPC   C1A59559   4.897  29.788   6.102
 4653POPC   D2A59560   4.874  29.747   6.544
 4653POPC   C3A59561   4.850  30.095   6.846
 4653POPC   C4A59562   4.791  29.984   7.275
 4653POPC   C1B59563   5.343  29.996   6.282
 4653POPC   C2B59564   5.317  29.917   6.731
 4653POPC   C3B59565   5.309  29.994   7.166
 4653POPC   C4B59566   5.510  29.743   7.467
 4654POPC   NC359567   8.530  39.839   5.572
 4654POPC   PO459568   7.899  40.140   5.473
 4654POPC   GL159569   8.117  40.043   5.851
 4654POPC   GL259570   8.024  39.795   6.097
 4654POPC   C1A59571   8.377  40.187   6.188
 4654POPC   D2A59572   8.278  40.441   6.565
 4654POPC   C3A59573   8.401  40.288   6.953
 4654POPC   C4A59574   8.360  40.351   7.392
 4654POPC   C1B59575   7.840  39.413   6.263
 4654POPC   C2B59576   7.761  39.458   6.696
 4654POPC   C3B59577   8.094  39.672   6.938
 4654POPC   C4B59578   8.080  39.937   7.278
 4655POPC   NC359579  34.384  32.728   5.467
 4655POPC   PO459580  34.613  32.033   5.474
 4655POPC   GL159581  34.577  32.068   5.883
 4655POPC   GL259582  34.358  32.327   5.836
 4655POPC   C1A59583  34.666  32.096   6.315
 4655POPC   D2A59584  34.708  31.788   6.647
 4655POPC   C3A59585  34.549  31.924   6.983
 4655POPC   C4A59586  34.752  32.290   7.144
 4655POPC   C1B59587  34.247  32.432   6.288
 4655POPC   C2B59588  34.430  32.336   6.698
 4655POPC   C3B59589  34.237  32.322   7.096
 4655POPC   C4B59590  34.138  32.563   7.415
 4656POPC   NC359591  42.531  36.405   5.353
 4656POPC   PO459592  42.017  36.137   5.346
 4656POPC   GL159593  42.167  36.226   5.768
 4656POPC   GL259594  42.506  36.154   5.878
 4656POPC   C1A59595  42.107  36.109   6.202
 4656POPC   D2A59596  42.430  36.044   6.521
 4656POPC   C3A59597  42.351  36.130   6.958
 4656POPC   C4A59598  42.383  35.902   7.349
 4656POPC   C1B59599  42.532  36.447   6.229
 4656POPC   C2B59600  42.621  36.480   6.672
 4656POPC   C3B59601  42.707  36.502   7.113
 4656POPC   C4B59602  42.592  36.371   7.498
 4657POPC   NC359603  42.634  28.692   5.507
 4657POPC   PO459604  43.140  28.309   5.274
 4657POPC   GL159605  43.158  28.344   5.710
 4657POPC   GL259606  43.185  28.693   5.658
 4657POPC   C1A59607  42.947  28.314   6.106
 4657POPC   D2A59608  42.862  28.090   6.482
 4657POPC   C3A59609  43.157  28.054   6.812
 4657POPC   C4A59610  43.178  28.081   7.263
 4657POPC   C1B59611  43.208  28.765   6.123
 4657POPC   C2B59612  42.944  28.672   6.503
 4657POPC   C3B59613  43.033  28.581   6.942
 4657POPC   C4B59614  43.252  28.884   7.189
 4658POPC   NC359615  29.248  27.015   5.484
 4658POPC   PO459616  28.970  26.360   5.469
 4658POPC   GL159617  28.984  26.541   5.919
 4658POPC   GL259618  29.036  26.898   5.921
 4658POPC   C1A59619  29.311  26.631   6.287
 4658POPC   D2A59620  29.542  26.778   6.690
 4658POPC   C3A59621  29.335  26.574   7.064
 4658POPC   C4A59622  28.963  26.528   7.369
 4658POPC   C1B59623  28.834  27.181   6.200
 4658POPC   C2B59624  28.869  27.100   6.641
 4658POPC   C3B59625  29.200  27.053   6.975
 4658POPC   C4B59626  29.201  26.951   7.457
 4659POPC   NC359627  23.098   9.000   5.454
 4659POPC   PO459628  22.501   8.812   5.582
 4659POPC   GL159629  22.743   9.042   5.887
 4659POPC   GL259630  23.127   9.073   5.941
 4659POPC   C1A59631  22.820   8.907   6.322
 4659POPC   D2A59632  22.807   9.189   6.665
 4659POPC   C3A59633  22.798   9.044   7.070
 4659POPC   C4A59634  22.696   9.085   7.500
 4659POPC   C1B59635  23.305   9.056   6.342
 4659POPC   C2B59636  23.202   8.863   6.715
 4659POPC   C3B59637  23.162   8.672   7.098
 4659POPC   C4B59638  23.166   8.928   7.467
 4660POPC   NC359639  19.097  34.614   5.375
 4660POPC   PO459640  18.807  34.197   5.797
 4660POPC   GL159641  18.989  34.592   5.915
 4660POPC   GL259642  19.333  34.575   5.849
 4660POPC   C1A59643  19.126  34.662   6.351
 4660POPC   D2A59644  19.154  34.513   6.754
 4660POPC   C3A59645  18.842  34.255   6.910
 4660POPC   C4A59646  18.575  34.191   7.241
 4660POPC   C1B59647  19.476  34.942   6.136
 4660POPC   C2B59648  19.614  35.010   6.593
 4660POPC   C3B59649  19.519  34.790   6.987
 4660POPC   C4B59650  19.151  34.649   7.233
 4661POPC   NC359651  15.599  19.966   5.575
 4661POPC   PO459652  16.162  19.581   5.429
 4661POPC   GL159653  15.953  19.637   5.817
 4661POPC   GL259654  16.123  19.917   6.017
 4661POPC   C1A59655  15.790  19.586   6.232
 4661POPC   D2A59656  15.992  19.789   6.581
 4661POPC   C3A59657  15.842  19.693   6.975
 4661POPC   C4A59658  16.062  19.416   7.241
 4661POPC   C1B59659  15.721  20.094   6.234
 4661POPC   C2B59660  15.545  20.041   6.662
 4661POPC   C3B59661  15.687  20.194   7.045
 4661POPC   C4B59662  15.962  20.074   7.374
 4662POPC   NC359663  29.556  37.098   5.302
 4662POPC   PO459664  30.238  36.917   5.248
 4662POPC   GL159665  29.919  36.809   5.599
 4662POPC   GL259666  30.062  36.962   5.862
 4662POPC   C1A59667  29.656  36.708   6.043
 4662POPC   D2A59668  29.452  36.637   6.502
 4662POPC   C3A59669  29.633  36.721   6.950
 4662POPC   C4A59670  29.938  36.960   7.201
 4662POPC   C1B59671  29.911  37.106   6.268
 4662POPC   C2B59672  30.000  36.976   6.673
 4662POPC   C3B59673  30.348  37.032   6.916
 4662POPC   C4B59674  30.469  36.966   7.319
 4663POPC   NC359675  24.837   1.385   5.376
 4663POPC   PO459676  25.441   1.080   5.323
 4663POPC   GL159677  25.133   1.082   5.705
 4663POPC   GL259678  25.159   1.436   5.805
 4663POPC   C1A59679  25.099   1.122   6.208
 4663POPC   D2A59680  25.356   1.413   6.514
 4663POPC   C3A59681  25.600   1.278   6.888
 4663POPC   C4A59682  25.579   0.897   7.179
 4663POPC   C1B59683  24.994   1.633   6.180
 4663POPC   C2B59684  24.849   1.487   6.582
 4663POPC   C3B59685  25.048   1.436   7.009
 4663POPC   C4B59686  25.369   1.349   7.358
 4664POPC   NC359687  31.385  34.938   5.425
 4664POPC   PO459688  31.484  35.526   5.137
 4664POPC   GL159689  31.526  35.428   5.615
 4664POPC   GL259690  31.754  35.125   5.735
 4664POPC   C1A59691  31.442  35.366   6.084
 4664POPC   D2A59692  31.369  35.161   6.511
 4664POPC   C3A59693  31.467  35.363   6.947
 4664POPC   C4A59694  31.771  35.475   7.281
 4664POPC   C1B59695  31.762  34.978   6.221
 4664POPC   C2B59696  31.824  35.078   6.699
 4664POPC   C3B59697  31.761  34.987   7.153
 4664POPC   C4B59698  31.729  34.759   7.570
 4665POPC   NC359699   2.620  10.323   5.344
 4665POPC   PO459700   3.189  10.726   5.504
 4665POPC   GL159701   2.941  10.623   5.858
 4665POPC   GL259702   2.609  10.430   5.844
 4665POPC   C1A59703   3.024  10.721   6.263
 4665POPC   D2A59704   2.934  10.553   6.629
 4665POPC   C3A59705   2.605  10.760   6.753
 4665POPC   C4A59706   2.550  10.789   7.124
 4665POPC   C1B59707   2.527  10.562   6.268
 4665POPC   C2B59708   2.495  10.289   6.620
 4665POPC   C3B59709   2.685  10.298   7.019
 4665POPC   C4B59710   2.828  10.075   7.357
 4666POPC   NC359711  19.298  20.137   5.111
 4666POPC   PO459712  19.046  19.697   5.367
 4666POPC   GL159713  18.919  19.693   5.822
 4666POPC   GL259714  18.971  20.065   5.917
 4666POPC   C1A59715  19.018  19.721   6.293
 4666POPC   D2A59716  18.799  19.848   6.650
 4666POPC   C3A59717  18.939  19.832   7.092
 4666POPC   C4A59718  18.706  19.797   7.477
 4666POPC   C1B59719  19.319  20.117   6.260
 4666POPC   C2B59720  19.269  20.082   6.735
 4666POPC   C3B59721  19.248  20.267   7.160
 4666POPC   C4B59722  19.189  20.082   7.572
 4667POPC   NC359723   0.773  17.653   5.490
 4667POPC   PO459724   1.457  17.388   5.370
 4667POPC   GL159725   1.228  17.474   5.738
 4667POPC   GL259726   1.038  17.176   5.816
 4667POPC   C1A59727   1.111  17.723   6.112
 4667POPC   D2A59728   1.043  17.649   6.546
 4667POPC   C3A59729   1.238  17.643   6.967
 4667POPC   C4A59730   1.260  17.248   7.223
 4667POPC   C1B59731   0.852  17.253   6.258
 4667POPC   C2B59732   0.729  17.114   6.722
 4667POPC   C3B59733   0.745  17.142   7.217
 4667POPC   C4B59734   0.969  17.349   7.628
 4668POPC   NC359735  42.090  34.780   5.271
 4668POPC   PO459736  42.685  34.456   5.162
 4668POPC   GL159737  42.642  34.474   5.641
 4668POPC   GL259738  42.309  34.379   5.744
 4668POPC   C1A59739  42.565  34.657   6.080
 4668POPC   D2A59740  42.321  34.697   6.485
 4668POPC   C3A59741  42.503  34.524   6.877
 4668POPC   C4A59742  42.582  34.625   7.299
 4668POPC   C1B59743  42.109  34.362   6.116
 4668POPC   C2B59744  41.924  34.338   6.495
 4668POPC   C3B59745  41.977  34.554   6.875
 4668POPC   C4B59746  42.120  34.387   7.256
 4669POPC   NC359747  14.237  42.028   5.602
 4669POPC   PO459748  14.789  42.425   5.421
 4669POPC   GL159749  14.791  42.622   5.825
 4669POPC   GL259750  14.481  42.430   5.870
 4669POPC   C1A59751  14.668  42.718   6.247
 4669POPC   D2A59752  14.455  42.531   6.621
 4669POPC   C3A59753  14.327  42.422   7.059
 4669POPC   C4A59754  14.350  42.524   7.498
 4669POPC   C1B59755  14.824  42.171   6.060
 4669POPC   C2B59756  14.909  42.251   6.499
 4669POPC   C3B59757  14.711  42.136   6.897
 4669POPC   C4B59758  14.782  42.341   7.315
 4670POPC   NC359759  43.745   4.932   5.416
 4670POPC   PO459760  44.148   5.404   5.597
 4670POPC   GL159761  44.031   5.031   5.835
 4670POPC   GL259762  43.662   5.126   5.881
 4670POPC   C1A59763  43.944   4.950   6.267
 4670POPC   D2A59764  43.713   5.220   6.558
 4670POPC   C3A59765  43.821   5.217   6.999
 4670POPC   C4A59766  43.990   5.465   7.329
 4670POPC   C1B59767  43.427   4.943   6.218
 4670POPC   C2B59768  43.556   4.630   6.474
 4670POPC   C3B59769  43.396   4.676   6.850
 4670POPC   C4B59770  43.593   4.805   7.202
 4671POPC   NC359771  43.942  37.535   5.397
 4671POPC   PO459772  43.531  37.844   5.826
 4671POPC   GL159773  43.816  37.535   5.917
 4671POPC   GL259774  44.114  37.777   5.812
 4671POPC   C1A59775  43.627  37.373   6.307
 4671POPC   D2A59776  43.332  37.644   6.524
 4671POPC   C3A59777  43.614  37.757   6.841
 4671POPC   C4A59778  43.688  37.474   7.167
 4671POPC   C1B59779  44.303  37.476   6.078
 4671POPC   C2B59780  44.120  37.440   6.481
 4671POPC   C3B59781  44.104  37.536   6.905
 4671POPC   C4B59782  44.036  37.850   7.213
 4672POPC   NC359783   5.471  22.234   5.361
 4672POPC   PO459784   4.753  22.131   5.376
 4672POPC   GL159785   5.013  22.337   5.718
 4672POPC   GL259786   5.263  22.099   5.793
 4672POPC   C1A59787   5.092  22.388   6.190
 4672POPC   D2A59788   4.968  22.213   6.597
 4672POPC   C3A59789   5.198  22.388   6.948
 4672POPC   C4A59790   5.001  22.158   7.227
 4672POPC   C1B59791   5.438  21.945   6.146
 4672POPC   C2B59792   5.470  22.111   6.543
 4672POPC   C3B59793   5.303  21.892   6.883
 4672POPC   C4B59794   5.472  21.988   7.255
 4673POPC   NC359795  10.347   8.205   5.484
 4673POPC   PO459796  10.907   8.480   5.731
 4673POPC   GL159797  10.570   8.398   5.987
 4673POPC   GL259798  10.238   8.508   5.876
 4673POPC   C1A59799  10.592   8.399   6.435
 4673POPC   D2A59800  10.534   8.142   6.792
 4673POPC   C3A59801  10.661   8.235   7.202
 4673POPC   C4A59802  10.949   8.150   7.598
 4673POPC   C1B59803  10.117   8.318   6.249
 4673POPC   C2B59804  10.138   8.473   6.679
 4673POPC   C3B59805  10.127   8.305   7.105
 4673POPC   C4B59806  10.269   7.854   7.146
 4674POPC   NC359807  28.698  35.514   5.732
 4674POPC   PO459808  29.261  35.718   5.356
 4674POPC   GL159809  29.239  35.562   5.768
 4674POPC   GL259810  29.136  35.253   5.826
 4674POPC   C1A59811  29.159  35.541   6.231
 4674POPC   D2A59812  29.347  35.326   6.581
 4674POPC   C3A59813  29.190  35.443   6.980
 4674POPC   C4A59814  29.026  35.525   7.362
 4674POPC   C1B59815  29.041  35.048   6.251
 4674POPC   C2B59816  28.912  35.101   6.705
 4674POPC   C3B59817  28.951  35.025   7.149
 4674POPC   C4B59818  29.303  34.951   7.386
 4675POPC   NC359819  27.980  16.788   5.196
 4675POPC   PO459820  28.494  17.114   5.546
 4675POPC   GL159821  28.376  16.728   5.750
 4675POPC   GL259822  28.020  16.619   5.750
 4675POPC   C1A59823  28.398  16.726   6.198
 4675POPC   D2A59824  28.533  17.044   6.518
 4675POPC   C3A59825  28.498  16.869   6.957
 4675POPC   C4A59826  28.514  16.614   7.317
 4675POPC   C1B59827  27.853  16.411   6.062
 4675POPC   C2B59828  27.868  16.437   6.498
 4675POPC   C3B59829  27.998  16.393   6.905
 4675POPC   C4B59830  28.012  16.656   7.233
 4676POPC   NC359831  33.905   8.690   5.511
 4676POPC   PO459832  33.520   9.168   5.342
 4676POPC   GL159833  33.761   9.185   5.739
 4676POPC   GL259834  34.136   9.138   5.739
 4676POPC   C1A59835  33.657   9.283   6.188
 4676POPC   D2A59836  33.632   8.970   6.551
 4676POPC   C3A59837  33.465   9.056   6.960
 4676POPC   C4A59838  33.480   9.235   7.363
 4676POPC   C1B59839  34.000   8.925   6.161
 4676POPC   C2B59840  34.070   8.723   6.563
 4676POPC   C3B59841  34.059   9.021   6.890
 4676POPC   C4B59842  33.927   9.044   7.300
 4677POPC   NC359843  13.552   2.417   5.372
 4677POPC   PO459844  13.204   2.994   5.579
 4677POPC   GL159845  13.332   2.732   5.935
 4677POPC   GL259846  13.471   2.385   5.900
 4677POPC   C1A59847  13.422   2.869   6.378
 4677POPC   D2A59848  13.477   3.144   6.741
 4677POPC   C3A59849  13.799   3.008   7.042
 4677POPC   C4A59850  13.765   3.003   7.505
 4677POPC   C1B59851  13.780   2.519   6.229
 4677POPC   C2B59852  13.868   2.665   6.643
 4677POPC   C3B59853  13.699   2.512   7.006
 4677POPC   C4B59854  13.384   2.340   7.240
 4678POPC   NC359855  44.641  21.662   5.458
 4678POPC   PO459856  44.938  21.040   5.402
 4678POPC   GL159857  44.836  21.239   5.791
 4678POPC   GL259858  44.546  21.457   5.901
 4678POPC   C1A59859  44.882  21.250   6.226
 4678POPC   D2A59860  44.791  21.510   6.560
 4678POPC   C3A59861  44.879  21.283   6.935
 4678POPC   C4A59862  44.803  21.064   7.362
 4678POPC   C1B59863  44.336  21.575   6.271
 4678POPC   C2B59864  44.322  21.346   6.638
 4678POPC   C3B59865  44.360  21.326   7.021
 4678POPC   C4B59866  44.176  21.669   7.100
 4679POPC   NC359867   8.921  39.693   5.153
 4679POPC   PO459868   8.872  40.269   5.489
 4679POPC   GL159869   8.992  39.925   5.804
 4679POPC   GL259870   9.341  39.847   5.903
 4679POPC   C1A59871   8.751  39.789   6.210
 4679POPC   D2A59872   8.432  39.839   6.560
 4679POPC   C3A59873   8.611  39.813   6.940
 4679POPC   C4A59874   8.682  39.986   7.302
 4679POPC   C1B59875   9.252  39.724   6.311
 4679POPC   C2B59876   9.089  39.780   6.754
 4679POPC   C3B59877   9.175  39.914   7.181
 4679POPC   C4B59878   9.336  39.740   7.572
 4680POPC   NC359879  40.143  21.668   5.337
 4680POPC   PO459880  40.086  22.270   5.280
 4680POPC   GL159881  40.111  22.084   5.700
 4680POPC   GL259882  39.768  22.021   5.817
 4680POPC   C1A59883  40.139  22.352   6.082
 4680POPC   D2A59884  40.272  22.313   6.524
 4680POPC   C3A59885  39.957  22.308   6.893
 4680POPC   C4A59886  40.162  22.371   7.225
 4680POPC   C1B59887  39.970  21.885   6.201
 4680POPC   C2B59888  40.022  21.887   6.629
 4680POPC   C3B59889  40.188  21.869   7.054
 4680POPC   C4B59890  39.887  21.985   7.397
 4681POPC   NC359891  42.690  31.366   5.206
 4681POPC   PO459892  42.241  31.774   5.586
 4681POPC   GL159893  42.351  31.371   5.696
 4681POPC   GL259894  42.673  31.295   5.738
 4681POPC   C1A59895  42.212  31.227   6.097
 4681POPC   D2A59896  41.920  31.425   6.396
 4681POPC   C3A59897  42.137  31.549   6.776
 4681POPC   C4A59898  42.254  31.544   7.206
 4681POPC   C1B59899  42.638  31.544   6.156
 4681POPC   C2B59900  42.497  31.812   6.487
 4681POPC   C3B59901  42.514  31.921   6.908
 4681POPC   C4B59902  42.713  31.781   7.264
 4682POPC   NC359903  18.957  38.212   5.616
 4682POPC   PO459904  19.407  38.616   5.384
 4682POPC   GL159905  19.266  38.546   5.846
 4682POPC   GL259906  18.899  38.582   5.946
 4682POPC   C1A59907  19.211  38.266   6.246
 4682POPC   D2A59908  19.376  38.026   6.642
 4682POPC   C3A59909  19.300  38.261   7.032
 4682POPC   C4A59910  19.089  38.657   7.128
 4682POPC   C1B59911  18.575  38.463   6.257
 4682POPC   C2B59912  18.510  38.332   6.703
 4682POPC   C3B59913  18.586  38.517   7.141
 4682POPC   C4B59914  18.811  38.503   7.539
 4683POPC   NC359915   9.550  17.114   5.465
 4683POPC   PO459916   9.609  16.506   5.188
 4683POPC   GL159917   9.708  16.635   5.664
 4683POPC   GL259918  10.047  16.500   5.771
 4683POPC   C1A59919   9.691  16.719   6.153
 4683POPC   D2A59920   9.602  16.904   6.581
 4683POPC   C3A59921   9.563  16.766   7.021
 4683POPC   C4A59922   9.622  16.850   7.485
 4683POPC   C1B59923  10.174  16.846   6.089
 4683POPC   C2B59924  10.109  16.960   6.508
 4683POPC   C3B59925  10.069  16.843   6.929
 4683POPC   C4B59926  10.110  16.973   7.355
 4684POPC   NC359927  27.243  44.863   5.425
 4684POPC   PO459928  27.953  44.642   5.448
 4684POPC   GL159929  27.657  44.631   5.803
 4684POPC   GL259930  27.492  44.896   5.949
 4684POPC   C1A59931  27.507  44.423   6.185
 4684POPC   D2A59932  27.342  44.705   6.519
 4684POPC   C3A59933  27.505  44.796   6.928
 4684POPC   C4A59934  27.512  44.512   7.258
 4684POPC   C1B59935  27.789  44.835   6.294
 4684POPC   C2B59936  27.876  44.505   6.627
 4684POPC   C3B59937  28.017  44.473   7.077
 4684POPC   C4B59938  27.943  44.644   7.518
 4685POPC   NC359939  15.091  32.005   5.090
 4685POPC   PO459940  15.103  31.403   5.423
 4685POPC   GL159941  15.198  31.447   5.860
 4685POPC   GL259942  14.970  31.726   5.891
 4685POPC   C1A59943  15.345  31.683   6.241
 4685POPC   D2A59944  15.174  31.685   6.654
 4685POPC   C3A59945  15.372  31.763   7.041
 4685POPC   C4A59946  15.517  31.497   7.342
 4685POPC   C1B59947  14.790  31.602   6.280
 4685POPC   C2B59948  14.584  31.587   6.700
 4685POPC   C3B59949  14.887  31.519   7.051
 4685POPC   C4B59950  15.028  31.434   7.500
 4686POPC   NC359951  27.896  10.236   5.487
 4686POPC   PO459952  27.715   9.570   5.421
 4686POPC   GL159953  27.660   9.623   5.866
 4686POPC   GL259954  27.628   9.963   5.865
 4686POPC   C1A59955  27.468   9.643   6.309
 4686POPC   D2A59956  27.460   9.878   6.696
 4686POPC   C3A59957  27.556   9.688   7.111
 4686POPC   C4A59958  27.212   9.417   7.293
 4686POPC   C1B59959  27.615  10.191   6.266
 4686POPC   C2B59960  27.446  10.414   6.630
 4686POPC   C3B59961  27.524  10.249   7.034
 4686POPC   C4B59962  27.911  10.230   7.257
 4687POPC   NC359963   1.499  43.943   5.551
 4687POPC   PO459964   2.080  43.570   5.538
 4687POPC   GL159965   1.924  43.829   5.822
 4687POPC   GL259966   2.067  44.136   5.887
 4687POPC   C1A59967   1.809  43.838   6.225
 4687POPC   D2A59968   1.927  44.084   6.561
 4687POPC   C3A59969   1.894  43.839   6.924
 4687POPC   C4A59970   1.876  44.101   7.242
 4687POPC   C1B59971   2.315  43.981   6.222
 4687POPC   C2B59972   2.204  43.639   6.545
 4687POPC   C3B59973   2.312  43.511   6.966
 4687POPC   C4B59974   2.292  43.782   7.319
 4688POPC   NC359975   9.205  44.563   5.428
 4688POPC   PO459976   8.475  44.856   5.386
 4688POPC   GL159977   8.666  44.782   5.866
 4688POPC   GL259978   8.967  44.552   5.873
 4688POPC   C1A59979   8.850  44.784   6.311
 4688POPC   D2A59980   9.057   0.001   6.652
 4688POPC   C3A59981   8.860  44.944   7.035
 4688POPC   C4A59982   8.849  44.805   7.466
 4688POPC   C1B59983   8.948  44.270   6.219
 4688POPC   C2B59984   8.754  44.315   6.634
 4688POPC   C3B59985   8.842  44.440   7.058
 4688POPC   C4B59986   9.157  44.404   7.408
 4689POPC   NC359987   5.437   7.439   5.565
 4689POPC   PO459988   6.029   7.761   5.540
 4689POPC   GL159989   5.855   7.519   5.882
 4689POPC   GL259990   5.628   7.219   5.966
 4689POPC   C1A59991   6.026   7.557   6.266
 4689POPC   D2A59992   5.769   7.602   6.599
 4689POPC   C3A59993   6.016   7.609   6.887
 4689POPC   C4A59994   6.145   7.518   7.232
 4689POPC   C1B59995   5.775   7.127   6.365
 4689POPC   C2B59996   5.883   7.118   6.812
 4689POPC   C3B59997   5.690   7.294   7.196
 4689POPC   C4B59998   5.503   7.164   7.582
 4690POPC   NC359999   6.745  16.990   5.481
 4690POPC   PO460000   7.104  16.331   5.302
 4690POPC   GL160001   6.922  16.368   5.731
 4690POPC   GL260002   6.856  16.704   5.879
 4690POPC   C1A60003   6.829  16.297   6.180
 4690POPC   D2A60004   6.581  16.390   6.548
 4690POPC   C3A60005   6.741  16.492   6.935
 4690POPC   C4A60006   6.673  16.488   7.361
 4690POPC   C1B60007   6.605  16.786   6.237
 4690POPC   C2B60008   6.616  16.913   6.662
 4690POPC   C3B60009   6.857  16.962   7.052
 4690POPC   C4B60010   6.660  17.008   7.415
 4691POPC   NC360011  34.877   0.660   5.538
 4691POPC   PO460012  34.437   1.122   5.331
 4691POPC   GL160013  34.568   1.156   5.755
 4691POPC   GL260014  34.503   0.843   5.846
 4691POPC   C1A60015  34.341   1.291   6.139
 4691POPC   D2A60016  34.297   1.184   6.593
 4691POPC   C3A60017  34.598   1.352   6.865
 4691POPC   C4A60018  34.592   1.514   7.290
 4691POPC   C1B60019  34.554   0.849   6.298
 4691POPC   C2B60020  34.324   0.670   6.627
 4691POPC   C3B60021  34.281   0.886   7.034
 4691POPC   C4B60022  34.656   1.009   7.263
 4692POPC   NC360023   5.411   9.162   5.506
 4692POPC   PO460024   4.978   8.563   5.484
 4692POPC   GL160025   5.118   8.841   5.808
 4692POPC   GL260026   5.008   9.201   5.849
 4692POPC   C1A60027   5.207   8.904   6.235
 4692POPC   D2A60028   5.275   9.016   6.646
 4692POPC   C3A60029   5.182   8.704   6.904
 4692POPC   C4A60030   5.102   8.763   7.294
 4692POPC   C1B60031   4.800   9.488   6.149
 4692POPC   C2B60032   4.700   9.327   6.573
 4692POPC   C3B60033   4.872   9.129   6.964
 4692POPC   C4B60034   4.848   9.217   7.411
 4693POPC   NC360035  22.215  32.768   5.493
 4693POPC   PO460036  21.943  33.389   5.364
 4693POPC   GL160037  22.307  33.264   5.700
 4693POPC   GL260038  22.234  32.983   5.955
 4693POPC   C1A60039  22.580  33.309   6.102
 4693POPC   D2A60040  22.466  33.454   6.518
 4693POPC   C3A60041  22.375  33.229   6.891
 4693POPC   C4A60042  22.356  33.447   7.294
 4693POPC   C1B60043  22.015  32.925   6.353
 4693POPC   C2B60044  21.767  32.911   6.729
 4693POPC   C3B60045  21.742  32.889   7.128
 4693POPC   C4B60046  22.142  32.994   7.285
 4694POPC   NC360047  11.798  15.977   5.264
 4694POPC   PO460048  11.233  15.778   5.105
 4694POPC   GL160049  11.399  15.986   5.578
 4694POPC   GL260050  11.355  16.290   5.780
 4694POPC   C1A60051  11.522  15.905   6.082
 4694POPC   D2A60052  11.381  15.966   6.545
 4694POPC   C3A60053  11.189  15.821   6.924
 4694POPC   C4A60054  11.487  15.848   7.260
 4694POPC   C1B60055  11.159  16.287   6.222
 4694POPC   C2B60056  11.022  16.316   6.699
 4694POPC   C3B60057  11.277  16.284   7.079
 4694POPC   C4B60058  11.284  16.219   7.548
 4695POPC   NC360059  27.159   4.147   5.667
 4695POPC   PO460060  27.106   3.514   5.455
 4695POPC   GL160061  26.833   3.696   5.794
 4695POPC   GL260062  26.970   3.855   6.105
 4695POPC   C1A60063  26.546   3.531   6.125
 4695POPC   D2A60064  26.637   3.290   6.512
 4695POPC   C3A60065  26.809   3.475   6.902
 4695POPC   C4A60066  26.595   3.547   7.287
 4695POPC   C1B60067  27.037   3.384   6.187
 4695POPC   C2B60068  27.135   3.188   6.598
 4695POPC   C3B60069  27.291   3.285   7.018
 4695POPC   C4B60070  27.003   3.259   7.370
 4696POPC   NC360071  41.433  27.139   5.370
 4696POPC   PO460072  42.018  26.770   5.599
 4696POPC   GL160073  41.717  27.028   5.790
 4696POPC   GL260074  41.459  26.785   5.851
 4696POPC   C1A60075  41.668  27.108   6.229
 4696POPC   D2A60076  41.716  26.861   6.610
 4696POPC   C3A60077  41.669  27.087   6.981
 4696POPC   C4A60078  41.623  26.963   7.409
 4696POPC   C1B60079  41.231  26.471   6.148
 4696POPC   C2B60080  41.371  26.408   6.608
 4696POPC   C3B60081  41.459  26.632   7.015
 4696POPC   C4B60082  41.265  26.583   7.424
 4697POPC   NC360083  34.027  30.995   5.560
 4697POPC   PO460084  33.810  31.703   5.462
 4697POPC   GL160085  33.688  31.605   5.872
 4697POPC   GL260086  33.682  31.283   5.835
 4697POPC   C1A60087  33.652  31.781   6.290
 4697POPC   D2A60088  33.548  31.961   6.705
 4697POPC   C3A60089  33.582  31.606   6.963
 4697POPC   C4A60090  33.923  31.449   7.171
 4697POPC   C1B60091  33.717  31.158   6.249
 4697POPC   C2B60092  33.489  31.177   6.644
 4697POPC   C3B60093  33.415  30.969   7.043
 4697POPC   C4B60094  33.657  31.113   7.401
 4698POPC   NC360095  38.913  24.876   5.320
 4698POPC   PO460096  39.486  24.416   5.512
 4698POPC   GL160097  39.363  24.606   5.855
 4698POPC   GL260098  39.026  24.630   5.808
 4698POPC   C1A60099  39.520  24.476   6.240
 4698POPC   D2A60100  39.611  24.302   6.643
 4698POPC   C3A60101  39.345  24.430   6.944
 4698POPC   C4A60102  39.221  24.612   7.324
 4698POPC   C1B60103  38.997  24.460   6.257
 4698POPC   C2B60104  38.888  24.391   6.729
 4698POPC   C3B60105  38.980  24.152   7.146
 4698POPC   C4B60106  38.965  24.275   7.593
 4699POPC   NC360107  22.496  38.737   4.945
 4699POPC   PO460108  22.106  38.600   5.487
 4699POPC   GL160109  22.154  38.452   5.905
 4699POPC   GL260110  22.498  38.497   5.939
 4699POPC   C1A60111  22.222  38.488   6.354
 4699POPC   D2A60112  22.517  38.535   6.665
 4699POPC   C3A60113  22.199  38.546   6.930
 4699POPC   C4A60114  22.033  38.358   7.289
 4699POPC   C1B60115  22.530  38.117   6.284
 4699POPC   C2B60116  22.288  38.025   6.668
 4699POPC   C3B60117  22.416  38.084   7.085
 4699POPC   C4B60118  22.416  38.055   7.563
 4700POPC   NC360119   6.361  22.690   5.348
 4700POPC   PO460120   6.826  23.210   5.491
 4700POPC   GL160121   6.826  23.021   5.876
 4700POPC   GL260122   6.485  22.899   5.855
 4700POPC   C1A60123   6.770  23.163   6.315
 4700POPC   D2A60124   6.428  23.133   6.590
 4700POPC   C3A60125   6.486  22.947   6.983
 4700POPC   C4A60126   6.609  22.861   7.394
 4700POPC   C1B60127   6.206  22.717   6.189
 4700POPC   C2B60128   6.315  22.619   6.610
 4700POPC   C3B60129   6.292  22.441   7.031
 4700POPC   C4B60130   6.340  22.422   7.510
 4701POPC   NC360131  27.376   5.205   5.496
 4701POPC   PO460132  27.942   4.851   5.384
 4701POPC   GL160133  27.810   5.131   5.778
 4701POPC   GL260134  27.479   5.030   5.940
 4701POPC   C1A60135  27.678   5.475   6.086
 4701POPC   D2A60136  27.678   5.228   6.444
 4701POPC   C3A60137  27.671   5.369   6.852
 4701POPC   C4A60138  27.720   5.206   7.261
 4701POPC   C1B60139  27.288   4.799   6.253
 4701POPC   C2B60140  27.595   4.719   6.558
 4701POPC   C3B60141  27.812   4.831   6.909
 4701POPC   C4B60142  27.712   4.672   7.290
 4702POPC   NC360143  29.472  26.138   5.578
 4702POPC   PO460144  30.126  25.911   5.562
 4702POPC   GL160145  29.852  25.972   5.911
 4702POPC   GL260146  29.989  26.309   5.999
 4702POPC   C1A60147  29.530  26.128   6.238
 4702POPC   D2A60148  29.538  26.254   6.678
 4702POPC   C3A60149  29.901  26.053   6.845
 4702POPC   C4A60150  30.070  25.996   7.222
 4702POPC   C1B60151  30.329  26.278   6.331
 4702POPC   C2B60152  30.443  26.127   6.757
 4702POPC   C3B60153  30.534  26.206   7.202
 4702POPC   C4B60154  30.269  26.335   7.541
 4703POPC   NC360155  27.624  15.513   5.549
 4703POPC   PO460156  27.228  14.970   5.282
 4703POPC   GL160157  27.453  15.031   5.676
 4703POPC   GL260158  27.269  15.300   5.839
 4703POPC   C1A60159  27.741  15.094   6.066
 4703POPC   D2A60160  27.664  15.191   6.518
 4703POPC   C3A60161  27.912  15.095   6.875
 4703POPC   C4A60162  27.984  15.362   7.185
 4703POPC   C1B60163  27.269  14.937   6.150
 4703POPC   C2B60164  27.355  14.780   6.585
 4703POPC   C3B60165  27.441  14.937   6.998
 4703POPC   C4B60166  27.505  15.399   7.028
 4704POPC   NC360167  11.856  22.312   5.526
 4704POPC   PO460168  12.445  22.541   5.549
 4704POPC   GL160169  12.250  22.316   5.863
 4704POPC   GL260170  12.151  21.941   5.820
 4704POPC   C1A60171  12.367  22.182   6.234
 4704POPC   D2A60172  12.166  22.093   6.612
 4704POPC   C3A60173  12.405  22.071   6.972
 4704POPC   C4A60174  12.294  22.171   7.364
 4704POPC   C1B60175  11.844  22.114   6.152
 4704POPC   C2B60176  11.747  22.354   6.532
 4704POPC   C3B60177  11.747  22.129   6.915
 4704POPC   C4B60178  11.796  22.063   7.314
 4705POPC   NC360179  21.523  23.041   5.417
 4705POPC   PO460180  21.179  22.481   5.485
 4705POPC   GL160181  21.266  22.830   5.827
 4705POPC   GL260182  21.343  23.195   5.903
 4705POPC   C1A60183  21.393  22.834   6.277
 4705POPC   D2A60184  21.450  22.665   6.700
 4705POPC   C3A60185  21.383  22.791   7.135
 4705POPC   C4A60186  21.178  22.591   7.505
 4705POPC   C1B60187  21.083  23.220   6.282
 4705POPC   C2B60188  21.143  23.127   6.743
 4705POPC   C3B60189  21.319  23.295   7.131
 4705POPC   C4B60190  21.737  23.169   7.317
 4706POPC   NC360191  24.278  42.493   5.556
 4706POPC   PO460192  23.862  41.956   5.469
 4706POPC   GL160193  23.731  42.200   5.834
 4706POPC   GL260194  23.815  42.583   5.780
 4706POPC   C1A60195  23.581  42.108   6.275
 4706POPC   D2A60196  23.822  42.244   6.670
 4706POPC   C3A60197  23.749  42.180   7.122
 4706POPC   C4A60198  23.956  42.003   7.494
 4706POPC   C1B60199  23.871  42.528   6.226
 4706POPC   C2B60200  23.666  42.718   6.587
 4706POPC   C3B60201  23.870  42.665   6.967
 4706POPC   C4B60202  24.309  42.592   7.048
 4707POPC   NC360203  35.358  21.920   5.574
 4707POPC   PO460204  35.624  22.464   5.603
 4707POPC   GL160205  35.487  22.267   5.958
 4707POPC   GL260206  35.121  22.307   5.819
 4707POPC   C1A60207  35.569  22.274   6.420
 4707POPC   D2A60208  35.424  22.452   6.809
 4707POPC   C3A60209  35.510  22.208   7.144
 4707POPC   C4A60210  35.294  22.231   7.469
 4707POPC   C1B60211  35.065  22.201   6.255
 4707POPC   C2B60212  34.955  22.344   6.649
 4707POPC   C3B60213  34.963  22.183   7.077
 4707POPC   C4B60214  34.924  21.872   7.405
 4708POPC   NC360215  28.808  18.427   5.464
 4708POPC   PO460216  28.134  18.190   5.415
 4708POPC   GL160217  28.250  18.382   5.809
 4708POPC   GL260218  28.541  18.197   5.861
 4708POPC   C1A60219  28.132  18.286   6.250
 4708POPC   D2A60220  28.007  17.986   6.630
 4708POPC   C3A60221  28.072  18.125   7.074
 4708POPC   C4A60222  28.130  17.970   7.539
 4708POPC   C1B60223  28.604  18.527   6.181
 4708POPC   C2B60224  28.386  18.652   6.568
 4708POPC   C3B60225  28.512  18.421   6.914
 4708POPC   C4B60226  28.524  18.243   7.313
 4709POPC   NC360227  38.057  23.146   5.419
 4709POPC   PO460228  38.062  22.484   5.499
 4709POPC   GL160229  38.340  22.814   5.802
 4709POPC   GL260230  38.355  23.197   5.855
 4709POPC   C1A60231  38.484  22.889   6.261
 4709POPC   D2A60232  38.639  22.568   6.601
 4709POPC   C3A60233  38.550  22.709   7.030
 4709POPC   C4A60234  38.123  22.790   7.238
 4709POPC   C1B60235  38.511  23.426   6.271
 4709POPC   C2B60236  38.466  23.278   6.688
 4709POPC   C3B60237  38.652  23.247   7.091
 4709POPC   C4B60238  38.532  23.020   7.458
 4710POPC   NC360239   0.924   4.244   5.362
 4710POPC   PO460240   1.572   4.307   5.387
 4710POPC   GL160241   1.262   4.360   5.752
 4710POPC   GL260242   0.949   4.599   5.723
 4710POPC   C1A60243   1.178   4.153   6.174
 4710POPC   D2A60244   0.946   4.088   6.551
 4710POPC   C3A60245   1.169   4.093   6.943
 4710POPC   C4A60246   1.029   3.955   7.360
 4710POPC   C1B60247   0.890   4.578   6.178
 4710POPC   C2B60248   0.748   4.578   6.613
 4710POPC   C3B60249   0.926   4.554   7.007
 4710POPC   C4B60250   1.102   4.442   7.401
 4711POPC   NC360251  28.858  37.880   5.449
 4711POPC   PO460252  29.468  37.530   5.431
 4711POPC   GL160253  29.239  37.695   5.814
 4711POPC   GL260254  29.396  37.956   6.036
 4711POPC   C1A60255  29.142  37.549   6.241
 4711POPC   D2A60256  29.316  37.345   6.610
 4711POPC   C3A60257  29.277  37.600   6.983
 4711POPC   C4A60258  28.959  37.561   7.323
 4711POPC   C1B60259  28.962  38.036   6.217
 4711POPC   C2B60260  28.820  38.116   6.643
 4711POPC   C3B60261  28.943  37.990   7.044
 4711POPC   C4B60262  29.293  37.986   7.348
 4712POPC   NC360263  13.546  12.351   5.402
 4712POPC   PO460264  13.446  12.992   5.317
 4712POPC   GL160265  13.652  12.767   5.666
 4712POPC   GL260266  13.836  13.009   5.758
 4712POPC   C1A60267  13.614  12.625   6.105
 4712POPC   D2A60268  13.823  12.685   6.498
 4712POPC   C3A60269  13.512  12.757   6.828
 4712POPC   C4A60270  13.584  12.777   7.268
 4712POPC   C1B60271  13.655  13.126   6.150
 4712POPC   C2B60272  13.650  13.187   6.598
 4712POPC   C3B60273  13.713  13.208   7.036
 4712POPC   C4B60274  13.993  13.205   7.381
 4713POPC   NC360275  15.756   4.385   5.625
 4713POPC   PO460276  16.353   4.045   5.618
 4713POPC   GL160277  16.007   4.087   5.963
 4713POPC   GL260278  15.639   3.960   5.900
 4713POPC   C1A60279  15.762   4.357   6.290
 4713POPC   D2A60280  15.588   4.418   6.705
 4713POPC   C3A60281  15.955   4.513   6.988
 4713POPC   C4A60282  16.329   4.689   7.227
 4713POPC   C1B60283  15.743   3.850   6.343
 4713POPC   C2B60284  15.925   4.023   6.736
 4713POPC   C3B60285  15.945   4.033   7.174
 4713POPC   C4B60286  15.793   4.103   7.589
 4714POPC   NC360287  29.786  34.141   5.370
 4714POPC   PO460288  30.075  33.504   5.347
 4714POPC   GL160289  29.955  33.784   5.685
 4714POPC   GL260290  29.612  33.782   5.697
 4714POPC   C1A60291  29.981  34.025   6.083
 4714POPC   D2A60292  29.797  34.037   6.527
 4714POPC   C3A60293  30.018  33.964   6.926
 4714POPC   C4A60294  29.992  33.674   7.291
 4714POPC   C1B60295  29.494  33.840   6.149
 4714POPC   C2B60296  29.346  33.781   6.612
 4714POPC   C3B60297  29.535  33.716   7.052
 4714POPC   C4B60298  29.567  33.383   7.381
 4715POPC   NC360299  33.131  23.498   5.269
 4715POPC   PO460300  33.587  23.238   5.708
 4715POPC   GL160301  33.151  23.379   5.802
 4715POPC   GL260302  33.099  23.725   5.880
 4715POPC   C1A60303  32.792  23.421   6.135
 4715POPC   D2A60304  32.721  23.660   6.518
 4715POPC   C3A60305  32.924  23.604   6.918
 4715POPC   C4A60306  32.839  23.350   7.237
 4715POPC   C1B60307  32.773  23.971   6.113
 4715POPC   C2B60308  32.798  24.183   6.516
 4715POPC   C3B60309  32.668  24.177   6.943
 4715POPC   C4B60310  32.955  24.020   7.237
 4716POPC   NC360311  39.475  11.390   5.176
 4716POPC   PO460312  38.950  11.117   5.468
 4716POPC   GL160313  39.071  11.529   5.629
 4716POPC   GL260314  39.423  11.543   5.680
 4716POPC   C1A60315  39.093  11.591   6.102
 4716POPC   D2A60316  39.173  11.308   6.484
 4716POPC   C3A60317  39.130  11.453   6.914
 4716POPC   C4A60318  39.214  11.220   7.288
 4716POPC   C1B60319  39.507  11.252   6.042
 4716POPC   C2B60320  39.667  11.139   6.468
 4716POPC   C3B60321  39.543  11.140   6.878
 4716POPC   C4B60322  39.688  11.394   7.222
 4717POPC   NC360323   2.147   7.054   5.551
 4717POPC   PO460324   2.076   6.477   5.155
 4717POPC   GL160325   1.841   6.467   5.640
 4717POPC   GL260326   1.747   6.779   5.760
 4717POPC   C1A60327   1.719   6.390   6.100
 4717POPC   D2A60328   1.675   6.359   6.576
 4717POPC   C3A60329   2.033   6.323   6.882
 4717POPC   C4A60330   2.143   6.617   7.210
 4717POPC   C1B60331   1.838   6.962   6.160
 4717POPC   C2B60332   2.011   7.205   6.491
 4717POPC   C3B60333   1.994   6.952   6.843
 4717POPC   C4B60334   1.781   6.995   7.207
 4718POPC   NC360335  30.317   9.191   5.170
 4718POPC   PO460336  29.805   8.819   5.462
 4718POPC   GL160337  29.816   9.045   5.814
 4718POPC   GL260338  30.158   8.922   5.846
 4718POPC   C1A60339  29.852   9.106   6.254
 4718POPC   D2A60340  30.033   9.010   6.662
 4718POPC   C3A60341  29.854   9.140   7.052
 4718POPC   C4A60342  30.000   9.104   7.502
 4718POPC   C1B60343  30.204   8.690   6.237
 4718POPC   C2B60344  30.218   8.530   6.670
 4718POPC   C3B60345  30.173   8.677   7.127
 4718POPC   C4B60346  30.224   8.666   7.596
 4719POPC   NC360347  21.922   9.799   5.478
 4719POPC   PO460348  22.505   9.555   5.424
 4719POPC   GL160349  22.367   9.826   5.757
 4719POPC   GL260350  22.356   9.498   5.935
 4719POPC   C1A60351  22.025   9.883   6.113
 4719POPC   D2A60352  22.003   9.635   6.482
 4719POPC   C3A60353  22.002   9.705   6.897
 4719POPC   C4A60354  22.316   9.890   7.095
 4719POPC   C1B60355  22.507   9.782   6.246
 4719POPC   C2B60356  22.494   9.672   6.644
 4719POPC   C3B60357  22.371   9.360   6.882
 4719POPC   C4B60358  22.378   9.429   7.280
 4720POPC   NC360359  41.214  20.653   5.615
 4720POPC   PO460360  40.724  21.061   5.446
 4720POPC   GL160361  40.604  20.763   5.799
 4720POPC   GL260362  40.819  20.427   5.852
 4720POPC   C1A60363  40.605  20.643   6.254
 4720POPC   D2A60364  40.822  20.832   6.610
 4720POPC   C3A60365  40.593  20.742   6.985
 4720POPC   C4A60366  40.603  20.601   7.405
 4720POPC   C1B60367  41.100  20.428   6.244
 4720POPC   C2B60368  41.250  20.514   6.708
 4720POPC   C3B60369  41.070  20.515   7.126
 4720POPC   C4B60370  41.033  20.467   7.616
 4721POPC   NC360371  26.181  43.087   5.452
 4721POPC   PO460372  25.523  43.191   5.589
 4721POPC   GL160373  25.890  43.314   5.851
 4721POPC   GL260374  26.285  43.372   5.883
 4721POPC   C1A60375  25.978  43.155   6.264
 4721POPC   D2A60376  25.767  43.039   6.652
 4721POPC   C3A60377  25.960  42.987   7.065
 4721POPC   C4A60378  25.796  42.674   7.436
 4721POPC   C1B60379  26.338  43.502   6.297
 4721POPC   C2B60380  26.155  43.413   6.662
 4721POPC   C3B60381  26.326  43.360   7.033
 4721POPC   C4B60382  26.246  43.231   7.415
 4722POPC   NC360383  30.397  18.515   5.438
 4722POPC   PO460384  30.758  17.898   5.370
 4722POPC   GL160385  30.643  18.157   5.737
 4722POPC   GL260386  30.834  18.477   5.759
 4722POPC   C1A60387  30.523  18.043   6.159
 4722POPC   D2A60388  30.472  18.190   6.584
 4722POPC   C3A60389  30.587  17.972   6.950
 4722POPC   C4A60390  30.581  18.327   7.164
 4722POPC   C1B60391  30.974  18.306   6.176
 4722POPC   C2B60392  30.967  18.412   6.631
 4722POPC   C3B60393  31.078  18.300   7.069
 4722POPC   C4B60394  30.938  17.945   7.353
 4723POPC   NC360395   0.470  26.466   5.271
 4723POPC   PO460396   0.239  25.886   5.029
 4723POPC   GL160397   0.360  26.118   5.603
 4723POPC   GL260398   0.642  26.114   5.801
 4723POPC   C1A60399   0.149  26.133   6.057
 4723POPC   D2A60400   0.187  25.948   6.517
 4723POPC   C3A60401   0.250  26.204   6.909
 4723POPC   C4A60402   0.134  26.388   7.319
 4723POPC   C1B60403   0.591  25.913   6.218
 4723POPC   C2B60404   0.676  26.107   6.611
 4723POPC   C3B60405   0.785  26.016   7.009
 4723POPC   C4B60406   0.601  26.111   7.367
 4724POPC   NC360407  32.043  11.457   5.473
 4724POPC   PO460408  32.678  11.227   5.592
 4724POPC   GL160409  32.321  11.295   5.877
 4724POPC   GL260410  32.011  11.069   5.860
 4724POPC   C1A60411  32.061  11.535   6.190
 4724POPC   D2A60412  31.952  11.597   6.670
 4724POPC   C3A60413  32.212  11.349   7.014
 4724POPC   C4A60414  32.549  11.451   7.357
 4724POPC   C1B60415  31.796  11.103   6.288
 4724POPC   C2B60416  31.791  11.079   6.777
 4724POPC   C3B60417  31.867  10.994   7.242
 4724POPC   C4B60418  31.963  10.901   7.702
 4725POPC   NC360419   0.677  41.786   5.459
 4725POPC   PO460420   0.117  41.514   5.116
 4725POPC   GL160421   0.136  41.561   5.593
 4725POPC   GL260422   0.256  41.839   5.761
 4725POPC   C1A60423   0.253  41.443   6.061
 4725POPC   D2A60424   0.378  41.237   6.450
 4725POPC   C3A60425   0.355  41.391   6.858
 4725POPC   C4A60426   0.535  41.300   7.240
 4725POPC   C1B60427   0.519  41.886   6.122
 4725POPC   C2B60428   0.396  41.771   6.517
 4725POPC   C3B60429   0.448  41.894   6.944
 4725POPC   C4B60430   0.292  41.837   7.321
 4726POPC   NC360431   9.984   0.999   5.436
 4726POPC   PO460432   9.556   1.481   5.291
 4726POPC   GL160433   9.674   1.343   5.701
 4726POPC   GL260434   9.469   1.048   5.790
 4726POPC   C1A60435   9.828   1.354   6.136
 4726POPC   D2A60436   9.806   1.140   6.540
 4726POPC   C3A60437   9.908   1.435   6.865
 4726POPC   C4A60438   9.772   1.477   7.275
 4726POPC   C1B60439   9.312   1.375   6.086
 4726POPC   C2B60440   9.415   1.503   6.504
 4726POPC   C3B60441   9.427   1.286   6.888
 4726POPC   C4B60442   9.278   1.496   7.179
 4727POPC   NC360443  34.382  37.192   5.365
 4727POPC   PO460444  34.569  36.554   5.490
 4727POPC   GL160445  34.400  36.758   5.868
 4727POPC   GL260446  34.228  37.098   5.861
 4727POPC   C1A60447  34.576  36.746   6.326
 4727POPC   D2A60448  34.532  36.873   6.797
 4727POPC   C3A60449  34.762  36.656   7.146
 4727POPC   C4A60450  34.880  36.626   7.627
 4727POPC   C1B60451  34.340  37.238   6.312
 4727POPC   C2B60452  34.237  37.313   6.765
 4727POPC   C3B60453  34.247  37.129   7.203
 4727POPC   C4B60454  34.145  37.081   7.687
 4728POPC   NC360455  31.075  13.205   5.552
 4728POPC   PO460456  31.573  12.755   5.466
 4728POPC   GL160457  31.512  12.751   5.848
 4728POPC   GL260458  31.144  12.646   5.835
 4728POPC   C1A60459  31.704  12.843   6.254
 4728POPC   D2A60460  31.719  13.029   6.647
 4728POPC   C3A60461  31.637  12.842   7.032
 4728POPC   C4A60462  31.496  12.965   7.468
 4728POPC   C1B60463  31.224  12.979   6.174
 4728POPC   C2B60464  31.262  13.247   6.545
 4728POPC   C3B60465  31.223  13.122   6.953
 4728POPC   C4B60466  31.142  12.751   7.174
 4729POPC   NC360467   5.231   6.493   5.313
 4729POPC   PO460468   4.956   7.103   5.271
 4729POPC   GL160469   5.258   6.954   5.670
 4729POPC   GL260470   5.199   6.611   5.808
 4729POPC   C1A60471   5.209   6.965   6.164
 4729POPC   D2A60472   5.050   6.695   6.505
 4729POPC   C3A60473   5.045   6.842   6.919
 4729POPC   C4A60474   5.155   6.811   7.341
 4729POPC   C1B60475   4.806   6.607   6.067
 4729POPC   C2B60476   4.680   6.356   6.429
 4729POPC   C3B60477   4.853   6.329   6.855
 4729POPC   C4B60478   4.695   6.480   7.254
 4730POPC   NC360479  30.529   5.668   5.562
 4730POPC   PO460480  30.839   5.977   5.061
 4730POPC   GL160481  30.847   6.052   5.581
 4730POPC   GL260482  30.960   5.792   5.806
 4730POPC   C1A60483  30.671   6.166   6.054
 4730POPC   D2A60484  30.433   6.142   6.497
 4730POPC   C3A60485  30.505   6.201   6.999
 4730POPC   C4A60486  30.555   5.971   7.447
 4730POPC   C1B60487  30.787   5.691   6.211
 4730POPC   C2B60488  30.741   5.779   6.664
 4730POPC   C3B60489  30.863   5.828   7.063
 4730POPC   C4B60490  30.851   5.569   7.413
 4731POPC   NC360491   9.576  38.358   5.384
 4731POPC   PO460492   9.656  39.052   5.335
 4731POPC   GL160493   9.664  38.857   5.760
 4731POPC   GL260494   9.891  38.567   5.754
 4731POPC   C1A60495   9.494  38.746   6.195
 4731POPC   D2A60496   9.384  38.875   6.641
 4731POPC   C3A60497   9.570  38.627   6.987
 4731POPC   C4A60498   9.593  38.571   7.444
 4731POPC   C1B60499  10.008  38.648   6.178
 4731POPC   C2B60500   9.926  38.783   6.607
 4731POPC   C3B60501  10.079  38.568   7.006
 4731POPC   C4B60502  10.015  38.261   7.353
 4732POPC   NC360503  31.812   7.651   5.351
 4732POPC   PO460504  31.202   7.405   5.460
 4732POPC   GL160505  31.413   7.591   5.799
 4732POPC   GL260506  31.749   7.428   5.831
 4732POPC   C1A60507  31.293   7.643   6.240
 4732POPC   D2A60508  31.081   7.386   6.564
 4732POPC   C3A60509  31.335   7.429   6.926
 4732POPC   C4A60510  31.276   7.490   7.353
 4732POPC   C1B60511  31.737   7.234   6.260
 4732POPC   C2B60512  31.973   7.135   6.655
 4732POPC   C3B60513  31.792   7.171   7.067
 4732POPC   C4B60514  31.755   7.590   7.194
 4733POPC   NC360515  23.291   7.992   5.275
 4733POPC   PO460516  22.721   8.288   5.303
 4733POPC   GL160517  23.073   8.347   5.571
 4733POPC   GL260518  23.008   8.606   5.758
 4733POPC   C1A60519  23.092   8.113   5.979
 4733POPC   D2A60520  22.847   7.991   6.382
 4733POPC   C3A60521  22.980   7.983   6.829
 4733POPC   C4A60522  22.678   8.000   7.172
 4733POPC   C1B60523  23.232   8.585   6.144
 4733POPC   C2B60524  23.158   8.386   6.549
 4733POPC   C3B60525  22.783   8.465   6.822
 4733POPC   C4B60526  22.684   8.560   7.257
 4734POPC   NC360527  29.270  39.649   5.640
 4734POPC   PO460528  28.815  40.051   5.466
 4734POPC   GL160529  28.999  40.016   5.860
 4734POPC   GL260530  28.810  39.692   5.895
 4734POPC   C1A60531  29.225  40.125   6.241
 4734POPC   D2A60532  29.052  40.097   6.658
 4734POPC   C3A60533  29.033  40.265   7.047
 4734POPC   C4A60534  29.389  40.084   7.224
 4734POPC   C1B60535  28.932  39.711   6.319
 4734POPC   C2B60536  28.894  39.621   6.752
 4734POPC   C3B60537  28.985  39.767   7.179
 4734POPC   C4B60538  29.057  39.637   7.620
 4735POPC   NC360539  19.212  34.052   5.654
 4735POPC   PO460540  19.259  33.350   5.518
 4735POPC   GL160541  19.081  33.544   5.851
 4735POPC   GL260542  19.398  33.711   5.969
 4735POPC   C1A60543  19.070  33.522   6.296
 4735POPC   D2A60544  18.904  33.858   6.541
 4735POPC   C3A60545  19.008  33.770   6.962
 4735POPC   C4A60546  18.857  33.741   7.361
 4735POPC   C1B60547  19.353  34.085   6.273
 4735POPC   C2B60548  19.364  34.051   6.704
 4735POPC   C3B60549  19.320  34.162   7.138
 4735POPC   C4B60550  19.312  33.891   7.496
 4736POPC   NC360551   3.509   4.159   5.273
 4736POPC   PO460552   4.099   4.459   5.212
 4736POPC   GL160553   3.837   4.313   5.645
 4736POPC   GL260554   3.503   4.160   5.807
 4736POPC   C1A60555   3.848   4.368   6.105
 4736POPC   D2A60556   3.638   4.196   6.449
 4736POPC   C3A60557   3.635   4.399   6.847
 4736POPC   C4A60558   3.562   4.271   7.266
 4736POPC   C1B60559   3.356   4.495   6.149
 4736POPC   C2B60560   3.473   4.773   6.489
 4736POPC   C3B60561   3.294   4.790   6.907
 4736POPC   C4B60562   3.196   4.613   7.315
 4737POPC   NC360563  30.086  23.232   5.528
 4737POPC   PO460564  29.854  22.599   5.486
 4737POPC   GL160565  29.872  22.837   5.870
 4737POPC   GL260566  30.209  22.968   5.979
 4737POPC   C1A60567  29.888  22.697   6.297
 4737POPC   D2A60568  30.107  22.874   6.631
 4737POPC   C3A60569  29.727  22.919   6.880
 4737POPC   C4A60570  29.608  22.654   7.233
 4737POPC   C1B60571  29.955  23.224   6.278
 4737POPC   C2B60572  29.997  23.427   6.666
 4737POPC   C3B60573  30.130  23.222   7.008
 4737POPC   C4B60574  29.908  23.037   7.341
 4738POPC   NC360575  14.660   6.243   5.478
 4738POPC   PO460576  14.335   5.570   5.542
 4738POPC   GL160577  14.312   5.940   5.756
 4738POPC   GL260578  14.651   5.917   5.882
 4738POPC   C1A60579  14.149   5.934   6.171
 4738POPC   D2A60580  14.151   5.593   6.459
 4738POPC   C3A60581  14.230   5.668   6.888
 4738POPC   C4A60582  14.608   5.607   7.152
 4738POPC   C1B60583  14.637   6.080   6.304
 4738POPC   C2B60584  14.352   6.109   6.654
 4738POPC   C3B60585  14.430   6.130   7.093
 4738POPC   C4B60586  14.547   6.434   7.403
 4739POPC   NC360587   9.206  21.348   5.392
 4739POPC   PO460588   8.624  21.084   5.539
 4739POPC   GL160589   8.871  21.260   5.880
 4739POPC   GL260590   9.108  21.552   5.846
 4739POPC   C1A60591   8.899  21.078   6.278
 4739POPC   D2A60592   9.085  21.081   6.685
 4739POPC   C3A60593   8.777  21.231   6.971
 4739POPC   C4A60594   8.819  21.472   7.331
 4739POPC   C1B60595   9.231  21.465   6.285
 4739POPC   C2B60596   9.429  21.534   6.681
 4739POPC   C3B60597   9.492  21.417   7.097
 4739POPC   C4B60598   9.281  21.577   7.426
 4740POPC   NC360599  33.116  12.576   5.080
 4740POPC   PO460600  33.341  13.109   5.455
 4740POPC   GL160601  33.189  12.733   5.695
 4740POPC   GL260602  32.984  12.965   5.872
 4740POPC   C1A60603  33.259  12.677   6.172
 4740POPC   D2A60604  33.146  12.945   6.546
 4740POPC   C3A60605  33.308  12.774   6.946
 4740POPC   C4A60606  33.326  12.628   7.377
 4740POPC   C1B60607  32.837  13.258   6.213
 4740POPC   C2B60608  32.610  13.393   6.612
 4740POPC   C3B60609  32.807  13.349   7.015
 4740POPC   C4B60610  32.997  13.020   7.259
 4741POPC   NC360611  14.017  19.999   5.376
 4741POPC   PO460612  13.462  19.881   5.323
 4741POPC   GL160613  13.658  19.898   5.722
 4741POPC   GL260614  13.457  20.184   5.785
 4741POPC   C1A60615  13.728  19.814   6.160
 4741POPC   D2A60616  13.948  19.728   6.542
 4741POPC   C3A60617  13.685  19.798   6.899
 4741POPC   C4A60618  13.833  19.678   7.284
 4741POPC   C1B60619  13.414  20.349   6.199
 4741POPC   C2B60620  13.458  20.150   6.588
 4741POPC   C3B60621  13.417  20.227   7.024
 4741POPC   C4B60622  13.329  19.923   7.350
 4742POPC   NC360623  32.612  37.146   5.041
 4742POPC   PO460624  32.313  36.637   5.290
 4742POPC   GL160625  32.241  36.893   5.650
 4742POPC   GL260626  32.216  36.604   5.820
 4742POPC   C1A60627  32.197  37.040   6.103
 4742POPC   D2A60628  32.260  37.355   6.465
 4742POPC   C3A60629  32.458  37.246   6.869
 4742POPC   C4A60630  32.336  37.036   7.254
 4742POPC   C1B60631  32.057  36.524   6.209
 4742POPC   C2B60632  31.782  36.465   6.552
 4742POPC   C3B60633  31.978  36.654   6.884
 4742POPC   C4B60634  31.932  36.736   7.274
 4743POPC   NC360635   5.749  32.443   5.131
 4743POPC   PO460636   5.651  33.080   5.376
 4743POPC   GL160637   5.932  33.038   5.719
 4743POPC   GL260638   6.167  33.298   5.741
 4743POPC   C1A60639   5.840  33.101   6.157
 4743POPC   D2A60640   5.952  32.851   6.509
 4743POPC   C3A60641   5.804  32.994   6.897
 4743POPC   C4A60642   5.770  32.842   7.299
 4743POPC   C1B60643   6.082  33.570   6.119
 4743POPC   C2B60644   5.862  33.576   6.522
 4743POPC   C3B60645   5.995  33.462   6.974
 4743POPC   C4B60646   5.947  33.299   7.411
 4744POPC   NC360647  36.071  22.381   5.537
 4744POPC   PO460648  35.762  21.711   5.441
 4744POPC   GL160649  36.045  21.870   5.780
 4744POPC   GL260650  36.415  21.864   5.652
 4744POPC   C1A60651  36.031  22.179   6.153
 4744POPC   D2A60652  36.176  22.412   6.543
 4744POPC   C3A60653  35.977  22.253   6.911
 4744POPC   C4A60654  35.944  21.912   7.219
 4744POPC   C1B60655  36.629  21.948   6.066
 4744POPC   C2B60656  36.382  21.935   6.431
 4744POPC   C3B60657  36.360  21.884   6.872
 4744POPC   C4B60658  36.475  21.904   7.297
 4745POPC   NC360659  16.133  38.947   5.420
 4745POPC   PO460660  15.948  38.262   5.237
 4745POPC   GL160661  16.109  38.453   5.626
 4745POPC   GL260662  15.823  38.598   5.763
 4745POPC   C1A60663  16.194  38.434   6.099
 4745POPC   D2A60664  16.138  38.575   6.547
 4745POPC   C3A60665  16.238  38.301   6.900
 4745POPC   C4A60666  16.088  38.229   7.274
 4745POPC   C1B60667  15.686  38.365   6.185
 4745POPC   C2B60668  15.527  38.331   6.638
 4745POPC   C3B60669  15.517  38.391   7.133
 4745POPC   C4B60670  15.426  38.328   7.634
 4746POPC   NC360671  24.607   2.259   5.391
 4746POPC   PO460672  24.346   1.611   5.321
 4746POPC   GL160673  24.464   1.856   5.678
 4746POPC   GL260674  24.332   2.187   5.802
 4746POPC   C1A60675  24.508   1.754   6.087
 4746POPC   D2A60676  24.382   1.790   6.518
 4746POPC   C3A60677  24.650   1.875   6.889
 4746POPC   C4A60678  24.745   1.736   7.320
 4746POPC   C1B60679  24.512   2.227   6.238
 4746POPC   C2B60680  24.397   2.293   6.642
 4746POPC   C3B60681  24.352   2.421   7.037
 4746POPC   C4B60682  24.429   2.436   7.467
 4747POPC   NC360683   1.571  19.061   5.409
 4747POPC   PO460684   2.240  18.848   5.378
 4747POPC   GL160685   2.070  19.004   5.785
 4747POPC   GL260686   1.742  19.171   5.865
 4747POPC   C1A60687   1.997  18.933   6.239
 4747POPC   D2A60688   1.775  18.814   6.623
 4747POPC   C3A60689   1.998  18.925   7.004
 4747POPC   C4A60690   1.828  18.957   7.420
 4747POPC   C1B60691   1.775  19.416   6.241
 4747POPC   C2B60692   1.989  19.304   6.633
 4747POPC   C3B60693   1.833  19.405   7.039
 4747POPC   C4B60694   1.458  19.463   7.229
 4748POPC   NC360695   1.244  19.674   5.484
 4748POPC   PO460696   1.427  20.400   5.531
 4748POPC   GL160697   1.396  20.182   5.917
 4748POPC   GL260698   1.274  19.845   5.943
 4748POPC   C1A60699   1.116  20.215   6.263
 4748POPC   D2A60700   0.771  20.097   6.530
 4748POPC   C3A60701   0.960  20.166   6.930
 4748POPC   C4A60702   1.223  19.915   7.200
 4748POPC   C1B60703   1.244  19.512   6.220
 4748POPC   C2B60704   0.953  19.452   6.543
 4748POPC   C3B60705   1.050  19.424   6.946
 4748POPC   C4B60706   0.967  19.375   7.366
 4749POPC   NC360707  25.843   8.470   5.470
 4749POPC   PO460708  26.245   8.016   5.287
 4749POPC   GL160709  26.195   8.028   5.725
 4749POPC   GL260710  26.403   7.764   5.817
 4749POPC   C1A60711  25.974   8.129   6.127
 4749POPC   D2A60712  25.761   8.118   6.540
 4749POPC   C3A60713  25.929   8.141   6.978
 4749POPC   C4A60714  26.046   8.509   7.268
 4749POPC   C1B60715  26.423   7.880   6.240
 4749POPC   C2B60716  26.289   7.868   6.689
 4749POPC   C3B60717  26.358   7.901   7.145
 4749POPC   C4B60718  26.460   7.914   7.574
 4750POPC   NC360719  24.888   3.702   5.312
 4750POPC   PO460720  25.416   3.205   5.608
 4750POPC   GL160721  25.369   3.533   5.912
 4750POPC   GL260722  25.034   3.632   5.825
 4750POPC   C1A60723  25.484   3.573   6.371
 4750POPC   D2A60724  25.334   3.385   6.777
 4750POPC   C3A60725  25.159   3.691   7.071
 4750POPC   C4A60726  25.402   3.890   7.412
 4750POPC   C1B60727  24.965   3.590   6.288
 4750POPC   C2B60728  24.844   3.314   6.655
 4750POPC   C3B60729  24.829   3.291   7.139
 4750POPC   C4B60730  24.781   3.177   7.568
 4751POPC   NC360731   1.362  35.480   5.480
 4751POPC   PO460732   0.963  34.971   5.587
 4751POPC   GL160733   1.150  35.254   5.894
 4751POPC   GL260734   1.057  35.618   5.846
 4751POPC   C1A60735   1.400  35.341   6.247
 4751POPC   D2A60736   1.347  35.219   6.667
 4751POPC   C3A60737   1.624  35.065   6.978
 4751POPC   C4A60738   1.481  35.192   7.382
 4751POPC   C1B60739   0.914  35.586   6.251
 4751POPC   C2B60740   1.024  35.637   6.670
 4751POPC   C3B60741   0.956  35.344   6.991
 4751POPC   C4B60742   0.842  35.303   7.385
 4752POPC   NC360743  20.368  44.706   5.587
 4752POPC   PO460744  19.723  44.675   5.240
 4752POPC   GL160745  19.870  44.692   5.695
 4752POPC   GL260746  20.008  44.997   5.802
 4752POPC   C1A60747  19.942  44.625   6.170
 4752POPC   D2A60748  19.793  44.543   6.612
 4752POPC   C3A60749  20.010  44.589   7.023
 4752POPC   C4A60750  19.886  44.662   7.481
 4752POPC   C1B60751  19.786   0.111   6.176
 4752POPC   C2B60752  19.665   0.222   6.597
 4752POPC   C3B60753  19.766   0.042   7.004
 4752POPC   C4B60754  20.055   0.108   7.332
 4753POPC   NC360755  30.023   2.986   5.421
 4753POPC   PO460756  29.446   2.568   5.342
 4753POPC   GL160757  29.844   2.559   5.633
 4753POPC   GL260758  29.752   2.805   5.847
 4753POPC   C1A60759  30.145   2.611   6.048
 4753POPC   D2A60760  29.966   2.724   6.436
 4753POPC   C3A60761  29.955   2.597   6.868
 4753POPC   C4A60762  29.992   2.716   7.274
 4753POPC   C1B60763  29.688   3.072   6.198
 4753POPC   C2B60764  29.813   3.167   6.632
 4753POPC   C3B60765  30.105   3.101   6.940
 4753POPC   C4B60766  30.257   3.148   7.344
 4754POPC   NC360767  31.237  40.851   5.410
 4754POPC   PO460768  31.860  40.483   5.428
 4754POPC   GL160769  31.662  40.756   5.738
 4754POPC   GL260770  31.391  40.540   5.842
 4754POPC   C1A60771  31.568  40.924   6.174
 4754POPC   D2A60772  31.701  41.006   6.626
 4754POPC   C3A60773  31.356  41.033   6.974
 4754POPC   C4A60774  31.337  40.956   7.413
 4754POPC   C1B60775  31.240  40.526   6.290
 4754POPC   C2B60776  31.379  40.599   6.711
 4754POPC   C3B60777  31.270  40.499   7.141
 4754POPC   C4B60778  30.886  40.298   7.276
 4755POPC   NC360779  19.917  27.148   5.415
 4755POPC   PO460780  19.688  26.591   5.417
 4755POPC   GL160781  19.661  26.841   5.800
 4755POPC   GL260782  19.570  27.203   5.803
 4755POPC   C1A60783  19.758  26.889   6.238
 4755POPC   D2A60784  20.039  26.747   6.542
 4755POPC   C3A60785  19.857  26.474   6.813
 4755POPC   C4A60786  19.684  26.616   7.177
 4755POPC   C1B60787  19.740  27.387   6.189
 4755POPC   C2B60788  19.771  27.259   6.655
 4755POPC   C3B60789  19.666  27.121   7.091
 4755POPC   C4B60790  19.810  26.994   7.502
 4756POPC   NC360791  29.640   4.557   5.463
 4756POPC   PO460792  30.119   4.062   5.482
 4756POPC   GL160793  29.998   4.357   5.826
 4756POPC   GL260794  30.287   4.516   5.958
 4756POPC   C1A60795  29.848   4.450   6.270
 4756POPC   D2A60796  29.756   4.225   6.662
 4756POPC   C3A60797  29.837   4.397   7.076
 4756POPC   C4A60798  29.562   4.451   7.429
 4756POPC   C1B60799  30.260   4.157   6.285
 4756POPC   C2B60800  30.322   4.144   6.746
 4756POPC   C3B60801  30.194   4.051   7.165
 4756POPC   C4B60802  30.246   3.869   7.550
 4757POPC   NC360803  43.562  20.803   5.343
 4757POPC   PO460804  44.189  20.680   5.396
 4757POPC   GL160805  44.038  20.768   5.833
 4757POPC   GL260806  43.713  20.583   5.819
 4757POPC   C1A60807  44.049  20.697   6.294
 4757POPC   D2A60808  44.128  20.870   6.703
 4757POPC   C3A60809  44.085  20.607   7.093
 4757POPC   C4A60810  43.829  20.745   7.499
 4757POPC   C1B60811  43.549  20.613   6.241
 4757POPC   C2B60812  43.718  20.502   6.664
 4757POPC   C3B60813  43.580  20.545   7.088
 4757POPC   C4B60814  43.356  20.188   7.230
 4758POPC   NC360815  32.418  16.754   5.352
 4758POPC   PO460816  31.750  16.635   5.217
 4758POPC   GL160817  31.963  16.601   5.695
 4758POPC   GL260818  32.281  16.500   5.782
 4758POPC   C1A60819  32.097  16.787   6.152
 4758POPC   D2A60820  32.041  16.841   6.615
 4758POPC   C3A60821  32.283  16.795   7.008
 4758POPC   C4A60822  32.129  16.749   7.455
 4758POPC   C1B60823  32.430  16.380   6.186
 4758POPC   C2B60824  32.703  16.408   6.550
 4758POPC   C3B60825  32.651  16.412   7.000
 4758POPC   C4B60826  32.256  16.312   7.199
 4759POPC   NC360827  22.299   8.399   5.450
 4759POPC   PO460828  21.806   7.919   5.468
 4759POPC   GL160829  21.975   8.015   5.843
 4759POPC   GL260830  21.848   8.335   5.816
 4759POPC   C1A60831  22.124   7.997   6.287
 4759POPC   D2A60832  21.974   8.125   6.698
 4759POPC   C3A60833  22.289   8.300   6.968
 4759POPC   C4A60834  22.270   8.232   7.401
 4759POPC   C1B60835  21.802   8.407   6.240
 4759POPC   C2B60836  21.924   8.642   6.590
 4759POPC   C3B60837  21.933   8.660   7.020
 4759POPC   C4B60838  21.765   8.389   7.314
 4760POPC   NC360839  42.954  17.066   5.264
 4760POPC   PO460840  43.037  16.430   5.314
 4760POPC   GL160841  43.226  16.737   5.611
 4760POPC   GL260842  43.249  16.456   5.848
 4760POPC   C1A60843  43.301  16.940   6.036
 4760POPC   D2A60844  43.145  16.875   6.465
 4760POPC   C3A60845  43.164  17.063   6.880
 4760POPC   C4A60846  42.844  17.093   7.222
 4760POPC   C1B60847  43.228  16.384   6.304
 4760POPC   C2B60848  42.964  16.424   6.707
 4760POPC   C3B60849  43.027  16.617   7.123
 4760POPC   C4B60850  43.163  16.484   7.547
 4761POPC   NC360851   9.733  33.809   5.171
 4761POPC   PO460852   9.339  33.380   5.528
 4761POPC   GL160853   9.689  33.588   5.647
 4761POPC   GL260854   9.573  33.923   5.653
 4761POPC   C1A60855   9.934  33.660   6.020
 4761POPC   D2A60856   9.908  33.499   6.442
 4761POPC   C3A60857  10.040  33.722   6.803
 4761POPC   C4A60858   9.863  33.671   7.187
 4761POPC   C1B60859   9.537  34.024   6.075
 4761POPC   C2B60860   9.644  33.987   6.494
 4761POPC   C3B60861   9.506  33.928   6.896
 4761POPC   C4B60862   9.601  34.143   7.254
 4762POPC   NC360863  32.664  44.850   5.370
 4762POPC   PO460864  32.091  44.543   5.544
 4762POPC   GL160865  32.396  44.656   5.806
 4762POPC   GL260866  32.650  44.427   5.752
 4762POPC   C1A60867  32.402  44.831   6.222
 4762POPC   D2A60868  32.056  44.804   6.535
 4762POPC   C3A60869  32.193  44.737   6.955
 4762POPC   C4A60870  32.033  44.942   7.303
 4762POPC   C1B60871  32.515  44.321   6.200
 4762POPC   C2B60872  32.572  44.516   6.620
 4762POPC   C3B60873  32.574  44.418   7.066
 4762POPC   C4B60874  32.469  44.710   7.432
 4763POPC   NC360875   9.393   5.838   5.305
 4763POPC   PO460876   9.842   6.306   5.444
 4763POPC   GL160877   9.840   6.085   5.820
 4763POPC   GL260878   9.625   5.847   5.783
 4763POPC   C1A60879   9.907   5.937   6.249
 4763POPC   D2A60880  10.169   5.924   6.595
 4763POPC   C3A60881  10.089   5.751   6.958
 4763POPC   C4A60882  10.070   5.984   7.316
 4763POPC   C1B60883   9.415   6.064   6.123
 4763POPC   C2B60884   9.253   6.149   6.549
 4763POPC   C3B60885   9.310   6.044   6.980
 4763POPC   C4B60886   9.611   5.794   7.195
 4764POPC   NC360887  14.094   7.535   5.390
 4764POPC   PO460888  14.755   7.438   5.341
 4764POPC   GL160889  14.568   7.494   5.739
 4764POPC   GL260890  14.771   7.773   5.844
 4764POPC   C1A60891  14.336   7.397   6.144
 4764POPC   D2A60892  14.276   7.180   6.573
 4764POPC   C3A60893  14.143   7.356   6.994
 4764POPC   C4A60894  14.393   7.403   7.389
 4764POPC   C1B60895  14.858   7.860   6.266
 4764POPC   C2B60896  14.751   7.737   6.700
 4764POPC   C3B60897  14.818   7.510   7.085
 4764POPC   C4B60898  15.080   7.666   7.408
 4765POPC   NC360899   5.347  34.968   5.563
 4765POPC   PO460900   5.012  35.646   5.440
 4765POPC   GL160901   5.110  35.377   5.801
 4765POPC   GL260902   5.455  35.447   5.725
 4765POPC   C1A60903   5.076  35.115   6.208
 4765POPC   D2A60904   4.778  35.067   6.619
 4765POPC   C3A60905   4.989  35.248   6.975
 4765POPC   C4A60906   5.364  35.122   7.129
 4765POPC   C1B60907   5.540  35.571   6.147
 4765POPC   C2B60908   5.418  35.713   6.585
 4765POPC   C3B60909   5.558  35.581   6.996
 4765POPC   C4B60910   5.491  35.528   7.410
 4766POPC   NC360911   8.946  28.616   5.493
 4766POPC   PO460912   9.260  27.956   5.389
 4766POPC   GL160913   9.114  28.199   5.771
 4766POPC   GL260914   9.325  28.528   5.828
 4766POPC   C1A60915   8.814  28.202   6.164
 4766POPC   D2A60916   8.718  28.034   6.615
 4766POPC   C3A60917   8.836  28.231   7.040
 4766POPC   C4A60918   8.676  28.315   7.447
 4766POPC   C1B60919   9.298  28.319   6.243
 4766POPC   C2B60920   9.205  28.259   6.687
 4766POPC   C3B60921   9.316  28.428   7.094
 4766POPC   C4B60922   9.569  28.550   7.447
 4767POPC   NC360923  23.048  38.105   4.981
 4767POPC   PO460924  22.919  38.579   5.502
 4767POPC   GL160925  22.989  38.390   5.902
 4767POPC   GL260926  22.775  38.073   5.866
 4767POPC   C1A60927  22.904  38.511   6.301
 4767POPC   D2A60928  23.130  38.766   6.589
 4767POPC   C3A60929  22.956  38.664   6.974
 4767POPC   C4A60930  22.974  38.676   7.406
 4767POPC   C1B60931  23.055  38.003   6.240
 4767POPC   C2B60932  23.236  38.164   6.631
 4767POPC   C3B60933  23.179  38.209   7.042
 4767POPC   C4B60934  22.874  38.202   7.311
 4768POPC   NC360935  37.829  11.427   5.461
 4768POPC   PO460936  37.175  11.391   5.447
 4768POPC   GL160937  37.471  11.493   5.852
 4768POPC   GL260938  37.822  11.396   5.974
 4768POPC   C1A60939  37.508  11.657   6.312
 4768POPC   D2A60940  37.804  11.670   6.721
 4768POPC   C3A60941  37.623  11.458   7.114
 4768POPC   C4A60942  37.527  11.634   7.527
 4768POPC   C1B60943  37.849  11.260   6.414
 4768POPC   C2B60944  38.059  11.225   6.826
 4768POPC   C3B60945  38.217  11.064   7.208
 4768POPC   C4B60946  38.306  10.848   7.591
 4769POPC   NC360947   6.021  30.300   5.410
 4769POPC   PO460948   5.776  30.998   5.092
 4769POPC   GL160949   5.913  30.835   5.518
 4769POPC   GL260950   5.666  30.642   5.672
 4769POPC   C1A60951   6.097  30.876   5.980
 4769POPC   D2A60952   6.208  30.961   6.448
 4769POPC   C3A60953   6.058  30.647   6.802
 4769POPC   C4A60954   6.025  30.722   7.240
 4769POPC   C1B60955   5.610  30.741   6.128
 4769POPC   C2B60956   5.712  30.442   6.459
 4769POPC   C3B60957   5.593  30.345   6.872
 4769POPC   C4B60958   5.537  30.556   7.263
 4770POPC   NC360959  15.849  11.955   5.369
 4770POPC   PO460960  16.267  11.511   5.335
 4770POPC   GL160961  16.261  11.863   5.685
 4770POPC   GL260962  16.034  12.205   5.761
 4770POPC   C1A60963  16.345  12.001   6.107
 4770POPC   D2A60964  16.150  11.963   6.500
 4770POPC   C3A60965  16.200  12.228   6.860
 4770POPC   C4A60966  16.201  12.144   7.275
 4770POPC   C1B60967  15.779  12.245   6.178
 4770POPC   C2B60968  15.723  12.166   6.659
 4770POPC   C3B60969  15.731  12.121   7.100
 4770POPC   C4B60970  15.752  12.010   7.543
 4771POPC   NC360971  43.940  26.349   5.228
 4771POPC   PO460972  43.615  25.770   5.397
 4771POPC   GL160973  43.865  26.032   5.668
 4771POPC   GL260974  43.649  26.321   5.698
 4771POPC   C1A60975  44.115  26.124   6.054
 4771POPC   D2A60976  44.237  26.328   6.465
 4771POPC   C3A60977  44.186  26.091   6.854
 4771POPC   C4A60978  44.125  26.183   7.280
 4771POPC   C1B60979  43.573  26.107   6.110
 4771POPC   C2B60980  43.790  26.047   6.497
 4771POPC   C3B60981  43.662  26.069   6.930
 4771POPC   C4B60982  43.611  26.288   7.318
 4772POPC   NC360983  37.065   2.111   5.320
 4772POPC   PO460984  37.710   2.205   5.413
 4772POPC   GL160985  37.732   2.054   5.826
 4772POPC   GL260986  38.011   2.276   5.844
 4772POPC   C1A60987  37.493   1.903   6.210
 4772POPC   D2A60988  37.236   1.959   6.587
 4772POPC   C3A60989  37.382   1.914   6.980
 4772POPC   C4A60990  37.576   2.032   7.349
 4772POPC   C1B60991  37.996   2.104   6.274
 4772POPC   C2B60992  37.792   1.906   6.638
 4772POPC   C3B60993  37.959   2.033   7.023
 4772POPC   C4B60994  37.951   2.359   7.328
 4773POPC   NC360995  37.279  34.811   5.560
 4773POPC   PO460996  37.022  34.129   5.475
 4773POPC   GL160997  37.116  34.384   5.806
 4773POPC   GL260998  36.982  34.723   5.952
 4773POPC   C1A60999  36.971  34.293   6.190
 4773POPC   D2A61000  36.764  34.568   6.483
 4773POPC   C3A61001  36.888  34.439   6.894
 4773POPC   C4A61002  36.896  34.281   7.315
 4773POPC   C1B61003  37.381  34.820   6.215
 4773POPC   C2B61004  37.503  34.964   6.644
 4773POPC   C3B61005  37.297  35.119   7.032
 4773POPC   C4B61006  36.975  34.835   7.216
 4774POPC   NC361007  16.863  43.444   5.459
 4774POPC   PO461008  16.936  42.759   5.547
 4774POPC   GL161009  16.925  43.076   5.843
 4774POPC   GL261010  16.644  43.096   5.958
 4774POPC   C1A61011  17.033  43.082   6.301
 4774POPC   D2A61012  17.165  43.325   6.665
 4774POPC   C3A61013  16.844  43.222   6.966
 4774POPC   C4A61014  16.877  42.960   7.290
 4774POPC   C1B61015  16.425  43.078   6.282
 4774POPC   C2B61016  16.479  42.952   6.686
 4774POPC   C3B61017  16.286  43.099   7.026
 4774POPC   C4B61018  16.451  43.277   7.346
 4775POPC   NC361019  32.397   9.231   5.461
 4775POPC   PO461020  32.187   9.862   5.292
 4775POPC   GL161021  32.069   9.671   5.685
 4775POPC   GL261022  31.863   9.364   5.641
 4775POPC   C1A61023  32.259   9.702   6.122
 4775POPC   D2A61024  32.345   9.827   6.526
 4775POPC   C3A61025  32.525   9.786   6.946
 4775POPC   C4A61026  32.550   9.568   7.327
 4775POPC   C1B61027  31.904   9.350   6.092
 4775POPC   C2B61028  31.854   9.612   6.464
 4775POPC   C3B61029  32.001   9.712   6.868
 4775POPC   C4B61030  32.038   9.581   7.282
 4776POPC   NC361031   2.649  29.394   5.110
 4776POPC   PO461032   2.654  29.159   5.694
 4776POPC   GL161033   2.909  29.258   5.985
 4776POPC   GL261034   2.967  29.618   5.875
 4776POPC   C1A61035   2.923  29.015   6.398
 4776POPC   D2A61036   2.853  28.937   6.842
 4776POPC   C3A61037   2.482  29.176   6.958
 4776POPC   C4A61038   2.345  29.581   7.125
 4776POPC   C1B61039   2.874  29.601   6.347
 4776POPC   C2B61040   2.902  29.497   6.820
 4776POPC   C3B61041   2.925  29.571   7.288
 4776POPC   C4B61042   3.162  29.414   7.709
 4777POPC   NC361043  24.812  25.351   5.293
 4777POPC   PO461044  24.212  25.384   5.379
 4777POPC   GL161045  24.494  25.255   5.738
 4777POPC   GL261046  24.763  25.011   5.750
 4777POPC   C1A61047  24.455  25.437   6.159
 4777POPC   D2A61048  24.642  25.563   6.559
 4777POPC   C3A61049  24.554  25.320   6.913
 4777POPC   C4A61050  24.499  25.562   7.251
 4777POPC   C1B61051  24.782  25.061   6.227
 4777POPC   C2B61052  24.957  25.172   6.632
 4777POPC   C3B61053  25.003  25.138   7.091
 4777POPC   C4B61054  24.673  25.094   7.393
 4778POPC   NC361055  10.966   2.963   5.435
 4778POPC   PO461056  11.560   2.557   5.342
 4778POPC   GL161057  11.366   2.624   5.730
 4778POPC   GL261058  11.473   2.942   5.794
 4778POPC   C1A61059  11.238   2.559   6.168
 4778POPC   D2A61060  11.381   2.790   6.534
 4778POPC   C3A61061  11.478   2.637   6.935
 4778POPC   C4A61062  11.249   2.613   7.311
 4778POPC   C1B61063  11.193   3.098   6.149
 4778POPC   C2B61064  11.262   3.278   6.579
 4778POPC   C3B61065  11.230   3.120   6.984
 4778POPC   C4B61066  10.942   3.023   7.292
 4779POPC   NC361067   3.850  30.938   5.429
 4779POPC   PO461068   3.171  31.024   5.432
 4779POPC   GL161069   3.379  30.666   5.674
 4779POPC   GL261070   3.698  30.715   5.849
 4779POPC   C1A61071   3.296  30.570   6.112
 4779POPC   D2A61072   3.391  30.851   6.445
 4779POPC   C3A61073   3.352  30.773   6.880
 4779POPC   C4A61074   3.361  30.586   7.270
 4779POPC   C1B61075   3.796  30.610   6.244
 4779POPC   C2B61076   3.825  30.688   6.662
 4779POPC   C3B61077   3.822  30.671   7.073
 4779POPC   C4B61078   3.638  31.040   7.264
 4780POPC   NC361079  19.187  39.966   5.540
 4780POPC   PO461080  18.563  40.212   5.653
 4780POPC   GL161081  18.858  40.158   5.931
 4780POPC   GL261082  18.927  39.825   5.951
 4780POPC   C1A61083  18.873  40.124   6.368
 4780POPC   D2A61084  18.850  39.879   6.701
 4780POPC   C3A61085  19.056  40.201   6.913
 4780POPC   C4A61086  19.122  40.293   7.329
 4780POPC   C1B61087  19.301  39.936   6.188
 4780POPC   C2B61088  19.340  39.772   6.575
 4780POPC   C3B61089  19.421  39.846   6.979
 4780POPC   C4B61090  19.382  39.629   7.335
 4781POPC   NC361091  14.087  34.979   5.609
 4781POPC   PO461092  14.586  34.528   5.469
 4781POPC   GL161093  14.497  34.750   5.847
 4781POPC   GL261094  14.786  34.950   5.834
 4781POPC   C1A61095  14.257  34.697   6.259
 4781POPC   D2A61096  14.314  34.380   6.610
 4781POPC   C3A61097  14.032  34.298   6.967
 4781POPC   C4A61098  14.118  34.414   7.418
 4781POPC   C1B61099  14.735  34.864   6.292
 4781POPC   C2B61100  14.494  34.917   6.687
 4781POPC   C3B61101  14.448  34.626   7.043
 4781POPC   C4B61102  14.777  34.402   7.238
 4782POPC   NC361103  44.462  18.772   5.665
 4782POPC   PO461104  44.653  18.170   5.510
 4782POPC   GL161105  44.774  18.190   5.889
 4782POPC   GL261106  44.999  18.490   5.806
 4782POPC   C1A61107  44.668  18.112   6.339
 4782POPC   D2A61108  44.364  18.138   6.674
 4782POPC   C3A61109  44.500  18.286   7.099
 4782POPC   C4A61110  44.650  18.554   7.421
 4782POPC   C1B61111  44.771  18.583   6.208
 4782POPC   C2B61112  44.686  18.557   6.637
 4782POPC   C3B61113  44.961  18.528   6.956
 4782POPC   C4B61114   0.087  18.288   7.281
 4783POPC   NC361115  18.727  28.971   5.580
 4783POPC   PO461116  19.294  29.424   5.519
 4783POPC   GL161117  19.035  29.276   5.864
 4783POPC   GL261118  18.706  29.450   5.800
 4783POPC   C1A61119  19.005  29.057   6.307
 4783POPC   D2A61120  19.322  28.787   6.544
 4783POPC   C3A61121  19.419  28.893   6.979
 4783POPC   C4A61122  19.099  28.878   7.284
 4783POPC   C1B61123  18.841  29.576   6.206
 4783POPC   C2B61124  19.064  29.496   6.565
 4783POPC   C3B61125  18.995  29.158   6.851
 4783POPC   C4B61126  18.684  29.167   7.187
 4784POPC   NC361127   9.036  36.125   5.195
 4784POPC   PO461128   9.680  36.148   5.400
 4784POPC   GL161129   9.851  36.181   5.790
 4784POPC   GL261130   9.726  35.846   5.819
 4784POPC   C1A61131  10.036  36.355   6.169
 4784POPC   D2A61132   9.962  36.167   6.552
 4784POPC   C3A61133   9.970  36.309   6.940
 4784POPC   C4A61134   9.838  36.019   7.204
 4784POPC   C1B61135   9.616  36.007   6.211
 4784POPC   C2B61136   9.451  35.826   6.556
 4784POPC   C3B61137   9.444  35.841   6.944
 4784POPC   C4B61138   9.338  36.113   7.281
 4785POPC   NC361139  10.127  43.113   5.389
 4785POPC   PO461140   9.439  43.162   5.567
 4785POPC   GL161141   9.781  43.001   5.769
 4785POPC   GL261142   9.958  43.316   5.808
 4785POPC   C1A61143   9.713  42.876   6.166
 4785POPC   D2A61144   9.561  43.213   6.414
 4785POPC   C3A61145   9.697  43.121   6.824
 4785POPC   C4A61146   9.689  43.234   7.228
 4785POPC   C1B61147  10.061  43.267   6.203
 4785POPC   C2B61148   9.964  43.488   6.559
 4785POPC   C3B61149  10.096  43.436   6.971
 4785POPC   C4B61150  10.378  43.630   7.237
 4786POPC   NC361151  25.556  25.518   5.543
 4786POPC   PO461152  25.163  25.075   5.397
 4786POPC   GL161153  25.202  25.272   5.797
 4786POPC   GL261154  24.950  25.521   5.755
 4786POPC   C1A61155  25.471  25.357   6.183
 4786POPC   D2A61156  25.451  25.192   6.594
 4786POPC   C3A61157  25.492  25.428   6.961
 4786POPC   C4A61158  25.530  25.055   7.184
 4786POPC   C1B61159  24.997  25.537   6.191
 4786POPC   C2B61160  25.196  25.650   6.573
 4786POPC   C3B61161  24.992  25.618   6.969
 4786POPC   C4B61162  24.976  25.506   7.430
 4787POPC   NC361163  32.621  38.605   5.631
 4787POPC   PO461164  32.036  38.250   5.487
 4787POPC   GL161165  32.242  38.308   5.877
 4787POPC   GL261166  32.556  38.139   5.874
 4787POPC   C1A61167  32.184  38.283   6.318
 4787POPC   D2A61168  32.166  38.651   6.565
 4787POPC   C3A61169  31.913  38.607   6.895
 4787POPC   C4A61170  32.008  38.680   7.274
 4787POPC   C1B61171  32.684  38.223   6.320
 4787POPC   C2B61172  32.545  38.332   6.754
 4787POPC   C3B61173  32.437  38.431   7.170
 4787POPC   C4B61174  32.436  38.721   7.556
 4788POPC   NC361175   8.254  29.331   5.598
 4788POPC   PO461176   7.978  29.851   5.284
 4788POPC   GL161177   8.092  29.937   5.719
 4788POPC   GL261178   8.427  29.907   5.749
 4788POPC   C1A61179   8.080  30.109   6.161
 4788POPC   D2A61180   8.063  29.856   6.540
 4788POPC   C3A61181   7.959  29.928   6.977
 4788POPC   C4A61182   8.029  29.633   7.312
 4788POPC   C1B61183   8.512  29.796   6.186
 4788POPC   C2B61184   8.545  29.972   6.613
 4788POPC   C3B61185   8.420  29.678   6.920
 4788POPC   C4B61186   8.566  29.583   7.318
 4789POPC   NC361187  39.282  17.747   5.554
 4789POPC   PO461188  39.545  17.138   5.414
 4789POPC   GL161189  39.192  17.265   5.734
 4789POPC   GL261190  38.914  17.517   5.820
 4789POPC   C1A61191  39.143  17.190   6.185
 4789POPC   D2A61192  38.969  17.319   6.598
 4789POPC   C3A61193  39.234  17.160   6.927
 4789POPC   C4A61194  39.318  17.291   7.330
 4789POPC   C1B61195  39.027  17.694   6.230
 4789POPC   C2B61196  39.100  17.857   6.630
 4789POPC   C3B61197  39.095  17.691   7.032
 4789POPC   C4B61198  39.342  17.912   7.297
 4790POPC   NC361199   8.591   4.716   5.523
 4790POPC   PO461200   8.164   4.269   5.308
 4790POPC   GL161201   8.096   4.300   5.776
 4790POPC   GL261202   8.412   4.373   5.911
 4790POPC   C1A61203   8.098   4.184   6.252
 4790POPC   D2A61204   8.273   4.413   6.594
 4790POPC   C3A61205   8.192   4.173   6.969
 4790POPC   C4A61206   8.050   4.182   7.420
 4790POPC   C1B61207   8.593   4.716   6.168
 4790POPC   C2B61208   8.819   4.754   6.569
 4790POPC   C3B61209   8.559   4.699   6.926
 4790POPC   C4B61210   8.442   4.478   7.276
 4791POPC   NC361211  21.714   0.473   5.047
 4791POPC   PO461212  22.292   0.622   5.431
 4791POPC   GL161213  22.321   0.387   5.766
 4791POPC   GL261214  21.948   0.410   5.756
 4791POPC   C1A61215  22.408   0.475   6.195
 4791POPC   D2A61216  22.177   0.414   6.563
 4791POPC   C3A61217  22.366   0.516   6.905
 4791POPC   C4A61218  22.450   0.346   7.246
 4791POPC   C1B61219  21.918   0.258   6.166
 4791POPC   C2B61220  21.767   0.092   6.575
 4791POPC   C3B61221  21.798   0.373   6.925
 4791POPC   C4B61222  21.927   0.304   7.322
 4792POPC   NC361223   9.732  31.157   5.439
 4792POPC   PO461224   9.556  31.831   5.244
 4792POPC   GL161225   9.542  31.654   5.705
 4792POPC   GL261226   9.867  31.480   5.832
 4792POPC   C1A61227   9.556  31.711   6.183
 4792POPC   D2A61228   9.795  31.500   6.516
 4792POPC   C3A61229   9.672  31.590   6.921
 4792POPC   C4A61230   9.775  31.780   7.269
 4792POPC   C1B61231   9.667  31.176   6.127
 4792POPC   C2B61232   9.547  30.958   6.527
 4792POPC   C3B61233   9.609  31.070   6.946
 4792POPC   C4B61234   9.743  31.269   7.317
 4793POPC   NC361235  28.566  15.820   5.413
 4793POPC   PO461236  28.236  16.420   5.340
 4793POPC   GL161237  28.308  16.182   5.762
 4793POPC   GL261238  28.408  15.832   5.889
 4793POPC   C1A61239  28.292  16.201   6.219
 4793POPC   D2A61240  28.210  16.023   6.618
 4793POPC   C3A61241  28.473  16.167   6.942
 4793POPC   C4A61242  28.302  16.125   7.316
 4793POPC   C1B61243  28.187  15.664   6.263
 4793POPC   C2B61244  28.235  15.501   6.714
 4793POPC   C3B61245  28.414  15.663   7.123
 4793POPC   C4B61246  28.190  15.640   7.548
 4794POPC   NC361247  21.757  40.370   5.538
 4794POPC   PO461248  21.293  39.921   5.290
 4794POPC   GL161249  21.486  39.867   5.707
 4794POPC   GL261250  21.443  40.148   5.883
 4794POPC   C1A61251  21.394  39.736   6.164
 4794POPC   D2A61252  21.231  39.660   6.582
 4794POPC   C3A61253  21.450  39.744   6.997
 4794POPC   C4A61254  21.285  39.664   7.429
 4794POPC   C1B61255  21.576  40.218   6.313
 4794POPC   C2B61256  21.348  40.182   6.701
 4794POPC   C3B61257  21.244  40.251   7.138
 4794POPC   C4B61258  21.610  40.294   7.389
 4795POPC   NC361259  12.243  14.459   5.440
 4795POPC   PO461260  12.770  14.282   5.326
 4795POPC   GL161261  12.663  14.258   5.794
 4795POPC   GL261262  12.488  14.557   5.897
 4795POPC   C1A61263  12.777  14.369   6.274
 4795POPC   D2A61264  12.521  14.410   6.673
 4795POPC   C3A61265  12.692  14.577   7.092
 4795POPC   C4A61266  12.884  14.657   7.533
 4795POPC   C1B61267  12.462  14.797   6.319
 4795POPC   C2B61268  12.412  14.931   6.784
 4795POPC   C3B61269  12.267  14.863   7.203
 4795POPC   C4B61270  12.400  14.846   7.618
 4796POPC   NC361271  32.922  11.622   5.310
 4796POPC   PO461272  33.263  11.047   5.290
 4796POPC   GL161273  33.119  11.077   5.775
 4796POPC   GL261274  33.320  10.847   5.844
 4796POPC   C1A61275  32.991  11.256   6.242
 4796POPC   D2A61276  33.047  11.582   6.591
 4796POPC   C3A61277  32.951  11.425   7.011
 4796POPC   C4A61278  33.068  11.535   7.415
 4796POPC   C1B61279  33.159  10.797   6.274
 4796POPC   C2B61280  33.210  11.070   6.691
 4796POPC   C3B61281  33.281  10.962   7.147
 4796POPC   C4B61282  33.406  11.178   7.552
 4797POPC   NC361283  11.696  40.996   5.445
 4797POPC   PO461284  12.440  40.846   5.471
 4797POPC   GL161285  12.158  40.899   5.863
 4797POPC   GL261286  11.761  40.895   5.925
 4797POPC   C1A61287  12.349  40.796   6.259
 4797POPC   D2A61288  12.610  40.675   6.580
 4797POPC   C3A61289  12.410  40.761   6.965
 4797POPC   C4A61290  12.197  41.088   7.136
 4797POPC   C1B61291  11.848  40.806   6.320
 4797POPC   C2B61292  11.943  40.897   6.742
 4797POPC   C3B61293  11.710  40.910   7.154
 4797POPC   C4B61294  11.610  40.551   7.470
 4798POPC   NC361295  16.846  29.542   5.479
 4798POPC   PO461296  16.998  30.159   5.291
 4798POPC   GL161297  16.814  30.023   5.737
 4798POPC   GL261298  16.540  29.740   5.836
 4798POPC   C1A61299  17.010  30.101   6.168
 4798POPC   D2A61300  17.000  29.918   6.591
 4798POPC   C3A61301  16.864  30.199   6.933
 4798POPC   C4A61302  16.726  30.202   7.351
 4798POPC   C1B61303  16.578  29.851   6.296
 4798POPC   C2B61304  16.519  29.870   6.768
 4798POPC   C3B61305  16.766  29.742   7.156
 4798POPC   C4B61306  16.701  29.756   7.619
 4799POPC   NC361307  32.466   7.714   5.355
 4799POPC   PO461308  32.040   7.240   5.345
 4799POPC   GL161309  32.268   7.385   5.730
 4799POPC   GL261310  32.631   7.351   5.735
 4799POPC   C1A61311  32.191   7.571   6.160
 4799POPC   D2A61312  32.173   7.854   6.546
 4799POPC   C3A61313  32.202   7.683   6.973
 4799POPC   C4A61314  32.292   7.248   7.108
 4799POPC   C1B61315  32.697   7.497   6.191
 4799POPC   C2B61316  32.512   7.437   6.590
 4799POPC   C3B61317  32.682   7.541   6.961
 4799POPC   C4B61318  32.651   7.554   7.347
 4800POPC   NC361319  16.355  11.115   5.563
 4800POPC   PO461320  16.982  11.523   5.565
 4800POPC   GL161321  16.709  11.556   5.940
 4800POPC   GL261322  16.517  11.210   6.031
 4800POPC   C1A61323  16.829  11.431   6.373
 4800POPC   D2A61324  16.736  11.046   6.560
 4800POPC   C3A61325  16.597  11.171   6.946
 4800POPC   C4A61326  16.825  11.344   7.233
 4800POPC   C1B61327  16.323  11.526   6.287
 4800POPC   C2B61328  16.468  11.632   6.710
 4800POPC   C3B61329  16.468  11.708   7.142
 4800POPC   C4B61330  16.340  11.383   7.415
 4801POPC   NC361331  26.680  22.065   5.370
 4801POPC   PO461332  26.947  22.624   5.511
 4801POPC   GL161333  26.908  22.266   5.785
 4801POPC   GL261334  27.073  21.917   5.678
 4801POPC   C1A61335  26.632  22.225   6.124
 4801POPC   D2A61336  26.693  22.199   6.551
 4801POPC   C3A61337  26.515  22.085   6.947
 4801POPC   C4A61338  26.790  22.335   7.213
 4801POPC   C1B61339  26.950  21.823   6.113
 4801POPC   C2B61340  26.982  21.767   6.540
 4801POPC   C3B61341  27.012  21.981   6.911
 4801POPC   C4B61342  26.900  21.850   7.286
 4802POPC   NC361343   4.076   4.740   5.578
 4802POPC   PO461344   3.409   4.552   5.497
 4802POPC   GL161345   3.365   4.899   5.808
 4802POPC   GL261346   3.679   4.797   5.894
 4802POPC   C1A61347   3.544   5.215   6.152
 4802POPC   D2A61348   3.779   5.236   6.556
 4802POPC   C3A61349   3.573   5.238   6.941
 4802POPC   C4A61350   3.429   5.089   7.311
 4802POPC   C1B61351   3.934   4.867   6.246
 4802POPC   C2B61352   3.968   4.758   6.680
 4802POPC   C3B61353   3.812   4.800   7.111
 4802POPC   C4B61354   3.675   4.688   7.552
 4803POPC   NC361355  13.026  19.851   5.240
 4803POPC   PO461356  12.538  20.264   5.314
 4803POPC   GL161357  12.777  20.135   5.680
 4803POPC   GL261358  12.673  19.783   5.669
 4803POPC   C1A61359  12.949  20.111   6.125
 4803POPC   D2A61360  12.882  20.105   6.595
 4803POPC   C3A61361  13.117  19.814   6.882
 4803POPC   C4A61362  13.312  19.459   7.109
 4803POPC   C1B61363  12.470  19.924   6.083
 4803POPC   C2B61364  12.487  19.764   6.532
 4803POPC   C3B61365  12.595  19.794   6.970
 4803POPC   C4B61366  12.461  19.795   7.410
 4804POPC   NC361367  22.548   2.470   5.495
 4804POPC   PO461368  23.025   2.990   5.495
 4804POPC   GL161369  22.870   2.780   5.828
 4804POPC   GL261370  23.038   2.446   5.812
 4804POPC   C1A61371  23.113   2.871   6.196
 4804POPC   D2A61372  23.039   2.793   6.617
 4804POPC   C3A61373  23.063   3.075   6.931
 4804POPC   C4A61374  22.757   3.057   7.252
 4804POPC   C1B61375  22.938   2.380   6.250
 4804POPC   C2B61376  22.608   2.505   6.534
 4804POPC   C3B61377  22.631   2.662   6.924
 4804POPC   C4B61378  22.845   2.475   7.237
 4805POPC   NC361379  38.807   1.638   5.777
 4805POPC   PO461380  38.459   2.094   5.394
 4805POPC   GL161381  38.396   1.947   5.835
 4805POPC   GL261382  38.146   1.716   5.910
 4805POPC   C1A61383  38.524   2.022   6.282
 4805POPC   D2A61384  38.455   2.290   6.670
 4805POPC   C3A61385  38.471   2.058   7.074
 4805POPC   C4A61386  38.676   1.757   7.339
 4805POPC   C1B61387  38.157   1.609   6.297
 4805POPC   C2B61388  38.281   1.771   6.678
 4805POPC   C3B61389  38.263   1.575   7.073
 4805POPC   C4B61390  37.902   1.601   7.316
 4806POPC   NC361391   6.067  34.499   5.437
 4806POPC   PO461392   5.413  34.521   5.626
 4806POPC   GL161393   5.633  34.668   5.896
 4806POPC   GL261394   5.895  34.471   5.909
 4806POPC   C1A61395   5.612  34.611   6.313
 4806POPC   D2A61396   5.822  34.751   6.637
 4806POPC   C3A61397   5.619  34.715   6.994
 4806POPC   C4A61398   5.863  34.698   7.335
 4806POPC   C1B61399   6.122  34.612   6.249
 4806POPC   C2B61400   6.263  34.427   6.627
 4806POPC   C3B61401   5.975  34.357   6.946
 4806POPC   C4B61402   5.953  34.194   7.342
 4807POPC   NC361403  31.213  21.530   5.348
 4807POPC   PO461404  31.883  21.539   5.581
 4807POPC   GL161405  31.561  21.630   5.848
 4807POPC   GL261406  31.294  21.440   5.853
 4807POPC   C1A61407  31.486  21.494   6.315
 4807POPC   D2A61408  31.413  21.596   6.736
 4807POPC   C3A61409  31.403  21.542   7.177
 4807POPC   C4A61410  31.563  21.437   7.556
 4807POPC   C1B61411  31.031  21.233   6.141
 4807POPC   C2B61412  31.077  21.227   6.565
 4807POPC   C3B61413  31.166  21.126   6.976
 4807POPC   C4B61414  30.860  20.909   7.194
 4808POPC   NC361415  24.211  10.943   5.540
 4808POPC   PO461416  24.489  11.510   5.326
 4808POPC   GL161417  24.535  11.329   5.754
 4808POPC   GL261418  24.583  11.640   5.862
 4808POPC   C1A61419  24.709  11.288   6.205
 4808POPC   D2A61420  24.592  11.214   6.627
 4808POPC   C3A61421  24.620  11.062   7.040
 4808POPC   C4A61422  24.256  11.255   7.198
 4808POPC   C1B61423  24.532  11.819   6.252
 4808POPC   C2B61424  24.520  11.730   6.668
 4808POPC   C3B61425  24.737  11.553   6.997
 4808POPC   C4B61426  24.469  11.701   7.254
 4809POPC   NC361427  22.728  13.062   5.319
 4809POPC   PO461428  23.364  12.789   5.340
 4809POPC   GL161429  23.063  12.832   5.717
 4809POPC   GL261430  22.748  12.618   5.664
 4809POPC   C1A61431  23.187  12.923   6.186
 4809POPC   D2A61432  23.055  12.719   6.587
 4809POPC   C3A61433  23.150  12.930   6.981
 4809POPC   C4A61434  22.975  13.232   7.260
 4809POPC   C1B61435  22.676  12.827   6.082
 4809POPC   C2B61436  22.526  12.868   6.504
 4809POPC   C3B61437  22.657  12.821   6.904
 4809POPC   C4B61438  22.542  12.941   7.311
 4810POPC   NC361439  44.544  29.867   5.403
 4810POPC   PO461440   0.181  30.115   5.368
 4810POPC   GL161441  44.886  29.987   5.782
 4810POPC   GL261442  44.540  29.858   5.899
 4810POPC   C1A61443  44.843  30.212   6.240
 4810POPC   D2A61444  44.847  30.075   6.654
 4810POPC   C3A61445  44.493  30.137   6.898
 4810POPC   C4A61446  44.653  30.036   7.262
 4810POPC   C1B61447  44.484  29.870   6.328
 4810POPC   C2B61448  44.529  29.662   6.693
 4810POPC   C3B61449  44.331  29.662   7.067
 4810POPC   C4B61450  44.408  29.654   7.517
 4811POPC   NC361451  43.804  39.724   5.255
 4811POPC   PO461452  44.178  40.249   5.441
 4811POPC   GL161453  43.987  40.090   5.840
 4811POPC   GL261454  43.848  39.764   5.794
 4811POPC   C1A61455  43.825  40.248   6.263
 4811POPC   D2A61456  43.757  40.041   6.687
 4811POPC   C3A61457  44.006  40.058   7.088
 4811POPC   C4A61458  43.784  40.188   7.465
 4811POPC   C1B61459  43.802  39.721   6.256
 4811POPC   C2B61460  43.828  39.515   6.681
 4811POPC   C3B61461  43.704  39.599   7.137
 4811POPC   C4B61462  43.884  39.722   7.576
 4812POPC   NC361463  18.141  35.464   5.151
 4812POPC   PO461464  17.748  35.036   5.425
 4812POPC   GL161465  18.066  35.343   5.676
 4812POPC   GL261466  18.408  35.388   5.791
 4812POPC   C1A61467  18.083  35.597   6.119
 4812POPC   D2A61468  18.035  35.518   6.586
 4812POPC   C3A61469  18.197  35.484   7.029
 4812POPC   C4A61470  18.306  35.137   7.286
 4812POPC   C1B61471  18.464  35.258   6.191
 4812POPC   C2B61472  18.671  35.351   6.534
 4812POPC   C3B61473  18.642  35.222   6.919
 4812POPC   C4B61474  18.789  35.353   7.286
 4813POPC   NC361475   2.937   7.775   5.421
 4813POPC   PO461476   2.593   7.235   5.511
 4813POPC   GL161477   2.907   7.386   5.771
 4813POPC   GL261478   2.666   7.658   5.851
 4813POPC   C1A61479   3.105   7.397   6.171
 4813POPC   D2A61480   3.039   7.588   6.550
 4813POPC   C3A61481   3.146   7.412   6.944
 4813POPC   C4A61482   3.084   7.624   7.314
 4813POPC   C1B61483   2.598   7.381   6.218
 4813POPC   C2B61484   2.507   7.427   6.654
 4813POPC   C3B61485   2.641   7.493   7.067
 4813POPC   C4B61486   2.807   7.193   7.346
 4814POPC   NC361487  14.331  32.480   5.562
 4814POPC   PO461488  14.943  32.074   5.523
 4814POPC   GL161489  14.624  32.122   5.863
 4814POPC   GL261490  14.273  32.143   5.929
 4814POPC   C1A61491  14.595  32.412   6.226
 4814POPC   D2A61492  14.856  32.506   6.552
 4814POPC   C3A61493  14.686  32.543   6.923
 4814POPC   C4A61494  14.402  32.428   7.234
 4814POPC   C1B61495  14.404  31.940   6.300
 4814POPC   C2B61496  14.349  32.208   6.638
 4814POPC   C3B61497  14.084  32.182   6.921
 4814POPC   C4B61498  14.138  32.013   7.318
 4815POPC   NC361499   9.602  11.278   5.518
 4815POPC   PO461500  10.289  11.324   5.475
 4815POPC   GL161501  10.036  11.254   5.856
 4815POPC   GL261502   9.754  11.527   5.937
 4815POPC   C1A61503   9.993  11.280   6.300
 4815POPC   D2A61504   9.813  11.540   6.572
 4815POPC   C3A61505   9.911  11.357   6.929
 4815POPC   C4A61506  10.057  11.101   7.204
 4815POPC   C1B61507   9.423  11.610   6.244
 4815POPC   C2B61508   9.262  11.513   6.698
 4815POPC   C3B61509   9.457  11.419   7.111
 4815POPC   C4B61510   9.433  11.437   7.580
 4816POPC   NC361511  15.094  19.196   5.441
 4816POPC   PO461512  15.662  18.878   5.409
 4816POPC   GL161513  15.329  18.897   5.787
 4816POPC   GL261514  15.309  19.244   5.895
 4816POPC   C1A61515  15.192  18.908   6.268
 4816POPC   D2A61516  15.226  19.052   6.738
 4816POPC   C3A61517  15.154  18.922   7.201
 4816POPC   C4A61518  15.323  18.890   7.622
 4816POPC   C1B61519  15.254  19.448   6.270
 4816POPC   C2B61520  15.454  19.541   6.645
 4816POPC   C3B61521  15.298  19.601   7.053
 4816POPC   C4B61522  15.255  19.365   7.451
 4817POPC   NC361523  37.672  41.222   4.907
 4817POPC   PO461524  37.880  40.753   5.373
 4817POPC   GL161525  37.745  40.694   5.779
 4817POPC   GL261526  37.645  41.014   5.779
 4817POPC   C1A61527  37.546  40.763   6.207
 4817POPC   D2A61528  37.439  40.953   6.570
 4817POPC   C3A61529  37.595  40.854   6.967
 4817POPC   C4A61530  37.258  41.085   7.164
 4817POPC   C1B61531  38.001  40.960   6.136
 4817POPC   C2B61532  37.986  40.832   6.550
 4817POPC   C3B61533  38.105  41.067   6.912
 4817POPC   C4B61534  37.979  40.949   7.315
 4818POPC   NC361535  35.906   9.756   5.336
 4818POPC   PO461536  36.508   9.937   5.408
 4818POPC   GL161537  36.170  10.014   5.700
 4818POPC   GL261538  36.342   9.717   5.844
 4818POPC   C1A61539  35.881   9.840   6.018
 4818POPC   D2A61540  35.992   9.696   6.420
 4818POPC   C3A61541  35.819   9.845   6.787
 4818POPC   C4A61542  36.049   9.745   7.137
 4818POPC   C1B61543  36.391   9.953   6.214
 4818POPC   C2B61544  36.618   9.984   6.608
 4818POPC   C3B61545  36.528   9.869   7.019
 4818POPC   C4B61546  36.475   9.923   7.462
 4819POPC   NC361547  17.465  37.067   4.975
 4819POPC   PO461548  17.373  36.608   5.468
 4819POPC   GL161549  17.541  36.809   5.812
 4819POPC   GL261550  17.841  36.665   5.858
 4819POPC   C1A61551  17.580  36.908   6.250
 4819POPC   D2A61552  17.378  36.723   6.607
 4819POPC   C3A61553  17.544  37.017   6.894
 4819POPC   C4A61554  17.630  37.233   7.281
 4819POPC   C1B61555  17.764  36.436   6.198
 4819POPC   C2B61556  17.888  36.550   6.582
 4819POPC   C3B61557  17.720  36.501   6.943
 4819POPC   C4B61558  17.789  36.738   7.267
 4820POPC   NC361559  27.212  21.202   5.500
 4820POPC   PO461560  26.865  21.678   5.196
 4820POPC   GL161561  26.688  21.383   5.580
 4820POPC   GL261562  26.935  21.406   5.851
 4820POPC   C1A61563  26.528  21.248   6.074
 4820POPC   D2A61564  26.722  21.283   6.522
 4820POPC   C3A61565  26.511  21.230   6.941
 4820POPC   C4A61566  26.473  21.580   7.225
 4820POPC   C1B61567  27.169  21.338   6.248
 4820POPC   C2B61568  27.229  21.337   6.670
 4820POPC   C3B61569  26.964  21.453   6.978
 4820POPC   C4B61570  26.923  21.340   7.397
 4821POPC   NC361571  11.316  10.956   5.374
 4821POPC   PO461572  11.253  11.572   5.377
 4821POPC   GL161573  11.427  11.366   5.724
 4821POPC   GL261574  11.108  11.225   5.787
 4821POPC   C1A61575  11.485  11.272   6.172
 4821POPC   D2A61576  11.266  11.279   6.588
 4821POPC   C3A61577  11.492  11.398   6.974
 4821POPC   C4A61578  11.617  11.638   7.362
 4821POPC   C1B61579  11.028  10.981   6.167
 4821POPC   C2B61580  11.111  10.772   6.557
 4821POPC   C3B61581  11.032  10.882   7.010
 4821POPC   C4B61582  11.165  11.219   7.328
 4822POPC   NC361583   9.021  14.007   5.245
 4822POPC   PO461584   9.096  13.364   5.432
 4822POPC   GL161585   8.992  13.507   5.840
 4822POPC   GL261586   8.943  13.846   5.767
 4822POPC   C1A61587   9.064  13.487   6.293
 4822POPC   D2A61588   8.891  13.262   6.652
 4822POPC   C3A61589   9.002  13.479   7.010
 4822POPC   C4A61590   8.911  13.582   7.433
 4822POPC   C1B61591   8.842  13.960   6.202
 4822POPC   C2B61592   8.778  13.790   6.638
 4822POPC   C3B61593   8.701  13.903   7.074
 4822POPC   C4B61594   8.934  14.100   7.405
 4823POPC   NC361595   3.767  28.126   5.435
 4823POPC   PO461596   3.560  28.781   5.501
 4823POPC   GL161597   3.574  28.480   5.824
 4823POPC   GL261598   3.379  28.159   5.771
 4823POPC   C1A61599   3.534  28.539   6.279
 4823POPC   D2A61600   3.234  28.646   6.620
 4823POPC   C3A61601   3.335  28.432   7.006
 4823POPC   C4A61602   3.733  28.495   7.242
 4823POPC   C1B61603   3.662  28.066   6.106
 4823POPC   C2B61604   3.821  27.984   6.501
 4823POPC   C3B61605   3.742  28.139   6.883
 4823POPC   C4B61606   3.603  28.013   7.293
 4824POPC   NC361607   4.909  19.894   5.406
 4824POPC   PO461608   5.394  19.714   5.843
 4824POPC   GL161609   5.042  19.922   5.932
 4824POPC   GL261610   4.888  19.603   5.825
 4824POPC   C1A61611   5.182  20.099   6.336
 4824POPC   D2A61612   5.041  20.036   6.730
 4824POPC   C3A61613   5.218  19.805   7.044
 4824POPC   C4A61614   4.915  19.864   7.345
 4824POPC   C1B61615   4.873  19.403   6.218
 4824POPC   C2B61616   4.974  19.551   6.622
 4824POPC   C3B61617   4.806  19.490   7.023
 4824POPC   C4B61618   4.551  19.489   7.387
 4825POPC   NC361619  17.247  14.417   5.320
 4825POPC   PO461620  17.840  14.591   5.481
 4825POPC   GL161621  17.551  14.398   5.750
 4825POPC   GL261622  17.471  14.716   5.837
 4825POPC   C1A61623  17.642  14.289   6.179
 4825POPC   D2A61624  17.469  14.145   6.562
 4825POPC   C3A61625  17.464  14.300   6.977
 4825POPC   C4A61626  17.193  14.307   7.330
 4825POPC   C1B61627  17.588  14.787   6.273
 4825POPC   C2B61628  17.626  14.931   6.724
 4825POPC   C3B61629  17.400  14.796   7.095
 4825POPC   C4B61630  17.531  14.664   7.476
 4826POPC   NC361631  13.433   8.386   5.596
 4826POPC   PO461632  13.899   7.953   5.388
 4826POPC   GL161633  13.804   8.098   5.768
 4826POPC   GL261634  13.489   8.000   5.932
 4826POPC   C1A61635  13.971   8.335   6.060
 4826POPC   D2A61636  14.058   8.251   6.466
 4826POPC   C3A61637  13.785   8.320   6.789
 4826POPC   C4A61638  13.797   8.376   7.226
 4826POPC   C1B61639  13.517   8.313   6.294
 4826POPC   C2B61640  13.279   8.387   6.676
 4826POPC   C3B61641  13.374   8.068   6.960
 4826POPC   C4B61642  13.323   7.713   7.133
 4827POPC   NC361643  22.959  36.311   5.382
 4827POPC   PO461644  22.880  35.621   5.255
 4827POPC   GL161645  22.757  35.921   5.664
 4827POPC   GL261646  23.049  36.092   5.839
 4827POPC   C1A61647  22.737  35.908   6.165
 4827POPC   D2A61648  22.990  36.005   6.531
 4827POPC   C3A61649  22.819  36.102   6.940
 4827POPC   C4A61650  22.883  35.854   7.309
 4827POPC   C1B61651  22.968  36.414   6.172
 4827POPC   C2B61652  22.977  36.509   6.617
 4827POPC   C3B61653  23.197  36.479   6.990
 4827POPC   C4B61654  23.173  36.267   7.351
 4828POPC   NC361655   7.413  11.647   5.551
 4828POPC   PO461656   7.203  12.280   5.493
 4828POPC   GL161657   7.254  12.036   5.877
 4828POPC   GL261658   7.595  12.006   5.908
 4828POPC   C1A61659   7.114  11.897   6.298
 4828POPC   D2A61660   7.023  12.067   6.707
 4828POPC   C3A61661   7.412  12.164   6.893
 4828POPC   C4A61662   7.638  12.317   7.221
 4828POPC   C1B61663   7.625  11.820   6.303
 4828POPC   C2B61664   7.453  11.715   6.675
 4828POPC   C3B61665   7.176  11.625   6.991
 4828POPC   C4B61666   7.109  11.956   7.244
 4829POPC   NC361667  24.005   1.939   5.341
 4829POPC   PO461668  23.440   2.244   5.545
 4829POPC   GL161669  23.648   1.919   5.821
 4829POPC   GL261670  23.954   1.837   5.819
 4829POPC   C1A61671  23.595   1.735   6.222
 4829POPC   D2A61672  23.346   1.920   6.574
 4829POPC   C3A61673  23.580   2.026   6.939
 4829POPC   C4A61674  23.745   1.692   7.179
 4829POPC   C1B61675  24.036   2.023   6.173
 4829POPC   C2B61676  23.898   2.037   6.539
 4829POPC   C3B61677  24.100   1.940   6.905
 4829POPC   C4B61678  24.110   2.056   7.288
 4830POPC   NC361679  32.012  15.849   5.477
 4830POPC   PO461680  32.525  16.141   5.531
 4830POPC   GL161681  32.365  15.941   5.870
 4830POPC   GL261682  32.033  16.063   5.942
 4830POPC   C1A61683  32.430  15.876   6.288
 4830POPC   D2A61684  32.297  15.664   6.614
 4830POPC   C3A61685  32.373  15.870   6.983
 4830POPC   C4A61686  32.652  16.001   7.311
 4830POPC   C1B61687  31.981  15.651   6.154
 4830POPC   C2B61688  31.805  15.590   6.564
 4830POPC   C3B61689  31.966  15.549   7.023
 4830POPC   C4B61690  32.149  15.714   7.424
 4831POPC   NC361691  41.680  43.659   5.518
 4831POPC   PO461692  41.306  44.180   5.548
 4831POPC   GL161693  41.612  44.044   5.823
 4831POPC   GL261694  41.366  43.786   5.950
 4831POPC   C1A61695  41.813  43.790   6.152
 4831POPC   D2A61696  41.551  43.703   6.495
 4831POPC   C3A61697  41.715  43.472   6.805
 4831POPC   C4A61698  41.803  43.758   7.149
 4831POPC   C1B61699  41.370  44.146   6.249
 4831POPC   C2B61700  41.348  44.242   6.675
 4831POPC   C3B61701  41.427  44.141   7.113
 4831POPC   C4B61702  41.229  43.960   7.463
 4832POPC   NC361703  35.405  15.780   5.239
 4832POPC   PO461704  34.820  15.992   5.538
 4832POPC   GL161705  35.186  16.075   5.788
 4832POPC   GL261706  35.097  15.795   5.954
 4832POPC   C1A61707  35.403  16.145   6.198
 4832POPC   D2A61708  35.628  16.040   6.571
 4832POPC   C3A61709  35.442  16.021   6.970
 4832POPC   C4A61710  35.429  16.383   7.194
 4832POPC   C1B61711  34.966  15.652   6.345
 4832POPC   C2B61712  35.112  15.575   6.732
 4832POPC   C3B61713  34.968  15.699   7.093
 4832POPC   C4B61714  34.776  15.857   7.436
 4833POPC   NC361715   8.683   4.753   5.022
 4833POPC   PO461716   8.110   4.968   5.168
 4833POPC   GL161717   8.297   5.112   5.631
 4833POPC   GL261718   8.206   4.816   5.815
 4833POPC   C1A61719   8.269   5.183   6.134
 4833POPC   D2A61720   8.327   4.939   6.529
 4833POPC   C3A61721   8.273   5.132   6.904
 4833POPC   C4A61722   8.264   5.461   7.181
 4833POPC   C1B61723   8.036   4.690   6.182
 4833POPC   C2B61724   7.847   4.726   6.570
 4833POPC   C3B61725   8.030   4.677   6.988
 4833POPC   C4B61726   7.968   5.004   7.283
 4834POPC   NC361727  40.446  32.788   5.536
 4834POPC   PO461728  39.836  32.954   5.432
 4834POPC   GL161729  40.027  33.101   5.810
 4834POPC   GL261730  40.268  32.891   5.980
 4834POPC   C1A61731  40.071  33.313   6.189
 4834POPC   D2A61732  40.054  33.113   6.552
 4834POPC   C3A61733  40.228  33.309   6.913
 4834POPC   C4A61734  39.984  33.287   7.278
 4834POPC   C1B61735  39.960  32.715   6.179
 4834POPC   C2B61736  40.028  32.588   6.571
 4834POPC   C3B61737  40.219  32.782   6.905
 4834POPC   C4B61738  39.988  32.791   7.277
 4835POPC   NC361739  10.245  30.702   5.433
 4835POPC   PO461740  10.659  30.183   5.276
 4835POPC   GL161741  10.626  30.441   5.708
 4835POPC   GL261742  10.312  30.509   5.923
 4835POPC   C1A61743  10.773  30.436   6.167
 4835POPC   D2A61744  10.870  30.384   6.628
 4835POPC   C3A61745  10.713  30.472   7.043
 4835POPC   C4A61746  10.289  30.670   7.193
 4835POPC   C1B61747  10.481  30.833   6.252
 4835POPC   C2B61748  10.461  30.766   6.702
 4835POPC   C3B61749  10.671  30.966   7.063
 4835POPC   C4B61750  10.697  30.797   7.471
 4836POPC   NC361751  41.564  35.042   5.531
 4836POPC   PO461752  41.944  34.365   5.398
 4836POPC   GL161753  41.807  34.619   5.736
 4836POPC   GL261754  41.650  34.366   5.878
 4836POPC   C1A61755  41.714  34.732   6.207
 4836POPC   D2A61756  41.508  34.614   6.619
 4836POPC   C3A61757  41.591  34.890   6.987
 4836POPC   C4A61758  41.767  34.829   7.396
 4836POPC   C1B61759  41.452  34.270   6.222
 4836POPC   C2B61760  41.484  34.088   6.594
 4836POPC   C3B61761  41.356  34.108   6.992
 4836POPC   C4B61762  41.579  34.411   7.177
 4837POPC   NC361763  29.350  25.144   5.495
 4837POPC   PO461764  28.931  24.712   5.343
 4837POPC   GL161765  28.962  25.090   5.796
 4837POPC   GL261766  29.307  25.294   5.963
 4837POPC   C1A61767  28.995  25.123   6.293
 4837POPC   D2A61768  29.244  25.266   6.690
 4837POPC   C3A61769  29.025  25.183   7.103
 4837POPC   C4A61770  28.924  25.083   7.534
 4837POPC   C1B61771  29.361  25.615   6.306
 4837POPC   C2B61772  29.446  25.747   6.752
 4837POPC   C3B61773  29.309  25.625   7.172
 4837POPC   C4B61774  29.386  25.636   7.652
 4838POPC   NC361775  11.153   8.666   5.381
 4838POPC   PO461776  11.170   8.002   5.204
 4838POPC   GL161777  11.430   8.051   5.620
 4838POPC   GL261778  11.522   8.411   5.717
 4838POPC   C1A61779  11.318   8.067   6.095
 4838POPC   D2A61780  11.001   7.990   6.464
 4838POPC   C3A61781  11.086   8.173   6.882
 4838POPC   C4A61782  11.354   8.067   7.242
 4838POPC   C1B61783  11.707   8.398   6.153
 4838POPC   C2B61784  11.509   8.354   6.574
 4838POPC   C3B61785  11.535   8.508   7.003
 4838POPC   C4B61786  11.699   8.402   7.408
 4839POPC   NC361787   2.731  41.984   5.301
 4839POPC   PO461788   2.525  41.308   5.503
 4839POPC   GL161789   2.705  41.619   5.777
 4839POPC   GL261790   2.486  41.917   5.750
 4839POPC   C1A61791   2.822  41.494   6.206
 4839POPC   D2A61792   2.735  41.235   6.578
 4839POPC   C3A61793   2.676  41.463   6.984
 4839POPC   C4A61794   2.796  41.378   7.392
 4839POPC   C1B61795   2.384  41.922   6.189
 4839POPC   C2B61796   2.578  41.804   6.594
 4839POPC   C3B61797   2.558  41.992   7.024
 4839POPC   C4B61798   2.514  41.790   7.445
 4840POPC   NC361799  28.600  43.544   5.189
 4840POPC   PO461800  28.202  44.005   5.537
 4840POPC   GL161801  28.411  43.828   5.883
 4840POPC   GL261802  28.103  43.696   5.940
 4840POPC   C1A61803  28.570  43.847   6.339
 4840POPC   D2A61804  28.598  43.854   6.781
 4840POPC   C3A61805  28.720  43.849   7.218
 4840POPC   C4A61806  28.705  44.123   7.596
 4840POPC   C1B61807  28.037  43.929   6.257
 4840POPC   C2B61808  28.115  43.761   6.610
 4840POPC   C3B61809  28.107  43.968   6.945
 4840POPC   C4B61810  28.234  43.899   7.288
 4841POPC   NC361811   0.354  11.658   5.422
 4841POPC   PO461812   0.530  11.028   5.315
 4841POPC   GL161813   0.619  11.256   5.734
 4841POPC   GL261814   0.338  11.357   5.846
 4841POPC   C1A61815   0.710  11.303   6.218
 4841POPC   D2A61816   0.514  11.138   6.623
 4841POPC   C3A61817   0.638  11.173   7.071
 4841POPC   C4A61818   0.510  11.343   7.479
 4841POPC   C1B61819   0.213  11.472   6.274
 4841POPC   C2B61820   0.440  11.641   6.623
 4841POPC   C3B61821   0.399  11.649   7.060
 4841POPC   C4B61822   0.106  11.771   7.361
 4842POPC   NC361823   6.957   4.183   5.407
 4842POPC   PO461824   6.318   4.534   5.434
 4842POPC   GL161825   6.458   4.353   5.796
 4842POPC   GL261826   6.348   4.047   5.929
 4842POPC   C1A61827   6.538   4.514   6.196
 4842POPC   D2A61828   6.455   4.577   6.617
 4842POPC   C3A61829   6.812   4.597   6.894
 4842POPC   C4A61830   6.802   4.681   7.348
 4842POPC   C1B61831   6.765   4.050   6.121
 4842POPC   C2B61832   6.823   4.196   6.544
 4842POPC   C3B61833   6.582   4.136   6.912
 4842POPC   C4B61834   6.822   4.155   7.256
 4843POPC   NC361835   0.188  24.279   5.305
 4843POPC   PO461836   0.571  24.811   5.339
 4843POPC   GL161837   0.496  24.710   5.776
 4843POPC   GL261838   0.841  24.792   5.830
 4843POPC   C1A61839   0.318  24.489   6.164
 4843POPC   D2A61840   0.143  24.645   6.584
 4843POPC   C3A61841   0.134  24.377   6.918
 4843POPC   C4A61842   0.356  24.203   7.220
 4843POPC   C1B61843   0.758  24.967   6.225
 4843POPC   C2B61844   0.581  24.948   6.639
 4843POPC   C3B61845   0.587  24.730   7.049
 4843POPC   C4B61846   0.886  24.808   7.418
 4844POPC   NC361847   3.060  40.192   5.390
 4844POPC   PO461848   2.474  40.334   5.725
 4844POPC   GL161849   2.847  40.122   5.911
 4844POPC   GL261850   3.178  39.941   5.845
 4844POPC   C1A61851   2.859  40.219   6.354
 4844POPC   D2A61852   2.504  40.181   6.640
 4844POPC   C3A61853   2.429  40.331   7.053
 4844POPC   C4A61854   2.534  40.183   7.459
 4844POPC   C1B61855   3.049  39.752   6.254
 4844POPC   C2B61856   2.896  39.832   6.677
 4844POPC   C3B61857   2.797  39.961   7.059
 4844POPC   C4B61858   2.833  39.774   7.445
 4845POPC   NC361859   1.449  43.077   5.435
 4845POPC   PO461860   0.849  43.033   5.247
 4845POPC   GL161861   1.003  43.065   5.698
 4845POPC   GL261862   0.948  42.763   5.882
 4845POPC   C1A61863   1.088  43.311   6.119
 4845POPC   D2A61864   1.423  43.329   6.478
 4845POPC   C3A61865   1.311  43.473   6.909
 4845POPC   C4A61866   1.185  43.359   7.324
 4845POPC   C1B61867   1.305  42.838   6.172
 4845POPC   C2B61868   1.276  42.858   6.630
 4845POPC   C3B61869   1.405  42.951   7.102
 4845POPC   C4B61870   1.341  42.958   7.584
 4846POPC   NC361871  15.320  37.169   5.421
 4846POPC   PO461872  15.310  37.899   5.347
 4846POPC   GL161873  15.123  37.946   5.750
 4846POPC   GL261874  15.213  37.605   5.796
 4846POPC   C1A61875  15.013  37.850   6.202
 4846POPC   D2A61876  14.899  37.778   6.653
 4846POPC   C3A61877  15.217  37.985   6.907
 4846POPC   C4A61878  15.373  37.915   7.293
 4846POPC   C1B61879  15.467  37.524   6.178
 4846POPC   C2B61880  15.386  37.575   6.632
 4846POPC   C3B61881  15.244  37.475   7.055
 4846POPC   C4B61882  15.263  37.100   7.318
 4847POPC   NC361883  31.160  37.617   5.081
 4847POPC   PO461884  31.627  37.344   5.459
 4847POPC   GL161885  31.301  37.450   5.783
 4847POPC   GL261886  31.529  37.714   5.945
 4847POPC   C1A61887  31.183  37.506   6.239
 4847POPC   D2A61888  31.559  37.538   6.508
 4847POPC   C3A61889  31.497  37.478   6.920
 4847POPC   C4A61890  31.681  37.548   7.301
 4847POPC   C1B61891  31.349  37.988   6.298
 4847POPC   C2B61892  31.195  37.849   6.709
 4847POPC   C3B61893  31.339  37.910   7.128
 4847POPC   C4B61894  31.436  37.886   7.583
 4848POPC   NC361895  44.612  38.082   5.442
 4848POPC   PO461896  44.681  38.785   5.321
 4848POPC   GL161897  44.603  38.707   5.774
 4848POPC   GL261898  44.559  38.387   5.896
 4848POPC   C1A61899  44.796  38.749   6.189
 4848POPC   D2A61900   0.022  38.757   6.577
 4848POPC   C3A61901  44.791  38.760   6.989
 4848POPC   C4A61902  44.728  38.568   7.409
 4848POPC   C1B61903  44.788  38.234   6.242
 4848POPC   C2B61904  44.738  38.304   6.664
 4848POPC   C3B61905  44.902  38.076   6.969
 4848POPC   C4B61906  44.842  37.992   7.343
 4849POPC   NC361907  18.981  18.570   5.114
 4849POPC   PO461908  18.865  18.027   5.467
 4849POPC   GL161909  19.054  17.988   5.873
 4849POPC   GL261910  19.251  18.258   5.754
 4849POPC   C1A61911  18.883  18.088   6.297
 4849POPC   D2A61912  18.729  18.161   6.735
 4849POPC   C3A61913  18.962  18.192   7.118
 4849POPC   C4A61914  18.840  18.184   7.598
 4849POPC   C1B61915  19.299  18.406   6.168
 4849POPC   C2B61916  19.136  18.433   6.574
 4849POPC   C3B61917  18.943  18.634   6.888
 4849POPC   C4B61918  19.372  18.523   7.078
 4850POPC   NC361919  21.358  40.696   5.206
 4850POPC   PO461920  21.515  41.056   5.767
 4850POPC   GL161921  21.502  40.684   5.930
 4850POPC   GL261922  21.247  40.582   5.727
 4850POPC   C1A61923  21.494  40.719   6.365
 4850POPC   D2A61924  21.794  40.630   6.642
 4850POPC   C3A61925  21.605  40.653   7.022
 4850POPC   C4A61926  21.521  41.063   7.099
 4850POPC   C1B61927  21.121  40.429   6.156
 4850POPC   C2B61928  21.001  40.548   6.562
 4850POPC   C3B61929  20.995  40.872   6.844
 4850POPC   C4B61930  21.125  40.783   7.232
 4851POPC   NC361931  37.920  15.814   5.474
 4851POPC   PO461932  37.283  15.979   5.374
 4851POPC   GL161933  37.535  15.997   5.766
 4851POPC   GL261934  37.903  16.159   5.836
 4851POPC   C1A61935  37.565  15.822   6.186
 4851POPC   D2A61936  37.645  15.985   6.612
 4851POPC   C3A61937  37.464  15.845   6.981
 4851POPC   C4A61938  37.559  15.481   7.234
 4851POPC   C1B61939  38.009  16.087   6.251
 4851POPC   C2B61940  38.155  16.078   6.676
 4851POPC   C3B61941  37.914  16.087   7.067
 4851POPC   C4B61942  37.939  16.065   7.552
 4852POPC   NC361943  39.309  10.879   5.297
 4852POPC   PO461944  39.264  10.183   5.297
 4852POPC   GL161945  39.405  10.480   5.642
 4852POPC   GL261946  39.566  10.290   5.880
 4852POPC   C1A61947  39.380  10.745   6.052
 4852POPC   D2A61948  39.375  10.730   6.528
 4852POPC   C3A61949  39.096  10.890   6.882
 4852POPC   C4A61950  39.166  10.708   7.310
 4852POPC   C1B61951  39.329  10.270   6.275
 4852POPC   C2B61952  39.391  10.220   6.735
 4852POPC   C3B61953  39.377  10.213   7.213
 4852POPC   C4B61954  39.127  10.249   7.613
 4853POPC   NC361955   2.893  16.969   5.253
 4853POPC   PO461956   3.229  17.557   5.487
 4853POPC   GL161957   3.434  17.494   5.842
 4853POPC   GL261958   3.755  17.664   5.773
 4853POPC   C1A61959   3.192  17.502   6.205
 4853POPC   D2A61960   3.130  17.278   6.556
 4853POPC   C3A61961   3.201  17.487   6.904
 4853POPC   C4A61962   3.211  17.509   7.335
 4853POPC   C1B61963   3.849  17.465   6.153
 4853POPC   C2B61964   3.640  17.483   6.552
 4853POPC   C3B61965   3.693  17.555   6.991
 4853POPC   C4B61966   3.928  17.343   7.300
 4854POPC   NC361967  29.396  24.513   5.376
 4854POPC   PO461968  28.815  24.624   5.836
 4854POPC   GL161969  29.249  24.628   5.887
 4854POPC   GL261970  29.338  24.267   5.811
 4854POPC   C1A61971  29.331  24.701   6.341
 4854POPC   D2A61972  29.032  24.788   6.672
 4854POPC   C3A61973  29.155  24.674   7.053
 4854POPC   C4A61974  28.841  24.607   7.348
 4854POPC   C1B61975  29.277  24.165   6.243
 4854POPC   C2B61976  29.187  24.264   6.675
 4854POPC   C3B61977  29.069  24.162   7.124
 4854POPC   C4B61978  29.138  24.252   7.558
 4855POPC   NC361979  39.909  26.829   5.510
 4855POPC   PO461980  40.516  26.513   5.520
 4855POPC   GL161981  40.231  26.672   5.899
 4855POPC   GL261982  40.261  27.020   5.878
 4855POPC   C1A61983  39.902  26.859   6.263
 4855POPC   D2A61984  39.755  27.187   6.621
 4855POPC   C3A61985  39.774  27.053   7.059
 4855POPC   C4A61986  39.927  26.637   7.202
 4855POPC   C1B61987  40.298  27.169   6.304
 4855POPC   C2B61988  40.283  27.143   6.766
 4855POPC   C3B61989  40.290  26.991   7.200
 4855POPC   C4B61990  40.385  26.680   7.552
 4856POPC   NC361991  44.241  30.566   5.600
 4856POPC   PO461992  43.532  30.699   5.557
 4856POPC   GL161993  43.731  30.767   5.907
 4856POPC   GL261994  43.981  31.011   5.787
 4856POPC   C1A61995  43.947  30.502   6.208
 4856POPC   D2A61996  44.175  30.389   6.585
 4856POPC   C3A61997  43.944  30.513   6.961
 4856POPC   C4A61998  43.664  30.377   7.281
 4856POPC   C1B61999  44.051  31.025   6.235
 4856POPC   C2B62000  44.238  31.015   6.640
 4856POPC   C3B62001  44.182  30.959   7.071
 4856POPC   C4B62002  44.292  30.588   7.327
 4857POPC   NC362003  31.600  14.589   5.323
 4857POPC   PO462004  31.175  14.085   5.377
 4857POPC   GL162005  31.394  14.315   5.730
 4857POPC   GL262006  31.267  14.689   5.716
 4857POPC   C1A62007  31.718  14.319   6.109
 4857POPC   D2A62008  31.885  14.203   6.553
 4857POPC   C3A62009  31.743  14.302   6.978
 4857POPC   C4A62010  31.434  14.288   7.300
 4857POPC   C1B62011  31.392  14.713   6.160
 4857POPC   C2B62012  31.511  14.593   6.588
 4857POPC   C3B62013  31.463  14.740   7.005
 4857POPC   C4B62014  31.501  15.010   7.324
 4858POPC   NC362015  27.427  22.662   5.525
 4858POPC   PO462016  28.141  22.504   5.502
 4858POPC   GL162017  27.843  22.796   5.832
 4858POPC   GL262018  27.511  22.671   6.012
 4858POPC   C1A62019  27.807  22.950   6.315
 4858POPC   D2A62020  27.676  22.656   6.661
 4858POPC   C3A62021  27.569  22.810   7.070
 4858POPC   C4A62022  27.686  23.125   7.304
 4858POPC   C1B62023  27.308  22.856   6.350
 4858POPC   C2B62024  27.172  22.931   6.761
 4858POPC   C3B62025  27.071  22.732   7.095
 4858POPC   C4B62026  27.229  22.517   7.456
 4859POPC   NC362027   5.878  16.493   5.575
 4859POPC   PO462028   6.290  16.898   5.428
 4859POPC   GL162029   5.951  16.969   5.761
 4859POPC   GL262030   6.194  16.928   5.973
 4859POPC   C1A62031   5.676  16.885   6.120
 4859POPC   D2A62032   5.727  16.574   6.460
 4859POPC   C3A62033   5.666  16.718   6.876
 4859POPC   C4A62034   5.845  16.662   7.302
 4859POPC   C1B62035   6.108  16.949   6.409
 4859POPC   C2B62036   6.170  16.678   6.747
 4859POPC   C3B62037   6.318  16.764   7.131
 4859POPC   C4B62038   6.262  16.730   7.606
 4860POPC   NC362039  22.396  34.623   5.219
 4860POPC   PO462040  21.995  35.170   5.366
 4860POPC   GL162041  22.044  34.886   5.765
 4860POPC   GL262042  22.311  34.618   5.838
 4860POPC   C1A62043  22.055  34.793   6.242
 4860POPC   D2A62044  22.170  34.931   6.674
 4860POPC   C3A62045  22.183  34.765   7.075
 4860POPC   C4A62046  21.885  34.594   7.371
 4860POPC   C1B62047  22.358  34.314   6.212
 4860POPC   C2B62048  22.280  34.315   6.671
 4860POPC   C3B62049  22.167  34.255   7.102
 4860POPC   C4B62050  22.183  34.201   7.573
 4861POPC   NC362051  13.938  25.722   5.422
 4861POPC   PO462052  14.200  26.364   5.510
 4861POPC   GL162053  13.934  26.079   5.814
 4861POPC   GL262054  13.599  25.863   5.796
 4861POPC   C1A62055  13.765  26.093   6.234
 4861POPC   D2A62056  13.557  26.298   6.582
 4861POPC   C3A62057  13.799  26.226   6.929
 4861POPC   C4A62058  13.920  25.955   7.232
 4861POPC   C1B62059  13.374  25.758   6.207
 4861POPC   C2B62060  13.342  25.833   6.663
 4861POPC   C3B62061  13.372  25.935   7.116
 4861POPC   C4B62062  13.530  26.180   7.481
 4862POPC   NC362063  39.140  38.590   5.520
 4862POPC   PO462064  39.527  38.052   5.553
 4862POPC   GL162065  39.294  38.270   5.875
 4862POPC   GL262066  39.386  38.636   5.960
 4862POPC   C1A62067  38.979  38.363   6.158
 4862POPC   D2A62068  38.739  38.373   6.513
 4862POPC   C3A62069  38.929  38.406   6.914
 4862POPC   C4A62070  38.979  38.622   7.278
 4862POPC   C1B62071  39.490  38.416   6.359
 4862POPC   C2B62072  39.545  38.363   6.807
 4862POPC   C3B62073  39.472  38.467   7.239
 4862POPC   C4B62074  39.492  38.747   7.598
 4863POPC   NC362075   3.050  12.429   5.521
 4863POPC   PO462076   3.322  11.710   5.387
 4863POPC   GL162077   3.295  11.912   5.795
 4863POPC   GL262078   3.431  12.255   5.822
 4863POPC   C1A62079   3.305  11.909   6.243
 4863POPC   D2A62080   3.585  11.860   6.624
 4863POPC   C3A62081   3.423  11.849   7.070
 4863POPC   C4A62082   3.162  11.909   7.424
 4863POPC   C1B62083   3.212  12.448   6.173
 4863POPC   C2B62084   3.331  12.540   6.598
 4863POPC   C3B62085   3.534  12.324   6.933
 4863POPC   C4B62086   3.481  12.323   7.352
 4864POPC   NC362087  15.967  12.636   5.342
 4864POPC   PO462088  15.460  13.178   5.388
 4864POPC   GL162089  15.752  12.967   5.671
 4864POPC   GL262090  15.682  12.602   5.755
 4864POPC   C1A62091  16.116  12.879   5.969
 4864POPC   D2A62092  16.298  12.954   6.397
 4864POPC   C3A62093  16.150  12.748   6.792
 4864POPC   C4A62094  16.280  12.692   7.231
 4864POPC   C1B62095  15.621  12.811   6.142
 4864POPC   C2B62096  15.701  12.658   6.528
 4864POPC   C3B62097  15.656  12.621   6.949
 4864POPC   C4B62098  15.818  12.945   7.160
 4865POPC   NC362099  21.426   8.862   5.123
 4865POPC   PO462100  21.740   9.379   5.401
 4865POPC   GL162101  21.541   9.010   5.602
 4865POPC   GL262102  21.250   8.946   5.670
 4865POPC   C1A62103  21.576   8.845   6.049
 4865POPC   D2A62104  21.407   9.044   6.445
 4865POPC   C3A62105  21.525   8.909   6.816
 4865POPC   C4A62106  21.475   8.788   7.218
 4865POPC   C1B62107  21.072   8.802   6.098
 4865POPC   C2B62108  20.881   8.956   6.466
 4865POPC   C3B62109  21.036   8.991   6.883
 4865POPC   C4B62110  20.964   8.713   7.250
 4866POPC   NC362111  44.613  37.259   4.873
 4866POPC   PO462112  44.601  36.681   5.262
 4866POPC   GL162113  44.702  36.805   5.707
 4866POPC   GL262114   0.042  37.002   5.710
 4866POPC   C1A62115  44.514  37.010   6.130
 4866POPC   D2A62116  44.606  37.276   6.548
 4866POPC   C3A62117  44.438  37.174   6.995
 4866POPC   C4A62118  44.335  36.760   7.208
 4866POPC   C1B62119   0.001  36.862   6.137
 4866POPC   C2B62120  44.731  36.726   6.506
 4866POPC   C3B62121  44.805  36.849   6.925
 4866POPC   C4B62122  44.811  36.644   7.323
 4867POPC   NC362123  15.685  38.082   5.573
 4867POPC   PO462124  16.029  37.588   5.261
 4867POPC   GL162125  16.070  37.697   5.686
 4867POPC   GL262126  15.737  37.598   5.740
 4867POPC   C1A62127  15.984  37.874   6.127
 4867POPC   D2A62128  15.998  38.079   6.521
 4867POPC   C3A62129  15.783  37.996   6.930
 4867POPC   C4A62130  15.857  37.797   7.349
 4867POPC   C1B62131  15.974  37.367   6.086
 4867POPC   C2B62132  15.844  37.348   6.509
 4867POPC   C3B62133  15.820  37.504   6.923
 4867POPC   C4B62134  15.705  37.320   7.315
 4868POPC   NC362135  34.910   9.845   5.351
 4868POPC   PO462136  34.463   9.345   5.297
 4868POPC   GL162137  34.605   9.550   5.707
 4868POPC   GL262138  34.630   9.290   5.926
 4868POPC   C1A62139  34.584   9.777   6.133
 4868POPC   D2A62140  34.334   9.810   6.515
 4868POPC   C3A62141  34.404   9.588   6.917
 4868POPC   C4A62142  34.544   9.793   7.294
 4868POPC   C1B62143  34.864   9.389   6.288
 4868POPC   C2B62144  34.845   9.659   6.637
 4868POPC   C3B62145  34.974   9.554   7.056
 4868POPC   C4B62146  34.867   9.422   7.454
 4869POPC   NC362147   6.284  31.129   5.305
 4869POPC   PO462148   6.441  30.489   5.490
 4869POPC   GL162149   6.810  30.616   5.765
 4869POPC   GL262150   6.935  30.982   5.698
 4869POPC   C1A62151   6.741  30.545   6.205
 4869POPC   D2A62152   6.412  30.480   6.478
 4869POPC   C3A62153   6.551  30.556   6.908
 4869POPC   C4A62154   6.677  30.297   7.244
 4869POPC   C1B62155   6.626  31.027   6.043
 4869POPC   C2B62156   6.728  31.032   6.481
 4869POPC   C3B62157   6.792  31.045   6.926
 4869POPC   C4B62158   6.815  30.787   7.306
 4870POPC   NC362159  10.864   5.881   5.384
 4870POPC   PO462160  11.476   5.595   5.547
 4870POPC   GL162161  11.307   5.802   5.893
 4870POPC   GL262162  11.598   5.949   5.997
 4870POPC   C1A62163  11.134   5.926   6.311
 4870POPC   D2A62164  11.285   6.120   6.721
 4870POPC   C3A62165  11.109   5.921   7.113
 4870POPC   C4A62166  11.154   5.677   7.508
 4870POPC   C1B62167  11.631   5.838   6.413
 4870POPC   C2B62168  11.781   5.800   6.825
 4870POPC   C3B62169  11.610   6.036   7.176
 4870POPC   C4B62170  11.790   6.304   7.545
 4871POPC   NC362171  43.493   6.245   5.533
 4871POPC   PO462172  43.017   5.923   5.330
 4871POPC   GL162173  42.900   5.903   5.752
 4871POPC   GL262174  43.203   6.002   5.904
 4871POPC   C1A62175  42.840   5.670   6.163
 4871POPC   D2A62176  42.705   5.537   6.605
 4871POPC   C3A62177  43.008   5.615   6.954
 4871POPC   C4A62178  43.142   5.871   7.316
 4871POPC   C1B62179  43.336   6.278   6.260
 4871POPC   C2B62180  43.433   6.232   6.697
 4871POPC   C3B62181  43.559   6.121   7.125
 4871POPC   C4B62182  43.366   6.321   7.497
 4872POPC   NC362183  16.778  14.946   5.207
 4872POPC   PO462184  16.806  14.302   5.328
 4872POPC   GL162185  17.006  14.397   5.755
 4872POPC   GL262186  16.978  14.756   5.678
 4872POPC   C1A62187  17.107  14.247   6.199
 4872POPC   D2A62188  16.830  14.316   6.586
 4872POPC   C3A62189  16.817  14.110   7.000
 4872POPC   C4A62190  16.508  13.973   7.356
 4872POPC   C1B62191  17.082  14.766   6.158
 4872POPC   C2B62192  17.215  14.639   6.610
 4872POPC   C3B62193  16.939  14.629   7.006
 4872POPC   C4B62194  16.660  14.485   7.348
 4873POPC   NC362195  40.250   0.705   5.519
 4873POPC   PO462196  39.940   0.097   5.442
 4873POPC   GL162197  39.939   0.370   5.800
 4873POPC   GL262198  39.733   0.688   5.775
 4873POPC   C1A62199  39.935   0.230   6.227
 4873POPC   D2A62200  40.116   0.222   6.618
 4873POPC   C3A62201  39.934   0.198   7.004
 4873POPC   C4A62202  40.080   0.374   7.362
 4873POPC   C1B62203  40.021   0.752   6.142
 4873POPC   C2B62204  40.210   0.875   6.529
 4873POPC   C3B62205  40.119   0.662   6.898
 4873POPC   C4B62206  39.827   0.799   7.204
 4874POPC   NC362207  12.509  44.311   5.249
 4874POPC   PO462208  12.622  43.656   5.438
 4874POPC   GL162209  12.962  43.783   5.794
 4874POPC   GL262210  13.075  44.123   5.694
 4874POPC   C1A62211  13.016  43.754   6.288
 4874POPC   D2A62212  12.797  43.655   6.685
 4874POPC   C3A62213  12.933  43.838   7.063
 4874POPC   C4A62214  12.581  43.895   7.325
 4874POPC   C1B62215  13.148  44.222   6.162
 4874POPC   C2B62216  13.182  44.186   6.661
 4874POPC   C3B62217  13.161  44.330   7.131
 4874POPC   C4B62218  13.081  44.066   7.513
 4875POPC   NC362219  25.570  27.819   5.329
 4875POPC   PO462220  24.997  27.560   5.506
 4875POPC   GL162221  25.216  27.706   5.877
 4875POPC   GL262222  25.514  27.557   5.775
 4875POPC   C1A62223  25.299  27.679   6.338
 4875POPC   D2A62224  25.183  27.796   6.762
 4875POPC   C3A62225  25.094  27.479   7.090
 4875POPC   C4A62226  25.330  27.697   7.350
 4875POPC   C1B62227  25.605  27.288   6.110
 4875POPC   C2B62228  25.743  27.307   6.539
 4875POPC   C3B62229  25.573  27.448   6.901
 4875POPC   C4B62230  25.734  27.406   7.271
 4876POPC   NC362231  40.318  13.758   5.699
 4876POPC   PO462232  39.955  13.206   5.477
 4876POPC   GL162233  39.934  13.411   5.879
 4876POPC   GL262234  39.808  13.752   5.916
 4876POPC   C1A62235  39.704  13.433   6.264
 4876POPC   D2A62236  39.713  13.721   6.523
 4876POPC   C3A62237  39.854  13.582   6.858
 4876POPC   C4A62238  39.764  13.447   7.235
 4876POPC   C1B62239  40.073  13.950   6.270
 4876POPC   C2B62240  40.275  13.814   6.671
 4876POPC   C3B62241  40.215  14.061   7.064
 4876POPC   C4B62242  39.920  14.027   7.416
 4877POPC   NC362243  41.494   8.244   5.175
 4877POPC   PO462244  41.860   8.485   5.659
 4877POPC   GL162245  41.652   8.100   5.677
 4877POPC   GL262246  41.342   8.224   5.719
 4877POPC   C1A62247  41.669   8.045   6.112
 4877POPC   D2A62248  41.770   8.294   6.481
 4877POPC   C3A62249  41.506   8.296   6.825
 4877POPC   C4A62250  41.698   8.228   7.191
 4877POPC   C1B62251  41.309   8.501   6.103
 4877POPC   C2B62252  41.105   8.522   6.518
 4877POPC   C3B62253  41.171   8.687   6.925
 4877POPC   C4B62254  41.244   8.443   7.281
 4878POPC   NC362255  19.234  12.109   5.061
 4878POPC   PO462256  18.893  11.899   5.604
 4878POPC   GL162257  19.047  12.222   5.844
 4878POPC   GL262258  18.760  12.373   6.005
 4878POPC   C1A62259  19.224  12.234   6.234
 4878POPC   D2A62260  19.178  11.939   6.537
 4878POPC   C3A62261  19.357  12.080   6.881
 4878POPC   C4A62262  19.227  12.408   7.160
 4878POPC   C1B62263  18.731  11.970   6.229
 4878POPC   C2B62264  18.670  11.943   6.650
 4878POPC   C3B62265  18.849  12.113   6.986
 4878POPC   C4B62266  19.073  11.916   7.305
 4879POPC   NC362267  37.429  38.190   5.485
 4879POPC   PO462268  37.620  38.828   5.399
 4879POPC   GL162269  37.684  38.591   5.785
 4879POPC   GL262270  37.518  38.337   5.954
 4879POPC   C1A62271  37.673  38.763   6.205
 4879POPC   D2A62272  37.409  38.726   6.561
 4879POPC   C3A62273  37.527  38.594   6.935
 4879POPC   C4A62274  37.502  38.288   7.214
 4879POPC   C1B62275  37.883  38.308   6.241
 4879POPC   C2B62276  37.944  38.545   6.628
 4879POPC   C3B62277  37.993  38.380   7.042
 4879POPC   C4B62278  37.911  37.984   7.210
 4880POPC   NC362279  43.695   0.833   5.507
 4880POPC   PO462280  44.052   1.360   5.350
 4880POPC   GL162281  43.954   1.414   5.781
 4880POPC   GL262282  43.683   1.641   5.872
 4880POPC   C1A62283  43.909   1.210   6.165
 4880POPC   D2A62284  44.161   1.087   6.511
 4880POPC   C3A62285  43.988   0.912   6.893
 4880POPC   C4A62286  43.998   1.170   7.242
 4880POPC   C1B62287  43.484   1.502   6.253
 4880POPC   C2B62288  43.659   1.276   6.620
 4880POPC   C3B62289  43.547   1.280   7.038
 4880POPC   C4B62290  43.517   1.622   7.341
 4881POPC   NC362291  34.769   6.870   5.413
 4881POPC   PO462292  34.451   6.277   5.393
 4881POPC   GL162293  34.450   6.511   5.803
 4881POPC   GL262294  34.738   6.714   5.910
 4881POPC   C1A62295  34.491   6.455   6.279
 4881POPC   D2A62296  34.608   6.744   6.635
 4881POPC   C3A62297  34.460   6.515   6.945
 4881POPC   C4A62298  34.171   6.611   7.199
 4881POPC   C1B62299  34.974   6.605   6.304
 4881POPC   C2B62300  35.009   6.448   6.771
 4881POPC   C3B62301  34.873   6.627   7.211
 4881POPC   C4B62302  34.912   6.597   7.711
 4882POPC   NC362303  39.575  21.137   5.440
 4882POPC   PO462304  38.896  20.980   5.433
 4882POPC   GL162305  39.177  21.078   5.821
 4882POPC   GL262306  39.318  21.422   5.811
 4882POPC   C1A62307  39.183  21.203   6.283
 4882POPC   D2A62308  39.035  21.482   6.638
 4882POPC   C3A62309  39.221  21.449   7.053
 4882POPC   C4A62310  39.331  21.095   7.280
 4882POPC   C1B62311  39.523  21.634   6.151
 4882POPC   C2B62312  39.578  21.561   6.590
 4882POPC   C3B62313  39.705  21.677   7.015
 4882POPC   C4B62314  39.625  21.516   7.436
 4883POPC   NC362315  25.721  10.271   5.321
 4883POPC   PO462316  26.386  10.309   5.437
 4883POPC   GL162317  26.053  10.509   5.682
 4883POPC   GL262318  26.165  10.845   5.841
 4883POPC   C1A62319  25.938  10.421   6.116
 4883POPC   D2A62320  26.049  10.582   6.541
 4883POPC   C3A62321  25.878  10.377   6.903
 4883POPC   C4A62322  25.743  10.314   7.329
 4883POPC   C1B62323  25.823  10.918   6.158
 4883POPC   C2B62324  25.655  10.960   6.568
 4883POPC   C3B62325  25.940  10.969   6.917
 4883POPC   C4B62326  26.115  10.709   7.233
 4884POPC   NC362327  20.745   4.826   5.260
 4884POPC   PO462328  20.204   5.191   5.145
 4884POPC   GL162329  20.335   5.067   5.620
 4884POPC   GL262330  20.699   4.928   5.752
 4884POPC   C1A62331  20.367   5.106   6.103
 4884POPC   D2A62332  20.655   5.088   6.488
 4884POPC   C3A62333  20.463   5.204   6.893
 4884POPC   C4A62334  20.282   5.352   7.291
 4884POPC   C1B62335  20.937   4.803   6.138
 4884POPC   C2B62336  20.934   4.595   6.541
 4884POPC   C3B62337  20.813   4.813   6.926
 4884POPC   C4B62338  20.712   4.998   7.293
 4885POPC   NC362339  39.587  23.558   5.444
 4885POPC   PO462340  40.096  23.959   5.365
 4885POPC   GL162341  39.987  23.793   5.755
 4885POPC   GL262342  39.710  24.011   5.750
 4885POPC   C1A62343  39.994  23.560   6.155
 4885POPC   D2A62344  40.312  23.531   6.479
 4885POPC   C3A62345  40.299  23.803   6.824
 4885POPC   C4A62346  40.272  23.710   7.257
 4885POPC   C1B62347  39.814  24.055   6.201
 4885POPC   C2B62348  39.823  23.823   6.600
 4885POPC   C3B62349  39.826  23.631   7.010
 4885POPC   C4B62350  39.794  23.814   7.417
 4886POPC   NC362351  24.287  28.671   5.544
 4886POPC   PO462352  24.472  28.031   5.480
 4886POPC   GL162353  24.622  28.288   5.869
 4886POPC   GL262354  24.510  28.613   5.987
 4886POPC   C1A62355  24.542  28.257   6.327
 4886POPC   D2A62356  24.373  28.384   6.731
 4886POPC   C3A62357  24.546  28.147   7.076
 4886POPC   C4A62358  24.953  28.011   7.196
 4886POPC   C1B62359  24.801  28.728   6.282
 4886POPC   C2B62360  24.749  28.773   6.699
 4886POPC   C3B62361  24.617  28.639   7.093
 4886POPC   C4B62362  24.521  28.550   7.529
 4887POPC   NC362363  27.936  21.827   5.792
 4887POPC   PO462364  27.508  22.164   5.345
 4887POPC   GL162365  27.728  22.294   5.738
 4887POPC   GL262366  27.497  22.105   5.915
 4887POPC   C1A62367  27.844  22.345   6.220
 4887POPC   D2A62368  27.894  21.956   6.484
 4887POPC   C3A62369  27.912  21.981   6.947
 4887POPC   C4A62370  27.844  22.264   7.296
 4887POPC   C1B62371  27.195  22.269   6.220
 4887POPC   C2B62372  27.166  22.423   6.640
 4887POPC   C3B62373  27.409  22.329   6.988
 4887POPC   C4B62374  27.375  22.036   7.286
 4888POPC   NC362375  28.496  13.201   5.110
 4888POPC   PO462376  28.223  13.656   5.506
 4888POPC   GL162377  28.225  13.746   5.885
 4888POPC   GL262378  28.602  13.742   5.880
 4888POPC   C1A62379  28.014  13.590   6.258
 4888POPC   D2A62380  28.127  13.756   6.650
 4888POPC   C3A62381  28.108  13.538   6.971
 4888POPC   C4A62382  28.005  13.659   7.337
 4888POPC   C1B62383  28.502  13.722   6.322
 4888POPC   C2B62384  28.607  13.577   6.742
 4888POPC   C3B62385  28.552  13.776   7.133
 4888POPC   C4B62386  28.745  13.827   7.526
 4889POPC   NC362387  10.696  22.326   5.542
 4889POPC   PO462388  11.430  22.170   5.435
 4889POPC   GL162389  11.265  22.292   5.843
 4889POPC   GL262390  10.979  22.094   5.910
 4889POPC   C1A62391  11.300  22.214   6.303
 4889POPC   D2A62392  11.281  22.026   6.724
 4889POPC   C3A62393  11.277  22.323   7.087
 4889POPC   C4A62394  11.584  22.548   7.342
 4889POPC   C1B62395  10.879  21.922   6.313
 4889POPC   C2B62396  10.819  21.765   6.728
 4889POPC   C3B62397  10.873  21.996   7.093
 4889POPC   C4B62398  10.976  22.023   7.546
 4890POPC   NC362399  27.171  28.137   5.453
 4890POPC   PO462400  27.694  27.553   5.418
 4890POPC   GL162401  27.558  27.774   5.793
 4890POPC   GL262402  27.189  27.694   5.781
 4890POPC   C1A62403  27.502  27.530   6.179
 4890POPC   D2A62404  27.608  27.346   6.554
 4890POPC   C3A62405  27.492  27.538   6.947
 4890POPC   C4A62406  27.549  27.532   7.380
 4890POPC   C1B62407  27.062  27.765   6.236
 4890POPC   C2B62408  27.173  27.833   6.683
 4890POPC   C3B62409  27.029  27.776   7.122
 4890POPC   C4B62410  27.200  27.841   7.560
 4891POPC   NC362411  40.022  38.121   5.474
 4891POPC   PO462412  40.256  38.733   5.619
 4891POPC   GL162413  40.129  38.421   5.901
 4891POPC   GL262414  39.801  38.353   5.884
 4891POPC   C1A62415  40.007  38.292   6.329
 4891POPC   D2A62416  39.991  38.556   6.652
 4891POPC   C3A62417  40.004  38.366   7.058
 4891POPC   C4A62418  40.344  38.328   7.341
 4891POPC   C1B62419  39.838  38.763   6.170
 4891POPC   C2B62420  39.713  38.988   6.571
 4891POPC   C3B62421  39.751  38.828   7.010
 4891POPC   C4B62422  39.969  38.745   7.414
 4892POPC   NC362423   1.994   4.515   5.393
 4892POPC   PO462424   2.250   3.974   5.468
 4892POPC   GL162425   2.142   4.275   5.809
 4892POPC   GL262426   1.803   4.245   5.821
 4892POPC   C1A62427   2.055   4.509   6.190
 4892POPC   D2A62428   2.144   4.237   6.540
 4892POPC   C3A62429   2.042   4.425   6.875
 4892POPC   C4A62430   2.175   4.301   7.238
 4892POPC   C1B62431   1.803   4.052   6.198
 4892POPC   C2B62432   1.618   4.154   6.577
 4892POPC   C3B62433   1.719   4.059   6.978
 4892POPC   C4B62434   1.513   4.179   7.322
 4893POPC   NC362435  41.642  16.586   5.394
 4893POPC   PO462436  41.122  17.040   5.381
 4893POPC   GL162437  41.408  16.911   5.740
 4893POPC   GL262438  41.401  16.546   5.822
 4893POPC   C1A62439  41.636  16.896   6.146
 4893POPC   D2A62440  41.674  17.019   6.580
 4893POPC   C3A62441  41.407  16.865   6.907
 4893POPC   C4A62442  41.532  16.840   7.314
 4893POPC   C1B62443  41.393  16.461   6.245
 4893POPC   C2B62444  41.509  16.225   6.575
 4893POPC   C3B62445  41.633  16.382   6.961
 4893POPC   C4B62446  41.358  16.387   7.302
 4894POPC   NC362447  18.906  27.218   5.110
 4894POPC   PO462448  19.399  27.548   5.444
 4894POPC   GL162449  19.104  27.728   5.793
 4894POPC   GL262450  19.179  27.436   6.032
 4894POPC   C1A62451  18.793  27.731   6.142
 4894POPC   D2A62452  19.006  27.607   6.513
 4894POPC   C3A62453  18.989  27.718   6.946
 4894POPC   C4A62454  18.710  27.732   7.274
 4894POPC   C1B62455  19.312  27.210   6.388
 4894POPC   C2B62456  19.284  27.292   6.819
 4894POPC   C3B62457  19.049  27.275   7.209
 4894POPC   C4B62458  18.975  27.094   7.654
 4895POPC   NC362459  17.890  36.968   5.442
 4895POPC   PO462460  18.561  36.982   5.438
 4895POPC   GL162461  18.382  36.758   5.802
 4895POPC   GL262462  18.212  37.040   5.844
 4895POPC   C1A62463  18.220  36.707   6.224
 4895POPC   D2A62464  18.330  36.896   6.611
 4895POPC   C3A62465  18.240  36.672   6.956
 4895POPC   C4A62466  18.320  36.743   7.346
 4895POPC   C1B62467  18.527  37.156   6.184
 4895POPC   C2B62468  18.712  37.265   6.620
 4895POPC   C3B62469  18.567  37.128   7.039
 4895POPC   C4B62470  18.543  37.169   7.500
 4896POPC   NC362471  30.514  10.834   5.519
 4896POPC   PO462472  30.643  10.209   5.422
 4896POPC   GL162473  30.871  10.440   5.755
 4896POPC   GL262474  30.971  10.759   5.799
 4896POPC   C1A62475  30.829  10.446   6.208
 4896POPC   D2A62476  30.711  10.314   6.629
 4896POPC   C3A62477  30.922  10.482   7.018
 4896POPC   C4A62478  30.679  10.372   7.356
 4896POPC   C1B62479  30.830  10.962   6.165
 4896POPC   C2B62480  30.770  10.827   6.577
 4896POPC   C3B62481  30.511  10.739   6.914
 4896POPC   C4B62482  30.527  10.889   7.307
 4897POPC   NC362483   6.713  36.790   5.485
 4897POPC   PO462484   6.964  37.435   5.499
 4897POPC   GL162485   6.798  37.166   5.850
 4897POPC   GL262486   6.896  36.795   5.963
 4897POPC   C1A62487   6.587  37.116   6.252
 4897POPC   D2A62488   6.801  37.093   6.652
 4897POPC   C3A62489   6.488  37.096   6.936
 4897POPC   C4A62490   6.430  37.052   7.321
 4897POPC   C1B62491   6.529  36.609   6.211
 4897POPC   C2B62492   6.380  36.708   6.641
 4897POPC   C3B62493   6.456  36.578   7.098
 4897POPC   C4B62494   6.176  36.628   7.477
 4898POPC   NC362495  37.067  42.346   5.464
 4898POPC   PO462496  37.199  43.041   5.614
 4898POPC   GL162497  37.059  42.635   5.912
 4898POPC   GL262498  37.158  42.241   5.957
 4898POPC   C1A62499  36.706  42.390   6.122
 4898POPC   D2A62500  36.580  42.258   6.550
 4898POPC   C3A62501  36.844  42.313   6.884
 4898POPC   C4A62502  36.731  42.302   7.302
 4898POPC   C1B62503  37.107  42.229   6.415
 4898POPC   C2B62504  37.306  42.080   6.818
 4898POPC   C3B62505  37.127  42.016   7.248
 4898POPC   C4B62506  37.156  41.966   7.713
 4899POPC   NC362507  11.072  36.428   5.352
 4899POPC   PO462508  11.459  35.965   5.510
 4899POPC   GL162509  11.270  36.239   5.792
 4899POPC   GL262510  11.586  36.432   5.792
 4899POPC   C1A62511  11.078  36.207   6.208
 4899POPC   D2A62512  10.987  35.830   6.507
 4899POPC   C3A62513  11.121  35.930   6.945
 4899POPC   C4A62514  10.920  36.234   7.231
 4899POPC   C1B62515  11.613  36.103   6.143
 4899POPC   C2B62516  11.467  36.066   6.547
 4899POPC   C3B62517  11.668  36.085   6.924
 4899POPC   C4B62518  11.595  35.992   7.312
 4900POPC   NC362519   3.122  29.742   5.369
 4900POPC   PO462520   3.741  29.727   5.432
 4900POPC   GL162521   3.445  29.833   5.757
 4900POPC   GL262522   3.497  30.168   5.861
 4900POPC   C1A62523   3.387  29.696   6.165
 4900POPC   D2A62524   3.253  29.851   6.578
 4900POPC   C3A62525   3.421  29.709   6.939
 4900POPC   C4A62526   3.387  29.797   7.376
 4900POPC   C1B62527   3.549  30.171   6.313
 4900POPC   C2B62528   3.509  30.272   6.764
 4900POPC   C3B62529   3.663  30.178   7.180
 4900POPC   C4B62530   3.867  30.023   7.567
 4901POPC   NC362531   5.504  44.114   5.565
 4901POPC   PO462532   6.151  44.165   5.472
 4901POPC   GL162533   5.913  43.952   5.822
 4901POPC   GL262534   5.691  43.654   5.745
 4901POPC   C1A62535   5.765  44.092   6.214
 4901POPC   D2A62536   5.513  44.223   6.585
 4901POPC   C3A62537   5.571  44.063   6.992
 4901POPC   C4A62538   5.934  44.048   7.215
 4901POPC   C1B62539   5.707  43.592   6.180
 4901POPC   C2B62540   5.775  43.768   6.614
 4901POPC   C3B62541   5.944  43.595   7.010
 4901POPC   C4B62542   6.366  43.425   7.142
 4902POPC   NC362543  39.521   6.236   5.495
 4902POPC   PO462544  39.130   5.675   5.521
 4902POPC   GL162545  39.346   5.662   5.929
 4902POPC   GL262546  39.552   5.960   5.963
 4902POPC   C1A62547  39.213   5.741   6.358
 4902POPC   D2A62548  38.893   5.849   6.678
 4902POPC   C3A62549  39.098   5.919   7.071
 4902POPC   C4A62550  39.222   5.971   7.507
 4902POPC   C1B62551  39.503   6.207   6.361
 4902POPC   C2B62552  39.352   6.284   6.795
 4902POPC   C3B62553  39.291   6.418   7.225
 4902POPC   C4B62554  39.531   6.456   7.631
 4903POPC   NC362555   8.487  19.141   5.397
 4903POPC   PO462556   7.969  19.420   5.741
 4903POPC   GL162557   8.295  19.134   5.877
 4903POPC   GL262558   8.574  19.364   5.849
 4903POPC   C1A62559   8.291  18.903   6.269
 4903POPC   D2A62560   8.131  19.105   6.651
 4903POPC   C3A62561   8.035  18.863   7.015
 4903POPC   C4A62562   8.391  18.856   7.141
 4903POPC   C1B62563   8.698  19.207   6.242
 4903POPC   C2B62564   8.668  19.065   6.665
 4903POPC   C3B62565   8.521  19.323   6.998
 4903POPC   C4B62566   8.567  19.289   7.434
 4904POPC   NC362567   4.357   0.106   5.368
 4904POPC   PO462568   4.498  44.351   5.419
 4904POPC   GL162569   4.546  44.585   5.813
 4904POPC   GL262570   4.279  44.856   5.806
 4904POPC   C1A62571   4.378  44.463   6.236
 4904POPC   D2A62572   4.224  44.357   6.650
 4904POPC   C3A62573   4.431  44.595   6.996
 4904POPC   C4A62574   4.298  44.741   7.421
 4904POPC   C1B62575   4.326  44.981   6.227
 4904POPC   C2B62576   4.242  44.885   6.635
 4904POPC   C3B62577   4.064   0.014   7.037
 4904POPC   C4B62578   3.816  44.964   7.430
 4905POPC   NC362579  20.259  44.984   5.161
 4905POPC   PO462580  20.712  44.551   5.321
 4905POPC   GL162581  20.858  44.660   5.767
 4905POPC   GL262582  20.647  44.889   5.944
 4905POPC   C1A62583  20.909  44.599   6.247
 4905POPC   D2A62584  20.654  44.787   6.577
 4905POPC   C3A62585  20.697  44.583   6.987
 4905POPC   C4A62586  20.867  44.427   7.357
 4905POPC   C1B62587  20.311  44.977   6.222
 4905POPC   C2B62588  20.121  44.957   6.604
 4905POPC   C3B62589  20.353  44.956   6.968
 4905POPC   C4B62590  20.552  44.900   7.378
 4906POPC   NC362591  11.634  44.704   5.532
 4906POPC   PO462592  12.146  44.567   5.112
 4906POPC   GL162593  12.174  44.477   5.606
 4906POPC   GL262594  11.915  44.417   5.834
 4906POPC   C1A62595  12.367  44.437   6.081
 4906POPC   D2A62596  12.559  44.640   6.482
 4906POPC   C3A62597  12.385  44.662   6.900
 4906POPC   C4A62598  12.340  44.908   7.234
 4906POPC   C1B62599  12.000  44.774   6.109
 4906POPC   C2B62600  12.059  44.814   6.529
 4906POPC   C3B62601  11.935  44.983   6.909
 4906POPC   C4B62602  11.849  44.864   7.340
 4907POPC   NC362603  20.855  38.296   5.421
 4907POPC   PO462604  20.403  38.696   5.397
 4907POPC   GL162605  20.531  38.508   5.786
 4907POPC   GL262606  20.507  38.163   5.788
 4907POPC   C1A62607  20.737  38.374   6.185
 4907POPC   D2A62608  20.819  38.580   6.570
 4907POPC   C3A62609  20.688  38.359   6.901
 4907POPC   C4A62610  20.615  38.307   7.328
 4907POPC   C1B62611  20.291  38.056   6.168
 4907POPC   C2B62612  20.382  37.972   6.596
 4907POPC   C3B62613  20.239  38.108   6.969
 4907POPC   C4B62614  20.222  37.954   7.372
 4908POPC   NC362615  39.631  27.754   5.387
 4908POPC   PO462616  40.240  27.308   5.456
 4908POPC   GL162617  39.939  27.443   5.784
 4908POPC   GL262618  39.849  27.817   5.835
 4908POPC   C1A62619  39.898  27.480   6.238
 4908POPC   D2A62620  40.053  27.638   6.657
 4908POPC   C3A62621  40.094  27.484   7.087
 4908POPC   C4A62622  40.234  27.697   7.453
 4908POPC   C1B62623  39.572  27.875   6.181
 4908POPC   C2B62624  39.518  27.657   6.577
 4908POPC   C3B62625  39.636  27.685   7.011
 4908POPC   C4B62626  39.712  27.844   7.421
 4909POPC   NC362627   5.801  12.264   5.192
 4909POPC   PO462628   6.265  11.936   5.534
 4909POPC   GL162629   6.025  11.827   5.862
 4909POPC   GL262630   5.733  11.936   5.690
 4909POPC   C1A62631   6.059  11.903   6.329
 4909POPC   D2A62632   6.092  11.877   6.774
 4909POPC   C3A62633   6.078  12.297   6.968
 4909POPC   C4A62634   5.874  12.388   7.379
 4909POPC   C1B62635   5.664  12.138   6.093
 4909POPC   C2B62636   5.773  12.324   6.507
 4909POPC   C3B62637   5.569  12.291   6.898
 4909POPC   C4B62638   5.379  12.241   7.281
 4910POPC   NC362639  32.765  15.201   5.132
 4910POPC   PO462640  33.253  15.579   5.460
 4910POPC   GL162641  33.094  15.287   5.764
 4910POPC   GL262642  32.753  15.231   5.666
 4910POPC   C1A62643  33.015  15.111   6.180
 4910POPC   D2A62644  33.158  15.115   6.584
 4910POPC   C3A62645  32.887  15.077   6.918
 4910POPC   C4A62646  32.992  15.188   7.330
 4910POPC   C1B62647  32.683  15.480   6.074
 4910POPC   C2B62648  32.741  15.419   6.558
 4910POPC   C3B62649  32.781  15.565   7.052
 4910POPC   C4B62650  32.739  15.571   7.562
 4911POPC   NC362651  42.991   3.065   5.266
 4911POPC   PO462652  43.357   2.464   5.393
 4911POPC   GL162653  43.332   2.873   5.648
 4911POPC   GL262654  42.981   2.986   5.767
 4911POPC   C1A62655  43.420   2.959   6.103
 4911POPC   D2A62656  43.282   2.757   6.519
 4911POPC   C3A62657  43.391   2.964   6.932
 4911POPC   C4A62658  43.366   2.808   7.358
 4911POPC   C1B62659  43.016   2.637   6.051
 4911POPC   C2B62660  42.842   2.490   6.451
 4911POPC   C3B62661  42.762   2.517   6.906
 4911POPC   C4B62662  42.956   2.514   7.314
 4912POPC   NC362663  42.405  29.477   5.150
 4912POPC   PO462664  42.298  28.984   5.609
 4912POPC   GL162665  42.193  28.969   5.953
 4912POPC   GL262666  41.883  29.175   5.856
 4912POPC   C1A62667  42.326  29.170   6.321
 4912POPC   D2A62668  42.380  29.575   6.525
 4912POPC   C3A62669  42.566  29.496   6.929
 4912POPC   C4A62670  42.413  29.193   7.223
 4912POPC   C1B62671  41.796  28.915   6.224
 4912POPC   C2B62672  42.088  28.771   6.520
 4912POPC   C3B62673  42.110  28.867   6.926
 4912POPC   C4B62674  41.764  28.824   7.172
 4913POPC   NC362675  35.689  36.210   5.349
 4913POPC   PO462676  35.198  35.785   5.595
 4913POPC   GL162677  35.418  36.110   5.841
 4913POPC   GL262678  35.680  36.395   5.847
 4913POPC   C1A62679  35.469  36.053   6.296
 4913POPC   D2A62680  35.659  35.960   6.693
 4913POPC   C3A62681  35.325  35.827   6.958
 4913POPC   C4A62682  35.376  36.018   7.311
 4913POPC   C1B62683  35.357  36.523   6.165
 4913POPC   C2B62684  35.187  36.579   6.555
 4913POPC   C3B62685  35.303  36.349   6.904
 4913POPC   C4B62686  35.245  36.515   7.309
 4914POPC   NC362687  44.458   6.437   5.352
 4914POPC   PO462688   0.157   6.662   5.529
 4914POPC   GL162689  44.804   6.602   5.792
 4914POPC   GL262690  44.474   6.502   5.846
 4914POPC   C1A62691  44.733   6.712   6.207
 4914POPC   D2A62692  44.695   6.790   6.603
 4914POPC   C3A62693  44.829   6.575   6.953
 4914POPC   C4A62694  44.719   6.693   7.378
 4914POPC   C1B62695  44.392   6.308   6.257
 4914POPC   C2B62696  44.342   6.429   6.673
 4914POPC   C3B62697  44.310   6.644   7.063
 4914POPC   C4B62698  44.292   6.420   7.461
 4915POPC   NC362699  16.110  22.546   5.466
 4915POPC   PO462700  15.826  21.883   5.397
 4915POPC   GL162701  16.055  22.059   5.788
 4915POPC   GL262702  15.816  22.306   5.823
 4915POPC   C1A62703  16.369  22.107   6.163
 4915POPC   D2A62704  16.268  22.099   6.611
 4915POPC   C3A62705  16.421  22.196   7.028
 4915POPC   C4A62706  16.254  22.276   7.425
 4915POPC   C1B62707  15.954  22.391   6.224
 4915POPC   C2B62708  15.788  22.400   6.627
 4915POPC   C3B62709  15.623  22.146   6.934
 4915POPC   C4B62710  15.850  21.983   7.272
 4916POPC   NC362711   6.727  18.754   5.343
 4916POPC   PO462712   6.339  19.317   5.459
 4916POPC   GL162713   6.649  19.225   5.791
 4916POPC   GL262714   6.607  18.877   5.815
 4916POPC   C1A62715   6.785  19.233   6.256
 4916POPC   D2A62716   6.612  19.295   6.704
 4916POPC   C3A62717   6.833  19.299   7.139
 4916POPC   C4A62718   6.775  19.257   7.623
 4916POPC   C1B62719   6.795  18.715   6.143
 4916POPC   C2B62720   6.660  18.768   6.554
 4916POPC   C3B62721   6.716  18.838   6.972
 4916POPC   C4B62722   6.794  18.736   7.377
 4917POPC   NC362723  12.951  13.083   5.281
 4917POPC   PO462724  12.565  12.528   5.340
 4917POPC   GL162725  12.775  12.851   5.731
 4917POPC   GL262726  13.139  12.844   5.723
 4917POPC   C1A62727  12.702  12.957   6.215
 4917POPC   D2A62728  12.814  12.817   6.670
 4917POPC   C3A62729  12.509  12.752   7.008
 4917POPC   C4A62730  12.590  12.852   7.468
 4917POPC   C1B62731  13.080  12.616   6.132
 4917POPC   C2B62732  13.126  12.381   6.539
 4917POPC   C3B62733  13.193  12.402   7.000
 4917POPC   C4B62734  13.043  12.799   7.173
 4918POPC   NC362735  38.164  29.466   5.540
 4918POPC   PO462736  38.562  29.984   5.481
 4918POPC   GL162737  38.278  29.895   5.836
 4918POPC   GL262738  38.467  29.600   5.939
 4918POPC   C1A62739  38.330  29.964   6.292
 4918POPC   D2A62740  38.565  30.067   6.683
 4918POPC   C3A62741  38.411  29.887   7.067
 4918POPC   C4A62742  38.101  29.956   7.389
 4918POPC   C1B62743  38.626  29.437   6.336
 4918POPC   C2B62744  38.718  29.583   6.769
 4918POPC   C3B62745  38.631  29.461   7.213
 4918POPC   C4B62746  38.579  29.676   7.639
 4919POPC   NC362747  18.446  23.707   5.430
 4919POPC   PO462748  17.855  23.590   5.575
 4919POPC   GL162749  18.170  23.691   5.883
 4919POPC   GL262750  18.382  23.985   5.898
 4919POPC   C1A62751  18.169  23.690   6.325
 4919POPC   D2A62752  17.919  23.852   6.686
 4919POPC   C3A62753  18.098  23.691   7.076
 4919POPC   C4A62754  17.883  23.570   7.461
 4919POPC   C1B62755  18.541  24.058   6.341
 4919POPC   C2B62756  18.486  23.823   6.729
 4919POPC   C3B62757  18.616  23.861   7.159
 4919POPC   C4B62758  18.806  23.978   7.585
 4920POPC   NC362759   4.100  13.831   5.302
 4920POPC   PO462760   4.024  13.205   5.518
 4920POPC   GL162761   4.321  13.559   5.679
 4920POPC   GL262762   4.135  13.851   5.815
 4920POPC   C1A62763   4.638  13.673   6.024
 4920POPC   D2A62764   4.607  13.735   6.496
 4920POPC   C3A62765   4.488  13.364   6.781
 4920POPC   C4A62766   4.483  13.397   7.257
 4920POPC   C1B62767   4.160  13.682   6.207
 4920POPC   C2B62768   4.026  13.523   6.568
 4920POPC   C3B62769   4.080  13.601   7.008
 4920POPC   C4B62770   4.121  13.757   7.430
 4921POPC   NC362771  11.948   8.779   5.638
 4921POPC   PO462772  12.545   9.040   5.215
 4921POPC   GL162773  12.456   9.255   5.667
 4921POPC   GL262774  12.086   9.269   5.666
 4921POPC   C1A62775  12.384   9.148   6.137
 4921POPC   D2A62776  12.498   8.913   6.524
 4921POPC   C3A62777  12.477   9.085   6.930
 4921POPC   C4A62778  12.254   9.076   7.312
 4921POPC   C1B62779  11.861   9.252   6.083
 4921POPC   C2B62780  11.978   9.132   6.489
 4921POPC   C3B62781  11.941   9.068   6.907
 4921POPC   C4B62782  11.816   9.350   7.215
 4922POPC   NC362783  42.544  11.729   5.376
 4922POPC   PO462784  42.453  11.064   5.332
 4922POPC   GL162785  42.324  11.243   5.755
 4922POPC   GL262786  42.200  11.628   5.743
 4922POPC   C1A62787  42.252  11.137   6.216
 4922POPC   D2A62788  42.453  11.167   6.652
 4922POPC   C3A62789  42.157  11.153   7.003
 4922POPC   C4A62790  42.117  11.403   7.384
 4922POPC   C1B62791  42.379  11.634   6.161
 4922POPC   C2B62792  42.617  11.619   6.533
 4922POPC   C3B62793  42.413  11.607   6.943
 4922POPC   C4B62794  42.577  11.603   7.337
 4923POPC   NC362795   2.311  25.835   5.413
 4923POPC   PO462796   1.782  26.280   5.465
 4923POPC   GL162797   2.016  26.109   5.830
 4923POPC   GL262798   2.155  25.779   5.893
 4923POPC   C1A62799   1.968  26.067   6.285
 4923POPC   D2A62800   1.967  25.836   6.672
 4923POPC   C3A62801   1.813  26.021   7.015
 4923POPC   C4A62802   2.030  26.275   7.315
 4923POPC   C1B62803   2.363  25.733   6.297
 4923POPC   C2B62804   2.404  25.590   6.739
 4923POPC   C3B62805   2.343  25.934   7.047
 4923POPC   C4B62806   2.390  25.965   7.496
 4924POPC   NC362807  10.693  21.350   5.591
 4924POPC   PO462808  10.027  21.498   5.308
 4924POPC   GL162809  10.253  21.520   5.800
 4924POPC   GL262810  10.608  21.644   5.988
 4924POPC   C1A62811  10.294  21.371   6.268
 4924POPC   D2A62812  10.302  21.628   6.658
 4924POPC   C3A62813  10.424  21.529   7.081
 4924POPC   C4A62814  10.520  21.208   7.422
 4924POPC   C1B62815  10.883  21.414   6.243
 4924POPC   C2B62816  10.708  21.265   6.611
 4924POPC   C3B62817  10.862  21.261   6.997
 4924POPC   C4B62818  10.876  21.555   7.326
 4925POPC   NC362819  10.533  25.339   5.310
 4925POPC   PO462820  10.081  25.044   5.679
 4925POPC   GL162821  10.356  25.379   5.806
 4925POPC   GL262822  10.722  25.343   5.782
 4925POPC   C1A62823  10.462  25.466   6.229
 4925POPC   D2A62824  10.376  25.339   6.662
 4925POPC   C3A62825  10.075  25.237   6.959
 4925POPC   C4A62826  10.225  25.299   7.340
 4925POPC   C1B62827  10.658  25.012   6.090
 4925POPC   C2B62828  10.572  24.878   6.512
 4925POPC   C3B62829  10.522  24.955   6.968
 4925POPC   C4B62830  10.658  25.033   7.395
 4926POPC   NC362831   0.014  38.509   5.481
 4926POPC   PO462832   0.569  38.920   5.496
 4926POPC   GL162833   0.418  38.642   5.799
 4926POPC   GL262834   0.643  38.361   5.856
 4926POPC   C1A62835   0.237  38.462   6.179
 4926POPC   D2A62836   0.228  38.219   6.549
 4926POPC   C3A62837   0.241  38.434   6.905
 4926POPC   C4A62838   0.219  38.350   7.302
 4926POPC   C1B62839   0.694  38.668   6.216
 4926POPC   C2B62840   0.579  38.665   6.617
 4926POPC   C3B62841   0.728  38.559   7.050
 4926POPC   C4B62842   0.641  38.677   7.472
 4927POPC   NC362843   8.303  29.244   5.054
 4927POPC   PO462844   7.780  28.951   5.427
 4927POPC   GL162845   8.058  28.906   5.800
 4927POPC   GL262846   7.925  28.669   5.976
 4927POPC   C1A62847   8.255  29.033   6.192
 4927POPC   D2A62848   8.256  29.405   6.450
 4927POPC   C3A62849   7.997  29.409   6.827
 4927POPC   C4A62850   8.268  29.189   7.121
 4927POPC   C1B62851   7.830  28.806   6.393
 4927POPC   C2B62852   7.918  28.894   6.827
 4927POPC   C3B62853   7.969  28.748   7.234
 4927POPC   C4B62854   7.801  28.856   7.632
 4928POPC   NC362855  34.934  34.298   5.563
 4928POPC   PO462856  34.435  34.867   5.408
 4928POPC   GL162857  34.507  34.627   5.854
 4928POPC   GL262858  34.268  34.389   5.972
 4928POPC   C1A62859  34.793  34.572   6.267
 4928POPC   D2A62860  34.906  34.741   6.703
 4928POPC   C3A62861  34.965  34.436   7.073
 4928POPC   C4A62862  34.945  34.166   7.475
 4928POPC   C1B62863  34.301  34.533   6.357
 4928POPC   C2B62864  34.520  34.406   6.721
 4928POPC   C3B62865  34.449  34.508   7.134
 4928POPC   C4B62866  34.106  34.613   7.378
 4929POPC   NC362867  25.625  16.849   5.406
 4929POPC   PO462868  24.971  16.562   5.350
 4929POPC   GL162869  25.070  16.742   5.762
 4929POPC   GL262870  25.421  16.626   5.814
 4929POPC   C1A62871  25.194  16.868   6.209
 4929POPC   D2A62872  25.225  16.609   6.577
 4929POPC   C3A62873  25.118  16.800   6.947
 4929POPC   C4A62874  25.419  16.987   7.224
 4929POPC   C1B62875  25.574  16.487   6.211
 4929POPC   C2B62876  25.664  16.391   6.675
 4929POPC   C3B62877  25.510  16.498   7.071
 4929POPC   C4B62878  25.222  16.429   7.443
 4930POPC   NC362879  41.926  17.544   5.445
 4930POPC   PO462880  42.635  17.331   5.480
 4930POPC   GL162881  42.276  17.399   5.804
 4930POPC   GL262882  42.152  17.747   5.857
 4930POPC   C1A62883  42.251  17.437   6.255
 4930POPC   D2A62884  42.474  17.657   6.584
 4930POPC   C3A62885  42.555  17.519   7.006
 4930POPC   C4A62886  42.459  17.882   7.240
 4930POPC   C1B62887  41.826  17.716   6.154
 4930POPC   C2B62888  41.816  17.514   6.542
 4930POPC   C3B62889  42.049  17.594   6.913
 4930POPC   C4B62890  42.008  17.689   7.336
 4931POPC   NC362891   9.037  18.640   5.443
 4931POPC   PO462892   8.924  19.338   5.457
 4931POPC   GL162893   9.039  19.092   5.836
 4931POPC   GL262894   9.326  18.836   5.835
 4931POPC   C1A62895   9.190  19.076   6.278
 4931POPC   D2A62896   9.396  19.325   6.589
 4931POPC   C3A62897   9.174  19.191   6.942
 4931POPC   C4A62898   8.863  18.963   7.159
 4931POPC   C1B62899   9.323  18.584   6.225
 4931POPC   C2B62900   9.043  18.652   6.569
 4931POPC   C3B62901   9.143  18.592   6.995
 4931POPC   C4B62902   9.354  18.862   7.295
 4932POPC   NC362903  21.079  25.361   5.430
 4932POPC   PO462904  21.666  25.382   5.406
 4932POPC   GL162905  21.425  25.392   5.806
 4932POPC   GL262906  21.199  25.105   5.861
 4932POPC   C1A62907  21.268  25.419   6.253
 4932POPC   D2A62908  21.266  25.644   6.648
 4932POPC   C3A62909  21.339  25.395   7.017
 4932POPC   C4A62910  21.344  25.489   7.454
 4932POPC   C1B62911  21.096  24.934   6.298
 4932POPC   C2B62912  21.242  24.960   6.744
 4932POPC   C3B62913  21.114  24.943   7.189
 4932POPC   C4B62914  21.312  25.004   7.626
 4933POPC   NC362915  20.201  29.618   5.231
 4933POPC   PO462916  19.737  30.030   5.228
 4933POPC   GL162917  19.934  29.883   5.602
 4933POPC   GL262918  19.768  30.160   5.752
 4933POPC   C1A62919  19.997  29.825   6.073
 4933POPC   D2A62920  20.012  29.538   6.442
 4933POPC   C3A62921  20.157  29.710   6.853
 4933POPC   C4A62922  20.074  29.568   7.298
 4933POPC   C1B62923  19.677  30.319   6.155
 4933POPC   C2B62924  19.875  30.199   6.489
 4933POPC   C3B62925  19.822  30.230   6.893
 4933POPC   C4B62926  20.085  30.092   7.181
 4934POPC   NC362927   8.417  36.727   5.288
 4934POPC   PO462928   7.877  37.125   5.231
 4934POPC   GL162929   8.097  37.054   5.597
 4934POPC   GL262930   7.902  37.295   5.760
 4934POPC   C1A62931   8.288  36.828   5.975
 4934POPC   D2A62932   8.208  36.608   6.408
 4934POPC   C3A62933   8.502  36.660   6.793
 4934POPC   C4A62934   8.413  36.838   7.230
 4934POPC   C1B62935   7.852  37.056   6.160
 4934POPC   C2B62936   7.856  37.215   6.613
 4934POPC   C3B62937   7.968  37.069   7.039
 4934POPC   C4B62938   8.113  37.214   7.455
 4935POPC   NC362939  18.891  40.905   5.364
 4935POPC   PO462940  19.206  40.345   5.287
 4935POPC   GL162941  19.113  40.555   5.701
 4935POPC   GL262942  19.212  40.927   5.785
 4935POPC   C1A62943  18.941  40.627   6.127
 4935POPC   D2A62944  19.100  40.562   6.540
 4935POPC   C3A62945  19.065  40.819   6.904
 4935POPC   C4A62946  19.360  40.829   7.235
 4935POPC   C1B62947  18.981  41.184   6.121
 4935POPC   C2B62948  18.861  41.257   6.567
 4935POPC   C3B62949  19.022  41.327   6.993
 4935POPC   C4B62950  18.913  41.151   7.386
 4936POPC   NC362951   9.222   9.968   5.115
 4936POPC   PO462952   8.850   9.432   5.288
 4936POPC   GL162953   8.975   9.625   5.693
 4936POPC   GL262954   9.233   9.882   5.711
 4936POPC   C1A62955   8.902   9.645   6.123
 4936POPC   D2A62956   8.934   9.891   6.491
 4936POPC   C3A62957   8.967   9.641   6.846
 4936POPC   C4A62958   8.930   9.713   7.283
 4936POPC   C1B62959   9.299  10.069   6.144
 4936POPC   C2B62960   9.355  10.151   6.623
 4936POPC   C3B62961   9.361   9.967   7.040
 4936POPC   C4B62962   9.369   9.812   7.522
 4937POPC   NC362963   8.398  18.233   5.302
 4937POPC   PO462964   9.033  18.177   5.438
 4937POPC   GL162965   9.037  18.337   5.870
 4937POPC   GL262966   8.844  18.624   5.949
 4937POPC   C1A62967   9.002  18.177   6.290
 4937POPC   D2A62968   8.898  18.186   6.716
 4937POPC   C3A62969   9.160  18.088   7.036
 4937POPC   C4A62970   9.006  18.071   7.427
 4937POPC   C1B62971   8.589  18.469   6.309
 4937POPC   C2B62972   8.548  18.561   6.756
 4937POPC   C3B62973   8.690  18.437   7.191
 4937POPC   C4B62974   8.595  18.279   7.641
 4938POPC   NC362975  14.548  12.432   5.768
 4938POPC   PO462976  14.684  11.861   5.412
 4938POPC   GL162977  14.573  11.905   5.837
 4938POPC   GL262978  14.244  12.003   5.789
 4938POPC   C1A62979  14.464  11.965   6.280
 4938POPC   D2A62980  14.436  11.669   6.584
 4938POPC   C3A62981  14.463  11.915   6.918
 4938POPC   C4A62982  14.299  12.210   7.220
 4938POPC   C1B62983  14.069  11.723   6.092
 4938POPC   C2B62984  13.941  11.798   6.540
 4938POPC   C3B62985  13.951  11.940   6.980
 4938POPC   C4B62986  14.184  11.673   7.281
 4939POPC   NC362987   7.213   7.591   5.371
 4939POPC   PO462988   7.199   6.983   5.682
 4939POPC   GL162989   7.345   7.324   5.867
 4939POPC   GL262990   7.180   7.622   5.871
 4939POPC   C1A62991   7.397   7.263   6.297
 4939POPC   D2A62992   7.201   7.259   6.708
 4939POPC   C3A62993   7.435   7.162   7.087
 4939POPC   C4A62994   7.633   7.305   7.477
 4939POPC   C1B62995   7.298   7.774   6.289
 4939POPC   C2B62996   7.147   7.813   6.715
 4939POPC   C3B62997   7.320   7.681   7.117
 4939POPC   C4B62998   7.294   7.784   7.547
 4940POPC   NC362999  19.307   4.118   5.541
 4940POPC   PO463000  18.706   4.514   5.564
 4940POPC   GL163001  18.881   4.398   5.970
 4940POPC   GL263002  18.954   4.048   5.900
 4940POPC   C1A63003  19.097   4.425   6.392
 4940POPC   D2A63004  19.352   4.300   6.797
 4940POPC   C3A63005  19.207   4.466   7.183
 4940POPC   C4A63006  18.958   4.758   7.359
 4940POPC   C1B63007  19.165   3.901   6.249
 4940POPC   C2B63008  18.972   3.977   6.614
 4940POPC   C3B63009  19.039   3.960   7.054
 4940POPC   C4B63010  18.992   4.080   7.467
 4941POPC   NC363011  12.121  18.551   5.473
 4941POPC   PO463012  11.688  18.028   5.378
 4941POPC   GL163013  12.028  18.111   5.778
 4941POPC   GL263014  12.035  18.453   5.944
 4941POPC   C1A63015  12.350  18.178   6.196
 4941POPC   D2A63016  12.577  18.231   6.608
 4941POPC   C3A63017  12.351  18.382   6.973
 4941POPC   C4A63018  12.219  18.113   7.320
 4941POPC   C1B63019  11.993  18.643   6.313
 4941POPC   C2B63020  11.880  18.424   6.676
 4941POPC   C3B63021  11.841  18.345   7.084
 4941POPC   C4B63022  12.026  18.604   7.393
 4942POPC   NC363023  30.301  21.580   5.474
 4942POPC   PO463024  30.650  20.974   5.235
 4942POPC   GL163025  30.590  21.211   5.624
 4942POPC   GL263026  30.816  21.419   5.704
 4942POPC   C1A63027  30.477  21.319   6.077
 4942POPC   D2A63028  30.630  21.491   6.465
 4942POPC   C3A63029  30.613  21.211   6.831
 4942POPC   C4A63030  30.574  21.339   7.258
 4942POPC   C1B63031  30.903  21.730   6.043
 4942POPC   C2B63032  31.050  21.776   6.448
 4942POPC   C3B63033  30.936  21.636   6.866
 4942POPC   C4B63034  30.906  21.726   7.266
 4943POPC   NC363035   0.311   5.927   5.247
 4943POPC   PO463036  44.847   5.722   5.671
 4943POPC   GL163037   0.104   5.669   5.981
 4943POPC   GL263038   0.423   5.793   5.883
 4943POPC   C1A63039   0.106   5.753   6.400
 4943POPC   D2A63040   0.403   6.022   6.590
 4943POPC   C3A63041   0.218   6.219   6.927
 4943POPC   C4A63042   0.389   5.984   7.248
 4943POPC   C1B63043   0.740   5.895   6.201
 4943POPC   C2B63044   0.941   6.035   6.570
 4943POPC   C3B63045   0.823   5.988   6.973
 4943POPC   C4B63046   0.867   6.090   7.412
 4944POPC   NC363047  40.494  23.958   5.574
 4944POPC   PO463048  41.010  23.576   5.583
 4944POPC   GL163049  40.797  23.747   5.944
 4944POPC   GL263050  40.461  23.592   5.956
 4944POPC   C1A63051  40.760  23.739   6.384
 4944POPC   D2A63052  40.818  23.453   6.698
 4944POPC   C3A63053  40.681  23.454   7.106
 4944POPC   C4A63054  40.926  23.507   7.491
 4944POPC   C1B63055  40.338  23.974   6.203
 4944POPC   C2B63056  40.581  24.203   6.505
 4944POPC   C3B63057  40.579  24.212   6.953
 4944POPC   C4B63058  40.738  23.955   7.314
 4945POPC   NC363059  20.357   6.635   5.377
 4945POPC   PO463060  20.852   6.399   5.497
 4945POPC   GL163061  20.792   6.683   5.840
 4945POPC   GL263062  20.618   6.989   5.713
 4945POPC   C1A63063  20.917   6.657   6.294
 4945POPC   D2A63064  21.127   6.650   6.720
 4945POPC   C3A63065  20.897   6.337   6.995
 4945POPC   C4A63066  20.481   6.365   7.211
 4945POPC   C1B63067  20.835   7.148   6.111
 4945POPC   C2B63068  20.891   7.093   6.584
 4945POPC   C3B63069  20.724   6.849   6.991
 4945POPC   C4B63070  20.700   6.804   7.460
 4946POPC   NC363071  36.583  24.845   5.017
 4946POPC   PO463072  35.916  24.773   5.305
 4946POPC   GL163073  36.131  24.577   5.722
 4946POPC   GL263074  35.916  24.291   5.845
 4946POPC   C1A63075  36.287  24.597   6.157
 4946POPC   D2A63076  36.325  24.440   6.603
 4946POPC   C3A63077  36.201  24.655   7.008
 4946POPC   C4A63078  36.339  24.552   7.441
 4946POPC   C1B63079  35.765  24.616   6.109
 4946POPC   C2B63080  35.787  24.569   6.538
 4946POPC   C3B63081  35.871  24.277   6.864
 4946POPC   C4B63082  35.910  24.290   7.292
 4947POPC   NC363083  16.421  32.947   5.541
 4947POPC   PO463084  15.673  32.921   5.559
 4947POPC   GL163085  15.984  33.070   5.884
 4947POPC   GL263086  16.051  33.405   6.023
 4947POPC   C1A63087  15.851  33.043   6.327
 4947POPC   D2A63088  15.619  33.183   6.691
 4947POPC   C3A63089  15.702  32.888   7.012
 4947POPC   C4A63090  15.958  32.911   7.429
 4947POPC   C1B63091  16.341  33.195   6.292
 4947POPC   C2B63092  16.265  33.051   6.716
 4947POPC   C3B63093  16.041  33.258   7.046
 4947POPC   C4B63094  16.172  33.389   7.426
 4948POPC   NC363095  16.498   1.983   5.371
 4948POPC   PO463096  17.111   1.773   5.334
 4948POPC   GL163097  16.880   1.674   5.743
 4948POPC   GL263098  16.668   1.966   5.854
 4948POPC   C1A63099  16.807   1.639   6.206
 4948POPC   D2A63100  16.661   1.880   6.528
 4948POPC   C3A63101  16.753   1.708   6.905
 4948POPC   C4A63102  16.689   1.896   7.299
 4948POPC   C1B63103  16.440   2.233   6.175
 4948POPC   C2B63104  16.367   2.294   6.625
 4948POPC   C3B63105  16.498   2.321   7.061
 4948POPC   C4B63106  16.257   2.205   7.431
 4949POPC   NC363107  44.019   7.927   5.408
 4949POPC   PO463108  43.614   8.377   5.582
 4949POPC   GL163109  43.889   8.188   5.850
 4949POPC   GL263110  44.244   8.213   5.798
 4949POPC   C1A63111  43.970   8.333   6.241
 4949POPC   D2A63112  43.713   8.374   6.573
 4949POPC   C3A63113  43.846   8.150   6.919
 4949POPC   C4A63114  43.676   8.215   7.294
 4949POPC   C1B63115  44.190   7.867   6.121
 4949POPC   C2B63116  44.011   7.790   6.536
 4949POPC   C3B63117  44.196   7.764   6.945
 4949POPC   C4B63118  44.110   7.960   7.334
 4950POPC   NC363119  37.137  35.485   5.282
 4950POPC   PO463120  36.796  34.905   5.498
 4950POPC   GL163121  36.894  35.278   5.768
 4950POPC   GL263122  37.180  35.188   5.890
 4950POPC   C1A63123  37.018  35.600   6.148
 4950POPC   D2A63124  37.162  35.493   6.599
 4950POPC   C3A63125  36.847  35.456   6.959
 4950POPC   C4A63126  36.776  35.709   7.330
 4950POPC   C1B63127  36.969  35.105   6.294
 4950POPC   C2B63128  36.907  34.984   6.718
 4950POPC   C3B63129  36.532  34.818   6.945
 4950POPC   C4B63130  36.516  35.118   7.255
 4951POPC   NC363131  32.675  17.414   5.448
 4951POPC   PO463132  33.186  17.144   5.702
 4951POPC   GL163133  33.091  17.482   5.931
 4951POPC   GL263134  32.757  17.385   5.968
 4951POPC   C1A63135  33.155  17.401   6.374
 4951POPC   D2A63136  32.914  17.382   6.739
 4951POPC   C3A63137  33.116  17.408   7.149
 4951POPC   C4A63138  33.262  17.102   7.426
 4951POPC   C1B63139  32.719  17.664   6.306
 4951POPC   C2B63140  32.786  17.860   6.719
 4951POPC   C3B63141  32.721  17.730   7.151
 4951POPC   C4B63142  32.835  17.893   7.584
 4952POPC   NC363143   2.860  11.645   5.382
 4952POPC   PO463144   2.547  11.094   5.243
 4952POPC   GL163145   2.587  11.313   5.676
 4952POPC   GL263146   2.523  11.673   5.806
 4952POPC   C1A63147   2.726  11.176   6.105
 4952POPC   D2A63148   2.880  11.134   6.531
 4952POPC   C3A63149   2.631  11.253   6.873
 4952POPC   C4A63150   2.680  11.246   7.298
 4952POPC   C1B63151   2.826  11.681   6.159
 4952POPC   C2B63152   2.814  11.651   6.591
 4952POPC   C3B63153   2.928  11.647   7.029
 4952POPC   C4B63154   3.238  11.402   7.258
 4953POPC   NC363155   3.938  37.982   5.336
 4953POPC   PO463156   4.382  38.528   5.426
 4953POPC   GL163157   4.244  38.454   5.818
 4953POPC   GL263158   4.033  38.145   5.825
 4953POPC   C1A63159   4.356  38.601   6.239
 4953POPC   D2A63160   4.580  38.423   6.579
 4953POPC   C3A63161   4.602  38.679   6.931
 4953POPC   C4A63162   4.303  38.700   7.256
 4953POPC   C1B63163   4.151  38.126   6.276
 4953POPC   C2B63164   3.915  38.174   6.675
 4953POPC   C3B63165   3.966  38.208   7.120
 4953POPC   C4B63166   4.334  38.038   7.306
 4954POPC   NC363167  29.073  27.468   5.105
 4954POPC   PO463168  29.606  27.309   5.578
 4954POPC   GL163169  29.275  27.377   5.868
 4954POPC   GL263170  29.021  27.626   5.771
 4954POPC   C1A63171  29.207  27.521   6.286
 4954POPC   D2A63172  29.107  27.538   6.731
 4954POPC   C3A63173  29.306  27.776   7.038
 4954POPC   C4A63174  29.149  27.451   7.277
 4954POPC   C1B63175  28.829  27.844   6.116
 4954POPC   C2B63176  28.692  27.788   6.572
 4954POPC   C3B63177  28.771  27.810   7.047
 4954POPC   C4B63178  28.808  27.761   7.488
 4955POPC   NC363179  17.410   4.423   5.447
 4955POPC   PO463180  17.473   3.725   5.609
 4955POPC   GL163181  17.326   4.069   5.875
 4955POPC   GL263182  17.525   4.392   5.925
 4955POPC   C1A63183  17.402   4.059   6.326
 4955POPC   D2A63184  17.727   4.124   6.634
 4955POPC   C3A63185  17.487   4.063   6.979
 4955POPC   C4A63186  17.745   4.064   7.308
 4955POPC   C1B63187  17.657   4.491   6.299
 4955POPC   C2B63188  17.477   4.549   6.677
 4955POPC   C3B63189  17.661   4.548   7.071
 4955POPC   C4B63190  17.595   4.734   7.459
 4956POPC   NC363191   1.996  12.182   5.028
 4956POPC   PO463192   1.725  12.427   5.633
 4956POPC   GL163193   1.878  12.204   5.992
 4956POPC   GL263194   2.062  11.865   5.981
 4956POPC   C1A63195   1.829  12.073   6.399
 4956POPC   D2A63196   2.055  12.266   6.719
 4956POPC   C3A63197   2.048  11.976   7.016
 4956POPC   C4A63198   2.015  12.235   7.336
 4956POPC   C1B63199   2.328  11.615   6.287
 4956POPC   C2B63200   2.250  11.565   6.718
 4956POPC   C3B63201   2.270  11.526   7.164
 4956POPC   C4B63202   2.018  11.714   7.474
 4957POPC   NC363203  20.481  24.901   5.390
 4957POPC   PO463204  20.681  25.550   5.377
 4957POPC   GL163205  20.476  25.272   5.730
 4957POPC   GL263206  20.699  24.964   5.847
 4957POPC   C1A63207  20.282  25.076   6.117
 4957POPC   D2A63208  20.528  24.917   6.480
 4957POPC   C3A63209  20.399  25.088   6.881
 4957POPC   C4A63210  20.440  25.123   7.328
 4957POPC   C1B63211  20.762  25.274   6.162
 4957POPC   C2B63212  20.873  25.297   6.622
 4957POPC   C3B63213  20.828  25.373   7.081
 4957POPC   C4B63214  20.867  25.300   7.537
 4958POPC   NC363215   9.487  40.119   5.504
 4958POPC   PO463216  10.163  39.873   5.421
 4958POPC   GL163217   9.859  39.836   5.738
 4958POPC   GL263218   9.822  40.170   5.884
 4958POPC   C1A63219   9.768  39.746   6.170
 4958POPC   D2A63220   9.779  40.013   6.513
 4958POPC   C3A63221   9.690  39.792   6.859
 4958POPC   C4A63222   9.674  39.942   7.262
 4958POPC   C1B63223   9.490  40.269   6.160
 4958POPC   C2B63224   9.289  40.185   6.510
 4958POPC   C3B63225   9.441  40.233   6.892
 4958POPC   C4B63226   9.376  40.368   7.279
 4959POPC   NC363227  30.733  23.912   5.426
 4959POPC   PO463228  30.379  23.439   5.799
 4959POPC   GL163229  30.681  23.676   5.881
 4959POPC   GL263230  30.431  23.955   5.826
 4959POPC   C1A63231  30.910  23.659   6.258
 4959POPC   D2A63232  31.030  23.672   6.676
 4959POPC   C3A63233  30.843  23.810   7.056
 4959POPC   C4A63234  30.863  23.727   7.490
 4959POPC   C1B63235  30.557  24.018   6.226
 4959POPC   C2B63236  30.673  24.027   6.629
 4959POPC   C3B63237  30.499  24.179   7.004
 4959POPC   C4B63238  30.423  23.975   7.365
 4960POPC   NC363239  38.369  42.949   5.459
 4960POPC   PO463240  38.795  43.490   5.497
 4960POPC   GL163241  38.607  43.229   5.823
 4960POPC   GL263242  38.721  42.859   5.797
 4960POPC   C1A63243  38.377  43.242   6.224
 4960POPC   D2A63244  38.210  43.322   6.654
 4960POPC   C3A63245  38.490  43.279   6.962
 4960POPC   C4A63246  38.330  43.176   7.347
 4960POPC   C1B63247  38.816  42.933   6.200
 4960POPC   C2B63248  38.846  43.121   6.553
 4960POPC   C3B63249  38.830  42.872   6.899
 4960POPC   C4B63250  38.770  42.915   7.297
 4961POPC   NC363251  33.370  17.497   5.475
 4961POPC   PO463252  33.980  17.795   5.429
 4961POPC   GL163253  33.804  17.544   5.740
 4961POPC   GL263254  34.046  17.402   5.922
 4961POPC   C1A63255  33.586  17.537   6.129
 4961POPC   D2A63256  33.635  17.553   6.582
 4961POPC   C3A63257  33.586  17.284   6.945
 4961POPC   C4A63258  33.602  17.498   7.357
 4961POPC   C1B63259  34.087  17.603   6.342
 4961POPC   C2B63260  34.184  17.664   6.811
 4961POPC   C3B63261  34.131  17.734   7.275
 4961POPC   C4B63262  34.094  17.770   7.744
 4962POPC   NC363263  43.509  26.829   5.678
 4962POPC   PO463264  44.146  26.757   5.361
 4962POPC   GL163265  44.036  26.647   5.759
 4962POPC   GL263266  43.993  26.996   5.815
 4962POPC   C1A63267  43.848  26.554   6.183
 4962POPC   D2A63268  43.648  26.549   6.597
 4962POPC   C3A63269  43.891  26.561   6.973
 4962POPC   C4A63270  43.848  26.974   7.128
 4962POPC   C1B63271  44.235  26.909   6.170
 4962POPC   C2B63272  44.101  26.820   6.583
 4962POPC   C3B63273  44.313  27.018   6.907
 4962POPC   C4B63274  44.283  27.247   7.288
 4963POPC   NC363275  35.511  34.620   5.259
 4963POPC   PO463276  34.947  34.753   5.646
 4963POPC   GL163277  35.356  34.630   5.763
 4963POPC   GL263278  35.677  34.433   5.713
 4963POPC   C1A63279  35.579  34.827   6.113
 4963POPC   D2A63280  35.479  35.030   6.513
 4963POPC   C3A63281  35.368  34.860   6.913
 4963POPC   C4A63282  35.354  34.686   7.323
 4963POPC   C1B63283  35.522  34.312   6.133
 4963POPC   C2B63284  35.587  34.493   6.538
 4963POPC   C3B63285  35.474  34.364   6.938
 4963POPC   C4B63286  35.429  34.181   7.322
 4964POPC   NC363287  13.826  22.649   5.428
 4964POPC   PO463288  13.758  23.183   5.098
 4964POPC   GL163289  13.670  23.109   5.617
 4964POPC   GL263290  13.381  22.921   5.716
 4964POPC   C1A63291  13.838  23.159   6.070
 4964POPC   D2A63292  14.079  23.139   6.506
 4964POPC   C3A63293  13.873  23.097   6.950
 4964POPC   C4A63294  13.677  22.899   7.365
 4964POPC   C1B63295  13.330  23.061   6.152
 4964POPC   C2B63296  13.542  23.101   6.544
 4964POPC   C3B63297  13.373  22.988   6.955
 4964POPC   C4B63298  13.110  23.167   7.303
 4965POPC   NC363299   7.475  16.101   5.485
 4965POPC   PO463300   7.502  15.414   5.336
 4965POPC   GL163301   7.584  15.620   5.828
 4965POPC   GL263302   7.597  15.996   5.964
 4965POPC   C1A63303   7.659  15.661   6.327
 4965POPC   D2A63304   7.740  16.040   6.618
 4965POPC   C3A63305   7.532  16.068   7.027
 4965POPC   C4A63306   7.286  15.729   7.183
 4965POPC   C1B63307   7.315  16.058   6.326
 4965POPC   C2B63308   7.094  16.261   6.618
 4965POPC   C3B63309   6.985  16.037   6.925
 4965POPC   C4B63310   7.065  16.176   7.273
 4966POPC   NC363311   1.134  12.358   5.352
 4966POPC   PO463312   1.219  13.086   5.396
 4966POPC   GL163313   1.205  12.995   5.793
 4966POPC   GL263314   1.258  12.636   5.789
 4966POPC   C1A63315   1.358  13.235   6.134
 4966POPC   D2A63316   1.508  13.062   6.517
 4966POPC   C3A63317   1.409  13.193   6.927
 4966POPC   C4A63318   1.372  12.794   7.146
 4966POPC   C1B63319   0.912  12.694   6.114
 4966POPC   C2B63320   0.797  12.796   6.556
 4966POPC   C3B63321   0.904  12.912   6.987
 4966POPC   C4B63322   0.960  12.607   7.348
 4967POPC   NC363323  33.443   4.163   5.554
 4967POPC   PO463324  33.998   4.292   5.144
 4967POPC   GL163325  33.882   4.394   5.639
 4967POPC   GL263326  33.590   4.556   5.876
 4967POPC   C1A63327  33.884   4.235   6.098
 4967POPC   D2A63328  33.964   4.235   6.543
 4967POPC   C3A63329  33.717   4.413   6.870
 4967POPC   C4A63330  33.869   4.207   7.234
 4967POPC   C1B63331  33.385   4.222   6.194
 4967POPC   C2B63332  33.460   4.004   6.584
 4967POPC   C3B63333  33.355   4.074   7.030
 4967POPC   C4B63334  33.323   4.429   7.289
 4968POPC   NC363335  32.005  27.767   5.336
 4968POPC   PO463336  32.547  27.451   5.162
 4968POPC   GL163337  32.445  27.429   5.668
 4968POPC   GL263338  32.716  27.267   5.895
 4968POPC   C1A63339  32.294  27.596   6.083
 4968POPC   D2A63340  31.977  27.772   6.387
 4968POPC   C3A63341  32.038  27.933   6.827
 4968POPC   C4A63342  32.104  27.816   7.281
 4968POPC   C1B63343  32.769  27.459   6.271
 4968POPC   C2B63344  32.492  27.670   6.556
 4968POPC   C3B63345  32.365  27.565   6.944
 4968POPC   C4B63346  32.573  27.454   7.305
 4969POPC   NC363347  26.285  11.801   5.377
 4969POPC   PO463348  26.478  11.127   5.408
 4969POPC   GL163349  26.776  11.277   5.807
 4969POPC   GL263350  27.081  11.171   5.968
 4969POPC   C1A63351  26.692  11.623   6.085
 4969POPC   D2A63352  26.561  11.554   6.530
 4969POPC   C3A63353  26.858  11.671   6.869
 4969POPC   C4A63354  26.873  11.505   7.277
 4969POPC   C1B63355  26.998  11.341   6.361
 4969POPC   C2B63356  26.850  11.177   6.735
 4969POPC   C3B63357  26.918  10.980   7.082
 4969POPC   C4B63358  27.212  11.108   7.321
 4970POPC   NC363359  20.888  35.697   5.041
 4970POPC   PO463360  20.742  36.275   5.363
 4970POPC   GL163361  20.624  36.107   5.725
 4970POPC   GL263362  20.353  35.960   5.625
 4970POPC   C1A63363  20.728  36.122   6.169
 4970POPC   D2A63364  20.730  36.234   6.616
 4970POPC   C3A63365  21.093  36.306   6.891
 4970POPC   C4A63366  21.204  36.142   7.320
 4970POPC   C1B63367  20.247  36.000   6.040
 4970POPC   C2B63368  20.308  35.991   6.454
 4970POPC   C3B63369  20.338  36.115   6.901
 4970POPC   C4B63370  20.693  36.152   7.172
 4971POPC   NC363371  36.356  13.276   5.650
 4971POPC   PO463372  36.034  13.742   5.236
 4971POPC   GL163373  36.057  13.764   5.749
 4971POPC   GL263374  36.386  13.787   5.858
 4971POPC   C1A63375  36.029  13.531   6.166
 4971POPC   D2A63376  36.054  13.462   6.586
 4971POPC   C3A63377  36.035  13.813   6.791
 4971POPC   C4A63378  35.974  13.715   7.201
 4971POPC   C1B63379  36.501  13.693   6.301
 4971POPC   C2B63380  36.562  13.376   6.621
 4971POPC   C3B63381  36.374  13.440   7.016
 4971POPC   C4B63382  36.456  13.872   7.101
 4972POPC   NC363383  13.959   4.205   5.601
 4972POPC   PO463384  13.566   4.718   5.350
 4972POPC   GL163385  13.578   4.539   5.771
 4972POPC   GL263386  13.450   4.203   5.819
 4972POPC   C1A63387  13.526   4.582   6.213
 4972POPC   D2A63388  13.743   4.430   6.557
 4972POPC   C3A63389  13.620   4.365   6.962
 4972POPC   C4A63390  13.640   4.710   7.237
 4972POPC   C1B63391  13.637   4.053   6.239
 4972POPC   C2B63392  13.792   3.922   6.671
 4972POPC   C3B63393  13.951   4.002   7.098
 4972POPC   C4B63394  13.979   4.319   7.361
 4973POPC   NC363395  18.415   2.490   5.335
 4973POPC   PO463396  18.126   3.137   5.482
 4973POPC   GL163397  18.214   2.960   5.845
 4973POPC   GL263398  18.308   2.657   5.792
 4973POPC   C1A63399  18.177   2.889   6.260
 4973POPC   D2A63400  18.374   2.986   6.609
 4973POPC   C3A63401  18.098   2.885   6.883
 4973POPC   C4A63402  18.179   2.807   7.286
 4973POPC   C1B63403  18.573   2.581   6.150
 4973POPC   C2B63404  18.431   2.474   6.569
 4973POPC   C3B63405  18.566   2.600   6.982
 4973POPC   C4B63406  18.598   2.571   7.447
 4974POPC   NC363407  29.671  18.555   5.389
 4974POPC   PO463408  29.124  18.048   5.439
 4974POPC   GL163409  29.053  18.155   5.842
 4974POPC   GL263410  29.049  18.503   5.890
 4974POPC   C1A63411  28.874  17.981   6.189
 4974POPC   D2A63412  29.032  18.046   6.589
 4974POPC   C3A63413  28.951  18.123   7.015
 4974POPC   C4A63414  29.287  18.283   7.227
 4974POPC   C1B63415  29.220  18.417   6.267
 4974POPC   C2B63416  29.078  18.641   6.599
 4974POPC   C3B63417  29.168  18.823   6.968
 4974POPC   C4B63418  28.889  18.612   7.216
 4975POPC   NC363419  30.702  23.320   5.487
 4975POPC   PO463420  30.623  22.652   5.432
 4975POPC   GL163421  30.674  22.746   5.896
 4975POPC   GL263422  30.738  23.111   5.971
 4975POPC   C1A63423  30.621  22.586   6.352
 4975POPC   D2A63424  30.488  22.522   6.800
 4975POPC   C3A63425  30.502  22.891   7.056
 4975POPC   C4A63426  30.873  22.993   7.308
 4975POPC   C1B63427  30.584  23.107   6.411
 4975POPC   C2B63428  30.725  23.288   6.822
 4975POPC   C3B63429  30.581  23.397   7.230
 4975POPC   C4B63430  30.350  23.169   7.491
 4976POPC   NC363431  27.543  20.547   5.314
 4976POPC   PO463432  26.895  20.850   5.474
 4976POPC   GL163433  27.306  20.755   5.724
 4976POPC   GL263434  27.165  20.934   5.958
 4976POPC   C1A63435  27.619  20.776   6.128
 4976POPC   D2A63436  27.555  20.942   6.571
 4976POPC   C3A63437  27.604  20.728   6.965
 4976POPC   C4A63438  27.692  20.824   7.397
 4976POPC   C1B63439  27.191  20.492   6.153
 4976POPC   C2B63440  27.372  20.459   6.556
 4976POPC   C3B63441  27.188  20.451   6.964
 4976POPC   C4B63442  27.285  20.516   7.373
 4977POPC   NC363443  43.713   6.708   5.154
 4977POPC   PO463444  44.330   6.920   5.387
 4977POPC   GL163445  44.070   6.735   5.704
 4977POPC   GL263446  43.784   6.544   5.829
 4977POPC   C1A63447  44.151   6.763   6.161
 4977POPC   D2A63448  44.021   6.846   6.591
 4977POPC   C3A63449  43.857   6.500   6.848
 4977POPC   C4A63450  43.827   6.547   7.287
 4977POPC   C1B63451  43.629   6.730   6.218
 4977POPC   C2B63452  43.462   6.752   6.623
 4977POPC   C3B63453  43.381   6.615   7.044
 4977POPC   C4B63454  43.392   6.830   7.433
 4978POPC   NC363455  37.379  33.970   5.178
 4978POPC   PO463456  36.688  33.821   5.226
 4978POPC   GL163457  36.635  33.755   5.703
 4978POPC   GL263458  36.966  33.644   5.824
 4978POPC   C1A63459  36.577  33.779   6.193
 4978POPC   D2A63460  36.773  34.036   6.565
 4978POPC   C3A63461  36.743  33.924   6.974
 4978POPC   C4A63462  36.722  33.771   7.384
 4978POPC   C1B63463  37.081  33.739   6.249
 4978POPC   C2B63464  36.935  33.545   6.618
 4978POPC   C3B63465  37.038  33.504   7.028
 4978POPC   C4B63466  37.271  33.769   7.264
 4979POPC   NC363467  36.056  40.282   5.542
 4979POPC   PO463468  36.610  39.959   5.347
 4979POPC   GL163469  36.341  39.887   5.746
 4979POPC   GL263470  36.469  40.141   5.859
 4979POPC   C1A63471  36.079  39.807   6.127
 4979POPC   D2A63472  35.999  39.924   6.562
 4979POPC   C3A63473  35.965  39.784   6.996
 4979POPC   C4A63474  35.885  40.033   7.333
 4979POPC   C1B63475  36.221  40.308   6.191
 4979POPC   C2B63476  36.283  40.366   6.606
 4979POPC   C3B63477  36.224  40.209   6.981
 4979POPC   C4B63478  36.380  40.311   7.367
 4980POPC   NC363479  28.344  42.834   5.614
 4980POPC   PO463480  28.264  42.261   5.272
 4980POPC   GL163481  28.460  42.325   5.691
 4980POPC   GL263482  28.185  42.187   5.886
 4980POPC   C1A63483  28.505  42.499   6.146
 4980POPC   D2A63484  28.201  42.357   6.450
 4980POPC   C3A63485  28.311  42.271   6.868
 4980POPC   C4A63486  28.420  42.493   7.206
 4980POPC   C1B63487  28.530  42.002   6.128
 4980POPC   C2B63488  28.711  42.181   6.525
 4980POPC   C3B63489  28.741  41.982   6.916
 4980POPC   C4B63490  28.638  42.061   7.318
 4981POPC   NC363491  19.203  21.673   5.495
 4981POPC   PO463492  18.622  21.377   5.300
 4981POPC   GL163493  18.886  21.396   5.761
 4981POPC   GL263494  18.941  21.700   5.922
 4981POPC   C1A63495  19.009  21.112   6.136
 4981POPC   D2A63496  19.116  21.227   6.574
 4981POPC   C3A63497  18.896  21.253   6.944
 4981POPC   C4A63498  19.072  21.251   7.354
 4981POPC   C1B63499  19.220  21.588   6.235
 4981POPC   C2B63500  19.352  21.784   6.621
 4981POPC   C3B63501  19.199  21.661   7.022
 4981POPC   C4B63502  18.940  21.752   7.375
 4982POPC   NC363503  31.677  35.909   5.372
 4982POPC   PO463504  30.971  35.969   5.548
 4982POPC   GL163505  31.339  35.956   5.773
 4982POPC   GL263506  31.376  36.333   5.777
 4982POPC   C1A63507  31.625  35.844   6.119
 4982POPC   D2A63508  31.701  35.603   6.521
 4982POPC   C3A63509  31.708  35.855   6.926
 4982POPC   C4A63510  31.415  35.856   7.280
 4982POPC   C1B63511  31.285  36.229   6.197
 4982POPC   C2B63512  31.385  36.069   6.569
 4982POPC   C3B63513  31.288  36.219   6.955
 4982POPC   C4B63514  31.653  36.329   7.188
 4983POPC   NC363515   7.779  35.493   5.381
 4983POPC   PO463516   7.346  34.940   5.459
 4983POPC   GL163517   7.503  35.053   5.884
 4983POPC   GL263518   7.649  35.385   5.859
 4983POPC   C1A63519   7.331  35.277   6.257
 4983POPC   D2A63520   7.393  35.537   6.558
 4983POPC   C3A63521   7.149  35.480   6.896
 4983POPC   C4A63522   7.274  35.268   7.247
 4983POPC   C1B63523   7.749  35.652   6.188
 4983POPC   C2B63524   7.903  35.561   6.598
 4983POPC   C3B63525   7.655  35.496   6.986
 4983POPC   C4B63526   7.692  35.549   7.424
 4984POPC   NC363527  10.843  44.447   5.671
 4984POPC   PO463528  11.237  44.892   5.373
 4984POPC   GL163529  11.234  44.714   5.845
 4984POPC   GL263530  11.405  44.393   5.917
 4984POPC   C1A63531  11.153  44.581   6.313
 4984POPC   D2A63532  11.162  44.365   6.736
 4984POPC   C3A63533  11.019  44.607   7.109
 4984POPC   C4A63534  10.839   0.044   7.102
 4984POPC   C1B63535  11.644  44.462   6.279
 4984POPC   C2B63536  11.574  44.676   6.668
 4984POPC   C3B63537  11.539  44.538   7.096
 4984POPC   C4B63538  11.398  44.709   7.516
 4985POPC   NC363539  10.286  13.445   5.422
 4985POPC   PO463540  10.937  13.613   5.568
 4985POPC   GL163541  10.561  13.648   5.805
 4985POPC   GL263542  10.510  13.943   5.976
 4985POPC   C1A63543  10.375  13.533   6.220
 4985POPC   D2A63544  10.512  13.505   6.637
 4985POPC   C3A63545  10.296  13.719   6.967
 4985POPC   C4A63546  10.469  13.408   7.218
 4985POPC   C1B63547  10.841  13.703   6.262
 4985POPC   C2B63548  11.045  13.750   6.631
 4985POPC   C3B63549  10.813  13.745   7.008
 4985POPC   C4B63550  10.666  14.036   7.328
 4986POPC   NC363551  29.658   1.502   5.298
 4986POPC   PO463552  30.163   1.091   5.173
 4986POPC   GL163553  29.985   1.314   5.634
 4986POPC   GL263554  30.254   1.223   5.867
 4986POPC   C1A63555  29.792   1.316   6.061
 4986POPC   D2A63556  29.901   1.410   6.496
 4986POPC   C3A63557  29.738   1.238   6.853
 4986POPC   C4A63558  29.639   1.073   7.237
 4986POPC   C1B63559  30.179   1.005   6.285
 4986POPC   C2B63560  30.248   1.120   6.732
 4986POPC   C3B63561  30.137   1.131   7.167
 4986POPC   C4B63562  30.025   0.951   7.599
 4987POPC   NC363563   9.858  32.148   5.402
 4987POPC   PO463564   9.229  32.067   5.685
 4987POPC   GL163565   9.582  32.202   5.923
 4987POPC   GL263566   9.890  31.999   5.882
 4987POPC   C1A63567   9.527  32.242   6.380
 4987POPC   D2A63568   9.351  31.988   6.730
 4987POPC   C3A63569   9.463  32.168   7.145
 4987POPC   C4A63570   9.689  32.531   7.359
 4987POPC   C1B63571   9.993  32.075   6.287
 4987POPC   C2B63572   9.872  32.023   6.715
 4987POPC   C3B63573  10.024  32.200   7.079
 4987POPC   C4B63574  10.138  32.093   7.484
 4988POPC   NC363575   5.630  38.034   5.496
 4988POPC   PO463576   6.128  37.734   5.171
 4988POPC   GL163577   6.077  37.838   5.661
 4988POPC   GL263578   5.822  37.602   5.733
 4988POPC   C1A63579   5.884  37.845   6.145
 4988POPC   D2A63580   5.826  37.573   6.505
 4988POPC   C3A63581   5.742  37.780   6.884
 4988POPC   C4A63582   5.903  37.959   7.285
 4988POPC   C1B63583   5.541  37.430   6.094
 4988POPC   C2B63584   5.518  37.134   6.469
 4988POPC   C3B63585   5.546  37.197   6.940
 4988POPC   C4B63586   5.662  37.498   7.276
 4989POPC   NC363587  30.186   8.480   5.505
 4989POPC   PO463588  29.667   7.914   5.472
 4989POPC   GL163589  29.939   8.090   5.794
 4989POPC   GL263590  29.856   8.469   5.899
 4989POPC   C1A63591  30.000   8.105   6.237
 4989POPC   D2A63592  29.790   8.107   6.616
 4989POPC   C3A63593  30.000   8.175   6.986
 4989POPC   C4A63594  29.900   7.871   7.276
 4989POPC   C1B63595  29.723   8.555   6.347
 4989POPC   C2B63596  29.714   8.610   6.791
 4989POPC   C3B63597  29.681   8.677   7.204
 4989POPC   C4B63598  29.813   8.341   7.440
 4990POPC   NC363599  21.105   4.521   5.582
 4990POPC   PO463600  21.697   4.393   5.445
 4990POPC   GL163601  21.497   4.267   5.831
 4990POPC   GL263602  21.167   4.353   6.044
 4990POPC   C1A63603  21.521   4.035   6.187
 4990POPC   D2A63604  21.305   4.202   6.546
 4990POPC   C3A63605  21.510   4.114   6.931
 4990POPC   C4A63606  21.323   4.128   7.349
 4990POPC   C1B63607  21.435   4.648   6.265
 4990POPC   C2B63608  21.531   4.668   6.685
 4990POPC   C3B63609  21.242   4.546   6.982
 4990POPC   C4B63610  21.183   4.805   7.312
 4991POPC   NC363611  11.218  25.470   5.403
 4991POPC   PO463612  11.742  25.003   5.433
 4991POPC   GL163613  11.524  24.993   5.843
 4991POPC   GL263614  11.191  25.132   5.819
 4991POPC   C1A63615  11.537  25.232   6.232
 4991POPC   D2A63616  11.350  25.377   6.608
 4991POPC   C3A63617  11.290  25.218   7.040
 4991POPC   C4A63618  11.525  25.243   7.399
 4991POPC   C1B63619  11.014  25.351   6.199
 4991POPC   C2B63620  10.857  25.459   6.596
 4991POPC   C3B63621  10.796  25.374   7.026
 4991POPC   C4B63622  10.982  25.440   7.443
 4992POPC   NC363623  34.827   9.077   5.505
 4992POPC   PO463624  34.315   8.664   5.680
 4992POPC   GL163625  34.474   8.815   6.027
 4992POPC   GL263626  34.783   8.760   5.910
 4992POPC   C1A63627  34.442   9.089   6.383
 4992POPC   D2A63628  34.691   9.175   6.725
 4992POPC   C3A63629  34.526   9.007   7.066
 4992POPC   C4A63630  34.368   9.278   7.366
 4992POPC   C1B63631  34.910   8.871   6.318
 4992POPC   C2B63632  35.025   8.788   6.745
 4992POPC   C3B63633  35.026   9.023   7.120
 4992POPC   C4B63634  35.258   9.126   7.462
 4993POPC   NC363635   4.892  39.550   5.072
 4993POPC   PO463636   4.828  39.194   5.613
 4993POPC   GL163637   5.204  39.353   5.761
 4993POPC   GL263638   4.960  39.442   6.045
 4993POPC   C1A63639   5.445  39.436   6.122
 4993POPC   D2A63640   5.228  39.583   6.473
 4993POPC   C3A63641   5.264  39.304   6.819
 4993POPC   C4A63642   5.343  39.276   7.244
 4993POPC   C1B63643   4.734  39.459   6.425
 4993POPC   C2B63644   4.743  39.133   6.708
 4993POPC   C3B63645   4.866  39.087   7.124
 4993POPC   C4B63646   4.860  39.362   7.475
 4994POPC   NC363647  15.919   8.629   5.474
 4994POPC   PO463648  16.381   8.084   5.349
 4994POPC   GL163649  16.187   8.287   5.763
 4994POPC   GL263650  15.800   8.227   5.794
 4994POPC   C1A63651  16.055   8.453   6.213
 4994POPC   D2A63652  15.930   8.319   6.673
 4994POPC   C3A63653  16.256   8.207   7.018
 4994POPC   C4A63654  16.356   7.867   7.301
 4994POPC   C1B63655  15.847   7.999   6.208
 4994POPC   C2B63656  15.643   7.881   6.605
 4994POPC   C3B63657  15.823   7.941   7.010
 4994POPC   C4B63658  15.827   8.382   7.215
 4995POPC   NC363659  17.487  32.300   5.287
 4995POPC   PO463660  17.481  31.662   5.533
 4995POPC   GL163661  17.384  32.054   5.739
 4995POPC   GL263662  17.625  32.386   5.758
 4995POPC   C1A63663  17.378  32.200   6.149
 4995POPC   D2A63664  17.620  32.219   6.488
 4995POPC   C3A63665  17.430  32.359   6.841
 4995POPC   C4A63666  17.506  32.401   7.240
 4995POPC   C1B63667  17.845  32.564   6.115
 4995POPC   C2B63668  17.949  32.615   6.578
 4995POPC   C3B63669  17.771  32.748   6.970
 4995POPC   C4B63670  17.933  32.644   7.390
 4996POPC   NC363671  42.087  38.469   5.293
 4996POPC   PO463672  42.695  38.569   5.300
 4996POPC   GL163673  42.631  38.408   5.751
 4996POPC   GL263674  42.252  38.447   5.811
 4996POPC   C1A63675  42.589  38.405   6.233
 4996POPC   D2A63676  42.540  38.621   6.640
 4996POPC   C3A63677  42.582  38.454   7.047
 4996POPC   C4A63678  42.548  38.333   7.495
 4996POPC   C1B63679  42.085  38.596   6.224
 4996POPC   C2B63680  42.036  38.572   6.671
 4996POPC   C3B63681  42.078  38.445   7.074
 4996POPC   C4B63682  41.963  38.613   7.428
 4997POPC   NC363683   4.118  42.273   5.391
 4997POPC   PO463684   3.796  41.889   5.781
 4997POPC   GL163685   4.192  42.140   5.897
 4997POPC   GL263686   4.249  42.498   5.841
 4997POPC   C1A63687   4.609  42.210   6.094
 4997POPC   D2A63688   4.812  42.427   6.472
 4997POPC   C3A63689   4.603  42.355   6.882
 4997POPC   C4A63690   4.478  42.091   7.220
 4997POPC   C1B63691   4.554  42.730   6.103
 4997POPC   C2B63692   4.548  42.903   6.522
 4997POPC   C3B63693   4.299  42.772   6.856
 4997POPC   C4B63694   4.220  42.620   7.275
 4998POPC   NC363695  36.659  43.168   5.398
 4998POPC   PO463696  37.174  43.509   5.168
 4998POPC   GL163697  36.942  43.490   5.674
 4998POPC   GL263698  36.600  43.407   5.857
 4998POPC   C1A63699  37.055  43.406   6.155
 4998POPC   D2A63700  36.803  43.317   6.549
 4998POPC   C3A63701  36.993  43.323   6.972
 4998POPC   C4A63702  36.808  43.353   7.369
 4998POPC   C1B63703  36.719  43.004   6.112
 4998POPC   C2B63704  36.926  42.744   6.440
 4998POPC   C3B63705  36.930  42.817   6.872
 4998POPC   C4B63706  36.762  42.822   7.263
 4999POPC   NC363707   8.403  15.733   5.414
 4999POPC   PO463708   7.900  16.282   5.330
 4999POPC   GL163709   8.035  16.106   5.710
 4999POPC   GL263710   8.355  16.207   5.647
 4999POPC   C1A63711   8.063  15.994   6.186
 4999POPC   D2A63712   8.138  15.706   6.559
 4999POPC   C3A63713   8.039  15.840   6.989
 4999POPC   C4A63714   7.979  16.131   7.360
 4999POPC   C1B63715   8.540  16.144   6.060
 4999POPC   C2B63716   8.539  16.042   6.485
 4999POPC   C3B63717   8.539  15.848   6.888
 4999POPC   C4B63718   8.467  16.126   7.211
 5000POPC   NC363719  23.294  30.087   5.432
 5000POPC   PO463720  22.627  30.025   5.402
 5000POPC   GL163721  22.892  30.149   5.764
 5000POPC   GL263722  23.137  29.852   5.842
 5000POPC   C1A63723  22.955  30.136   6.227
 5000POPC   D2A63724  23.051  29.942   6.622
 5000POPC   C3A63725  22.802  29.824   6.954
 5000POPC   C4A63726  22.878  29.840   7.376
 5000POPC   C1B63727  23.391  29.720   6.201
 5000POPC   C2B63728  23.449  29.640   6.642
 5000POPC   C3B63729  23.309  29.716   7.097
 5000POPC   C4B63730  23.378  29.814   7.547
 5001POPC   NC363731  42.010   4.644   5.682
 5001POPC   PO463732  42.352   5.235   5.375
 5001POPC   GL163733  42.454   5.106   5.786
 5001POPC   GL263734  42.159   5.037   5.963
 5001POPC   C1A63735  42.557   5.217   6.220
 5001POPC   D2A63736  42.511   4.988   6.584
 5001POPC   C3A63737  42.371   5.133   6.978
 5001POPC   C4A63738  42.649   5.166   7.303
 5001POPC   C1B63739  41.999   4.990   6.385
 5001POPC   C2B63740  42.100   4.733   6.746
 5001POPC   C3B63741  42.155   4.715   7.170
 5001POPC   C4B63742  42.258   4.945   7.593
 5002POPC   NC363743  41.087  41.777   5.392
 5002POPC   PO463744  40.688  41.191   5.340
 5002POPC   GL163745  40.793  41.376   5.793
 5002POPC   GL263746  40.992  41.677   5.871
 5002POPC   C1A63747  40.724  41.478   6.267
 5002POPC   D2A63748  40.626  41.673   6.707
 5002POPC   C3A63749  40.701  41.431   7.087
 5002POPC   C4A63750  40.625  41.454   7.541
 5002POPC   C1B63751  41.008  41.933   6.235
 5002POPC   C2B63752  41.049  41.999   6.661
 5002POPC   C3B63753  40.881  41.951   7.057
 5002POPC   C4B63754  40.931  41.874   7.477
 5003POPC   NC363755  28.626  17.506   5.324
 5003POPC   PO463756  27.983  17.385   5.268
 5003POPC   GL163757  28.209  17.540   5.694
 5003POPC   GL263758  28.554  17.661   5.801
 5003POPC   C1A63759  28.295  17.336   6.142
 5003POPC   D2A63760  28.211  17.470   6.556
 5003POPC   C3A63761  28.429  17.382   6.922
 5003POPC   C4A63762  28.152  17.617   7.174
 5003POPC   C1B63763  28.367  17.836   6.180
 5003POPC   C2B63764  28.505  18.079   6.529
 5003POPC   C3B63765  28.505  17.896   6.913
 5003POPC   C4B63766  28.723  17.688   7.232
 5004POPC   NC363767  25.453  23.970   5.436
 5004POPC   PO463768  24.888  24.184   5.551
 5004POPC   GL163769  25.093  23.900   5.818
 5004POPC   GL263770  25.036  23.508   5.807
 5004POPC   C1A63771  25.451  23.847   6.113
 5004POPC   D2A63772  25.494  23.617   6.501
 5004POPC   C3A63773  25.246  23.778   6.828
 5004POPC   C4A63774  25.224  23.895   7.263
 5004POPC   C1B63775  24.981  23.658   6.245
 5004POPC   C2B63776  24.708  23.640   6.564
 5004POPC   C3B63777  24.756  23.695   6.969
 5004POPC   C4B63778  24.827  23.561   7.370
 5005POPC   NC363779  38.636  23.516   5.391
 5005POPC   PO463780  38.200  23.978   5.405
 5005POPC   GL163781  38.580  23.930   5.696
 5005POPC   GL263782  38.386  23.708   5.860
 5005POPC   C1A63783  38.797  23.886   6.124
 5005POPC   D2A63784  38.693  23.959   6.563
 5005POPC   C3A63785  38.684  23.773   6.997
 5005POPC   C4A63786  38.587  23.970   7.426
 5005POPC   C1B63787  38.261  23.886   6.266
 5005POPC   C2B63788  38.243  23.755   6.719
 5005POPC   C3B63789  38.207  23.736   7.172
 5005POPC   C4B63790  38.111  23.574   7.599
 5006POPC   NC363791   4.224  33.443   5.444
 5006POPC   PO463792   4.518  34.065   5.502
 5006POPC   GL163793   4.338  33.807   5.793
 5006POPC   GL263794   4.097  34.029   5.890
 5006POPC   C1A63795   4.480  33.707   6.201
 5006POPC   D2A63796   4.408  33.943   6.580
 5006POPC   C3A63797   4.463  33.723   6.966
 5006POPC   C4A63798   4.551  33.925   7.364
 5006POPC   C1B63799   3.975  33.696   6.183
 5006POPC   C2B63800   3.914  33.763   6.608
 5006POPC   C3B63801   4.028  33.970   6.989
 5006POPC   C4B63802   4.084  33.751   7.393
 5007POPC   NC363803  17.389  15.577   5.507
 5007POPC   PO463804  17.361  16.145   5.625
 5007POPC   GL163805  17.583  15.901   5.899
 5007POPC   GL263806  17.317  15.681   5.996
 5007POPC   C1A63807  17.672  16.035   6.327
 5007POPC   D2A63808  17.617  16.014   6.768
 5007POPC   C3A63809  17.751  16.264   7.138
 5007POPC   C4A63810  17.834  16.106   7.557
 5007POPC   C1B63811  17.268  15.735   6.430
 5007POPC   C2B63812  17.212  15.718   6.871
 5007POPC   C3B63813  17.333  15.776   7.296
 5007POPC   C4B63814  17.213  15.718   7.736
 5008POPC   NC363815   4.643  43.105   5.459
 5008POPC   PO463816   5.219  42.808   5.454
 5008POPC   GL163817   5.147  43.047   5.792
 5008POPC   GL263818   4.968  43.377   5.741
 5008POPC   C1A63819   4.998  42.993   6.191
 5008POPC   D2A63820   4.903  43.261   6.505
 5008POPC   C3A63821   4.986  43.018   6.839
 5008POPC   C4A63822   5.082  43.211   7.195
 5008POPC   C1B63823   5.204  43.457   6.113
 5008POPC   C2B63824   5.388  43.412   6.530
 5008POPC   C3B63825   5.434  43.549   6.935
 5008POPC   C4B63826   5.523  43.403   7.345
 5009POPC   NC363827   7.777  13.710   5.469
 5009POPC   PO463828   7.105  13.814   5.424
 5009POPC   GL163829   7.355  13.624   5.762
 5009POPC   GL263830   7.637  13.752   5.990
 5009POPC   C1A63831   7.233  13.352   6.086
 5009POPC   D2A63832   7.123  13.289   6.510
 5009POPC   C3A63833   7.348  13.530   6.823
 5009POPC   C4A63834   7.237  13.520   7.249
 5009POPC   C1B63835   7.842  13.993   6.370
 5009POPC   C2B63836   7.796  14.025   6.826
 5009POPC   C3B63837   7.696  13.743   7.151
 5009POPC   C4B63838   7.552  13.769   7.596
 5010POPC   NC363839  15.290  23.215   5.241
 5010POPC   PO463840  14.792  23.631   5.302
 5010POPC   GL163841  15.055  23.586   5.662
 5010POPC   GL263842  14.927  23.279   5.771
 5010POPC   C1A63843  15.202  23.787   6.070
 5010POPC   D2A63844  14.971  23.776   6.478
 5010POPC   C3A63845  15.088  23.989   6.866
 5010POPC   C4A63846  15.241  23.825   7.237
 5010POPC   C1B63847  15.020  23.324   6.211
 5010POPC   C2B63848  15.275  23.305   6.585
 5010POPC   C3B63849  15.452  23.394   7.004
 5010POPC   C4B63850  15.311  23.109   7.307
 5011POPC   NC363851  10.037   3.334   5.465
 5011POPC   PO463852   9.519   3.913   5.386
 5011POPC   GL163853   9.610   3.764   5.813
 5011POPC   GL263854   9.682   3.407   5.845
 5011POPC   C1A63855   9.653   3.727   6.284
 5011POPC   D2A63856   9.934   3.886   6.647
 5011POPC   C3A63857   9.791   3.941   7.093
 5011POPC   C4A63858   9.461   3.748   7.349
 5011POPC   C1B63859   9.715   3.230   6.253
 5011POPC   C2B63860   9.864   3.342   6.652
 5011POPC   C3B63861   9.730   3.416   7.075
 5011POPC   C4B63862   9.724   3.316   7.542
 5012POPC   NC363863  36.900  20.984   5.676
 5012POPC   PO463864  36.709  21.531   5.307
 5012POPC   GL163865  36.806  21.543   5.764
 5012POPC   GL263866  37.117  21.511   5.699
 5012POPC   C1A63867  36.795  21.421   6.232
 5012POPC   D2A63868  36.735  21.248   6.671
 5012POPC   C3A63869  36.646  21.472   7.081
 5012POPC   C4A63870  36.626  21.502   7.576
 5012POPC   C1B63871  37.277  21.343   6.092
 5012POPC   C2B63872  37.236  21.425   6.536
 5012POPC   C3B63873  37.139  21.396   6.961
 5012POPC   C4B63874  37.297  21.078   7.225
 5013POPC   NC363875  32.991  21.946   5.480
 5013POPC   PO463876  32.920  22.630   5.481
 5013POPC   GL163877  32.897  22.446   5.878
 5013POPC   GL263878  33.148  22.141   5.931
 5013POPC   C1A63879  33.061  22.468   6.302
 5013POPC   D2A63880  33.081  22.181   6.639
 5013POPC   C3A63881  33.026  22.395   7.032
 5013POPC   C4A63882  32.898  22.115   7.350
 5013POPC   C1B63883  33.359  21.918   6.287
 5013POPC   C2B63884  33.547  21.701   6.646
 5013POPC   C3B63885  33.351  21.732   7.030
 5013POPC   C4B63886  33.396  22.095   7.239
 5014POPC   NC363887  10.814   2.031   5.495
 5014POPC   PO463888  10.170   2.133   5.446
 5014POPC   GL163889  10.407   1.837   5.727
 5014POPC   GL263890  10.659   1.580   5.707
 5014POPC   C1A63891  10.592   1.938   6.141
 5014POPC   D2A63892  10.381   2.150   6.511
 5014POPC   C3A63893  10.576   2.242   6.925
 5014POPC   C4A63894  10.462   2.048   7.326
 5014POPC   C1B63895  10.891   1.504   6.103
 5014POPC   C2B63896  10.784   1.656   6.525
 5014POPC   C3B63897  10.658   1.739   6.952
 5014POPC   C4B63898  10.990   1.725   7.259
 5015POPC   NC363899  31.705  15.301   5.208
 5015POPC   PO463900  32.347  15.179   5.324
 5015POPC   GL163901  32.248  15.130   5.752
 5015POPC   GL263902  31.925  15.309   5.718
 5015POPC   C1A63903  32.240  15.192   6.215
 5015POPC   D2A63904  32.078  15.171   6.633
 5015POPC   C3A63905  32.386  15.270   6.912
 5015POPC   C4A63906  32.410  15.277   7.325
 5015POPC   C1B63907  31.849  14.910   5.987
 5015POPC   C2B63908  31.967  14.694   6.384
 5015POPC   C3B63909  32.030  14.687   6.820
 5015POPC   C4B63910  31.987  15.006   7.133
 5016POPC   NC363911  20.483   9.018   5.416
 5016POPC   PO463912  21.086   8.536   5.374
 5016POPC   GL163913  20.778   8.729   5.699
 5016POPC   GL263914  20.796   9.101   5.806
 5016POPC   C1A63915  20.514   8.827   6.107
 5016POPC   D2A63916  20.418   8.697   6.532
 5016POPC   C3A63917  20.545   8.897   6.909
 5016POPC   C4A63918  20.373   9.019   7.289
 5016POPC   C1B63919  20.693   9.326   6.163
 5016POPC   C2B63920  20.589   9.398   6.594
 5016POPC   C3B63921  20.580   9.428   7.029
 5016POPC   C4B63922  20.850   9.208   7.312
 5017POPC   NC363923  37.131  18.849   5.527
 5017POPC   PO463924  37.603  19.340   5.587
 5017POPC   GL163925  37.910  19.211   5.971
 5017POPC   GL263926  38.003  18.824   5.911
 5017POPC   C1A63927  37.971  19.032   6.384
 5017POPC   D2A63928  37.715  18.772   6.650
 5017POPC   C3A63929  37.717  18.925   7.064
 5017POPC   C4A63930  37.528  19.197   7.398
 5017POPC   C1B63931  38.040  18.544   6.298
 5017POPC   C2B63932  38.157  18.532   6.774
 5017POPC   C3B63933  38.043  18.540   7.249
 5017POPC   C4B63934  37.889  18.855   7.595
 5018POPC   NC363935  29.694  19.294   5.297
 5018POPC   PO463936  30.048  18.817   5.533
 5018POPC   GL163937  29.967  19.086   5.892
 5018POPC   GL263938  30.258  19.209   6.082
 5018POPC   C1A63939  29.834  19.190   6.333
 5018POPC   D2A63940  30.042  19.047   6.716
 5018POPC   C3A63941  29.771  19.048   7.059
 5018POPC   C4A63942  29.813  19.383   7.347
 5018POPC   C1B63943  30.094  18.774   6.276
 5018POPC   C2B63944  30.041  18.537   6.659
 5018POPC   C3B63945  30.185  18.679   7.069
 5018POPC   C4B63946  30.133  18.966   7.423
 5019POPC   NC363947  26.443  25.609   5.346
 5019POPC   PO463948  26.980  25.205   5.412
 5019POPC   GL163949  26.784  25.122   5.773
 5019POPC   GL263950  26.442  25.185   5.684
 5019POPC   C1A63951  26.898  25.155   6.203
 5019POPC   D2A63952  26.892  25.110   6.639
 5019POPC   C3A63953  27.092  25.376   6.897
 5019POPC   C4A63954  26.935  25.229   7.277
 5019POPC   C1B63955  26.352  25.112   6.150
 5019POPC   C2B63956  26.380  25.159   6.625
 5019POPC   C3B63957  26.485  25.096   7.057
 5019POPC   C4B63958  26.471  25.360   7.435
 5020POPC   NC363959  39.972  33.415   5.403
 5020POPC   PO463960  40.189  34.092   5.559
 5020POPC   GL163961  39.903  33.954   5.851
 5020POPC   GL263962  39.853  33.610   5.843
 5020POPC   C1A63963  40.009  33.897   6.283
 5020POPC   D2A63964  39.972  34.070   6.683
 5020POPC   C3A63965  40.204  33.831   6.968
 5020POPC   C4A63966  40.177  33.731   7.389
 5020POPC   C1B63967  39.632  33.568   6.219
 5020POPC   C2B63968  39.786  33.571   6.656
 5020POPC   C3B63969  39.732  33.687   7.086
 5020POPC   C4B63970  39.536  33.499   7.435
 5021POPC   NC363971   2.504   9.337   5.463
 5021POPC   PO463972   3.010   8.977   5.160
 5021POPC   GL163973   2.959   9.015   5.694
 5021POPC   GL263974   2.891   9.355   5.789
 5021POPC   C1A63975   2.699   8.770   6.099
 5021POPC   D2A63976   2.443   8.766   6.505
 5021POPC   C3A63977   2.737   8.818   6.820
 5021POPC   C4A63978   3.083   8.839   7.136
 5021POPC   C1B63979   2.598   9.263   6.133
 5021POPC   C2B63980   2.791   9.288   6.533
 5021POPC   C3B63981   2.872   9.291   6.972
 5021POPC   C4B63982   2.644   9.032   7.273
 5022POPC   NC363983  21.903  12.888   5.141
 5022POPC   PO463984  21.349  13.024   5.525
 5022POPC   GL163985  21.380  12.821   5.929
 5022POPC   GL263986  21.728  12.708   6.103
 5022POPC   C1A63987  21.203  12.870   6.330
 5022POPC   D2A63988  21.369  12.666   6.686
 5022POPC   C3A63989  21.201  12.703   7.098
 5022POPC   C4A63990  21.294  12.399   7.444
 5022POPC   C1B63991  21.640  13.143   6.276
 5022POPC   C2B63992  21.605  13.280   6.704
 5022POPC   C3B63993  21.650  12.980   7.040
 5022POPC   C4B63994  21.541  12.839   7.455
 5023POPC   NC363995  40.426   4.012   5.559
 5023POPC   PO463996  39.876   4.327   5.486
 5023POPC   GL163997  39.968   4.380   5.925
 5023POPC   GL263998  40.267   4.200   6.008
 5023POPC   C1A63999  40.027   4.493   6.355
 5023POPC   D2A64000  40.113   4.268   6.728
 5023POPC   C3A64001  40.043   4.467   7.102
 5023POPC   C4A64002  40.077   4.397   7.539
 5023POPC   C1B64003  40.008   3.969   6.310
 5023POPC   C2B64004  39.965   3.760   6.738
 5023POPC   C3B64005  40.160   3.946   7.142
 5023POPC   C4B64006  40.418   4.002   7.514
 5024POPC   NC364007  32.955   5.252   5.433
 5024POPC   PO464008  32.704   4.657   5.592
 5024POPC   GL164009  32.949   4.942   5.870
 5024POPC   GL264010  33.318   5.036   5.852
 5024POPC   C1A64011  32.919   5.032   6.306
 5024POPC   D2A64012  32.796   4.774   6.662
 5024POPC   C3A64013  33.018   4.847   7.026
 5024POPC   C4A64014  32.905   5.181   7.257
 5024POPC   C1B64015  33.382   4.800   6.281
 5024POPC   C2B64016  33.465   4.893   6.755
 5024POPC   C3B64017  33.408   5.186   7.146
 5024POPC   C4B64018  33.625   5.206   7.597
 5025POPC   NC364019  24.295   7.789   5.339
 5025POPC   PO464020  24.696   8.319   5.409
 5025POPC   GL164021  24.567   8.217   5.805
 5025POPC   GL264022  24.295   8.464   5.795
 5025POPC   C1A64023  24.493   8.170   6.256
 5025POPC   D2A64024  24.445   7.981   6.658
 5025POPC   C3A64025  24.587   8.204   7.025
 5025POPC   C4A64026  24.807   7.937   7.351
 5025POPC   C1B64027  24.181   8.575   6.218
 5025POPC   C2B64028  24.297   8.500   6.645
 5025POPC   C3B64029  24.296   8.638   7.063
 5025POPC   C4B64030  24.332   8.745   7.488
 5026POPC   NC364031   7.537  16.595   5.328
 5026POPC   PO464032   7.200  17.043   5.577
 5026POPC   GL164033   7.365  16.676   5.809
 5026POPC   GL264034   7.682  16.490   5.814
 5026POPC   C1A64035   7.291  16.585   6.239
 5026POPC   D2A64036   7.130  16.809   6.624
 5026POPC   C3A64037   7.230  16.600   7.032
 5026POPC   C4A64038   7.164  16.606   7.513
 5026POPC   C1B64039   7.773  16.850   6.114
 5026POPC   C2B64040   7.744  17.025   6.577
 5026POPC   C3B64041   7.799  16.905   7.048
 5026POPC   C4B64042   7.648  16.537   7.322
 5027POPC   NC364043  26.324  27.717   5.492
 5027POPC   PO464044  25.773  27.370   5.354
 5027POPC   GL164045  26.006  27.403   5.762
 5027POPC   GL264046  26.008  27.720   5.881
 5027POPC   C1A64047  26.155  27.379   6.210
 5027POPC   D2A64048  26.163  27.635   6.593
 5027POPC   C3A64049  26.132  27.406   6.958
 5027POPC   C4A64050  26.168  27.186   7.365
 5027POPC   C1B64051  25.786  27.743   6.228
 5027POPC   C2B64052  25.707  27.866   6.643
 5027POPC   C3B64053  25.886  27.849   7.034
 5027POPC   C4B64054  26.209  28.041   7.257
 5028POPC   NC364055  43.215  14.022   5.622
 5028POPC   PO464056  43.467  13.476   5.223
 5028POPC   GL164057  43.331  13.513   5.720
 5028POPC   GL264058  43.470  13.770   5.966
 5028POPC   C1A64059  43.068  13.509   6.158
 5028POPC   D2A64060  43.117  13.331   6.627
 5028POPC   C3A64061  42.976  13.584   7.009
 5028POPC   C4A64062  42.969  13.527   7.444
 5028POPC   C1B64063  43.362  13.968   6.302
 5028POPC   C2B64064  43.296  13.823   6.688
 5028POPC   C3B64065  43.332  13.943   7.080
 5028POPC   C4B64066  43.006  14.106   7.306
 5029POPC   NC364067  13.942  31.551   5.378
 5029POPC   PO464068  13.373  31.841   5.145
 5029POPC   GL164069  13.421  31.747   5.636
 5029POPC   GL264070  13.591  31.432   5.738
 5029POPC   C1A64071  13.466  31.745   6.111
 5029POPC   D2A64072  13.491  31.544   6.532
 5029POPC   C3A64073  13.586  31.627   6.986
 5029POPC   C4A64074  13.434  31.685   7.411
 5029POPC   C1B64075  13.774  31.289   6.155
 5029POPC   C2B64076  13.940  31.303   6.600
 5029POPC   C3B64077  13.857  31.171   7.032
 5029POPC   C4B64078  13.555  31.215   7.374
 5030POPC   NC364079   1.367  26.963   5.017
 5030POPC   PO464080   0.877  26.648   5.410
 5030POPC   GL164081   1.123  26.746   5.791
 5030POPC   GL264082   1.080  26.429   5.929
 5030POPC   C1A64083   1.353  26.978   6.175
 5030POPC   D2A64084   1.496  26.845   6.611
 5030POPC   C3A64085   1.284  26.906   7.012
 5030POPC   C4A64086   1.518  26.999   7.402
 5030POPC   C1B64087   0.995  26.640   6.359
 5030POPC   C2B64088   0.864  26.957   6.705
 5030POPC   C3B64089   0.758  26.992   7.150
 5030POPC   C4B64090   1.023  26.848   7.528
 5031POPC   NC364091  32.309  39.439   5.381
 5031POPC   PO464092  31.729  39.697   5.512
 5031POPC   GL164093  32.018  39.526   5.845
 5031POPC   GL264094  32.403  39.548   5.851
 5031POPC   C1A64095  32.179  39.232   6.194
 5031POPC   D2A64096  32.308  39.174   6.623
 5031POPC   C3A64097  32.403  38.912   6.965
 5031POPC   C4A64098  32.270  39.124   7.319
 5031POPC   C1B64099  32.321  39.733   6.225
 5031POPC   C2B64100  32.468  39.668   6.613
 5031POPC   C3B64101  32.528  39.466   7.014
 5031POPC   C4B64102  32.505  39.557   7.433
 5032POPC   NC364103  35.685   2.301   5.410
 5032POPC   PO464104  35.208   1.736   5.502
 5032POPC   GL164105  35.324   2.038   5.835
 5032POPC   GL264106  35.013   1.915   5.973
 5032POPC   C1A64107  35.241   2.269   6.253
 5032POPC   D2A64108  34.952   2.252   6.620
 5032POPC   C3A64109  35.177   2.003   6.920
 5032POPC   C4A64110  35.504   2.248   7.109
 5032POPC   C1B64111  35.276   1.702   6.270
 5032POPC   C2B64112  35.233   1.400   6.631
 5032POPC   C3B64113  35.057   1.502   7.051
 5032POPC   C4B64114  35.040   1.741   7.452
 5033POPC   NC364115  25.479  17.601   5.080
 5033POPC   PO464116  25.409  18.269   5.407
 5033POPC   GL164117  25.230  18.392   5.765
 5033POPC   GL264118  25.508  18.564   5.883
 5033POPC   C1A64119  25.241  18.224   6.189
 5033POPC   D2A64120  25.064  18.289   6.597
 5033POPC   C3A64121  25.280  18.191   6.979
 5033POPC   C4A64122  25.154  18.265   7.397
 5033POPC   C1B64123  25.701  18.546   6.256
 5033POPC   C2B64124  25.656  18.438   6.670
 5033POPC   C3B64125  25.705  18.444   7.111
 5033POPC   C4B64126  25.667  18.273   7.503
 5034POPC   NC364127  39.124  16.834   5.422
 5034POPC   PO464128  39.629  16.394   5.462
 5034POPC   GL164129  39.439  16.548   5.835
 5034POPC   GL264130  39.493  16.898   5.897
 5034POPC   C1A64131  39.049  16.661   6.065
 5034POPC   D2A64132  38.951  16.805   6.494
 5034POPC   C3A64133  39.160  16.613   6.866
 5034POPC   C4A64134  39.043  16.687   7.317
 5034POPC   C1B64135  39.468  16.770   6.347
 5034POPC   C2B64136  39.614  16.860   6.766
 5034POPC   C3B64137  39.534  16.758   7.206
 5034POPC   C4B64138  39.632  16.552   7.603
 5035POPC   NC364139   9.267  34.332   5.452
 5035POPC   PO464140   9.205  35.029   5.381
 5035POPC   GL164141   9.056  34.816   5.792
 5035POPC   GL264142   8.909  34.470   5.790
 5035POPC   C1A64143   8.890  34.728   6.238
 5035POPC   D2A64144   8.948  34.485   6.630
 5035POPC   C3A64145   8.906  34.673   7.020
 5035POPC   C4A64146   8.653  34.745   7.381
 5035POPC   C1B64147   9.068  34.217   6.134
 5035POPC   C2B64148   9.114  34.016   6.562
 5035POPC   C3B64149   9.044  34.155   7.025
 5035POPC   C4B64150   8.937  34.323   7.462
 5036POPC   NC364151   9.279   0.267   5.478
 5036POPC   PO464152   9.851   0.565   5.561
 5036POPC   GL164153   9.527   0.519   5.891
 5036POPC   GL264154   9.570   0.171   5.902
 5036POPC   C1A64155   9.565   0.625   6.351
 5036POPC   D2A64156   9.508   0.733   6.808
 5036POPC   C3A64157   9.813   0.659   7.091
 5036POPC   C4A64158  10.020   0.330   7.291
 5036POPC   C1B64159   9.721   0.069   6.299
 5036POPC   C2B64160   9.748   0.270   6.712
 5036POPC   C3B64161   9.558   0.193   7.103
 5036POPC   C4B64162   9.618   0.164   7.540
 5037POPC   NC364163   2.259  32.031   5.594
 5037POPC   PO464164   2.012  31.430   5.335
 5037POPC   GL164165   2.142  31.365   5.774
 5037POPC   GL264166   2.186  31.673   5.964
 5037POPC   C1A64167   2.004  31.149   6.173
 5037POPC   D2A64168   2.216  31.082   6.579
 5037POPC   C3A64169   2.246  31.438   6.870
 5037POPC   C4A64170   2.135  31.406   7.285
 5037POPC   C1B64171   1.795  31.631   6.234
 5037POPC   C2B64172   1.567  31.538   6.643
 5037POPC   C3B64173   1.678  31.480   7.076
 5037POPC   C4B64174   1.749  31.796   7.373
 5038POPC   NC364175  17.254  36.252   5.157
 5038POPC   PO464176  16.549  36.154   5.284
 5038POPC   GL164177  16.814  36.160   5.684
 5038POPC   GL264178  16.875  36.498   5.788
 5038POPC   C1A64179  16.674  36.096   6.139
 5038POPC   D2A64180  16.339  36.009   6.467
 5038POPC   C3A64181  16.409  36.127   6.900
 5038POPC   C4A64182  16.752  36.156   7.208
 5038POPC   C1B64183  16.615  36.617   6.133
 5038POPC   C2B64184  16.753  36.707   6.531
 5038POPC   C3B64185  16.635  36.598   6.922
 5038POPC   C4B64186  16.798  36.668   7.314
 5039POPC   NC364187  35.531  26.714   5.286
 5039POPC   PO464188  35.173  27.249   5.414
 5039POPC   GL164189  35.236  26.956   5.754
 5039POPC   GL264190  35.270  26.579   5.702
 5039POPC   C1A64191  35.447  27.013   6.138
 5039POPC   D2A64192  35.746  26.963   6.469
 5039POPC   C3A64193  35.574  27.046   6.859
 5039POPC   C4A64194  35.528  26.970   7.333
 5039POPC   C1B64195  35.202  26.544   6.149
 5039POPC   C2B64196  35.277  26.741   6.549
 5039POPC   C3B64197  35.377  26.582   6.938
 5039POPC   C4B64198  35.182  26.618   7.301
 5040POPC   NC364199   8.731  10.798   5.607
 5040POPC   PO464200   8.935  10.178   5.405
 5040POPC   GL164201   9.036  10.449   5.866
 5040POPC   GL264202   8.977  10.817   6.021
 5040POPC   C1A64203   9.213  10.535   6.321
 5040POPC   D2A64204   9.039  10.627   6.701
 5040POPC   C3A64205   9.287  10.492   7.028
 5040POPC   C4A64206   8.989  10.220   7.232
 5040POPC   C1B64207   8.585  10.795   6.246
 5040POPC   C2B64208   8.382  10.800   6.632
 5040POPC   C3B64209   8.637  10.907   6.947
 5040POPC   C4B64210   8.874  10.711   7.218
 5041POPC   NC364211   2.990  41.218   5.499
 5041POPC   PO464212   3.227  40.624   5.305
 5041POPC   GL164213   2.919  40.593   5.671
 5041POPC   GL264214   2.673  40.847   5.726
 5041POPC   C1A64215   2.984  40.659   6.127
 5041POPC   D2A64216   2.787  40.697   6.543
 5041POPC   C3A64217   2.932  40.437   6.884
 5041POPC   C4A64218   2.804  40.604   7.275
 5041POPC   C1B64219   2.555  40.975   6.153
 5041POPC   C2B64220   2.324  40.913   6.564
 5041POPC   C3B64221   2.525  40.957   6.984
 5041POPC   C4B64222   2.491  40.972   7.434
 5042POPC   NC364223  23.069   6.349   5.230
 5042POPC   PO464224  22.662   5.816   5.507
 5042POPC   GL164225  23.109   5.903   5.604
 5042POPC   GL264226  23.198   6.191   5.726
 5042POPC   C1A64227  23.305   5.714   5.974
 5042POPC   D2A64228  23.337   5.739   6.441
 5042POPC   C3A64229  23.068   5.761   6.825
 5042POPC   C4A64230  23.103   6.063   7.166
 5042POPC   C1B64231  22.956   6.053   6.109
 5042POPC   C2B64232  22.801   6.066   6.499
 5042POPC   C3B64233  22.683   6.111   6.899
 5042POPC   C4B64234  22.668   5.796   7.186
 5043POPC   NC364235  18.205  34.835   5.419
 5043POPC   PO464236  18.688  34.283   5.283
 5043POPC   GL164237  18.527  34.585   5.687
 5043POPC   GL264238  18.522  34.886   5.842
 5043POPC   C1A64239  18.187  34.575   6.070
 5043POPC   D2A64240  18.154  34.895   6.438
 5043POPC   C3A64241  18.209  34.790   6.890
 5043POPC   C4A64242  18.123  34.623   7.289
 5043POPC   C1B64243  18.623  34.732   6.285
 5043POPC   C2B64244  18.699  34.741   6.751
 5043POPC   C3B64245  18.637  34.745   7.237
 5043POPC   C4B64246  18.508  34.923   7.687
 5044POPC   NC364247  21.553  35.094   5.478
 5044POPC   PO464248  21.311  34.454   5.508
 5044POPC   GL164249  21.128  34.577   5.893
 5044POPC   GL264250  21.152  34.907   5.769
 5044POPC   C1A64251  21.181  34.547   6.342
 5044POPC   D2A64252  20.970  34.429   6.741
 5044POPC   C3A64253  21.261  34.547   7.054
 5044POPC   C4A64254  21.381  34.621   7.475
 5044POPC   C1B64255  21.512  34.910   6.096
 5044POPC   C2B64256  21.538  35.016   6.540
 5044POPC   C3B64257  21.677  34.887   6.941
 5044POPC   C4B64258  21.685  35.072   7.324
 5045POPC   NC364259  16.363   9.266   5.466
 5045POPC   PO464260  15.737   9.041   5.344
 5045POPC   GL164261  15.942   9.068   5.742
 5045POPC   GL264262  16.060   9.381   5.907
 5045POPC   C1A64263  15.897   8.948   6.174
 5045POPC   D2A64264  15.937   8.820   6.609
 5045POPC   C3A64265  15.817   9.095   6.976
 5045POPC   C4A64266  15.793   9.172   7.428
 5045POPC   C1B64267  16.267   9.299   6.342
 5045POPC   C2B64268  16.361   9.088   6.741
 5045POPC   C3B64269  16.207   8.775   7.058
 5045POPC   C4B64270  16.270   9.085   7.322
 5046POPC   NC364271  16.695  35.719   5.423
 5046POPC   PO464272  17.020  35.098   5.475
 5046POPC   GL164273  16.769  35.298   5.793
 5046POPC   GL264274  16.888  35.652   5.895
 5046POPC   C1A64275  16.516  35.120   6.130
 5046POPC   D2A64276  16.412  35.194   6.575
 5046POPC   C3A64277  16.825  35.239   6.798
 5046POPC   C4A64278  16.759  35.133   7.216
 5046POPC   C1B64279  16.606  35.600   6.296
 5046POPC   C2B64280  16.554  35.658   6.774
 5046POPC   C3B64281  16.689  35.656   7.209
 5046POPC   C4B64282  16.653  35.832   7.660
 5047POPC   NC364283  26.322   6.317   5.366
 5047POPC   PO464284  25.998   5.652   5.411
 5047POPC   GL164285  26.048   5.917   5.776
 5047POPC   GL264286  25.741   6.084   5.884
 5047POPC   C1A64287  26.219   5.805   6.196
 5047POPC   D2A64288  26.444   5.729   6.597
 5047POPC   C3A64289  26.329   5.813   6.999
 5047POPC   C4A64290  26.049   5.756   7.343
 5047POPC   C1B64291  25.694   5.762   6.194
 5047POPC   C2B64292  25.895   5.790   6.597
 5047POPC   C3B64293  25.882   6.063   6.922
 5047POPC   C4B64294  25.768   6.237   7.296
 5048POPC   NC364295  24.956  29.304   5.635
 5048POPC   PO464296  25.537  29.055   5.354
 5048POPC   GL164297  25.303  28.937   5.760
 5048POPC   GL264298  25.009  28.692   5.786
 5048POPC   C1A64299  25.255  29.115   6.202
 5048POPC   D2A64300  25.522  29.263   6.555
 5048POPC   C3A64301  25.343  29.492   6.872
 5048POPC   C4A64302  25.195  29.379   7.231
 5048POPC   C1B64303  25.283  28.610   6.154
 5048POPC   C2B64304  25.254  28.746   6.565
 5048POPC   C3B64305  25.173  29.000   6.890
 5048POPC   C4B64306  25.408  28.881   7.236
 5049POPC   NC364307   3.893   2.384   5.461
 5049POPC   PO464308   3.606   3.018   5.433
 5049POPC   GL164309   3.596   2.703   5.745
 5049POPC   GL264310   3.321   2.858   5.946
 5049POPC   C1A64311   3.771   2.602   6.105
 5049POPC   D2A64312   3.575   2.729   6.483
 5049POPC   C3A64313   3.700   2.626   6.872
 5049POPC   C4A64314   3.718   2.982   7.165
 5049POPC   C1B64315   3.303   2.435   6.159
 5049POPC   C2B64316   3.205   2.240   6.554
 5049POPC   C3B64317   3.185   2.331   7.005
 5049POPC   C4B64318   3.439   2.570   7.303
 5050POPC   NC364319  30.531  11.738   5.487
 5050POPC   PO464320  30.885  11.136   5.464
 5050POPC   GL164321  30.655  11.323   5.819
 5050POPC   GL264322  30.362  11.549   5.904
 5050POPC   C1A64323  30.752  11.463   6.235
 5050POPC   D2A64324  30.971  11.302   6.570
 5050POPC   C3A64325  30.721  11.280   6.944
 5050POPC   C4A64326  30.791  11.623   7.177
 5050POPC   C1B64327  30.225  11.721   6.264
 5050POPC   C2B64328  30.391  11.645   6.665
 5050POPC   C3B64329  30.303  11.764   7.070
 5050POPC   C4B64330  30.293  11.692   7.505
 5051POPC   NC364331  20.046   4.215   5.632
 5051POPC   PO464332  20.694   4.394   5.417
 5051POPC   GL164333  20.662   4.405   5.844
 5051POPC   GL264334  20.347   4.566   5.857
 5051POPC   C1A64335  20.713   4.203   6.244
 5051POPC   D2A64336  20.816   4.086   6.663
 5051POPC   C3A64337  20.637   4.326   6.970
 5051POPC   C4A64338  20.797   4.479   7.315
 5051POPC   C1B64339  20.477   4.645   6.266
 5051POPC   C2B64340  20.413   4.662   6.669
 5051POPC   C3B64341  20.320   4.723   7.114
 5051POPC   C4B64342  20.262   4.421   7.442
 5052POPC   NC364343  27.262  26.047   5.267
 5052POPC   PO464344  26.598  26.129   5.423
 5052POPC   GL164345  26.754  25.971   5.759
 5052POPC   GL264346  26.858  25.643   5.676
 5052POPC   C1A64347  26.908  25.959   6.183
 5052POPC   D2A64348  26.890  26.168   6.583
 5052POPC   C3A64349  27.084  25.977   6.933
 5052POPC   C4A64350  27.057  26.260   7.279
 5052POPC   C1B64351  26.577  25.558   6.021
 5052POPC   C2B64352  26.645  25.573   6.458
 5052POPC   C3B64353  26.620  25.564   6.901
 5052POPC   C4B64354  26.779  25.754   7.283
 5053POPC   NC364355  14.178   3.705   5.287
 5053POPC   PO464356  14.335   3.134   5.186
 5053POPC   GL164357  14.485   3.368   5.610
 5053POPC   GL264358  14.707   3.141   5.761
 5053POPC   C1A64359  14.530   3.612   6.048
 5053POPC   D2A64360  14.552   3.898   6.442
 5053POPC   C3A64361  14.302   3.780   6.797
 5053POPC   C4A64362  14.320   3.694   7.245
 5053POPC   C1B64363  14.605   3.117   6.180
 5053POPC   C2B64364  14.585   3.385   6.547
 5053POPC   C3B64365  14.542   3.314   6.986
 5053POPC   C4B64366  14.184   3.226   7.282
 5054POPC   NC364367  30.013   0.842   5.521
 5054POPC   PO464368  29.744   0.201   5.354
 5054POPC   GL164369  29.939   0.379   5.740
 5054POPC   GL264370  30.300   0.345   5.788
 5054POPC   C1A64371  29.834   0.638   6.112
 5054POPC   D2A64372  29.819   0.503   6.532
 5054POPC   C3A64373  29.895   0.745   6.883
 5054POPC   C4A64374  29.947   0.578   7.265
 5054POPC   C1B64375  30.164   0.264   6.207
 5054POPC   C2B64376  30.116   0.098   6.601
 5054POPC   C3B64377  30.262   0.221   6.965
 5054POPC   C4B64378  30.407   0.263   7.371
 5055POPC   NC364379  12.605  13.854   5.403
 5055POPC   PO464380  13.024  13.365   5.634
 5055POPC   GL164381  12.753  13.395   5.942
 5055POPC   GL264382  12.675  13.750   5.906
 5055POPC   C1A64383  12.798  13.476   6.380
 5055POPC   D2A64384  13.093  13.667   6.676
 5055POPC   C3A64385  12.863  13.604   7.045
 5055POPC   C4A64386  12.619  13.237   7.143
 5055POPC   C1B64387  12.458  13.992   6.221
 5055POPC   C2B64388  12.562  13.874   6.641
 5055POPC   C3B64389  12.524  14.038   7.046
 5055POPC   C4B64390  12.795  14.156   7.406
 5056POPC   NC364391  13.351  23.308   5.287
 5056POPC   PO464392  12.833  22.873   5.292
 5056POPC   GL164393  12.838  22.816   5.773
 5056POPC   GL264394  12.747  22.488   5.956
 5056POPC   C1A64395  12.801  22.959   6.210
 5056POPC   D2A64396  13.013  23.060   6.599
 5056POPC   C3A64397  12.893  22.772   6.939
 5056POPC   C4A64398  12.697  22.832   7.350
 5056POPC   C1B64399  13.155  22.572   6.130
 5056POPC   C2B64400  13.298  22.624   6.535
 5056POPC   C3B64401  13.380  22.488   6.926
 5056POPC   C4B64402  13.226  22.651   7.306
 5057POPC   NC364403  43.261  42.820   5.367
 5057POPC   PO464404  42.839  43.326   5.694
 5057POPC   GL164405  42.922  42.940   5.816
 5057POPC   GL264406  43.247  43.024   5.812
 5057POPC   C1A64407  43.059  42.804   6.231
 5057POPC   D2A64408  43.147  42.655   6.648
 5057POPC   C3A64409  43.050  42.907   7.040
 5057POPC   C4A64410  42.946  43.349   7.166
 5057POPC   C1B64411  43.352  43.235   6.175
 5057POPC   C2B64412  43.217  43.186   6.589
 5057POPC   C3B64413  43.406  43.328   6.949
 5057POPC   C4B64414  43.566  43.035   7.192
 5058POPC   NC364415  26.941  12.554   5.336
 5058POPC   PO464416  26.849  11.834   5.327
 5058POPC   GL164417  26.772  12.033   5.736
 5058POPC   GL264418  26.653  12.383   5.737
 5058POPC   C1A64419  26.642  12.123   6.185
 5058POPC   D2A64420  26.925  11.990   6.480
 5058POPC   C3A64421  26.829  12.226   6.839
 5058POPC   C4A64422  26.697  12.087   7.228
 5058POPC   C1B64423  27.040  12.389   6.013
 5058POPC   C2B64424  27.101  12.472   6.456
 5058POPC   C3B64425  27.311  12.443   6.831
 5058POPC   C4B64426  27.140  12.333   7.234
 5059POPC   NC364427  31.675   0.077   5.204
 5059POPC   PO464428  31.904   0.524   5.599
 5059POPC   GL164429  31.534   0.369   5.796
 5059POPC   GL264430  31.294   0.642   5.833
 5059POPC   C1A64431  31.497   0.368   6.261
 5059POPC   D2A64432  31.875   0.318   6.556
 5059POPC   C3A64433  31.796   0.294   6.999
 5059POPC   C4A64434  31.685   0.700   7.178
 5059POPC   C1B64435  31.091   0.793   6.212
 5059POPC   C2B64436  31.099   0.581   6.595
 5059POPC   C3B64437  31.256   0.469   7.016
 5059POPC   C4B64438  31.427   0.223   7.364
 5060POPC   NC364439  20.164  12.092   5.223
 5060POPC   PO464440  20.830  12.188   5.346
 5060POPC   GL164441  20.689  11.959   5.749
 5060POPC   GL264442  20.349  12.079   5.785
 5060POPC   C1A64443  20.534  11.849   6.202
 5060POPC   D2A64444  20.512  12.129   6.555
 5060POPC   C3A64445  20.586  12.084   6.996
 5060POPC   C4A64446  20.589  11.950   7.448
 5060POPC   C1B64447  20.669  12.345   6.080
 5060POPC   C2B64448  20.839  12.529   6.479
 5060POPC   C3B64449  20.717  12.575   6.895
 5060POPC   C4B64450  20.821  12.414   7.288
 5061POPC   NC364451  40.363  21.280   5.636
 5061POPC   PO464452  39.671  21.610   5.478
 5061POPC   GL164453  39.970  21.556   5.812
 5061POPC   GL264454  39.850  21.294   5.843
 5061POPC   C1A64455  40.146  21.390   6.243
 5061POPC   D2A64456  40.062  21.404   6.668
 5061POPC   C3A64457  40.178  21.325   7.028
 5061POPC   C4A64458  40.118  21.489   7.407
 5061POPC   C1B64459  39.685  21.154   6.143
 5061POPC   C2B64460  39.781  21.029   6.517
 5061POPC   C3B64461  39.688  21.171   6.937
 5061POPC   C4B64462  39.837  21.059   7.341
 5062POPC   NC364463  33.851  30.376   5.386
 5062POPC   PO464464  33.533  31.012   5.425
 5062POPC   GL164465  33.623  30.759   5.804
 5062POPC   GL264466  33.357  30.904   5.978
 5062POPC   C1A64467  33.951  30.679   6.158
 5062POPC   D2A64468  34.100  30.967   6.520
 5062POPC   C3A64469  33.911  31.014   6.918
 5062POPC   C4A64470  33.999  30.732   7.262
 5062POPC   C1B64471  33.500  30.717   6.364
 5062POPC   C2B64472  33.759  30.567   6.716
 5062POPC   C3B64473  33.628  30.421   7.130
 5062POPC   C4B64474  33.520  30.621   7.505
 5063POPC   NC364475  42.341  29.428   5.721
 5063POPC   PO464476  42.388  29.950   5.243
 5063POPC   GL164477  42.450  29.927   5.687
 5063POPC   GL264478  42.108  29.915   5.724
 5063POPC   C1A64479  42.396  29.990   6.170
 5063POPC   D2A64480  42.339  30.237   6.574
 5063POPC   C3A64481  42.449  29.984   6.941
 5063POPC   C4A64482  42.320  29.985   7.384
 5063POPC   C1B64483  41.913  29.761   6.115
 5063POPC   C2B64484  41.972  29.888   6.526
 5063POPC   C3B64485  41.941  29.947   6.967
 5063POPC   C4B64486  42.080  29.577   7.160
 5064POPC   NC364487  42.871   8.833   5.336
 5064POPC   PO464488  43.390   9.282   5.507
 5064POPC   GL164489  43.223   9.093   5.847
 5064POPC   GL264490  42.877   8.994   5.830
 5064POPC   C1A64491  43.161   9.189   6.255
 5064POPC   D2A64492  43.071   8.968   6.587
 5064POPC   C3A64493  43.222   9.084   6.966
 5064POPC   C4A64494  43.346   8.729   7.205
 5064POPC   C1B64495  42.922   8.691   6.147
 5064POPC   C2B64496  42.732   8.593   6.544
 5064POPC   C3B64497  42.811   8.712   6.969
 5064POPC   C4B64498  42.875   8.940   7.344
 5065POPC   NC364499  18.653  16.795   5.425
 5065POPC   PO464500  19.201  16.584   5.148
 5065POPC   GL164501  19.024  16.512   5.662
 5065POPC   GL264502  18.725  16.693   5.902
 5065POPC   C1A64503  19.101  16.478   6.150
 5065POPC   D2A64504  18.932  16.609   6.559
 5065POPC   C3A64505  19.178  16.792   6.883
 5065POPC   C4A64506  19.192  16.525   7.193
 5065POPC   C1B64507  18.832  16.998   6.237
 5065POPC   C2B64508  18.978  17.180   6.603
 5065POPC   C3B64509  18.880  17.207   7.014
 5065POPC   C4B64510  18.879  16.928   7.306
 5066POPC   NC364511   7.640   6.905   5.558
 5066POPC   PO464512   7.333   6.317   5.420
 5066POPC   GL164513   7.429   6.486   5.811
 5066POPC   GL264514   7.745   6.342   5.895
 5066POPC   C1A64515   7.282   6.612   6.219
 5066POPC   D2A64516   7.342   6.408   6.608
 5066POPC   C3A64517   7.229   6.618   6.972
 5066POPC   C4A64518   7.126   6.329   7.284
 5066POPC   C1B64519   7.766   6.524   6.300
 5066POPC   C2B64520   7.591   6.853   6.579
 5066POPC   C3B64521   7.725   6.757   6.940
 5066POPC   C4B64522   7.622   6.536   7.286
 5067POPC   NC364523  32.798  11.633   5.792
 5067POPC   PO464524  33.174  12.038   5.282
 5067POPC   GL164525  33.062  12.187   5.681
 5067POPC   GL264526  33.364  12.176   5.839
 5067POPC   C1A64527  32.943  12.257   6.125
 5067POPC   D2A64528  32.771  12.017   6.467
 5067POPC   C3A64529  32.806  12.128   6.897
 5067POPC   C4A64530  32.721  11.913   7.294
 5067POPC   C1B64531  33.384  11.971   6.243
 5067POPC   C2B64532  33.296  12.063   6.672
 5067POPC   C3B64533  33.208  11.884   7.064
 5067POPC   C4B64534  33.170  12.025   7.512
 5068POPC   NC364535  31.186  37.905   5.582
 5068POPC   PO464536  30.723  37.546   5.248
 5068POPC   GL164537  30.695  37.599   5.740
 5068POPC   GL264538  30.573  37.913   5.779
 5068POPC   C1A64539  30.651  37.491   6.226
 5068POPC   D2A64540  30.376  37.470   6.642
 5068POPC   C3A64541  30.646  37.438   7.037
 5068POPC   C4A64542  30.994  37.566   7.296
 5068POPC   C1B64543  30.818  37.961   6.167
 5068POPC   C2B64544  30.623  37.918   6.595
 5068POPC   C3B64545  30.778  37.950   7.025
 5068POPC   C4B64546  30.979  38.074   7.434
 5069POPC   NC364547  34.338  28.939   5.405
 5069POPC   PO464548  34.680  29.378   5.117
 5069POPC   GL164549  34.592  29.316   5.625
 5069POPC   GL264550  34.757  29.054   5.760
 5069POPC   C1A64551  34.443  29.216   6.109
 5069POPC   D2A64552  34.251  29.324   6.544
 5069POPC   C3A64553  34.461  29.291   6.960
 5069POPC   C4A64554  34.410  28.910   7.185
 5069POPC   C1B64555  34.925  29.396   6.057
 5069POPC   C2B64556  35.026  29.388   6.511
 5069POPC   C3B64557  34.959  29.082   6.854
 5069POPC   C4B64558  34.872  29.121   7.285
 5070POPC   NC364559  36.954  21.928   5.413
 5070POPC   PO464560  36.529  22.393   5.596
 5070POPC   GL164561  36.960  22.344   5.783
 5070POPC   GL264562  37.178  22.026   5.853
 5070POPC   C1A64563  36.946  22.358   6.219
 5070POPC   D2A64564  36.694  22.285   6.596
 5070POPC   C3A64565  36.646  22.391   7.020
 5070POPC   C4A64566  36.854  22.239   7.394
 5070POPC   C1B64567  37.106  21.831   6.232
 5070POPC   C2B64568  36.851  21.780   6.590
 5070POPC   C3B64569  36.869  21.931   6.969
 5070POPC   C4B64570  36.992  21.748   7.341
 5071POPC   NC364571  39.632   1.919   5.403
 5071POPC   PO464572  40.093   2.338   5.384
 5071POPC   GL164573  39.968   2.187   5.792
 5071POPC   GL264574  40.224   1.923   5.756
 5071POPC   C1A64575  39.844   2.036   6.247
 5071POPC   D2A64576  39.891   2.242   6.668
 5071POPC   C3A64577  39.980   2.073   7.100
 5071POPC   C4A64578  39.881   1.963   7.556
 5071POPC   C1B64579  40.347   2.042   6.173
 5071POPC   C2B64580  40.384   1.995   6.607
 5071POPC   C3B64581  40.494   2.014   7.019
 5071POPC   C4B64582  40.353   1.925   7.416
 5072POPC   NC364583  34.431  15.564   5.309
 5072POPC   PO464584  34.815  14.993   5.577
 5072POPC   GL164585  34.711  15.156   5.936
 5072POPC   GL264586  34.377  15.179   5.919
 5072POPC   C1A64587  34.785  15.184   6.349
 5072POPC   D2A64588  34.646  15.366   6.709
 5072POPC   C3A64589  34.891  15.201   7.032
 5072POPC   C4A64590  34.629  15.339   7.340
 5072POPC   C1B64591  34.420  14.837   6.268
 5072POPC   C2B64592  34.635  14.836   6.703
 5072POPC   C3B64593  34.552  14.832   7.140
 5072POPC   C4B64594  34.151  14.836   7.369
 5073POPC   NC364595   5.844  29.551   5.396
 5073POPC   PO464596   5.601  30.125   5.473
 5073POPC   GL164597   5.824  29.889   5.782
 5073POPC   GL264598   6.088  29.664   5.825
 5073POPC   C1A64599   5.743  29.667   6.198
 5073POPC   D2A64600   5.800  29.919   6.566
 5073POPC   C3A64601   5.763  29.797   6.984
 5073POPC   C4A64602   5.816  30.127   7.283
 5073POPC   C1B64603   6.142  30.002   6.162
 5073POPC   C2B64604   6.312  29.972   6.595
 5073POPC   C3B64605   6.265  29.954   7.045
 5073POPC   C4B64606   6.095  29.698   7.382
 5074POPC   NC364607   5.576  23.914   5.608
 5074POPC   PO464608   5.024  23.490   5.490
 5074POPC   GL164609   5.235  23.618   5.865
 5074POPC   GL264610   5.113  23.928   5.851
 5074POPC   C1A64611   5.282  23.730   6.310
 5074POPC   D2A64612   5.002  23.654   6.630
 5074POPC   C3A64613   5.259  23.729   6.957
 5074POPC   C4A64614   5.070  23.841   7.252
 5074POPC   C1B64615   4.845  23.955   6.211
 5074POPC   C2B64616   4.674  24.089   6.614
 5074POPC   C3B64617   4.781  24.191   7.047
 5074POPC   C4B64618   4.592  24.000   7.437
 5075POPC   NC364619  42.913  19.189   5.279
 5075POPC   PO464620  43.450  18.988   5.606
 5075POPC   GL164621  43.212  19.075   5.941
 5075POPC   GL264622  42.910  19.093   5.822
 5075POPC   C1A64623  43.059  19.314   6.284
 5075POPC   D2A64624  42.996  19.190   6.709
 5075POPC   C3A64625  43.173  19.273   7.120
 5075POPC   C4A64626  43.342  18.879   7.300
 5075POPC   C1B64627  42.701  18.932   6.229
 5075POPC   C2B64628  42.616  18.822   6.687
 5075POPC   C3B64629  42.893  18.812   7.072
 5075POPC   C4B64630  42.838  18.644   7.515
 5076POPC   NC364631  20.494  32.794   5.463
 5076POPC   PO464632  21.152  32.950   5.433
 5076POPC   GL164633  20.788  33.068   5.772
 5076POPC   GL264634  20.554  32.816   5.964
 5076POPC   C1A64635  20.642  33.243   6.202
 5076POPC   D2A64636  20.756  33.296   6.654
 5076POPC   C3A64637  20.693  33.244   7.128
 5076POPC   C4A64638  20.511  33.507   7.485
 5076POPC   C1B64639  20.634  32.763   6.409
 5076POPC   C2B64640  20.446  32.848   6.800
 5076POPC   C3B64641  20.146  32.868   7.123
 5076POPC   C4B64642  20.153  33.123   7.508
 5077POPC   NC364643  24.058   9.265   5.548
 5077POPC   PO464644  23.521   8.827   5.565
 5077POPC   GL164645  23.628   8.936   5.952
 5077POPC   GL264646  23.967   8.910   5.911
 5077POPC   C1A64647  23.695   8.680   6.330
 5077POPC   D2A64648  23.630   8.532   6.732
 5077POPC   C3A64649  23.623   8.856   7.053
 5077POPC   C4A64650  23.622   8.709   7.489
 5077POPC   C1B64651  23.958   9.126   6.322
 5077POPC   C2B64652  24.072   9.013   6.772
 5077POPC   C3B64653  24.028   9.091   7.235
 5077POPC   C4B64654  23.967   9.047   7.660
 5078POPC   NC364655  10.806  13.906   5.237
 5078POPC   PO464656  11.428  13.701   5.255
 5078POPC   GL164657  11.449  13.754   5.714
 5078POPC   GL264658  11.530  13.423   5.775
 5078POPC   C1A64659  11.447  13.884   6.180
 5078POPC   D2A64660  11.618  13.756   6.583
 5078POPC   C3A64661  11.443  13.925   6.935
 5078POPC   C4A64662  11.220  13.861   7.293
 5078POPC   C1B64663  11.280  13.412   6.163
 5078POPC   C2B64664  11.346  13.311   6.585
 5078POPC   C3B64665  11.259  13.444   6.982
 5078POPC   C4B64666  11.367  13.252   7.316
 5079POPC   NC364667  28.511  24.867   5.549
 5079POPC   PO464668  28.545  25.529   5.504
 5079POPC   GL164669  28.483  25.310   5.902
 5079POPC   GL264670  28.273  25.026   5.973
 5079POPC   C1A64671  28.500  25.232   6.354
 5079POPC   D2A64672  28.737  25.337   6.703
 5079POPC   C3A64673  28.520  25.319   7.067
 5079POPC   C4A64674  28.478  24.979   7.285
 5079POPC   C1B64675  28.040  25.402   6.174
 5079POPC   C2B64676  27.912  25.403   6.586
 5079POPC   C3B64677  28.001  25.161   6.956
 5079POPC   C4B64678  28.038  25.362   7.325
 5080POPC   NC364679   5.124  34.176   5.527
 5080POPC   PO464680   5.344  33.537   5.698
 5080POPC   GL164681   5.154  33.867   5.962
 5080POPC   GL264682   4.821  33.961   5.894
 5080POPC   C1A64683   4.945  33.860   6.398
 5080POPC   D2A64684   5.117  33.978   6.829
 5080POPC   C3A64685   5.230  33.656   7.141
 5080POPC   C4A64686   5.485  33.270   7.187
 5080POPC   C1B64687   4.593  34.222   6.178
 5080POPC   C2B64688   4.795  34.319   6.569
 5080POPC   C3B64689   4.700  34.211   6.981
 5080POPC   C4B64690   4.996  34.180   7.323
 5081POPC   NC364691  23.049  23.474   5.457
 5081POPC   PO464692  22.890  24.071   5.222
 5081POPC   GL164693  22.824  23.898   5.668
 5081POPC   GL264694  22.721  23.561   5.845
 5081POPC   C1A64695  23.035  23.936   6.087
 5081POPC   D2A64696  22.908  24.053   6.531
 5081POPC   C3A64697  23.124  24.032   6.897
 5081POPC   C4A64698  23.046  23.868   7.300
 5081POPC   C1B64699  23.091  23.437   6.141
 5081POPC   C2B64700  23.211  23.622   6.539
 5081POPC   C3B64701  23.272  23.512   6.967
 5081POPC   C4B64702  23.104  23.368   7.358
 5082POPC   NC364703  22.280  39.514   5.497
 5082POPC   PO464704  22.174  40.162   5.430
 5082POPC   GL164705  22.000  39.916   5.740
 5082POPC   GL264706  21.941  40.176   5.966
 5082POPC   C1A64707  21.910  39.715   6.140
 5082POPC   D2A64708  21.741  39.795   6.549
 5082POPC   C3A64709  22.030  39.845   6.862
 5082POPC   C4A64710  21.947  39.888   7.265
 5082POPC   C1B64711  22.328  40.014   6.132
 5082POPC   C2B64712  22.460  39.862   6.524
 5082POPC   C3B64713  22.478  40.081   6.904
 5082POPC   C4B64714  22.443  39.974   7.317
 5083POPC   NC364715  21.796  41.248   5.465
 5083POPC   PO464716  22.370  41.590   5.457
 5083POPC   GL164717  22.238  41.680   5.857
 5083POPC   GL264718  21.868  41.817   5.859
 5083POPC   C1A64719  22.372  41.428   6.203
 5083POPC   D2A64720  22.197  41.450   6.571
 5083POPC   C3A64721  22.419  41.433   6.918
 5083POPC   C4A64722  22.258  41.779   7.156
 5083POPC   C1B64723  21.832  41.498   6.185
 5083POPC   C2B64724  21.717  41.302   6.600
 5083POPC   C3B64725  21.907  41.383   7.013
 5083POPC   C4B64726  21.770  41.353   7.445
 5084POPC   NC364727  29.451   6.816   5.423
 5084POPC   PO464728  29.979   6.476   5.167
 5084POPC   GL164729  29.871   6.406   5.648
 5084POPC   GL264730  29.778   6.745   5.804
 5084POPC   C1A64731  29.985   6.410   6.140
 5084POPC   D2A64732  30.254   6.629   6.488
 5084POPC   C3A64733  30.143   6.574   6.928
 5084POPC   C4A64734  29.822   6.440   7.184
 5084POPC   C1B64735  29.612   6.783   6.227
 5084POPC   C2B64736  29.692   6.642   6.640
 5084POPC   C3B64737  29.683   6.904   6.997
 5084POPC   C4B64738  29.624   7.185   7.329
 5085POPC   NC364739  41.211  32.440   5.455
 5085POPC   PO464740  40.593  32.334   5.522
 5085POPC   GL164741  40.804  32.254   5.863
 5085POPC   GL264742  41.115  32.100   5.865
 5085POPC   C1A64743  40.791  32.160   6.267
 5085POPC   D2A64744  40.609  31.911   6.499
 5085POPC   C3A64745  40.696  32.071   6.868
 5085POPC   C4A64746  40.664  32.113   7.294
 5085POPC   C1B64747  41.207  32.438   6.189
 5085POPC   C2B64748  41.049  32.487   6.632
 5085POPC   C3B64749  41.190  32.491   7.087
 5085POPC   C4B64750  41.142  32.213   7.455
 5086POPC   NC364751  36.816  40.415   5.387
 5086POPC   PO464752  36.960  41.114   5.221
 5086POPC   GL164753  37.047  40.855   5.633
 5086POPC   GL264754  37.306  40.626   5.535
 5086POPC   C1A64755  36.999  40.754   6.114
 5086POPC   D2A64756  36.762  40.577   6.511
 5086POPC   C3A64757  36.754  40.778   6.928
 5086POPC   C4A64758  36.818  40.880   7.349
 5086POPC   C1B64759  37.328  40.394   5.942
 5086POPC   C2B64760  37.259  40.397   6.428
 5086POPC   C3B64761  37.161  40.443   6.866
 5086POPC   C4B64762  37.260  40.591   7.283
 5087POPC   NC364763  41.095  16.006   5.428
 5087POPC   PO464764  40.493  15.675   5.458
 5087POPC   GL164765  40.628  15.942   5.789
 5087POPC   GL264766  40.954  15.816   5.868
 5087POPC   C1A64767  40.640  15.980   6.243
 5087POPC   D2A64768  40.507  16.156   6.620
 5087POPC   C3A64769  40.661  16.020   7.014
 5087POPC   C4A64770  40.543  15.990   7.439
 5087POPC   C1B64771  41.155  16.021   6.187
 5087POPC   C2B64772  41.038  15.990   6.606
 5087POPC   C3B64773  41.213  16.017   6.994
 5087POPC   C4B64774  41.047  15.999   7.397
 5088POPC   NC364775  37.671  28.876   5.467
 5088POPC   PO464776  37.333  29.492   5.560
 5088POPC   GL164777  37.513  29.177   5.862
 5088POPC   GL264778  37.869  29.245   5.893
 5088POPC   C1A64779  37.692  28.996   6.281
 5088POPC   D2A64780  37.855  29.239   6.627
 5088POPC   C3A64781  37.828  29.031   7.012
 5088POPC   C4A64782  37.650  29.103   7.418
 5088POPC   C1B64783  38.053  29.521   6.227
 5088POPC   C2B64784  38.065  29.714   6.660
 5088POPC   C3B64785  38.046  29.528   7.067
 5088POPC   C4B64786  38.153  29.440   7.475
 5089POPC   NC364787  18.938  41.929   5.431
 5089POPC   PO464788  19.280  41.334   5.414
 5089POPC   GL164789  19.152  41.588   5.788
 5089POPC   GL264790  18.794  41.524   5.756
 5089POPC   C1A64791  19.286  41.790   6.233
 5089POPC   D2A64792  19.092  41.725   6.652
 5089POPC   C3A64793  19.348  41.755   7.039
 5089POPC   C4A64794  19.271  41.501   7.417
 5089POPC   C1B64795  18.797  41.782   6.120
 5089POPC   C2B64796  18.538  41.847   6.488
 5089POPC   C3B64797  18.592  41.647   6.884
 5089POPC   C4B64798  18.857  41.760   7.223
 5090POPC   NC364799  30.668  41.674   5.425
 5090POPC   PO464800  30.773  40.974   5.441
 5090POPC   GL164801  30.855  41.327   5.806
 5090POPC   GL264802  30.862  41.713   5.876
 5090POPC   C1A64803  30.937  41.418   6.275
 5090POPC   D2A64804  30.845  41.442   6.716
 5090POPC   C3A64805  30.940  41.317   7.140
 5090POPC   C4A64806  30.630  41.451   7.447
 5090POPC   C1B64807  30.819  42.009   6.207
 5090POPC   C2B64808  30.781  41.943   6.641
 5090POPC   C3B64809  30.782  41.819   7.070
 5090POPC   C4B64810  30.610  41.955   7.455
 5091POPC   NC364811  40.253  15.290   5.292
 5091POPC   PO464812  40.759  14.784   5.464
 5091POPC   GL164813  40.919  14.927   5.870
 5091POPC   GL264814  41.000  15.301   5.893
 5091POPC   C1A64815  40.766  15.048   6.270
 5091POPC   D2A64816  40.929  15.145   6.678
 5091POPC   C3A64817  40.559  15.182   6.946
 5091POPC   C4A64818  40.608  15.083   7.365
 5091POPC   C1B64819  40.964  15.541   6.325
 5091POPC   C2B64820  40.719  15.613   6.721
 5091POPC   C3B64821  40.839  15.562   7.199
 5091POPC   C4B64822  40.706  15.568   7.678
 5092POPC   NC364823  27.947  36.771   5.662
 5092POPC   PO464824  27.316  36.849   5.279
 5092POPC   GL164825  27.429  36.860   5.737
 5092POPC   GL264826  27.472  37.207   5.833
 5092POPC   C1A64827  27.433  36.761   6.198
 5092POPC   D2A64828  27.347  37.018   6.561
 5092POPC   C3A64829  27.188  36.816   6.936
 5092POPC   C4A64830  27.426  36.618   7.265
 5092POPC   C1B64831  27.782  37.143   6.193
 5092POPC   C2B64832  27.763  37.312   6.621
 5092POPC   C3B64833  27.666  37.056   6.998
 5092POPC   C4B64834  27.824  36.884   7.416
 5093POPC   NC364835  14.901  10.064   5.716
 5093POPC   PO464836  15.200   9.867   5.174
 5093POPC   GL164837  15.146   9.604   5.658
 5093POPC   GL264838  14.849   9.557   5.786
 5093POPC   C1A64839  15.185   9.667   6.160
 5093POPC   D2A64840  14.984   9.960   6.488
 5093POPC   C3A64841  15.026   9.899   6.963
 5093POPC   C4A64842  15.328   9.909   7.330
 5093POPC   C1B64843  14.839   9.287   6.137
 5093POPC   C2B64844  14.854   9.421   6.567
 5093POPC   C3B64845  15.036   9.394   6.997
 5093POPC   C4B64846  14.973   9.569   7.418
 5094POPC   NC364847  11.018  30.455   5.347
 5094POPC   PO464848  10.967  31.135   5.294
 5094POPC   GL164849  10.958  30.861   5.717
 5094POPC   GL264850  11.143  30.528   5.828
 5094POPC   C1A64851  11.060  30.879   6.193
 5094POPC   D2A64852  10.942  30.899   6.630
 5094POPC   C3A64853  11.152  30.805   7.040
 5094POPC   C4A64854  11.101  31.094   7.412
 5094POPC   C1B64855  11.285  30.375   6.253
 5094POPC   C2B64856  11.323  30.163   6.655
 5094POPC   C3B64857  11.179  30.264   7.087
 5094POPC   C4B64858  11.031  30.401   7.507
 5095POPC   NC364859   3.564  44.980   5.054
 5095POPC   PO464860   3.560  44.341   5.395
 5095POPC   GL164861   3.444  44.715   5.673
 5095POPC   GL264862   3.771  44.722   5.797
 5095POPC   C1A64863   3.363  44.903   6.131
 5095POPC   D2A64864   3.494   0.194   6.518
 5095POPC   C3A64865   3.546   0.015   6.959
 5095POPC   C4A64866   3.454  44.654   7.244
 5095POPC   C1B64867   3.884  44.713   6.239
 5095POPC   C2B64868   3.782  44.649   6.677
 5095POPC   C3B64869   3.930  44.532   7.086
 5095POPC   C4B64870   3.878  44.461   7.549
 5096POPC   NC364871   1.497   2.168   5.293
 5096POPC   PO464872   0.891   2.028   5.502
 5096POPC   GL164873   1.047   1.908   5.899
 5096POPC   GL264874   1.373   1.889   5.725
 5096POPC   C1A64875   1.040   2.103   6.322
 5096POPC   D2A64876   1.127   2.356   6.652
 5096POPC   C3A64877   1.294   2.224   7.014
 5096POPC   C4A64878   1.000   2.133   7.302
 5096POPC   C1B64879   1.517   1.749   6.104
 5096POPC   C2B64880   1.240   1.658   6.419
 5096POPC   C3B64881   1.229   1.755   6.830
 5096POPC   C4B64882   1.464   1.787   7.194
 5097POPC   NC364883  28.906   1.396   5.425
 5097POPC   PO464884  29.572   1.043   5.419
 5097POPC   GL164885  29.255   1.119   5.689
 5097POPC   GL264886  29.390   1.434   5.763
 5097POPC   C1A64887  29.134   1.184   6.130
 5097POPC   D2A64888  29.354   1.236   6.529
 5097POPC   C3A64889  29.181   1.001   6.913
 5097POPC   C4A64890  28.756   0.939   7.141
 5097POPC   C1B64891  29.415   1.660   6.155
 5097POPC   C2B64892  29.511   1.733   6.609
 5097POPC   C3B64893  29.311   1.530   6.973
 5097POPC   C4B64894  29.371   1.508   7.409
 5098POPC   NC364895   9.681  28.167   5.357
 5098POPC   PO464896  10.267  28.514   5.396
 5098POPC   GL164897   9.858  28.542   5.700
 5098POPC   GL264898   9.729  28.199   5.846
 5098POPC   C1A64899   9.732  28.609   6.150
 5098POPC   D2A64900   9.569  28.595   6.576
 5098POPC   C3A64901   9.820  28.508   6.935
 5098POPC   C4A64902  10.028  28.843   7.181
 5098POPC   C1B64903   9.607  27.941   6.177
 5098POPC   C2B64904   9.719  28.098   6.575
 5098POPC   C3B64905   9.624  28.010   6.983
 5098POPC   C4B64906   9.356  27.906   7.275
 5099POPC   NC364907  10.231  42.118   5.383
 5099POPC   PO464908  10.595  42.605   5.107
 5099POPC   GL164909  10.584  42.602   5.612
 5099POPC   GL264910  10.494  42.291   5.771
 5099POPC   C1A64911  10.693  42.631   6.084
 5099POPC   D2A64912  10.606  42.758   6.538
 5099POPC   C3A64913  10.628  42.487   6.907
 5099POPC   C4A64914  10.342  42.456   7.291
 5099POPC   C1B64915  10.437  42.181   6.192
 5099POPC   C2B64916  10.576  42.052   6.601
 5099POPC   C3B64917  10.471  42.020   7.024
 5099POPC   C4B64918  10.623  42.044   7.453
 5100POPC   NC364919  39.496  31.077   5.570
 5100POPC   PO464920  39.264  30.563   5.218
 5100POPC   GL164921  39.232  30.635   5.635
 5100POPC   GL264922  39.536  30.559   5.801
 5100POPC   C1A64923  39.117  30.671   6.084
 5100POPC   D2A64924  39.101  30.852   6.511
 5100POPC   C3A64925  39.015  30.632   6.902
 5100POPC   C4A64926  39.168  30.752   7.297
 5100POPC   C1B64927  39.560  30.415   6.210
 5100POPC   C2B64928  39.386  30.386   6.626
 5100POPC   C3B64929  39.491  30.402   7.067
 5100POPC   C4B64930  39.525  30.490   7.554
 5101POPC   NC364931   1.988  22.350   5.704
 5101POPC   PO464932   1.508  21.907   5.411
 5101POPC   GL164933   1.655  21.996   5.819
 5101POPC   GL264934   1.851  21.740   5.930
 5101POPC   C1A64935   1.733  22.115   6.282
 5101POPC   D2A64936   1.698  21.886   6.683
 5101POPC   C3A64937   1.818  22.149   7.050
 5101POPC   C4A64938   2.269  22.318   7.111
 5101POPC   C1B64939   2.148  21.827   6.220
 5101POPC   C2B64940   2.213  22.070   6.568
 5101POPC   C3B64941   2.186  21.827   6.913
 5101POPC   C4B64942   2.135  21.828   7.315
 5102POPC   NC364943  41.074  21.300   5.254
 5102POPC   PO464944  40.585  21.702   5.539
 5102POPC   GL164945  40.778  21.474   5.873
 5102POPC   GL264946  41.022  21.241   5.823
 5102POPC   C1A64947  40.639  21.165   6.201
 5102POPC   D2A64948  40.575  21.398   6.556
 5102POPC   C3A64949  40.674  21.243   6.924
 5102POPC   C4A64950  40.596  21.548   7.212
 5102POPC   C1B64951  41.082  21.389   6.293
 5102POPC   C2B64952  41.060  21.583   6.716
 5102POPC   C3B64953  41.131  21.350   7.118
 5102POPC   C4B64954  40.980  20.959   7.321
 5103POPC   NC364955  15.272  10.404   5.111
 5103POPC   PO464956  15.364  10.061   5.657
 5103POPC   GL164957  15.207  10.370   5.973
 5103POPC   GL264958  15.027  10.691   5.888
 5103POPC   C1A64959  15.080  10.491   6.394
 5103POPC   D2A64960  14.925  10.373   6.815
 5103POPC   C3A64961  15.307  10.362   7.073
 5103POPC   C4A64962  15.520  10.716   7.285
 5103POPC   C1B64963  14.958  11.006   6.240
 5103POPC   C2B64964  14.994  10.960   6.688
 5103POPC   C3B64965  15.033  10.785   7.094
 5103POPC   C4B64966  14.981  10.690   7.525
 5104POPC   NC364967  16.152  23.227   5.457
 5104POPC   PO464968  15.668  22.732   5.513
 5104POPC   GL164969  15.894  22.814   5.896
 5104POPC   GL264970  15.891  23.161   5.939
 5104POPC   C1A64971  15.927  22.873   6.371
 5104POPC   D2A64972  15.815  23.191   6.674
 5104POPC   C3A64973  15.777  22.960   7.087
 5104POPC   C4A64974  15.859  22.519   7.174
 5104POPC   C1B64975  16.167  23.300   6.238
 5104POPC   C2B64976  16.386  23.052   6.517
 5104POPC   C3B64977  16.263  23.112   6.932
 5104POPC   C4B64978  15.993  23.444   7.088
 5105POPC   NC364979  36.618  41.863   5.346
 5105POPC   PO464980  36.081  41.507   5.490
 5105POPC   GL164981  35.922  41.634   5.891
 5105POPC   GL264982  35.706  41.335   5.816
 5105POPC   C1A64983  36.030  41.704   6.340
 5105POPC   D2A64984  36.315  41.714   6.701
 5105POPC   C3A64985  36.181  41.728   7.157
 5105POPC   C4A64986  36.262  41.597   7.596
 5105POPC   C1B64987  35.951  41.206   6.165
 5105POPC   C2B64988  35.842  41.282   6.577
 5105POPC   C3B64989  36.094  41.266   6.928
 5105POPC   C4B64990  35.937  41.291   7.328
 5106POPC   NC364991  12.967  25.675   5.338
 5106POPC   PO464992  12.988  26.287   5.636
 5106POPC   GL164993  12.651  26.258   5.952
 5106POPC   GL264994  12.653  25.919   5.820
 5106POPC   C1A64995  12.558  26.230   6.404
 5106POPC   D2A64996  12.881  26.131   6.743
 5106POPC   C3A64997  12.767  26.058   7.186
 5106POPC   C4A64998  13.040  26.101   7.555
 5106POPC   C1B64999  12.860  25.849   6.203
 5106POPC   C2B65000  12.896  25.616   6.553
 5106POPC   C3B65001  12.966  25.648   6.964
 5106POPC   C4B65002  12.845  25.575   7.354
 5107POPC   NC365003  26.997  38.261   5.471
 5107POPC   PO465004  26.587  38.690   5.410
 5107POPC   GL165005  26.611  38.429   5.812
 5107POPC   GL265006  26.750  38.071   5.897
 5107POPC   C1A65007  26.664  38.458   6.260
 5107POPC   D2A65008  26.805  38.362   6.662
 5107POPC   C3A65009  26.659  38.519   7.056
 5107POPC   C4A65010  26.802  38.385   7.422
 5107POPC   C1B65011  27.132  38.287   6.132
 5107POPC   C2B65012  27.280  38.510   6.526
 5107POPC   C3B65013  27.196  38.411   6.981
 5107POPC   C4B65014  27.304  38.473   7.402
 5108POPC   NC365015  42.544  42.414   5.122
 5108POPC   PO465016  42.149  42.032   5.535
 5108POPC   GL165017  42.168  42.306   5.865
 5108POPC   GL265018  42.523  42.428   5.762
 5108POPC   C1A65019  42.014  42.281   6.306
 5108POPC   D2A65020  42.235  42.077   6.672
 5108POPC   C3A65021  42.219  42.286   7.091
 5108POPC   C4A65022  42.089  42.470   7.513
 5108POPC   C1B65023  42.466  42.489   6.218
 5108POPC   C2B65024  42.301  42.606   6.638
 5108POPC   C3B65025  42.566  42.662   6.987
 5108POPC   C4B65026  42.612  42.495   7.398
 5109POPC   NC365027  16.940  36.683   5.315
 5109POPC   PO465028  16.513  37.140   5.444
 5109POPC   GL165029  16.717  36.996   5.786
 5109POPC   GL265030  17.069  37.010   5.697
 5109POPC   C1A65031  16.630  37.130   6.207
 5109POPC   D2A65032  16.374  37.068   6.553
 5109POPC   C3A65033  16.543  37.279   6.893
 5109POPC   C4A65034  16.754  37.204   7.281
 5109POPC   C1B65035  17.081  36.887   6.137
 5109POPC   C2B65036  17.059  37.125   6.533
 5109POPC   C3B65037  17.018  36.949   6.929
 5109POPC   C4B65038  17.266  36.859   7.279
 5110POPC   NC365039  11.621  20.989   5.503
 5110POPC   PO465040  11.931  21.569   5.476
 5110POPC   GL165041  11.966  21.275   5.840
 5110POPC   GL265042  12.258  21.424   5.979
 5110POPC   C1A65043  11.958  21.207   6.328
 5110POPC   D2A65044  12.013  21.121   6.781
 5110POPC   C3A65045  11.796  21.233   7.160
 5110POPC   C4A65046  11.692  21.540   7.501
 5110POPC   C1B65047  12.135  21.693   6.285
 5110POPC   C2B65048  11.962  21.629   6.685
 5110POPC   C3B65049  12.058  21.673   7.113
 5110POPC   C4B65050  12.419  21.682   7.346
 5111POPC   NC365051   0.510  27.018   5.436
 5111POPC   PO465052  44.991  26.485   5.462
 5111POPC   GL165053   0.256  26.625   5.802
 5111POPC   GL265054   0.594  26.630   5.818
 5111POPC   C1A65055   0.270  26.861   6.215
 5111POPC   D2A65056   0.069  26.768   6.613
 5111POPC   C3A65057   0.246  26.817   7.035
 5111POPC   C4A65058   0.184  26.922   7.478
 5111POPC   C1B65059   0.547  26.427   6.211
 5111POPC   C2B65060   0.530  26.581   6.628
 5111POPC   C3B65061   0.665  26.508   7.032
 5111POPC   C4B65062   0.582  26.619   7.459
 5112POPC   NC365063  13.032  39.891   4.999
 5112POPC   PO465064  12.943  40.232   5.598
 5112POPC   GL165065  12.930  40.035   5.953
 5112POPC   GL265066  12.581  39.906   5.965
 5112POPC   C1A65067  13.114  40.101   6.348
 5112POPC   D2A65068  12.979  40.167   6.777
 5112POPC   C3A65069  13.123  39.908   7.185
 5112POPC   C4A65070  13.095  39.879   7.684
 5112POPC   C1B65071  12.587  40.218   6.313
 5112POPC   C2B65072  12.405  40.223   6.738
 5112POPC   C3B65073  12.603  40.019   7.085
 5112POPC   C4B65074  12.796  40.214   7.446
 5113POPC   NC365075  29.488   6.090   5.427
 5113POPC   PO465076  30.165   5.972   5.456
 5113POPC   GL165077  29.915   5.820   5.817
 5113POPC   GL265078  30.081   5.475   5.826
 5113POPC   C1A65079  29.803   5.942   6.268
 5113POPC   D2A65080  29.935   6.176   6.638
 5113POPC   C3A65081  29.872   5.945   7.005
 5113POPC   C4A65082  29.601   6.010   7.349
 5113POPC   C1B65083  30.254   5.686   6.205
 5113POPC   C2B65084  30.240   5.653   6.644
 5113POPC   C3B65085  30.345   5.715   7.058
 5113POPC   C4B65086  30.099   5.740   7.439
 5114POPC   NC365087   0.494  21.996   5.057
 5114POPC   PO465088   0.506  22.546   5.481
 5114POPC   GL165089   0.416  22.187   5.781
 5114POPC   GL265090   0.044  22.091   5.775
 5114POPC   C1A65091   0.551  21.956   6.175
 5114POPC   D2A65092   0.682  21.750   6.534
 5114POPC   C3A65093   0.667  22.044   6.836
 5114POPC   C4A65094   0.621  21.973   7.250
 5114POPC   C1B65095   0.102  22.196   6.210
 5114POPC   C2B65096   0.209  21.961   6.586
 5114POPC   C3B65097   0.150  22.088   7.016
 5114POPC   C4B65098   0.280  22.322   7.403
 5115POPC   NC365099  10.347  24.693   5.571
 5115POPC   PO465100  10.918  25.054   5.384
 5115POPC   GL165101  10.828  24.713   5.714
 5115POPC   GL265102  10.673  24.323   5.714
 5115POPC   C1A65103  10.787  24.515   6.158
 5115POPC   D2A65104  10.941  24.476   6.568
 5115POPC   C3A65105  10.597  24.466   6.819
 5115POPC   C4A65106  10.492  24.487   7.196
 5115POPC   C1B65107  10.327  24.274   6.107
 5115POPC   C2B65108  10.239  24.228   6.564
 5115POPC   C3B65109  10.096  24.239   6.976
 5115POPC   C4B65110  10.153  24.159   7.386
 5116POPC   NC365111  25.259  32.306   5.655
 5116POPC   PO465112  25.760  32.033   5.254
 5116POPC   GL165113  25.620  31.933   5.779
 5116POPC   GL265114  25.241  31.863   5.897
 5116POPC   C1A65115  25.525  31.872   6.305
 5116POPC   D2A65116  25.551  31.905   6.786
 5116POPC   C3A65117  25.460  32.183   7.158
 5116POPC   C4A65118  25.676  32.144   7.595
 5116POPC   C1B65119  25.132  32.203   6.270
 5116POPC   C2B65120  25.155  32.538   6.604
 5116POPC   C3B65121  25.036  32.550   7.051
 5116POPC   C4B65122  24.897  32.194   7.259
 5117POPC   NC365123   9.769  22.705   5.471
 5117POPC   PO465124  10.000  23.379   5.449
 5117POPC   GL165125  10.021  23.034   5.759
 5117POPC   GL265126   9.642  23.079   5.810
 5117POPC   C1A65127   9.878  22.905   6.202
 5117POPC   D2A65128   9.957  22.882   6.639
 5117POPC   C3A65129   9.917  23.205   6.944
 5117POPC   C4A65130   9.959  22.891   7.218
 5117POPC   C1B65131   9.462  23.236   6.238
 5117POPC   C2B65132   9.460  23.110   6.696
 5117POPC   C3B65133   9.446  23.006   7.152
 5117POPC   C4B65134   9.249  22.773   7.496
 5118POPC   NC365135  11.281  20.030   5.388
 5118POPC   PO465136  11.244  19.349   5.389
 5118POPC   GL165137  11.264  19.633   5.730
 5118POPC   GL265138  11.592  19.730   5.691
 5118POPC   C1A65139  11.169  19.880   6.102
 5118POPC   D2A65140  10.951  19.825   6.493
 5118POPC   C3A65141  11.134  19.866   6.931
 5118POPC   C4A65142  10.939  19.860   7.331
 5118POPC   C1B65143  11.649  19.633   6.139
 5118POPC   C2B65144  11.852  19.833   6.509
 5118POPC   C3B65145  11.679  19.836   6.920
 5118POPC   C4B65146  11.566  19.991   7.332
 5119POPC   NC365147   6.849   1.198   5.434
 5119POPC   PO465148   6.265   0.799   5.416
 5119POPC   GL165149   6.316   1.055   5.809
 5119POPC   GL265150   6.583   1.330   5.863
 5119POPC   C1A65151   6.257   1.211   6.239
 5119POPC   D2A65152   6.592   1.279   6.537
 5119POPC   C3A65153   6.480   1.120   6.938
 5119POPC   C4A65154   6.265   1.297   7.299
 5119POPC   C1B65155   6.975   1.225   6.120
 5119POPC   C2B65156   7.115   1.204   6.555
 5119POPC   C3B65157   6.951   1.424   6.927
 5119POPC   C4B65158   6.775   1.269   7.306
 5120POPC   NC365159  10.841   4.561   5.632
 5120POPC   PO465160  10.467   4.064   5.377
 5120POPC   GL165161  10.515   4.156   5.812
 5120POPC   GL265162  10.233   4.304   5.952
 5120POPC   C1A65163  10.677   4.255   6.235
 5120POPC   D2A65164  10.624   4.061   6.641
 5120POPC   C3A65165  10.750   4.316   6.974
 5120POPC   C4A65166  10.579   4.251   7.353
 5120POPC   C1B65167  10.308   3.907   6.251
 5120POPC   C2B65168  10.334   3.568   6.550
 5120POPC   C3B65169  10.264   3.649   6.980
 5120POPC   C4B65170  10.324   3.812   7.398
 5121POPC   NC365171  14.532  23.263   5.390
 5121POPC   PO465172  14.288  23.913   5.424
 5121POPC   GL165173  14.470  23.668   5.724
 5121POPC   GL265174  14.234  23.411   5.804
 5121POPC   C1A65175  14.559  23.734   6.150
 5121POPC   D2A65176  14.368  23.659   6.548
 5121POPC   C3A65177  14.635  23.725   6.864
 5121POPC   C4A65178  14.639  23.902   7.228
 5121POPC   C1B65179  14.031  23.612   6.176
 5121POPC   C2B65180  13.842  23.571   6.600
 5121POPC   C3B65181  14.095  23.546   6.996
 5121POPC   C4B65182  14.113  23.785   7.395
 5122POPC   NC365183  15.924  13.557   5.351
 5122POPC   PO465184  15.819  14.100   5.535
 5122POPC   GL165185  15.860  13.725   5.849
 5122POPC   GL265186  15.561  13.711   6.042
 5122POPC   C1A65187  16.064  13.380   6.164
 5122POPC   D2A65188  16.261  13.410   6.630
 5122POPC   C3A65189  16.113  13.366   7.114
 5122POPC   C4A65190  15.725  13.362   7.457
 5122POPC   C1B65191  15.861  13.777   6.395
 5122POPC   C2B65192  15.948  13.792   6.818
 5122POPC   C3B65193  15.848  13.800   7.232
 5122POPC   C4B65194  15.543  14.005   7.499
 5123POPC   NC365195  19.747  41.421   5.386
 5123POPC   PO465196  20.042  42.047   5.300
 5123POPC   GL165197  20.019  41.797   5.712
 5123POPC   GL265198  19.649  41.707   5.821
 5123POPC   C1A65199  20.010  41.589   6.143
 5123POPC   D2A65200  19.719  41.653   6.510
 5123POPC   C3A65201  19.880  41.698   6.939
 5123POPC   C4A65202  20.066  41.534   7.322
 5123POPC   C1B65203  19.503  41.347   6.143
 5123POPC   C2B65204  19.405  41.262   6.636
 5123POPC   C3B65205  19.596  41.277   7.099
 5123POPC   C4B65206  19.712  41.306   7.586
 5124POPC   NC365207  18.828   0.869   5.340
 5124POPC   PO465208  19.318   1.323   5.431
 5124POPC   GL165209  19.127   1.001   5.757
 5124POPC   GL265210  18.738   1.004   5.820
 5124POPC   C1A65211  19.105   1.019   6.236
 5124POPC   D2A65212  19.309   1.371   6.471
 5124POPC   C3A65213  19.168   1.474   6.869
 5124POPC   C4A65214  19.146   1.303   7.258
 5124POPC   C1B65215  18.599   1.130   6.228
 5124POPC   C2B65216  18.793   1.258   6.584
 5124POPC   C3B65217  18.704   1.205   6.997
 5124POPC   C4B65218  18.687   0.997   7.365
 5125POPC   NC365219  27.598  36.470   4.998
 5125POPC   PO465220  27.476  36.008   5.489
 5125POPC   GL165221  27.615  36.038   5.878
 5125POPC   GL265222  27.600  36.386   5.877
 5125POPC   C1A65223  27.366  35.833   6.224
 5125POPC   D2A65224  27.519  35.816   6.629
 5125POPC   C3A65225  27.335  35.835   7.000
 5125POPC   C4A65226  27.573  36.147   7.123
 5125POPC   C1B65227  27.586  36.279   6.331
 5125POPC   C2B65228  27.510  36.483   6.704
 5125POPC   C3B65229  27.840  36.569   6.966
 5125POPC   C4B65230  28.036  36.445   7.324
 5126POPC   NC365231  35.633  10.700   5.347
 5126POPC   PO465232  35.163  10.221   5.222
 5126POPC   GL165233  35.286  10.483   5.677
 5126POPC   GL265234  35.337  10.859   5.734
 5126POPC   C1A65235  35.381  10.418   6.162
 5126POPC   D2A65236  35.278  10.438   6.653
 5126POPC   C3A65237  35.323  10.306   7.130
 5126POPC   C4A65238  35.214  10.440   7.621
 5126POPC   C1B65239  35.275  10.929   6.166
 5126POPC   C2B65240  35.508  10.915   6.534
 5126POPC   C3B65241  35.511  10.986   6.943
 5126POPC   C4B65242  35.523  10.746   7.293
 5127POPC   NC365243  22.732  37.298   5.384
 5127POPC   PO465244  22.865  36.733   5.147
 5127POPC   GL165245  22.899  36.889   5.624
 5127POPC   GL265246  22.580  37.041   5.789
 5127POPC   C1A65247  23.086  36.956   6.049
 5127POPC   D2A65248  22.981  37.006   6.492
 5127POPC   C3A65249  22.862  36.951   6.914
 5127POPC   C4A65250  23.130  36.912   7.265
 5127POPC   C1B65251  22.605  36.843   6.178
 5127POPC   C2B65252  22.520  36.743   6.578
 5127POPC   C3B65253  22.524  36.519   6.915
 5127POPC   C4B65254  22.762  36.568   7.277
 5128POPC   NC365255  31.051  33.022   5.432
 5128POPC   PO465256  31.808  33.034   5.383
 5128POPC   GL165257  31.651  32.845   5.761
 5128POPC   GL265258  31.295  32.879   5.883
 5128POPC   C1A65259  31.742  32.805   6.202
 5128POPC   D2A65260  31.810  33.049   6.579
 5128POPC   C3A65261  31.761  32.884   7.000
 5128POPC   C4A65262  31.591  33.107   7.347
 5128POPC   C1B65263  31.328  33.092   6.288
 5128POPC   C2B65264  31.335  32.985   6.746
 5128POPC   C3B65265  31.141  32.966   7.143
 5128POPC   C4B65266  30.831  32.840   7.457
 5129POPC   NC365267   2.697  34.093   5.289
 5129POPC   PO465268   3.072  33.568   5.490
 5129POPC   GL165269   2.745  33.801   5.726
 5129POPC   GL265270   2.682  33.523   5.935
 5129POPC   C1A65271   2.524  33.945   6.153
 5129POPC   D2A65272   2.447  33.694   6.545
 5129POPC   C3A65273   2.467  33.912   6.948
 5129POPC   C4A65274   2.695  33.955   7.362
 5129POPC   C1B65275   2.998  33.490   6.270
 5129POPC   C2B65276   3.037  33.504   6.707
 5129POPC   C3B65277   2.764  33.522   7.047
 5129POPC   C4B65278   2.757  33.251   7.345
 5130POPC   NC365279  15.638  43.240   5.641
 5130POPC   PO465280  14.998  43.136   5.498
 5130POPC   GL165281  15.218  43.004   5.873
 5130POPC   GL265282  15.518  42.784   5.840
 5130POPC   C1A65283  15.130  43.164   6.267
 5130POPC   D2A65284  15.181  43.373   6.646
 5130POPC   C3A65285  15.064  43.110   6.990
 5130POPC   C4A65286  14.893  43.237   7.403
 5130POPC   C1B65287  15.541  42.865   6.272
 5130POPC   C2B65288  15.502  42.903   6.697
 5130POPC   C3B65289  15.544  42.888   7.104
 5130POPC   C4B65290  15.389  43.173   7.378
 5131POPC   NC365291  11.479   2.105   5.432
 5131POPC   PO465292  10.907   2.475   5.553
 5131POPC   GL165293  11.150   2.150   5.847
 5131POPC   GL265294  11.422   1.864   5.862
 5131POPC   C1A65295  11.097   2.022   6.274
 5131POPC   D2A65296  11.323   2.244   6.615
 5131POPC   C3A65297  11.118   2.203   7.007
 5131POPC   C4A65298  10.945   2.208   7.413
 5131POPC   C1B65299  11.573   2.145   6.158
 5131POPC   C2B65300  11.540   1.803   6.447
 5131POPC   C3B65301  11.639   1.878   6.839
 5131POPC   C4B65302  11.475   1.897   7.208
 5132POPC   NC365303   0.715  16.044   5.511
 5132POPC   PO465304   0.203  15.686   5.201
 5132POPC   GL165305   0.149  15.714   5.706
 5132POPC   GL265306   0.333  15.923   6.005
 5132POPC   C1A65307   0.091  15.522   6.160
 5132POPC   D2A65308   0.276  15.775   6.519
 5132POPC   C3A65309   0.265  15.678   6.956
 5132POPC   C4A65310   0.665  15.633   7.204
 5132POPC   C1B65311   0.176  16.243   6.325
 5132POPC   C2B65312   0.186  16.224   6.786
 5132POPC   C3B65313   0.427  16.117   7.147
 5132POPC   C4B65314   0.407  16.233   7.570
 5133POPC   NC365315  43.496  13.933   5.159
 5133POPC   PO465316  43.240  14.475   5.467
 5133POPC   GL165317  43.182  14.480   5.884
 5133POPC   GL265318  43.519  14.328   5.948
 5133POPC   C1A65319  42.898  14.288   6.178
 5133POPC   D2A65320  43.025  14.229   6.580
 5133POPC   C3A65321  42.902  14.399   6.892
 5133POPC   C4A65322  42.570  14.504   7.139
 5133POPC   C1B65323  43.441  14.495   6.386
 5133POPC   C2B65324  43.464  14.387   6.863
 5133POPC   C3B65325  43.459  14.351   7.349
 5133POPC   C4B65326  43.498  14.652   7.719
 5134POPC   NC365327   0.212   3.938   5.340
 5134POPC   PO465328   0.579   4.549   5.315
 5134POPC   GL165329   0.491   4.305   5.682
 5134POPC   GL265330   0.441   4.634   5.849
 5134POPC   C1A65331   0.436   4.201   6.140
 5134POPC   D2A65332   0.326   4.293   6.593
 5134POPC   C3A65333   0.601   4.126   6.950
 5134POPC   C4A65334   0.540   4.102   7.408
 5134POPC   C1B65335   0.433   4.838   6.246
 5134POPC   C2B65336   0.271   4.845   6.643
 5134POPC   C3B65337   0.399   4.613   7.018
 5134POPC   C4B65338   0.627   4.609   7.420
 5135POPC   NC365339  41.577  40.909   5.321
 5135POPC   PO465340  42.131  41.195   5.484
 5135POPC   GL165341  41.802  40.865   5.780
 5135POPC   GL265342  41.751  40.472   5.831
 5135POPC   C1A65343  41.624  40.888   6.211
 5135POPC   D2A65344  41.435  41.170   6.508
 5135POPC   C3A65345  41.490  41.031   6.917
 5135POPC   C4A65346  41.362  40.988   7.319
 5135POPC   C1B65347  41.571  40.392   6.227
 5135POPC   C2B65348  41.437  40.567   6.635
 5135POPC   C3B65349  41.469  40.505   7.085
 5135POPC   C4B65350  41.665  40.251   7.403
 5136POPC   NC365351  38.858  34.715   5.372
 5136POPC   PO465352  39.498  34.620   5.425
 5136POPC   GL165353  39.314  34.773   5.827
 5136POPC   GL265354  38.965  34.859   5.864
 5136POPC   C1A65355  39.351  34.714   6.292
 5136POPC   D2A65356  39.534  34.485   6.662
 5136POPC   C3A65357  39.314  34.557   7.064
 5136POPC   C4A65358  39.066  34.364   7.359
 5136POPC   C1B65359  38.837  34.747   6.279
 5136POPC   C2B65360  38.950  34.703   6.718
 5136POPC   C3B65361  38.857  34.818   7.168
 5136POPC   C4B65362  38.809  35.087   7.563
 5137POPC   NC365363  16.996  10.530   5.067
 5137POPC   PO465364  16.385  10.790   5.242
 5137POPC   GL165365  16.547  10.704   5.769
 5137POPC   GL265366  16.411  10.383   5.934
 5137POPC   C1A65367  16.875  10.807   6.100
 5137POPC   D2A65368  17.220  10.834   6.422
 5137POPC   C3A65369  17.134  10.724   6.863
 5137POPC   C4A65370  16.781  10.765   7.194
 5137POPC   C1B65371  16.442  10.624   6.315
 5137POPC   C2B65372  16.688  10.544   6.677
 5137POPC   C3B65373  16.615  10.304   7.027
 5137POPC   C4B65374  16.571  10.253   7.462
 5138POPC   NC365375  10.015  15.318   5.529
 5138POPC   PO465376   9.747  14.668   5.513
 5138POPC   GL165377   9.610  14.895   5.899
 5138POPC   GL265378   9.499  15.192   5.809
 5138POPC   C1A65379   9.712  15.168   6.286
 5138POPC   D2A65380   9.866  15.341   6.687
 5138POPC   C3A65381   9.857  15.053   7.053
 5138POPC   C4A65382   9.728  14.929   7.464
 5138POPC   C1B65383   9.223  15.314   6.136
 5138POPC   C2B65384   9.352  15.477   6.519
 5138POPC   C3B65385   9.502  15.615   6.904
 5138POPC   C4B65386   9.671  15.439   7.296
 5139POPC   NC365387  27.387  11.814   5.254
 5139POPC   PO465388  27.350  12.470   5.123
 5139POPC   GL165389  27.417  12.298   5.606
 5139POPC   GL265390  27.511  11.950   5.754
 5139POPC   C1A65391  27.540  12.307   6.091
 5139POPC   D2A65392  27.468  12.066   6.460
 5139POPC   C3A65393  27.309  11.936   6.865
 5139POPC   C4A65394  27.577  12.076   7.188
 5139POPC   C1B65395  27.762  11.766   6.114
 5139POPC   C2B65396  27.911  11.786   6.557
 5139POPC   C3B65397  27.777  11.649   6.933
 5139POPC   C4B65398  27.912  11.696   7.334
 5140POPC   NC365399   5.281  37.017   5.536
 5140POPC   PO465400   4.626  36.896   5.603
 5140POPC   GL165401   4.978  36.816   5.919
 5140POPC   GL265402   5.365  36.857   5.995
 5140POPC   C1A65403   4.992  36.930   6.344
 5140POPC   D2A65404   4.767  37.033   6.693
 5140POPC   C3A65405   5.012  37.066   7.055
 5140POPC   C4A65406   5.165  37.367   7.321
 5140POPC   C1B65407   5.425  36.625   6.325
 5140POPC   C2B65408   5.184  36.608   6.701
 5140POPC   C3B65409   5.239  36.603   7.118
 5140POPC   C4B65410   5.408  36.901   7.414
 5141POPC   NC365411  36.106  21.410   5.300
 5141POPC   PO465412  36.580  20.840   5.364
 5141POPC   GL165413  36.405  21.226   5.677
 5141POPC   GL265414  36.015  21.324   5.777
 5141POPC   C1A65415  36.345  21.530   6.063
 5141POPC   D2A65416  36.296  21.458   6.530
 5141POPC   C3A65417  36.207  21.267   6.921
 5141POPC   C4A65418  36.171  21.453   7.291
 5141POPC   C1B65419  35.903  21.333   6.224
 5141POPC   C2B65420  35.758  21.299   6.656
 5141POPC   C3B65421  35.695  21.280   7.096
 5141POPC   C4B65422  35.841  21.025   7.458
 5142POPC   NC365423  19.923  23.395   5.302
 5142POPC   PO465424  19.604  22.813   5.448
 5142POPC   GL165425  19.815  22.852   5.820
 5142POPC   GL265426  19.856  23.221   5.806
 5142POPC   C1A65427  19.734  22.912   6.256
 5142POPC   D2A65428  19.787  23.074   6.656
 5142POPC   C3A65429  19.686  22.816   7.015
 5142POPC   C4A65430  19.974  22.665   7.290
 5142POPC   C1B65431  20.042  23.315   6.219
 5142POPC   C2B65432  20.272  23.293   6.597
 5142POPC   C3B65433  20.181  23.116   6.990
 5142POPC   C4B65434  19.934  23.180   7.292
 5143POPC   NC365435  39.957   3.168   5.627
 5143POPC   PO465436  40.447   2.813   5.399
 5143POPC   GL165437  40.117   2.707   5.765
 5143POPC   GL265438  39.758   2.709   5.781
 5143POPC   C1A65439  40.032   2.529   6.186
 5143POPC   D2A65440  40.202   2.647   6.570
 5143POPC   C3A65441  40.117   2.566   7.029
 5143POPC   C4A65442  40.031   2.977   7.264
 5143POPC   C1B65443  39.603   2.941   6.143
 5143POPC   C2B65444  39.760   2.886   6.541
 5143POPC   C3B65445  39.671   2.764   6.936
 5143POPC   C4B65446  39.525   2.909   7.321
 5144POPC   NC365447   2.249   7.557   5.436
 5144POPC   PO465448   1.700   7.129   5.398
 5144POPC   GL165449   1.825   7.320   5.824
 5144POPC   GL265450   2.173   7.424   5.911
 5144POPC   C1A65451   1.765   7.572   6.213
 5144POPC   D2A65452   1.509   7.543   6.565
 5144POPC   C3A65453   1.734   7.414   6.907
 5144POPC   C4A65454   2.143   7.373   7.098
 5144POPC   C1B65455   2.236   7.751   6.197
 5144POPC   C2B65456   2.083   7.717   6.610
 5144POPC   C3B65457   2.223   7.874   6.961
 5144POPC   C4B65458   2.305   7.793   7.354
 5145POPC   NC365459  35.882  17.483   5.370
 5145POPC   PO465460  36.510  17.771   5.384
 5145POPC   GL165461  36.351  17.506   5.752
 5145POPC   GL265462  36.039  17.306   5.831
 5145POPC   C1A65463  36.387  17.475   6.216
 5145POPC   D2A65464  36.524  17.190   6.566
 5145POPC   C3A65465  36.374  17.347   6.959
 5145POPC   C4A65466  36.152  17.726   7.055
 5145POPC   C1B65467  35.981  17.160   6.290
 5145POPC   C2B65468  35.922  17.164   6.757
 5145POPC   C3B65469  35.831  17.347   7.181
 5145POPC   C4B65470  35.850  17.653   7.505
 5146POPC   NC365471  25.898  44.921   5.365
 5146POPC   PO465472  26.382  44.560   5.657
 5146POPC   GL165473  26.157  44.394   5.962
 5146POPC   GL265474  25.837  44.324   5.849
 5146POPC   C1A65475  26.180  44.461   6.413
 5146POPC   D2A65476  25.939  44.760   6.619
 5146POPC   C3A65477  26.010  44.698   7.015
 5146POPC   C4A65478  25.831  44.833   7.367
 5146POPC   C1B65479  25.762  44.183   6.285
 5146POPC   C2B65480  25.832  44.234   6.766
 5146POPC   C3B65481  25.811  44.279   7.234
 5146POPC   C4B65482  26.174  44.450   7.443
 5147POPC   NC365483   0.829  25.527   5.429
 5147POPC   PO465484   1.364  25.072   5.530
 5147POPC   GL165485   1.218  25.372   5.781
 5147POPC   GL265486   0.899  25.459   5.957
 5147POPC   C1A65487   1.257  25.137   6.177
 5147POPC   D2A65488   1.187  25.005   6.572
 5147POPC   C3A65489   1.557  25.001   6.832
 5147POPC   C4A65490   1.427  24.978   7.243
 5147POPC   C1B65491   1.302  25.630   6.201
 5147POPC   C2B65492   1.462  25.463   6.577
 5147POPC   C3B65493   1.251  25.392   6.969
 5147POPC   C4B65494   1.525  25.546   7.272
 5148POPC   NC365495   9.059  37.494   5.303
 5148POPC   PO465496   8.518  37.857   5.463
 5148POPC   GL165497   8.926  37.865   5.736
 5148POPC   GL265498   9.098  37.553   5.802
 5148POPC   C1A65499   8.983  37.747   6.229
 5148POPC   D2A65500   9.001  37.418   6.564
 5148POPC   C3A65501   8.785  37.615   6.928
 5148POPC   C4A65502   8.953  37.834   7.287
 5148POPC   C1B65503   9.419  37.495   6.147
 5148POPC   C2B65504   9.455  37.683   6.546
 5148POPC   C3B65505   9.312  37.586   6.952
 5148POPC   C4B65506   9.443  37.447   7.325
 5149POPC   NC365507  34.337  28.061   5.566
 5149POPC   PO465508  34.713  28.652   5.464
 5149POPC   GL165509  34.557  28.455   5.827
 5149POPC   GL265510  34.818  28.178   5.844
 5149POPC   C1A65511  34.302  28.622   6.182
 5149POPC   D2A65512  34.421  28.828   6.593
 5149POPC   C3A65513  34.593  28.531   6.915
 5149POPC   C4A65514  34.471  28.454   7.371
 5149POPC   C1B65515  34.694  28.260   6.297
 5149POPC   C2B65516  34.905  28.154   6.707
 5149POPC   C3B65517  34.843  28.150   7.161
 5149POPC   C4B65518  35.153  28.164   7.489
 5150POPC   NC365519   1.151  31.684   5.401
 5150POPC   PO465520   1.421  31.153   5.319
 5150POPC   GL165521   1.404  31.398   5.751
 5150POPC   GL265522   1.052  31.540   5.864
 5150POPC   C1A65523   1.335  31.362   6.225
 5150POPC   D2A65524   1.158  31.169   6.599
 5150POPC   C3A65525   1.174  31.354   7.031
 5150POPC   C4A65526   1.400  31.112   7.368
 5150POPC   C1B65527   0.899  31.702   6.255
 5150POPC   C2B65528   1.044  31.748   6.643
 5150POPC   C3B65529   0.822  31.740   7.012
 5150POPC   C4B65530   0.809  31.663   7.446
 5151POPC   NC365531  12.075   0.598   5.454
 5151POPC   PO465532  11.992  44.977   5.508
 5151POPC   GL165533  12.208   0.261   5.823
 5151POPC   GL265534  11.923   0.476   5.908
 5151POPC   C1A65535  12.379   0.373   6.255
 5151POPC   D2A65536  12.431   0.151   6.685
 5151POPC   C3A65537  12.280   0.385   7.046
 5151POPC   C4A65538  12.094   0.745   7.217
 5151POPC   C1B65539  11.889   0.241   6.271
 5151POPC   C2B65540  11.990   0.462   6.631
 5151POPC   C3B65541  11.704   0.636   6.931
 5151POPC   C4B65542  11.748   0.347   7.207
 5152POPC   NC365543  11.500  33.007   5.366
 5152POPC   PO465544  10.845  32.976   5.328
 5152POPC   GL165545  11.043  32.778   5.720
 5152POPC   GL265546  11.389  32.871   5.829
 5152POPC   C1A65547  11.057  32.797   6.202
 5152POPC   D2A65548  11.158  32.625   6.600
 5152POPC   C3A65549  11.165  32.909   6.954
 5152POPC   C4A65550  11.023  33.109   7.342
 5152POPC   C1B65551  11.547  33.010   6.209
 5152POPC   C2B65552  11.610  32.882   6.614
 5152POPC   C3B65553  11.647  33.121   6.975
 5152POPC   C4B65554  11.541  32.929   7.361
 5153POPC   NC365555  37.488  43.807   5.024
 5153POPC   PO465556  38.035  44.094   5.257
 5153POPC   GL165557  37.843  43.877   5.649
 5153POPC   GL265558  37.589  44.052   5.900
 5153POPC   C1A65559  37.998  43.764   6.079
 5153POPC   D2A65560  38.100  43.817   6.530
 5153POPC   C3A65561  37.817  43.887   6.899
 5153POPC   C4A65562  37.961  43.577   7.148
 5153POPC   C1B65563  37.499  43.692   6.219
 5153POPC   C2B65564  37.569  43.509   6.659
 5153POPC   C3B65565  37.462  43.491   7.100
 5153POPC   C4B65566  37.585  43.698   7.487
 5154POPC   NC365567  32.863  42.964   5.455
 5154POPC   PO465568  32.881  43.661   5.528
 5154POPC   GL165569  33.060  43.344   5.828
 5154POPC   GL265570  33.156  42.956   5.860
 5154POPC   C1A65571  32.796  43.129   6.149
 5154POPC   D2A65572  33.012  42.922   6.470
 5154POPC   C3A65573  32.953  43.161   6.810
 5154POPC   C4A65574  32.613  43.175   7.111
 5154POPC   C1B65575  33.386  43.122   6.196
 5154POPC   C2B65576  33.540  42.945   6.582
 5154POPC   C3B65577  33.430  43.080   6.996
 5154POPC   C4B65578  33.121  43.005   7.273
 5155POPC   NC365579   2.095  12.149   5.533
 5155POPC   PO465580   2.831  12.036   5.623
 5155POPC   GL165581   2.742  12.175   5.978
 5155POPC   GL265582   2.402  12.244   5.936
 5155POPC   C1A65583   2.858  12.155   6.392
 5155POPC   D2A65584   3.124  12.054   6.696
 5155POPC   C3A65585   2.967  12.164   7.031
 5155POPC   C4A65586   2.984  12.443   7.317
 5155POPC   C1B65587   2.357  12.112   6.347
 5155POPC   C2B65588   2.520  12.021   6.781
 5155POPC   C3B65589   2.501  12.087   7.232
 5155POPC   C4B65590   2.332  12.047   7.668
 5156POPC   NC365591  39.450  32.700   5.508
 5156POPC   PO465592  38.892  33.139   5.327
 5156POPC   GL165593  39.125  33.037   5.728
 5156POPC   GL265594  39.462  33.231   5.656
 5156POPC   C1A65595  39.056  32.895   6.189
 5156POPC   D2A65596  38.780  32.778   6.552
 5156POPC   C3A65597  38.937  32.980   6.962
 5156POPC   C4A65598  38.973  32.901   7.418
 5156POPC   C1B65599  39.567  33.081   6.064
 5156POPC   C2B65600  39.524  33.141   6.500
 5156POPC   C3B65601  39.679  33.103   6.908
 5156POPC   C4B65602  39.430  33.010   7.237
 5157POPC   NC365603  21.131  16.395   5.633
 5157POPC   PO465604  21.415  15.774   5.481
 5157POPC   GL165605  21.327  15.933   5.857
 5157POPC   GL265606  21.010  15.730   5.849
 5157POPC   C1A65607  21.569  16.182   6.158
 5157POPC   D2A65608  21.546  16.423   6.538
 5157POPC   C3A65609  21.663  16.069   6.804
 5157POPC   C4A65610  21.637  15.837   7.181
 5157POPC   C1B65611  21.146  15.642   6.258
 5157POPC   C2B65612  21.262  15.986   6.516
 5157POPC   C3B65613  21.193  16.079   6.951
 5157POPC   C4B65614  21.118  15.720   7.137
 5158POPC   NC365615  20.420  36.751   5.444
 5158POPC   PO465616  20.969  37.206   5.423
 5158POPC   GL165617  20.792  36.980   5.783
 5158POPC   GL265618  20.798  36.603   5.763
 5158POPC   C1A65619  20.719  37.129   6.210
 5158POPC   D2A65620  20.382  37.165   6.530
 5158POPC   C3A65621  20.544  37.122   6.948
 5158POPC   C4A65622  20.351  36.927   7.285
 5158POPC   C1B65623  20.557  36.615   6.160
 5158POPC   C2B65624  20.664  36.743   6.570
 5158POPC   C3B65625  20.602  36.607   6.971
 5158POPC   C4B65626  20.924  36.630   7.251
 5159POPC   NC365627  33.253   9.982   5.382
 5159POPC   PO465628  32.800   9.534   5.557
 5159POPC   GL165629  32.997   9.869   5.813
 5159POPC   GL265630  33.354   9.982   5.884
 5159POPC   C1A65631  32.832   9.871   6.207
 5159POPC   D2A65632  32.857   9.677   6.573
 5159POPC   C3A65633  33.026   9.967   6.850
 5159POPC   C4A65634  32.965   9.927   7.259
 5159POPC   C1B65635  33.307   9.658   6.211
 5159POPC   C2B65636  33.261   9.353   6.574
 5159POPC   C3B65637  33.128   9.468   7.010
 5159POPC   C4B65638  33.065   9.484   7.470
 5160POPC   NC365639  16.649  44.363   5.497
 5160POPC   PO465640  16.949  44.984   5.447
 5160POPC   GL165641  16.569  44.825   5.748
 5160POPC   GL265642  16.543  44.483   5.977
 5160POPC   C1A65643  16.512  44.942   6.197
 5160POPC   D2A65644  16.830  44.882   6.559
 5160POPC   C3A65645  16.728  44.842   7.011
 5160POPC   C4A65646  16.514  44.485   7.174
 5160POPC   C1B65647  16.841  44.374   6.330
 5160POPC   C2B65648  16.958  44.437   6.778
 5160POPC   C3B65649  17.011  44.390   7.234
 5160POPC   C4B65650  17.192  44.366   7.651
 5161POPC   NC365651   7.133  15.455   5.599
 5161POPC   PO465652   7.603  14.890   5.675
 5161POPC   GL165653   7.371  15.141   5.934
 5161POPC   GL265654   7.068  14.987   5.813
 5161POPC   C1A65655   7.190  15.413   6.268
 5161POPC   D2A65656   7.211  15.591   6.692
 5161POPC   C3A65657   7.509  15.326   6.972
 5161POPC   C4A65658   7.530  15.116   7.381
 5161POPC   C1B65659   6.893  14.962   6.218
 5161POPC   C2B65660   6.994  15.059   6.645
 5161POPC   C3B65661   7.079  14.981   7.064
 5161POPC   C4B65662   7.047  15.313   7.327
 5162POPC   NC365663   8.448   1.007   5.438
 5162POPC   PO465664   7.810   1.191   5.432
 5162POPC   GL165665   8.092   1.084   5.800
 5162POPC   GL265666   8.396   1.276   5.890
 5162POPC   C1A65667   8.188   0.913   6.198
 5162POPC   D2A65668   8.308   1.129   6.557
 5162POPC   C3A65669   8.078   1.040   6.918
 5162POPC   C4A65670   8.222   1.303   7.221
 5162POPC   C1B65671   8.072   1.439   6.200
 5162POPC   C2B65672   7.943   1.456   6.646
 5162POPC   C3B65673   7.966   1.703   7.023
 5162POPC   C4B65674   7.920   1.650   7.495
 5163POPC   NC365675   9.279  14.642   5.556
 5163POPC   PO465676   8.694  14.337   5.364
 5163POPC   GL165677   8.673  14.539   5.770
 5163POPC   GL265678   8.934  14.352   5.867
 5163POPC   C1A65679   8.711  14.579   6.253
 5163POPC   D2A65680   8.852  14.302   6.605
 5163POPC   C3A65681   8.690  14.424   6.973
 5163POPC   C4A65682   8.855  14.642   7.319
 5163POPC   C1B65683   9.197  14.370   6.234
 5163POPC   C2B65684   9.402  14.421   6.639
 5163POPC   C3B65685   9.235  14.515   7.007
 5163POPC   C4B65686   9.393  14.274   7.327
 5164POPC   NC365687  20.322   1.398   5.391
 5164POPC   PO465688  20.743   0.943   5.472
 5164POPC   GL165689  20.442   1.092   5.786
 5164POPC   GL265690  20.549   0.838   5.969
 5164POPC   C1A65691  20.417   1.384   6.143
 5164POPC   D2A65692  20.608   1.615   6.496
 5164POPC   C3A65693  20.535   1.427   6.925
 5164POPC   C4A65694  20.695   1.555   7.337
 5164POPC   C1B65695  20.856   1.154   6.124
 5164POPC   C2B65696  20.750   1.124   6.552
 5164POPC   C3B65697  20.784   0.931   6.956
 5164POPC   C4B65698  20.607   0.845   7.340
 5165POPC   NC365699  26.376  35.873   5.324
 5165POPC   PO465700  25.968  36.395   5.353
 5165POPC   GL165701  25.909  36.263   5.767
 5165POPC   GL265702  26.182  36.455   5.876
 5165POPC   C1A65703  26.012  35.977   6.139
 5165POPC   D2A65704  25.980  35.718   6.546
 5165POPC   C3A65705  26.112  35.942   6.923
 5165POPC   C4A65706  26.028  35.939   7.382
 5165POPC   C1B65707  25.897  36.476   6.256
 5165POPC   C2B65708  25.816  36.347   6.692
 5165POPC   C3B65709  25.935  36.372   7.133
 5165POPC   C4B65710  26.206  36.458   7.485
 5166POPC   NC365711   7.857   4.615   5.366
 5166POPC   PO465712   7.206   4.557   5.288
 5166POPC   GL165713   7.286   4.529   5.756
 5166POPC   GL265714   7.638   4.601   5.863
 5166POPC   C1A65715   7.116   4.449   6.193
 5166POPC   D2A65716   7.293   4.554   6.614
 5166POPC   C3A65717   7.204   4.264   6.936
 5166POPC   C4A65718   7.263   4.324   7.377
 5166POPC   C1B65719   7.619   4.366   6.247
 5166POPC   C2B65720   7.762   4.236   6.656
 5166POPC   C3B65721   7.687   4.294   7.084
 5166POPC   C4B65722   7.693   4.595   7.412
 5167POPC   NC365723  10.153  36.041   5.381
 5167POPC   PO465724  10.619  36.492   5.386
 5167POPC   GL165725  10.704  36.260   5.803
 5167POPC   GL265726  10.377  36.111   5.846
 5167POPC   C1A65727  10.560  36.275   6.290
 5167POPC   D2A65728  10.340  36.487   6.636
 5167POPC   C3A65729  10.455  36.408   7.082
 5167POPC   C4A65730  10.525  36.539   7.507
 5167POPC   C1B65731  10.582  35.801   6.124
 5167POPC   C2B65732  10.441  35.725   6.541
 5167POPC   C3B65733  10.267  35.869   6.921
 5167POPC   C4B65734  10.564  35.866   7.204
 5168POPC   NC365735  16.389   0.989   5.359
 5168POPC   PO465736  17.033   0.987   5.632
 5168POPC   GL165737  16.664   1.196   5.800
 5168POPC   GL265738  16.889   1.170   6.082
 5168POPC   C1A65739  16.429   1.270   6.202
 5168POPC   D2A65740  16.678   1.260   6.580
 5168POPC   C3A65741  16.492   1.262   6.985
 5168POPC   C4A65742  16.767   1.357   7.308
 5168POPC   C1B65743  17.073   0.826   6.262
 5168POPC   C2B65744  17.121   0.728   6.658
 5168POPC   C3B65745  17.042   0.996   6.972
 5168POPC   C4B65746  17.076   0.956   7.379
 5169POPC   NC365747  17.206  33.192   5.183
 5169POPC   PO465748  17.738  32.739   5.327
 5169POPC   GL165749  17.644  32.958   5.728
 5169POPC   GL265750  17.349  33.219   5.750
 5169POPC   C1A65751  17.718  33.082   6.160
 5169POPC   D2A65752  17.559  33.061   6.580
 5169POPC   C3A65753  17.749  33.268   6.938
 5169POPC   C4A65754  17.727  33.114   7.329
 5169POPC   C1B65755  17.234  33.305   6.199
 5169POPC   C2B65756  17.117  33.347   6.637
 5169POPC   C3B65757  17.257  33.151   7.006
 5169POPC   C4B65758  17.169  32.780   7.230
 5170POPC   NC365759  39.139  20.488   5.227
 5170POPC   PO465760  39.828  20.627   5.349
 5170POPC   GL165761  39.544  20.637   5.755
 5170POPC   GL265762  39.172  20.551   5.753
 5170POPC   C1A65763  39.452  20.733   6.245
 5170POPC   D2A65764  39.330  20.901   6.685
 5170POPC   C3A65765  39.397  20.635   7.070
 5170POPC   C4A65766  39.036  20.380   7.190
 5170POPC   C1B65767  38.959  20.719   6.153
 5170POPC   C2B65768  38.909  20.621   6.582
 5170POPC   C3B65769  38.903  20.823   6.959
 5170POPC   C4B65770  38.893  20.890   7.365
 5171POPC   NC365771  37.068  16.322   5.598
 5171POPC   PO465772  36.842  16.896   5.406
 5171POPC   GL165773  36.861  16.752   5.815
 5171POPC   GL265774  37.193  16.692   5.947
 5171POPC   C1A65775  36.872  16.939   6.231
 5171POPC   D2A65776  37.177  16.723   6.532
 5171POPC   C3A65777  37.036  16.679   6.953
 5171POPC   C4A65778  36.967  16.830   7.384
 5171POPC   C1B65779  36.977  16.385   6.222
 5171POPC   C2B65780  37.140  16.102   6.513
 5171POPC   C3B65781  37.013  16.120   6.926
 5171POPC   C4B65782  37.062  16.304   7.303
 5172POPC   NC365783  30.305  36.439   5.378
 5172POPC   PO465784  29.762  36.066   5.471
 5172POPC   GL165785  29.801  36.274   5.835
 5172POPC   GL265786  30.103  36.421   5.880
 5172POPC   C1A65787  29.775  36.255   6.288
 5172POPC   D2A65788  29.912  36.407   6.685
 5172POPC   C3A65789  29.675  36.200   7.011
 5172POPC   C4A65790  29.949  35.870   7.202
 5172POPC   C1B65791  30.130  36.641   6.272
 5172POPC   C2B65792  30.412  36.610   6.628
 5172POPC   C3B65793  30.323  36.535   7.056
 5172POPC   C4B65794  29.981  36.470   7.306
 5173POPC   NC365795   9.224  39.123   5.495
 5173POPC   PO465796   8.598  39.399   5.288
 5173POPC   GL165797   8.743  39.228   5.701
 5173POPC   GL265798   9.024  39.412   5.882
 5173POPC   C1A65799   8.707  39.095   6.161
 5173POPC   D2A65800   8.801  39.377   6.546
 5173POPC   C3A65801   8.984  39.238   6.931
 5173POPC   C4A65802   8.910  39.512   7.246
 5173POPC   C1B65803   9.202  39.206   6.265
 5173POPC   C2B65804   9.403  39.391   6.656
 5173POPC   C3B65805   9.411  39.444   7.115
 5173POPC   C4B65806   9.359  39.015   7.262
 5174POPC   NC365807  42.022  20.999   5.355
 5174POPC   PO465808  42.147  20.394   5.141
 5174POPC   GL165809  42.198  20.595   5.623
 5174POPC   GL265810  42.060  20.880   5.844
 5174POPC   C1A65811  42.337  20.491   6.088
 5174POPC   D2A65812  42.351  20.306   6.528
 5174POPC   C3A65813  42.498  20.495   6.900
 5174POPC   C4A65814  42.375  20.428   7.322
 5174POPC   C1B65815  41.964  20.810   6.270
 5174POPC   C2B65816  42.135  20.773   6.658
 5174POPC   C3B65817  42.060  20.777   7.100
 5174POPC   C4B65818  42.469  20.934   7.178
 5175POPC   NC365819  10.478  26.321   5.276
 5175POPC   PO465820  10.772  25.719   5.423
 5175POPC   GL165821  10.596  25.848   5.823
 5175POPC   GL265822  10.461  26.206   5.837
 5175POPC   C1A65823  10.783  25.864   6.237
 5175POPC   D2A65824  10.514  25.832   6.596
 5175POPC   C3A65825  10.700  25.878   6.947
 5175POPC   C4A65826  10.525  25.720   7.300
 5175POPC   C1B65827  10.386  26.198   6.249
 5175POPC   C2B65828  10.578  26.330   6.627
 5175POPC   C3B65829  10.360  26.262   7.011
 5175POPC   C4B65830  10.409  26.371   7.457
 5176POPC   NC365831  43.373  19.933   5.418
 5176POPC   PO465832  42.751  19.624   5.282
 5176POPC   GL165833  42.999  19.598   5.701
 5176POPC   GL265834  43.380  19.512   5.718
 5176POPC   C1A65835  43.104  19.881   6.071
 5176POPC   D2A65836  43.365  20.102   6.399
 5176POPC   C3A65837  43.120  20.079   6.794
 5176POPC   C4A65838  42.972  19.819   7.167
 5176POPC   C1B65839  43.498  19.575   6.158
 5176POPC   C2B65840  43.316  19.623   6.598
 5176POPC   C3B65841  43.440  19.713   7.015
 5176POPC   C4B65842  43.630  19.538   7.369
 5177POPC   NC365843  17.303  40.705   5.535
 5177POPC   PO465844  17.777  41.199   5.247
 5177POPC   GL165845  17.711  41.055   5.709
 5177POPC   GL265846  17.401  40.982   5.947
 5177POPC   C1A65847  17.866  40.810   6.069
 5177POPC   D2A65848  17.646  40.572   6.374
 5177POPC   C3A65849  17.709  40.671   6.798
 5177POPC   C4A65850  17.678  40.791   7.217
 5177POPC   C1B65851  17.298  40.954   6.393
 5177POPC   C2B65852  17.332  41.052   6.829
 5177POPC   C3B65853  17.352  41.179   7.247
 5177POPC   C4B65854  17.241  41.347   7.649
 5178POPC   NC365855  31.476  26.141   5.461
 5178POPC   PO465856  31.378  25.498   5.584
 5178POPC   GL165857  31.391  25.824   5.899
 5178POPC   GL265858  31.733  25.742   5.981
 5178POPC   C1A65859  31.284  26.156   6.224
 5178POPC   D2A65860  31.422  26.254   6.667
 5178POPC   C3A65861  31.354  25.965   7.040
 5178POPC   C4A65862  31.466  25.835   7.515
 5178POPC   C1B65863  31.789  26.160   6.189
 5178POPC   C2B65864  31.943  26.286   6.577
 5178POPC   C3B65865  31.832  26.122   6.966
 5178POPC   C4B65866  31.652  26.273   7.336
 5179POPC   NC365867  30.945  24.888   5.490
 5179POPC   PO465868  30.405  25.308   5.432
 5179POPC   GL165869  30.650  25.248   5.750
 5179POPC   GL265870  30.575  24.885   5.835
 5179POPC   C1A65871  30.837  25.511   6.077
 5179POPC   D2A65872  30.726  25.519   6.515
 5179POPC   C3A65873  31.063  25.398   6.819
 5179POPC   C4A65874  30.931  25.439   7.257
 5179POPC   C1B65875  30.600  25.058   6.227
 5179POPC   C2B65876  30.772  25.015   6.598
 5179POPC   C3B65877  30.603  25.194   6.944
 5179POPC   C4B65878  30.639  25.024   7.330
 5180POPC   NC365879  38.477  32.801   5.564
 5180POPC   PO465880  38.540  32.166   5.257
 5180POPC   GL165881  38.568  32.280   5.697
 5180POPC   GL265882  38.284  32.152   5.923
 5180POPC   C1A65883  38.647  32.472   6.118
 5180POPC   D2A65884  38.443  32.337   6.496
 5180POPC   C3A65885  38.736  32.324   6.818
 5180POPC   C4A65886  38.692  32.568   7.166
 5180POPC   C1B65887  38.196  31.900   6.299
 5180POPC   C2B65888  38.066  32.044   6.708
 5180POPC   C3B65889  38.228  32.329   7.016
 5180POPC   C4B65890  38.462  31.979   7.119
 5181POPC   NC365891   9.482  18.102   5.392
 5181POPC   PO465892  10.109  18.114   5.446
 5181POPC   GL165893   9.852  18.290   5.757
 5181POPC   GL265894   9.538  18.359   5.825
 5181POPC   C1A65895   9.896  18.348   6.213
 5181POPC   D2A65896   9.965  18.602   6.584
 5181POPC   C3A65897  10.091  18.375   6.933
 5181POPC   C4A65898  10.183  18.542   7.312
 5181POPC   C1B65899   9.469  18.056   6.105
 5181POPC   C2B65900   9.410  17.979   6.544
 5181POPC   C3B65901   9.562  18.315   6.806
 5181POPC   C4B65902   9.534  18.366   7.234
 5182POPC   NC365903  14.910  20.775   5.652
 5182POPC   PO465904  15.233  20.280   5.313
 5182POPC   GL165905  15.379  20.473   5.745
 5182POPC   GL265906  15.433  20.853   5.767
 5182POPC   C1A65907  15.313  20.518   6.224
 5182POPC   D2A65908  15.240  20.439   6.683
 5182POPC   C3A65909  15.066  20.669   7.016
 5182POPC   C4A65910  14.794  20.787   7.328
 5182POPC   C1B65911  15.673  20.883   6.165
 5182POPC   C2B65912  15.672  20.683   6.593
 5182POPC   C3B65913  15.579  20.700   7.060
 5182POPC   C4B65914  15.537  20.997   7.429
 5183POPC   NC365915  11.444  42.984   5.302
 5183POPC   PO465916  10.924  43.349   5.212
 5183POPC   GL165917  11.068  43.170   5.684
 5183POPC   GL265918  11.417  42.969   5.799
 5183POPC   C1A65919  11.052  43.003   6.131
 5183POPC   D2A65920  11.235  43.062   6.526
 5183POPC   C3A65921  11.008  42.914   6.861
 5183POPC   C4A65922  11.053  43.159   7.210
 5183POPC   C1B65923  11.630  42.964   6.231
 5183POPC   C2B65924  11.771  43.112   6.645
 5183POPC   C3B65925  11.695  42.971   7.063
 5183POPC   C4B65926  11.360  42.741   7.206
 5184POPC   NC365927   6.714  16.028   5.298
 5184POPC   PO465928   7.150  15.888   5.740
 5184POPC   GL165929   6.641  15.901   5.806
 5184POPC   GL265930   6.326  15.651   5.837
 5184POPC   C1A65931   6.431  15.976   6.208
 5184POPC   D2A65932   6.657  15.883   6.562
 5184POPC   C3A65933   6.484  16.064   6.936
 5184POPC   C4A65934   6.603  15.982   7.367
 5184POPC   C1B65935   6.171  15.527   6.269
 5184POPC   C2B65936   6.189  15.689   6.703
 5184POPC   C3B65937   6.203  15.737   7.168
 5184POPC   C4B65938   6.190  15.818   7.635
 5185POPC   NC365939  32.128  12.243   5.368
 5185POPC   PO465940  32.472  11.689   5.467
 5185POPC   GL165941  32.434  12.063   5.751
 5185POPC   GL265942  32.061  12.071   5.856
 5185POPC   C1A65943  32.413  12.266   6.167
 5185POPC   D2A65944  32.159  12.105   6.523
 5185POPC   C3A65945  32.296  12.099   6.939
 5185POPC   C4A65946  32.129  11.816   7.239
 5185POPC   C1B65947  31.893  12.368   6.186
 5185POPC   C2B65948  31.904  12.536   6.665
 5185POPC   C3B65949  31.974  12.461   7.143
 5185POPC   C4B65950  31.909  12.188   7.535
 5186POPC   NC365951   8.195  20.856   5.504
 5186POPC   PO465952   8.507  20.246   5.419
 5186POPC   GL165953   8.475  20.539   5.816
 5186POPC   GL265954   8.482  20.881   5.969
 5186POPC   C1A65955   8.212  20.501   6.203
 5186POPC   D2A65956   7.855  20.733   6.419
 5186POPC   C3A65957   7.727  20.595   6.843
 5186POPC   C4A65958   7.970  20.600   7.222
 5186POPC   C1B65959   8.446  20.891   6.433
 5186POPC   C2B65960   8.247  20.636   6.746
 5186POPC   C3B65961   8.418  20.387   7.062
 5186POPC   C4B65962   8.443  20.565   7.454
 5187POPC   NC365963  18.952  42.714   5.596
 5187POPC   PO465964  19.071  42.277   5.155
 5187POPC   GL165965  18.765  42.288   5.704
 5187POPC   GL265966  19.047  42.473   6.022
 5187POPC   C1A65967  18.630  42.252   6.146
 5187POPC   D2A65968  18.950  42.186   6.451
 5187POPC   C3A65969  18.827  42.123   6.863
 5187POPC   C4A65970  19.036  42.251   7.249
 5187POPC   C1B65971  19.515  42.543   6.201
 5187POPC   C2B65972  19.624  42.691   6.625
 5187POPC   C3B65973  19.388  42.438   6.926
 5187POPC   C4B65974  19.536  42.233   7.288
 5188POPC   NC365975  38.614  41.454   5.148
 5188POPC   PO465976  38.140  41.670   5.570
 5188POPC   GL165977  38.366  41.484   5.912
 5188POPC   GL265978  38.593  41.770   5.942
 5188POPC   C1A65979  38.241  41.403   6.349
 5188POPC   D2A65980  38.192  41.584   6.784
 5188POPC   C3A65981  38.426  41.434   7.120
 5188POPC   C4A65982  38.408  41.183   7.467
 5188POPC   C1B65983  38.632  41.723   6.389
 5188POPC   C2B65984  38.698  41.765   6.829
 5188POPC   C3B65985  38.606  41.909   7.225
 5188POPC   C4B65986  38.758  42.021   7.654
 5189POPC   NC365987   3.276  23.864   5.445
 5189POPC   PO465988   3.467  23.214   5.253
 5189POPC   GL165989   3.563  23.474   5.670
 5189POPC   GL265990   3.865  23.522   5.873
 5189POPC   C1A65991   3.417  23.559   6.129
 5189POPC   D2A65992   3.671  23.391   6.483
 5189POPC   C3A65993   3.605  23.375   6.928
 5189POPC   C4A65994   3.416  23.380   7.334
 5189POPC   C1B65995   3.857  23.794   6.248
 5189POPC   C2B65996   3.496  23.884   6.546
 5189POPC   C3B65997   3.365  23.843   6.939
 5189POPC   C4B65998   3.668  23.828   7.249
 5190POPC   NC365999  41.843  24.928   5.480
 5190POPC   PO466000  41.477  24.329   5.491
 5190POPC   GL166001  41.585  24.362   5.883
 5190POPC   GL266002  41.632  24.720   5.928
 5190POPC   C1A66003  41.467  24.423   6.296
 5190POPC   D2A66004  41.521  24.632   6.676
 5190POPC   C3A66005  41.549  24.423   6.996
 5190POPC   C4A66006  41.696  24.212   7.330
 5190POPC   C1B66007  41.810  24.871   6.348
 5190POPC   C2B66008  41.961  24.909   6.766
 5190POPC   C3B66009  41.747  24.876   7.125
 5190POPC   C4B66010  41.833  25.031   7.500
 5191POPC   NC366011  12.584  26.422   5.484
 5191POPC   PO466012  12.553  27.049   5.271
 5191POPC   GL166013  12.739  26.860   5.727
 5191POPC   GL266014  12.477  26.764   5.912
 5191POPC   C1A66015  12.876  26.668   6.206
 5191POPC   D2A66016  12.729  26.638   6.664
 5191POPC   C3A66017  12.856  26.542   7.084
 5191POPC   C4A66018  13.073  26.651   7.474
 5191POPC   C1B66019  12.462  26.945   6.339
 5191POPC   C2B66020  12.426  27.016   6.802
 5191POPC   C3B66021  12.388  26.754   7.189
 5191POPC   C4B66022  12.610  26.886   7.608
 5192POPC   NC366023  15.313  31.011   5.570
 5192POPC   PO466024  15.951  30.872   5.429
 5192POPC   GL166025  15.726  30.802   5.801
 5192POPC   GL266026  15.557  30.496   5.813
 5192POPC   C1A66027  15.783  30.835   6.239
 5192POPC   D2A66028  16.110  30.628   6.501
 5192POPC   C3A66029  16.184  30.818   6.905
 5192POPC   C4A66030  15.914  30.778   7.228
 5192POPC   C1B66031  15.687  30.341   6.195
 5192POPC   C2B66032  15.633  30.496   6.602
 5192POPC   C3B66033  15.849  30.363   6.956
 5192POPC   C4B66034  15.761  30.304   7.403
 5193POPC   NC366035   4.230  34.440   5.517
 5193POPC   PO466036   4.252  35.151   5.516
 5193POPC   GL166037   4.309  34.892   5.938
 5193POPC   GL266038   4.174  34.533   5.998
 5193POPC   C1A66039   4.234  34.786   6.411
 5193POPC   D2A66040   4.333  34.450   6.698
 5193POPC   C3A66041   4.561  34.697   6.966
 5193POPC   C4A66042   4.252  34.968   6.917
 5193POPC   C1B66043   3.998  34.276   6.340
 5193POPC   C2B66044   3.821  34.402   6.746
 5193POPC   C3B66045   4.063  34.449   7.148
 5193POPC   C4B66046   4.171  34.237   7.556
 5194POPC   NC366047   3.276  34.688   5.353
 5194POPC   PO466048   3.789  34.265   5.534
 5194POPC   GL166049   3.630  34.527   5.893
 5194POPC   GL266050   3.273  34.695   5.894
 5194POPC   C1A66051   3.688  34.712   6.317
 5194POPC   D2A66052   3.443  34.885   6.702
 5194POPC   C3A66053   3.642  34.756   7.085
 5194POPC   C4A66054   3.490  34.343   7.199
 5194POPC   C1B66055   3.284  34.406   6.279
 5194POPC   C2B66056   3.159  34.418   6.726
 5194POPC   C3B66057   3.137  34.722   7.077
 5194POPC   C4B66058   3.285  34.779   7.493
 5195POPC   NC366059   0.969  38.704   5.509
 5195POPC   PO466060   1.256  38.082   5.499
 5195POPC   GL166061   1.382  38.249   5.907
 5195POPC   GL266062   1.150  38.506   5.943
 5195POPC   C1A66063   1.422  38.350   6.359
 5195POPC   D2A66064   1.147  38.473   6.702
 5195POPC   C3A66065   1.346  38.384   7.086
 5195POPC   C4A66066   1.734  38.478   7.268
 5195POPC   C1B66067   0.940  38.236   6.271
 5195POPC   C2B66068   0.732  38.185   6.672
 5195POPC   C3B66069   0.922  38.085   7.077
 5195POPC   C4B66070   0.949  38.261   7.514
 5196POPC   NC366071   1.655  20.806   5.499
 5196POPC   PO466072   2.215  20.453   5.370
 5196POPC   GL166073   2.087  20.688   5.764
 5196POPC   GL266074   1.859  20.415   5.854
 5196POPC   C1A66075   2.117  20.703   6.236
 5196POPC   D2A66076   2.382  20.516   6.583
 5196POPC   C3A66077   2.268  20.648   7.019
 5196POPC   C4A66078   2.246  20.608   7.490
 5196POPC   C1B66079   1.996  20.205   6.248
 5196POPC   C2B66080   1.906  20.312   6.691
 5196POPC   C3B66081   1.789  20.450   7.104
 5196POPC   C4B66082   1.729  20.700   7.476
 5197POPC   NC366083   2.748   1.305   5.560
 5197POPC   PO466084   3.093   0.641   5.513
 5197POPC   GL166085   3.137   0.929   5.832
 5197POPC   GL266086   2.783   0.850   5.874
 5197POPC   C1A66087   3.003   1.237   6.155
 5197POPC   D2A66088   3.009   1.162   6.584
 5197POPC   C3A66089   2.877   1.459   6.826
 5197POPC   C4A66090   2.888   1.458   7.249
 5197POPC   C1B66091   2.551   0.991   6.223
 5197POPC   C2B66092   2.490   1.207   6.608
 5197POPC   C3B66093   2.619   1.069   7.024
 5197POPC   C4B66094   2.333   0.907   7.293
 5198POPC   NC366095  16.084  28.917   5.310
 5198POPC   PO466096  16.098  28.265   5.338
 5198POPC   GL166097  16.097  28.174   5.767
 5198POPC   GL266098  16.194  27.823   5.746
 5198POPC   C1A66099  16.097  28.390   6.208
 5198POPC   D2A66100  16.048  28.621   6.626
 5198POPC   C3A66101  15.916  28.373   7.023
 5198POPC   C4A66102  15.839  28.352   7.494
 5198POPC   C1B66103  15.936  27.849   6.128
 5198POPC   C2B66104  16.024  27.988   6.552
 5198POPC   C3B66105  16.224  27.924   6.937
 5198POPC   C4B66106  16.208  28.038   7.332
 5199POPC   NC366107  12.963   9.252   5.542
 5199POPC   PO466108  12.396   8.764   5.610
 5199POPC   GL166109  12.630   8.713   5.987
 5199POPC   GL266110  12.885   8.948   5.945
 5199POPC   C1A66111  12.919   8.665   6.370
 5199POPC   D2A66112  13.126   8.902   6.685
 5199POPC   C3A66113  12.925   8.810   7.068
 5199POPC   C4A66114  12.546   8.629   7.167
 5199POPC   C1B66115  12.879   9.309   6.222
 5199POPC   C2B66116  13.067   9.458   6.621
 5199POPC   C3B66117  13.189   9.277   7.035
 5199POPC   C4B66118  13.443   8.890   7.097
 5200POPC   NC366119   0.240  32.096   5.432
 5200POPC   PO466120   0.696  32.626   5.424
 5200POPC   GL166121   0.538  32.335   5.776
 5200POPC   GL266122   0.156  32.374   5.888
 5200POPC   C1A66123   0.501  32.126   6.176
 5200POPC   D2A66124   0.267  32.235   6.557
 5200POPC   C3A66125   0.577  32.184   6.905
 5200POPC   C4A66126   0.783  32.462   7.160
 5200POPC   C1B66127  44.888  32.487   6.292
 5200POPC   C2B66128  44.890  32.490   6.783
 5200POPC   C3B66129   0.148  32.269   7.150
 5200POPC   C4B66130   0.152  32.211   7.617
 5201POPC   NC366131  32.622   8.460   5.443
 5201POPC   PO466132  32.110   8.031   5.349
 5201POPC   GL166133  32.318   8.115   5.736
 5201POPC   GL266134  32.543   7.851   5.832
 5201POPC   C1A66135  32.141   8.233   6.145
 5201POPC   D2A66136  32.327   8.335   6.563
 5201POPC   C3A66137  32.122   8.219   6.949
 5201POPC   C4A66138  32.226   8.430   7.322
 5201POPC   C1B66139  32.570   7.987   6.229
 5201POPC   C2B66140  32.696   7.949   6.633
 5201POPC   C3B66141  32.578   8.039   7.057
 5201POPC   C4B66142  32.456   7.994   7.478
 5202POPC   NC366143  26.035  31.721   5.480
 5202POPC   PO466144  26.295  31.134   5.462
 5202POPC   GL166145  26.181  31.322   5.833
 5202POPC   GL266146  26.398  31.593   5.815
 5202POPC   C1A66147  25.912  31.424   6.193
 5202POPC   D2A66148  25.776  31.248   6.578
 5202POPC   C3A66149  25.891  31.532   6.916
 5202POPC   C4A66150  25.738  31.758   7.248
 5202POPC   C1B66151  26.352  31.668   6.221
 5202POPC   C2B66152  26.261  31.398   6.583
 5202POPC   C3B66153  26.345  31.311   6.997
 5202POPC   C4B66154  26.211  31.536   7.337
 5203POPC   NC366155  36.527   2.581   5.416
 5203POPC   PO466156  35.874   2.783   5.405
 5203POPC   GL166157  36.079   2.870   5.823
 5203POPC   GL266158  36.278   2.617   5.866
 5203POPC   C1A66159  36.162   2.910   6.265
 5203POPC   D2A66160  36.437   3.043   6.546
 5203POPC   C3A66161  36.261   2.958   6.908
 5203POPC   C4A66162  36.163   3.114   7.322
 5203POPC   C1B66163  35.872   2.521   6.124
 5203POPC   C2B66164  35.802   2.480   6.585
 5203POPC   C3B66165  36.010   2.362   6.980
 5203POPC   C4B66166  36.221   2.615   7.301
 5204POPC   NC366167  39.779  34.251   5.426
 5204POPC   PO466168  40.266  34.845   5.505
 5204POPC   GL166169  40.064  34.551   5.808
 5204POPC   GL266170  39.797  34.713   6.002
 5204POPC   C1A66171  40.135  34.414   6.250
 5204POPC   D2A66172  40.424  34.393   6.591
 5204POPC   C3A66173  40.216  34.371   6.995
 5204POPC   C4A66174  39.814  34.500   7.108
 5204POPC   C1B66175  40.159  34.945   6.185
 5204POPC   C2B66176  40.280  34.886   6.626
 5204POPC   C3B66177  40.183  34.869   7.064
 5204POPC   C4B66178  40.304  35.042   7.461
 5205POPC   NC366179  34.842  35.115   5.366
 5205POPC   PO466180  34.401  35.635   5.131
 5205POPC   GL166181  34.540  35.534   5.625
 5205POPC   GL266182  34.457  35.198   5.780
 5205POPC   C1A66183  34.506  35.553   6.125
 5205POPC   D2A66184  34.614  35.368   6.529
 5205POPC   C3A66185  34.324  35.400   6.879
 5205POPC   C4A66186  34.397  35.388   7.331
 5205POPC   C1B66187  34.467  34.995   6.200
 5205POPC   C2B66188  34.384  34.925   6.668
 5205POPC   C3B66189  34.600  34.992   7.072
 5205POPC   C4B66190  34.492  34.887   7.507
 5206POPC   NC366191   6.121   3.394   5.470
 5206POPC   PO466192   5.616   3.822   5.415
 5206POPC   GL166193   5.915   3.778   5.825
 5206POPC   GL266194   6.187   3.553   5.938
 5206POPC   C1A66195   5.826   3.625   6.268
 5206POPC   D2A66196   5.627   3.409   6.604
 5206POPC   C3A66197   5.797   3.572   6.991
 5206POPC   C4A66198   5.712   3.518   7.416
 5206POPC   C1B66199   6.339   3.350   6.322
 5206POPC   C2B66200   6.283   3.372   6.798
 5206POPC   C3B66201   6.443   3.524   7.221
 5206POPC   C4B66202   6.242   3.583   7.639
 5207POPC   NC366203  19.694  32.876   5.515
 5207POPC   PO466204  20.266  33.259   5.487
 5207POPC   GL166205  20.092  33.016   5.836
 5207POPC   GL266206  20.041  32.629   5.807
 5207POPC   C1A66207  19.804  33.119   6.189
 5207POPC   D2A66208  19.523  33.309   6.490
 5207POPC   C3A66209  19.688  33.202   6.891
 5207POPC   C4A66210  19.707  33.095   7.268
 5207POPC   C1B66211  20.121  32.697   6.247
 5207POPC   C2B66212  19.899  32.810   6.633
 5207POPC   C3B66213  19.710  32.634   7.006
 5207POPC   C4B66214  20.024  32.353   7.149
 5208POPC   NC366215  13.913  25.010   5.535
 5208POPC   PO466216  13.417  25.516   5.396
 5208POPC   GL166217  13.593  25.349   5.816
 5208POPC   GL266218  13.501  24.989   5.868
 5208POPC   C1A66219  13.804  25.485   6.233
 5208POPC   D2A66220  13.838  25.743   6.593
 5208POPC   C3A66221  13.702  25.561   6.951
 5208POPC   C4A66222  14.014  25.425   7.222
 5208POPC   C1B66223  13.744  24.976   6.254
 5208POPC   C2B66224  13.886  25.148   6.649
 5208POPC   C3B66225  13.700  25.052   7.041
 5208POPC   C4B66226  13.330  24.830   7.237
 5209POPC   NC366227   8.235  39.045   5.373
 5209POPC   PO466228   8.196  39.560   5.690
 5209POPC   GL166229   8.279  39.298   5.922
 5209POPC   GL266230   8.013  39.093   5.840
 5209POPC   C1A66231   8.340  39.401   6.327
 5209POPC   D2A66232   8.225  39.233   6.689
 5209POPC   C3A66233   8.480  39.325   7.002
 5209POPC   C4A66234   8.421  39.535   7.396
 5209POPC   C1B66235   8.082  38.951   6.234
 5209POPC   C2B66236   7.820  38.950   6.561
 5209POPC   C3B66237   7.839  38.908   6.969
 5209POPC   C4B66238   8.018  39.221   7.216
 5210POPC   NC366239  39.428  28.508   5.460
 5210POPC   PO466240  39.173  27.847   5.458
 5210POPC   GL166241  39.153  28.161   5.787
 5210POPC   GL266242  38.982  28.497   5.807
 5210POPC   C1A66243  39.287  28.306   6.194
 5210POPC   D2A66244  39.414  28.170   6.615
 5210POPC   C3A66245  39.263  28.424   6.960
 5210POPC   C4A66246  39.495  28.587   7.301
 5210POPC   C1B66247  38.789  28.260   6.174
 5210POPC   C2B66248  38.913  28.269   6.605
 5210POPC   C3B66249  38.815  28.215   7.043
 5210POPC   C4B66250  39.036  28.400   7.437
 5211POPC   NC366251  43.035   8.085   5.493
 5211POPC   PO466252  43.247   8.642   5.172
 5211POPC   GL166253  43.182   8.598   5.697
 5211POPC   GL266254  43.213   8.276   5.925
 5211POPC   C1A66255  43.418   8.657   6.164
 5211POPC   D2A66256  43.199   8.370   6.494
 5211POPC   C3A66257  43.281   8.279   6.954
 5211POPC   C4A66258  43.002   8.402   7.336
 5211POPC   C1B66259  42.819   8.191   6.162
 5211POPC   C2B66260  42.616   8.101   6.550
 5211POPC   C3B66261  42.779   8.191   6.929
 5211POPC   C4B66262  42.957   7.905   7.286
 5212POPC   NC366263  12.785  33.051   5.249
 5212POPC   PO466264  13.263  32.598   5.349
 5212POPC   GL166265  13.197  32.745   5.891
 5212POPC   GL266266  12.834  32.802   6.094
 5212POPC   C1A66267  13.187  33.097   6.230
 5212POPC   D2A66268  12.939  32.944   6.597
 5212POPC   C3A66269  13.154  32.982   6.984
 5212POPC   C4A66270  13.256  33.377   7.128
 5212POPC   C1B66271  12.487  32.769   6.379
 5212POPC   C2B66272  12.444  32.765   6.825
 5212POPC   C3B66273  12.444  32.672   7.255
 5212POPC   C4B66274  12.839  32.776   7.342
 5213POPC   NC366275  43.604  16.401   5.459
 5213POPC   PO466276  44.130  16.695   5.726
 5213POPC   GL166277  43.744  16.705   5.912
 5213POPC   GL266278  43.742  16.370   5.970
 5213POPC   C1A66279  43.639  16.677   6.360
 5213POPC   D2A66280  43.465  16.597   6.774
 5213POPC   C3A66281  43.762  16.770   7.067
 5213POPC   C4A66282  43.850  17.020   7.426
 5213POPC   C1B66283  44.122  16.418   6.287
 5213POPC   C2B66284  44.239  16.568   6.702
 5213POPC   C3B66285  44.055  16.343   7.019
 5213POPC   C4B66286  43.662  16.246   7.113
 5214POPC   NC366287   0.257  21.070   5.050
 5214POPC   PO466288   0.443  20.556   5.448
 5214POPC   GL166289   0.041  20.578   5.641
 5214POPC   GL266290   0.008  20.236   5.730
 5214POPC   C1A66291  44.943  20.754   6.076
 5214POPC   D2A66292   0.200  20.911   6.456
 5214POPC   C3A66293   0.099  20.822   6.892
 5214POPC   C4A66294   0.304  20.720   7.272
 5214POPC   C1B66295   0.253  20.333   6.086
 5214POPC   C2B66296   0.259  20.293   6.531
 5214POPC   C3B66297   0.486  20.427   6.873
 5214POPC   C4B66298   0.598  20.286   7.263
 5215POPC   NC366299  30.296  19.317   5.561
 5215POPC   PO466300  30.764  18.896   5.429
 5215POPC   GL166301  30.644  18.976   5.827
 5215POPC   GL266302  30.402  18.755   5.881
 5215POPC   C1A66303  30.749  19.030   6.264
 5215POPC   D2A66304  30.685  19.263   6.647
 5215POPC   C3A66305  30.481  19.182   7.062
 5215POPC   C4A66306  30.903  19.204   7.289
 5215POPC   C1B66307  30.537  18.554   6.219
 5215POPC   C2B66308  30.517  18.723   6.627
 5215POPC   C3B66309  30.770  18.777   6.961
 5215POPC   C4B66310  30.616  18.790   7.372
 5216POPC   NC366311  16.527  28.022   5.364
 5216POPC   PO466312  17.065  28.443   5.521
 5216POPC   GL166313  16.954  28.164   5.837
 5216POPC   GL266314  16.606  28.210   5.838
 5216POPC   C1A66315  16.925  28.140   6.295
 5216POPC   D2A66316  16.946  28.484   6.637
 5216POPC   C3A66317  16.936  28.423   7.074
 5216POPC   C4A66318  16.685  28.111   7.192
 5216POPC   C1B66319  16.430  28.006   6.194
 5216POPC   C2B66320  16.519  28.171   6.614
 5216POPC   C3B66321  16.420  28.456   6.936
 5216POPC   C4B66322  16.276  28.555   7.340
 5217POPC   NC366323  22.659   6.276   5.595
 5217POPC   PO466324  23.227   6.662   5.528
 5217POPC   GL166325  22.957   6.624   5.864
 5217POPC   GL266326  22.797   6.892   6.082
 5217POPC   C1A66327  23.096   6.529   6.263
 5217POPC   D2A66328  22.888   6.551   6.630
 5217POPC   C3A66329  23.160   6.686   6.902
 5217POPC   C4A66330  23.119   6.577   7.292
 5217POPC   C1B66331  22.593   6.440   6.224
 5217POPC   C2B66332  22.373   6.401   6.620
 5217POPC   C3B66333  22.541   6.573   7.021
 5217POPC   C4B66334  22.710   6.317   7.388
 5218POPC   NC366335  15.567   9.694   5.421
 5218POPC   PO466336  16.265   9.745   5.412
 5218POPC   GL166337  16.079   9.889   5.837
 5218POPC   GL266338  15.724   9.794   5.912
 5218POPC   C1A66339  16.063   9.784   6.323
 5218POPC   D2A66340  16.315   9.670   6.725
 5218POPC   C3A66341  16.083   9.515   7.082
 5218POPC   C4A66342  15.784   9.692   7.359
 5218POPC   C1B66343  15.553  10.066   6.249
 5218POPC   C2B66344  15.586  10.238   6.620
 5218POPC   C3B66345  15.704  10.025   6.965
 5218POPC   C4B66346  15.754  10.208   7.320
 5219POPC   NC366347   1.804   3.789   5.504
 5219POPC   PO466348   2.282   3.363   5.334
 5219POPC   GL166349   2.071   3.435   5.761
 5219POPC   GL266350   2.161   3.767   5.923
 5219POPC   C1A66351   1.845   3.471   6.192
 5219POPC   D2A66352   1.955   3.714   6.588
 5219POPC   C3A66353   1.890   3.545   7.027
 5219POPC   C4A66354   1.772   3.425   7.510
 5219POPC   C1B66355   2.357   3.453   6.200
 5219POPC   C2B66356   2.614   3.347   6.553
 5219POPC   C3B66357   2.431   3.476   6.940
 5219POPC   C4B66358   2.253   3.362   7.327
 5220POPC   NC366359  44.400   7.397   5.383
 5220POPC   PO466360   0.078   7.595   5.457
 5220POPC   GL166361  44.727   7.469   5.790
 5220POPC   GL266362  44.607   7.092   5.805
 5220POPC   C1A66363  44.665   7.643   6.206
 5220POPC   D2A66364  44.946   7.668   6.555
 5220POPC   C3A66365  44.731   7.577   6.952
 5220POPC   C4A66366  44.578   7.792   7.318
 5220POPC   C1B66367  44.477   7.165   6.235
 5220POPC   C2B66368  44.418   7.216   6.674
 5220POPC   C3B66369  44.636   7.064   7.037
 5220POPC   C4B66370  44.686   7.290   7.403
 5221POPC   NC366371  17.337  44.695   5.416
 5221POPC   PO466372  18.021  44.844   5.248
 5221POPC   GL166373  17.785  44.853   5.662
 5221POPC   GL266374  17.689  44.476   5.742
 5221POPC   C1A66375  17.605  44.992   6.081
 5221POPC   D2A66376  17.634   0.015   6.550
 5221POPC   C3A66377  17.438  44.713   6.860
 5221POPC   C4A66378  17.248  44.826   7.250
 5221POPC   C1B66379  17.902  44.338   6.147
 5221POPC   C2B66380  17.847  44.524   6.555
 5221POPC   C3B66381  17.805  44.336   6.960
 5221POPC   C4B66382  17.584  44.428   7.314
 5222POPC   NC366383  32.158  21.204   5.381
 5222POPC   PO466384  32.614  21.679   5.436
 5222POPC   GL166385  32.341  21.494   5.795
 5222POPC   GL266386  32.553  21.430   6.013
 5222POPC   C1A66387  32.138  21.333   6.272
 5222POPC   D2A66388  31.920  21.524   6.649
 5222POPC   C3A66389  31.708  21.235   6.918
 5222POPC   C4A66390  32.004  21.029   7.055
 5222POPC   C1B66391  32.452  21.725   6.322
 5222POPC   C2B66392  32.575  21.729   6.736
 5222POPC   C3B66393  32.341  21.447   6.994
 5222POPC   C4B66394  31.967  21.573   7.201
 5223POPC   NC366395  17.803  43.612   5.461
 5223POPC   PO466396  17.394  44.224   5.332
 5223POPC   GL166397  17.426  43.918   5.654
 5223POPC   GL266398  17.089  43.853   5.647
 5223POPC   C1A66399  17.623  43.885   6.081
 5223POPC   D2A66400  17.696  43.980   6.537
 5223POPC   C3A66401  17.545  43.664   6.858
 5223POPC   C4A66402  17.677  43.648   7.287
 5223POPC   C1B66403  17.059  43.889   6.102
 5223POPC   C2B66404  17.172  43.888   6.544
 5223POPC   C3B66405  17.332  44.124   6.903
 5223POPC   C4B66406  17.342  44.002   7.307
 5224POPC   NC366407   0.959  11.015   5.439
 5224POPC   PO466408   1.595  11.187   5.298
 5224POPC   GL166409   1.382  11.086   5.713
 5224POPC   GL266410   1.122  11.354   5.789
 5224POPC   C1A66411   1.399  11.218   6.179
 5224POPC   D2A66412   1.138  11.281   6.533
 5224POPC   C3A66413   1.330  11.242   6.941
 5224POPC   C4A66414   1.310  11.523   7.277
 5224POPC   C1B66415   1.046  11.663   6.115
 5224POPC   C2B66416   0.937  11.764   6.532
 5224POPC   C3B66417   0.913  11.573   6.918
 5224POPC   C4B66418   0.837  11.691   7.331
 5225POPC   NC366419  15.750  18.471   5.231
 5225POPC   PO466420  16.048  17.938   5.560
 5225POPC   GL166421  15.882  18.238   5.867
 5225POPC   GL266422  15.582  18.454   5.726
 5225POPC   C1A66423  15.959  18.295   6.291
 5225POPC   D2A66424  16.075  18.205   6.693
 5225POPC   C3A66425  16.046  18.476   7.046
 5225POPC   C4A66426  16.090  18.336   7.461
 5225POPC   C1B66427  15.595  18.622   6.128
 5225POPC   C2B66428  15.685  18.632   6.576
 5225POPC   C3B66429  15.560  18.675   7.008
 5225POPC   C4B66430  15.617  18.518   7.435
 5226POPC   NC366431  26.552  20.637   5.215
 5226POPC   PO466432  25.976  20.474   5.593
 5226POPC   GL166433  25.909  20.657   5.945
 5226POPC   GL266434  25.641  20.440   5.960
 5226POPC   C1A66435  26.069  20.762   6.363
 5226POPC   D2A66436  26.462  20.842   6.554
 5226POPC   C3A66437  26.431  20.715   6.933
 5226POPC   C4A66438  26.223  20.790   7.286
 5226POPC   C1B66439  25.847  20.298   6.305
 5226POPC   C2B66440  25.660  20.539   6.633
 5226POPC   C3B66441  25.849  20.606   6.990
 5226POPC   C4B66442  25.932  20.362   7.342
 5227POPC   NC366443   7.977  42.177   5.458
 5227POPC   PO466444   8.409  42.551   5.134
 5227POPC   GL166445   8.402  42.522   5.615
 5227POPC   GL266446   8.340  42.829   5.811
 5227POPC   C1A66447   8.299  42.380   6.080
 5227POPC   D2A66448   8.093  42.623   6.461
 5227POPC   C3A66449   8.002  42.478   6.904
 5227POPC   C4A66450   7.968  42.592   7.363
 5227POPC   C1B66451   8.548  42.830   6.225
 5227POPC   C2B66452   8.596  42.601   6.649
 5227POPC   C3B66453   8.462  42.591   7.092
 5227POPC   C4B66454   8.443  42.489   7.509
 5228POPC   NC366455  41.864  40.120   5.434
 5228POPC   PO466456  42.418  39.722   5.471
 5228POPC   GL166457  42.324  39.823   5.914
 5228POPC   GL266458  42.006  40.004   5.914
 5228POPC   C1A66459  42.206  39.806   6.371
 5228POPC   D2A66460  42.310  40.103   6.704
 5228POPC   C3A66461  42.408  39.839   7.088
 5228POPC   C4A66462  42.461  39.875   7.528
 5228POPC   C1B66463  42.069  40.282   6.255
 5228POPC   C2B66464  41.951  40.517   6.633
 5228POPC   C3B66465  41.978  40.299   7.016
 5228POPC   C4B66466  42.363  40.315   7.228
 5229POPC   NC366467  19.695  40.348   5.353
 5229POPC   PO466468  19.953  41.011   5.283
 5229POPC   GL166469  20.032  40.928   5.738
 5229POPC   GL266470  20.238  40.624   5.775
 5229POPC   C1A66471  19.803  40.922   6.165
 5229POPC   D2A66472  19.586  40.761   6.560
 5229POPC   C3A66473  19.805  40.805   6.953
 5229POPC   C4A66474  20.019  41.008   7.290
 5229POPC   C1B66475  20.111  40.523   6.207
 5229POPC   C2B66476  19.992  40.400   6.635
 5229POPC   C3B66477  20.154  40.429   7.028
 5229POPC   C4B66478  19.914  40.507   7.399
 5230POPC   NC366479   0.351   8.797   5.476
 5230POPC   PO466480   0.241   9.468   5.503
 5230POPC   GL166481   0.358   9.168   5.857
 5230POPC   GL266482   0.188   8.841   5.969
 5230POPC   C1A66483   0.558   9.178   6.273
 5230POPC   D2A66484   0.480   8.847   6.586
 5230POPC   C3A66485   0.725   8.714   6.943
 5230POPC   C4A66486   0.726   8.917   7.338
 5230POPC   C1B66487   0.039   9.174   6.261
 5230POPC   C2B66488   0.142   9.249   6.669
 5230POPC   C3B66489   0.324   9.063   7.044
 5230POPC   C4B66490   0.317   9.242   7.474
 5231POPC   NC366491  24.413  29.168   5.085
 5231POPC   PO466492  24.590  29.005   5.671
 5231POPC   GL166493  24.637  29.172   6.018
 5231POPC   GL266494  24.435  29.424   5.919
 5231POPC   C1A66495  24.798  29.277   6.406
 5231POPC   D2A66496  24.851  29.423   6.809
 5231POPC   C3A66497  24.643  29.158   7.011
 5231POPC   C4A66498  24.416  29.017   7.343
 5231POPC   C1B66499  24.286  29.490   6.288
 5231POPC   C2B66500  24.351  29.406   6.687
 5231POPC   C3B66501  24.164  29.385   7.082
 5231POPC   C4B66502  24.132  29.357   7.559
 5232POPC   NC366503  26.092  36.818   5.487
 5232POPC   PO466504  26.638  37.145   5.298
 5232POPC   GL166505  26.382  37.152   5.739
 5232POPC   GL266506  26.003  37.251   5.775
 5232POPC   C1A66507  26.171  36.901   6.125
 5232POPC   D2A66508  26.017  36.862   6.598
 5232POPC   C3A66509  26.146  36.827   7.058
 5232POPC   C4A66510  25.927  36.874   7.461
 5232POPC   C1B66511  26.064  37.402   6.222
 5232POPC   C2B66512  26.092  37.370   6.684
 5232POPC   C3B66513  26.000  37.318   7.132
 5232POPC   C4B66514  25.981  37.406   7.561
 5233POPC   NC366515   6.417   5.665   5.587
 5233POPC   PO466516   6.648   6.239   5.348
 5233POPC   GL166517   6.765   5.950   5.795
 5233POPC   GL266518   6.506   5.816   6.039
 5233POPC   C1A66519   6.933   5.803   6.260
 5233POPC   D2A66520   6.742   5.703   6.665
 5233POPC   C3A66521   6.950   5.906   6.985
 5233POPC   C4A66522   6.768   5.957   7.358
 5233POPC   C1B66523   6.414   6.048   6.369
 5233POPC   C2B66524   6.178   5.872   6.680
 5233POPC   C3B66525   6.344   5.778   7.070
 5233POPC   C4B66526   6.258   6.065   7.387
 5234POPC   NC366527  18.936  21.013   5.447
 5234POPC   PO466528  19.030  20.491   5.079
 5234POPC   GL166529  19.047  20.508   5.579
 5234POPC   GL266530  18.720  20.605   5.744
 5234POPC   C1A66531  19.090  20.546   6.075
 5234POPC   D2A66532  18.888  20.309   6.450
 5234POPC   C3A66533  18.832  20.516   6.866
 5234POPC   C4A66534  19.155  20.800   7.073
 5234POPC   C1B66535  18.599  20.660   6.211
 5234POPC   C2B66536  18.624  20.967   6.543
 5234POPC   C3B66537  18.479  20.978   6.960
 5234POPC   C4B66538  18.698  20.838   7.270
 5235POPC   NC366539  40.216  43.873   5.359
 5235POPC   PO466540  39.604  43.733   5.536
 5235POPC   GL166541  39.950  43.854   5.839
 5235POPC   GL266542  40.271  44.077   5.810
 5235POPC   C1A66543  39.890  43.698   6.261
 5235POPC   D2A66544  39.674  43.720   6.659
 5235POPC   C3A66545  39.948  43.725   7.051
 5235POPC   C4A66546  39.867  43.505   7.455
 5235POPC   C1B66547  40.079  44.211   6.185
 5235POPC   C2B66548  40.044  44.060   6.587
 5235POPC   C3B66549  40.056  44.317   6.915
 5235POPC   C4B66550  40.134  44.199   7.293
 5236POPC   NC366551   2.427   2.934   5.416
 5236POPC   PO466552   1.808   2.489   5.430
 5236POPC   GL166553   1.993   2.659   5.792
 5236POPC   GL266554   1.675   2.705   5.960
 5236POPC   C1A66555   2.111   3.011   6.081
 5236POPC   D2A66556   2.108   3.162   6.525
 5236POPC   C3A66557   2.013   2.866   6.830
 5236POPC   C4A66558   1.874   3.058   7.179
 5236POPC   C1B66559   1.850   2.651   6.351
 5236POPC   C2B66560   1.606   2.563   6.683
 5236POPC   C3B66561   1.569   2.667   7.097
 5236POPC   C4B66562   1.873   2.639   7.460
 5237POPC   NC366563  19.431  26.326   5.120
 5237POPC   PO466564  19.065  25.974   5.560
 5237POPC   GL166565  18.894  25.997   5.915
 5237POPC   GL266566  18.933  26.340   5.917
 5237POPC   C1A66567  19.045  26.030   6.313
 5237POPC   D2A66568  18.830  26.061   6.663
 5237POPC   C3A66569  19.136  25.875   6.856
 5237POPC   C4A66570  19.151  25.897   7.265
 5237POPC   C1B66571  18.821  26.491   6.275
 5237POPC   C2B66572  18.944  26.599   6.660
 5237POPC   C3B66573  19.055  26.358   7.027
 5237POPC   C4B66574  19.275  26.378   7.389
 5238POPC   NC366575  41.691  38.550   5.643
 5238POPC   PO466576  41.014  38.285   5.573
 5238POPC   GL166577  41.345  38.256   5.835
 5238POPC   GL266578  41.308  38.584   5.944
 5238POPC   C1A66579  41.675  38.147   6.172
 5238POPC   D2A66580  41.814  38.135   6.591
 5238POPC   C3A66581  41.589  38.397   6.867
 5238POPC   C4A66582  41.509  38.464   7.299
 5238POPC   C1B66583  41.548  38.626   6.322
 5238POPC   C2B66584  41.669  38.914   6.616
 5238POPC   C3B66585  41.697  38.877   7.048
 5238POPC   C4B66586  41.552  38.954   7.459
 5239POPC   NC366587  27.958  22.117   5.291
 5239POPC   PO466588  28.358  21.702   5.595
 5239POPC   GL166589  28.501  22.002   5.887
 5239POPC   GL266590  28.265  22.275   5.943
 5239POPC   C1A66591  28.395  21.960   6.325
 5239POPC   D2A66592  28.308  22.224   6.669
 5239POPC   C3A66593  28.414  22.031   7.070
 5239POPC   C4A66594  28.296  22.060   7.505
 5239POPC   C1B66595  28.609  22.429   6.255
 5239POPC   C2B66596  28.706  22.625   6.651
 5239POPC   C3B66597  28.435  22.572   7.029
 5239POPC   C4B66598  28.462  22.554   7.492
 5240POPC   NC366599   0.888  34.498   5.496
 5240POPC   PO466600   1.464  34.132   5.444
 5240POPC   GL166601   1.238  34.356   5.841
 5240POPC   GL266602   0.990  34.647   5.973
 5240POPC   C1A66603   1.008  34.208   6.214
 5240POPC   D2A66604   1.111  34.388   6.595
 5240POPC   C3A66605   1.077  34.209   6.987
 5240POPC   C4A66606   1.329  34.367   7.306
 5240POPC   C1B66607   1.107  34.857   6.356
 5240POPC   C2B66608   1.013  34.855   6.803
 5240POPC   C3B66609   1.109  34.857   7.242
 5240POPC   C4B66610   1.042  34.970   7.686
 5241POPC   NC366611  33.980  22.085   5.518
 5241POPC   PO466612  33.434  21.772   5.511
 5241POPC   GL166613  33.665  21.956   5.899
 5241POPC   GL266614  33.733  22.319   5.916
 5241POPC   C1A66615  33.887  22.006   6.322
 5241POPC   D2A66616  33.752  22.178   6.751
 5241POPC   C3A66617  33.890  21.939   7.116
 5241POPC   C4A66618  34.082  21.816   7.512
 5241POPC   C1B66619  33.545  22.376   6.327
 5241POPC   C2B66620  33.360  22.612   6.696
 5241POPC   C3B66621  33.582  22.556   7.085
 5241POPC   C4B66622  33.794  22.343   7.418
 5242POPC   NC366623   8.762  42.786   5.344
 5242POPC   PO466624   9.022  43.361   5.137
 5242POPC   GL166625   8.955  43.203   5.651
 5242POPC   GL266626   8.875  42.855   5.818
 5242POPC   C1A66627   8.888  43.239   6.142
 5242POPC   D2A66628   8.921  43.012   6.550
 5242POPC   C3A66629   9.198  43.252   6.809
 5242POPC   C4A66630   9.163  43.216   7.258
 5242POPC   C1B66631   9.177  42.800   6.162
 5242POPC   C2B66632   9.389  42.769   6.572
 5242POPC   C3B66633   9.250  42.775   6.973
 5242POPC   C4B66634   9.446  42.792   7.362
 5243POPC   NC366635  40.148  18.379   5.593
 5243POPC   PO466636  39.741  17.845   5.472
 5243POPC   GL166637  39.752  18.125   5.860
 5243POPC   GL266638  39.721  18.495   5.855
 5243POPC   C1A66639  40.033  18.198   6.247
 5243POPC   D2A66640  40.392  18.222   6.563
 5243POPC   C3A66641  40.250  18.087   6.965
 5243POPC   C4A66642  39.830  18.075   7.140
 5243POPC   C1B66643  39.669  18.564   6.308
 5243POPC   C2B66644  40.007  18.571   6.624
 5243POPC   C3B66645  40.124  18.558   7.054
 5243POPC   C4B66646  39.895  18.541   7.440
 5244POPC   NC366647  32.242  33.376   5.186
 5244POPC   PO466648  32.793  32.992   5.214
 5244POPC   GL166649  32.455  32.871   5.636
 5244POPC   GL266650  32.147  33.023   5.810
 5244POPC   C1A66651  32.465  32.794   6.120
 5244POPC   D2A66652  32.341  32.972   6.540
 5244POPC   C3A66653  32.377  32.854   6.987
 5244POPC   C4A66654  32.440  33.154   7.325
 5244POPC   C1B66655  32.121  33.285   6.208
 5244POPC   C2B66656  32.120  33.437   6.649
 5244POPC   C3B66657  32.027  33.309   7.091
 5244POPC   C4B66658  32.012  33.336   7.558
 5245POPC   NC366659  37.974  14.189   5.423
 5245POPC   PO466660  37.388  14.562   5.525
 5245POPC   GL166661  37.641  14.340   5.783
 5245POPC   GL266662  37.871  14.625   5.748
 5245POPC   C1A66663  37.614  14.165   6.193
 5245POPC   D2A66664  37.370  14.304   6.552
 5245POPC   C3A66665  37.509  14.167   6.914
 5245POPC   C4A66666  37.456  14.277   7.313
 5245POPC   C1B66667  37.662  14.688   6.172
 5245POPC   C2B66668  37.729  14.731   6.628
 5245POPC   C3B66669  37.761  14.586   7.049
 5245POPC   C4B66670  37.979  14.261   7.258
 5246POPC   NC366671   1.800  24.888   5.563
 5246POPC   PO466672   2.280  24.338   5.532
 5246POPC   GL166673   2.099  24.439   5.915
 5246POPC   GL266674   1.791  24.368   5.773
 5246POPC   C1A66675   2.000  24.227   6.326
 5246POPC   D2A66676   2.122  24.272   6.772
 5246POPC   C3A66677   2.121  24.420   7.204
 5246POPC   C4A66678   2.191  24.708   7.598
 5246POPC   C1B66679   1.653  24.572   6.151
 5246POPC   C2B66680   1.492  24.561   6.573
 5246POPC   C3B66681   1.661  24.503   6.971
 5246POPC   C4B66682   1.680  24.118   7.217
 5247POPC   NC366683  27.426  14.555   5.430
 5247POPC   PO466684  28.001  14.280   5.482
 5247POPC   GL166685  27.673  14.264   5.802
 5247POPC   GL266686  27.351  14.089   5.693
 5247POPC   C1A66687  27.656  14.555   6.163
 5247POPC   D2A66688  27.881  14.725   6.523
 5247POPC   C3A66689  27.783  14.564   6.953
 5247POPC   C4A66690  27.841  14.819   7.333
 5247POPC   C1B66691  27.228  14.249   6.092
 5247POPC   C2B66692  27.392  14.282   6.505
 5247POPC   C3B66693  27.314  14.299   6.939
 5247POPC   C4B66694  27.428  14.405   7.351
 5248POPC   NC366695  19.954  35.167   5.436
 5248POPC   PO466696  19.500  35.750   5.441
 5248POPC   GL166697  19.720  35.515   5.781
 5248POPC   GL266698  20.039  35.588   5.805
 5248POPC   C1A66699  19.703  35.387   6.232
 5248POPC   D2A66700  19.569  35.590   6.629
 5248POPC   C3A66701  19.688  35.344   6.999
 5248POPC   C4A66702  19.884  35.005   7.267
 5248POPC   C1B66703  20.188  35.522   6.235
 5248POPC   C2B66704  20.101  35.474   6.655
 5248POPC   C3B66705  20.258  35.260   7.015
 5248POPC   C4B66706  20.075  35.477   7.344
 5249POPC   NC366707  23.605   7.267   5.369
 5249POPC   PO466708  24.180   7.463   5.646
 5249POPC   GL166709  23.773   7.406   5.862
 5249POPC   GL266710  23.702   7.743   5.968
 5249POPC   C1A66711  23.635   7.364   6.310
 5249POPC   D2A66712  23.606   7.072   6.649
 5249POPC   C3A66713  23.319   7.166   6.984
 5249POPC   C4A66714  23.528   7.247   7.358
 5249POPC   C1B66715  24.056   7.669   6.278
 5249POPC   C2B66716  24.074   7.631   6.732
 5249POPC   C3B66717  23.788   7.637   7.086
 5249POPC   C4B66718  23.358   7.682   7.096
 5250POPC   NC366719   4.429  31.249   5.471
 5250POPC   PO466720   4.480  31.956   5.635
 5250POPC   GL166721   4.322  31.614   5.834
 5250POPC   GL266722   4.608  31.453   5.887
 5250POPC   C1A66723   4.153  31.459   6.199
 5250POPC   D2A66724   3.976  31.579   6.607
 5250POPC   C3A66725   4.325  31.641   6.894
 5250POPC   C4A66726   4.409  31.424   7.248
 5250POPC   C1B66727   4.617  31.194   6.201
 5250POPC   C2B66728   4.433  31.243   6.577
 5250POPC   C3B66729   4.635  31.090   6.913
 5250POPC   C4B66730   4.651  30.996   7.297
 5251POPC   NC366731  20.077  39.776   5.679
 5251POPC   PO466732  19.875  39.167   5.341
 5251POPC   GL166733  19.851  39.315   5.796
 5251POPC   GL266734  19.493  39.471   5.776
 5251POPC   C1A66735  20.100  39.327   6.267
 5251POPC   D2A66736  20.169  39.412   6.763
 5251POPC   C3A66737  20.074  39.061   7.106
 5251POPC   C4A66738  20.032  38.895   7.567
 5251POPC   C1B66739  19.662  39.579   6.196
 5251POPC   C2B66740  19.633  39.351   6.584
 5251POPC   C3B66741  19.687  39.388   7.018
 5251POPC   C4B66742  19.741  39.285   7.470
 5252POPC   NC366743  36.476   6.710   5.554
 5252POPC   PO466744  35.853   6.647   5.333
 5252POPC   GL166745  35.868   6.480   5.764
 5252POPC   GL266746  36.209   6.469   5.914
 5252POPC   C1A66747  35.803   6.713   6.132
 5252POPC   D2A66748  35.928   6.920   6.528
 5252POPC   C3A66749  35.849   6.772   6.954
 5252POPC   C4A66750  35.793   6.650   7.375
 5252POPC   C1B66751  36.153   6.450   6.366
 5252POPC   C2B66752  36.272   6.592   6.720
 5252POPC   C3B66753  36.344   6.916   6.987
 5252POPC   C4B66754  36.319   6.691   7.343
 5253POPC   NC366755   4.409  36.525   5.446
 5253POPC   PO466756   3.842  36.848   5.449
 5253POPC   GL166757   3.850  36.691   5.880
 5253POPC   GL266758   4.211  36.710   5.875
 5253POPC   C1A66759   4.021  36.738   6.330
 5253POPC   D2A66760   4.285  37.106   6.460
 5253POPC   C3A66761   4.293  37.084   6.901
 5253POPC   C4A66762   4.168  36.803   7.228
 5253POPC   C1B66763   4.525  36.648   6.211
 5253POPC   C2B66764   4.656  36.524   6.620
 5253POPC   C3B66765   4.647  36.679   7.032
 5253POPC   C4B66766   4.664  36.885   7.408
 5254POPC   NC366767   5.168  15.978   5.096
 5254POPC   PO466768   4.774  15.600   5.586
 5254POPC   GL166769   4.799  15.738   5.970
 5254POPC   GL266770   4.726  16.077   5.882
 5254POPC   C1A66771   5.032  15.895   6.316
 5254POPC   D2A66772   4.969  16.027   6.736
 5254POPC   C3A66773   5.291  16.047   7.039
 5254POPC   C4A66774   5.221  15.781   7.377
 5254POPC   C1B66775   4.589  16.398   6.135
 5254POPC   C2B66776   4.682  16.433   6.587
 5254POPC   C3B66777   4.581  16.259   7.035
 5254POPC   C4B66778   4.769  16.198   7.461
 5255POPC   NC366779  20.191  17.740   5.613
 5255POPC   PO466780  19.584  17.456   5.477
 5255POPC   GL166781  19.839  17.417   5.820
 5255POPC   GL266782  20.037  17.150   5.687
 5255POPC   C1A66783  19.850  17.612   6.226
 5255POPC   D2A66784  19.808  17.843   6.598
 5255POPC   C3A66785  19.781  17.600   6.910
 5255POPC   C4A66786  19.896  17.540   7.288
 5255POPC   C1B66787  20.017  17.054   6.130
 5255POPC   C2B66788  19.876  17.158   6.543
 5255POPC   C3B66789  20.035  17.171   6.972
 5255POPC   C4B66790  19.717  17.085   7.258
 5256POPC   NC366791   4.456  28.770   5.329
 5256POPC   PO466792   4.221  28.184   5.432
 5256POPC   GL166793   4.226  28.435   5.820
 5256POPC   GL266794   4.558  28.609   5.813
 5256POPC   C1A66795   4.058  28.369   6.257
 5256POPC   D2A66796   4.227  28.230   6.684
 5256POPC   C3A66797   4.185  28.348   7.114
 5256POPC   C4A66798   4.232  28.598   7.482
 5256POPC   C1B66799   4.515  28.864   6.188
 5256POPC   C2B66800   4.628  28.821   6.657
 5256POPC   C3B66801   4.660  28.534   7.039
 5256POPC   C4B66802   4.745  28.467   7.491
 5257POPC   NC366803   7.623  30.628   5.431
 5257POPC   PO466804   7.480  31.225   5.397
 5257POPC   GL166805   7.450  30.998   5.795
 5257POPC   GL266806   7.335  30.652   5.848
 5257POPC   C1A66807   7.623  31.001   6.223
 5257POPC   D2A66808   7.632  30.749   6.573
 5257POPC   C3A66809   7.650  30.947   6.914
 5257POPC   C4A66810   7.716  30.750   7.264
 5257POPC   C1B66811   7.214  30.678   6.274
 5257POPC   C2B66812   7.011  30.630   6.669
 5257POPC   C3B66813   7.230  30.710   7.050
 5257POPC   C4B66814   7.231  30.478   7.446
 5258POPC   NC366815  24.176   4.599   5.532
 5258POPC   PO466816  24.235   3.933   5.477
 5258POPC   GL166817  24.283   4.188   5.876
 5258POPC   GL266818  24.480   4.485   5.922
 5258POPC   C1A66819  24.194   4.338   6.305
 5258POPC   D2A66820  24.455   4.342   6.706
 5258POPC   C3A66821  24.363   4.170   7.128
 5258POPC   C4A66822  24.503   4.085   7.595
 5258POPC   C1B66823  24.718   4.494   6.273
 5258POPC   C2B66824  24.861   4.648   6.656
 5258POPC   C3B66825  24.807   4.577   7.102
 5258POPC   C4B66826  24.880   4.567   7.556
 5259POPC   NC366827   1.835   1.262   5.377
 5259POPC   PO466828   2.423   0.969   5.522
 5259POPC   GL166829   2.134   1.224   5.807
 5259POPC   GL266830   1.765   1.083   5.877
 5259POPC   C1A66831   2.086   1.246   6.258
 5259POPC   D2A66832   1.915   1.064   6.617
 5259POPC   C3A66833   2.102   1.223   6.965
 5259POPC   C4A66834   2.426   1.547   7.055
 5259POPC   C1B66835   1.567   1.264   6.250
 5259POPC   C2B66836   1.691   1.520   6.580
 5259POPC   C3B66837   1.512   1.342   6.918
 5259POPC   C4B66838   1.690   1.322   7.268
 5260POPC   NC366839   1.798  21.550   5.475
 5260POPC   PO466840   2.293  21.166   5.585
 5260POPC   GL166841   2.064  21.247   5.975
 5260POPC   GL266842   1.726  21.217   5.882
 5260POPC   C1A66843   1.820  21.453   6.346
 5260POPC   D2A66844   1.602  21.378   6.734
 5260POPC   C3A66845   1.882  21.415   7.081
 5260POPC   C4A66846   2.057  21.043   7.281
 5260POPC   C1B66847   1.692  20.975   6.267
 5260POPC   C2B66848   1.776  20.838   6.698
 5260POPC   C3B66849   1.570  20.974   7.081
 5260POPC   C4B66850   1.611  21.217   7.475
 5261POPC   NC366851  10.802  43.740   5.430
 5261POPC   PO466852  11.252  44.306   5.452
 5261POPC   GL166853  11.138  43.989   5.748
 5261POPC   GL266854  11.251  43.652   5.722
 5261POPC   C1A66855  11.093  43.939   6.183
 5261POPC   D2A66856  10.979  43.903   6.592
 5261POPC   C3A66857  11.266  43.899   6.933
 5261POPC   C4A66858  11.304  44.134   7.306
 5261POPC   C1B66859  11.364  43.423   6.100
 5261POPC   C2B66860  11.395  43.546   6.526
 5261POPC   C3B66861  11.432  43.410   6.957
 5261POPC   C4B66862  11.391  43.612   7.367
 5262POPC   NC366863  36.092   4.180   5.440
 5262POPC   PO466864  35.744   4.720   5.655
 5262POPC   GL166865  35.967   4.435   5.928
 5262POPC   GL266866  36.323   4.378   5.891
 5262POPC   C1A66867  36.004   4.410   6.400
 5262POPC   D2A66868  36.317   4.366   6.718
 5262POPC   C3A66869  36.137   4.381   7.124
 5262POPC   C4A66870  35.894   4.698   7.341
 5262POPC   C1B66871  36.281   4.029   6.214
 5262POPC   C2B66872  36.185   3.876   6.604
 5262POPC   C3B66873  36.353   3.919   7.005
 5262POPC   C4B66874  36.125   3.907   7.379
 5263POPC   NC366875  34.219  17.397   5.433
 5263POPC   PO466876  34.955  17.572   5.395
 5263POPC   GL166877  34.658  17.565   5.770
 5263POPC   GL266878  34.534  17.263   5.862
 5263POPC   C1A66879  34.612  17.560   6.265
 5263POPC   D2A66880  34.558  17.328   6.664
 5263POPC   C3A66881  34.606  17.451   7.118
 5263POPC   C4A66882  34.962  17.554   7.436
 5263POPC   C1B66883  34.284  17.142   6.269
 5263POPC   C2B66884  34.040  17.193   6.695
 5263POPC   C3B66885  34.145  17.240   7.155
 5263POPC   C4B66886  34.386  17.392   7.564
 5264POPC   NC366887  12.768  36.238   5.386
 5264POPC   PO466888  13.028  35.682   5.438
 5264POPC   GL166889  13.095  35.982   5.766
 5264POPC   GL266890  12.761  36.119   5.900
 5264POPC   C1A66891  13.148  35.973   6.201
 5264POPC   D2A66892  12.870  36.087   6.512
 5264POPC   C3A66893  12.997  36.117   6.940
 5264POPC   C4A66894  12.811  35.998   7.339
 5264POPC   C1B66895  12.549  36.404   6.208
 5264POPC   C2B66896  12.575  36.479   6.662
 5264POPC   C3B66897  12.518  36.315   7.080
 5264POPC   C4B66898  12.478  36.319   7.540
 5265POPC   NC366899  22.434  36.800   5.301
 5265POPC   PO466900  21.770  36.614   5.335
 5265POPC   GL166901  22.090  36.715   5.724
 5265POPC   GL266902  22.065  37.012   5.891
 5265POPC   C1A66903  22.130  36.658   6.227
 5265POPC   D2A66904  22.070  36.957   6.591
 5265POPC   C3A66905  22.239  36.933   7.037
 5265POPC   C4A66906  21.963  36.775   7.396
 5265POPC   C1B66907  21.809  37.298   6.151
 5265POPC   C2B66908  21.726  37.338   6.567
 5265POPC   C3B66909  22.033  37.386   6.892
 5265POPC   C4B66910  21.947  37.272   7.307
 5266POPC   NC366911  41.207   5.773   4.962
 5266POPC   PO466912  41.654   5.958   5.474
 5266POPC   GL166913  41.519   5.956   5.864
 5266POPC   GL266914  41.282   5.681   5.793
 5266POPC   C1A66915  41.721   5.993   6.278
 5266POPC   D2A66916  41.660   6.205   6.680
 5266POPC   C3A66917  41.878   6.120   7.102
 5266POPC   C4A66918  41.839   5.804   7.439
 5266POPC   C1B66919  41.597   5.500   6.098
 5266POPC   C2B66920  41.692   5.555   6.539
 5266POPC   C3B66921  41.607   5.682   6.960
 5266POPC   C4B66922  41.490   5.452   7.318
 5267POPC   NC366923  27.213   5.940   5.251
 5267POPC   PO466924  27.702   5.558   5.420
 5267POPC   GL166925  27.573   5.855   5.732
 5267POPC   GL266926  27.236   5.688   5.700
 5267POPC   C1A66927  27.648   6.042   6.184
 5267POPC   D2A66928  27.603   6.270   6.609
 5267POPC   C3A66929  27.784   6.138   7.014
 5267POPC   C4A66930  27.912   5.999   7.464
 5267POPC   C1B66931  27.202   5.810   6.115
 5267POPC   C2B66932  27.387   5.695   6.492
 5267POPC   C3B66933  27.399   5.824   6.875
 5267POPC   C4B66934  27.558   5.699   7.242
 5268POPC   NC366935  30.468  16.196   5.624
 5268POPC   PO466936  29.931  15.719   5.465
 5268POPC   GL166937  29.850  15.812   5.879
 5268POPC   GL266938  30.014  16.112   5.860
 5268POPC   C1A66939  29.751  15.903   6.325
 5268POPC   D2A66940  29.944  15.659   6.660
 5268POPC   C3A66941  29.931  15.826   7.074
 5268POPC   C4A66942  29.825  16.245   7.104
 5268POPC   C1B66943  30.200  16.170   6.246
 5268POPC   C2B66944  30.071  16.164   6.652
 5268POPC   C3B66945  30.327  16.179   7.004
 5268POPC   C4B66946  30.231  16.155   7.407
 5269POPC   NC366947  24.693  36.047   5.611
 5269POPC   PO466948  24.294  36.529   5.683
 5269POPC   GL166949  24.503  36.320   6.010
 5269POPC   GL266950  24.885  36.290   6.009
 5269POPC   C1A66951  24.440  36.069   6.352
 5269POPC   D2A66952  24.292  36.076   6.780
 5269POPC   C3A66953  24.539  36.394   6.981
 5269POPC   C4A66954  24.720  36.372   7.380
 5269POPC   C1B66955  24.846  36.383   6.427
 5269POPC   C2B66956  24.826  36.068   6.719
 5269POPC   C3B66957  24.712  35.909   7.115
 5269POPC   C4B66958  25.015  35.931   7.432
 5270POPC   NC366959  42.248  30.400   5.503
 5270POPC   PO466960  42.662  30.909   5.315
 5270POPC   GL166961  42.419  30.843   5.710
 5270POPC   GL266962  42.680  30.810   5.894
 5270POPC   C1A66963  42.229  30.721   6.152
 5270POPC   D2A66964  42.084  30.930   6.573
 5270POPC   C3A66965  42.093  30.629   6.904
 5270POPC   C4A66966  42.443  30.458   7.099
 5270POPC   C1B66967  42.701  31.045   6.220
 5270POPC   C2B66968  42.797  30.984   6.641
 5270POPC   C3B66969  42.491  30.946   6.966
 5270POPC   C4B66970  42.328  30.875   7.393
 5271POPC   NC366971  34.814   5.959   5.433
 5271POPC   PO466972  34.199   5.771   5.524
 5271POPC   GL166973  34.433   5.697   5.889
 5271POPC   GL266974  34.793   5.689   5.911
 5271POPC   C1A66975  34.404   5.939   6.267
 5271POPC   D2A66976  34.235   6.137   6.653
 5271POPC   C3A66977  34.546   5.983   6.967
 5271POPC   C4A66978  34.525   5.832   7.397
 5271POPC   C1B66979  35.011   5.461   6.257
 5271POPC   C2B66980  35.036   5.563   6.690
 5271POPC   C3B66981  34.967   5.506   7.135
 5271POPC   C4B66982  34.911   5.607   7.594
 5272POPC   NC366983   0.564   7.726   5.482
 5272POPC   PO466984   0.423   8.347   5.413
 5272POPC   GL166985   0.364   8.132   5.801
 5272POPC   GL266986   0.660   7.943   5.917
 5272POPC   C1A66987   0.423   8.330   6.206
 5272POPC   D2A66988   0.128   8.492   6.502
 5272POPC   C3A66989   0.254   8.488   6.928
 5272POPC   C4A66990   0.395   8.545   7.358
 5272POPC   C1B66991   0.382   7.803   6.235
 5272POPC   C2B66992   0.325   8.029   6.624
 5272POPC   C3B66993   0.516   8.041   7.015
 5272POPC   C4B66994   0.465   7.652   7.163
 5273POPC   NC366995   6.760  39.789   5.531
 5273POPC   PO466996   6.596  39.135   5.397
 5273POPC   GL166997   6.666  39.105   5.842
 5273POPC   GL266998   6.860  39.410   5.915
 5273POPC   C1A66999   6.447  39.160   6.243
 5273POPC   D2A67000   6.517  39.264   6.676
 5273POPC   C3A67001   6.454  39.019   7.063
 5273POPC   C4A67002   6.544  39.082   7.509
 5273POPC   C1B67003   6.686  39.629   6.273
 5273POPC   C2B67004   6.688  39.754   6.705
 5273POPC   C3B67005   6.678  39.502   7.094
 5273POPC   C4B67006   6.365  39.553   7.417
 5274POPC   NC367007   7.895  44.161   5.412
 5274POPC   PO467008   8.567  44.023   5.383
 5274POPC   GL167009   8.367  43.831   5.765
 5274POPC   GL267010   8.009  43.830   5.776
 5274POPC   C1A67011   8.254  43.837   6.223
 5274POPC   D2A67012   8.419  43.883   6.645
 5274POPC   C3A67013   8.387  43.536   6.901
 5274POPC   C4A67014   8.510  43.492   7.299
 5274POPC   C1B67015   7.784  44.019   6.131
 5274POPC   C2B67016   7.719  43.867   6.558
 5274POPC   C3B67017   7.931  43.799   6.961
 5274POPC   C4B67018   8.000  43.428   7.219
 5275POPC   NC367019  10.918  18.909   5.412
 5275POPC   PO467020  10.283  19.099   5.425
 5275POPC   GL167021  10.367  18.868   5.806
 5275POPC   GL267022  10.724  18.768   5.897
 5275POPC   C1A67023  10.249  18.854   6.221
 5275POPC   D2A67024  10.334  19.094   6.547
 5275POPC   C3A67025  10.307  18.870   6.923
 5275POPC   C4A67026  10.173  19.104   7.262
 5275POPC   C1B67027  10.684  19.153   6.139
 5275POPC   C2B67028  10.782  19.340   6.534
 5275POPC   C3B67029  10.621  19.280   6.948
 5275POPC   C4B67030  10.898  19.357   7.278
 5276POPC   NC367031  24.747  43.876   5.278
 5276POPC   PO467032  24.191  43.610   5.275
 5276POPC   GL167033  24.369  43.663   5.694
 5276POPC   GL267034  24.461  44.017   5.692
 5276POPC   C1A67035  24.300  43.810   6.125
 5276POPC   D2A67036  24.335  43.993   6.520
 5276POPC   C3A67037  24.557  43.705   6.772
 5276POPC   C4A67038  24.559  43.621   7.197
 5276POPC   C1B67039  24.691  44.146   6.096
 5276POPC   C2B67040  24.860  44.056   6.500
 5276POPC   C3B67041  24.894  44.071   6.964
 5276POPC   C4B67042  24.695  44.051   7.408
 5277POPC   NC367043  26.931  28.890   5.411
 5277POPC   PO467044  26.521  29.497   5.532
 5277POPC   GL167045  26.818  29.314   5.833
 5277POPC   GL267046  26.639  28.998   5.835
 5277POPC   C1A67047  27.006  29.151   6.241
 5277POPC   D2A67048  26.865  29.059   6.680
 5277POPC   C3A67049  27.132  28.952   7.084
 5277POPC   C4A67050  27.133  29.170   7.509
 5277POPC   C1B67051  26.527  29.000   6.272
 5277POPC   C2B67052  26.335  29.136   6.594
 5277POPC   C3B67053  26.516  29.346   6.900
 5277POPC   C4B67054  26.687  29.252   7.280
 5278POPC   NC367055  36.475  30.372   5.611
 5278POPC   PO467056  36.851  29.886   5.254
 5278POPC   GL167057  36.940  29.815   5.771
 5278POPC   GL267058  37.234  29.994   5.942
 5278POPC   C1A67059  36.778  29.917   6.193
 5278POPC   D2A67060  36.445  30.055   6.474
 5278POPC   C3A67061  36.494  30.225   6.873
 5278POPC   C4A67062  36.833  30.123   7.127
 5278POPC   C1B67063  37.275  29.956   6.353
 5278POPC   C2B67064  36.998  29.925   6.681
 5278POPC   C3B67065  37.116  29.716   7.055
 5278POPC   C4B67066  37.298  29.961   7.421
 5279POPC   NC367067  29.857  41.185   5.375
 5279POPC   PO467068  30.213  41.802   5.432
 5279POPC   GL167069  29.994  41.742   5.848
 5279POPC   GL267070  30.331  41.787   5.966
 5279POPC   C1A67071  29.945  41.632   6.330
 5279POPC   D2A67072  30.040  41.358   6.729
 5279POPC   C3A67073  29.962  41.296   7.202
 5279POPC   C4A67074  29.846  41.176   7.677
 5279POPC   C1B67075  30.461  41.652   6.355
 5279POPC   C2B67076  30.294  41.805   6.729
 5279POPC   C3B67077  30.289  41.681   7.147
 5279POPC   C4B67078  30.122  41.612   7.575
 5280POPC   NC367079  17.358  12.701   5.382
 5280POPC   PO467080  17.854  13.010   5.232
 5280POPC   GL167081  17.741  12.874   5.700
 5280POPC   GL267082  17.423  12.990   5.814
 5280POPC   C1A67083  17.673  12.756   6.199
 5280POPC   D2A67084  17.434  12.764   6.634
 5280POPC   C3A67085  17.695  12.830   7.026
 5280POPC   C4A67086  17.666  12.702   7.475
 5280POPC   C1B67087  17.126  13.154   6.106
 5280POPC   C2B67088  17.227  13.220   6.512
 5280POPC   C3B67089  17.073  13.145   6.894
 5280POPC   C4B67090  17.097  13.299   7.279
 5281POPC   NC367091  27.676   9.093   5.424
 5281POPC   PO467092  28.247   8.734   5.554
 5281POPC   GL167093  27.810   8.774   5.808
 5281POPC   GL267094  27.664   9.114   5.935
 5281POPC   C1A67095  27.589   8.725   6.240
 5281POPC   D2A67096  27.575   8.974   6.631
 5281POPC   C3A67097  27.320   8.815   6.979
 5281POPC   C4A67098  27.617   8.561   7.164
 5281POPC   C1B67099  27.870   9.349   6.291
 5281POPC   C2B67100  27.823   9.416   6.756
 5281POPC   C3B67101  27.642   9.178   7.130
 5281POPC   C4B67102  27.651   9.316   7.571
 5282POPC   NC367103   1.317   0.626   5.403
 5282POPC   PO467104   1.356  44.994   5.282
 5282POPC   GL167105   1.230   0.285   5.763
 5282POPC   GL267106   1.409   0.650   5.888
 5282POPC   C1A67107   1.078   0.449   6.208
 5282POPC   D2A67108   1.040   0.657   6.613
 5282POPC   C3A67109   1.174   0.541   7.031
 5282POPC   C4A67110   0.998   0.292   7.374
 5282POPC   C1B67111   1.578   0.758   6.289
 5282POPC   C2B67112   1.471   0.872   6.713
 5282POPC   C3B67113   1.619   0.812   7.117
 5282POPC   C4B67114   1.412   0.628   7.502
 5283POPC   NC367115  31.353  16.397   5.206
 5283POPC   PO467116  31.581  15.727   5.345
 5283POPC   GL167117  31.506  15.923   5.731
 5283POPC   GL267118  31.160  16.073   5.762
 5283POPC   C1A67119  31.558  15.945   6.178
 5283POPC   D2A67120  31.458  16.142   6.561
 5283POPC   C3A67121  31.606  15.930   6.884
 5283POPC   C4A67122  31.802  16.052   7.220
 5283POPC   C1B67123  31.133  15.678   6.054
 5283POPC   C2B67124  31.317  15.557   6.465
 5283POPC   C3B67125  31.174  15.636   6.864
 5283POPC   C4B67126  31.234  15.973   7.231
 5284POPC   NC367127   5.575   5.005   5.283
 5284POPC   PO467128   6.086   5.402   5.389
 5284POPC   GL167129   5.892   5.056   5.695
 5284POPC   GL267130   6.078   4.747   5.841
 5284POPC   C1A67131   5.703   4.981   6.122
 5284POPC   D2A67132   5.583   4.921   6.555
 5284POPC   C3A67133   5.930   4.916   6.873
 5284POPC   C4A67134   5.906   4.988   7.307
 5284POPC   C1B67135   6.183   4.921   6.265
 5284POPC   C2B67136   5.949   5.271   6.483
 5284POPC   C3B67137   6.022   5.415   6.887
 5284POPC   C4B67138   6.327   5.270   7.204
 5285POPC   NC367139  36.392  36.944   5.418
 5285POPC   PO467140  36.094  36.395   5.469
 5285POPC   GL167141  36.090  36.757   5.792
 5285POPC   GL267142  36.019  37.154   5.680
 5285POPC   C1A67143  36.298  36.893   6.201
 5285POPC   D2A67144  36.423  37.154   6.575
 5285POPC   C3A67145  36.247  36.988   6.961
 5285POPC   C4A67146  36.270  37.097   7.375
 5285POPC   C1B67147  36.001  37.289   6.093
 5285POPC   C2B67148  35.918  37.185   6.542
 5285POPC   C3B67149  35.792  37.242   6.983
 5285POPC   C4B67150  35.597  37.102   7.358
 5286POPC   NC367151  20.797  30.393   5.441
 5286POPC   PO467152  20.317  30.829   5.388
 5286POPC   GL167153  20.523  30.719   5.785
 5286POPC   GL267154  20.886  30.837   5.758
 5286POPC   C1A67155  20.539  30.492   6.201
 5286POPC   D2A67156  20.350  30.384   6.638
 5286POPC   C3A67157  20.459  30.541   7.080
 5286POPC   C4A67158  20.346  30.886   7.288
 5286POPC   C1B67159  20.941  30.823   6.219
 5286POPC   C2B67160  20.910  30.514   6.547
 5286POPC   C3B67161  20.949  30.453   6.958
 5286POPC   C4B67162  20.892  30.794   7.242
 5287POPC   NC367163   5.781  33.542   5.496
 5287POPC   PO467164   5.465  34.091   5.195
 5287POPC   GL167165   5.624  34.043   5.642
 5287POPC   GL267166   5.994  34.024   5.688
 5287POPC   C1A67167   5.683  34.002   6.097
 5287POPC   D2A67168   5.866  34.131   6.485
 5287POPC   C3A67169   5.736  33.903   6.885
 5287POPC   C4A67170   5.707  33.746   7.314
 5287POPC   C1B67171   6.218  34.093   6.101
 5287POPC   C2B67172   6.302  33.876   6.515
 5287POPC   C3B67173   6.262  33.930   6.967
 5287POPC   C4B67174   6.243  33.700   7.365
 5288POPC   NC367175  11.619  19.210   5.622
 5288POPC   PO467176  12.133  18.927   5.210
 5288POPC   GL167177  12.211  18.945   5.784
 5288POPC   GL267178  11.993  19.171   5.940
 5288POPC   C1A67179  12.333  19.030   6.283
 5288POPC   D2A67180  12.202  18.856   6.725
 5288POPC   C3A67181  12.217  19.021   7.153
 5288POPC   C4A67182  12.416  18.884   7.566
 5288POPC   C1B67183  11.651  19.105   6.254
 5288POPC   C2B67184  11.639  18.885   6.622
 5288POPC   C3B67185  11.724  18.857   7.048
 5288POPC   C4B67186  11.756  19.234   7.296
 5289POPC   NC367187  44.352  19.728   5.393
 5289POPC   PO467188   0.054  19.676   5.173
 5289POPC   GL167189  44.825  19.728   5.667
 5289POPC   GL267190  44.457  19.743   5.875
 5289POPC   C1A67191  44.847  19.956   6.104
 5289POPC   D2A67192  44.965  19.868   6.511
 5289POPC   C3A67193  44.665  19.906   6.816
 5289POPC   C4A67194  44.787  19.963   7.240
 5289POPC   C1B67195  44.528  19.584   6.288
 5289POPC   C2B67196  44.343  19.520   6.673
 5289POPC   C3B67197  44.584  19.454   7.069
 5289POPC   C4B67198  44.569  19.597   7.523
 5290POPC   NC367199  16.905  22.498   5.461
 5290POPC   PO467200  16.337  22.142   5.385
 5290POPC   GL167201  16.513  22.333   5.733
 5290POPC   GL267202  16.718  22.031   5.749
 5290POPC   C1A67203  16.797  22.400   6.110
 5290POPC   D2A67204  16.819  22.181   6.500
 5290POPC   C3A67205  16.857  22.369   6.863
 5290POPC   C4A67206  16.934  22.577   7.218
 5290POPC   C1B67207  16.796  21.818   6.136
 5290POPC   C2B67208  16.636  21.715   6.571
 5290POPC   C3B67209  16.812  21.850   6.975
 5290POPC   C4B67210  17.165  21.676   7.227
 5291POPC   NC367211  36.870  30.743   5.181
 5291POPC   PO467212  36.928  30.276   5.611
 5291POPC   GL167213  36.841  30.717   5.717
 5291POPC   GL267214  37.068  30.971   5.774
 5291POPC   C1A67215  36.732  30.757   6.150
 5291POPC   D2A67216  36.817  30.417   6.457
 5291POPC   C3A67217  36.870  30.586   6.864
 5291POPC   C4A67218  36.662  30.586   7.256
 5291POPC   C1B67219  37.262  30.841   6.140
 5291POPC   C2B67220  37.206  30.894   6.542
 5291POPC   C3B67221  37.355  30.837   6.918
 5291POPC   C4B67222  37.102  30.836   7.267
 5292POPC   NC367223  42.822  16.148   5.638
 5292POPC   PO467224  43.397  16.010   5.601
 5292POPC   GL167225  43.156  15.927   5.972
 5292POPC   GL267226  42.851  15.743   5.938
 5292POPC   C1A67227  43.054  15.925   6.421
 5292POPC   D2A67228  43.339  16.068   6.755
 5292POPC   C3A67229  43.175  16.128   7.137
 5292POPC   C4A67230  42.746  16.184   7.162
 5292POPC   C1B67231  42.860  15.462   6.286
 5292POPC   C2B67232  42.834  15.556   6.739
 5292POPC   C3B67233  42.918  15.698   7.150
 5292POPC   C4B67234  43.261  15.642   7.440
 5293POPC   NC367235  44.052   9.642   5.109
 5293POPC   PO467236  43.859  10.144   5.575
 5293POPC   GL167237  44.036   9.892   5.863
 5293POPC   GL267238  43.873   9.545   5.866
 5293POPC   C1A67239  43.903   9.892   6.277
 5293POPC   D2A67240  43.919   9.639   6.654
 5293POPC   C3A67241  44.009   9.900   7.011
 5293POPC   C4A67242  44.176  10.116   7.359
 5293POPC   C1B67243  43.585   9.489   6.239
 5293POPC   C2B67244  43.433   9.483   6.684
 5293POPC   C3B67245  43.631   9.561   7.123
 5293POPC   C4B67246  43.778   9.405   7.548
 5294POPC   NC367247  35.174  43.405   5.347
 5294POPC   PO467248  35.470  42.788   5.366
 5294POPC   GL167249  35.265  43.047   5.710
 5294POPC   GL267250  35.429  43.370   5.802
 5294POPC   C1A67251  35.163  43.057   6.146
 5294POPC   D2A67252  35.125  43.010   6.593
 5294POPC   C3A67253  35.323  43.215   6.934
 5294POPC   C4A67254  35.113  43.403   7.278
 5294POPC   C1B67255  35.708  43.444   6.160
 5294POPC   C2B67256  35.705  43.614   6.588
 5294POPC   C3B67257  35.763  43.686   7.024
 5294POPC   C4B67258  35.642  43.373   7.297
 5295POPC   NC367259   7.474   0.923   5.225
 5295POPC   PO467260   7.610   0.317   5.582
 5295POPC   GL167261   7.373   0.471   5.879
 5295POPC   GL267262   7.072   0.279   5.859
 5295POPC   C1A67263   7.513   0.410   6.301
 5295POPC   D2A67264   7.760   0.368   6.687
 5295POPC   C3A67265   7.607   0.556   7.073
 5295POPC   C4A67266   7.669   0.405   7.515
 5295POPC   C1B67267   7.003   0.589   6.200
 5295POPC   C2B67268   7.199   0.687   6.598
 5295POPC   C3B67269   7.067   0.499   6.942
 5295POPC   C4B67270   7.194   0.441   7.353
 5296POPC   NC367271   2.203  30.100   5.212
 5296POPC   PO467272   1.943  29.667   5.637
 5296POPC   GL167273   1.851  29.756   5.996
 5296POPC   GL267274   1.705  30.076   5.903
 5296POPC   C1A67275   1.830  29.563   6.398
 5296POPC   D2A67276   2.052  29.751   6.726
 5296POPC   C3A67277   1.879  29.820   7.116
 5296POPC   C4A67278   2.119  29.946   7.458
 5296POPC   C1B67279   1.859  30.112   6.339
 5296POPC   C2B67280   1.758  30.181   6.746
 5296POPC   C3B67281   1.868  30.344   7.112
 5296POPC   C4B67282   1.702  30.271   7.519
 5297POPC   NC367283  40.366   5.701   5.466
 5297POPC   PO467284  39.816   5.891   5.529
 5297POPC   GL167285  40.029   5.741   5.859
 5297POPC   GL267286  39.841   5.505   5.981
 5297POPC   C1A67287  40.251   5.626   6.237
 5297POPC   D2A67288  40.291   5.573   6.654
 5297POPC   C3A67289  39.971   5.560   6.903
 5297POPC   C4A67290  40.073   5.800   7.250
 5297POPC   C1B67291  39.796   5.779   6.374
 5297POPC   C2B67292  39.763   5.986   6.765
 5297POPC   C3B67293  39.582   5.839   7.156
 5297POPC   C4B67294  39.669   5.707   7.585
 5298POPC   NC367295  32.541  43.958   5.468
 5298POPC   PO467296  31.886  43.668   5.423
 5298POPC   GL167297  32.050  43.808   5.838
 5298POPC   GL267298  32.150  44.149   5.872
 5298POPC   C1A67299  32.457  43.764   6.103
 5298POPC   D2A67300  32.608  43.513   6.470
 5298POPC   C3A67301  32.357  43.614   6.848
 5298POPC   C4A67302  31.992  43.793   7.065
 5298POPC   C1B67303  32.089  44.036   6.332
 5298POPC   C2B67304  32.183  44.195   6.756
 5298POPC   C3B67305  32.099  44.275   7.188
 5298POPC   C4B67306  32.167  43.955   7.528
 5299POPC   NC367307   0.055   0.268   5.571
 5299POPC   PO467308   0.619   0.491   5.360
 5299POPC   GL167309   0.396   0.640   5.734
 5299POPC   GL267310   0.582   0.354   5.879
 5299POPC   C1A67311   0.305   0.622   6.199
 5299POPC   D2A67312   0.618   0.407   6.468
 5299POPC   C3A67313   0.625   0.564   6.912
 5299POPC   C4A67314   0.216   0.466   7.090
 5299POPC   C1B67315   0.839   0.016   6.044
 5299POPC   C2B67316   0.817  44.918   6.474
 5299POPC   C3B67317   0.642   0.045   6.858
 5299POPC   C4B67318   0.641  44.941   7.295
 5300POPC   NC367319  10.508  38.075   5.311
 5300POPC   PO467320  10.601  37.424   5.416
 5300POPC   GL167321  10.532  37.643   5.785
 5300POPC   GL267322  10.242  37.847   5.726
 5300POPC   C1A67323  10.455  37.658   6.226
 5300POPC   D2A67324  10.360  37.481   6.623
 5300POPC   C3A67325  10.623  37.628   6.938
 5300POPC   C4A67326  10.725  37.408   7.333
 5300POPC   C1B67327  10.221  38.095   6.143
 5300POPC   C2B67328  10.391  38.033   6.577
 5300POPC   C3B67329  10.419  38.152   6.998
 5300POPC   C4B67330  10.362  37.854   7.312
 5301POPC   NC367331  20.510  37.301   5.478
 5301POPC   PO467332  20.727  37.862   5.439
 5301POPC   GL167333  20.652  37.662   5.824
 5301POPC   GL267334  20.930  37.478   5.870
 5301POPC   C1A67335  20.490  37.589   6.245
 5301POPC   D2A67336  20.696  37.544   6.661
 5301POPC   C3A67337  20.375  37.607   6.972
 5301POPC   C4A67338  20.271  37.444   7.371
 5301POPC   C1B67339  20.980  37.715   6.244
 5301POPC   C2B67340  20.873  38.014   6.547
 5301POPC   C3B67341  20.910  37.909   6.981
 5301POPC   C4B67342  20.696  37.759   7.341
 5302POPC   NC367343  31.357   6.212   5.424
 5302POPC   PO467344  31.689   5.551   5.381
 5302POPC   GL167345  31.465   5.774   5.701
 5302POPC   GL267346  31.634   6.048   5.885
 5302POPC   C1A67347  31.346   5.730   6.125
 5302POPC   D2A67348  31.430   5.579   6.517
 5302POPC   C3A67349  31.372   5.914   6.822
 5302POPC   C4A67350  31.249   6.112   7.209
 5302POPC   C1B67351  31.603   6.107   6.366
 5302POPC   C2B67352  31.873   6.200   6.728
 5302POPC   C3B67353  31.824   5.930   7.096
 5302POPC   C4B67354  31.675   5.486   7.048
 5303POPC   NC367355  38.092   1.008   5.474
 5303POPC   PO467356  37.583   1.412   5.431
 5303POPC   GL167357  37.601   1.114   5.764
 5303POPC   GL267358  37.924   1.227   5.920
 5303POPC   C1A67359  37.303   1.194   6.114
 5303POPC   D2A67360  37.227   1.462   6.484
 5303POPC   C3A67361  37.450   1.310   6.868
 5303POPC   C4A67362  37.887   1.209   6.969
 5303POPC   C1B67363  37.878   0.831   6.155
 5303POPC   C2B67364  37.983   0.715   6.601
 5303POPC   C3B67365  37.961   0.706   7.068
 5303POPC   C4B67366  37.922   0.729   7.531
 5304POPC   NC367367   0.891  30.726   5.524
 5304POPC   PO467368   1.545  30.562   5.437
 5304POPC   GL167369   1.435  30.877   5.777
 5304POPC   GL267370   1.104  31.001   5.902
 5304POPC   C1A67371   1.510  30.859   6.223
 5304POPC   D2A67372   1.461  30.445   6.409
 5304POPC   C3A67373   1.324  30.439   6.826
 5304POPC   C4A67374   1.424  30.599   7.227
 5304POPC   C1B67375   0.990  30.745   6.300
 5304POPC   C2B67376   0.854  30.667   6.749
 5304POPC   C3B67377   0.930  30.457   7.159
 5304POPC   C4B67378   1.145  30.271   7.507
 5305POPC   NC367379  30.687  42.470   5.309
 5305POPC   PO467380  31.065  41.928   5.366
 5305POPC   GL167381  30.934  42.178   5.662
 5305POPC   GL267382  30.582  42.149   5.710
 5305POPC   C1A67383  30.969  42.459   5.970
 5305POPC   D2A67384  30.885  42.521   6.410
 5305POPC   C3A67385  31.052  42.339   6.759
 5305POPC   C4A67386  30.846  42.326   7.132
 5305POPC   C1B67387  30.474  42.379   6.116
 5305POPC   C2B67388  30.427  42.320   6.594
 5305POPC   C3B67389  30.362  42.206   7.045
 5305POPC   C4B67390  30.426  42.476   7.418
 5306POPC   NC367391  37.219   1.124   5.351
 5306POPC   PO467392  36.808   1.684   5.299
 5306POPC   GL167393  36.867   1.385   5.694
 5306POPC   GL267394  36.726   1.029   5.755
 5306POPC   C1A67395  36.807   1.372   6.170
 5306POPC   D2A67396  36.712   1.574   6.588
 5306POPC   C3A67397  36.960   1.460   6.935
 5306POPC   C4A67398  37.069   1.181   7.239
 5306POPC   C1B67399  36.896   0.864   6.148
 5306POPC   C2B67400  36.966   1.031   6.566
 5306POPC   C3B67401  36.734   0.971   6.932
 5306POPC   C4B67402  36.666   0.775   7.329
 5307POPC   NC367403  12.031  37.647   5.445
 5307POPC   PO467404  12.456  38.086   5.606
 5307POPC   GL167405  12.233  37.812   5.879
 5307POPC   GL267406  12.335  37.470   5.818
 5307POPC   C1A67407  12.099  37.887   6.279
 5307POPC   D2A67408  12.376  38.035   6.581
 5307POPC   C3A67409  12.178  37.989   6.972
 5307POPC   C4A67410  11.980  37.716   7.261
 5307POPC   C1B67411  12.102  37.367   6.196
 5307POPC   C2B67412  12.165  37.362   6.659
 5307POPC   C3B67413  12.142  37.271   7.109
 5307POPC   C4B67414  11.686  37.271   7.227
 5308POPC   NC367415  34.465   5.363   5.483
 5308POPC   PO467416  34.839   4.683   5.446
 5308POPC   GL167417  34.536   4.865   5.712
 5308POPC   GL267418  34.711   5.168   5.894
 5308POPC   C1A67419  34.423   4.821   6.150
 5308POPC   D2A67420  34.644   4.896   6.519
 5308POPC   C3A67421  34.553   4.820   6.948
 5308POPC   C4A67422  34.911   4.826   7.182
 5308POPC   C1B67423  34.506   5.353   6.291
 5308POPC   C2B67424  34.580   5.338   6.779
 5308POPC   C3B67425  34.554   5.259   7.239
 5308POPC   C4B67426  34.439   5.361   7.679
 5309POPC   NC367427  22.414  31.199   5.517
 5309POPC   PO467428  23.071  31.403   5.524
 5309POPC   GL167429  23.102  31.546   5.906
 5309POPC   GL267430  22.755  31.458   5.986
 5309POPC   C1A67431  23.153  31.392   6.325
 5309POPC   D2A67432  22.821  31.448   6.627
 5309POPC   C3A67433  22.951  31.635   6.998
 5309POPC   C4A67434  23.300  31.492   7.174
 5309POPC   C1B67435  22.638  31.118   6.229
 5309POPC   C2B67436  22.553  30.980   6.642
 5309POPC   C3B67437  22.778  31.096   7.015
 5309POPC   C4B67438  22.668  31.324   7.327
 5310POPC   NC367439   3.274  13.279   5.418
 5310POPC   PO467440   3.650  13.722   5.180
 5310POPC   GL167441   3.689  13.610   5.619
 5310POPC   GL267442   3.351  13.720   5.721
 5310POPC   C1A67443   3.705  13.488   6.074
 5310POPC   D2A67444   3.537  13.686   6.460
 5310POPC   C3A67445   3.589  13.483   6.852
 5310POPC   C4A67446   3.649  13.560   7.272
 5310POPC   C1B67447   3.199  13.453   6.076
 5310POPC   C2B67448   3.146  13.368   6.515
 5310POPC   C3B67449   3.078  13.572   6.893
 5310POPC   C4B67450   3.154  13.371   7.278
 5311POPC   NC367451  14.713  37.961   5.371
 5311POPC   PO467452  14.481  37.355   5.479
 5311POPC   GL167453  14.678  37.641   5.814
 5311POPC   GL267454  14.601  38.003   5.845
 5311POPC   C1A67455  14.536  37.686   6.252
 5311POPC   D2A67456  14.230  37.465   6.467
 5311POPC   C3A67457  14.374  37.337   6.837
 5311POPC   C4A67458  14.421  37.522   7.231
 5311POPC   C1B67459  14.639  38.219   6.188
 5311POPC   C2B67460  14.485  38.105   6.580
 5311POPC   C3B67461  14.519  37.950   6.997
 5311POPC   C4B67462  14.865  37.792   7.237
 5312POPC   NC367463  22.442  11.584   5.399
 5312POPC   PO467464  22.273  10.950   5.550
 5312POPC   GL167465  22.210  11.322   5.826
 5312POPC   GL267466  21.883  11.492   5.759
 5312POPC   C1A67467  22.392  11.497   6.225
 5312POPC   D2A67468  22.425  11.478   6.673
 5312POPC   C3A67469  22.218  11.172   6.895
 5312POPC   C4A67470  22.348  11.302   7.274
 5312POPC   C1B67471  21.919  11.679   6.163
 5312POPC   C2B67472  21.898  11.485   6.583
 5312POPC   C3B67473  21.984  11.611   7.013
 5312POPC   C4B67474  21.958  11.592   7.469
 5313POPC   NC367475  28.788  33.838   5.385
 5313POPC   PO467476  29.327  34.088   5.319
 5313POPC   GL167477  29.127  33.917   5.760
 5313POPC   GL267478  28.821  34.072   5.872
 5313POPC   C1A67479  29.010  33.629   6.174
 5313POPC   D2A67480  28.808  33.660   6.628
 5313POPC   C3A67481  29.044  33.535   7.028
 5313POPC   C4A67482  29.071  33.438   7.496
 5313POPC   C1B67483  29.075  34.123   6.247
 5313POPC   C2B67484  28.884  34.164   6.614
 5313POPC   C3B67485  28.912  34.041   7.023
 5313POPC   C4B67486  29.284  34.140   7.155
 5314POPC   NC367487  21.527  30.136   5.367
 5314POPC   PO467488  21.312  29.529   5.431
 5314POPC   GL167489  21.313  29.868   5.802
 5314POPC   GL267490  21.526  30.189   5.876
 5314POPC   C1A67491  21.091  30.040   6.204
 5314POPC   D2A67492  21.240  30.125   6.663
 5314POPC   C3A67493  21.064  29.933   7.044
 5314POPC   C4A67494  21.243  29.672   7.356
 5314POPC   C1B67495  21.595  29.993   6.289
 5314POPC   C2B67496  21.720  29.935   6.722
 5314POPC   C3B67497  21.570  29.999   7.162
 5314POPC   C4B67498  21.299  30.166   7.489
 5315POPC   NC367499  19.590  24.718   5.544
 5315POPC   PO467500  18.969  24.408   5.591
 5315POPC   GL167501  18.943  24.669   5.991
 5315POPC   GL267502  19.313  24.714   5.986
 5315POPC   C1A67503  18.789  24.490   6.416
 5315POPC   D2A67504  18.945  24.101   6.708
 5315POPC   C3A67505  18.973  24.312   7.127
 5315POPC   C4A67506  18.734  24.721   7.211
 5315POPC   C1B67507  19.215  24.303   6.205
 5315POPC   C2B67508  19.253  24.488   6.606
 5315POPC   C3B67509  19.133  24.776   6.903
 5315POPC   C4B67510  19.256  24.697   7.324
 5316POPC   NC367511   0.945  10.017   5.373
 5316POPC   PO467512   1.201  10.644   5.375
 5316POPC   GL167513   1.004  10.662   5.819
 5316POPC   GL267514   0.817  10.335   5.839
 5316POPC   C1A67515   1.075  10.803   6.291
 5316POPC   D2A67516   0.931  10.870   6.752
 5316POPC   C3A67517   1.180  10.755   7.101
 5316POPC   C4A67518   1.470  10.411   7.175
 5316POPC   C1B67519   1.011  10.238   6.233
 5316POPC   C2B67520   1.100  10.386   6.651
 5316POPC   C3B67521   0.988  10.275   7.052
 5316POPC   C4B67522   0.793  10.500   7.371
 5317POPC   NC367523  37.693  20.798   5.483
 5317POPC   PO467524  37.335  20.211   5.502
 5317POPC   GL167525  37.464  20.506   5.818
 5317POPC   GL267526  37.807  20.595   5.939
 5317POPC   C1A67527  37.414  20.821   6.146
 5317POPC   D2A67528  37.519  20.597   6.517
 5317POPC   C3A67529  37.619  20.807   6.888
 5317POPC   C4A67530  37.556  20.660   7.303
 5317POPC   C1B67531  38.016  20.522   6.310
 5317POPC   C2B67532  37.950  20.418   6.713
 5317POPC   C3B67533  38.039  20.582   7.077
 5317POPC   C4B67534  38.026  20.785   7.467
 5318POPC   NC367535  40.756  16.944   5.097
 5318POPC   PO467536  40.843  16.380   5.500
 5318POPC   GL167537  40.686  16.457   5.919
 5318POPC   GL267538  40.954  16.683   6.008
 5318POPC   C1A67539  40.533  16.768   6.277
 5318POPC   D2A67540  40.569  16.651   6.717
 5318POPC   C3A67541  40.772  16.926   6.985
 5318POPC   C4A67542  40.557  16.889   7.360
 5318POPC   C1B67543  40.901  16.428   6.380
 5318POPC   C2B67544  41.066  16.465   6.784
 5318POPC   C3B67545  40.876  16.457   7.163
 5318POPC   C4B67546  41.030  16.749   7.447
 5319POPC   NC367547  15.542   0.358   5.144
 5319POPC   PO467548  16.144   0.576   5.428
 5319POPC   GL167549  15.998   0.486   5.829
 5319POPC   GL267550  16.220   0.209   5.839
 5319POPC   C1A67551  15.755   0.471   6.232
 5319POPC   D2A67552  15.439   0.241   6.527
 5319POPC   C3A67553  15.586   0.208   6.971
 5319POPC   C4A67554  15.881   0.440   7.227
 5319POPC   C1B67555  16.273   0.411   6.228
 5319POPC   C2B67556  16.183   0.501   6.650
 5319POPC   C3B67557  16.370   0.364   7.053
 5319POPC   C4B67558  16.311   0.519   7.489
 5320POPC   NC367559  13.754   0.901   5.397
 5320POPC   PO467560  13.531   0.250   5.507
 5320POPC   GL167561  13.793   0.512   5.763
 5320POPC   GL267562  13.559   0.372   6.017
 5320POPC   C1A67563  13.861   0.737   6.164
 5320POPC   D2A67564  13.688   0.498   6.519
 5320POPC   C3A67565  13.867   0.428   6.920
 5320POPC   C4A67566  13.775   0.243   7.325
 5320POPC   C1B67567  13.244   0.600   6.267
 5320POPC   C2B67568  13.256   0.714   6.733
 5320POPC   C3B67569  13.297   0.577   7.176
 5320POPC   C4B67570  13.015   0.573   7.531
 5321POPC   NC367571   9.317  25.169   5.345
 5321POPC   PO467572   8.680  25.494   5.363
 5321POPC   GL167573   8.919  25.429   5.728
 5321POPC   GL267574   8.959  25.064   5.772
 5321POPC   C1A67575   8.706  25.380   6.118
 5321POPC   D2A67576   8.717  25.057   6.422
 5321POPC   C3A67577   8.711  25.199   6.820
 5321POPC   C4A67578   8.808  25.405   7.194
 5321POPC   C1B67579   9.168  25.200   6.169
 5321POPC   C2B67580   9.221  25.041   6.577
 5321POPC   C3B67581   9.194  25.165   6.966
 5321POPC   C4B67582   9.186  25.142   7.375
 5322POPC   NC367583  25.292   2.402   5.374
 5322POPC   PO467584  25.118   1.767   5.422
 5322POPC   GL167585  25.215   2.036   5.776
 5322POPC   GL267586  24.877   2.176   5.874
 5322POPC   C1A67587  25.371   1.991   6.225
 5322POPC   D2A67588  25.205   1.893   6.668
 5322POPC   C3A67589  25.438   1.756   7.054
 5322POPC   C4A67590  25.272   1.848   7.469
 5322POPC   C1B67591  24.998   2.423   6.264
 5322POPC   C2B67592  25.010   2.371   6.727
 5322POPC   C3B67593  25.238   2.242   7.143
 5322POPC   C4B67594  25.338   2.413   7.598
 5323POPC   NC367595   9.754  24.743   5.476
 5323POPC   PO467596  10.184  24.250   5.478
 5323POPC   GL167597   9.838  24.259   5.837
 5323POPC   GL267598   9.628  24.529   5.923
 5323POPC   C1A67599   9.603  24.140   6.230
 5323POPC   D2A67600   9.698  24.102   6.656
 5323POPC   C3A67601   9.681  24.460   6.829
 5323POPC   C4A67602   9.708  24.510   7.226
 5323POPC   C1B67603   9.909  24.550   6.333
 5323POPC   C2B67604  10.111  24.729   6.751
 5323POPC   C3B67605  10.110  24.801   7.234
 5323POPC   C4B67606   9.906  24.720   7.656
 5324POPC   NC367607   6.370   4.989   5.485
 5324POPC   PO467608   6.841   5.454   5.534
 5324POPC   GL167609   6.581   5.272   5.886
 5324POPC   GL267610   6.225   5.363   5.951
 5324POPC   C1A67611   6.705   5.014   6.248
 5324POPC   D2A67612   6.946   5.195   6.579
 5324POPC   C3A67613   6.863   5.107   7.010
 5324POPC   C4A67614   6.797   5.469   7.226
 5324POPC   C1B67615   6.418   5.423   6.373
 5324POPC   C2B67616   6.425   5.099   6.715
 5324POPC   C3B67617   6.382   4.793   7.076
 5324POPC   C4B67618   6.328   4.800   7.513
 5325POPC   NC367619  27.263  33.284   5.464
 5325POPC   PO467620  27.902  33.063   5.379
 5325POPC   GL167621  27.640  33.143   5.795
 5325POPC   GL267622  27.381  32.952   5.849
 5325POPC   C1A67623  27.575  33.388   6.203
 5325POPC   D2A67624  27.565  33.143   6.590
 5325POPC   C3A67625  27.812  33.165   6.944
 5325POPC   C4A67626  27.656  33.202   7.261
 5325POPC   C1B67627  27.521  32.809   6.207
 5325POPC   C2B67628  27.323  32.684   6.594
 5325POPC   C3B67629  27.435  32.822   7.008
 5325POPC   C4B67630  27.466  32.786   7.502
 5326POPC   NC367631   7.248  38.056   5.717
 5326POPC   PO467632   7.735  37.688   5.425
 5326POPC   GL167633   7.480  37.566   5.826
 5326POPC   GL267634   7.172  37.594   5.942
 5326POPC   C1A67635   7.571  37.468   6.252
 5326POPC   D2A67636   7.618  37.708   6.630
 5326POPC   C3A67637   7.616  37.504   7.015
 5326POPC   C4A67638   7.810  37.692   7.355
 5326POPC   C1B67639   7.202  37.819   6.357
 5326POPC   C2B67640   7.130  37.688   6.787
 5326POPC   C3B67641   7.152  37.723   7.214
 5326POPC   C4B67642   7.330  37.537   7.542
 5327POPC   NC367643   2.304  43.964   5.464
 5327POPC   PO467644   2.877  44.127   5.303
 5327POPC   GL167645   2.860  44.168   5.738
 5327POPC   GL267646   2.541  44.327   5.757
 5327POPC   C1A67647   2.928  43.975   6.185
 5327POPC   D2A67648   2.676  43.829   6.550
 5327POPC   C3A67649   2.771  43.740   6.974
 5327POPC   C4A67650   3.029  43.872   7.284
 5327POPC   C1B67651   2.678  44.420   6.157
 5327POPC   C2B67652   2.559  44.330   6.567
 5327POPC   C3B67653   2.357  44.081   6.874
 5327POPC   C4B67654   2.587  44.171   7.213
 5328POPC   NC367655  32.100   6.694   5.376
 5328POPC   PO467656  32.636   6.344   5.172
 5328POPC   GL167657  32.472   6.450   5.657
 5328POPC   GL267658  32.378   6.825   5.781
 5328POPC   C1A67659  32.532   6.508   6.137
 5328POPC   D2A67660  32.280   6.607   6.515
 5328POPC   C3A67661  32.489   6.709   6.907
 5328POPC   C4A67662  32.584   6.525   7.282
 5328POPC   C1B67663  32.015   6.820   6.104
 5328POPC   C2B67664  31.787   6.683   6.509
 5328POPC   C3B67665  31.955   6.686   6.921
 5328POPC   C4B67666  32.154   6.798   7.297
 5329POPC   NC367667  37.437  31.683   5.349
 5329POPC   PO467668  37.052  31.165   5.302
 5329POPC   GL167669  37.000  31.503   5.629
 5329POPC   GL267670  36.744  31.366   5.868
 5329POPC   C1A67671  37.161  31.714   6.032
 5329POPC   D2A67672  37.256  31.553   6.464
 5329POPC   C3A67673  37.029  31.614   6.854
 5329POPC   C4A67674  37.058  31.362   7.260
 5329POPC   C1B67675  36.641  31.736   6.089
 5329POPC   C2B67676  36.693  31.860   6.509
 5329POPC   C3B67677  36.528  31.818   6.910
 5329POPC   C4B67678  36.543  31.516   7.226
 5330POPC   NC367679   2.607   3.702   5.354
 5330POPC   PO467680   2.926   3.095   5.403
 5330POPC   GL167681   2.943   3.236   5.800
 5330POPC   GL267682   2.606   3.370   5.767
 5330POPC   C1A67683   3.057   3.296   6.243
 5330POPC   D2A67684   3.110   3.683   6.504
 5330POPC   C3A67685   2.938   3.651   6.916
 5330POPC   C4A67686   2.848   3.286   7.191
 5330POPC   C1B67687   2.770   3.691   6.078
 5330POPC   C2B67688   2.602   3.869   6.487
 5330POPC   C3B67689   2.498   3.989   6.921
 5330POPC   C4B67690   2.414   3.851   7.333
 5331POPC   NC367691  12.312   1.623   5.705
 5331POPC   PO467692  12.143   1.044   5.388
 5331POPC   GL167693  12.081   1.141   5.797
 5331POPC   GL267694  11.891   1.421   5.929
 5331POPC   C1A67695  11.991   0.918   6.164
 5331POPC   D2A67696  11.784   0.917   6.528
 5331POPC   C3A67697  12.027   1.108   6.871
 5331POPC   C4A67698  12.239   1.230   7.292
 5331POPC   C1B67699  12.026   1.429   6.382
 5331POPC   C2B67700  12.073   1.623   6.808
 5331POPC   C3B67701  11.828   1.494   7.173
 5331POPC   C4B67702  11.659   1.062   7.238
 5332POPC   NC367703  11.935  10.313   5.230
 5332POPC   PO467704  12.527  10.557   5.511
 5332POPC   GL167705  12.211  10.557   5.851
 5332POPC   GL267706  11.854  10.530   5.794
 5332POPC   C1A67707  12.060  10.553   6.292
 5332POPC   D2A67708  12.124  10.501   6.733
 5332POPC   C3A67709  12.351  10.841   6.947
 5332POPC   C4A67710  12.198  10.923   7.368
 5332POPC   C1B67711  11.667  10.234   6.132
 5332POPC   C2B67712  11.713  10.059   6.573
 5332POPC   C3B67713  11.710  10.280   6.969
 5332POPC   C4B67714  11.906  10.560   7.208
 5333POPC   NC367715  38.134  30.246   5.438
 5333POPC   PO467716  38.617  30.784   5.338
 5333POPC   GL167717  38.498  30.844   5.757
 5333POPC   GL267718  38.195  30.645   5.780
 5333POPC   C1A67719  38.326  30.927   6.185
 5333POPC   D2A67720  38.141  30.975   6.581
 5333POPC   C3A67721  38.379  30.891   6.990
 5333POPC   C4A67722  38.660  30.692   7.308
 5333POPC   C1B67723  38.041  30.402   6.128
 5333POPC   C2B67724  38.167  30.408   6.563
 5333POPC   C3B67725  38.178  30.334   7.005
 5333POPC   C4B67726  38.163  30.592   7.379
 5334POPC   NC367727  38.881  15.865   5.457
 5334POPC   PO467728  38.268  16.126   5.462
 5334POPC   GL167729  38.456  15.952   5.815
 5334POPC   GL267730  38.733  16.162   5.862
 5334POPC   C1A67731  38.490  15.921   6.269
 5334POPC   D2A67732  38.477  15.629   6.601
 5334POPC   C3A67733  38.507  15.844   6.976
 5334POPC   C4A67734  38.372  16.174   7.249
 5334POPC   C1B67735  38.938  16.184   6.257
 5334POPC   C2B67736  38.815  16.112   6.671
 5334POPC   C3B67737  38.863  16.233   7.086
 5334POPC   C4B67738  38.788  16.294   7.523
 5335POPC   NC367739   6.388  23.688   5.396
 5335POPC   PO467740   5.777  23.502   5.506
 5335POPC   GL167741   5.996  23.651   5.842
 5335POPC   GL267742   6.379  23.522   5.861
 5335POPC   C1A67743   5.776  23.619   6.260
 5335POPC   D2A67744   5.610  23.459   6.688
 5335POPC   C3A67745   5.764  23.681   7.084
 5335POPC   C4A67746   6.040  23.836   7.445
 5335POPC   C1B67747   6.288  23.734   6.229
 5335POPC   C2B67748   6.137  23.563   6.614
 5335POPC   C3B67749   6.135  23.333   6.997
 5335POPC   C4B67750   5.764  23.193   7.236
 5336POPC   NC367751   2.686  36.554   5.141
 5336POPC   PO467752   2.803  37.231   5.325
 5336POPC   GL167753   2.802  37.021   5.730
 5336POPC   GL267754   2.447  36.961   5.838
 5336POPC   C1A67755   2.841  36.898   6.175
 5336POPC   D2A67756   3.028  36.805   6.551
 5336POPC   C3A67757   2.839  36.878   6.930
 5336POPC   C4A67758   2.970  37.198   7.186
 5336POPC   C1B67759   2.385  36.658   6.202
 5336POPC   C2B67760   2.601  36.386   6.518
 5336POPC   C3B67761   2.739  36.336   6.939
 5336POPC   C4B67762   2.660  36.579   7.295
 5337POPC   NC367763  44.167  22.152   5.527
 5337POPC   PO467764  43.502  21.982   5.560
 5337POPC   GL167765  43.828  22.000   5.869
 5337POPC   GL267766  43.943  22.360   5.954
 5337POPC   C1A67767  43.953  21.924   6.283
 5337POPC   D2A67768  43.816  22.191   6.629
 5337POPC   C3A67769  43.932  22.111   7.060
 5337POPC   C4A67770  44.023  22.289   7.453
 5337POPC   C1B67771  43.614  22.534   6.246
 5337POPC   C2B67772  43.550  22.622   6.700
 5337POPC   C3B67773  43.698  22.567   7.126
 5337POPC   C4B67774  43.718  22.646   7.580
 5338POPC   NC367775  26.741  44.698   5.393
 5338POPC   PO467776  27.338  44.404   5.484
 5338POPC   GL167777  27.106  44.543   5.843
 5338POPC   GL267778  26.953  44.864   5.927
 5338POPC   C1A67779  26.971  44.473   6.259
 5338POPC   D2A67780  26.793  44.487   6.660
 5338POPC   C3A67781  27.017  44.540   7.037
 5338POPC   C4A67782  26.741  44.255   7.247
 5338POPC   C1B67783  26.588  44.805   6.276
 5338POPC   C2B67784  26.439  44.858   6.738
 5338POPC   C3B67785  26.540  44.733   7.176
 5338POPC   C4B67786  26.840  44.932   7.495
 5339POPC   NC367787  11.404  31.302   5.255
 5339POPC   PO467788  11.117  31.908   5.397
 5339POPC   GL167789  11.205  31.585   5.668
 5339POPC   GL267790  11.577  31.660   5.674
 5339POPC   C1A67791  11.232  31.509   6.132
 5339POPC   D2A67792  11.335  31.232   6.514
 5339POPC   C3A67793  11.147  31.334   6.927
 5339POPC   C4A67794  11.047  31.760   7.096
 5339POPC   C1B67795  11.651  31.821   6.128
 5339POPC   C2B67796  11.432  31.820   6.538
 5339POPC   C3B67797  11.518  31.931   6.979
 5339POPC   C4B67798  11.724  31.641   7.261
 5340POPC   NC367799   8.769  22.562   5.534
 5340POPC   PO467800   9.003  21.840   5.411
 5340POPC   GL167801   9.081  22.070   5.789
 5340POPC   GL267802   8.726  22.116   5.854
 5340POPC   C1A67803   9.036  22.170   6.244
 5340POPC   D2A67804   8.742  22.047   6.579
 5340POPC   C3A67805   8.812  22.307   6.928
 5340POPC   C4A67806   9.196  22.398   7.150
 5340POPC   C1B67807   8.758  21.735   6.153
 5340POPC   C2B67808   8.805  21.534   6.556
 5340POPC   C3B67809   9.015  21.707   6.922
 5340POPC   C4B67810   8.957  21.962   7.283
 5341POPC   NC367811  41.091  40.230   5.510
 5341POPC   PO467812  41.513  39.737   5.392
 5341POPC   GL167813  41.477  39.986   5.803
 5341POPC   GL267814  41.176  40.140   5.994
 5341POPC   C1A67815  41.616  39.881   6.222
 5341POPC   D2A67816  41.724  40.062   6.603
 5341POPC   C3A67817  41.936  39.791   6.844
 5341POPC   C4A67818  41.946  39.843   7.262
 5341POPC   C1B67819  41.205  40.117   6.445
 5341POPC   C2B67820  41.336  39.723   6.641
 5341POPC   C3B67821  41.461  39.801   7.041
 5341POPC   C4B67822  41.215  40.075   7.253
 5342POPC   NC367823   0.990  39.346   5.530
 5342POPC   PO467824   1.420  38.794   5.535
 5342POPC   GL167825   1.277  39.045   5.861
 5342POPC   GL267826   0.919  39.010   5.918
 5342POPC   C1A67827   1.338  39.328   6.234
 5342POPC   D2A67828   1.433  39.221   6.681
 5342POPC   C3A67829   1.238  39.371   7.065
 5342POPC   C4A67830   0.829  39.546   7.105
 5342POPC   C1B67831   1.149  38.853   6.306
 5342POPC   C2B67832   1.005  38.962   6.666
 5342POPC   C3B67833   1.150  38.878   7.038
 5342POPC   C4B67834   1.165  38.724   7.416
 5343POPC   NC367835  22.687   0.768   5.638
 5343POPC   PO467836  22.940   1.378   5.524
 5343POPC   GL167837  22.790   1.204   5.903
 5343POPC   GL267838  23.092   0.972   5.886
 5343POPC   C1A67839  22.837   1.047   6.349
 5343POPC   D2A67840  22.823   0.910   6.812
 5343POPC   C3A67841  22.762   1.275   7.083
 5343POPC   C4A67842  22.766   1.416   7.507
 5343POPC   C1B67843  23.249   1.353   6.099
 5343POPC   C2B67844  23.330   1.398   6.528
 5343POPC   C3B67845  23.248   1.225   6.908
 5343POPC   C4B67846  23.200   1.523   7.203
 5344POPC   NC367847   1.018  14.443   5.421
 5344POPC   PO467848   1.573  14.020   5.547
 5344POPC   GL167849   1.269  14.239   5.826
 5344POPC   GL267850   0.918  14.159   5.822
 5344POPC   C1A67851   1.259  14.229   6.277
 5344POPC   D2A67852   1.544  14.204   6.652
 5344POPC   C3A67853   1.462  14.536   6.965
 5344POPC   C4A67854   1.142  14.561   7.280
 5344POPC   C1B67855   0.960  13.820   6.155
 5344POPC   C2B67856   1.083  13.855   6.600
 5344POPC   C3B67857   1.136  14.144   6.952
 5344POPC   C4B67858   1.492  14.109   7.264
 5345POPC   NC367859  44.401  11.923   5.575
 5345POPC   PO467860  44.879  12.452   5.466
 5345POPC   GL167861  44.771  12.161   5.838
 5345POPC   GL267862  44.408  12.176   6.012
 5345POPC   C1A67863  44.746  11.839   6.195
 5345POPC   D2A67864  44.840  11.782   6.639
 5345POPC   C3A67865  44.694  12.172   6.865
 5345POPC   C4A67866  44.756  12.176   7.315
 5345POPC   C1B67867  44.231  11.890   6.305
 5345POPC   C2B67868  44.320  11.774   6.729
 5345POPC   C3B67869  44.532  11.760   7.106
 5345POPC   C4B67870  44.355  11.874   7.517
 5346POPC   NC367871   4.729  23.872   5.474
 5346POPC   PO467872   4.052  23.721   5.448
 5346POPC   GL167873   4.343  23.745   5.799
 5346POPC   GL267874   4.681  23.561   5.866
 5346POPC   C1A67875   4.355  23.878   6.201
 5346POPC   D2A67876   4.163  24.038   6.575
 5346POPC   C3A67877   3.962  23.745   6.800
 5346POPC   C4A67878   4.163  23.847   7.187
 5346POPC   C1B67879   4.690  23.430   6.269
 5346POPC   C2B67880   4.457  23.609   6.620
 5346POPC   C3B67881   4.603  23.712   6.988
 5346POPC   C4B67882   4.818  23.397   7.114
 5347POPC   NC367883  33.470  44.317   5.560
 5347POPC   PO467884  33.870  43.745   5.451
 5347POPC   GL167885  33.934  43.821   5.882
 5347POPC   GL267886  33.767  44.096   5.892
 5347POPC   C1A67887  33.935  43.935   6.340
 5347POPC   D2A67888  34.024  43.685   6.681
 5347POPC   C3A67889  33.999  43.940   7.040
 5347POPC   C4A67890  34.169  44.011   7.455
 5347POPC   C1B67891  33.469  44.160   6.242
 5347POPC   C2B67892  33.527  43.976   6.656
 5347POPC   C3B67893  33.442  43.988   7.081
 5347POPC   C4B67894  33.696  44.237   7.346
 5348POPC   NC367895  35.526  25.301   5.157
 5348POPC   PO467896  34.992  25.056   5.346
 5348POPC   GL167897  35.184  25.150   5.727
 5348POPC   GL267898  34.846  25.103   5.862
 5348POPC   C1A67899  35.570  25.105   6.011
 5348POPC   D2A67900  35.641  25.092   6.485
 5348POPC   C3A67901  35.603  25.322   6.914
 5348POPC   C4A67902  35.589  25.138   7.355
 5348POPC   C1B67903  35.106  25.079   6.240
 5348POPC   C2B67904  35.107  25.215   6.647
 5348POPC   C3B67905  35.170  25.059   7.045
 5348POPC   C4B67906  35.158  25.408   7.268
 5349POPC   NC367907  24.817  33.195   5.536
 5349POPC   PO467908  25.308  32.879   5.190
 5349POPC   GL167909  25.296  32.973   5.622
 5349POPC   GL267910  25.037  32.774   5.770
 5349POPC   C1A67911  25.413  32.979   6.080
 5349POPC   D2A67912  25.253  33.072   6.505
 5349POPC   C3A67913  25.401  32.890   6.908
 5349POPC   C4A67914  25.307  33.166   7.221
 5349POPC   C1B67915  24.855  32.645   6.171
 5349POPC   C2B67916  24.716  32.803   6.568
 5349POPC   C3B67917  24.900  33.034   6.894
 5349POPC   C4B67918  24.847  32.963   7.312
 5350POPC   NC367919   2.508  20.811   5.395
 5350POPC   PO467920   3.087  20.521   5.469
 5350POPC   GL167921   2.832  20.745   5.812
 5350POPC   GL267922   3.090  20.930   5.967
 5350POPC   C1A67923   2.599  20.898   6.228
 5350POPC   D2A67924   2.553  20.992   6.694
 5350POPC   C3A67925   2.779  20.765   7.035
 5350POPC   C4A67926   2.755  20.734   7.491
 5350POPC   C1B67927   2.992  20.584   6.309
 5350POPC   C2B67928   3.126  20.501   6.743
 5350POPC   C3B67929   3.282  20.307   7.130
 5350POPC   C4B67930   3.153  20.331   7.577
 5351POPC   NC367931  27.865   4.419   5.191
 5351POPC   PO467932  27.266   4.588   5.498
 5351POPC   GL167933  27.614   4.389   5.798
 5351POPC   GL267934  27.749   4.616   6.053
 5351POPC   C1A67935  27.869   4.149   6.177
 5351POPC   D2A67936  27.688   3.967   6.586
 5351POPC   C3A67937  27.677   4.193   6.999
 5351POPC   C4A67938  27.813   4.198   7.439
 5351POPC   C1B67939  27.406   4.313   6.271
 5351POPC   C2B67940  27.289   4.330   6.695
 5351POPC   C3B67941  27.277   4.606   7.047
 5351POPC   C4B67942  27.278   4.511   7.522
 5352POPC   NC367943  16.202  27.121   5.164
 5352POPC   PO467944  15.690  26.751   5.438
 5352POPC   GL167945  15.796  26.730   5.869
 5352POPC   GL267946  15.942  26.419   6.005
 5352POPC   C1A67947  15.749  27.000   6.252
 5352POPC   D2A67948  15.570  27.067   6.676
 5352POPC   C3A67949  15.851  27.153   7.038
 5352POPC   C4A67950  15.969  27.263   7.492
 5352POPC   C1B67951  16.176  26.715   6.250
 5352POPC   C2B67952  16.151  26.978   6.615
 5352POPC   C3B67953  16.307  26.914   7.037
 5352POPC   C4B67954  16.017  26.770   7.380
 5353POPC   NC367955  31.217   1.812   5.481
 5353POPC   PO467956  31.740   2.189   5.424
 5353POPC   GL167957  31.654   1.930   5.769
 5353POPC   GL267958  31.914   1.694   5.810
 5353POPC   C1A67959  31.353   1.965   6.147
 5353POPC   D2A67960  31.088   1.740   6.457
 5353POPC   C3A67961  31.158   1.769   6.886
 5353POPC   C4A67962  31.390   1.928   7.226
 5353POPC   C1B67963  31.828   1.808   6.254
 5353POPC   C2B67964  31.639   1.816   6.664
 5353POPC   C3B67965  31.809   1.686   7.066
 5353POPC   C4B67966  31.798   1.766   7.561
 5354POPC   NC367967  33.947  12.974   5.468
 5354POPC   PO467968  33.837  12.386   5.227
 5354POPC   GL167969  33.699  12.520   5.673
 5354POPC   GL267970  33.647  12.861   5.846
 5354POPC   C1A67971  33.704  12.417   6.150
 5354POPC   D2A67972  33.579  12.542   6.582
 5354POPC   C3A67973  33.805  12.640   6.996
 5354POPC   C4A67974  33.939  12.502   7.427
 5354POPC   C1B67975  33.806  12.903   6.249
 5354POPC   C2B67976  33.990  12.987   6.631
 5354POPC   C3B67977  33.896  13.187   6.999
 5354POPC   C4B67978  33.579  13.066   7.302
 5355POPC   NC367979  42.227  13.375   5.406
 5355POPC   PO467980  42.758  13.929   5.521
 5355POPC   GL167981  42.409  13.754   5.808
 5355POPC   GL267982  42.204  13.441   5.908
 5355POPC   C1A67983  42.543  13.635   6.215
 5355POPC   D2A67984  42.778  13.713   6.549
 5355POPC   C3A67985  42.523  13.454   6.826
 5355POPC   C4A67986  42.206  13.605   7.084
 5355POPC   C1B67987  42.030  13.781   6.213
 5355POPC   C2B67988  42.064  13.908   6.684
 5355POPC   C3B67989  41.764  13.835   7.059
 5355POPC   C4B67990  41.855  13.569   7.459
 5356POPC   NC367991  18.646  39.874   5.358
 5356POPC   PO467992  18.040  39.980   5.238
 5356POPC   GL167993  18.137  39.834   5.720
 5356POPC   GL267994  18.474  39.652   5.783
 5356POPC   C1A67995  18.001  40.014   6.173
 5356POPC   D2A67996  18.013  40.304   6.582
 5356POPC   C3A67997  17.958  40.171   7.009
 5356POPC   C4A67998  18.205  39.879   7.249
 5356POPC   C1B67999  18.476  39.811   6.213
 5356POPC   C2B68000  18.282  39.876   6.608
 5356POPC   C3B68001  18.456  40.145   6.887
 5356POPC   C4B68002  18.711  40.011   7.230
 5357POPC   NC368003   4.950  44.508   5.425
 5357POPC   PO468004   4.814   0.162   5.366
 5357POPC   GL168005   4.973  44.924   5.716
 5357POPC   GL268006   5.322  44.976   5.767
 5357POPC   C1A68007   4.986  44.724   6.124
 5357POPC   D2A68008   4.734  44.773   6.491
 5357POPC   C3A68009   4.939  44.727   6.880
 5357POPC   C4A68010   4.800  44.789   7.301
 5357POPC   C1B68011   5.500  44.954   6.185
 5357POPC   C2B68012   5.400  44.716   6.557
 5357POPC   C3B68013   5.430  44.580   6.974
 5357POPC   C4B68014   5.303  44.901   7.245
 5358POPC   NC368015  24.824  32.766   5.118
 5358POPC   PO468016  24.378  33.216   5.339
 5358POPC   GL168017  24.346  33.064   5.764
 5358POPC   GL268018  24.509  32.735   5.786
 5358POPC   C1A68019  24.561  33.088   6.159
 5358POPC   D2A68020  24.708  33.328   6.500
 5358POPC   C3A68021  24.512  33.365   6.898
 5358POPC   C4A68022  24.449  33.305   7.334
 5358POPC   C1B68023  24.323  32.634   6.226
 5358POPC   C2B68024  24.260  32.550   6.680
 5358POPC   C3B68025  24.503  32.695   7.053
 5358POPC   C4B68026  24.378  32.819   7.503
 5359POPC   NC368027  20.882   3.015   5.641
 5359POPC   PO468028  21.480   3.050   5.345
 5359POPC   GL168029  21.382   2.816   5.747
 5359POPC   GL268030  21.259   3.050   5.986
 5359POPC   C1A68031  21.544   2.684   6.179
 5359POPC   D2A68032  21.573   2.899   6.598
 5359POPC   C3A68033  21.492   2.706   6.996
 5359POPC   C4A68034  21.125   2.770   7.247
 5359POPC   C1B68035  21.143   3.183   6.398
 5359POPC   C2B68036  20.985   3.016   6.788
 5359POPC   C3B68037  21.025   3.264   7.156
 5359POPC   C4B68038  21.026   3.193   7.597
 5360POPC   NC368039  29.252   9.904   5.432
 5360POPC   PO468040  28.968   9.294   5.413
 5360POPC   GL168041  29.059   9.556   5.780
 5360POPC   GL268042  29.427   9.472   5.792
 5360POPC   C1A68043  28.859   9.623   6.206
 5360POPC   D2A68044  28.876   9.919   6.550
 5360POPC   C3A68045  28.878   9.844   6.987
 5360POPC   C4A68046  29.205   9.974   7.289
 5360POPC   C1B68047  29.314   9.379   6.239
 5360POPC   C2B68048  29.142   9.429   6.683
 5360POPC   C3B68049  29.253   9.477   7.147
 5360POPC   C4B68050  29.319   9.545   7.621
 5361POPC   NC368051  13.007  41.162   5.637
 5361POPC   PO468052  12.688  41.625   5.353
 5361POPC   GL168053  12.884  41.651   5.747
 5361POPC   GL268054  12.655  41.411   5.881
 5361POPC   C1A68055  12.979  41.645   6.188
 5361POPC   D2A68056  12.694  41.611   6.513
 5361POPC   C3A68057  12.919  41.758   6.886
 5361POPC   C4A68058  12.858  41.872   7.302
 5361POPC   C1B68059  12.370  41.310   6.186
 5361POPC   C2B68060  12.395  41.171   6.611
 5361POPC   C3B68061  12.578  41.374   6.947
 5361POPC   C4B68062  12.335  41.558   7.246
 5362POPC   NC368063  37.957  27.833   5.414
 5362POPC   PO468064  37.491  27.433   5.592
 5362POPC   GL168065  37.713  27.497   5.921
 5362POPC   GL268066  37.949  27.753   5.913
 5362POPC   C1A68067  37.817  27.338   6.303
 5362POPC   D2A68068  38.029  27.403   6.679
 5362POPC   C3A68069  37.757  27.362   7.035
 5362POPC   C4A68070  37.546  27.371   7.447
 5362POPC   C1B68071  37.693  27.945   6.197
 5362POPC   C2B68072  37.770  28.071   6.600
 5362POPC   C3B68073  37.912  27.846   6.949
 5362POPC   C4B68074  37.627  27.841   7.260
 5363POPC   NC368075  10.170   8.983   5.518
 5363POPC   PO468076  10.767   8.914   5.284
 5363POPC   GL168077  10.609   8.877   5.754
 5363POPC   GL268078  10.881   8.945   5.989
 5363POPC   C1A68079  10.415   8.840   6.198
 5363POPC   D2A68080  10.159   9.003   6.512
 5363POPC   C3A68081  10.358   9.267   6.851
 5363POPC   C4A68082  10.502   9.238   7.293
 5363POPC   C1B68083  10.816   9.070   6.439
 5363POPC   C2B68084  10.579   8.814   6.754
 5363POPC   C3B68085  10.525   8.727   7.185
 5363POPC   C4B68086  10.842   8.626   7.461
 5364POPC   NC368087  41.367   0.097   5.079
 5364POPC   PO468088  41.583   0.728   5.322
 5364POPC   GL168089  41.769   0.531   5.753
 5364POPC   GL268090  41.455   0.450   5.941
 5364POPC   C1A68091  41.967   0.387   6.165
 5364POPC   D2A68092  41.922   0.112   6.553
 5364POPC   C3A68093  41.553   0.142   6.838
 5364POPC   C4A68094  41.474   0.420   7.219
 5364POPC   C1B68095  41.489   0.282   6.325
 5364POPC   C2B68096  41.390   0.585   6.640
 5364POPC   C3B68097  41.275   0.962   6.848
 5364POPC   C4B68098  41.090   0.787   7.184
 5365POPC   NC368099   5.117  15.912   5.614
 5365POPC   PO468100   5.825  16.034   5.473
 5365POPC   GL168101   6.102  16.104   5.827
 5365POPC   GL268102   6.379  16.385   5.811
 5365POPC   C1A68103   5.906  15.972   6.205
 5365POPC   D2A68104   5.623  16.046   6.572
 5365POPC   C3A68105   5.735  15.794   6.934
 5365POPC   C4A68106   5.753  15.890   7.349
 5365POPC   C1B68107   6.184  16.449   6.222
 5365POPC   C2B68108   6.112  16.199   6.596
 5365POPC   C3B68109   5.939  16.259   6.978
 5365POPC   C4B68110   6.192  16.276   7.313
 5366POPC   NC368111  18.490  29.796   5.422
 5366POPC   PO468112  17.902  29.775   5.189
 5366POPC   GL168113  18.015  29.804   5.693
 5366POPC   GL268114  18.354  29.832   5.900
 5366POPC   C1A68115  17.937  29.757   6.181
 5366POPC   D2A68116  18.112  29.681   6.622
 5366POPC   C3A68117  18.287  30.031   6.876
 5366POPC   C4A68118  18.259  29.935   7.289
 5366POPC   C1B68119  18.474  29.940   6.328
 5366POPC   C2B68120  18.710  29.817   6.699
 5366POPC   C3B68121  18.744  29.882   7.137
 5366POPC   C4B68122  18.640  30.306   7.294
 5367POPC   NC368123  19.447  43.376   5.329
 5367POPC   PO468124  18.913  43.168   5.580
 5367POPC   GL168125  19.214  43.279   5.835
 5367POPC   GL268126  19.380  42.950   5.797
 5367POPC   C1A68127  19.094  43.421   6.253
 5367POPC   D2A68128  18.875  43.166   6.550
 5367POPC   C3A68129  18.776  43.203   6.982
 5367POPC   C4A68130  19.084  43.335   7.219
 5367POPC   C1B68131  19.181  42.925   6.202
 5367POPC   C2B68132  19.098  42.688   6.546
 5367POPC   C3B68133  19.190  42.901   6.897
 5367POPC   C4B68134  19.137  42.816   7.288
 5368POPC   NC368135  29.875  40.181   5.148
 5368POPC   PO468136  30.026  40.761   5.347
 5368POPC   GL168137  29.971  40.858   5.777
 5368POPC   GL268138  29.630  41.031   5.800
 5368POPC   C1A68139  29.999  40.658   6.183
 5368POPC   D2A68140  29.956  40.461   6.591
 5368POPC   C3A68141  30.053  40.709   6.954
 5368POPC   C4A68142  29.907  40.812   7.341
 5368POPC   C1B68143  29.811  41.156   6.183
 5368POPC   C2B68144  29.784  40.944   6.561
 5368POPC   C3B68145  29.628  41.010   6.942
 5368POPC   C4B68146  29.474  41.121   7.330
 5369POPC   NC368147  16.861  26.446   5.515
 5369POPC   PO468148  16.416  26.833   5.425
 5369POPC   GL168149  16.508  26.660   5.823
 5369POPC   GL268150  16.718  26.936   5.854
 5369POPC   C1A68151  16.682  26.627   6.240
 5369POPC   D2A68152  16.545  26.653   6.642
 5369POPC   C3A68153  16.742  26.555   7.009
 5369POPC   C4A68154  16.513  26.546   7.413
 5369POPC   C1B68155  17.036  26.995   6.173
 5369POPC   C2B68156  17.044  26.836   6.589
 5369POPC   C3B68157  17.125  26.994   6.985
 5369POPC   C4B68158  16.944  26.850   7.375
 5370POPC   NC368159   9.187  32.144   5.229
 5370POPC   PO468160   8.694  32.593   5.657
 5370POPC   GL168161   8.804  32.240   5.924
 5370POPC   GL268162   9.070  32.098   6.157
 5370POPC   C1A68163   8.596  32.320   6.286
 5370POPC   D2A68164   8.570  32.547   6.640
 5370POPC   C3A68165   8.579  32.333   7.040
 5370POPC   C4A68166   8.803  32.298   7.408
 5370POPC   C1B68167   9.062  32.482   6.379
 5370POPC   C2B68168   9.056  32.503   6.829
 5370POPC   C3B68169   9.189  32.603   7.224
 5370POPC   C4B68170   9.266  32.369   7.594
 5371POPC   NC368171  10.024   5.859   5.390
 5371POPC   PO468172  10.591   6.253   5.449
 5371POPC   GL168173  10.366   6.052   5.805
 5371POPC   GL268174  10.189   5.735   5.853
 5371POPC   C1A68175  10.540   5.957   6.243
 5371POPC   D2A68176  10.771   5.927   6.698
 5371POPC   C3A68177  10.595   5.962   7.156
 5371POPC   C4A68178  10.787   6.037   7.599
 5371POPC   C1B68179  10.245   5.534   6.196
 5371POPC   C2B68180  10.482   5.538   6.545
 5371POPC   C3B68181  10.580   5.489   6.946
 5371POPC   C4B68182  10.352   5.541   7.334
 5372POPC   NC368183  11.644  14.438   5.355
 5372POPC   PO468184  12.143  13.991   5.467
 5372POPC   GL168185  12.151  14.150   5.838
 5372POPC   GL268186  11.801  14.134   5.848
 5372POPC   C1A68187  12.109  14.429   6.195
 5372POPC   D2A68188  12.047  14.640   6.574
 5372POPC   C3A68189  12.113  14.444   6.984
 5372POPC   C4A68190  12.315  14.368   7.360
 5372POPC   C1B68191  11.945  13.947   6.241
 5372POPC   C2B68192  12.104  14.105   6.604
 5372POPC   C3B68193  11.953  13.967   6.994
 5372POPC   C4B68194  12.117  13.902   7.399
 5373POPC   NC368195  31.357   5.214   5.417
 5373POPC   PO468196  31.775   4.587   5.510
 5373POPC   GL168197  31.493   4.857   5.777
 5373POPC   GL268198  31.509   5.250   5.891
 5373POPC   C1A68199  31.411   4.848   6.203
 5373POPC   D2A68200  31.345   5.052   6.570
 5373POPC   C3A68201  31.396   4.857   6.945
 5373POPC   C4A68202  31.588   5.042   7.268
 5373POPC   C1B68203  31.128   5.291   6.144
 5373POPC   C2B68204  30.938   5.336   6.543
 5373POPC   C3B68205  31.147   5.433   6.913
 5373POPC   C4B68206  31.113   5.188   7.227
 5374POPC   NC368207   3.077  35.569   5.525
 5374POPC   PO468208   2.707  35.230   5.105
 5374POPC   GL168209   2.676  35.243   5.612
 5374POPC   GL268210   3.003  35.188   5.864
 5374POPC   C1A68211   2.597  35.394   6.060
 5374POPC   D2A68212   2.593  35.220   6.471
 5374POPC   C3A68213   2.509  35.545   6.749
 5374POPC   C4A68214   2.458  35.515   7.175
 5374POPC   C1B68215   3.093  35.538   6.171
 5374POPC   C2B68216   3.001  35.489   6.588
 5374POPC   C3B68217   2.895  35.261   6.975
 5374POPC   C4B68218   2.953  35.169   7.421
 5375POPC   NC368219  28.102   1.339   5.365
 5375POPC   PO468220  28.662   0.997   5.481
 5375POPC   GL168221  28.420   1.263   5.792
 5375POPC   GL268222  28.072   1.109   5.841
 5375POPC   C1A68223  28.424   1.380   6.266
 5375POPC   D2A68224  28.204   1.557   6.657
 5375POPC   C3A68225  28.330   1.388   7.053
 5375POPC   C4A68226  28.106   1.353   7.415
 5375POPC   C1B68227  28.320   0.901   6.162
 5375POPC   C2B68228  28.425   0.873   6.638
 5375POPC   C3B68229  28.246   0.862   7.068
 5375POPC   C4B68230  27.843   0.735   7.230
 5376POPC   NC368231  42.033   2.413   5.628
 5376POPC   PO468232  42.462   2.041   5.322
 5376POPC   GL168233  42.460   2.157   5.763
 5376POPC   GL268234  42.153   1.972   5.851
 5376POPC   C1A68235  42.514   2.062   6.237
 5376POPC   D2A68236  42.365   1.822   6.624
 5376POPC   C3A68237  42.322   2.119   6.971
 5376POPC   C4A68238  42.244   2.541   7.115
 5376POPC   C1B68239  41.918   1.817   6.221
 5376POPC   C2B68240  41.847   1.928   6.660
 5376POPC   C3B68241  41.996   1.701   7.021
 5376POPC   C4B68242  42.432   1.633   7.119
 5377POPC   NC368243   1.473  33.657   5.509
 5377POPC   PO468244   0.815  33.771   5.473
 5377POPC   GL168245   1.083  33.860   5.823
 5377POPC   GL268246   1.461  33.912   5.934
 5377POPC   C1A68247   1.104  33.691   6.224
 5377POPC   D2A68248   1.026  33.850   6.602
 5377POPC   C3A68249   1.027  33.500   6.851
 5377POPC   C4A68250   1.038  33.713   7.211
 5377POPC   C1B68251   1.510  34.138   6.304
 5377POPC   C2B68252   1.509  34.025   6.708
 5377POPC   C3B68253   1.509  33.892   7.110
 5377POPC   C4B68254   1.699  34.063   7.438
 5378POPC   NC368255   6.093  31.786   5.346
 5378POPC   PO468256   6.660  31.435   5.254
 5378POPC   GL168257   6.630  31.439   5.717
 5378POPC   GL268258   6.335  31.651   5.792
 5378POPC   C1A68259   6.756  31.510   6.179
 5378POPC   D2A68260   7.052  31.539   6.581
 5378POPC   C3A68261   6.932  31.619   7.039
 5378POPC   C4A68262   6.890  31.290   7.391
 5378POPC   C1B68263   6.220  31.510   6.203
 5378POPC   C2B68264   6.441  31.452   6.597
 5378POPC   C3B68265   6.445  31.421   7.036
 5378POPC   C4B68266   6.398  31.071   7.298
 5379POPC   NC368267  40.456   8.477   5.450
 5379POPC   PO468268  41.045   8.215   5.295
 5379POPC   GL168269  40.829   8.205   5.697
 5379POPC   GL268270  40.935   7.890   5.833
 5379POPC   C1A68271  40.784   8.308   6.164
 5379POPC   D2A68272  40.692   8.186   6.647
 5379POPC   C3A68273  40.779   8.335   7.101
 5379POPC   C4A68274  40.493   8.481   7.478
 5379POPC   C1B68275  41.177   8.013   6.175
 5379POPC   C2B68276  41.171   7.997   6.600
 5379POPC   C3B68277  41.012   7.881   7.026
 5379POPC   C4B68278  41.024   8.032   7.463
 5380POPC   NC368279  16.849  11.949   5.378
 5380POPC   PO468280  16.408  12.500   5.379
 5380POPC   GL168281  16.635  12.262   5.741
 5380POPC   GL268282  16.977  12.035   5.845
 5380POPC   C1A68283  16.741  12.321   6.170
 5380POPC   D2A68284  16.784  11.975   6.461
 5380POPC   C3A68285  16.703  12.116   6.884
 5380POPC   C4A68286  16.674  12.359   7.262
 5380POPC   C1B68287  17.164  11.742   6.149
 5380POPC   C2B68288  17.236  11.739   6.560
 5380POPC   C3B68289  16.960  11.676   6.875
 5380POPC   C4B68290  16.944  11.854   7.276
 5381POPC   NC368291  16.451  24.721   5.059
 5381POPC   PO468292  16.674  25.244   5.521
 5381POPC   GL168293  16.812  25.318   5.924
 5381POPC   GL268294  16.641  25.644   5.869
 5381POPC   C1A68295  16.910  24.984   6.262
 5381POPC   D2A68296  16.797  24.777   6.647
 5381POPC   C3A68297  16.659  25.090   6.904
 5381POPC   C4A68298  16.753  25.144   7.287
 5381POPC   C1B68299  16.602  25.611   6.303
 5381POPC   C2B68300  16.815  25.517   6.681
 5381POPC   C3B68301  16.758  25.643   7.113
 5381POPC   C4B68302  16.890  25.618   7.530
 5382POPC   NC368303   4.734  30.451   4.991
 5382POPC   PO468304   4.281  30.802   5.349
 5382POPC   GL168305   4.218  30.703   5.792
 5382POPC   GL268306   4.220  31.044   5.892
 5382POPC   C1A68307   4.221  30.347   6.152
 5382POPC   D2A68308   4.003  30.228   6.547
 5382POPC   C3A68309   4.261  30.274   6.906
 5382POPC   C4A68310   4.139  30.333   7.298
 5382POPC   C1B68311   4.243  30.846   6.290
 5382POPC   C2B68312   4.322  30.746   6.690
 5382POPC   C3B68313   4.138  31.038   6.946
 5382POPC   C4B68314   4.122  31.002   7.359
 5383POPC   NC368315   9.327  30.306   5.459
 5383POPC   PO468316   9.814  30.717   5.286
 5383POPC   GL168317   9.811  30.505   5.669
 5383POPC   GL268318   9.878  30.805   5.843
 5383POPC   C1A68319   9.745  30.381   6.098
 5383POPC   D2A68320   9.850  30.309   6.541
 5383POPC   C3A68321   9.788  30.554   6.905
 5383POPC   C4A68322   9.785  30.754   7.302
 5383POPC   C1B68323   9.981  30.781   6.309
 5383POPC   C2B68324  10.046  31.061   6.677
 5383POPC   C3B68325  10.193  31.177   7.098
 5383POPC   C4B68326  10.143  31.026   7.544
 5384POPC   NC368327  31.166  28.403   5.275
 5384POPC   PO468328  30.510  28.566   5.436
 5384POPC   GL168329  30.606  28.334   5.814
 5384POPC   GL268330  30.909  28.236   5.685
 5384POPC   C1A68331  30.647  28.350   6.283
 5384POPC   D2A68332  30.491  28.518   6.689
 5384POPC   C3A68333  30.646  28.338   7.068
 5384POPC   C4A68334  30.701  28.420   7.498
 5384POPC   C1B68335  31.013  28.039   6.059
 5384POPC   C2B68336  31.102  28.138   6.473
 5384POPC   C3B68337  31.054  28.087   6.898
 5384POPC   C4B68338  31.162  28.225   7.320
 5385POPC   NC368339  17.402  38.002   5.324
 5385POPC   PO468340  17.642  37.344   5.284
 5385POPC   GL168341  17.632  37.600   5.709
 5385POPC   GL268342  17.876  37.903   5.674
 5385POPC   C1A68343  17.480  37.517   6.176
 5385POPC   D2A68344  17.285  37.613   6.602
 5385POPC   C3A68345  17.221  37.422   7.022
 5385POPC   C4A68346  17.186  37.394   7.484
 5385POPC   C1B68347  17.903  37.839   6.119
 5385POPC   C2B68348  17.827  37.699   6.524
 5385POPC   C3B68349  17.745  37.578   6.925
 5385POPC   C4B68350  17.663  37.835   7.273
 5386POPC   NC368351  44.159  36.560   5.425
 5386POPC   PO468352  43.682  37.072   5.314
 5386POPC   GL168353  43.913  37.056   5.653
 5386POPC   GL268354  43.741  36.756   5.736
 5386POPC   C1A68355  43.987  37.061   6.082
 5386POPC   D2A68356  44.086  36.929   6.477
 5386POPC   C3A68357  43.784  37.106   6.738
 5386POPC   C4A68358  43.942  37.055   7.097
 5386POPC   C1B68359  43.804  36.482   6.068
 5386POPC   C2B68360  43.876  36.462   6.494
 5386POPC   C3B68361  43.905  36.560   6.921
 5386POPC   C4B68362  43.836  36.635   7.335
 5387POPC   NC368363   6.520  29.434   5.372
 5387POPC   PO468364   6.849  28.858   5.505
 5387POPC   GL168365   6.733  29.205   5.789
 5387POPC   GL268366   6.403  29.266   5.857
 5387POPC   C1A68367   6.821  29.251   6.258
 5387POPC   D2A68368   7.063  29.315   6.680
 5387POPC   C3A68369   7.013  29.041   7.061
 5387POPC   C4A68370   6.849  29.078   7.504
 5387POPC   C1B68371   6.424  29.571   6.218
 5387POPC   C2B68372   6.557  29.509   6.671
 5387POPC   C3B68373   6.577  29.379   7.137
 5387POPC   C4B68374   6.405  29.350   7.569
 5388POPC   NC368375   9.469   8.556   5.563
 5388POPC   PO468376   9.755   9.198   5.407
 5388POPC   GL168377   9.719   8.960   5.793
 5388POPC   GL268378   9.418   9.112   5.919
 5388POPC   C1A68379   9.830   8.731   6.190
 5388POPC   D2A68380   9.722   8.767   6.661
 5388POPC   C3A68381  10.073   8.857   6.996
 5388POPC   C4A68382  10.046   9.040   7.412
 5388POPC   C1B68383   9.707   9.205   6.304
 5388POPC   C2B68384   9.816   9.295   6.753
 5388POPC   C3B68385   9.650   9.090   7.090
 5388POPC   C4B68386   9.253   8.957   7.190
 5389POPC   NC368387  19.899  12.798   5.350
 5389POPC   PO468388  19.598  13.193   5.736
 5389POPC   GL168389  19.827  12.888   5.860
 5389POPC   GL268390  19.517  12.680   5.800
 5389POPC   C1A68391  20.047  12.971   6.245
 5389POPC   D2A68392  19.916  12.817   6.633
 5389POPC   C3A68393  19.785  13.111   6.915
 5389POPC   C4A68394  19.901  13.045   7.312
 5389POPC   C1B68395  19.649  12.571   6.239
 5389POPC   C2B68396  19.497  12.528   6.673
 5389POPC   C3B68397  19.743  12.489   7.056
 5389POPC   C4B68398  19.818  12.482   7.505
 5390POPC   NC368399  22.452  42.305   5.465
 5390POPC   PO468400  21.753  42.378   5.451
 5390POPC   GL168401  22.075  42.499   5.792
 5390POPC   GL268402  22.187  42.202   5.938
 5390POPC   C1A68403  22.238  42.649   6.223
 5390POPC   D2A68404  22.391  42.638   6.647
 5390POPC   C3A68405  22.098  42.612   6.961
 5390POPC   C4A68406  22.041  42.244   7.282
 5390POPC   C1B68407  22.137  41.922   6.301
 5390POPC   C2B68408  22.345  41.930   6.683
 5390POPC   C3B68409  22.447  42.229   6.987
 5390POPC   C4B68410  22.520  42.608   7.231
 5391POPC   NC368411   0.979   5.904   5.594
 5391POPC   PO468412   1.537   6.148   5.296
 5391POPC   GL168413   1.454   5.971   5.730
 5391POPC   GL268414   1.318   5.574   5.779
 5391POPC   C1A68415   1.298   5.937   6.165
 5391POPC   D2A68416   1.408   5.757   6.541
 5391POPC   C3A68417   1.378   6.050   6.860
 5391POPC   C4A68418   1.275   5.879   7.218
 5391POPC   C1B68419   1.060   5.469   6.152
 5391POPC   C2B68420   0.888   5.539   6.565
 5391POPC   C3B68421   1.023   5.473   6.968
 5391POPC   C4B68422   0.829   5.604   7.312
 5392POPC   NC368423  34.192  33.655   5.528
 5392POPC   PO468424  34.881  33.760   5.603
 5392POPC   GL168425  34.557  33.971   5.845
 5392POPC   GL268426  34.306  33.736   6.010
 5392POPC   C1A68427  34.567  34.100   6.282
 5392POPC   D2A68428  34.506  33.887   6.661
 5392POPC   C3A68429  34.652  34.002   7.080
 5392POPC   C4A68430  34.380  33.671   7.249
 5392POPC   C1B68431  34.692  33.596   6.205
 5392POPC   C2B68432  34.944  33.657   6.547
 5392POPC   C3B68433  34.842  33.549   6.974
 5392POPC   C4B68434  34.752  33.262   7.304
 5393POPC   NC368435  12.527  37.207   5.404
 5393POPC   PO468436  12.887  36.650   5.091
 5393POPC   GL168437  12.812  36.754   5.557
 5393POPC   GL268438  13.046  36.520   5.726
 5393POPC   C1A68439  12.823  36.941   6.027
 5393POPC   D2A68440  12.909  37.259   6.414
 5393POPC   C3A68441  12.888  37.076   6.850
 5393POPC   C4A68442  12.643  37.114   7.252
 5393POPC   C1B68443  13.081  36.485   6.181
 5393POPC   C2B68444  13.208  36.522   6.616
 5393POPC   C3B68445  13.174  36.685   7.036
 5393POPC   C4B68446  12.867  36.607   7.321
 5394POPC   NC368447   0.347  39.999   5.408
 5394POPC   PO468448   0.930  40.256   5.630
 5394POPC   GL168449   0.592  40.417   5.930
 5394POPC   GL268450   0.307  40.217   5.883
 5394POPC   C1A68451   0.393  40.449   6.351
 5394POPC   D2A68452   0.394  40.113   6.650
 5394POPC   C3A68453   0.229  40.126   7.052
 5394POPC   C4A68454   0.377  39.964   7.435
 5394POPC   C1B68455   0.065  40.073   6.255
 5394POPC   C2B68456  44.937  40.326   6.641
 5394POPC   C3B68457  44.926  40.519   7.038
 5394POPC   C4B68458   0.194  40.487   7.423
 5395POPC   NC368459  20.645  18.450   5.488
 5395POPC   PO468460  20.659  17.707   5.605
 5395POPC   GL168461  20.553  17.888   5.981
 5395POPC   GL268462  20.511  18.230   5.929
 5395POPC   C1A68463  20.263  17.961   6.327
 5395POPC   D2A68464  20.223  18.160   6.753
 5395POPC   C3A68465  20.548  18.090   7.098
 5395POPC   C4A68466  20.777  18.270   7.446
 5395POPC   C1B68467  20.740  18.267   6.314
 5395POPC   C2B68468  20.775  18.368   6.741
 5395POPC   C3B68469  20.914  18.616   7.112
 5395POPC   C4B68470  20.770  18.794   7.519
 5396POPC   NC368471  41.103  33.310   5.550
 5396POPC   PO468472  40.432  33.315   5.572
 5396POPC   GL168473  40.609  33.275   5.933
 5396POPC   GL268474  40.839  33.002   5.891
 5396POPC   C1A68475  40.529  33.132   6.342
 5396POPC   D2A68476  40.728  32.924   6.629
 5396POPC   C3A68477  40.718  33.067   7.004
 5396POPC   C4A68478  40.976  32.901   7.337
 5396POPC   C1B68479  40.696  32.657   6.184
 5396POPC   C2B68480  40.535  32.469   6.597
 5396POPC   C3B68481  40.674  32.557   7.025
 5396POPC   C4B68482  40.478  32.790   7.344
 5397POPC   NC368483  43.724  40.406   5.513
 5397POPC   PO468484  43.645  41.070   5.398
 5397POPC   GL168485  43.484  40.956   5.799
 5397POPC   GL268486  43.337  40.619   5.782
 5397POPC   C1A68487  43.691  40.785   6.184
 5397POPC   D2A68488  43.967  40.769   6.540
 5397POPC   C3A68489  43.853  40.972   6.903
 5397POPC   C4A68490  44.005  40.915   7.286
 5397POPC   C1B68491  43.271  40.524   6.213
 5397POPC   C2B68492  43.502  40.496   6.618
 5397POPC   C3B68493  43.722  40.499   7.037
 5397POPC   C4B68494  43.578  40.679   7.438
 5398POPC   NC368495   2.173  27.322   5.307
 5398POPC   PO468496   1.909  27.971   5.326
 5398POPC   GL168497   1.843  27.629   5.638
 5398POPC   GL268498   2.149  27.549   5.780
 5398POPC   C1A68499   1.726  27.389   6.021
 5398POPC   D2A68500   1.732  27.300   6.489
 5398POPC   C3A68501   1.972  27.462   6.846
 5398POPC   C4A68502   1.925  27.599   7.253
 5398POPC   C1B68503   2.166  27.541   6.239
 5398POPC   C2B68504   2.350  27.725   6.603
 5398POPC   C3B68505   2.487  27.411   6.863
 5398POPC   C4B68506   2.361  27.360   7.269
 5399POPC   NC368507  38.657   5.733   5.475
 5399POPC   PO468508  38.322   6.264   5.543
 5399POPC   GL168509  38.364   5.924   5.870
 5399POPC   GL268510  38.726   5.873   5.985
 5399POPC   C1A68511  38.283   5.893   6.310
 5399POPC   D2A68512  38.383   5.694   6.696
 5399POPC   C3A68513  38.239   5.921   7.055
 5399POPC   C4A68514  38.459   6.228   7.320
 5399POPC   C1B68515  38.676   5.550   6.303
 5399POPC   C2B68516  38.714   5.301   6.662
 5399POPC   C3B68517  38.661   5.491   7.058
 5399POPC   C4B68518  38.804   5.666   7.386
 5400POPC   NC368519  22.495  35.432   5.494
 5400POPC   PO468520  21.948  35.789   5.575
 5400POPC   GL168521  22.120  35.483   5.861
 5400POPC   GL268522  21.804  35.325   5.872
 5400POPC   C1A68523  22.376  35.518   6.264
 5400POPC   D2A68524  22.434  35.374   6.729
 5400POPC   C3A68525  22.456  35.646   7.099
 5400POPC   C4A68526  22.098  35.807   7.295
 5400POPC   C1B68527  21.919  35.291   6.325
 5400POPC   C2B68528  21.909  35.347   6.788
 5400POPC   C3B68529  22.137  35.260   7.189
 5400POPC   C4B68530  22.110  34.988   7.584
 5401POPC   NC368531   5.585  23.090   5.528
 5401POPC   PO468532   5.931  22.533   5.310
 5401POPC   GL168533   5.947  22.779   5.738
 5401POPC   GL268534   6.049  23.131   5.747
 5401POPC   C1A68535   5.704  22.916   6.140
 5401POPC   D2A68536   5.384  22.765   6.461
 5401POPC   C3A68537   5.471  22.823   6.902
 5401POPC   C4A68538   5.641  22.678   7.294
 5401POPC   C1B68539   6.113  23.230   6.188
 5401POPC   C2B68540   5.921  23.066   6.573
 5401POPC   C3B68541   5.978  22.836   6.922
 5401POPC   C4B68542   6.113  22.841   7.326
 5402POPC   NC368543  24.770  11.868   5.439
 5402POPC   PO468544  24.177  12.208   5.384
 5402POPC   GL168545  24.305  12.051   5.748
 5402POPC   GL268546  24.635  12.175   5.856
 5402POPC   C1A68547  24.198  12.202   6.149
 5402POPC   D2A68548  24.365  12.210   6.571
 5402POPC   C3A68549  24.215  12.052   6.959
 5402POPC   C4A68550  24.225  12.323   7.316
 5402POPC   C1B68551  24.947  12.163   6.203
 5402POPC   C2B68552  24.882  12.137   6.624
 5402POPC   C3B68553  24.759  12.077   7.023
 5402POPC   C4B68554  24.679  12.099   7.452
 5403POPC   NC368555  41.257  30.823   5.427
 5403POPC   PO468556  41.783  30.457   5.464
 5403POPC   GL168557  41.683  30.700   5.826
 5403POPC   GL268558  41.335  30.838   5.913
 5403POPC   C1A68559  41.709  30.898   6.229
 5403POPC   D2A68560  41.396  30.873   6.527
 5403POPC   C3A68561  41.600  30.759   6.881
 5403POPC   C4A68562  41.708  30.780   7.295
 5403POPC   C1B68563  41.375  30.441   6.149
 5403POPC   C2B68564  41.230  30.362   6.566
 5403POPC   C3B68565  41.101  30.618   6.884
 5403POPC   C4B68566  41.198  31.066   6.979
 5404POPC   NC368567   6.750  12.388   5.450
 5404POPC   PO468568   6.827  11.757   5.237
 5404POPC   GL168569   6.781  11.897   5.701
 5404POPC   GL268570   6.531  11.719   5.899
 5404POPC   C1A68571   6.702  12.150   6.133
 5404POPC   D2A68572   6.505  12.147   6.584
 5404POPC   C3A68573   6.677  12.362   6.973
 5404POPC   C4A68574   6.794  12.295   7.419
 5404POPC   C1B68575   6.309  11.482   6.200
 5404POPC   C2B68576   6.465  11.491   6.616
 5404POPC   C3B68577   6.630  11.773   6.943
 5404POPC   C4B68578   6.399  12.012   7.237
 5405POPC   NC368579   6.906  35.016   5.268
 5405POPC   PO468580   6.541  34.460   5.458
 5405POPC   GL168581   6.671  34.647   5.807
 5405POPC   GL268582   6.340  34.813   5.827
 5405POPC   C1A68583   6.615  34.552   6.226
 5405POPC   D2A68584   6.652  34.765   6.605
 5405POPC   C3A68585   6.756  34.528   6.965
 5405POPC   C4A68586   6.426  34.373   7.205
 5405POPC   C1B68587   6.389  35.068   6.200
 5405POPC   C2B68588   6.232  35.068   6.604
 5405POPC   C3B68589   6.248  34.819   6.982
 5405POPC   C4B68590   6.361  34.897   7.413
 5406POPC   NC368591   7.773  40.576   5.520
 5406POPC   PO468592   8.273  41.063   5.385
 5406POPC   GL168593   8.084  40.924   5.785
 5406POPC   GL268594   8.171  40.570   5.901
 5406POPC   C1A68595   7.895  40.893   6.192
 5406POPC   D2A68596   7.826  40.675   6.564
 5406POPC   C3A68597   7.967  40.849   6.933
 5406POPC   C4A68598   7.974  40.681   7.301
 5406POPC   C1B68599   8.547  40.687   6.217
 5406POPC   C2B68600   8.682  40.731   6.706
 5406POPC   C3B68601   8.473  40.823   7.142
 5406POPC   C4B68602   8.356  40.791   7.617
 5407POPC   NC368603  23.226  21.868   5.343
 5407POPC   PO468604  22.772  22.328   5.404
 5407POPC   GL168605  22.869  22.197   5.830
 5407POPC   GL268606  23.200  22.264   5.822
 5407POPC   C1A68607  23.026  22.067   6.277
 5407POPC   D2A68608  23.318  22.082   6.653
 5407POPC   C3A68609  23.186  21.792   6.997
 5407POPC   C4A68610  22.953  21.797   7.434
 5407POPC   C1B68611  23.393  22.419   6.229
 5407POPC   C2B68612  23.338  22.600   6.639
 5407POPC   C3B68613  23.208  22.419   7.043
 5407POPC   C4B68614  22.818  22.156   7.089
 5408POPC   NC368615  13.835  21.964   5.697
 5408POPC   PO468616  13.411  22.452   5.534
 5408POPC   GL168617  13.573  22.373   5.878
 5408POPC   GL268618  13.922  22.436   5.893
 5408POPC   C1A68619  13.533  22.219   6.283
 5408POPC   D2A68620  13.304  22.013   6.582
 5408POPC   C3A68621  13.506  22.000   6.977
 5408POPC   C4A68622  13.280  22.138   7.308
 5408POPC   C1B68623  13.707  22.699   6.222
 5408POPC   C2B68624  13.822  22.686   6.637
 5408POPC   C3B68625  13.926  22.598   7.031
 5408POPC   C4B68626  13.721  22.369   7.300
 5409POPC   NC368627   0.136   9.923   5.592
 5409POPC   PO468628  44.645   9.618   5.251
 5409POPC   GL168629  44.662   9.694   5.701
 5409POPC   GL268630  44.382   9.499   5.783
 5409POPC   C1A68631  44.773   9.639   6.156
 5409POPC   D2A68632  44.913   9.874   6.538
 5409POPC   C3A68633  44.843   9.675   6.952
 5409POPC   C4A68634  44.609   9.810   7.342
 5409POPC   C1B68635  44.261   9.563   6.220
 5409POPC   C2B68636  44.431   9.684   6.617
 5409POPC   C3B68637  44.352   9.495   7.016
 5409POPC   C4B68638  44.199   9.190   7.307
 5410POPC   NC368639  23.433  33.833   5.231
 5410POPC   PO468640  22.808  33.852   5.278
 5410POPC   GL168641  23.106  33.745   5.623
 5410POPC   GL268642  22.821  33.637   5.794
 5410POPC   C1A68643  23.228  33.750   6.091
 5410POPC   D2A68644  22.985  33.563   6.436
 5410POPC   C3A68645  23.086  33.720   6.866
 5410POPC   C4A68646  22.918  33.675   7.285
 5410POPC   C1B68647  22.793  34.008   6.099
 5410POPC   C2B68648  22.632  33.948   6.519
 5410POPC   C3B68649  22.663  34.016   6.929
 5410POPC   C4B68650  22.492  33.928   7.292
 5411POPC   NC368651   1.860  35.910   5.578
 5411POPC   PO468652   2.286  36.404   5.391
 5411POPC   GL168653   2.146  36.347   5.815
 5411POPC   GL268654   1.777  36.357   5.816
 5411POPC   C1A68655   2.278  36.147   6.192
 5411POPC   D2A68656   2.156  35.870   6.534
 5411POPC   C3A68657   2.270  35.963   6.956
 5411POPC   C4A68658   2.061  35.923   7.358
 5411POPC   C1B68659   1.780  36.127   6.210
 5411POPC   C2B68660   1.581  36.104   6.589
 5411POPC   C3B68661   1.744  36.011   6.975
 5411POPC   C4B68662   1.539  36.046   7.366
 5412POPC   NC368663   0.320  18.406   5.305
 5412POPC   PO468664   0.223  17.725   5.273
 5412POPC   GL168665   0.239  18.019   5.673
 5412POPC   GL268666   0.503  18.326   5.782
 5412POPC   C1A68667   0.216  18.136   6.133
 5412POPC   D2A68668   0.156  18.362   6.496
 5412POPC   C3A68669   0.384  18.226   6.841
 5412POPC   C4A68670   0.322  17.873   7.061
 5412POPC   C1B68671   0.749  18.198   6.199
 5412POPC   C2B68672   0.957  18.169   6.638
 5412POPC   C3B68673   0.866  18.083   7.102
 5412POPC   C4B68674   0.680  18.122   7.539
 5413POPC   NC368675   8.526  10.686   5.082
 5413POPC   PO468676   8.012  10.456   5.418
 5413POPC   GL168677   8.223  10.633   5.798
 5413POPC   GL268678   8.517  10.409   5.857
 5413POPC   C1A68679   8.132  10.559   6.255
 5413POPC   D2A68680   7.966  10.474   6.688
 5413POPC   C3A68681   8.088  10.673   7.078
 5413POPC   C4A68682   8.031  10.305   7.360
 5413POPC   C1B68683   8.728  10.302   6.241
 5413POPC   C2B68684   8.473  10.287   6.587
 5413POPC   C3B68685   8.507  10.440   6.995
 5413POPC   C4B68686   8.442  10.595   7.449
 5414POPC   NC368687  21.723  31.902   5.399
 5414POPC   PO468688  21.223  31.254   5.358
 5414POPC   GL168689  21.181  31.486   5.775
 5414POPC   GL268690  21.168  31.231   6.016
 5414POPC   C1A68691  21.142  31.708   6.218
 5414POPC   D2A68692  21.312  31.565   6.614
 5414POPC   C3A68693  21.148  31.708   6.993
 5414POPC   C4A68694  21.437  31.552   7.293
 5414POPC   C1B68695  21.578  31.453   6.172
 5414POPC   C2B68696  21.790  31.376   6.539
 5414POPC   C3B68697  21.617  31.207   6.908
 5414POPC   C4B68698  21.798  31.197   7.333
 5415POPC   NC368699  30.089  20.100   5.616
 5415POPC   PO468700  30.062  19.584   5.243
 5415POPC   GL168701  29.852  19.589   5.722
 5415POPC   GL268702  29.658  19.911   5.802
 5415POPC   C1A68703  29.860  19.686   6.219
 5415POPC   D2A68704  30.095  19.554   6.612
 5415POPC   C3A68705  30.081  19.758   7.035
 5415POPC   C4A68706  30.261  19.637   7.425
 5415POPC   C1B68707  29.642  20.158   6.207
 5415POPC   C2B68708  29.577  20.011   6.655
 5415POPC   C3B68709  29.720  20.128   7.075
 5415POPC   C4B68710  29.702  19.858   7.453
 5416POPC   NC368711  29.529  20.927   5.560
 5416POPC   PO468712  29.033  20.465   5.325
 5416POPC   GL168713  28.945  20.586   5.756
 5416POPC   GL268714  28.935  20.978   5.740
 5416POPC   C1A68715  29.146  20.397   6.163
 5416POPC   D2A68716  29.408  20.488   6.564
 5416POPC   C3A68717  29.155  20.345   6.934
 5416POPC   C4A68718  28.695  20.476   7.016
 5416POPC   C1B68719  28.988  20.879   6.192
 5416POPC   C2B68720  28.930  20.692   6.599
 5416POPC   C3B68721  29.073  20.839   7.009
 5416POPC   C4B68722  29.402  20.844   7.281
 5417POPC   NC368723  21.022  24.384   5.357
 5417POPC   PO468724  20.361  24.418   5.359
 5417POPC   GL168725  20.635  24.461   5.720
 5417POPC   GL268726  20.846  24.159   5.768
 5417POPC   C1A68727  20.719  24.538   6.168
 5417POPC   D2A68728  20.556  24.416   6.585
 5417POPC   C3A68729  20.665  24.638   6.977
 5417POPC   C4A68730  20.556  24.378   7.331
 5417POPC   C1B68731  21.055  24.011   6.113
 5417POPC   C2B68732  20.954  24.026   6.542
 5417POPC   C3B68733  20.840  24.139   6.957
 5417POPC   C4B68734  21.070  24.398   7.253
 5418POPC   NC368735   9.289   2.679   5.116
 5418POPC   PO468736   9.707   3.002   5.471
 5418POPC   GL168737   9.688   2.883   5.860
 5418POPC   GL268738   9.664   2.549   5.808
 5418POPC   C1A68739   9.850   2.760   6.264
 5418POPC   D2A68740   9.664   2.846   6.637
 5418POPC   C3A68741   9.825   2.879   7.044
 5418POPC   C4A68742   9.532   2.893   7.379
 5418POPC   C1B68743   9.863   2.275   6.105
 5418POPC   C2B68744   9.707   2.332   6.521
 5418POPC   C3B68745   9.803   2.303   6.933
 5418POPC   C4B68746   9.749   2.443   7.354
 5419POPC   NC368747   8.234  26.987   5.324
 5419POPC   PO468748   8.602  26.484   5.477
 5419POPC   GL168749   8.432  26.755   5.826
 5419POPC   GL268750   8.325  27.112   5.851
 5419POPC   C1A68751   8.307  26.754   6.283
 5419POPC   D2A68752   8.275  26.772   6.769
 5419POPC   C3A68753   8.176  26.589   7.197
 5419POPC   C4A68754   8.305  26.328   7.536
 5419POPC   C1B68755   8.430  27.262   6.292
 5419POPC   C2B68756   8.406  27.270   6.773
 5419POPC   C3B68757   8.359  27.084   7.185
 5419POPC   C4B68758   8.059  27.011   7.559
 5420POPC   NC368759  16.170  25.725   5.552
 5420POPC   PO468760  15.857  25.079   5.483
 5420POPC   GL168761  15.968  25.167   5.896
 5420POPC   GL268762  16.268  25.316   5.847
 5420POPC   C1A68763  15.971  25.487   6.220
 5420POPC   D2A68764  15.801  25.569   6.622
 5420POPC   C3A68765  15.854  25.167   6.821
 5420POPC   C4A68766  15.890  25.148   7.231
 5420POPC   C1B68767  16.406  25.109   6.195
 5420POPC   C2B68768  16.298  25.274   6.565
 5420POPC   C3B68769  16.289  25.554   6.868
 5420POPC   C4B68770  16.331  25.383   7.247
 5421POPC   NC368771  18.688  10.131   5.506
 5421POPC   PO468772  19.133  10.506   5.175
 5421POPC   GL168773  19.124  10.434   5.670
 5421POPC   GL268774  18.946  10.734   5.813
 5421POPC   C1A68775  19.126  10.421   6.179
 5421POPC   D2A68776  19.055  10.262   6.636
 5421POPC   C3A68777  19.061  10.541   7.015
 5421POPC   C4A68778  19.339  10.590   7.439
 5421POPC   C1B68779  18.911  10.932   6.252
 5421POPC   C2B68780  18.651  11.009   6.643
 5421POPC   C3B68781  18.537  10.793   7.036
 5421POPC   C4B68782  18.658  10.397   7.277
 5422POPC   NC368783  39.521   3.606   5.428
 5422POPC   PO468784  40.244   3.510   5.490
 5422POPC   GL168785  40.177   3.693   5.880
 5422POPC   GL268786  39.867   3.875   5.810
 5422POPC   C1A68787  40.222   3.513   6.279
 5422POPC   D2A68788  40.134   3.246   6.626
 5422POPC   C3A68789  40.252   3.429   7.024
 5422POPC   C4A68790  40.286   3.494   7.458
 5422POPC   C1B68791  39.725   3.545   6.120
 5422POPC   C2B68792  39.582   3.368   6.516
 5422POPC   C3B68793  39.712   3.283   6.942
 5422POPC   C4B68794  39.792   3.605   7.225
 5423POPC   NC368795  24.421  33.675   5.224
 5423POPC   PO468796  24.093  34.222   5.529
 5423POPC   GL168797  24.266  33.877   5.780
 5423POPC   GL268798  24.111  33.538   5.698
 5423POPC   C1A68799  24.599  33.843   6.112
 5423POPC   D2A68800  24.502  33.797   6.562
 5423POPC   C3A68801  24.814  33.784   6.879
 5423POPC   C4A68802  24.649  33.781   7.283
 5423POPC   C1B68803  24.243  33.496   6.165
 5423POPC   C2B68804  24.054  33.538   6.596
 5423POPC   C3B68805  24.164  33.708   7.016
 5423POPC   C4B68806  24.180  33.758   7.456
 5424POPC   NC368807   6.120   1.967   5.425
 5424POPC   PO468808   5.656   1.512   5.498
 5424POPC   GL168809   6.000   1.662   5.817
 5424POPC   GL268810   6.019   2.063   5.903
 5424POPC   C1A68811   6.112   1.715   6.259
 5424POPC   D2A68812   6.038   2.030   6.586
 5424POPC   C3A68813   6.030   1.874   7.049
 5424POPC   C4A68814   5.984   2.105   7.438
 5424POPC   C1B68815   5.643   1.974   6.135
 5424POPC   C2B68816   5.491   2.180   6.489
 5424POPC   C3B68817   5.652   2.161   6.888
 5424POPC   C4B68818   5.504   2.193   7.266
 5425POPC   NC368819  33.426  31.462   5.410
 5425POPC   PO468820  32.812  31.347   5.415
 5425POPC   GL168821  33.090  31.296   5.765
 5425POPC   GL268822  33.103  31.667   5.797
 5425POPC   C1A68823  33.283  31.390   6.175
 5425POPC   D2A68824  33.192  31.624   6.535
 5425POPC   C3A68825  33.079  31.413   6.905
 5425POPC   C4A68826  33.244  31.390   7.283
 5425POPC   C1B68827  32.848  31.814   6.160
 5425POPC   C2B68828  32.762  31.891   6.599
 5425POPC   C3B68829  32.684  31.740   7.020
 5425POPC   C4B68830  32.858  31.687   7.418
 5426POPC   NC368831  17.356   9.378   5.426
 5426POPC   PO468832  17.278   8.595   5.392
 5426POPC   GL168833  17.245   8.951   5.706
 5426POPC   GL268834  17.587   9.050   5.808
 5426POPC   C1A68835  17.245   9.031   6.184
 5426POPC   D2A68836  17.401   8.877   6.572
 5426POPC   C3A68837  17.308   8.985   6.995
 5426POPC   C4A68838  17.438   8.852   7.433
 5426POPC   C1B68839  17.789   8.938   6.240
 5426POPC   C2B68840  17.895   8.762   6.689
 5426POPC   C3B68841  17.711   8.590   7.080
 5426POPC   C4B68842  17.804   8.518   7.553
 5427POPC   NC368843  14.159  21.738   5.185
 5427POPC   PO468844  14.331  21.140   5.344
 5427POPC   GL168845  14.276  21.381   5.719
 5427POPC   GL268846  14.597  21.329   5.824
 5427POPC   C1A68847  14.262  21.504   6.176
 5427POPC   D2A68848  14.496  21.555   6.588
 5427POPC   C3A68849  14.356  21.304   6.927
 5427POPC   C4A68850  14.213  21.443   7.330
 5427POPC   C1B68851  14.779  21.342   6.199
 5427POPC   C2B68852  14.732  21.085   6.553
 5427POPC   C3B68853  14.839  21.139   6.952
 5427POPC   C4B68854  14.694  21.281   7.334
 5428POPC   NC368855  40.537  10.200   5.435
 5428POPC   PO468856  40.646  10.933   5.392
 5428POPC   GL168857  40.797  10.741   5.789
 5428POPC   GL268858  40.523  10.559   5.801
 5428POPC   C1A68859  40.845  10.432   6.186
 5428POPC   D2A68860  41.063  10.493   6.604
 5428POPC   C3A68861  40.825  10.440   6.985
 5428POPC   C4A68862  40.879  10.527   7.385
 5428POPC   C1B68863  40.395  10.724   6.205
 5428POPC   C2B68864  40.519  10.689   6.660
 5428POPC   C3B68865  40.443  10.752   7.141
 5428POPC   C4B68866  40.401  10.412   7.491
 5429POPC   NC368867  34.156  36.367   5.542
 5429POPC   PO468868  33.457  36.286   5.615
 5429POPC   GL168869  33.802  36.103   5.884
 5429POPC   GL268870  34.098  36.321   6.035
 5429POPC   C1A68871  33.889  35.970   6.312
 5429POPC   D2A68872  33.830  36.244   6.686
 5429POPC   C3A68873  33.882  36.011   7.048
 5429POPC   C4A68874  34.194  35.869   7.346
 5429POPC   C1B68875  33.670  36.464   6.241
 5429POPC   C2B68876  33.509  36.687   6.621
 5429POPC   C3B68877  33.586  36.541   7.037
 5429POPC   C4B68878  33.497  36.420   7.457
 5430POPC   NC368879  35.473   8.993   5.529
 5430POPC   PO468880  35.077   9.468   5.559
 5430POPC   GL168881  35.136   9.158   5.904
 5430POPC   GL268882  35.284   8.811   5.956
 5430POPC   C1A68883  35.337   9.182   6.295
 5430POPC   D2A68884  35.200   9.288   6.686
 5430POPC   C3A68885  35.480   9.266   7.013
 5430POPC   C4A68886  35.677   8.936   7.251
 5430POPC   C1B68887  35.380   8.663   6.366
 5430POPC   C2B68888  35.523   8.791   6.781
 5430POPC   C3B68889  35.317   8.608   7.141
 5430POPC   C4B68890  35.010   8.542   7.451
 5431POPC   NC368891  27.092  17.144   5.450
 5431POPC   PO468892  26.697  17.734   5.417
 5431POPC   GL168893  26.811  17.427   5.775
 5431POPC   GL268894  27.178  17.369   5.902
 5431POPC   C1A68895  26.770  17.343   6.211
 5431POPC   D2A68896  26.907  17.582   6.554
 5431POPC   C3A68897  26.694  17.557   6.922
 5431POPC   C4A68898  26.770  17.326   7.252
 5431POPC   C1B68899  27.288  17.291   6.347
 5431POPC   C2B68900  27.224  17.222   6.822
 5431POPC   C3B68901  27.148  16.977   7.221
 5431POPC   C4B68902  26.982  17.075   7.644
 5432POPC   NC368903  42.382  19.926   5.290
 5432POPC   PO468904  42.010  19.628   5.764
 5432POPC   GL168905  42.356  19.850   5.821
 5432POPC   GL268906  42.172  20.117   5.756
 5432POPC   C1A68907  42.596  19.975   6.168
 5432POPC   D2A68908  42.803  19.765   6.508
 5432POPC   C3A68909  42.602  19.966   6.843
 5432POPC   C4A68910  42.475  19.921   7.251
 5432POPC   C1B68911  42.069  20.042   6.217
 5432POPC   C2B68912  42.214  19.750   6.506
 5432POPC   C3B68913  42.097  19.821   6.909
 5432POPC   C4B68914  41.983  20.099   7.237
 5433POPC   NC368915  10.311  41.374   5.277
 5433POPC   PO468916  10.504  40.793   5.390
 5433POPC   GL168917  10.612  40.745   5.795
 5433POPC   GL268918  10.547  41.076   5.847
 5433POPC   C1A68919  10.658  40.644   6.232
 5433POPC   D2A68920  10.964  40.769   6.554
 5433POPC   C3A68921  10.797  40.689   6.976
 5433POPC   C4A68922  10.397  40.516   7.176
 5433POPC   C1B68923  10.467  41.164   6.275
 5433POPC   C2B68924  10.531  41.071   6.734
 5433POPC   C3B68925  10.451  41.055   7.204
 5433POPC   C4B68926  10.596  41.192   7.654
 5434POPC   NC368927   2.403  19.279   5.457
 5434POPC   PO468928   3.075  19.118   5.212
 5434POPC   GL168929   2.880  19.117   5.659
 5434POPC   GL268930   2.648  18.810   5.724
 5434POPC   C1A68931   3.017  19.204   6.097
 5434POPC   D2A68932   3.034  19.099   6.548
 5434POPC   C3A68933   3.064  19.345   6.933
 5434POPC   C4A68934   2.988  19.157   7.302
 5434POPC   C1B68935   2.508  19.068   6.086
 5434POPC   C2B68936   2.504  19.207   6.513
 5434POPC   C3B68937   2.561  19.121   6.959
 5434POPC   C4B68938   2.425  18.856   7.292
 5435POPC   NC368939  26.114   7.587   5.376
 5435POPC   PO468940  25.760   7.129   5.764
 5435POPC   GL168941  26.096   7.346   5.839
 5435POPC   GL268942  25.878   7.645   5.839
 5435POPC   C1A68943  26.344   7.309   6.196
 5435POPC   D2A68944  26.462   7.046   6.573
 5435POPC   C3A68945  26.302   7.238   6.927
 5435POPC   C4A68946  26.308   7.423   7.326
 5435POPC   C1B68947  25.953   7.642   6.294
 5435POPC   C2B68948  25.906   7.506   6.732
 5435POPC   C3B68949  25.867   7.611   7.174
 5435POPC   C4B68950  25.608   7.630   7.561
 5436POPC   NC368951  21.556   3.508   5.310
 5436POPC   PO468952  20.959   3.438   5.441
 5436POPC   GL168953  21.099   3.511   5.840
 5436POPC   GL268954  21.169   3.864   5.828
 5436POPC   C1A68955  21.451   3.529   6.148
 5436POPC   D2A68956  21.459   3.694   6.583
 5436POPC   C3A68957  21.394   3.336   6.832
 5436POPC   C4A68958  21.484   3.136   7.257
 5436POPC   C1B68959  21.048   3.823   6.269
 5436POPC   C2B68960  20.945   3.591   6.654
 5436POPC   C3B68961  21.071   3.758   7.035
 5436POPC   C4B68962  21.481   3.660   7.214
 5437POPC   NC368963  22.864  34.264   5.471
 5437POPC   PO468964  22.768  34.904   5.201
 5437POPC   GL168965  22.771  34.727   5.633
 5437POPC   GL268966  23.121  34.628   5.756
 5437POPC   C1A68967  22.765  34.623   6.116
 5437POPC   D2A68968  22.766  34.434   6.541
 5437POPC   C3A68969  22.644  34.521   6.984
 5437POPC   C4A68970  22.944  34.656   7.260
 5437POPC   C1B68971  23.206  34.323   6.133
 5437POPC   C2B68972  23.144  34.086   6.512
 5437POPC   C3B68973  23.111  34.262   6.932
 5437POPC   C4B68974  23.420  34.474   7.190
 5438POPC   NC368975   8.871  26.059   5.444
 5438POPC   PO468976   9.539  25.883   5.632
 5438POPC   GL168977   9.230  25.997   5.904
 5438POPC   GL268978   9.228  25.694   6.063
 5438POPC   C1A68979   9.187  26.290   6.260
 5438POPC   D2A68980   8.933  26.378   6.635
 5438POPC   C3A68981   9.057  26.184   7.032
 5438POPC   C4A68982   8.755  25.896   7.257
 5438POPC   C1B68983   8.867  25.855   6.292
 5438POPC   C2B68984   8.790  25.833   6.728
 5438POPC   C3B68985   9.127  25.687   6.929
 5438POPC   C4B68986   9.275  25.653   7.314
 5439POPC   NC368987  14.424   4.631   4.999
 5439POPC   PO468988  14.379   4.100   5.441
 5439POPC   GL168989  14.361   4.077   5.891
 5439POPC   GL268990  14.324   4.426   5.882
 5439POPC   C1A68991  14.136   4.159   6.296
 5439POPC   D2A68992  14.202   4.289   6.716
 5439POPC   C3A68993  14.571   4.238   6.930
 5439POPC   C4A68994  14.503   4.138   7.331
 5439POPC   C1B68995  14.596   4.387   6.245
 5439POPC   C2B68996  14.592   4.618   6.583
 5439POPC   C3B68997  14.608   4.756   6.949
 5439POPC   C4B68998  14.539   4.625   7.310
 5440POPC   NC368999   8.043  24.514   4.992
 5440POPC   PO469000   8.427  24.270   5.493
 5440POPC   GL169001   8.151  24.368   5.838
 5440POPC   GL269002   8.484  24.489   5.981
 5440POPC   C1A69003   8.063  24.616   6.234
 5440POPC   D2A69004   8.399  24.678   6.561
 5440POPC   C3A69005   8.347  24.603   7.002
 5440POPC   C4A69006   7.967  24.490   7.211
 5440POPC   C1B69007   8.345  24.200   6.307
 5440POPC   C2B69008   8.097  24.255   6.701
 5440POPC   C3B69009   8.258  24.079   7.102
 5440POPC   C4B69010   8.232  24.136   7.559
 5441POPC   NC369011   1.667  12.879   5.512
 5441POPC   PO469012   2.228  12.546   5.248
 5441POPC   GL169013   2.137  12.677   5.770
 5441POPC   GL269014   1.879  12.897   5.974
 5441POPC   C1A69015   2.143  12.592   6.270
 5441POPC   D2A69016   1.993  12.932   6.599
 5441POPC   C3A69017   1.864  12.875   7.042
 5441POPC   C4A69018   1.758  12.649   7.445
 5441POPC   C1B69019   2.264  13.082   6.169
 5441POPC   C2B69020   2.481  13.033   6.566
 5441POPC   C3B69021   2.359  13.111   6.965
 5441POPC   C4B69022   2.285  12.905   7.316
 5442POPC   NC369023  23.051  44.677   5.352
 5442POPC   PO469024  22.461  44.790   5.484
 5442POPC   GL169025  22.731  44.769   5.797
 5442POPC   GL269026  22.649  44.449   5.863
 5442POPC   C1A69027  23.085  44.745   6.082
 5442POPC   D2A69028  23.238  44.736   6.496
 5442POPC   C3A69029  23.067  44.879   6.873
 5442POPC   C4A69030  23.034  44.615   7.247
 5442POPC   C1B69031  22.804  44.363   6.250
 5442POPC   C2B69032  22.663  44.577   6.589
 5442POPC   C3B69033  22.588  44.710   6.984
 5442POPC   C4B69034  22.537  44.460   7.347
 5443POPC   NC369035  17.485  18.469   5.233
 5443POPC   PO469036  17.620  19.155   5.236
 5443POPC   GL169037  17.569  19.039   5.685
 5443POPC   GL269038  17.701  18.674   5.677
 5443POPC   C1A69039  17.443  19.233   6.123
 5443POPC   D2A69040  17.576  19.488   6.512
 5443POPC   C3A69041  17.563  19.207   6.882
 5443POPC   C4A69042  17.408  19.217   7.290
 5443POPC   C1B69043  17.554  18.627   6.105
 5443POPC   C2B69044  17.503  18.848   6.498
 5443POPC   C3B69045  17.279  18.782   6.891
 5443POPC   C4B69046  17.448  18.672   7.270
 5444POPC   NC369047  13.861  38.251   5.527
 5444POPC   PO469048  13.784  38.860   5.624
 5444POPC   GL169049  13.648  38.556   5.893
 5444POPC   GL269050  13.379  38.321   5.800
 5444POPC   C1A69051  13.701  38.572   6.296
 5444POPC   D2A69052  13.657  38.797   6.641
 5444POPC   C3A69053  13.676  38.500   6.930
 5444POPC   C4A69054  13.551  38.689   7.241
 5444POPC   C1B69055  13.480  38.120   6.193
 5444POPC   C2B69056  13.522  37.981   6.616
 5444POPC   C3B69057  13.202  38.062   6.886
 5444POPC   C4B69058  13.292  38.261   7.241
 5445POPC   NC369059   3.484  41.957   5.443
 5445POPC   PO469060   3.496  42.696   5.445
 5445POPC   GL169061   3.419  42.382   5.728
 5445POPC   GL269062   3.746  42.390   5.804
 5445POPC   C1A69063   3.351  42.193   6.128
 5445POPC   D2A69064   3.537  42.099   6.542
 5445POPC   C3A69065   3.389  42.405   6.842
 5445POPC   C4A69066   3.284  42.387   7.266
 5445POPC   C1B69067   3.795  42.753   6.075
 5445POPC   C2B69068   3.680  42.880   6.520
 5445POPC   C3B69069   3.774  42.777   6.961
 5445POPC   C4B69070   3.702  42.677   7.385
 5446POPC   NC369071  39.825  44.667   5.332
 5446POPC   PO469072  40.385  44.335   5.372
 5446POPC   GL169073  40.135  44.551   5.726
 5446POPC   GL269074  39.800  44.350   5.747
 5446POPC   C1A69075  40.256  44.755   6.125
 5446POPC   D2A69076  40.475  44.892   6.506
 5446POPC   C3A69077  40.268  44.809   6.921
 5446POPC   C4A69078  40.074  44.846   7.352
 5446POPC   C1B69079  39.752  44.594   6.119
 5446POPC   C2B69080  39.927  44.702   6.529
 5446POPC   C3B69081  39.741  44.719   6.939
 5446POPC   C4B69082  39.697  44.502   7.295
 5447POPC   NC369083   7.289  14.579   5.551
 5447POPC   PO469084   7.838  14.512   5.239
 5447POPC   GL169085   7.739  14.395   5.710
 5447POPC   GL269086   7.423  14.173   5.818
 5447POPC   C1A69087   7.711  14.448   6.179
 5447POPC   D2A69088   7.446  14.315   6.553
 5447POPC   C3A69089   7.547  14.453   6.976
 5447POPC   C4A69090   7.582  14.202   7.334
 5447POPC   C1B69091   7.123  14.364   6.134
 5447POPC   C2B69092   6.914  14.308   6.509
 5447POPC   C3B69093   6.961  14.491   6.902
 5447POPC   C4B69094   7.145  14.466   7.299
 5448POPC   NC369095  43.622   0.111   5.225
 5448POPC   PO469096  44.155   0.425   5.357
 5448POPC   GL169097  44.074   0.617   5.798
 5448POPC   GL269098  44.185   0.345   6.039
 5448POPC   C1A69099  43.889   0.696   6.240
 5448POPC   D2A69100  43.846   0.353   6.535
 5448POPC   C3A69101  43.620   0.335   6.934
 5448POPC   C4A69102  43.774   0.564   7.285
 5448POPC   C1B69103  44.296   0.083   6.386
 5448POPC   C2B69104  44.236   0.151   6.809
 5448POPC   C3B69105  44.244   0.418   7.173
 5448POPC   C4B69106  44.089   0.312   7.592
 5449POPC   NC369107  30.111  43.552   5.298
 5449POPC   PO469108  29.819  44.210   5.244
 5449POPC   GL169109  29.964  44.010   5.696
 5449POPC   GL269110  30.209  43.711   5.766
 5449POPC   C1A69111  30.008  43.953   6.195
 5449POPC   D2A69112  30.209  44.118   6.620
 5449POPC   C3A69113  30.087  44.168   7.087
 5449POPC   C4A69114  29.692  44.087   7.340
 5449POPC   C1B69115  30.172  43.456   6.140
 5449POPC   C2B69116  30.194  43.614   6.557
 5449POPC   C3B69117  30.058  43.646   6.997
 5449POPC   C4B69118  30.075  43.741   7.440
 5450POPC   NC369119  41.680  39.306   5.397
 5450POPC   PO469120  41.333  38.747   5.413
 5450POPC   GL169121  41.448  39.038   5.754
 5450POPC   GL269122  41.241  39.367   5.668
 5450POPC   C1A69123  41.745  39.096   6.121
 5450POPC   D2A69124  41.827  39.429   6.441
 5450POPC   C3A69125  41.661  39.363   6.853
 5450POPC   C4A69126  41.845  39.341   7.248
 5450POPC   C1B69127  41.349  39.446   6.100
 5450POPC   C2B69128  41.269  39.226   6.478
 5450POPC   C3B69129  41.149  39.263   6.901
 5450POPC   C4B69130  41.325  39.386   7.301
 5451POPC   NC369131   6.799  30.207   5.440
 5451POPC   PO469132   6.243  29.823   5.359
 5451POPC   GL169133   6.574  29.814   5.743
 5451POPC   GL269134   6.958  29.870   5.795
 5451POPC   C1A69135   6.652  30.030   6.177
 5451POPC   D2A69136   6.789  30.155   6.605
 5451POPC   C3A69137   6.764  29.855   6.980
 5451POPC   C4A69138   6.624  29.803   7.430
 5451POPC   C1B69139   7.136  30.195   6.108
 5451POPC   C2B69140   7.300  30.221   6.549
 5451POPC   C3B69141   7.117  30.224   6.982
 5451POPC   C4B69142   7.092  30.002   7.357
 5452POPC   NC369143  37.070  37.338   5.432
 5452POPC   PO469144  36.816  36.730   5.431
 5452POPC   GL169145  37.005  36.884   5.799
 5452POPC   GL269146  37.254  37.124   5.863
 5452POPC   C1A69147  36.830  37.083   6.169
 5452POPC   D2A69148  36.928  37.095   6.598
 5452POPC   C3A69149  36.698  36.758   6.844
 5452POPC   C4A69150  36.655  36.767   7.300
 5452POPC   C1B69151  37.347  36.961   6.280
 5452POPC   C2B69152  37.411  36.996   6.743
 5452POPC   C3B69153  37.091  36.968   7.090
 5452POPC   C4B69154  36.708  37.228   7.058
 5453POPC   NC369155   3.951  23.245   5.412
 5453POPC   PO469156   4.517  22.868   5.210
 5453POPC   GL169157   4.530  22.951   5.742
 5453POPC   GL269158   4.291  23.224   5.829
 5453POPC   C1A69159   4.430  22.941   6.253
 5453POPC   D2A69160   4.632  23.126   6.683
 5453POPC   C3A69161   4.464  22.988   7.099
 5453POPC   C4A69162   4.154  22.653   7.222
 5453POPC   C1B69163   4.163  23.374   6.248
 5453POPC   C2B69164   4.121  23.209   6.663
 5453POPC   C3B69165   4.122  23.345   7.077
 5453POPC   C4B69166   3.941  23.464   7.447
 5454POPC   NC369167  33.333  29.857   5.611
 5454POPC   PO469168  33.788  29.952   5.160
 5454POPC   GL169169  33.828  29.951   5.669
 5454POPC   GL269170  33.734  29.634   5.834
 5454POPC   C1A69171  33.805  30.079   6.127
 5454POPC   D2A69172  33.512  30.166   6.471
 5454POPC   C3A69173  33.740  30.040   6.827
 5454POPC   C4A69174  33.740  29.922   7.264
 5454POPC   C1B69175  33.986  29.573   6.176
 5454POPC   C2B69176  34.076  29.808   6.520
 5454POPC   C3B69177  34.066  29.647   6.935
 5454POPC   C4B69178  34.230  29.632   7.341
 5455POPC   NC369179  24.652  21.127   5.330
 5455POPC   PO469180  24.820  21.745   5.435
 5455POPC   GL169181  24.786  21.411   5.733
 5455POPC   GL269182  24.468  21.228   5.790
 5455POPC   C1A69183  24.797  21.357   6.170
 5455POPC   D2A69184  24.664  21.165   6.529
 5455POPC   C3A69185  24.499  21.390   6.855
 5455POPC   C4A69186  24.782  21.514   7.176
 5455POPC   C1B69187  24.284  21.207   6.200
 5455POPC   C2B69188  24.214  20.929   6.599
 5455POPC   C3B69189  24.108  21.059   7.032
 5455POPC   C4B69190  24.421  21.179   7.333
 5456POPC   NC369191   4.818  12.038   5.434
 5456POPC   PO469192   5.420  12.033   5.284
 5456POPC   GL169193   5.342  12.297   5.669
 5456POPC   GL269194   5.223  11.972   5.790
 5456POPC   C1A69195   5.193  12.344   6.142
 5456POPC   D2A69196   5.081  12.034   6.490
 5456POPC   C3A69197   4.777  12.116   6.813
 5456POPC   C4A69198   4.889  12.156   7.213
 5456POPC   C1B69199   5.339  11.739   6.157
 5456POPC   C2B69200   5.563  11.844   6.556
 5456POPC   C3B69201   5.299  11.857   6.944
 5456POPC   C4B69202   5.195  11.755   7.370
 5457POPC   NC369203  41.603  30.047   5.329
 5457POPC   PO469204  41.986  29.478   5.440
 5457POPC   GL169205  41.639  29.692   5.688
 5457POPC   GL269206  41.643  30.101   5.829
 5457POPC   C1A69207  41.319  29.760   5.988
 5457POPC   D2A69208  41.472  29.952   6.366
 5457POPC   C3A69209  41.540  29.712   6.739
 5457POPC   C4A69210  41.474  29.810   7.173
 5457POPC   C1B69211  41.871  30.287   6.196
 5457POPC   C2B69212  41.748  30.328   6.646
 5457POPC   C3B69213  41.493  30.298   7.044
 5457POPC   C4B69214  41.274  30.538   7.395
 5458POPC   NC369215  38.092  38.661   5.476
 5458POPC   PO469216  38.775  38.289   5.476
 5458POPC   GL169217  38.573  38.465   5.820
 5458POPC   GL269218  38.250  38.324   5.844
 5458POPC   C1A69219  38.410  38.672   6.191
 5458POPC   D2A69220  38.325  38.885   6.562
 5458POPC   C3A69221  38.455  38.632   6.847
 5458POPC   C4A69222  38.503  38.494   7.205
 5458POPC   C1B69223  38.376  38.148   6.230
 5458POPC   C2B69224  38.286  38.162   6.662
 5458POPC   C3B69225  38.385  38.042   7.056
 5458POPC   C4B69226  38.292  38.128   7.515
 5459POPC   NC369227  20.829  40.054   5.341
 5459POPC   PO469228  20.106  40.099   5.337
 5459POPC   GL169229  20.429  40.153   5.696
 5459POPC   GL269230  20.774  40.304   5.785
 5459POPC   C1A69231  20.412  40.116   6.144
 5459POPC   D2A69232  20.318  39.795   6.415
 5459POPC   C3A69233  20.389  39.936   6.811
 5459POPC   C4A69234  20.406  39.832   7.210
 5459POPC   C1B69235  20.904  39.976   6.113
 5459POPC   C2B69236  20.861  40.025   6.572
 5459POPC   C3B69237  20.936  39.835   6.996
 5459POPC   C4B69238  20.861  39.950   7.407
 5460POPC   NC369239   3.689  40.666   5.392
 5460POPC   PO469240   3.460  41.230   5.526
 5460POPC   GL169241   3.648  40.965   5.823
 5460POPC   GL269242   3.351  40.805   5.791
 5460POPC   C1A69243   3.549  40.724   6.240
 5460POPC   D2A69244   3.293  40.700   6.612
 5460POPC   C3A69245   3.466  40.566   7.022
 5460POPC   C4A69246   3.890  40.513   7.176
 5460POPC   C1B69247   3.217  41.123   6.125
 5460POPC   C2B69248   3.404  41.236   6.502
 5460POPC   C3B69249   3.468  41.092   6.894
 5460POPC   C4B69250   3.136  40.973   7.158
 5461POPC   NC369251   6.260  41.155   5.703
 5461POPC   PO469252   5.719  41.317   5.344
 5461POPC   GL169253   5.847  41.507   5.729
 5461POPC   GL269254   6.088  41.773   5.737
 5461POPC   C1A69255   5.760  41.498   6.175
 5461POPC   D2A69256   5.731  41.700   6.575
 5461POPC   C3A69257   5.935  41.491   6.912
 5461POPC   C4A69258   5.791  41.426   7.365
 5461POPC   C1B69259   6.113  41.874   6.183
 5461POPC   C2B69260   6.269  41.732   6.576
 5461POPC   C3B69261   6.154  41.943   6.915
 5461POPC   C4B69262   6.083  41.834   7.284
 5462POPC   NC369263  38.180  13.491   5.631
 5462POPC   PO469264  37.637  13.790   5.374
 5462POPC   GL169265  37.810  13.815   5.788
 5462POPC   GL269266  37.734  13.434   5.861
 5462POPC   C1A69267  37.973  13.790   6.210
 5462POPC   D2A69268  38.002  14.041   6.585
 5462POPC   C3A69269  37.874  13.804   6.930
 5462POPC   C4A69270  37.664  13.827   7.316
 5462POPC   C1B69271  37.455  13.627   6.131
 5462POPC   C2B69272  37.498  13.780   6.551
 5462POPC   C3B69273  37.335  13.701   6.976
 5462POPC   C4B69274  37.248  13.473   7.371
 5463POPC   NC369275  30.905  39.876   5.333
 5463POPC   PO469276  30.307  40.104   5.281
 5463POPC   GL169277  30.589  40.104   5.671
 5463POPC   GL269278  30.601  39.751   5.771
 5463POPC   C1A69279  30.881  40.052   6.072
 5463POPC   D2A69280  31.071  40.049   6.496
 5463POPC   C3A69281  30.924  40.378   6.764
 5463POPC   C4A69282  30.537  40.537   6.934
 5463POPC   C1B69283  30.457  39.759   6.206
 5463POPC   C2B69284  30.561  40.014   6.577
 5463POPC   C3B69285  30.801  39.907   6.951
 5463POPC   C4B69286  30.967  39.772   7.334
 5464POPC   NC369287  23.245   3.345   5.331
 5464POPC   PO469288  22.835   3.810   5.436
 5464POPC   GL169289  23.083   3.610   5.771
 5464POPC   GL269290  22.966   3.298   5.885
 5464POPC   C1A69291  23.306   3.616   6.186
 5464POPC   D2A69292  23.287   3.409   6.591
 5464POPC   C3A69293  23.282   3.602   6.983
 5464POPC   C4A69294  23.188   3.366   7.339
 5464POPC   C1B69295  22.861   3.384   6.298
 5464POPC   C2B69296  22.857   3.667   6.647
 5464POPC   C3B69297  22.775   3.517   7.023
 5464POPC   C4B69298  22.711   3.576   7.439
 5465POPC   NC369299  37.372  32.590   5.574
 5465POPC   PO469300  38.010  32.751   5.585
 5465POPC   GL169301  37.837  32.433   5.857
 5465POPC   GL269302  37.703  32.101   5.810
 5465POPC   C1A69303  37.880  32.307   6.291
 5465POPC   D2A69304  37.606  32.278   6.648
 5465POPC   C3A69305  37.728  32.198   7.088
 5465POPC   C4A69306  37.884  32.502   7.402
 5465POPC   C1B69307  37.388  32.191   6.149
 5465POPC   C2B69308  37.170  32.051   6.516
 5465POPC   C3B69309  37.235  32.086   6.939
 5465POPC   C4B69310  37.414  31.795   7.218
 5466POPC   NC369311  28.083  27.342   5.236
 5466POPC   PO469312  28.765  27.337   5.424
 5466POPC   GL169313  28.489  27.487   5.754
 5466POPC   GL269314  28.098  27.514   5.754
 5466POPC   C1A69315  28.432  27.539   6.176
 5466POPC   D2A69316  28.238  27.437   6.544
 5466POPC   C3A69317  28.529  27.396   6.870
 5466POPC   C4A69318  28.502  27.398   7.281
 5466POPC   C1B69319  27.964  27.763   6.168
 5466POPC   C2B69320  27.869  27.783   6.651
 5466POPC   C3B69321  28.058  27.537   7.028
 5466POPC   C4B69322  28.261  27.804   7.395
 5467POPC   NC369323  26.816   2.519   5.554
 5467POPC   PO469324  26.833   1.848   5.386
 5467POPC   GL169325  26.995   1.992   5.772
 5467POPC   GL269326  26.742   2.183   5.923
 5467POPC   C1A69327  27.131   2.070   6.213
 5467POPC   D2A69328  26.881   2.057   6.579
 5467POPC   C3A69329  27.077   1.896   6.926
 5467POPC   C4A69330  27.013   2.051   7.327
 5467POPC   C1B69331  26.679   1.776   6.161
 5467POPC   C2B69332  26.460   1.758   6.570
 5467POPC   C3B69333  26.545   1.949   6.977
 5467POPC   C4B69334  26.652   2.350   7.151
 5468POPC   NC369335  20.329   0.699   5.474
 5468POPC   PO469336  20.635   0.094   5.432
 5468POPC   GL169337  20.685   0.371   5.784
 5468POPC   GL269338  20.341   0.376   5.906
 5468POPC   C1A69339  20.747   0.267   6.247
 5468POPC   D2A69340  20.553   0.300   6.634
 5468POPC   C3A69341  20.827   0.178   6.964
 5468POPC   C4A69342  20.900   0.275   7.402
 5468POPC   C1B69343  20.140   0.466   6.338
 5468POPC   C2B69344  20.097   0.440   6.823
 5468POPC   C3B69345  20.411   0.422   7.164
 5468POPC   C4B69346  20.441   0.369   7.639
 5469POPC   NC369347  37.635  42.966   5.476
 5469POPC   PO469348  37.542  42.356   5.414
 5469POPC   GL169349  37.639  42.335   5.847
 5469POPC   GL269350  37.564  42.668   5.885
 5469POPC   C1A69351  37.593  42.336   6.320
 5469POPC   D2A69352  37.403  42.603   6.666
 5469POPC   C3A69353  37.280  42.498   7.116
 5469POPC   C4A69354  37.489  42.292   7.474
 5469POPC   C1B69355  37.856  42.764   6.196
 5469POPC   C2B69356  38.018  42.527   6.566
 5469POPC   C3B69357  37.872  42.467   6.989
 5469POPC   C4B69358  37.710  42.714   7.307
 5470POPC   NC369359   0.198  31.384   5.458
 5470POPC   PO469360   0.687  31.900   5.457
 5470POPC   GL169361   0.538  31.677   5.806
 5470POPC   GL269362   0.596  31.318   5.816
 5470POPC   C1A69363   0.408  31.605   6.223
 5470POPC   D2A69364   0.477  31.791   6.593
 5470POPC   C3A69365   0.142  31.843   6.884
 5470POPC   C4A69366   0.364  31.798   7.259
 5470POPC   C1B69367   0.780  31.216   6.222
 5470POPC   C2B69368   0.688  31.353   6.636
 5470POPC   C3B69369   0.581  31.271   7.055
 5470POPC   C4B69370   0.864  30.964   7.204
 5471POPC   NC369371  19.337  36.206   5.428
 5471POPC   PO469372  18.738  35.954   5.408
 5471POPC   GL169373  18.967  35.930   5.768
 5471POPC   GL269374  18.857  35.602   5.884
 5471POPC   C1A69375  19.031  36.122   6.126
 5471POPC   D2A69376  18.936  36.289   6.535
 5471POPC   C3A69377  19.022  36.092   6.862
 5471POPC   C4A69378  19.101  36.326   7.236
 5471POPC   C1B69379  18.587  35.806   6.155
 5471POPC   C2B69380  18.449  35.842   6.559
 5471POPC   C3B69381  18.621  35.747   6.937
 5471POPC   C4B69382  18.880  35.859   7.271
 5472POPC   NC369383  24.450  43.233   5.423
 5472POPC   PO469384  24.707  42.621   5.645
 5472POPC   GL169385  24.514  42.968   5.847
 5472POPC   GL269386  24.259  42.774   5.989
 5472POPC   C1A69387  24.353  43.237   6.197
 5472POPC   D2A69388  24.188  43.030   6.593
 5472POPC   C3A69389  24.381  43.216   6.942
 5472POPC   C4A69390  24.599  43.115   7.317
 5472POPC   C1B69391  24.561  42.778   6.344
 5472POPC   C2B69392  24.706  42.838   6.790
 5472POPC   C3B69393  24.793  42.644   7.212
 5472POPC   C4B69394  24.919  42.663   7.641
 5473POPC   NC369395  22.748  16.508   5.470
 5473POPC   PO469396  23.273  16.979   5.692
 5473POPC   GL169397  23.010  16.662   5.882
 5473POPC   GL269398  22.708  16.884   5.844
 5473POPC   C1A69399  22.959  16.439   6.284
 5473POPC   D2A69400  23.142  16.639   6.648
 5473POPC   C3A69401  22.871  16.721   6.988
 5473POPC   C4A69402  22.739  16.437   7.330
 5473POPC   C1B69403  22.814  17.018   6.258
 5473POPC   C2B69404  22.626  17.215   6.618
 5473POPC   C3B69405  22.457  17.050   7.003
 5473POPC   C4B69406  22.657  16.939   7.409
 5474POPC   NC369407  41.645  35.869   5.270
 5474POPC   PO469408  41.287  36.380   5.502
 5474POPC   GL169409  41.418  36.077   5.823
 5474POPC   GL269410  41.741  35.934   5.798
 5474POPC   C1A69411  41.509  36.092   6.275
 5474POPC   D2A69412  41.288  35.929   6.635
 5474POPC   C3A69413  41.305  36.050   7.065
 5474POPC   C4A69414  41.311  35.941   7.516
 5474POPC   C1B69415  41.799  35.690   6.199
 5474POPC   C2B69416  41.857  35.891   6.628
 5474POPC   C3B69417  41.860  35.990   7.080
 5474POPC   C4B69418  41.846  35.924   7.526
 5475POPC   NC369419  32.092  30.901   5.485
 5475POPC   PO469420  32.666  30.679   5.254
 5475POPC   GL169421  32.574  30.928   5.653
 5475POPC   GL269422  32.424  30.620   5.787
 5475POPC   C1A69423  32.400  30.991   6.116
 5475POPC   D2A69424  32.551  30.835   6.501
 5475POPC   C3A69425  32.310  30.716   6.859
 5475POPC   C4A69426  32.492  30.726   7.234
 5475POPC   C1B69427  32.250  30.515   6.179
 5475POPC   C2B69428  31.996  30.754   6.459
 5475POPC   C3B69429  31.788  30.702   6.879
 5475POPC   C4B69430  31.697  30.566   7.308
 5476POPC   NC369431  31.075  44.862   5.331
 5476POPC   PO469432  30.541  44.582   5.350
 5476POPC   GL169433  30.555  44.886   5.698
 5476POPC   GL269434  30.825  44.733   5.840
 5476POPC   C1A69435  30.477  44.866   6.172
 5476POPC   D2A69436  30.778  44.726   6.496
 5476POPC   C3A69437  30.663  44.857   6.914
 5476POPC   C4A69438  30.344  44.763   7.204
 5476POPC   C1B69439  30.666  44.383   6.094
 5476POPC   C2B69440  30.702  44.226   6.524
 5476POPC   C3B69441  30.575  44.353   6.939
 5476POPC   C4B69442  30.776  44.484   7.286
 5477POPC   NC369443  19.526  16.998   5.538
 5477POPC   PO469444  20.120  16.692   5.452
 5477POPC   GL169445  19.884  16.667   5.824
 5477POPC   GL269446  20.006  16.419   6.048
 5477POPC   C1A69447  19.578  16.746   6.152
 5477POPC   D2A69448  19.482  16.543   6.529
 5477POPC   C3A69449  19.713  16.748   6.846
 5477POPC   C4A69450  19.673  16.593   7.247
 5477POPC   C1B69451  20.023  16.625   6.416
 5477POPC   C2B69452  20.265  16.817   6.708
 5477POPC   C3B69453  20.156  16.683   7.133
 5477POPC   C4B69454  20.032  16.263   7.329
 5478POPC   NC369455  12.216  25.533   5.359
 5478POPC   PO469456  12.562  25.010   5.608
 5478POPC   GL169457  12.242  25.199   5.835
 5478POPC   GL269458  12.284  25.541   5.864
 5478POPC   C1A69459  12.159  25.259   6.271
 5478POPC   D2A69460  12.384  25.310   6.637
 5478POPC   C3A69461  12.192  25.058   6.970
 5478POPC   C4A69462  11.732  24.957   7.016
 5478POPC   C1B69463  11.863  25.622   6.073
 5478POPC   C2B69464  11.727  25.737   6.499
 5478POPC   C3B69465  11.655  25.630   6.915
 5478POPC   C4B69466  11.946  25.450   7.178
 5479POPC   NC369467  35.539  27.486   5.620
 5479POPC   PO469468  35.400  28.091   5.316
 5479POPC   GL169469  35.292  27.936   5.740
 5479POPC   GL269470  35.005  27.688   5.727
 5479POPC   C1A69471  35.376  27.781   6.176
 5479POPC   D2A69472  35.336  27.848   6.607
 5479POPC   C3A69473  35.614  27.700   6.925
 5479POPC   C4A69474  35.421  27.413   7.160
 5479POPC   C1B69475  35.057  27.375   6.073
 5479POPC   C2B69476  35.243  27.317   6.501
 5479POPC   C3B69477  35.074  27.134   6.878
 5479POPC   C4B69478  34.952  27.134   7.300
 5480POPC   NC369479   7.722   2.486   5.417
 5480POPC   PO469480   7.264   3.006   5.344
 5480POPC   GL169481   7.210   2.702   5.674
 5480POPC   GL269482   7.536   2.814   5.772
 5480POPC   C1A69483   7.165   2.765   6.151
 5480POPC   D2A69484   7.285   2.946   6.600
 5480POPC   C3A69485   7.155   2.799   7.019
 5480POPC   C4A69486   7.276   2.650   7.458
 5480POPC   C1B69487   7.526   2.436   6.056
 5480POPC   C2B69488   7.431   2.456   6.504
 5480POPC   C3B69489   7.628   2.659   6.852
 5480POPC   C4B69490   7.729   2.532   7.234
 5481POPC   NC369491  40.532  22.244   5.430
 5481POPC   PO469492  41.162  22.057   5.310
 5481POPC   GL169493  40.922  22.058   5.779
 5481POPC   GL269494  40.624  22.255   5.928
 5481POPC   C1A69495  40.845  21.873   6.233
 5481POPC   D2A69496  40.631  21.915   6.664
 5481POPC   C3A69497  40.894  21.957   7.053
 5481POPC   C4A69498  40.865  21.846   7.488
 5481POPC   C1B69499  40.577  22.625   6.237
 5481POPC   C2B69500  40.759  22.628   6.637
 5481POPC   C3B69501  40.581  22.359   6.938
 5481POPC   C4B69502  40.631  22.285   7.375
 5482POPC   NC369503  38.113  21.951   5.593
 5482POPC   PO469504  37.444  22.041   5.399
 5482POPC   GL169505  37.689  22.188   5.776
 5482POPC   GL269506  37.481  22.453   5.869
 5482POPC   C1A69507  37.925  22.099   6.199
 5482POPC   D2A69508  37.832  22.218   6.640
 5482POPC   C3A69509  37.862  21.897   6.987
 5482POPC   C4A69510  37.750  21.986   7.435
 5482POPC   C1B69511  37.440  22.231   6.257
 5482POPC   C2B69512  37.200  22.192   6.617
 5482POPC   C3B69513  37.160  22.374   6.974
 5482POPC   C4B69514  37.373  22.291   7.313
 5483POPC   NC369515  26.792  24.775   5.337
 5483POPC   PO469516  27.408  24.551   5.318
 5483POPC   GL169517  27.038  24.457   5.658
 5483POPC   GL269518  26.774  24.186   5.714
 5483POPC   C1A69519  26.801  24.662   6.019
 5483POPC   D2A69520  26.951  24.637   6.457
 5483POPC   C3A69521  26.767  24.648   6.882
 5483POPC   C4A69522  26.672  24.699   7.324
 5483POPC   C1B69523  26.879  24.183   6.155
 5483POPC   C2B69524  26.659  24.245   6.551
 5483POPC   C3B69525  26.742  24.121   6.968
 5483POPC   C4B69526  26.701  24.174   7.389
 5484POPC   NC369527  29.715   3.835   5.242
 5484POPC   PO469528  30.227   3.416   5.449
 5484POPC   GL169529  29.959   3.319   5.805
 5484POPC   GL269530  29.603   3.249   5.668
 5484POPC   C1A69531  29.981   3.471   6.240
 5484POPC   D2A69532  30.008   3.773   6.543
 5484POPC   C3A69533  30.226   3.623   6.877
 5484POPC   C4A69534  29.985   3.567   7.215
 5484POPC   C1B69535  29.530   3.542   6.015
 5484POPC   C2B69536  29.507   3.560   6.486
 5484POPC   C3B69537  29.545   3.466   6.954
 5484POPC   C4B69538  29.684   3.110   7.231
 5485POPC   NC369539  25.596  11.971   5.505
 5485POPC   PO469540  24.987  12.266   5.505
 5485POPC   GL169541  25.282  12.279   5.787
 5485POPC   GL269542  25.236  11.935   5.861
 5485POPC   C1A69543  25.490  12.253   6.176
 5485POPC   D2A69544  25.375  12.015   6.534
 5485POPC   C3A69545  25.499  12.233   6.904
 5485POPC   C4A69546  25.394  12.309   7.334
 5485POPC   C1B69547  25.034  11.669   6.130
 5485POPC   C2B69548  25.003  11.631   6.553
 5485POPC   C3B69549  25.217  11.730   6.944
 5485POPC   C4B69550  25.066  11.785   7.361
 5486POPC   NC369551   4.582  35.821   5.291
 5486POPC   PO469552   4.075  36.344   5.201
 5486POPC   GL169553   4.045  36.249   5.690
 5486POPC   GL269554   4.408  36.202   5.832
 5486POPC   C1A69555   4.036  36.207   6.173
 5486POPC   D2A69556   4.208  36.239   6.625
 5486POPC   C3A69557   3.996  36.131   7.045
 5486POPC   C4A69558   3.962  36.253   7.520
 5486POPC   C1B69559   4.553  36.114   6.255
 5486POPC   C2B69560   4.544  35.845   6.630
 5486POPC   C3B69561   4.502  35.905   7.076
 5486POPC   C4B69562   4.417  36.300   7.273
 5487POPC   NC369563   2.414  39.869   5.690
 5487POPC   PO469564   1.857  40.231   5.538
 5487POPC   GL169565   2.022  40.108   5.912
 5487POPC   GL269566   2.035  40.430   6.064
 5487POPC   C1A69567   2.084  39.976   6.353
 5487POPC   D2A69568   2.033  40.042   6.808
 5487POPC   C3A69569   2.301  39.803   7.151
 5487POPC   C4A69570   2.109  39.620   7.542
 5487POPC   C1B69571   1.636  40.205   6.218
 5487POPC   C2B69572   1.461  40.137   6.617
 5487POPC   C3B69573   1.594  40.206   7.027
 5487POPC   C4B69574   1.846  39.975   7.279
 5488POPC   NC369575  10.171   9.970   5.429
 5488POPC   PO469576  10.424   9.355   5.694
 5488POPC   GL169577  10.554   9.798   5.789
 5488POPC   GL269578  10.247   9.954   5.924
 5488POPC   C1A69579  10.663   9.910   6.231
 5488POPC   D2A69580  10.685   9.582   6.581
 5488POPC   C3A69581  10.681   9.669   7.042
 5488POPC   C4A69582  10.439   9.720   7.443
 5488POPC   C1B69583  10.190  10.233   6.246
 5488POPC   C2B69584  10.159  10.406   6.602
 5488POPC   C3B69585  10.305  10.150   6.887
 5488POPC   C4B69586  10.181  10.115   7.259
 5489POPC   NC369587  27.775  44.217   5.462
 5489POPC   PO469588  27.882  43.660   5.096
 5489POPC   GL169589  27.667  43.724   5.560
 5489POPC   GL269590  27.700  43.442   5.768
 5489POPC   C1A69591  27.568  43.859   6.044
 5489POPC   D2A69592  27.615  43.784   6.530
 5489POPC   C3A69593  27.615  44.096   6.875
 5489POPC   C4A69594  27.764  44.087   7.324
 5489POPC   C1B69595  27.818  43.414   6.241
 5489POPC   C2B69596  27.682  43.296   6.657
 5489POPC   C3B69597  27.820  43.523   7.010
 5489POPC   C4B69598  27.521  43.646   7.277
 5490POPC   NC369599   7.214  23.524   5.462
 5490POPC   PO469600   6.692  23.915   5.148
 5490POPC   GL169601   6.828  23.833   5.626
 5490POPC   GL269602   6.840  24.115   5.851
 5490POPC   C1A69603   6.828  23.644   6.084
 5490POPC   D2A69604   6.665  23.649   6.547
 5490POPC   C3A69605   6.764  23.390   6.883
 5490POPC   C4A69606   6.609  23.354   7.282
 5490POPC   C1B69607   6.672  24.093   6.293
 5490POPC   C2B69608   6.268  24.097   6.582
 5490POPC   C3B69609   6.246  23.883   6.981
 5490POPC   C4B69610   6.545  23.867   7.301
 5491POPC   NC369611  33.672   3.591   5.280
 5491POPC   PO469612  34.181   3.990   5.542
 5491POPC   GL169613  33.775   3.811   5.743
 5491POPC   GL269614  33.687   3.409   5.769
 5491POPC   C1A69615  33.684   3.756   6.171
 5491POPC   D2A69616  33.923   3.715   6.533
 5491POPC   C3A69617  33.733   3.733   6.913
 5491POPC   C4A69618  33.843   3.696   7.312
 5491POPC   C1B69619  33.650   3.219   6.206
 5491POPC   C2B69620  33.804   3.213   6.669
 5491POPC   C3B69621  33.582   3.267   7.080
 5491POPC   C4B69622  33.436   3.060   7.439
 5492POPC   NC369623   8.504  36.097   5.648
 5492POPC   PO469624   8.932  35.680   5.259
 5492POPC   GL169625   8.987  35.982   5.698
 5492POPC   GL269626   9.300  36.135   5.801
 5492POPC   C1A69627   8.831  36.190   6.179
 5492POPC   D2A69628   8.965  36.328   6.619
 5492POPC   C3A69629   8.745  36.234   7.009
 5492POPC   C4A69630   8.869  36.296   7.435
 5492POPC   C1B69631   9.154  35.825   6.157
 5492POPC   C2B69632   8.934  35.786   6.613
 5492POPC   C3B69633   8.971  35.778   7.106
 5492POPC   C4B69634   9.019  35.819   7.571
 5493POPC   NC369635  10.230  40.389   5.434
 5493POPC   PO469636  10.854  40.147   5.452
 5493POPC   GL169637  10.644  40.225   5.829
 5493POPC   GL269638  10.329  40.067   5.856
 5493POPC   C1A69639  10.641  40.082   6.264
 5493POPC   D2A69640  10.721  40.292   6.634
 5493POPC   C3A69641  10.546  40.079   6.953
 5493POPC   C4A69642  10.674  39.993   7.344
 5493POPC   C1B69643  10.173  40.292   6.225
 5493POPC   C2B69644  10.213  40.364   6.646
 5493POPC   C3B69645   9.982  40.240   6.970
 5493POPC   C4B69646  10.159  40.064   7.328
 5494POPC   NC369647  31.829   8.485   5.364
 5494POPC   PO469648  31.186   8.146   5.270
 5494POPC   GL169649  31.366   8.125   5.704
 5494POPC   GL269650  31.494   8.472   5.757
 5494POPC   C1A69651  31.503   8.155   6.164
 5494POPC   D2A69652  31.346   8.233   6.586
 5494POPC   C3A69653  31.426   7.944   6.905
 5494POPC   C4A69654  31.446   7.974   7.335
 5494POPC   C1B69655  31.759   8.611   6.131
 5494POPC   C2B69656  31.831   8.389   6.544
 5494POPC   C3B69657  31.653   8.415   6.980
 5494POPC   C4B69658  31.722   8.468   7.415
 5495POPC   NC369659   3.063  18.666   5.023
 5495POPC   PO469660   2.737  18.182   5.305
 5495POPC   GL169661   2.797  18.280   5.767
 5495POPC   GL269662   3.091  18.503   5.836
 5495POPC   C1A69663   2.914  18.170   6.209
 5495POPC   D2A69664   3.057  18.304   6.638
 5495POPC   C3A69665   2.746  18.204   6.934
 5495POPC   C4A69666   2.532  18.348   7.308
 5495POPC   C1B69667   2.891  18.702   6.208
 5495POPC   C2B69668   2.700  18.714   6.636
 5495POPC   C3B69669   2.889  18.711   7.049
 5495POPC   C4B69670   3.071  18.391   7.293
 5496POPC   NC369671  33.118  24.592   5.382
 5496POPC   PO469672  32.977  23.917   5.422
 5496POPC   GL169673  33.080  24.223   5.751
 5496POPC   GL269674  32.866  24.465   5.944
 5496POPC   C1A69675  33.248  24.165   6.154
 5496POPC   D2A69676  33.435  24.290   6.517
 5496POPC   C3A69677  33.181  24.317   6.857
 5496POPC   C4A69678  33.390  24.302   7.252
 5496POPC   C1B69679  33.042  24.609   6.355
 5496POPC   C2B69680  33.360  24.808   6.650
 5496POPC   C3B69681  33.257  24.764   7.091
 5496POPC   C4B69682  32.872  24.549   7.234
 5497POPC   NC369683   7.705  10.015   5.438
 5497POPC   PO469684   7.294   9.353   5.351
 5497POPC   GL169685   7.489   9.595   5.683
 5497POPC   GL269686   7.242   9.869   5.740
 5497POPC   C1A69687   7.655   9.719   6.087
 5497POPC   D2A69688   7.568   9.568   6.513
 5497POPC   C3A69689   7.579   9.752   6.931
 5497POPC   C4A69690   7.664   9.949   7.316
 5497POPC   C1B69691   7.181   9.815   6.206
 5497POPC   C2B69692   7.121   9.799   6.673
 5497POPC   C3B69693   7.106   9.972   7.109
 5497POPC   C4B69694   6.833  10.169   7.434
 5498POPC   NC369695  40.365  12.916   5.422
 5498POPC   PO469696  39.809  12.428   5.484
 5498POPC   GL169697  40.048  12.615   5.826
 5498POPC   GL269698  40.348  12.392   5.837
 5498POPC   C1A69699  40.070  12.960   6.169
 5498POPC   D2A69700  40.126  13.260   6.542
 5498POPC   C3A69701  40.024  13.106   6.964
 5498POPC   C4A69702  40.137  13.127   7.421
 5498POPC   C1B69703  40.334  12.519   6.290
 5498POPC   C2B69704  40.174  12.688   6.700
 5498POPC   C3B69705  40.264  12.704   7.176
 5498POPC   C4B69706  40.013  12.646   7.592
 5499POPC   NC369707  16.700  39.993   5.418
 5499POPC   PO469708  16.366  39.379   5.429
 5499POPC   GL169709  16.484  39.684   5.763
 5499POPC   GL269710  16.481  40.065   5.892
 5499POPC   C1A69711  16.742  39.704   6.153
 5499POPC   D2A69712  16.963  39.849   6.536
 5499POPC   C3A69713  16.677  39.846   6.903
 5499POPC   C4A69714  16.424  40.035   7.254
 5499POPC   C1B69715  16.733  40.216   6.235
 5499POPC   C2B69716  16.783  40.320   6.679
 5499POPC   C3B69717  16.980  40.199   7.096
 5499POPC   C4B69718  17.207  40.159   7.524
 5500POPC   NC369719  17.680  27.009   5.631
 5500POPC   PO469720  17.050  26.891   5.477
 5500POPC   GL169721  17.226  26.645   5.833
 5500POPC   GL269722  17.592  26.674   6.016
 5500POPC   C1A69723  17.156  26.454   6.227
 5500POPC   D2A69724  17.435  26.483   6.592
 5500POPC   C3A69725  17.281  26.519   6.986
 5500POPC   C4A69726  17.444  26.718   7.335
 5500POPC   C1B69727  17.961  26.991   6.200
 5500POPC   C2B69728  17.971  27.324   6.523
 5500POPC   C3B69729  17.671  27.188   6.849
 5500POPC   C4B69730  17.858  27.009   7.201
 5501POPC   NC369731  34.155  42.094   5.441
 5501POPC   PO469732  34.753  42.431   5.329
 5501POPC   GL169733  34.598  42.185   5.675
 5501POPC   GL269734  34.385  42.404   5.811
 5501POPC   C1A69735  34.444  41.981   6.103
 5501POPC   D2A69736  34.499  42.191   6.525
 5501POPC   C3A69737  34.728  42.048   6.895
 5501POPC   C4A69738  34.510  42.176   7.266
 5501POPC   C1B69739  34.759  42.390   6.112
 5501POPC   C2B69740  34.864  42.577   6.488
 5501POPC   C3B69741  34.789  42.571   6.930
 5501POPC   C4B69742  34.979  42.359   7.283
 5502POPC   NC369743  14.540   7.006   5.468
 5502POPC   PO469744  14.156   6.420   5.490
 5502POPC   GL169745  14.263   6.682   5.793
 5502POPC   GL269746  14.419   6.396   5.975
 5502POPC   C1A69747  14.409   6.866   6.168
 5502POPC   D2A69748  14.562   6.612   6.516
 5502POPC   C3A69749  14.369   6.752   6.891
 5502POPC   C4A69750  14.517   6.929   7.254
 5502POPC   C1B69751  14.110   6.428   6.319
 5502POPC   C2B69752  13.938   6.498   6.759
 5502POPC   C3B69753  14.069   6.498   7.237
 5502POPC   C4B69754  14.083   6.364   7.689
 5503POPC   NC369755  20.892   2.774   5.169
 5503POPC   PO469756  20.692   2.608   5.773
 5503POPC   GL169757  20.474   2.925   5.948
 5503POPC   GL269758  20.762   2.978   6.136
 5503POPC   C1A69759  20.320   2.844   6.326
 5503POPC   D2A69760  20.597   2.712   6.595
 5503POPC   C3A69761  20.446   2.845   6.964
 5503POPC   C4A69762  20.633   2.997   7.304
 5503POPC   C1B69763  21.053   2.676   6.321
 5503POPC   C2B69764  21.105   2.488   6.706
 5503POPC   C3B69765  20.781   2.471   7.010
 5503POPC   C4B69766  20.707   2.520   7.432
 5504POPC   NC369767  39.615   5.447   5.521
 5504POPC   PO469768  39.180   4.832   5.513
 5504POPC   GL169769  39.182   5.197   5.755
 5504POPC   GL269770  39.497   5.133   5.932
 5504POPC   C1A69771  39.059   5.253   6.181
 5504POPC   D2A69772  39.197   5.051   6.550
 5504POPC   C3A69773  39.015   4.976   6.909
 5504POPC   C4A69774  39.342   4.884   7.134
 5504POPC   C1B69775  39.574   5.319   6.360
 5504POPC   C2B69776  39.454   5.501   6.761
 5504POPC   C3B69777  39.170   5.420   7.104
 5504POPC   C4B69778  39.218   5.455   7.560
 5505POPC   NC369779  42.537  44.822   5.327
 5505POPC   PO469780  42.067  44.413   5.445
 5505POPC   GL169781  42.231  44.610   5.809
 5505POPC   GL269782  42.336  44.944   5.783
 5505POPC   C1A69783  42.155  44.779   6.228
 5505POPC   D2A69784  42.253  44.645   6.607
 5505POPC   C3A69785  42.031  44.773   6.943
 5505POPC   C4A69786  42.156  44.839   7.339
 5505POPC   C1B69787  42.603   0.034   6.149
 5505POPC   C2B69788  42.675  44.943   6.606
 5505POPC   C3B69789  42.581  44.858   7.055
 5505POPC   C4B69790  42.490   0.253   7.350
 5506POPC   NC369791  28.732  38.615   5.602
 5506POPC   PO469792  29.190  38.164   5.601
 5506POPC   GL169793  29.207  38.440   5.960
 5506POPC   GL269794  29.078  38.773   5.949
 5506POPC   C1A69795  29.078  38.512   6.389
 5506POPC   D2A69796  28.918  38.636   6.779
 5506POPC   C3A69797  29.183  38.420   7.031
 5506POPC   C4A69798  29.566  38.438   7.211
 5506POPC   C1B69799  29.437  38.855   6.232
 5506POPC   C2B69800  29.472  38.712   6.656
 5506POPC   C3B69801  29.375  38.899   7.009
 5506POPC   C4B69802  29.029  38.836   7.266
 5507POPC   NC369803  36.983  14.764   5.458
 5507POPC   PO469804  36.698  14.105   5.512
 5507POPC   GL169805  36.991  14.316   5.760
 5507POPC   GL269806  36.711  14.528   5.870
 5507POPC   C1A69807  37.132  14.517   6.154
 5507POPC   D2A69808  36.895  14.539   6.552
 5507POPC   C3A69809  37.097  14.513   6.987
 5507POPC   C4A69810  36.893  14.694   7.388
 5507POPC   C1B69811  36.662  14.172   6.176
 5507POPC   C2B69812  36.539  14.139   6.625
 5507POPC   C3B69813  36.578  14.434   6.968
 5507POPC   C4B69814  36.636  14.266   7.368
 5508POPC   NC369815  12.908  38.026   5.498
 5508POPC   PO469816  12.840  38.648   5.371
 5508POPC   GL169817  12.894  38.528   5.788
 5508POPC   GL269818  13.182  38.797   5.773
 5508POPC   C1A69819  12.885  38.226   6.186
 5508POPC   D2A69820  12.807  38.312   6.645
 5508POPC   C3A69821  12.674  38.076   6.994
 5508POPC   C4A69822  12.899  37.946   7.295
 5508POPC   C1B69823  13.208  38.612   6.183
 5508POPC   C2B69824  13.286  38.454   6.556
 5508POPC   C3B69825  13.168  38.627   6.899
 5508POPC   C4B69826  12.863  38.516   7.146
 5509POPC   NC369827  25.866  15.284   5.314
 5509POPC   PO469828  26.320  14.912   5.517
 5509POPC   GL169829  26.048  15.120   5.803
 5509POPC   GL269830  25.815  15.393   5.807
 5509POPC   C1A69831  26.032  14.957   6.209
 5509POPC   D2A69832  25.850  15.033   6.610
 5509POPC   C3A69833  26.094  15.039   6.991
 5509POPC   C4A69834  25.935  14.810   7.364
 5509POPC   C1B69835  25.669  15.293   6.198
 5509POPC   C2B69836  25.562  15.485   6.577
 5509POPC   C3B69837  25.689  15.383   6.976
 5509POPC   C4B69838  25.748  15.636   7.297
 5510POPC   NC369839  15.354  36.371   5.181
 5510POPC   PO469840  15.028  35.928   5.692
 5510POPC   GL169841  15.405  36.032   6.005
 5510POPC   GL269842  15.617  36.376   5.957
 5510POPC   C1A69843  15.317  36.171   6.383
 5510POPC   D2A69844  14.945  36.065   6.577
 5510POPC   C3A69845  14.974  36.274   6.927
 5510POPC   C4A69846  15.033  35.991   7.251
 5510POPC   C1B69847  15.710  36.504   6.316
 5510POPC   C2B69848  15.502  36.554   6.692
 5510POPC   C3B69849  15.502  36.312   7.055
 5510POPC   C4B69850  15.407  36.261   7.467
 5511POPC   NC369851   0.260  16.866   5.421
 5511POPC   PO469852   0.321  16.272   5.660
 5511POPC   GL169853   0.370  16.674   5.867
 5511POPC   GL269854   0.677  16.792   5.798
 5511POPC   C1A69855   0.458  16.927   6.234
 5511POPC   D2A69856   0.416  16.691   6.566
 5511POPC   C3A69857   0.323  16.841   6.936
 5511POPC   C4A69858   0.093  16.556   7.174
 5511POPC   C1B69859   0.672  16.432   6.173
 5511POPC   C2B69860   0.663  16.240   6.580
 5511POPC   C3B69861   0.698  16.480   6.945
 5511POPC   C4B69862   0.586  16.636   7.326
 5512POPC   NC369863  37.830  39.248   5.398
 5512POPC   PO469864  37.191  39.356   5.407
 5512POPC   GL169865  37.497  39.146   5.783
 5512POPC   GL269866  37.918  39.038   5.838
 5512POPC   C1A69867  37.678  39.285   6.195
 5512POPC   D2A69868  37.855  39.070   6.571
 5512POPC   C3A69869  37.598  39.103   6.910
 5512POPC   C4A69870  37.454  39.509   7.053
 5512POPC   C1B69871  38.196  39.248   6.174
 5512POPC   C2B69872  38.329  39.401   6.595
 5512POPC   C3B69873  38.033  39.395   6.958
 5512POPC   C4B69874  37.831  39.245   7.349
 5513POPC   NC369875  26.792  14.959   5.505
 5513POPC   PO469876  26.328  15.458   5.385
 5513POPC   GL169877  26.542  15.325   5.774
 5513POPC   GL269878  26.526  15.004   5.966
 5513POPC   C1A69879  26.867  15.356   6.119
 5513POPC   D2A69880  27.176  15.336   6.450
 5513POPC   C3A69881  27.015  15.146   6.817
 5513POPC   C4A69882  27.077  15.203   7.253
 5513POPC   C1B69883  26.390  15.306   6.263
 5513POPC   C2B69884  26.512  15.253   6.673
 5513POPC   C3B69885  26.591  15.294   7.093
 5513POPC   C4B69886  26.412  15.021   7.421
 5514POPC   NC369887  21.502  11.856   5.361
 5514POPC   PO469888  21.765  12.535   5.413
 5514POPC   GL169889  21.537  12.331   5.767
 5514POPC   GL269890  21.631  11.961   5.823
 5514POPC   C1A69891  21.351  12.377   6.201
 5514POPC   D2A69892  21.144  12.130   6.497
 5514POPC   C3A69893  21.147  12.223   6.920
 5514POPC   C4A69894  21.071  11.956   7.263
 5514POPC   C1B69895  21.445  11.867   6.186
 5514POPC   C2B69896  21.610  11.903   6.592
 5514POPC   C3B69897  21.512  11.844   7.008
 5514POPC   C4B69898  21.579  11.938   7.422
 5515POPC   NC369899  12.602  23.944   5.467
 5515POPC   PO469900  13.312  23.720   5.521
 5515POPC   GL169901  13.086  23.999   5.870
 5515POPC   GL269902  12.693  23.980   5.960
 5515POPC   C1A69903  13.055  23.941   6.350
 5515POPC   D2A69904  13.142  23.975   6.828
 5515POPC   C3A69905  13.002  23.632   7.059
 5515POPC   C4A69906  12.980  23.737   7.464
 5515POPC   C1B69907  12.687  23.571   6.196
 5515POPC   C2B69908  12.688  23.462   6.645
 5515POPC   C3B69909  12.624  23.250   7.035
 5515POPC   C4B69910  12.640  23.365   7.455
 5516POPC   NC369911  17.350  34.763   5.496
 5516POPC   PO469912  17.936  34.360   5.438
 5516POPC   GL169913  17.678  34.485   5.805
 5516POPC   GL269914  17.355  34.321   5.814
 5516POPC   C1A69915  17.554  34.512   6.266
 5516POPC   D2A69916  17.590  34.217   6.637
 5516POPC   C3A69917  17.653  34.364   7.079
 5516POPC   C4A69918  17.600  34.704   7.382
 5516POPC   C1B69919  17.071  34.361   6.156
 5516POPC   C2B69920  17.075  34.366   6.602
 5516POPC   C3B69921  17.109  34.221   7.044
 5516POPC   C4B69922  17.216  34.361   7.467
 5517POPC   NC369923  34.622  39.641   5.489
 5517POPC   PO469924  34.328  39.063   5.604
 5517POPC   GL169925  34.438  39.416   5.904
 5517POPC   GL269926  34.817  39.439   5.908
 5517POPC   C1A69927  34.435  39.450   6.345
 5517POPC   D2A69928  34.200  39.201   6.659
 5517POPC   C3A69929  34.491  39.041   6.948
 5517POPC   C4A69930  34.754  39.387   7.054
 5517POPC   C1B69931  34.748  39.075   6.163
 5517POPC   C2B69932  34.841  39.155   6.587
 5517POPC   C3B69933  35.031  38.969   6.932
 5517POPC   C4B69934  34.927  38.868   7.307
 5518POPC   NC369935  18.846  33.128   5.544
 5518POPC   PO469936  19.386  32.770   5.829
 5518POPC   GL169937  19.068  33.026   5.992
 5518POPC   GL269938  18.752  32.833   6.010
 5518POPC   C1A69939  19.070  32.998   6.423
 5518POPC   D2A69940  19.371  32.835   6.677
 5518POPC   C3A69941  19.239  32.968   7.070
 5518POPC   C4A69942  19.226  33.388   7.226
 5518POPC   C1B69943  18.640  33.199   6.257
 5518POPC   C2B69944  18.775  33.357   6.688
 5518POPC   C3B69945  18.717  33.311   7.117
 5518POPC   C4B69946  18.844  33.050   7.440
 5519POPC   NC369947   5.429  15.005   5.640
 5519POPC   PO469948   5.181  15.558   5.291
 5519POPC   GL169949   5.188  15.418   5.772
 5519POPC   GL269950   4.946  15.104   5.795
 5519POPC   C1A69951   5.107  15.322   6.219
 5519POPC   D2A69952   5.280  15.142   6.592
 5519POPC   C3A69953   4.964  15.368   6.874
 5519POPC   C4A69954   4.996  15.316   7.316
 5519POPC   C1B69955   4.708  14.957   6.128
 5519POPC   C2B69956   4.794  14.996   6.557
 5519POPC   C3B69957   5.003  14.877   6.956
 5519POPC   C4B69958   4.705  14.851   7.286
 5520POPC   NC369959  36.283  15.791   5.554
 5520POPC   PO469960  35.786  16.106   5.303
 5520POPC   GL169961  35.925  16.091   5.778
 5520POPC   GL269962  36.246  16.292   5.808
 5520POPC   C1A69963  35.997  15.792   6.176
 5520POPC   D2A69964  36.068  15.797   6.651
 5520POPC   C3A69965  36.050  16.053   7.051
 5520POPC   C4A69966  36.168  15.884   7.494
 5520POPC   C1B69967  36.180  16.239   6.279
 5520POPC   C2B69968  36.433  16.198   6.639
 5520POPC   C3B69969  36.572  16.374   7.017
 5520POPC   C4B69970  36.315  16.451   7.347
 5521POPC   NC369971  37.080   0.074   5.432
 5521POPC   PO469972  36.939   0.711   5.360
 5521POPC   GL169973  36.785   0.442   5.712
 5521POPC   GL269974  36.533   0.160   5.622
 5521POPC   C1A69975  36.958   0.343   6.135
 5521POPC   D2A69976  37.106   0.528   6.528
 5521POPC   C3A69977  36.904   0.428   6.929
 5521POPC   C4A69978  37.121   0.196   7.269
 5521POPC   C1B69979  36.530   0.060   6.093
 5521POPC   C2B69980  36.712   0.096   6.536
 5521POPC   C3B69981  36.499   0.116   6.964
 5521POPC   C4B69982  36.640   0.108   7.392
 5522POPC   NC369983   3.178  15.407   5.578
 5522POPC   PO469984   2.608  15.087   5.537
 5522POPC   GL169985   2.823  15.146   5.939
 5522POPC   GL269986   3.134  15.322   6.075
 5522POPC   C1A69987   2.701  15.257   6.364
 5522POPC   D2A69988   2.798  15.572   6.643
 5522POPC   C3A69989   2.856  15.480   7.080
 5522POPC   C4A69990   2.732  15.117   7.272
 5522POPC   C1B69991   3.115  14.972   6.371
 5522POPC   C2B69992   2.829  14.932   6.749
 5522POPC   C3B69993   2.839  14.642   7.086
 5522POPC   C4B69994   2.963  14.686   7.492
 5523POPC   NC369995  20.227  28.620   5.292
 5523POPC   PO469996  19.509  28.315   5.180
 5523POPC   GL169997  19.757  28.249   5.653
 5523POPC   GL269998  20.002  28.534   5.803
 5523POPC   C1A69999  19.723  28.307   6.157
 5523POPC   D2A70000  19.794  28.566   6.551
 5523POPC   C3A70001  19.648  28.427   6.952
 5523POPC   C4A70002  19.740  28.051   7.194
 5523POPC   C1B70003  20.179  28.684   6.236
 5523POPC   C2B70004  20.303  28.599   6.699
 5523POPC   C3B70005  20.137  28.385   7.059
 5523POPC   C4B70006  19.963  28.575   7.418
 5524POPC   NC370007  44.392  16.310   5.587
 5524POPC   PO470008  44.936  16.563   5.243
 5524POPC   GL170009  44.881  16.651   5.728
 5524POPC   GL270010  44.630  16.853   5.893
 5524POPC   C1A70011  44.992  16.719   6.208
 5524POPC   D2A70012  44.948  16.972   6.601
 5524POPC   C3A70013  44.699  16.814   6.913
 5524POPC   C4A70014  44.653  16.743   7.355
 5524POPC   C1B70015  44.495  16.846   6.335
 5524POPC   C2B70016  44.357  17.130   6.689
 5524POPC   C3B70017  44.263  16.996   7.123
 5524POPC   C4B70018  44.318  17.048   7.595
 5525POPC   NC370019  10.132   7.363   5.378
 5525POPC   PO470020   9.614   7.761   5.502
 5525POPC   GL170021   9.835   7.472   5.817
 5525POPC   GL270022  10.067   7.178   5.831
 5525POPC   C1A70023   9.785   7.311   6.248
 5525POPC   D2A70024   9.519   7.177   6.603
 5525POPC   C3A70025   9.804   7.281   6.893
 5525POPC   C4A70026   9.892   7.521   7.260
 5525POPC   C1B70027  10.059   6.886   6.142
 5525POPC   C2B70028   9.931   6.878   6.531
 5525POPC   C3B70029  10.168   6.829   6.872
 5525POPC   C4B70030  10.169   7.095   7.193
 5526POPC   NC370031  23.812  20.907   5.248
 5526POPC   PO470032  23.539  21.522   5.390
 5526POPC   GL170033  23.781  21.366   5.783
 5526POPC   GL270034  23.966  21.050   5.792
 5526POPC   C1A70035  23.900  21.540   6.202
 5526POPC   D2A70036  23.991  21.383   6.599
 5526POPC   C3A70037  23.802  21.476   6.962
 5526POPC   C4A70038  24.160  21.641   7.182
 5526POPC   C1B70039  23.814  21.025   6.253
 5526POPC   C2B70040  23.717  20.943   6.702
 5526POPC   C3B70041  23.539  21.026   7.101
 5526POPC   C4B70042  23.327  21.391   7.305
 5527POPC   NC370043  37.687  21.670   5.297
 5527POPC   PO470044  37.253  21.099   5.405
 5527POPC   GL170045  37.583  21.288   5.685
 5527POPC   GL270046  37.594  21.666   5.781
 5527POPC   C1A70047  37.797  21.241   6.105
 5527POPC   D2A70048  37.950  21.469   6.500
 5527POPC   C3A70049  37.696  21.406   6.862
 5527POPC   C4A70050  37.798  21.166   7.208
 5527POPC   C1B70051  37.605  21.716   6.189
 5527POPC   C2B70052  37.539  21.821   6.582
 5527POPC   C3B70053  37.366  21.861   6.983
 5527POPC   C4B70054  37.465  21.580   7.297
 5528POPC   NC370055  14.999  13.232   5.506
 5528POPC   PO470056  14.411  13.491   5.462
 5528POPC   GL170057  14.268  13.663   5.862
 5528POPC   GL270058  14.125  13.364   5.956
 5528POPC   C1A70059  14.371  13.609   6.336
 5528POPC   D2A70060  14.559  13.630   6.758
 5528POPC   C3A70061  14.485  13.820   7.191
 5528POPC   C4A70062  14.827  13.846   7.546
 5528POPC   C1B70063  14.117  13.145   6.356
 5528POPC   C2B70064  14.127  13.351   6.760
 5528POPC   C3B70065  14.399  13.321   7.122
 5528POPC   C4B70066  14.608  13.396   7.531
 5529POPC   NC370067  19.651  18.521   5.570
 5529POPC   PO470068  20.266  18.188   5.461
 5529POPC   GL170069  20.000  18.132   5.871
 5529POPC   GL270070  19.666  17.943   5.857
 5529POPC   C1A70071  19.810  18.238   6.274
 5529POPC   D2A70072  19.662  18.315   6.715
 5529POPC   C3A70073  19.941  18.542   7.046
 5529POPC   C4A70074  20.389  18.577   7.205
 5529POPC   C1B70075  19.404  17.907   6.264
 5529POPC   C2B70076  19.223  17.928   6.695
 5529POPC   C3B70077  19.474  17.978   7.065
 5529POPC   C4B70078  19.925  18.037   7.151
 5530POPC   NC370079   1.946  17.407   5.393
 5530POPC   PO470080   1.990  18.008   5.605
 5530POPC   GL170081   2.012  17.589   5.854
 5530POPC   GL270082   1.731  17.297   5.836
 5530POPC   C1A70083   2.152  17.480   6.241
 5530POPC   D2A70084   1.944  17.596   6.606
 5530POPC   C3A70085   2.193  17.482   6.929
 5530POPC   C4A70086   2.137  17.572   7.342
 5530POPC   C1B70087   1.590  17.508   6.210
 5530POPC   C2B70088   1.473  17.332   6.622
 5530POPC   C3B70089   1.704  17.353   7.011
 5530POPC   C4B70090   1.625  17.683   7.306
 5531POPC   NC370091  26.541   1.486   5.367
 5531POPC   PO470092  26.886   0.903   5.389
 5531POPC   GL170093  26.694   1.128   5.758
 5531POPC   GL270094  26.861   1.476   5.758
 5531POPC   C1A70095  26.800   1.199   6.211
 5531POPC   D2A70096  26.942   1.051   6.638
 5531POPC   C3A70097  26.575   1.002   6.925
 5531POPC   C4A70098  26.493   0.948   7.372
 5531POPC   C1B70099  27.167   1.567   6.070
 5531POPC   C2B70100  27.048   1.572   6.503
 5531POPC   C3B70101  26.763   1.484   6.843
 5531POPC   C4B70102  26.803   1.608   7.269
 5532POPC   NC370103  34.935   2.181   5.546
 5532POPC   PO470104  34.485   1.811   5.301
 5532POPC   GL170105  34.494   1.974   5.738
 5532POPC   GL270106  34.577   1.661   5.844
 5532POPC   C1A70107  34.597   2.080   6.212
 5532POPC   D2A70108  34.391   2.184   6.620
 5532POPC   C3A70109  34.580   2.423   6.962
 5532POPC   C4A70110  34.966   2.376   7.182
 5532POPC   C1B70111  34.773   1.546   6.231
 5532POPC   C2B70112  34.857   1.747   6.592
 5532POPC   C3B70113  34.655   1.881   6.935
 5532POPC   C4B70114  34.616   2.027   7.325
 5533POPC   NC370115  34.743   0.534   4.975
 5533POPC   PO470116  34.267   0.170   5.276
 5533POPC   GL170117  34.500   0.313   5.670
 5533POPC   GL270118  34.347   0.115   5.915
 5533POPC   C1A70119  34.723   0.432   6.086
 5533POPC   D2A70120  34.803   0.437   6.534
 5533POPC   C3A70121  34.765   0.625   6.930
 5533POPC   C4A70122  34.469   0.425   7.213
 5533POPC   C1B70123  34.365   0.199   6.342
 5533POPC   C2B70124  34.427   0.081   6.704
 5533POPC   C3B70125  34.106  44.869   6.889
 5533POPC   C4B70126  34.145   0.014   7.308
 5534POPC   NC370127  34.358  38.654   5.418
 5534POPC   PO470128  34.819  38.208   5.439
 5534POPC   GL170129  34.645  38.377   5.780
 5534POPC   GL270130  34.615  38.094   5.958
 5534POPC   C1A70131  34.803  38.541   6.182
 5534POPC   D2A70132  34.576  38.719   6.539
 5534POPC   C3A70133  34.685  38.555   6.945
 5534POPC   C4A70134  34.737  38.413   7.362
 5534POPC   C1B70135  34.333  38.315   6.262
 5534POPC   C2B70136  34.263  38.338   6.714
 5534POPC   C3B70137  34.293  38.265   7.167
 5534POPC   C4B70138  34.292  38.326   7.624
 5535POPC   NC370139  44.563  12.846   5.340
 5535POPC   PO470140  44.126  12.333   5.545
 5535POPC   GL170141  44.485  12.600   5.773
 5535POPC   GL270142  44.575  12.959   5.832
 5535POPC   C1A70143  44.769  12.584   6.154
 5535POPC   D2A70144   0.006  12.888   6.423
 5535POPC   C3A70145  44.885  12.860   6.875
 5535POPC   C4A70146  44.584  12.641   7.186
 5535POPC   C1B70147  44.573  13.250   6.185
 5535POPC   C2B70148  44.641  13.247   6.621
 5535POPC   C3B70149  44.500  13.180   7.046
 5535POPC   C4B70150  44.774  13.066   7.372
 5536POPC   NC370151   9.964   1.740   5.283
 5536POPC   PO470152   9.601   2.403   5.313
 5536POPC   GL170153   9.666   2.041   5.670
 5536POPC   GL270154   9.906   1.797   5.770
 5536POPC   C1A70155   9.574   1.850   6.131
 5536POPC   D2A70156   9.796   1.834   6.545
 5536POPC   C3A70157   9.587   1.830   6.933
 5536POPC   C4A70158   9.375   2.113   7.203
 5536POPC   C1B70159  10.113   1.788   6.156
 5536POPC   C2B70160  10.272   1.654   6.580
 5536POPC   C3B70161  10.153   1.918   6.921
 5536POPC   C4B70162   9.939   1.966   7.305
 5537POPC   NC370163  22.857   4.266   5.367
 5537POPC   PO470164  22.968   4.967   5.443
 5537POPC   GL170165  22.829   4.637   5.727
 5537POPC   GL270166  23.161   4.522   5.705
 5537POPC   C1A70167  22.768   4.423   6.121
 5537POPC   D2A70168  22.753   4.147   6.488
 5537POPC   C3A70169  22.992   4.193   6.880
 5537POPC   C4A70170  22.889   4.215   7.326
 5537POPC   C1B70171  23.164   4.761   6.101
 5537POPC   C2B70172  23.068   4.596   6.521
 5537POPC   C3B70173  23.019   4.718   6.950
 5537POPC   C4B70174  23.283   4.672   7.283
 5538POPC   NC370175  23.976  36.305   5.424
 5538POPC   PO470176  23.370  36.056   5.451
 5538POPC   GL170177  23.583  36.200   5.828
 5538POPC   GL270178  23.958  36.197   5.934
 5538POPC   C1A70179  23.416  36.102   6.226
 5538POPC   D2A70180  23.459  36.223   6.627
 5538POPC   C3A70181  23.769  36.014   6.888
 5538POPC   C4A70182  23.658  36.207   7.241
 5538POPC   C1B70183  23.929  36.152   6.397
 5538POPC   C2B70184  23.902  36.479   6.721
 5538POPC   C3B70185  24.059  36.483   7.127
 5538POPC   C4B70186  24.217  36.144   7.313
 5539POPC   NC370187  19.717  37.714   5.377
 5539POPC   PO470188  20.096  37.109   5.250
 5539POPC   GL170189  19.828  37.309   5.661
 5539POPC   GL270190  19.462  37.273   5.782
 5539POPC   C1A70191  19.933  37.614   6.071
 5539POPC   D2A70192  20.044  37.575   6.557
 5539POPC   C3A70193  19.847  37.768   6.965
 5539POPC   C4A70194  19.733  38.115   7.280
 5539POPC   C1B70195  19.579  37.302   6.270
 5539POPC   C2B70196  19.608  37.328   6.772
 5539POPC   C3B70197  19.460  37.458   7.211
 5539POPC   C4B70198  19.439  37.384   7.691
 5540POPC   NC370199  20.101  24.018   5.495
 5540POPC   PO470200  19.519  23.598   5.387
 5540POPC   GL170201  19.672  23.791   5.774
 5540POPC   GL270202  20.026  23.711   5.892
 5540POPC   C1A70203  19.660  23.692   6.229
 5540POPC   D2A70204  19.969  23.718   6.554
 5540POPC   C3A70205  19.876  23.516   6.893
 5540POPC   C4A70206  19.603  23.576   7.168
 5540POPC   C1B70207  20.044  24.055   6.179
 5540POPC   C2B70208  20.080  24.222   6.601
 5540POPC   C3B70209  19.980  24.017   7.006
 5540POPC   C4B70210  20.112  24.142   7.412
 5541POPC   NC370211  15.577  22.272   5.371
 5541POPC   PO470212  15.040  21.884   5.372
 5541POPC   GL170213  15.005  22.149   5.733
 5541POPC   GL270214  15.341  22.049   5.770
 5541POPC   C1A70215  15.002  22.281   6.176
 5541POPC   D2A70216  15.250  22.328   6.572
 5541POPC   C3A70217  15.118  22.120   6.927
 5541POPC   C4A70218  14.902  22.314   7.231
 5541POPC   C1B70219  15.488  22.120   6.166
 5541POPC   C2B70220  15.463  21.861   6.530
 5541POPC   C3B70221  15.442  21.658   6.913
 5541POPC   C4B70222  15.334  21.826   7.297
 5542POPC   NC370223  28.678   5.167   5.377
 5542POPC   PO470224  29.232   4.829   5.432
 5542POPC   GL170225  29.135   5.132   5.703
 5542POPC   GL270226  28.839   5.022   5.832
 5542POPC   C1A70227  29.253   5.162   6.130
 5542POPC   D2A70228  29.147   5.108   6.548
 5542POPC   C3A70229  29.405   5.201   6.926
 5542POPC   C4A70230  29.394   4.937   7.311
 5542POPC   C1B70231  28.744   5.278   6.198
 5542POPC   C2B70232  28.632   5.159   6.606
 5542POPC   C3B70233  28.874   5.122   6.984
 5542POPC   C4B70234  28.847   5.446   7.313
 5543POPC   NC370235  11.857  17.614   5.244
 5543POPC   PO470236  11.836  17.061   5.585
 5543POPC   GL170237  11.973  17.300   5.903
 5543POPC   GL270238  12.131  17.552   5.682
 5543POPC   C1A70239  11.880  17.388   6.360
 5543POPC   D2A70240  12.021  17.220   6.761
 5543POPC   C3A70241  12.101  17.296   7.214
 5543POPC   C4A70242  11.991  17.657   7.439
 5543POPC   C1B70243  12.289  17.683   6.082
 5543POPC   C2B70244  12.148  17.800   6.521
 5543POPC   C3B70245  12.229  17.741   6.961
 5543POPC   C4B70246  12.525  17.708   7.305
 5544POPC   NC370247  38.086  41.204   5.564
 5544POPC   PO470248  38.741  41.046   5.360
 5544POPC   GL170249  38.498  40.962   5.756
 5544POPC   GL270250  38.274  40.696   5.722
 5544POPC   C1A70251  38.576  41.039   6.224
 5544POPC   D2A70252  38.600  41.205   6.677
 5544POPC   C3A70253  38.585  40.923   7.062
 5544POPC   C4A70254  38.567  40.682   7.460
 5544POPC   C1B70255  38.387  40.574   6.161
 5544POPC   C2B70256  38.473  40.681   6.610
 5544POPC   C3B70257  38.224  40.567   6.992
 5544POPC   C4B70258  38.283  40.256   7.322
 5545POPC   NC370259   6.098   2.881   5.190
 5545POPC   PO470260   5.816   2.337   5.450
 5545POPC   GL170261   5.824   2.619   5.826
 5545POPC   GL270262   6.001   2.937   5.704
 5545POPC   C1A70263   5.976   2.452   6.241
 5545POPC   D2A70264   6.359   2.423   6.506
 5545POPC   C3A70265   6.184   2.528   6.881
 5545POPC   C4A70266   5.874   2.552   7.174
 5545POPC   C1B70267   5.856   3.112   6.106
 5545POPC   C2B70268   5.892   2.941   6.513
 5545POPC   C3B70269   5.862   3.017   6.942
 5545POPC   C4B70270   6.063   3.205   7.280
 5546POPC   NC370271  15.398  26.345   5.403
 5546POPC   PO470272  15.018  25.791   5.553
 5546POPC   GL170273  15.136  25.970   5.937
 5546POPC   GL270274  15.444  26.127   5.899
 5546POPC   C1A70275  15.202  26.163   6.355
 5546POPC   D2A70276  15.240  26.495   6.666
 5546POPC   C3A70277  15.158  26.279   7.034
 5546POPC   C4A70278  14.903  25.930   7.134
 5546POPC   C1B70279  15.455  25.715   6.226
 5546POPC   C2B70280  15.278  25.756   6.663
 5546POPC   C3B70281  15.413  25.792   7.088
 5546POPC   C4B70282  15.601  26.180   7.262
 5547POPC   NC370283  33.648  15.859   5.477
 5547POPC   PO470284  34.129  16.250   5.068
 5547POPC   GL170285  34.153  16.014   5.573
 5547POPC   GL270286  33.904  16.168   5.808
 5547POPC   C1A70287  34.037  15.724   6.017
 5547POPC   D2A70288  33.726  15.650   6.405
 5547POPC   C3A70289  33.841  15.602   6.890
 5547POPC   C4A70290  33.697  15.665   7.343
 5547POPC   C1B70291  34.141  16.169   6.196
 5547POPC   C2B70292  34.143  16.308   6.579
 5547POPC   C3B70293  33.899  16.293   6.905
 5547POPC   C4B70294  34.029  15.995   7.167
 5548POPC   NC370295  39.540  25.168   5.399
 5548POPC   PO470296  39.854  25.791   5.317
 5548POPC   GL170297  40.074  25.679   5.728
 5548POPC   GL270298  40.090  25.313   5.827
 5548POPC   C1A70299  39.931  25.642   6.186
 5548POPC   D2A70300  39.689  25.312   6.424
 5548POPC   C3A70301  39.665  25.265   6.853
 5548POPC   C4A70302  39.949  25.146   7.139
 5548POPC   C1B70303  40.245  25.237   6.251
 5548POPC   C2B70304  40.195  25.345   6.682
 5548POPC   C3B70305  40.394  25.057   6.963
 5548POPC   C4B70306  40.227  24.642   7.133
 5549POPC   NC370307  10.685  29.578   5.693
 5549POPC   PO470308  10.207  29.334   5.257
 5549POPC   GL170309  10.400  29.089   5.697
 5549POPC   GL270310  10.308  28.769   5.829
 5549POPC   C1A70311  10.513  29.107   6.173
 5549POPC   D2A70312  10.709  29.436   6.483
 5549POPC   C3A70313  10.795  29.379   6.926
 5549POPC   C4A70314  10.516  29.394   7.243
 5549POPC   C1B70315  10.238  28.578   6.243
 5549POPC   C2B70316  10.257  28.668   6.700
 5549POPC   C3B70317  10.487  28.948   6.987
 5549POPC   C4B70318  10.574  28.911   7.439
 5550POPC   NC370319  21.838   7.472   5.601
 5550POPC   PO470320  22.381   7.127   5.671
 5550POPC   GL170321  22.093   7.196   6.018
 5550POPC   GL270322  21.974   7.543   6.086
 5550POPC   C1A70323  21.981   7.197   6.456
 5550POPC   D2A70324  22.274   7.242   6.800
 5550POPC   C3A70325  22.093   7.278   7.203
 5550POPC   C4A70326  22.105   7.152   7.636
 5550POPC   C1B70327  22.374   7.533   6.350
 5550POPC   C2B70328  22.468   7.752   6.746
 5550POPC   C3B70329  22.174   7.802   7.100
 5550POPC   C4B70330  22.205   7.652   7.522
 5551POPC   NC370331  36.741  24.073   5.469
 5551POPC   PO470332  36.696  23.349   5.614
 5551POPC   GL170333  36.912  23.594   5.929
 5551POPC   GL270334  36.938  23.958   5.933
 5551POPC   C1A70335  37.089  23.498   6.306
 5551POPC   D2A70336  36.973  23.260   6.634
 5551POPC   C3A70337  36.781  23.534   6.881
 5551POPC   C4A70338  36.676  23.729   7.251
 5551POPC   C1B70339  36.725  23.886   6.335
 5551POPC   C2B70340  36.706  24.043   6.756
 5551POPC   C3B70341  36.364  24.136   7.044
 5551POPC   C4B70342  36.328  24.038   7.461
 5552POPC   NC370343  25.095  16.122   5.412
 5552POPC   PO470344  25.550  15.616   5.415
 5552POPC   GL170345  25.354  15.738   5.783
 5552POPC   GL270346  25.326  16.126   5.860
 5552POPC   C1A70347  25.510  15.797   6.177
 5552POPC   D2A70348  25.349  16.070   6.453
 5552POPC   C3A70349  25.367  15.873   6.832
 5552POPC   C4A70350  25.411  16.023   7.197
 5552POPC   C1B70351  25.058  16.374   6.141
 5552POPC   C2B70352  24.864  16.245   6.524
 5552POPC   C3B70353  25.048  16.270   6.927
 5552POPC   C4B70354  24.903  16.026   7.271
 5553POPC   NC370355  16.115  26.475   5.537
 5553POPC   PO470356  15.756  25.933   5.522
 5553POPC   GL170357  15.890  25.904   5.956
 5553POPC   GL270358  16.236  25.903   6.026
 5553POPC   C1A70359  15.729  26.119   6.339
 5553POPC   D2A70360  15.626  26.143   6.747
 5553POPC   C3A70361  15.963  25.964   6.946
 5553POPC   C4A70362  15.902  25.655   7.205
 5553POPC   C1B70363  16.172  25.892   6.447
 5553POPC   C2B70364  16.177  26.292   6.597
 5553POPC   C3B70365  16.104  26.459   6.972
 5553POPC   C4B70366  16.082  26.261   7.365
 5554POPC   NC370367   3.389  33.992   5.486
 5554POPC   PO470368   3.753  33.434   5.368
 5554POPC   GL170369   3.705  33.709   5.754
 5554POPC   GL270370   3.347  33.669   5.893
 5554POPC   C1A70371   3.601  34.023   6.119
 5554POPC   D2A70372   3.389  33.849   6.456
 5554POPC   C3A70373   3.512  33.988   6.830
 5554POPC   C4A70374   3.616  33.745   7.167
 5554POPC   C1B70375   3.047  33.974   6.101
 5554POPC   C2B70376   2.899  33.977   6.543
 5554POPC   C3B70377   3.030  33.959   6.972
 5554POPC   C4B70378   3.201  33.956   7.382
 5555POPC   NC370379   7.621   3.283   5.489
 5555POPC   PO470380   7.136   3.737   5.424
 5555POPC   GL170381   7.225   3.529   5.778
 5555POPC   GL270382   7.123   3.189   5.811
 5555POPC   C1A70383   7.363   3.764   6.143
 5555POPC   D2A70384   7.299   4.011   6.496
 5555POPC   C3A70385   7.511   3.840   6.847
 5555POPC   C4A70386   7.401   3.860   7.238
 5555POPC   C1B70387   7.301   3.257   6.203
 5555POPC   C2B70388   7.238   3.476   6.596
 5555POPC   C3B70389   7.294   3.391   7.054
 5555POPC   C4B70390   7.279   3.397   7.543
 5556POPC   NC370391  40.746  19.803   5.362
 5556POPC   PO470392  41.235  20.204   5.505
 5556POPC   GL170393  40.973  19.903   5.794
 5556POPC   GL270394  40.590  19.968   5.835
 5556POPC   C1A70395  40.758  19.557   6.065
 5556POPC   D2A70396  40.621  19.518   6.504
 5556POPC   C3A70397  40.830  19.787   6.828
 5556POPC   C4A70398  40.856  19.650   7.280
 5556POPC   C1B70399  40.763  20.031   6.267
 5556POPC   C2B70400  40.768  20.304   6.631
 5556POPC   C3B70401  40.643  20.232   7.027
 5556POPC   C4B70402  40.600  20.106   7.413
 5557POPC   NC370403  17.607  20.534   5.400
 5557POPC   PO470404  17.280  21.069   5.444
 5557POPC   GL170405  17.371  20.784   5.819
 5557POPC   GL270406  17.263  20.431   5.867
 5557POPC   C1A70407  17.514  20.725   6.261
 5557POPC   D2A70408  17.591  20.912   6.674
 5557POPC   C3A70409  17.484  20.756   7.088
 5557POPC   C4A70410  17.705  20.904   7.482
 5557POPC   C1B70411  17.454  20.227   6.264
 5557POPC   C2B70412  17.382  20.410   6.669
 5557POPC   C3B70413  17.385  20.239   7.062
 5557POPC   C4B70414  17.833  20.359   7.142
 5558POPC   NC370415  19.496  29.031   5.656
 5558POPC   PO470416  20.138  28.978   5.587
 5558POPC   GL170417  19.923  29.250   5.895
 5558POPC   GL270418  19.658  29.516   5.858
 5558POPC   C1A70419  19.805  29.059   6.265
 5558POPC   D2A70420  20.030  29.032   6.599
 5558POPC   C3A70421  19.935  28.855   6.964
 5558POPC   C4A70422  20.013  29.044   7.300
 5558POPC   C1B70423  19.409  29.373   6.212
 5558POPC   C2B70424  19.511  29.264   6.624
 5558POPC   C3B70425  19.793  29.350   6.910
 5558POPC   C4B70426  19.613  29.332   7.256
 5559POPC   NC370427  18.218   0.144   5.549
 5559POPC   PO470428  18.613  44.591   5.458
 5559POPC   GL170429  18.487  44.734   5.843
 5559POPC   GL270430  18.192  44.574   5.787
 5559POPC   C1A70431  18.437  44.462   6.229
 5559POPC   D2A70432  18.647  44.306   6.594
 5559POPC   C3A70433  18.432  44.610   6.869
 5559POPC   C4A70434  18.606  44.773   7.236
 5559POPC   C1B70435  18.084  44.841   6.148
 5559POPC   C2B70436  18.151  44.947   6.569
 5559POPC   C3B70437  17.935  44.881   6.953
 5559POPC   C4B70438  18.055  44.639   7.296
 5560POPC   NC370439  10.447  28.013   5.432
 5560POPC   PO470440  10.890  27.408   5.457
 5560POPC   GL170441  10.668  27.500   5.842
 5560POPC   GL270442  10.325  27.549   5.755
 5560POPC   C1A70443  10.481  27.654   6.244
 5560POPC   D2A70444  10.274  27.644   6.648
 5560POPC   C3A70445  10.488  27.715   7.007
 5560POPC   C4A70446  10.443  27.969   7.373
 5560POPC   C1B70447  10.256  27.209   6.070
 5560POPC   C2B70448  10.124  27.159   6.525
 5560POPC   C3B70449  10.278  27.208   6.943
 5560POPC   C4B70450  10.336  27.383   7.346
 5561POPC   NC370451  36.137  12.429   5.471
 5561POPC   PO470452  36.440  11.939   5.047
 5561POPC   GL170453  36.184  11.943   5.559
 5561POPC   GL270454  35.903  12.116   5.805
 5561POPC   C1A70455  36.334  12.039   6.041
 5561POPC   D2A70456  36.467  11.823   6.431
 5561POPC   C3A70457  36.401  12.022   6.842
 5561POPC   C4A70458  36.134  12.150   7.171
 5561POPC   C1B70459  35.924  12.302   6.244
 5561POPC   C2B70460  35.876  12.312   6.710
 5561POPC   C3B70461  35.670  12.016   7.000
 5561POPC   C4B70462  35.611  12.171   7.386
 5562POPC   NC370463   6.844   9.519   5.394
 5562POPC   PO470464   6.529  10.120   5.424
 5562POPC   GL170465   6.690   9.860   5.779
 5562POPC   GL270466   6.428   9.646   5.683
 5562POPC   C1A70467   6.689   9.864   6.271
 5562POPC   D2A70468   6.626   9.656   6.675
 5562POPC   C3A70469   6.616   9.811   7.116
 5562POPC   C4A70470   6.815   9.676   7.538
 5562POPC   C1B70471   6.233   9.858   6.052
 5562POPC   C2B70472   6.164   9.845   6.481
 5562POPC   C3B70473   6.151   9.626   6.861
 5562POPC   C4B70474   6.093   9.859   7.208
 5563POPC   NC370475   1.626  38.361   5.470
 5563POPC   PO470476   2.195  38.749   5.449
 5563POPC   GL170477   1.888  38.653   5.803
 5563POPC   GL270478   1.921  38.291   5.882
 5563POPC   C1A70479   1.646  38.780   6.191
 5563POPC   D2A70480   1.611  38.729   6.680
 5563POPC   C3A70481   2.031  38.681   6.900
 5563POPC   C4A70482   2.212  38.657   7.314
 5563POPC   C1B70483   1.873  38.108   6.298
 5563POPC   C2B70484   1.830  38.195   6.764
 5563POPC   C3B70485   2.100  38.137   7.143
 5563POPC   C4B70486   2.073  38.235   7.578
 5564POPC   NC370487  24.024  38.765   5.501
 5564POPC   PO470488  23.548  38.228   5.422
 5564POPC   GL170489  23.504  38.330   5.835
 5564POPC   GL270490  23.629  38.678   5.860
 5564POPC   C1A70491  23.420  38.440   6.258
 5564POPC   D2A70492  23.641  38.596   6.629
 5564POPC   C3A70493  23.627  38.418   6.998
 5564POPC   C4A70494  23.447  38.601   7.322
 5564POPC   C1B70495  23.924  38.525   6.179
 5564POPC   C2B70496  24.157  38.562   6.584
 5564POPC   C3B70497  24.120  38.472   7.037
 5564POPC   C4B70498  23.903  38.481   7.480
 5565POPC   NC370499  30.060   7.608   5.471
 5565POPC   PO470500  29.519   7.224   5.646
 5565POPC   GL170501  29.714   7.584   5.873
 5565POPC   GL270502  30.094   7.550   5.965
 5565POPC   C1A70503  29.731   7.627   6.310
 5565POPC   D2A70504  29.793   7.257   6.564
 5565POPC   C3A70505  29.762   7.458   6.944
 5565POPC   C4A70506  30.091   7.388   7.232
 5565POPC   C1B70507  30.273   7.690   6.350
 5565POPC   C2B70508  30.169   7.718   6.770
 5565POPC   C3B70509  30.400   7.787   7.134
 5565POPC   C4B70510  30.312   7.706   7.570
 5566POPC   NC370511  15.087   7.159   5.185
 5566POPC   PO470512  15.274   6.674   5.661
 5566POPC   GL170513  15.059   7.094   5.759
 5566POPC   GL270514  15.133   7.426   5.688
 5566POPC   C1A70515  14.859   7.306   6.137
 5566POPC   D2A70516  14.804   7.216   6.590
 5566POPC   C3A70517  15.165   7.193   6.865
 5566POPC   C4A70518  15.290   7.176   7.288
 5566POPC   C1B70519  15.277   7.585   6.092
 5566POPC   C2B70520  15.214   7.607   6.537
 5566POPC   C3B70521  15.315   7.691   6.963
 5566POPC   C4B70522  15.607   7.566   7.313
 5567POPC   NC370523  15.437   3.565   5.476
 5567POPC   PO470524  15.131   3.077   5.478
 5567POPC   GL170525  15.185   3.325   5.860
 5567POPC   GL270526  14.981   3.602   5.769
 5567POPC   C1A70527  15.078   3.276   6.298
 5567POPC   D2A70528  15.017   3.183   6.752
 5567POPC   C3A70529  15.177   3.485   7.086
 5567POPC   C4A70530  15.486   3.795   7.257
 5567POPC   C1B70531  15.008   3.777   6.187
 5567POPC   C2B70532  14.998   3.689   6.624
 5567POPC   C3B70533  14.780   3.780   6.983
 5567POPC   C4B70534  14.969   3.952   7.334
 5568POPC   NC370535  22.050   6.803   5.516
 5568POPC   PO470536  22.721   6.639   5.328
 5568POPC   GL170537  22.441   6.670   5.825
 5568POPC   GL270538  22.096   6.603   5.959
 5568POPC   C1A70539  22.319   6.840   6.330
 5568POPC   D2A70540  21.988   6.737   6.708
 5568POPC   C3A70541  22.087   6.770   7.178
 5568POPC   C4A70542  22.475   6.781   7.475
 5568POPC   C1B70543  21.941   6.358   6.282
 5568POPC   C2B70544  21.883   6.181   6.683
 5568POPC   C3B70545  21.868   6.300   7.104
 5568POPC   C4B70546  22.201   6.279   7.399
 5569POPC   NC370547  43.620   3.600   5.127
 5569POPC   PO470548  44.097   3.719   5.668
 5569POPC   GL170549  43.987   3.508   5.964
 5569POPC   GL270550  44.274   3.294   5.917
 5569POPC   C1A70551  43.649   3.418   6.231
 5569POPC   D2A70552  43.574   3.417   6.645
 5569POPC   C3A70553  43.629   3.773   6.879
 5569POPC   C4A70554  43.708   3.500   7.205
 5569POPC   C1B70555  44.190   3.383   6.401
 5569POPC   C2B70556  44.087   3.511   6.833
 5569POPC   C3B70557  44.216   3.579   7.267
 5569POPC   C4B70558  44.148   3.925   7.549
 5570POPC   NC370559  44.154  13.988   5.452
 5570POPC   PO470560  44.780  14.111   5.412
 5570POPC   GL170561  44.801  14.413   5.778
 5570POPC   GL270562  44.475  14.505   5.846
 5570POPC   C1A70563  44.850  14.435   6.250
 5570POPC   D2A70564  44.635  14.569   6.650
 5570POPC   C3A70565  44.820  14.500   7.076
 5570POPC   C4A70566  44.757  14.173   7.413
 5570POPC   C1B70567  44.342  14.368   6.277
 5570POPC   C2B70568  44.310  14.169   6.691
 5570POPC   C3B70569  44.347  14.327   7.100
 5570POPC   C4B70570  44.377  14.740   7.297
 5571POPC   NC370571  33.968  39.128   5.331
 5571POPC   PO470572  33.501  39.583   5.390
 5571POPC   GL170573  33.559  39.274   5.746
 5571POPC   GL270574  33.831  39.013   5.812
 5571POPC   C1A70575  33.426  39.111   6.166
 5571POPC   D2A70576  33.294  39.110   6.612
 5571POPC   C3A70577  33.650  39.010   6.847
 5571POPC   C4A70578  33.959  39.006   7.173
 5571POPC   C1B70579  33.935  39.316   6.153
 5571POPC   C2B70580  33.728  39.436   6.544
 5571POPC   C3B70581  33.884  39.479   6.966
 5571POPC   C4B70582  34.262  39.403   7.211
 5572POPC   NC370583  12.464  32.459   5.575
 5572POPC   PO470584  12.297  33.024   5.222
 5572POPC   GL170585  12.109  33.081   5.671
 5572POPC   GL270586  12.351  32.895   5.874
 5572POPC   C1A70587  12.041  33.245   6.132
 5572POPC   D2A70588  12.099  33.066   6.565
 5572POPC   C3A70589  12.206  33.208   6.973
 5572POPC   C4A70590  12.015  33.185   7.345
 5572POPC   C1B70591  12.555  33.231   6.131
 5572POPC   C2B70592  12.572  33.328   6.581
 5572POPC   C3B70593  12.716  33.231   7.008
 5572POPC   C4B70594  12.539  33.168   7.401
 5573POPC   NC370595  11.858  11.793   5.448
 5573POPC   PO470596  12.408  11.491   5.391
 5573POPC   GL170597  12.095  11.410   5.729
 5573POPC   GL270598  11.875  11.092   5.706
 5573POPC   C1A70599  11.950  11.577   6.134
 5573POPC   D2A70600  11.798  11.450   6.554
 5573POPC   C3A70601  11.955  11.624   6.965
 5573POPC   C4A70602  12.057  11.415   7.376
 5573POPC   C1B70603  12.009  11.060   6.138
 5573POPC   C2B70604  11.924  10.957   6.575
 5573POPC   C3B70605  11.921  11.109   6.972
 5573POPC   C4B70606  11.673  11.044   7.328
 5574POPC   NC370607   6.343   8.025   5.306
 5574POPC   PO470608   6.657   8.616   5.579
 5574POPC   GL170609   6.488   8.250   5.748
 5574POPC   GL270610   6.328   8.445   5.951
 5574POPC   C1A70611   6.437   7.961   6.113
 5574POPC   D2A70612   6.644   7.927   6.529
 5574POPC   C3A70613   6.476   7.814   6.925
 5574POPC   C4A70614   6.222   8.028   7.223
 5574POPC   C1B70615   6.732   8.394   6.224
 5574POPC   C2B70616   6.928   8.316   6.635
 5574POPC   C3B70617   6.709   8.281   7.001
 5574POPC   C4B70618   6.914   8.399   7.353
 5575POPC   NC370619  28.646   8.941   5.409
 5575POPC   PO470620  28.051   9.064   5.163
 5575POPC   GL170621  28.115   9.184   5.703
 5575POPC   GL270622  28.474   9.125   5.833
 5575POPC   C1A70623  28.138   8.947   6.162
 5575POPC   D2A70624  28.193   9.080   6.610
 5575POPC   C3A70625  28.007   8.846   6.957
 5575POPC   C4A70626  27.966   8.864   7.416
 5575POPC   C1B70627  28.628   8.749   6.072
 5575POPC   C2B70628  28.486   8.635   6.459
 5575POPC   C3B70629  28.529   8.788   6.857
 5575POPC   C4B70630  28.425   9.002   7.229
 5576POPC   NC370631  18.360  27.956   5.507
 5576POPC   PO470632  18.543  28.568   5.424
 5576POPC   GL170633  18.316  28.529   5.812
 5576POPC   GL270634  18.239  28.179   5.932
 5576POPC   C1A70635  18.249  28.587   6.251
 5576POPC   D2A70636  18.379  28.423   6.655
 5576POPC   C3A70637  18.192  28.367   7.043
 5576POPC   C4A70638  18.149  28.550   7.433
 5576POPC   C1B70639  18.515  28.135   6.259
 5576POPC   C2B70640  18.707  28.014   6.620
 5576POPC   C3B70641  18.665  28.161   7.013
 5576POPC   C4B70642  18.452  28.142   7.426
 5577POPC   NC370643  10.880   9.277   5.557
 5577POPC   PO470644  11.567   8.947   5.400
 5577POPC   GL170645  11.380   8.901   5.796
 5577POPC   GL270646  11.309   9.218   5.892
 5577POPC   C1A70647  11.320   8.728   6.211
 5577POPC   D2A70648  11.044   8.598   6.548
 5577POPC   C3A70649  11.051   8.702   6.980
 5577POPC   C4A70650  10.972   9.071   7.201
 5577POPC   C1B70651  11.369   9.221   6.341
 5577POPC   C2B70652  11.464   8.944   6.668
 5577POPC   C3B70653  11.466   9.012   7.078
 5577POPC   C4B70654  11.785   8.882   7.359
 5578POPC   NC370655  23.712  37.448   5.251
 5578POPC   PO470656  23.926  36.838   5.289
 5578POPC   GL170657  23.821  36.687   5.763
 5578POPC   GL270658  24.045  36.843   6.024
 5578POPC   C1A70659  23.678  36.556   6.228
 5578POPC   D2A70660  23.453  36.742   6.602
 5578POPC   C3A70661  23.624  36.765   7.044
 5578POPC   C4A70662  23.505  36.657   7.481
 5578POPC   C1B70663  23.601  37.029   6.072
 5578POPC   C2B70664  23.433  37.222   6.437
 5578POPC   C3B70665  23.356  37.191   6.886
 5578POPC   C4B70666  23.555  37.200   7.323
 5579POPC   NC370667  11.074  12.062   5.337
 5579POPC   PO470668  11.660  12.126   5.198
 5579POPC   GL170669  11.445  11.955   5.680
 5579POPC   GL270670  11.111  11.767   5.804
 5579POPC   C1A70671  11.486  11.810   6.148
 5579POPC   D2A70672  11.476  11.842   6.628
 5579POPC   C3A70673  11.396  12.253   6.831
 5579POPC   C4A70674  11.297  12.233   7.251
 5579POPC   C1B70675  10.999  11.513   6.186
 5579POPC   C2B70676  10.821  11.672   6.562
 5579POPC   C3B70677  10.963  11.944   6.867
 5579POPC   C4B70678  11.156  11.738   7.180
 5580POPC   NC370679  32.835  10.855   5.364
 5580POPC   PO470680  33.277  10.409   5.547
 5580POPC   GL170681  33.063  10.402   5.910
 5580POPC   GL270682  32.798  10.656   5.860
 5580POPC   C1A70683  33.118  10.297   6.359
 5580POPC   D2A70684  33.011  10.565   6.735
 5580POPC   C3A70685  33.122  10.410   7.138
 5580POPC   C4A70686  33.417  10.253   7.401
 5580POPC   C1B70687  32.626  10.323   6.141
 5580POPC   C2B70688  32.661  10.200   6.577
 5580POPC   C3B70689  32.622  10.303   7.002
 5580POPC   C4B70690  32.707  10.680   7.216
 5581POPC   NC370691   9.712  26.545   5.233
 5581POPC   PO470692   9.441  27.023   5.547
 5581POPC   GL170693   9.765  26.808   5.769
 5581POPC   GL270694  10.003  26.537   5.814
 5581POPC   C1A70695   9.844  26.909   6.185
 5581POPC   D2A70696   9.696  26.831   6.602
 5581POPC   C3A70697   9.767  27.116   6.929
 5581POPC   C4A70698   9.930  27.080   7.339
 5581POPC   C1B70699   9.921  26.410   6.247
 5581POPC   C2B70700  10.112  26.517   6.597
 5581POPC   C3B70701  10.100  26.728   6.935
 5581POPC   C4B70702   9.959  26.580   7.304
 5582POPC   NC370703  16.496  37.579   5.339
 5582POPC   PO470704  16.922  38.038   5.281
 5582POPC   GL170705  16.895  37.869   5.715
 5582POPC   GL270706  16.777  37.511   5.775
 5582POPC   C1A70707  16.994  37.771   6.170
 5582POPC   D2A70708  16.772  37.559   6.517
 5582POPC   C3A70709  16.788  37.725   6.950
 5582POPC   C4A70710  16.749  37.682   7.412
 5582POPC   C1B70711  16.443  37.600   6.101
 5582POPC   C2B70712  16.267  37.630   6.542
 5582POPC   C3B70713  16.269  37.755   6.994
 5582POPC   C4B70714  16.227  37.421   7.303
 5583POPC   NC370715   5.451  28.988   5.343
 5583POPC   PO470716   4.886  28.920   5.308
 5583POPC   GL170717   5.054  29.086   5.717
 5583POPC   GL270718   4.725  29.205   5.823
 5583POPC   C1A70719   5.224  29.314   6.136
 5583POPC   D2A70720   5.123  29.315   6.638
 5583POPC   C3A70721   5.339  29.465   7.049
 5583POPC   C4A70722   5.753  29.352   7.252
 5583POPC   C1B70723   4.736  29.313   6.274
 5583POPC   C2B70724   4.583  29.340   6.709
 5583POPC   C3B70725   4.832  29.324   7.105
 5583POPC   C4B70726   5.092  28.935   7.218
 5584POPC   NC370727  21.542  13.430   5.429
 5584POPC   PO470728  21.103  13.815   5.488
 5584POPC   GL170729  21.090  13.632   5.874
 5584POPC   GL270730  21.302  13.352   5.930
 5584POPC   C1A70731  20.955  13.727   6.261
 5584POPC   D2A70732  21.188  13.762   6.646
 5584POPC   C3A70733  21.048  13.571   7.020
 5584POPC   C4A70734  21.069  13.733   7.425
 5584POPC   C1B70735  21.497  13.682   6.221
 5584POPC   C2B70736  21.703  13.798   6.643
 5584POPC   C3B70737  21.543  13.698   7.062
 5584POPC   C4B70738  21.401  13.330   7.337
 5585POPC   NC370739  14.761  27.866   5.424
 5585POPC   PO470740  15.358  27.692   5.371
 5585POPC   GL170741  15.187  27.409   5.717
 5585POPC   GL270742  14.829  27.336   5.705
 5585POPC   C1A70743  15.240  27.162   6.113
 5585POPC   D2A70744  15.118  27.354   6.505
 5585POPC   C3A70745  15.154  27.270   6.910
 5585POPC   C4A70746  15.292  27.524   7.277
 5585POPC   C1B70747  14.823  27.532   6.122
 5585POPC   C2B70748  14.770  27.731   6.558
 5585POPC   C3B70749  14.867  27.692   6.987
 5585POPC   C4B70750  14.812  27.603   7.409
 5586POPC   NC370751   2.565  32.535   5.228
 5586POPC   PO470752   2.473  31.901   5.216
 5586POPC   GL170753   2.680  32.275   5.632
 5586POPC   GL270754   2.670  32.047   5.953
 5586POPC   C1A70755   2.756  32.532   6.036
 5586POPC   D2A70756   2.666  32.307   6.439
 5586POPC   C3A70757   2.650  32.489   6.852
 5586POPC   C4A70758   2.939  32.500   7.182
 5586POPC   C1B70759   2.535  31.816   6.301
 5586POPC   C2B70760   2.472  31.916   6.733
 5586POPC   C3B70761   2.706  32.029   7.091
 5586POPC   C4B70762   2.619  31.845   7.483
 5587POPC   NC370763  37.116  38.897   5.351
 5587POPC   PO470764  36.963  38.253   5.474
 5587POPC   GL170765  37.000  38.512   5.803
 5587POPC   GL270766  36.632  38.654   5.749
 5587POPC   C1A70767  37.124  38.371   6.242
 5587POPC   D2A70768  37.314  38.215   6.605
 5587POPC   C3A70769  37.051  38.225   6.944
 5587POPC   C4A70770  37.016  38.138   7.362
 5587POPC   C1B70771  36.668  38.578   6.182
 5587POPC   C2B70772  36.888  38.723   6.559
 5587POPC   C3B70773  36.832  38.723   6.993
 5587POPC   C4B70774  37.131  38.632   7.279
 5588POPC   NC370775  14.880  35.546   5.491
 5588POPC   PO470776  14.201  35.449   5.401
 5588POPC   GL170777  14.459  35.328   5.704
 5588POPC   GL270778  14.495  35.652   5.827
 5588POPC   C1A70779  14.447  35.216   6.127
 5588POPC   D2A70780  14.734  35.373   6.455
 5588POPC   C3A70781  14.696  35.340   6.938
 5588POPC   C4A70782  14.435  35.100   7.240
 5588POPC   C1B70783  14.266  35.659   6.224
 5588POPC   C2B70784  14.259  35.384   6.608
 5588POPC   C3B70785  14.201  35.517   7.017
 5588POPC   C4B70786  14.438  35.580   7.414
 5589POPC   NC370787  43.074  38.313   5.328
 5589POPC   PO470788  43.655  38.738   5.485
 5589POPC   GL170789  43.313  38.757   5.782
 5589POPC   GL270790  43.200  38.400   5.838
 5589POPC   C1A70791  42.995  38.737   6.123
 5589POPC   D2A70792  43.033  38.510   6.516
 5589POPC   C3A70793  43.053  38.615   6.974
 5589POPC   C4A70794  42.976  38.207   7.264
 5589POPC   C1B70795  43.470  38.544   6.228
 5589POPC   C2B70796  43.524  38.595   6.693
 5589POPC   C3B70797  43.407  38.244   6.983
 5589POPC   C4B70798  43.538  37.946   7.301
 5590POPC   NC370799  34.007   9.419   5.298
 5590POPC   PO470800  33.698   9.953   5.419
 5590POPC   GL170801  33.774   9.701   5.797
 5590POPC   GL270802  34.110   9.658   5.757
 5590POPC   C1A70803  33.832   9.802   6.263
 5590POPC   D2A70804  33.895  10.038   6.683
 5590POPC   C3A70805  33.532   9.996   6.952
 5590POPC   C4A70806  33.478   9.738   7.295
 5590POPC   C1B70807  34.175   9.443   6.138
 5590POPC   C2B70808  34.015   9.390   6.555
 5590POPC   C3B70809  33.843   9.494   6.981
 5590POPC   C4B70810  33.975   9.603   7.409
 5591POPC   NC370811  42.841  33.579   5.514
 5591POPC   PO470812  43.448  33.473   5.381
 5591POPC   GL170813  43.242  33.517   5.833
 5591POPC   GL270814  43.128  33.863   5.879
 5591POPC   C1A70815  43.194  33.655   6.310
 5591POPC   D2A70816  43.232  33.834   6.713
 5591POPC   C3A70817  43.199  33.708   7.147
 5591POPC   C4A70818  43.255  33.400   7.463
 5591POPC   C1B70819  42.867  34.131   6.195
 5591POPC   C2B70820  42.885  34.220   6.679
 5591POPC   C3B70821  42.868  34.212   7.154
 5591POPC   C4B70822  42.771  34.251   7.625
 5592POPC   NC370823   7.076   9.020   5.102
 5592POPC   PO470824   7.537   8.716   5.446
 5592POPC   GL170825   7.644   8.832   5.831
 5592POPC   GL270826   7.382   9.093   5.818
 5592POPC   C1A70827   7.488   8.802   6.265
 5592POPC   D2A70828   7.073   8.762   6.454
 5592POPC   C3A70829   7.117   8.722   6.924
 5592POPC   C4A70830   7.101   8.968   7.329
 5592POPC   C1B70831   7.236   9.266   6.219
 5592POPC   C2B70832   7.283   9.171   6.669
 5592POPC   C3B70833   7.490   9.227   7.057
 5592POPC   C4B70834   7.315   9.534   7.328
 5593POPC   NC370835  17.503  34.193   5.327
 5593POPC   PO470836  17.290  33.598   5.385
 5593POPC   GL170837  17.421  33.774   5.769
 5593POPC   GL270838  17.727  33.968   5.744
 5593POPC   C1A70839  17.654  33.623   6.145
 5593POPC   D2A70840  17.559  33.596   6.578
 5593POPC   C3A70841  17.462  33.838   6.946
 5593POPC   C4A70842  17.457  33.546   7.271
 5593POPC   C1B70843  17.838  34.100   6.184
 5593POPC   C2B70844  17.991  33.887   6.583
 5593POPC   C3B70845  17.940  33.742   7.020
 5593POPC   C4B70846  17.922  33.585   7.465
 5594POPC   NC370847  38.754   0.931   5.492
 5594POPC   PO470848  38.432   1.524   5.528
 5594POPC   GL170849  38.447   1.190   5.826
 5594POPC   GL270850  38.759   1.163   6.000
 5594POPC   C1A70851  38.339   1.031   6.238
 5594POPC   D2A70852  38.285   1.241   6.626
 5594POPC   C3A70853  38.367   1.002   6.934
 5594POPC   C4A70854  38.249   1.066   7.319
 5594POPC   C1B70855  38.665   1.488   6.372
 5594POPC   C2B70856  38.747   1.655   6.801
 5594POPC   C3B70857  38.721   1.321   7.096
 5594POPC   C4B70858  38.885   0.893   7.123
 5595POPC   NC370859  24.612  19.190   5.306
 5595POPC   PO470860  24.877  18.666   5.477
 5595POPC   GL170861  24.639  18.978   5.770
 5595POPC   GL270862  24.769  19.327   5.786
 5595POPC   C1A70863  24.424  19.141   6.144
 5595POPC   D2A70864  24.339  19.219   6.600
 5595POPC   C3A70865  24.508  18.924   6.873
 5595POPC   C4A70866  24.875  18.904   7.097
 5595POPC   C1B70867  24.914  19.327   6.238
 5595POPC   C2B70868  24.965  19.329   6.700
 5595POPC   C3B70869  24.659  19.399   7.010
 5595POPC   C4B70870  24.230  19.419   7.099
 5596POPC   NC370871  38.114  20.065   5.345
 5596POPC   PO470872  38.824  20.204   5.430
 5596POPC   GL170873  38.736  20.089   5.830
 5596POPC   GL270874  38.429  19.890   5.756
 5596POPC   C1A70875  38.612  19.955   6.243
 5596POPC   D2A70876  38.197  19.986   6.474
 5596POPC   C3A70877  38.233  20.059   6.934
 5596POPC   C4A70878  38.568  19.960   7.254
 5596POPC   C1B70879  38.294  19.587   6.089
 5596POPC   C2B70880  38.250  19.445   6.493
 5596POPC   C3B70881  38.335  19.565   6.875
 5596POPC   C4B70882  38.373  19.490   7.271
 5597POPC   NC370883   6.142  13.042   4.999
 5597POPC   PO470884   6.603  12.871   5.425
 5597POPC   GL170885   6.799  13.067   5.787
 5597POPC   GL270886   6.511  13.155   5.954
 5597POPC   C1A70887   6.910  12.927   6.208
 5597POPC   D2A70888   6.757  12.661   6.550
 5597POPC   C3A70889   6.843  12.860   6.942
 5597POPC   C4A70890   6.797  12.803   7.378
 5597POPC   C1B70891   6.429  12.737   6.153
 5597POPC   C2B70892   6.240  12.593   6.549
 5597POPC   C3B70893   6.316  12.786   6.939
 5597POPC   C4B70894   6.458  13.158   7.140
 5598POPC   NC370895  35.580   0.503   5.342
 5598POPC   PO470896  34.948   0.263   5.302
 5598POPC   GL170897  35.138   0.272   5.764
 5598POPC   GL270898  35.342   0.565   5.797
 5598POPC   C1A70899  35.202   0.286   6.252
 5598POPC   D2A70900  35.272   0.327   6.725
 5598POPC   C3A70901  35.236   0.414   7.159
 5598POPC   C4A70902  34.956   0.365   7.518
 5598POPC   C1B70903  35.441   0.737   6.170
 5598POPC   C2B70904  35.665   0.557   6.507
 5598POPC   C3B70905  35.607   0.689   6.928
 5598POPC   C4B70906  35.665   0.867   7.315
 5599POPC   NC370907   1.377  40.119   5.545
 5599POPC   PO470908   1.443  39.402   5.539
 5599POPC   GL170909   1.242  39.699   5.832
 5599POPC   GL270910   0.871  39.783   5.845
 5599POPC   C1A70911   1.226  39.864   6.243
 5599POPC   D2A70912   1.154  39.650   6.619
 5599POPC   C3A70913   1.197  39.878   6.962
 5599POPC   C4A70914   1.359  39.820   7.305
 5599POPC   C1B70915   0.749  40.050   6.227
 5599POPC   C2B70916   0.901  40.119   6.615
 5599POPC   C3B70917   0.734  40.048   7.048
 5599POPC   C4B70918   0.904  39.966   7.476
 5600POPC   NC370919  30.071  44.602   5.341
 5600POPC   PO470920  29.487  44.524   5.662
 5600POPC   GL170921  29.913  44.524   5.831
 5600POPC   GL270922  30.053  44.866   5.836
 5600POPC   C1A70923  30.172  44.452   6.212
 5600POPC   D2A70924  30.278  44.628   6.629
 5600POPC   C3A70925  29.924  44.666   6.953
 5600POPC   C4A70926  29.886  44.550   7.433
 5600POPC   C1B70927  29.827  44.847   6.244
 5600POPC   C2B70928  29.613  44.971   6.637
 5600POPC   C3B70929  29.740   0.194   6.959
 5600POPC   C4B70930  29.930   0.056   7.304
 5601POPC   NC370931  34.141  16.615   5.365
 5601POPC   PO470932  33.755  17.147   5.388
 5601POPC   GL170933  33.699  17.042   5.830
 5601POPC   GL270934  33.855  16.713   5.804
 5601POPC   C1A70935  33.731  17.066   6.295
 5601POPC   D2A70936  33.772  16.718   6.618
 5601POPC   C3A70937  33.589  16.725   7.015
 5601POPC   C4A70938  33.747  16.972   7.321
 5601POPC   C1B70939  34.071  16.688   6.208
 5601POPC   C2B70940  34.298  16.778   6.620
 5601POPC   C3B70941  34.137  16.730   7.037
 5601POPC   C4B70942  33.941  16.483   7.378
 5602POPC   NC370943  30.057  10.139   5.350
 5602POPC   PO470944  29.945  10.804   5.395
 5602POPC   GL170945  30.122  10.525   5.723
 5602POPC   GL270946  30.349  10.679   5.990
 5602POPC   C1A70947  29.969  10.354   6.118
 5602POPC   D2A70948  30.061  10.491   6.553
 5602POPC   C3A70949  29.683  10.440   6.832
 5602POPC   C4A70950  29.536  10.363   7.237
 5602POPC   C1B70951  29.920  10.865   6.174
 5602POPC   C2B70952  29.745  10.909   6.615
 5602POPC   C3B70953  30.005  10.802   6.983
 5602POPC   C4B70954  30.194  10.427   7.181
 5603POPC   NC370955  35.365  40.230   5.597
 5603POPC   PO470956  35.886  39.759   5.496
 5603POPC   GL170957  35.641  39.841   5.840
 5603POPC   GL270958  35.323  39.668   5.877
 5603POPC   C1A70959  35.619  40.039   6.233
 5603POPC   D2A70960  35.471  39.869   6.626
 5603POPC   C3A70961  35.499  40.044   7.012
 5603POPC   C4A70962  35.192  40.228   7.250
 5603POPC   C1B70963  35.119  39.845   6.243
 5603POPC   C2B70964  34.999  39.655   6.647
 5603POPC   C3B70965  35.052  39.784   7.089
 5603POPC   C4B70966  34.857  39.736   7.516
 5604POPC   NC370967  41.794  31.676   5.524
 5604POPC   PO470968  41.298  31.321   5.332
 5604POPC   GL170969  41.286  31.350   5.795
 5604POPC   GL270970  41.437  31.669   5.903
 5604POPC   C1A70971  41.201  31.245   6.221
 5604POPC   D2A70972  41.319  31.417   6.618
 5604POPC   C3A70973  41.686  31.247   6.812
 5604POPC   C4A70974  42.015  31.117   7.069
 5604POPC   C1B70975  41.555  31.806   6.317
 5604POPC   C2B70976  41.664  31.774   6.756
 5604POPC   C3B70977  41.531  31.596   7.153
 5604POPC   C4B70978  41.343  31.744   7.561
 5605POPC   NC370979  39.679  30.299   5.368
 5605POPC   PO470980  40.329  29.894   5.421
 5605POPC   GL170981  40.005  30.032   5.684
 5605POPC   GL270982  39.837  29.722   5.775
 5605POPC   C1A70983  39.952  30.085   6.122
 5605POPC   D2A70984  40.233  30.020   6.469
 5605POPC   C3A70985  40.092  30.075   6.896
 5605POPC   C4A70986  40.191  29.991   7.317
 5605POPC   C1B70987  40.125  29.600   6.146
 5605POPC   C2B70988  39.996  29.563   6.595
 5605POPC   C3B70989  40.119  29.555   7.035
 5605POPC   C4B70990  39.877  29.595   7.435
 5606POPC   NC370991  42.166   4.844   5.206
 5606POPC   PO470992  42.661   4.392   5.428
 5606POPC   GL170993  42.394   4.279   5.750
 5606POPC   GL270994  42.456   4.580   5.891
 5606POPC   C1A70995  42.152   4.116   6.106
 5606POPC   D2A70996  42.304   4.090   6.517
 5606POPC   C3A70997  42.127   4.157   6.904
 5606POPC   C4A70998  42.357   3.925   7.198
 5606POPC   C1B70999  42.357   4.576   6.299
 5606POPC   C2B71000  42.655   4.482   6.603
 5606POPC   C3B71001  42.569   4.410   7.012
 5606POPC   C4B71002  42.603   4.617   7.403
 5607POPC   NC371003   7.878  19.789   5.481
 5607POPC   PO471004   7.239  20.011   5.396
 5607POPC   GL171005   7.358  19.737   5.730
 5607POPC   GL271006   7.154  19.408   5.789
 5607POPC   C1A71007   7.571  19.817   6.116
 5607POPC   D2A71008   7.436  19.925   6.515
 5607POPC   C3A71009   7.623  19.804   6.884
 5607POPC   C4A71010   7.513  19.849   7.272
 5607POPC   C1B71011   7.314  19.361   6.205
 5607POPC   C2B71012   7.444  19.416   6.624
 5607POPC   C3B71013   7.315  19.416   7.080
 5607POPC   C4B71014   7.247  19.513   7.547
 5608POPC   NC371015   9.693  36.606   5.506
 5608POPC   PO471016   9.357  37.212   5.549
 5608POPC   GL171017   9.693  37.134   5.880
 5608POPC   GL271018   9.802  36.783   5.970
 5608POPC   C1A71019   9.914  37.169   6.279
 5608POPC   D2A71020   9.917  36.773   6.518
 5608POPC   C3A71021  10.007  36.861   6.934
 5608POPC   C4A71022   9.807  37.042   7.311
 5608POPC   C1B71023   9.539  36.510   6.262
 5608POPC   C2B71024   9.502  36.372   6.707
 5608POPC   C3B71025   9.574  36.568   7.121
 5608POPC   C4B71026   9.324  36.599   7.453
 5609POPC   NC371027   1.651  10.724   5.321
 5609POPC   PO471028   2.157  10.360   5.301
 5609POPC   GL171029   2.088  10.540   5.738
 5609POPC   GL271030   1.872  10.866   5.792
 5609POPC   C1A71031   2.024  10.460   6.200
 5609POPC   D2A71032   2.116  10.660   6.601
 5609POPC   C3A71033   2.081  10.533   7.027
 5609POPC   C4A71034   2.281  10.465   7.408
 5609POPC   C1B71035   1.831  10.943   6.264
 5609POPC   C2B71036   1.577  10.864   6.664
 5609POPC   C3B71037   1.691  10.862   7.112
 5609POPC   C4B71038   1.773  10.627   7.531
 5610POPC   NC371039   6.037   4.145   5.500
 5610POPC   PO471040   5.565   4.645   5.548
 5610POPC   GL171041   5.712   4.353   5.842
 5610POPC   GL271042   5.484   4.057   5.849
 5610POPC   C1A71043   6.019   4.356   6.179
 5610POPC   D2A71044   5.947   4.530   6.565
 5610POPC   C3A71045   6.050   4.412   7.006
 5610POPC   C4A71046   5.909   4.489   7.447
 5610POPC   C1B71047   5.582   4.098   6.264
 5610POPC   C2B71048   5.791   4.018   6.612
 5610POPC   C3B71049   5.659   4.090   6.989
 5610POPC   C4B71050   5.822   3.998   7.371
 5611POPC   NC371051  30.313   3.741   5.765
 5611POPC   PO471052  30.902   3.772   5.525
 5611POPC   GL171053  30.792   3.436   5.808
 5611POPC   GL271054  30.562   3.151   5.704
 5611POPC   C1A71055  30.817   3.432   6.270
 5611POPC   D2A71056  31.112   3.584   6.619
 5611POPC   C3A71057  30.953   3.552   7.063
 5611POPC   C4A71058  30.538   3.556   7.287
 5611POPC   C1B71059  30.345   3.091   6.104
 5611POPC   C2B71060  30.363   3.273   6.512
 5611POPC   C3B71061  30.594   3.229   6.884
 5611POPC   C4B71062  30.783   3.083   7.242
 5612POPC   NC371063  39.806  34.929   5.545
 5612POPC   PO471064  39.834  35.560   5.371
 5612POPC   GL171065  40.135  35.606   5.739
 5612POPC   GL271066  40.016  35.298   5.819
 5612POPC   C1A71067  40.265  35.500   6.205
 5612POPC   D2A71068  40.058  35.341   6.574
 5612POPC   C3A71069  40.184  35.368   7.020
 5612POPC   C4A71070  40.003  35.440   7.419
 5612POPC   C1B71071  39.738  35.212   6.153
 5612POPC   C2B71072  39.763  34.923   6.502
 5612POPC   C3B71073  39.611  34.946   6.897
 5612POPC   C4B71074  39.742  35.006   7.298
 5613POPC   NC371075  34.866  36.135   5.509
 5613POPC   PO471076  34.209  35.928   5.635
 5613POPC   GL171077  34.522  36.013   5.912
 5613POPC   GL271078  34.673  36.332   5.948
 5613POPC   C1A71079  34.444  36.082   6.349
 5613POPC   D2A71080  34.314  36.414   6.620
 5613POPC   C3A71081  34.374  36.233   7.008
 5613POPC   C4A71082  34.567  35.827   7.016
 5613POPC   C1B71083  34.942  36.197   6.293
 5613POPC   C2B71084  34.817  36.251   6.738
 5613POPC   C3B71085  34.908  36.164   7.171
 5613POPC   C4B71086  35.007  36.115   7.636
 5614POPC   NC371087  44.140  42.290   5.095
 5614POPC   PO471088  43.688  42.620   5.488
 5614POPC   GL171089  44.051  42.521   5.734
 5614POPC   GL271090  44.080  42.154   5.829
 5614POPC   C1A71091  44.114  42.515   6.186
 5614POPC   D2A71092  43.967  42.186   6.482
 5614POPC   C3A71093  44.018  42.228   6.922
 5614POPC   C4A71094  43.877  42.424   7.310
 5614POPC   C1B71095  43.829  41.863   6.081
 5614POPC   C2B71096  43.732  41.714   6.466
 5614POPC   C3B71097  43.605  41.863   6.822
 5614POPC   C4B71098  43.711  41.935   7.233
 5615POPC   NC371099  14.326  33.288   5.512
 5615POPC   PO471100  14.697  32.740   5.675
 5615POPC   GL171101  14.610  33.076   5.877
 5615POPC   GL271102  14.283  32.939   5.943
 5615POPC   C1A71103  14.718  33.186   6.259
 5615POPC   D2A71104  14.605  32.959   6.595
 5615POPC   C3A71105  14.610  33.152   6.968
 5615POPC   C4A71106  14.637  32.900   7.279
 5615POPC   C1B71107  14.205  33.254   6.252
 5615POPC   C2B71108  14.146  33.189   6.694
 5615POPC   C3B71109  14.209  32.830   6.975
 5615POPC   C4B71110  14.081  32.777   7.407
 5616POPC   NC371111  17.660  39.709   5.377
 5616POPC   PO471112  17.596  40.353   5.619
 5616POPC   GL171113  17.419  39.997   5.820
 5616POPC   GL271114  17.050  40.087   5.853
 5616POPC   C1A71115  17.443  39.949   6.263
 5616POPC   D2A71116  17.736  39.874   6.605
 5616POPC   C3A71117  17.520  39.785   6.969
 5616POPC   C4A71118  17.682  39.870   7.347
 5616POPC   C1B71119  17.201  40.388   6.201
 5616POPC   C2B71120  17.316  40.267   6.657
 5616POPC   C3B71121  17.473  40.309   7.089
 5616POPC   C4B71122  17.670  40.361   7.489
 5617POPC   NC371123  43.061  30.864   5.554
 5617POPC   PO471124  42.696  30.370   5.667
 5617POPC   GL171125  43.143  30.477   5.860
 5617POPC   GL271126  43.177  30.854   6.040
 5617POPC   C1A71127  43.411  30.475   6.250
 5617POPC   D2A71128  43.241  30.696   6.616
 5617POPC   C3A71129  43.468  30.749   6.978
 5617POPC   C4A71130  43.350  30.775   7.382
 5617POPC   C1B71131  42.874  30.556   6.292
 5617POPC   C2B71132  42.815  30.398   6.709
 5617POPC   C3B71133  42.915  30.668   7.042
 5617POPC   C4B71134  42.830  30.727   7.432
 5618POPC   NC371135  25.557  20.612   5.428
 5618POPC   PO471136  24.939  20.168   5.545
 5618POPC   GL171137  25.151  20.402   5.857
 5618POPC   GL271138  25.215  20.698   5.783
 5618POPC   C1A71139  25.249  20.520   6.294
 5618POPC   D2A71140  25.152  20.333   6.672
 5618POPC   C3A71141  25.176  20.614   7.015
 5618POPC   C4A71142  25.484  20.623   7.334
 5618POPC   C1B71143  25.001  20.907   6.091
 5618POPC   C2B71144  25.157  21.003   6.501
 5618POPC   C3B71145  25.013  21.126   6.899
 5618POPC   C4B71146  24.922  20.999   7.303
 5619POPC   NC371147   5.226  10.130   5.336
 5619POPC   PO471148   4.998   9.490   5.430
 5619POPC   GL171149   5.131   9.774   5.736
 5619POPC   GL271150   5.402   9.555   5.856
 5619POPC   C1A71151   5.189   9.913   6.162
 5619POPC   D2A71152   4.961   9.950   6.554
 5619POPC   C3A71153   5.178   9.978   6.951
 5619POPC   C4A71154   5.069  10.103   7.378
 5619POPC   C1B71155   5.306   9.419   6.286
 5619POPC   C2B71156   5.170   9.504   6.717
 5619POPC   C3B71157   5.187   9.506   7.161
 5619POPC   C4B71158   5.049   9.647   7.586
 5620POPC   NC371159  10.103  11.720   5.607
 5620POPC   PO471160  10.548  12.082   5.206
 5620POPC   GL171161  10.643  11.919   5.650
 5620POPC   GL271162  10.378  12.000   5.899
 5620POPC   C1A71163  10.801  11.986   6.130
 5620POPC   D2A71164  10.625  12.174   6.508
 5620POPC   C3A71165  10.434  11.946   6.832
 5620POPC   C4A71166  10.467  12.015   7.265
 5620POPC   C1B71167  10.268  12.338   6.164
 5620POPC   C2B71168  10.296  12.574   6.539
 5620POPC   C3B71169  10.372  12.460   6.929
 5620POPC   C4B71170  10.251  12.465   7.344
 5621POPC   NC371171  32.730  27.084   5.421
 5621POPC   PO471172  32.288  26.538   5.326
 5621POPC   GL171173  32.262  26.564   5.779
 5621POPC   GL271174  32.354  26.913   5.832
 5621POPC   C1A71175  32.109  26.657   6.229
 5621POPC   D2A71176  32.312  26.653   6.641
 5621POPC   C3A71177  32.023  26.599   6.979
 5621POPC   C4A71178  32.059  26.727   7.354
 5621POPC   C1B71179  32.395  27.089   6.246
 5621POPC   C2B71180  32.225  27.188   6.614
 5621POPC   C3B71181  32.267  27.070   7.024
 5621POPC   C4B71182  32.071  27.300   7.346
 5622POPC   NC371183  38.528  35.259   5.427
 5622POPC   PO471184  38.669  35.856   5.445
 5622POPC   GL171185  38.557  35.516   5.846
 5622POPC   GL271186  38.215  35.286   5.839
 5622POPC   C1A71187  38.689  35.222   6.125
 5622POPC   D2A71188  38.611  35.153   6.551
 5622POPC   C3A71189  38.680  35.516   6.789
 5622POPC   C4A71190  38.695  35.321   7.136
 5622POPC   C1B71191  38.053  35.484   6.197
 5622POPC   C2B71192  38.234  35.567   6.558
 5622POPC   C3B71193  38.162  35.459   6.962
 5622POPC   C4B71194  37.943  35.737   7.217
 5623POPC   NC371195  41.442  34.181   5.467
 5623POPC   PO471196  41.511  33.494   5.526
 5623POPC   GL171197  41.512  33.790   5.813
 5623POPC   GL271198  41.862  33.936   5.715
 5623POPC   C1A71199  41.352  33.746   6.244
 5623POPC   D2A71200  41.193  33.688   6.664
 5623POPC   C3A71201  41.521  33.629   6.965
 5623POPC   C4A71202  41.306  33.701   7.351
 5623POPC   C1B71203  41.826  33.933   6.170
 5623POPC   C2B71204  41.910  33.805   6.582
 5623POPC   C3B71205  41.866  34.057   6.932
 5623POPC   C4B71206  41.762  33.961   7.325
 5624POPC   NC371207  43.948  13.373   5.417
 5624POPC   PO471208  43.696  13.984   5.586
 5624POPC   GL171209  43.962  13.698   5.848
 5624POPC   GL271210  43.797  13.384   5.887
 5624POPC   C1A71211  44.026  13.548   6.294
 5624POPC   D2A71212  44.113  13.219   6.605
 5624POPC   C3A71213  44.023  13.368   6.999
 5624POPC   C4A71214  44.225  13.501   7.383
 5624POPC   C1B71215  43.538  13.375   6.252
 5624POPC   C2B71216  43.636  13.457   6.641
 5624POPC   C3B71217  43.488  13.460   7.044
 5624POPC   C4B71218  43.719  13.442   7.390
 5625POPC   NC371219  32.084  20.284   5.459
 5625POPC   PO471220  32.333  19.749   5.405
 5625POPC   GL171221  32.176  19.872   5.809
 5625POPC   GL271222  32.208  20.225   5.954
 5625POPC   C1A71223  32.018  19.783   6.230
 5625POPC   D2A71224  32.124  20.013   6.626
 5625POPC   C3A71225  32.019  19.831   7.035
 5625POPC   C4A71226  32.229  19.817   7.446
 5625POPC   C1B71227  32.491  19.980   6.203
 5625POPC   C2B71228  32.677  19.969   6.583
 5625POPC   C3B71229  32.549  20.097   6.948
 5625POPC   C4B71230  32.704  20.051   7.375
 5626POPC   NC371231  23.215  30.952   5.458
 5626POPC   PO471232  22.616  30.778   5.516
 5626POPC   GL171233  22.919  30.695   5.828
 5626POPC   GL271234  23.034  31.022   5.919
 5626POPC   C1A71235  22.836  30.637   6.267
 5626POPC   D2A71236  23.007  30.465   6.632
 5626POPC   C3A71237  22.674  30.576   6.931
 5626POPC   C4A71238  22.656  30.503   7.361
 5626POPC   C1B71239  23.259  30.904   6.264
 5626POPC   C2B71240  23.104  30.964   6.659
 5626POPC   C3B71241  23.132  30.718   7.058
 5626POPC   C4B71242  23.426  30.682   7.331
 5627POPC   NC371243  31.765  22.307   5.652
 5627POPC   PO471244  31.409  22.082   5.192
 5627POPC   GL171245  31.279  22.098   5.675
 5627POPC   GL271246  31.313  22.444   5.863
 5627POPC   C1A71247  31.386  21.988   6.128
 5627POPC   D2A71248  31.702  21.962   6.468
 5627POPC   C3A71249  31.638  21.997   6.918
 5627POPC   C4A71250  31.293  22.031   7.185
 5627POPC   C1B71251  31.618  22.445   6.254
 5627POPC   C2B71252  31.816  22.445   6.686
 5627POPC   C3B71253  31.610  22.481   7.118
 5627POPC   C4B71254  31.172  22.503   7.247
 5628POPC   NC371255   7.749  39.579   5.594
 5628POPC   PO471256   7.177  39.965   5.658
 5628POPC   GL171257   7.564  39.956   5.886
 5628POPC   GL271258   7.636  40.274   5.897
 5628POPC   C1A71259   7.557  39.867   6.313
 5628POPC   D2A71260   7.202  39.894   6.576
 5628POPC   C3A71261   7.369  39.925   6.983
 5628POPC   C4A71262   7.164  39.657   7.259
 5628POPC   C1B71263   7.869  40.281   6.240
 5628POPC   C2B71264   7.948  40.058   6.608
 5628POPC   C3B71265   7.873  40.296   6.966
 5628POPC   C4B71266   7.660  40.230   7.340
 5629POPC   NC371267  34.568  22.528   5.498
 5629POPC   PO471268  34.422  23.082   5.181
 5629POPC   GL171269  34.521  23.048   5.653
 5629POPC   GL271270  34.831  22.859   5.783
 5629POPC   C1A71271  34.496  23.105   6.127
 5629POPC   D2A71272  34.350  23.321   6.519
 5629POPC   C3A71273  34.498  23.160   6.908
 5629POPC   C4A71274  34.655  23.322   7.278
 5629POPC   C1B71275  34.748  22.635   6.177
 5629POPC   C2B71276  34.766  22.810   6.597
 5629POPC   C3B71277  34.703  22.619   6.991
 5629POPC   C4B71278  34.465  22.758   7.246
 5630POPC   NC371279  11.753   3.592   5.365
 5630POPC   PO471280  11.098   3.429   5.385
 5630POPC   GL171281  11.322   3.444   5.786
 5630POPC   GL271282  11.690   3.413   5.831
 5630POPC   C1A71283  11.286   3.632   6.212
 5630POPC   D2A71284  11.417   3.780   6.635
 5630POPC   C3A71285  11.145   3.653   6.989
 5630POPC   C4A71286  10.745   3.824   7.100
 5630POPC   C1B71287  11.684   3.223   6.228
 5630POPC   C2B71288  11.768   3.393   6.621
 5630POPC   C3B71289  11.630   3.460   7.031
 5630POPC   C4B71290  11.536   3.217   7.409
 5631POPC   NC371291  18.846  37.355   5.440
 5631POPC   PO471292  18.637  37.978   5.385
 5631POPC   GL171293  18.410  37.984   5.798
 5631POPC   GL271294  18.304  37.607   5.893
 5631POPC   C1A71295  18.394  37.958   6.258
 5631POPC   D2A71296  18.314  37.556   6.457
 5631POPC   C3A71297  18.298  37.573   6.892
 5631POPC   C4A71298  18.348  37.887   7.208
 5631POPC   C1B71299  17.972  37.339   6.149
 5631POPC   C2B71300  17.908  37.177   6.570
 5631POPC   C3B71301  18.047  37.137   7.011
 5631POPC   C4B71302  18.092  37.438   7.359
 5632POPC   NC371303  31.756  10.026   5.368
 5632POPC   PO471304  31.237   9.572   5.408
 5632POPC   GL171305  31.483   9.738   5.725
 5632POPC   GL271306  31.207   9.646   5.936
 5632POPC   C1A71307  31.723   9.929   6.074
 5632POPC   D2A71308  31.673  10.098   6.519
 5632POPC   C3A71309  31.512   9.785   6.833
 5632POPC   C4A71310  31.592   9.812   7.283
 5632POPC   C1B71311  31.340   9.630   6.338
 5632POPC   C2B71312  31.096   9.515   6.706
 5632POPC   C3B71313  31.166   9.557   7.158
 5632POPC   C4B71314  31.229   9.580   7.627
 5633POPC   NC371315  16.831  39.153   5.441
 5633POPC   PO471316  17.308  38.729   5.715
 5633POPC   GL171317  17.038  39.050   5.896
 5633POPC   GL271318  16.689  39.044   5.939
 5633POPC   C1A71319  16.997  39.283   6.293
 5633POPC   D2A71320  16.769  39.383   6.672
 5633POPC   C3A71321  16.956  39.374   7.083
 5633POPC   C4A71322  17.062  39.014   7.322
 5633POPC   C1B71323  16.441  39.243   6.259
 5633POPC   C2B71324  16.266  39.448   6.610
 5633POPC   C3B71325  16.393  39.450   7.045
 5633POPC   C4B71326  16.531  39.145   7.321
 5634POPC   NC371327  12.577   2.028   5.308
 5634POPC   PO471328  11.906   1.724   5.509
 5634POPC   GL171329  11.962   1.927   5.924
 5634POPC   GL271330  12.284   2.080   5.969
 5634POPC   C1A71331  12.002   1.973   6.388
 5634POPC   D2A71332  11.833   2.361   6.594
 5634POPC   C3A71333  11.888   2.343   7.029
 5634POPC   C4A71334  11.987   1.978   7.216
 5634POPC   C1B71335  12.303   2.372   6.348
 5634POPC   C2B71336  12.315   2.173   6.769
 5634POPC   C3B71337  12.446   2.210   7.204
 5634POPC   C4B71338  12.555   2.357   7.621
 5635POPC   NC371339   7.929  31.339   5.405
 5635POPC   PO471340   8.584  31.356   5.590
 5635POPC   GL171341   8.205  31.566   5.769
 5635POPC   GL271342   8.433  31.539   6.029
 5635POPC   C1A71343   7.946  31.588   6.151
 5635POPC   D2A71344   8.223  31.580   6.523
 5635POPC   C3A71345   7.992  31.564   6.908
 5635POPC   C4A71346   7.777  31.346   7.204
 5635POPC   C1B71347   8.660  31.236   6.263
 5635POPC   C2B71348   8.729  31.309   6.650
 5635POPC   C3B71349   8.405  31.276   6.921
 5635POPC   C4B71350   8.331  31.424   7.336
 5636POPC   NC371351  27.923  18.607   5.457
 5636POPC   PO471352  27.428  18.196   5.450
 5636POPC   GL171353  27.727  18.263   5.799
 5636POPC   GL271354  27.957  17.964   5.870
 5636POPC   C1A71355  27.673  18.518   6.206
 5636POPC   D2A71356  27.871  18.503   6.629
 5636POPC   C3A71357  27.606  18.553   7.002
 5636POPC   C4A71358  27.777  18.382   7.390
 5636POPC   C1B71359  27.680  18.008   6.235
 5636POPC   C2B71360  27.456  18.217   6.582
 5636POPC   C3B71361  27.545  18.063   7.000
 5636POPC   C4B71362  27.323  18.113   7.407
 5637POPC   NC371363  30.901   7.766   5.366
 5637POPC   PO471364  30.420   7.289   5.269
 5637POPC   GL171365  30.729   7.231   5.637
 5637POPC   GL271366  30.740   7.538   5.803
 5637POPC   C1A71367  30.774   7.160   6.142
 5637POPC   D2A71368  30.484   7.238   6.520
 5637POPC   C3A71369  30.664   7.383   6.906
 5637POPC   C4A71370  30.973   7.139   7.126
 5637POPC   C1B71371  30.778   7.711   6.239
 5637POPC   C2B71372  30.963   7.887   6.625
 5637POPC   C3B71373  30.958   7.779   7.054
 5637POPC   C4B71374  30.791   7.621   7.417
 5638POPC   NC371375  44.341  39.047   5.487
 5638POPC   PO471376  44.783  39.492   5.730
 5638POPC   GL171377  44.890  39.252   6.019
 5638POPC   GL271378  44.517  39.162   6.018
 5638POPC   C1A71379   0.092  39.416   6.399
 5638POPC   D2A71380   0.099  39.217   6.792
 5638POPC   C3A71381  44.840  39.338   7.116
 5638POPC   C4A71382  44.914  39.088   7.465
 5638POPC   C1B71383  44.639  39.159   6.464
 5638POPC   C2B71384  44.427  39.162   6.859
 5638POPC   C3B71385  44.447  39.040   7.291
 5638POPC   C4B71386  44.496  38.969   7.729
 5639POPC   NC371387   6.719  24.326   5.391
 5639POPC   PO471388   6.240  24.802   5.239
 5639POPC   GL171389   6.348  24.592   5.678
 5639POPC   GL271390   6.694  24.633   5.785
 5639POPC   C1A71391   6.352  24.458   6.150
 5639POPC   D2A71392   6.572  24.510   6.581
 5639POPC   C3A71393   6.529  24.306   7.004
 5639POPC   C4A71394   6.449  24.583   7.393
 5639POPC   C1B71395   6.886  24.541   6.162
 5639POPC   C2B71396   7.109  24.472   6.546
 5639POPC   C3B71397   7.050  24.406   6.949
 5639POPC   C4B71398   6.936  24.182   7.275
 5640POPC   NC371399   0.107  34.636   5.372
 5640POPC   PO471400  44.503  34.312   5.312
 5640POPC   GL171401  44.527  34.466   5.754
 5640POPC   GL271402  44.821  34.689   5.837
 5640POPC   C1A71403  44.420  34.576   6.184
 5640POPC   D2A71404  44.539  34.413   6.591
 5640POPC   C3A71405  44.651  34.562   7.009
 5640POPC   C4A71406  44.349  34.443   7.286
 5640POPC   C1B71407  44.931  34.457   6.227
 5640POPC   C2B71408   0.042  34.512   6.680
 5640POPC   C3B71409   0.136  34.748   7.066
 5640POPC   C4B71410  44.915  35.070   7.314
 5641POPC   NC371411  27.045  13.214   5.464
 5641POPC   PO471412  26.537  12.783   5.364
 5641POPC   GL171413  26.773  12.905   5.777
 5641POPC   GL271414  27.080  13.044   5.952
 5641POPC   C1A71415  26.741  12.754   6.220
 5641POPC   D2A71416  26.676  12.746   6.670
 5641POPC   C3A71417  26.972  12.796   6.988
 5641POPC   C4A71418  26.691  12.605   7.215
 5641POPC   C1B71419  26.935  13.269   6.245
 5641POPC   C2B71420  26.941  13.165   6.619
 5641POPC   C3B71421  26.868  13.304   7.008
 5641POPC   C4B71422  26.814  13.171   7.434
 5642POPC   NC371423  16.254  21.666   5.452
 5642POPC   PO471424  15.730  21.166   5.469
 5642POPC   GL171425  15.905  21.416   5.815
 5642POPC   GL271426  15.696  21.708   5.874
 5642POPC   C1A71427  15.784  21.412   6.267
 5642POPC   D2A71428  15.730  21.185   6.589
 5642POPC   C3A71429  15.849  21.301   6.965
 5642POPC   C4A71430  15.732  21.488   7.315
 5642POPC   C1B71431  15.919  21.885   6.271
 5642POPC   C2B71432  15.910  21.767   6.723
 5642POPC   C3B71433  16.236  21.718   6.995
 5642POPC   C4B71434  16.461  21.811   7.365
 5643POPC   NC371435   0.963  32.263   5.489
 5643POPC   PO471436   1.494  32.024   5.378
 5643POPC   GL171437   1.362  32.203   5.797
 5643POPC   GL271438   1.012  32.062   5.935
 5643POPC   C1A71439   1.257  32.438   6.183
 5643POPC   D2A71440   0.987  32.290   6.524
 5643POPC   C3A71441   1.208  32.372   6.905
 5643POPC   C4A71442   1.285  32.559   7.298
 5643POPC   C1B71443   1.354  31.920   6.225
 5643POPC   C2B71444   1.497  32.045   6.627
 5643POPC   C3B71445   1.356  31.876   7.028
 5643POPC   C4B71446   1.097  32.061   7.318
 5644POPC   NC371447  30.595   0.461   5.368
 5644POPC   PO471448  31.260   0.276   5.316
 5644POPC   GL171449  31.020   0.206   5.733
 5644POPC   GL271450  30.801   0.486   5.856
 5644POPC   C1A71451  30.940   0.145   6.201
 5644POPC   D2A71452  30.615   0.209   6.527
 5644POPC   C3A71453  30.742   0.379   6.898
 5644POPC   C4A71454  30.904   0.166   7.243
 5644POPC   C1B71455  30.567   0.618   6.236
 5644POPC   C2B71456  30.307   0.603   6.617
 5644POPC   C3B71457  30.396   0.713   7.065
 5644POPC   C4B71458  30.784   0.724   7.278
 5645POPC   NC371459  14.927   1.998   5.377
 5645POPC   PO471460  14.331   2.277   5.214
 5645POPC   GL171461  14.508   2.127   5.695
 5645POPC   GL271462  14.236   2.003   5.876
 5645POPC   C1A71463  14.597   1.883   6.170
 5645POPC   D2A71464  14.403   1.843   6.611
 5645POPC   C3A71465  14.582   1.964   7.008
 5645POPC   C4A71466  14.497   1.779   7.411
 5645POPC   C1B71467  14.166   2.177   6.251
 5645POPC   C2B71468  13.990   2.160   6.626
 5645POPC   C3B71469  14.115   2.235   7.004
 5645POPC   C4B71470  14.256   2.219   7.382
 5646POPC   NC371471  44.935  42.651   5.453
 5646POPC   PO471472  44.464  43.251   5.517
 5646POPC   GL171473  44.673  43.263   5.895
 5646POPC   GL271474  44.937  43.029   5.925
 5646POPC   C1A71475  44.662  43.558   6.215
 5646POPC   D2A71476  44.546  43.612   6.600
 5646POPC   C3A71477  44.466  43.237   6.819
 5646POPC   C4A71478  44.675  43.070   7.160
 5646POPC   C1B71479  44.767  43.063   6.349
 5646POPC   C2B71480  44.918  42.951   6.728
 5646POPC   C3B71481  44.857  42.630   6.984
 5646POPC   C4B71482  44.931  42.646   7.381
 5647POPC   NC371483  44.872  41.924   5.195
 5647POPC   PO471484  44.595  41.361   5.512
 5647POPC   GL171485  44.770  41.403   5.915
 5647POPC   GL271486  44.618  41.673   6.095
 5647POPC   C1A71487  44.857  41.326   6.356
 5647POPC   D2A71488  44.568  41.484   6.621
 5647POPC   C3A71489  44.808  41.271   6.920
 5647POPC   C4A71490   0.025  41.403   7.271
 5647POPC   C1B71491  44.911  41.860   6.373
 5647POPC   C2B71492  44.974  41.742   6.813
 5647POPC   C3B71493  44.618  41.721   7.079
 5647POPC   C4B71494  44.380  42.036   7.227
 5648POPC   NC371495  24.833  31.031   5.514
 5648POPC   PO471496  24.421  30.481   5.471
 5648POPC   GL171497  24.600  30.557   5.869
 5648POPC   GL271498  24.857  30.320   5.926
 5648POPC   C1A71499  24.616  30.826   6.233
 5648POPC   D2A71500  24.519  30.911   6.664
 5648POPC   C3A71501  24.372  30.664   7.017
 5648POPC   C4A71502  24.615  30.958   7.212
 5648POPC   C1B71503  24.646  30.339   6.356
 5648POPC   C2B71504  24.697  30.306   6.823
 5648POPC   C3B71505  24.613  30.211   7.273
 5648POPC   C4B71506  24.694  30.387   7.723
 5649POPC   NC371507  36.420  36.035   5.473
 5649POPC   PO471508  35.895  35.820   5.201
 5649POPC   GL171509  35.928  35.971   5.726
 5649POPC   GL271510  36.193  36.177   5.909
 5649POPC   C1A71511  35.950  35.892   6.235
 5649POPC   D2A71512  36.219  36.047   6.593
 5649POPC   C3A71513  36.062  35.986   7.024
 5649POPC   C4A71514  35.772  35.682   7.228
 5649POPC   C1B71515  36.023  36.424   6.246
 5649POPC   C2B71516  36.206  36.592   6.632
 5649POPC   C3B71517  36.312  36.451   7.059
 5649POPC   C4B71518  36.215  36.539   7.490
 5650POPC   NC371519  25.109  14.673   5.544
 5650POPC   PO471520  25.639  14.249   5.470
 5650POPC   GL171521  25.390  14.328   5.805
 5650POPC   GL271522  25.479  14.670   5.934
 5650POPC   C1A71523  25.418  14.209   6.218
 5650POPC   D2A71524  25.142  14.246   6.559
 5650POPC   C3A71525  25.330  14.333   6.948
 5650POPC   C4A71526  25.244  14.127   7.320
 5650POPC   C1B71527  25.130  14.633   6.231
 5650POPC   C2B71528  24.965  14.714   6.675
 5650POPC   C3B71529  25.082  14.760   7.110
 5650POPC   C4B71530  25.019  14.856   7.563
 5651POPC   NC371531  24.124  15.943   5.255
 5651POPC   PO471532  24.751  15.762   5.467
 5651POPC   GL171533  24.447  16.048   5.663
 5651POPC   GL271534  24.739  16.186   5.810
 5651POPC   C1A71535  24.328  16.027   6.111
 5651POPC   D2A71536  24.502  15.888   6.496
 5651POPC   C3A71537  24.344  15.823   6.897
 5651POPC   C4A71538  24.391  15.915   7.325
 5651POPC   C1B71539  24.936  15.870   6.100
 5651POPC   C2B71540  24.989  15.712   6.493
 5651POPC   C3B71541  24.861  15.779   6.844
 5651POPC   C4B71542  24.738  15.557   7.152
 5652POPC   NC371543  16.683  22.000   5.125
 5652POPC   PO471544  16.695  21.393   5.337
 5652POPC   GL171545  16.793  21.481   5.747
 5652POPC   GL271546  16.468  21.343   5.820
 5652POPC   C1A71547  16.820  21.306   6.189
 5652POPC   D2A71548  16.654  21.117   6.549
 5652POPC   C3A71549  16.798  21.346   6.914
 5652POPC   C4A71550  16.743  21.389   7.342
 5652POPC   C1B71551  16.322  21.572   6.171
 5652POPC   C2B71552  16.226  21.410   6.575
 5652POPC   C3B71553  16.338  21.183   6.961
 5652POPC   C4B71554  16.237  21.353   7.334
 5653POPC   NC371555  38.468  11.783   5.472
 5653POPC   PO471556  38.208  12.433   5.514
 5653POPC   GL171557  38.567  12.217   5.763
 5653POPC   GL271558  38.432  11.939   5.951
 5653POPC   C1A71559  38.776  12.219   6.190
 5653POPC   D2A71560  38.684  12.008   6.588
 5653POPC   C3A71561  38.629  12.307   6.903
 5653POPC   C4A71562  38.560  12.248   7.309
 5653POPC   C1B71563  38.218  11.973   6.347
 5653POPC   C2B71564  38.131  12.142   6.776
 5653POPC   C3B71565  38.122  12.023   7.205
 5653POPC   C4B71566  38.099  11.582   7.239
 5654POPC   NC371567  32.993   6.251   5.455
 5654POPC   PO471568  33.289   5.591   5.397
 5654POPC   GL171569  33.156   5.586   5.783
 5654POPC   GL271570  33.218   5.930   5.789
 5654POPC   C1A71571  33.057   5.566   6.211
 5654POPC   D2A71572  32.729   5.791   6.466
 5654POPC   C3A71573  32.700   5.774   6.919
 5654POPC   C4A71574  33.011   5.663   7.190
 5654POPC   C1B71575  33.373   6.003   6.190
 5654POPC   C2B71576  33.229   5.874   6.585
 5654POPC   C3B71577  33.354   5.953   6.957
 5654POPC   C4B71578  33.429   6.300   7.157
 5655POPC   NC371579  32.475  42.421   5.273
 5655POPC   PO471580  31.857  42.163   5.201
 5655POPC   GL171581  32.031  42.500   5.599
 5655POPC   GL271582  32.384  42.418   5.772
 5655POPC   C1A71583  32.020  42.564   6.087
 5655POPC   D2A71584  32.197  42.377   6.476
 5655POPC   C3A71585  32.048  42.371   6.909
 5655POPC   C4A71586  32.233  42.121   7.203
 5655POPC   C1B71587  32.592  42.633   6.097
 5655POPC   C2B71588  32.691  42.524   6.505
 5655POPC   C3B71589  32.588  42.309   6.868
 5655POPC   C4B71590  32.542  42.555   7.208
 5656POPC   NC371591   7.965  41.315   5.125
 5656POPC   PO471592   8.288  41.797   5.444
 5656POPC   GL171593   8.110  41.566   5.757
 5656POPC   GL271594   7.920  41.848   5.862
 5656POPC   C1A71595   8.177  41.338   6.166
 5656POPC   D2A71596   8.266  41.031   6.526
 5656POPC   C3A71597   8.219  41.307   6.872
 5656POPC   C4A71598   8.463  41.651   7.018
 5656POPC   C1B71599   7.756  41.928   6.279
 5656POPC   C2B71600   7.796  41.691   6.641
 5656POPC   C3B71601   7.986  41.810   7.019
 5656POPC   C4B71602   8.152  42.122   7.276
 5657POPC   NC371603   0.941  36.289   5.168
 5657POPC   PO471604   1.385  35.941   5.575
 5657POPC   GL171605   1.339  36.140   5.975
 5657POPC   GL271606   1.359  35.854   6.183
 5657POPC   C1A71607   1.366  36.485   6.279
 5657POPC   D2A71608   1.569  36.682   6.655
 5657POPC   C3A71609   1.460  36.432   7.000
 5657POPC   C4A71610   1.118  36.350   7.259
 5657POPC   C1B71611   1.034  36.102   6.391
 5657POPC   C2B71612   0.949  36.143   6.834
 5657POPC   C3B71613   1.026  35.843   7.166
 5657POPC   C4B71614   1.387  35.604   7.104
 5658POPC   NC371615  13.145  32.147   5.482
 5658POPC   PO471616  12.797  32.775   5.607
 5658POPC   GL171617  12.869  32.349   5.872
 5658POPC   GL271618  13.044  32.032   5.975
 5658POPC   C1A71619  12.904  32.372   6.327
 5658POPC   D2A71620  12.929  32.137   6.662
 5658POPC   C3A71621  12.817  32.393   6.984
 5658POPC   C4A71622  12.821  32.284   7.407
 5658POPC   C1B71623  12.641  31.940   6.210
 5658POPC   C2B71624  12.544  31.817   6.676
 5658POPC   C3B71625  12.676  31.888   7.121
 5658POPC   C4B71626  12.858  31.797   7.553
 5659POPC   NC371627  20.018  15.345   5.377
 5659POPC   PO471628  19.457  15.107   5.668
 5659POPC   GL171629  19.871  15.036   5.891
 5659POPC   GL271630  20.259  15.080   5.830
 5659POPC   C1A71631  19.745  14.961   6.317
 5659POPC   D2A71632  19.497  15.183   6.615
 5659POPC   C3A71633  19.688  15.193   7.003
 5659POPC   C4A71634  19.684  15.034   7.382
 5659POPC   C1B71635  20.211  15.221   6.275
 5659POPC   C2B71636  20.182  15.050   6.694
 5659POPC   C3B71637  20.192  15.240   7.087
 5659POPC   C4B71638  20.077  15.424   7.444
 5660POPC   NC371639  32.702  40.342   5.552
 5660POPC   PO471640  33.276  40.200   5.200
 5660POPC   GL171641  33.151  39.920   5.575
 5660POPC   GL271642  32.807  39.828   5.695
 5660POPC   C1A71643  33.210  39.835   6.036
 5660POPC   D2A71644  33.206  40.214   6.334
 5660POPC   C3A71645  33.168  40.196   6.784
 5660POPC   C4A71646  33.152  40.041   7.205
 5660POPC   C1B71647  32.737  40.026   6.128
 5660POPC   C2B71648  32.673  40.144   6.555
 5660POPC   C3B71649  32.745  39.927   6.942
 5660POPC   C4B71650  32.646  40.021   7.343
 5661POPC   NC371651  17.764   9.929   5.181
 5661POPC   PO471652  17.227   9.830   5.536
 5661POPC   GL171653  17.448   9.744   5.857
 5661POPC   GL271654  17.292   9.456   5.930
 5661POPC   C1A71655  17.448   9.916   6.270
 5661POPC   D2A71656  17.619   9.776   6.649
 5661POPC   C3A71657  17.383   9.713   7.022
 5661POPC   C4A71658  17.391   9.911   7.403
 5661POPC   C1B71659  17.622   9.424   6.240
 5661POPC   C2B71660  17.749   9.262   6.646
 5661POPC   C3B71661  17.705   9.296   7.060
 5661POPC   C4B71662  17.468   9.371   7.447
 5662POPC   NC371663  39.267  43.388   5.471
 5662POPC   PO471664  39.128  42.648   5.563
 5662POPC   GL171665  39.253  42.884   5.922
 5662POPC   GL271666  39.115  43.179   5.883
 5662POPC   C1A71667  39.325  43.095   6.359
 5662POPC   D2A71668  39.338  42.979   6.820
 5662POPC   C3A71669  39.284  43.095   7.292
 5662POPC   C4A71670  39.530  43.141   7.709
 5662POPC   C1B71671  38.973  43.462   6.173
 5662POPC   C2B71672  39.156  43.567   6.574
 5662POPC   C3B71673  39.017  43.372   6.948
 5662POPC   C4B71674  38.839  43.408   7.316
 5663POPC   NC371675   0.131  30.422   5.721
 5663POPC   PO471676   0.478  30.989   5.432
 5663POPC   GL171677   0.354  30.863   5.841
 5663POPC   GL271678   0.130  31.101   5.906
 5663POPC   C1A71679   0.444  30.639   6.261
 5663POPC   D2A71680   0.200  30.444   6.596
 5663POPC   C3A71681   0.423  30.307   6.948
 5663POPC   C4A71682   0.452  30.560   7.286
 5663POPC   C1B71683   0.292  31.119   6.303
 5663POPC   C2B71684   0.414  30.925   6.673
 5663POPC   C3B71685   0.172  30.889   6.991
 5663POPC   C4B71686   0.144  30.955   7.409
 5664POPC   NC371687   8.755  30.948   5.499
 5664POPC   PO471688   8.875  30.293   5.313
 5664POPC   GL171689   8.980  30.546   5.740
 5664POPC   GL271690   9.335  30.667   5.830
 5664POPC   C1A71691   8.907  30.780   6.147
 5664POPC   D2A71692   9.001  30.879   6.591
 5664POPC   C3A71693   8.715  30.846   6.932
 5664POPC   C4A71694   8.778  30.942   7.344
 5664POPC   C1B71695   9.247  30.381   6.176
 5664POPC   C2B71696   9.335  30.494   6.590
 5664POPC   C3B71697   9.281  30.669   6.998
 5664POPC   C4B71698   9.421  30.385   7.318
 5665POPC   NC371699   3.613  16.008   5.041
 5665POPC   PO471700   3.123  15.943   5.514
 5665POPC   GL171701   3.360  16.137   5.842
 5665POPC   GL271702   3.722  16.190   5.826
 5665POPC   C1A71703   3.425  16.121   6.265
 5665POPC   D2A71704   3.683  16.104   6.645
 5665POPC   C3A71705   3.442  16.110   7.034
 5665POPC   C4A71706   3.205  15.811   7.251
 5665POPC   C1B71707   3.818  15.829   6.146
 5665POPC   C2B71708   4.020  15.738   6.577
 5665POPC   C3B71709   3.756  15.667   6.970
 5665POPC   C4B71710   3.841  15.762   7.407
 5666POPC   NC371711  20.300   2.676   5.552
 5666POPC   PO471712  19.662   2.894   5.524
 5666POPC   GL171713  19.940   2.817   5.907
 5666POPC   GL271714  20.131   2.503   5.981
 5666POPC   C1A71715  19.839   2.760   6.350
 5666POPC   D2A71716  19.965   2.935   6.764
 5666POPC   C3A71717  19.770   2.841   7.181
 5666POPC   C4A71718  19.812   3.034   7.629
 5666POPC   C1B71719  20.171   2.338   6.363
 5666POPC   C2B71720  20.173   2.455   6.758
 5666POPC   C3B71721  20.273   2.329   7.148
 5666POPC   C4B71722  19.930   2.113   7.401
 5667POPC   NC371723  12.948   6.966   5.393
 5667POPC   PO471724  12.577   6.550   5.213
 5667POPC   GL171725  12.602   6.664   5.709
 5667POPC   GL271726  12.893   6.710   5.893
 5667POPC   C1A71727  12.547   6.471   6.159
 5667POPC   D2A71728  12.730   6.353   6.555
 5667POPC   C3A71729  12.622   6.554   6.966
 5667POPC   C4A71730  12.874   6.799   7.290
 5667POPC   C1B71731  13.065   6.637   6.287
 5667POPC   C2B71732  12.933   6.868   6.638
 5667POPC   C3B71733  13.093   7.136   6.936
 5667POPC   C4B71734  13.353   6.947   7.240
 5668POPC   NC371735  17.489   2.118   5.398
 5668POPC   PO471736  17.790   1.549   5.469
 5668POPC   GL171737  17.725   1.834   5.769
 5668POPC   GL271738  17.391   1.782   5.770
 5668POPC   C1A71739  17.715   2.009   6.181
 5668POPC   D2A71740  17.587   2.133   6.605
 5668POPC   C3A71741  17.691   1.924   6.987
 5668POPC   C4A71742  17.605   2.199   7.326
 5668POPC   C1B71743  17.193   1.972   6.100
 5668POPC   C2B71744  17.175   1.824   6.527
 5668POPC   C3B71745  17.185   1.991   6.926
 5668POPC   C4B71746  17.197   1.893   7.333
 5669POPC   NC371747  10.040   2.584   5.434
 5669POPC   PO471748  10.476   3.147   5.370
 5669POPC   GL171749  10.527   2.907   5.750
 5669POPC   GL271750  10.199   2.864   5.869
 5669POPC   C1A71751  10.736   2.845   6.157
 5669POPC   D2A71752  10.816   3.002   6.583
 5669POPC   C3A71753  10.640   2.775   6.968
 5669POPC   C4A71754  10.468   2.890   7.404
 5669POPC   C1B71755  10.305   2.570   6.223
 5669POPC   C2B71756  10.162   2.603   6.686
 5669POPC   C3B71757  10.210   2.528   7.150
 5669POPC   C4B71758  10.241   2.416   7.603
 5670POPC   NC371759   2.193  15.298   5.447
 5670POPC   PO471760   1.646  14.950   5.300
 5670POPC   GL171761   1.798  15.014   5.716
 5670POPC   GL271762   2.147  14.920   5.808
 5670POPC   C1A71763   1.758  15.035   6.169
 5670POPC   D2A71764   1.768  15.310   6.520
 5670POPC   C3A71765   1.963  15.186   6.891
 5670POPC   C4A71766   1.861  15.274   7.284
 5670POPC   C1B71767   2.224  15.234   6.136
 5670POPC   C2B71768   2.264  15.434   6.546
 5670POPC   C3B71769   2.444  15.288   6.883
 5670POPC   C4B71770   2.328  15.498   7.240
 5671POPC   NC371771  28.087   5.300   5.390
 5671POPC   PO471772  28.467   4.769   5.486
 5671POPC   GL171773  28.316   4.954   5.807
 5671POPC   GL271774  28.397   5.282   5.817
 5671POPC   C1A71775  28.446   4.869   6.213
 5671POPC   D2A71776  28.183   4.853   6.546
 5671POPC   C3A71777  28.341   4.860   6.961
 5671POPC   C4A71778  28.547   5.007   7.342
 5671POPC   C1B71779  28.153   5.283   6.201
 5671POPC   C2B71780  28.142   5.342   6.654
 5671POPC   C3B71781  28.401   5.367   7.019
 5671POPC   C4B71782  28.189   5.336   7.449
 5672POPC   NC371783  24.365  31.915   5.519
 5672POPC   PO471784  24.857  32.421   5.438
 5672POPC   GL171785  24.695  32.252   5.850
 5672POPC   GL271786  24.308  32.244   5.900
 5672POPC   C1A71787  24.621  32.189   6.307
 5672POPC   D2A71788  24.709  32.301   6.730
 5672POPC   C3A71789  24.405  32.182   7.032
 5672POPC   C4A71790  24.426  32.326   7.425
 5672POPC   C1B71791  24.207  31.888   6.189
 5672POPC   C2B71792  24.113  31.801   6.635
 5672POPC   C3B71793  23.918  32.024   6.981
 5672POPC   C4B71794  24.001  32.076   7.439
 5673POPC   NC371795  32.533   9.931   5.599
 5673POPC   PO471796  32.552  10.398   5.202
 5673POPC   GL171797  32.326  10.444   5.629
 5673POPC   GL271798  32.081  10.195   5.765
 5673POPC   C1A71799  32.271  10.669   6.046
 5673POPC   D2A71800  32.475  10.674   6.481
 5673POPC   C3A71801  32.258  10.815   6.849
 5673POPC   C4A71802  32.185  10.590   7.182
 5673POPC   C1B71803  32.131  10.206   6.249
 5673POPC   C2B71804  32.165  10.258   6.724
 5673POPC   C3B71805  32.158  10.094   7.149
 5673POPC   C4B71806  32.488  10.064   7.446
 5674POPC   NC371807  29.643  21.574   5.271
 5674POPC   PO471808  30.073  21.145   5.481
 5674POPC   GL171809  29.849  21.317   5.793
 5674POPC   GL271810  29.829  21.674   5.796
 5674POPC   C1A71811  29.866  21.203   6.217
 5674POPC   D2A71812  30.170  21.271   6.539
 5674POPC   C3A71813  30.081  21.237   6.989
 5674POPC   C4A71814  30.144  21.128   7.447
 5674POPC   C1B71815  29.881  21.706   6.269
 5674POPC   C2B71816  29.700  21.479   6.663
 5674POPC   C3B71817  29.737  21.589   7.146
 5674POPC   C4B71818  29.679  21.722   7.592
 5675POPC   NC371819  19.184  38.259   5.133
 5675POPC   PO471820  19.259  37.628   5.426
 5675POPC   GL171821  19.229  37.810   5.785
 5675POPC   GL271822  18.869  37.733   5.812
 5675POPC   C1A71823  19.319  37.750   6.201
 5675POPC   D2A71824  19.183  37.505   6.549
 5675POPC   C3A71825  19.107  37.670   6.936
 5675POPC   C4A71826  18.768  37.569   7.220
 5675POPC   C1B71827  18.791  37.626   6.240
 5675POPC   C2B71828  18.710  37.824   6.664
 5675POPC   C3B71829  18.811  38.066   7.061
 5675POPC   C4B71830  18.735  38.013   7.511
 5676POPC   NC371831   9.119   4.034   5.611
 5676POPC   PO471832   8.866   3.419   5.435
 5676POPC   GL171833   8.825   3.640   5.804
 5676POPC   GL271834   9.151   3.584   5.899
 5676POPC   C1A71835   8.816   3.569   6.277
 5676POPC   D2A71836   8.725   3.266   6.583
 5676POPC   C3A71837   8.873   3.363   6.992
 5676POPC   C4A71838   8.921   3.700   7.314
 5676POPC   C1B71839   9.216   3.244   6.195
 5676POPC   C2B71840   9.179   3.028   6.584
 5676POPC   C3B71841   9.330   3.101   6.969
 5676POPC   C4B71842   9.237   3.300   7.352
 5677POPC   NC371843  23.812  41.502   5.432
 5677POPC   PO471844  23.747  40.889   5.616
 5677POPC   GL171845  23.635  41.333   5.897
 5677POPC   GL271846  23.543  41.707   5.826
 5677POPC   C1A71847  23.686  41.590   6.321
 5677POPC   D2A71848  23.795  41.751   6.753
 5677POPC   C3A71849  23.675  41.646   7.211
 5677POPC   C4A71850  23.682  41.571   7.692
 5677POPC   C1B71851  23.227  41.759   6.162
 5677POPC   C2B71852  23.256  41.807   6.617
 5677POPC   C3B71853  23.300  41.962   7.047
 5677POPC   C4B71854  23.443  41.978   7.524
 5678POPC   NC371855  11.160  27.806   5.494
 5678POPC   PO471856  11.640  27.415   5.450
 5678POPC   GL171857  11.448  27.396   5.859
 5678POPC   GL271858  11.123  27.229   5.887
 5678POPC   C1A71859  11.523  27.259   6.284
 5678POPC   D2A71860  11.603  27.320   6.728
 5678POPC   C3A71861  11.598  27.642   7.041
 5678POPC   C4A71862  11.424  27.527   7.469
 5678POPC   C1B71863  11.071  27.559   6.197
 5678POPC   C2B71864  11.199  27.622   6.621
 5678POPC   C3B71865  11.136  27.442   7.027
 5678POPC   C4B71866  10.843  27.592   7.350
 5679POPC   NC371867  44.958  26.014   5.371
 5679POPC   PO471868  44.322  26.132   5.373
 5679POPC   GL171869  44.606  26.055   5.746
 5679POPC   GL271870  44.816  25.738   5.788
 5679POPC   C1A71871  44.641  26.136   6.185
 5679POPC   D2A71872  44.828  26.293   6.557
 5679POPC   C3A71873  44.717  26.077   6.936
 5679POPC   C4A71874  44.636  26.231   7.347
 5679POPC   C1B71875  44.424  25.681   6.030
 5679POPC   C2B71876  44.313  25.800   6.431
 5679POPC   C3B71877  44.413  25.608   6.819
 5679POPC   C4B71878  44.403  25.738   7.212
 5680POPC   NC371879  13.009  20.642   5.395
 5680POPC   PO471880  12.359  20.950   5.371
 5680POPC   GL171881  12.578  20.635   5.717
 5680POPC   GL271882  12.944  20.725   5.890
 5680POPC   C1A71883  12.604  20.530   6.201
 5680POPC   D2A71884  12.692  20.759   6.608
 5680POPC   C3A71885  12.693  20.435   6.944
 5680POPC   C4A71886  12.487  20.474   7.346
 5680POPC   C1B71887  13.142  20.800   6.308
 5680POPC   C2B71888  13.150  20.555   6.694
 5680POPC   C3B71889  13.131  20.644   7.131
 5680POPC   C4B71890  13.199  20.433   7.495
 5681POPC   NC371891  31.272  27.554   5.614
 5681POPC   PO471892  31.940  27.371   5.554
 5681POPC   GL171893  31.695  27.481   5.902
 5681POPC   GL271894  31.457  27.184   5.900
 5681POPC   C1A71895  31.524  27.501   6.315
 5681POPC   D2A71896  31.749  27.402   6.687
 5681POPC   C3A71897  31.663  27.589   7.088
 5681POPC   C4A71898  31.253  27.730   7.217
 5681POPC   C1B71899  31.218  27.098   6.263
 5681POPC   C2B71900  31.195  27.274   6.687
 5681POPC   C3B71901  31.285  27.212   7.126
 5681POPC   C4B71902  31.357  27.371   7.557
 5682POPC   NC371903   9.864  21.084   5.139
 5682POPC   PO471904   9.564  21.540   5.586
 5682POPC   GL171905   9.601  21.385   5.973
 5682POPC   GL271906   9.390  21.113   5.830
 5682POPC   C1A71907   9.815  21.541   6.345
 5682POPC   D2A71908   9.853  21.882   6.673
 5682POPC   C3A71909   9.948  21.758   7.113
 5682POPC   C4A71910   9.742  21.703   7.517
 5682POPC   C1B71911   9.401  20.928   6.228
 5682POPC   C2B71912   9.607  21.080   6.567
 5682POPC   C3B71913   9.904  21.334   6.811
 5682POPC   C4B71914  10.019  21.239   7.236
 5683POPC   NC371915   4.903  24.627   5.404
 5683POPC   PO471916   5.487  24.375   5.538
 5683POPC   GL171917   5.218  24.430   5.891
 5683POPC   GL271918   4.837  24.357   5.850
 5683POPC   C1A71919   5.280  24.240   6.288
 5683POPC   D2A71920   5.172  24.131   6.682
 5683POPC   C3A71921   5.293  24.308   7.078
 5683POPC   C4A71922   5.177  24.683   7.336
 5683POPC   C1B71923   4.813  24.473   6.288
 5683POPC   C2B71924   4.932  24.581   6.711
 5683POPC   C3B71925   4.721  24.696   7.081
 5683POPC   C4B71926   4.648  24.508   7.450
 5684POPC   NC371927  23.622  10.457   5.389
 5684POPC   PO471928  24.335  10.526   5.367
 5684POPC   GL171929  23.986  10.518   5.739
 5684POPC   GL271930  24.056  10.269   6.007
 5684POPC   C1A71931  23.586  10.436   6.041
 5684POPC   D2A71932  23.669  10.299   6.471
 5684POPC   C3A71933  23.703  10.597   6.809
 5684POPC   C4A71934  23.646  10.495   7.226
 5684POPC   C1B71935  24.008  10.665   6.224
 5684POPC   C2B71936  24.071  10.903   6.569
 5684POPC   C3B71937  24.208  10.791   6.952
 5684POPC   C4B71938  24.053  10.827   7.382
 5685POPC   NC371939   6.170   8.798   5.554
 5685POPC   PO471940   6.646   9.161   5.166
 5685POPC   GL171941   6.583   9.142   5.661
 5685POPC   GL271942   6.854   8.969   5.889
 5685POPC   C1A71943   6.643   9.374   6.090
 5685POPC   D2A71944   6.770   9.189   6.500
 5685POPC   C3A71945   6.492   9.199   6.872
 5685POPC   C4A71946   6.801   9.338   7.149
 5685POPC   C1B71947   6.505   8.861   6.216
 5685POPC   C2B71948   6.558   8.709   6.673
 5685POPC   C3B71949   6.662   8.786   7.136
 5685POPC   C4B71950   6.601   8.672   7.615
 5686POPC   NC371951  22.014   5.799   5.436
 5686POPC   PO471952  22.226   6.374   5.492
 5686POPC   GL171953  22.224   6.106   5.874
 5686POPC   GL271954  22.280   5.746   5.860
 5686POPC   C1A71955  22.312   5.977   6.318
 5686POPC   D2A71956  22.456   5.712   6.677
 5686POPC   C3A71957  22.204   5.901   7.005
 5686POPC   C4A71958  22.050   5.772   7.389
 5686POPC   C1B71959  22.004   5.573   6.183
 5686POPC   C2B71960  21.966   5.668   6.600
 5686POPC   C3B71961  21.972   5.431   6.957
 5686POPC   C4B71962  21.902   5.213   7.327
 5687POPC   NC371963  42.929  27.146   5.370
 5687POPC   PO471964  43.190  26.500   5.504
 5687POPC   GL171965  43.046  26.721   5.879
 5687POPC   GL271966  43.018  27.091   5.889
 5687POPC   C1A71967  43.266  26.774   6.290
 5687POPC   D2A71968  43.126  26.660   6.695
 5687POPC   C3A71969  43.366  26.730   7.065
 5687POPC   C4A71970  43.016  26.806   7.348
 5687POPC   C1B71971  43.215  27.282   6.293
 5687POPC   C2B71972  43.367  27.114   6.688
 5687POPC   C3B71973  43.041  27.135   6.958
 5687POPC   C4B71974  42.800  27.268   7.287
 5688POPC   NC371975   7.953  13.175   5.127
 5688POPC   PO471976   8.324  12.728   5.434
 5688POPC   GL171977   7.962  12.744   5.729
 5688POPC   GL271978   7.929  12.407   5.840
 5688POPC   C1A71979   7.923  12.944   6.155
 5688POPC   D2A71980   8.166  13.120   6.530
 5688POPC   C3A71981   8.013  13.107   6.977
 5688POPC   C4A71982   8.045  12.686   7.187
 5688POPC   C1B71983   8.258  12.534   6.151
 5688POPC   C2B71984   8.408  12.357   6.578
 5688POPC   C3B71985   8.481  12.447   7.041
 5688POPC   C4B71986   8.452  12.346   7.485
 5689POPC   NC371987  23.255   1.766   5.551
 5689POPC   PO471988  22.693   2.063   5.671
 5689POPC   GL171989  22.873   1.751   5.902
 5689POPC   GL271990  23.166   1.944   6.031
 5689POPC   C1A71991  22.831   1.568   6.297
 5689POPC   D2A71992  22.913   1.652   6.718
 5689POPC   C3A71993  22.632   1.962   6.834
 5689POPC   C4A71994  22.626   1.843   7.252
 5689POPC   C1B71995  23.494   2.252   6.205
 5689POPC   C2B71996  23.414   2.449   6.579
 5689POPC   C3B71997  23.034   2.298   6.773
 5689POPC   C4B71998  23.081   2.013   7.106
 5690POPC   NC371999  37.188  36.458   5.506
 5690POPC   PO472000  36.875  35.850   5.399
 5690POPC   GL172001  36.855  36.141   5.766
 5690POPC   GL272002  37.189  36.169   5.926
 5690POPC   C1A72003  36.735  36.080   6.212
 5690POPC   D2A72004  36.719  35.787   6.573
 5690POPC   C3A72005  36.584  35.981   6.955
 5690POPC   C4A72006  36.774  36.263   7.226
 5690POPC   C1B72007  37.049  36.521   6.169
 5690POPC   C2B72008  37.120  36.604   6.589
 5690POPC   C3B72009  37.178  36.470   7.001
 5690POPC   C4B72010  37.117  36.547   7.469
 5691POPC   NC372011  41.169   0.567   5.533
 5691POPC   PO472012  40.482   0.310   5.574
 5691POPC   GL172013  40.657   0.534   5.876
 5691POPC   GL272014  40.937   0.277   5.864
 5691POPC   C1A72015  40.439   0.463   6.271
 5691POPC   D2A72016  40.627   0.343   6.649
 5691POPC   C3A72017  40.465   0.286   7.018
 5691POPC   C4A72018  40.591   0.703   7.106
 5691POPC   C1B72019  40.988   0.397   6.263
 5691POPC   C2B72020  41.083   0.138   6.599
 5691POPC   C3B72021  41.015   0.306   7.006
 5691POPC   C4B72022  41.116   0.076   7.361
 5692POPC   NC372023  27.961  11.554   5.408
 5692POPC   PO472024  28.575  11.879   5.337
 5692POPC   GL172025  28.368  11.723   5.748
 5692POPC   GL272026  28.420  11.331   5.804
 5692POPC   C1A72027  28.268  11.587   6.213
 5692POPC   D2A72028  28.396  11.306   6.567
 5692POPC   C3A72029  28.292  11.485   6.967
 5692POPC   C4A72030  28.565  11.489   7.338
 5692POPC   C1B72031  28.222  11.038   6.143
 5692POPC   C2B72032  28.268  10.807   6.570
 5692POPC   C3B72033  28.314  10.967   6.987
 5692POPC   C4B72034  28.170  11.189   7.376
 5693POPC   NC372035  18.678  39.067   5.435
 5693POPC   PO472036  18.021  39.266   5.504
 5693POPC   GL172037  18.287  39.178   5.838
 5693POPC   GL272038  18.595  39.002   5.929
 5693POPC   C1A72039  18.161  39.300   6.235
 5693POPC   D2A72040  17.985  39.388   6.624
 5693POPC   C3A72041  18.205  39.195   6.953
 5693POPC   C4A72042  17.961  39.449   7.175
 5693POPC   C1B72043  18.666  39.332   6.204
 5693POPC   C2B72044  18.506  39.421   6.600
 5693POPC   C3B72045  18.549  39.572   7.006
 5693POPC   C4B72046  18.893  39.510   7.274
 5694POPC   NC372047  44.012  38.634   5.193
 5694POPC   PO472048  43.941  39.284   5.326
 5694POPC   GL172049  44.002  39.275   5.802
 5694POPC   GL272050  43.678  39.293   5.964
 5694POPC   C1A72051  44.059  39.215   6.270
 5694POPC   D2A72052  43.948  38.914   6.589
 5694POPC   C3A72053  43.931  39.100   6.985
 5694POPC   C4A72054  43.952  39.019   7.401
 5694POPC   C1B72055  43.502  39.051   6.305
 5694POPC   C2B72056  43.442  39.143   6.744
 5694POPC   C3B72057  43.462  39.059   7.182
 5694POPC   C4B72058  43.591  39.317   7.564
 5695POPC   NC372059  37.159  23.406   5.525
 5695POPC   PO472060  37.288  24.093   5.553
 5695POPC   GL172061  37.463  23.709   5.855
 5695POPC   GL272062  37.864  23.661   5.879
 5695POPC   C1A72063  37.560  23.668   6.306
 5695POPC   D2A72064  37.321  23.995   6.547
 5695POPC   C3A72065  37.202  23.840   6.926
 5695POPC   C4A72066  37.272  23.408   7.032
 5695POPC   C1B72067  38.020  23.427   6.180
 5695POPC   C2B72068  37.921  23.374   6.595
 5695POPC   C3B72069  37.723  23.631   6.888
 5695POPC   C4B72070  37.683  23.559   7.311
 5696POPC   NC372071  40.197  12.149   5.402
 5696POPC   PO472072  39.835  11.632   5.357
 5696POPC   GL172073  39.868  11.766   5.799
 5696POPC   GL272074  40.182  11.890   5.827
 5696POPC   C1A72075  39.791  11.635   6.256
 5696POPC   D2A72076  39.627  11.622   6.718
 5696POPC   C3A72077  39.864  11.836   7.071
 5696POPC   C4A72078  39.809  12.185   7.407
 5696POPC   C1B72079  40.015  12.120   6.160
 5696POPC   C2B72080  40.151  12.107   6.578
 5696POPC   C3B72081  40.094  12.269   6.980
 5696POPC   C4B72082  40.317  12.238   7.362
 5697POPC   NC372083  20.667  17.953   5.215
 5697POPC   PO472084  20.845  17.311   5.279
 5697POPC   GL172085  20.825  17.207   5.743
 5697POPC   GL272086  20.512  17.225   5.841
 5697POPC   C1A72087  20.862  17.385   6.179
 5697POPC   D2A72088  20.698  17.704   6.466
 5697POPC   C3A72089  20.722  17.520   6.864
 5697POPC   C4A72090  20.889  17.718   7.218
 5697POPC   C1B72091  20.343  17.445   6.188
 5697POPC   C2B72092  20.221  17.526   6.602
 5697POPC   C3B72093  20.268  17.691   6.980
 5697POPC   C4B72094  20.428  17.476   7.313
 5698POPC   NC372095  25.486   6.837   5.539
 5698POPC   PO472096  25.170   6.286   5.533
 5698POPC   GL172097  25.176   6.569   5.865
 5698POPC   GL272098  24.982   6.852   5.680
 5698POPC   C1A72099  25.385   6.686   6.261
 5698POPC   D2A72100  25.738   6.503   6.503
 5698POPC   C3A72101  25.656   6.561   6.917
 5698POPC   C4A72102  25.313   6.456   7.190
 5698POPC   C1B72103  24.897   6.931   6.091
 5698POPC   C2B72104  25.016   6.986   6.477
 5698POPC   C3B72105  25.214   6.788   6.778
 5698POPC   C4B72106  24.992   6.843   7.117
 5699POPC   NC372107   4.171   8.054   4.936
 5699POPC   PO472108   4.164   8.544   5.440
 5699POPC   GL172109   4.337   8.305   5.820
 5699POPC   GL272110   4.390   7.941   5.769
 5699POPC   C1A72111   4.140   8.064   6.215
 5699POPC   D2A72112   4.086   7.822   6.605
 5699POPC   C3A72113   4.228   7.985   7.023
 5699POPC   C4A72114   4.346   8.365   7.230
 5699POPC   C1B72115   4.631   7.989   6.187
 5699POPC   C2B72116   4.544   8.089   6.616
 5699POPC   C3B72117   4.806   7.869   6.904
 5699POPC   C4B72118   4.780   7.740   7.310
 5700POPC   NC372119  29.732  35.622   5.386
 5700POPC   PO472120  30.281  35.213   5.411
 5700POPC   GL172121  29.985  35.260   5.756
 5700POPC   GL272122  29.628  35.192   5.676
 5700POPC   C1A72123  29.960  35.517   6.145
 5700POPC   D2A72124  30.057  35.749   6.558
 5700POPC   C3A72125  30.002  35.418   6.870
 5700POPC   C4A72126  30.120  35.317   7.266
 5700POPC   C1B72127  29.560  35.145   6.135
 5700POPC   C2B72128  29.664  34.916   6.534
 5700POPC   C3B72129  29.578  35.070   6.951
 5700POPC   C4B72130  29.625  35.359   7.273
 5701POPC   NC372131  30.779  13.907   5.564
 5701POPC   PO472132  30.472  14.531   5.351
 5701POPC   GL172133  30.826  14.421   5.640
 5701POPC   GL272134  30.585  14.299   5.831
 5701POPC   C1A72135  31.018  14.359   6.082
 5701POPC   D2A72136  31.005  14.560   6.492
 5701POPC   C3A72137  31.132  14.368   6.889
 5701POPC   C4A72138  30.908  14.454   7.248
 5701POPC   C1B72139  30.514  14.187   6.234
 5701POPC   C2B72140  30.491  14.460   6.580
 5701POPC   C3B72141  30.394  14.380   6.999
 5701POPC   C4B72142  30.465  14.262   7.441
 5702POPC   NC372143   7.285  44.974   5.480
 5702POPC   PO472144   7.582  44.414   5.185
 5702POPC   GL172145   7.467  44.505   5.702
 5702POPC   GL272146   7.600  44.852   5.857
 5702POPC   C1A72147   7.568  44.499   6.211
 5702POPC   D2A72148   7.584  44.822   6.585
 5702POPC   C3A72149   7.622  44.658   7.044
 5702POPC   C4A72150   7.681  44.225   7.224
 5702POPC   C1B72151   7.235  44.902   6.166
 5702POPC   C2B72152   7.153   0.141   6.556
 5702POPC   C3B72153   7.364   0.101   6.969
 5702POPC   C4B72154   7.149  44.911   7.301
 5703POPC   NC372155  40.157  28.698   5.512
 5703POPC   PO472156  39.826  28.185   5.438
 5703POPC   GL172157  39.708  28.378   5.888
 5703POPC   GL272158  39.900  28.691   5.953
 5703POPC   C1A72159  39.692  28.554   6.372
 5703POPC   D2A72160  39.712  28.616   6.821
 5703POPC   C3A72161  39.720  28.201   7.039
 5703POPC   C4A72162  40.124  28.016   7.086
 5703POPC   C1B72163  40.306  28.717   6.202
 5703POPC   C2B72164  40.519  28.712   6.626
 5703POPC   C3B72165  40.421  28.503   7.004
 5703POPC   C4B72166  40.033  28.543   7.238
 5704POPC   NC372167  31.675  25.381   5.250
 5704POPC   PO472168  31.352  24.858   5.292
 5704POPC   GL172169  31.320  25.052   5.791
 5704POPC   GL272170  31.064  25.055   5.987
 5704POPC   C1A72171  31.332  25.410   6.224
 5704POPC   D2A72172  31.551  25.761   6.465
 5704POPC   C3A72173  31.683  25.611   6.862
 5704POPC   C4A72174  31.430  25.458   7.193
 5704POPC   C1B72175  31.485  24.927   6.251
 5704POPC   C2B72176  31.737  25.161   6.545
 5704POPC   C3B72177  31.534  25.057   6.913
 5704POPC   C4B72178  31.492  24.816   7.288
 5705POPC   NC372179  43.581  14.693   5.153
 5705POPC   PO472180  43.908  15.218   5.505
 5705POPC   GL172181  43.858  15.113   5.890
 5705POPC   GL272182  44.164  14.937   5.864
 5705POPC   C1A72183  43.658  15.089   6.290
 5705POPC   D2A72184  43.816  15.303   6.651
 5705POPC   C3A72185  43.600  15.091   6.919
 5705POPC   C4A72186  43.518  14.825   7.234
 5705POPC   C1B72187  44.156  15.111   6.297
 5705POPC   C2B72188  44.182  14.928   6.696
 5705POPC   C3B72189  44.086  15.120   7.083
 5705POPC   C4B72190  44.080  15.386   7.437
 5706POPC   NC372191  18.250  13.163   5.403
 5706POPC   PO472192  18.165  12.478   5.561
 5706POPC   GL172193  18.420  12.749   5.805
 5706POPC   GL272194  18.192  13.039   5.886
 5706POPC   C1A72195  18.438  12.790   6.252
 5706POPC   D2A72196  18.110  12.836   6.590
 5706POPC   C3A72197  18.209  12.711   7.014
 5706POPC   C4A72198  18.446  12.545   7.389
 5706POPC   C1B72199  18.163  13.248   6.260
 5706POPC   C2B72200  18.202  13.350   6.677
 5706POPC   C3B72201  18.056  13.207   7.080
 5706POPC   C4B72202  18.111  12.943   7.468
 5707POPC   NC372203  28.758  25.950   5.508
 5707POPC   PO472204  29.458  25.602   5.557
 5707POPC   GL172205  29.186  25.811   5.859
 5707POPC   GL272206  28.914  25.605   5.849
 5707POPC   C1A72207  29.012  26.095   6.188
 5707POPC   D2A72208  29.031  26.324   6.600
 5707POPC   C3A72209  29.134  26.109   6.995
 5707POPC   C4A72210  29.539  26.065   7.218
 5707POPC   C1B72211  28.838  25.610   6.256
 5707POPC   C2B72212  28.945  25.799   6.614
 5707POPC   C3B72213  28.720  25.799   6.968
 5707POPC   C4B72214  28.832  25.637   7.346
 5708POPC   NC372215  12.806   8.606   5.495
 5708POPC   PO472216  13.115   7.999   5.574
 5708POPC   GL172217  12.832   8.230   5.849
 5708POPC   GL272218  13.088   8.438   5.965
 5708POPC   C1A72219  12.573   8.274   6.248
 5708POPC   D2A72220  12.556   8.416   6.691
 5708POPC   C3A72221  12.415   8.120   7.035
 5708POPC   C4A72222  12.512   8.115   7.507
 5708POPC   C1B72223  13.064   8.063   6.278
 5708POPC   C2B72224  12.899   7.977   6.702
 5708POPC   C3B72225  12.911   8.264   7.061
 5708POPC   C4B72226  13.273   8.452   7.263
 5709POPC   NC372227  17.248  43.865   5.085
 5709POPC   PO472228  16.636  43.901   5.375
 5709POPC   GL172229  16.597  43.933   5.824
 5709POPC   GL272230  16.676  43.605   5.898
 5709POPC   C1A72231  16.502  43.982   6.275
 5709POPC   D2A72232  16.462  44.241   6.672
 5709POPC   C3A72233  16.698  44.057   7.001
 5709POPC   C4A72234  16.566  43.734   7.210
 5709POPC   C1B72235  16.757  43.507   6.303
 5709POPC   C2B72236  16.739  43.656   6.700
 5709POPC   C3B72237  17.047  43.680   7.046
 5709POPC   C4B72238  16.929  43.455   7.427
 5710POPC   NC372239  36.389   1.684   5.101
 5710POPC   PO472240  36.669   2.152   5.585
 5710POPC   GL172241  36.956   1.928   5.792
 5710POPC   GL272242  37.203   2.186   5.874
 5710POPC   C1A72243  36.911   1.877   6.212
 5710POPC   D2A72244  36.695   2.106   6.553
 5710POPC   C3A72245  36.845   1.958   6.944
 5710POPC   C4A72246  36.680   1.729   7.280
 5710POPC   C1B72247  37.083   2.360   6.305
 5710POPC   C2B72248  37.077   2.396   6.789
 5710POPC   C3B72249  37.104   2.287   7.243
 5710POPC   C4B72250  37.141   1.958   7.562
 5711POPC   NC372251   9.953  39.412   5.368
 5711POPC   PO472252   9.270  39.624   5.446
 5711POPC   GL172253   9.585  39.384   5.785
 5711POPC   GL272254   9.993  39.347   5.856
 5711POPC   C1A72255   9.709  39.221   6.229
 5711POPC   D2A72256   9.912  39.410   6.576
 5711POPC   C3A72257   9.777  39.150   6.915
 5711POPC   C4A72258   9.873  38.955   7.279
 5711POPC   C1B72259  10.265  39.608   6.141
 5711POPC   C2B72260  10.256  39.841   6.536
 5711POPC   C3B72261  10.204  39.705   6.951
 5711POPC   C4B72262   9.938  39.512   7.222
 5712POPC   NC372263   3.466  11.099   5.420
 5712POPC   PO472264   3.957  11.550   5.724
 5712POPC   GL172265   3.528  11.412   5.857
 5712POPC   GL272266   3.481  11.039   5.918
 5712POPC   C1A72267   3.249  11.378   6.246
 5712POPC   D2A72268   3.276  11.426   6.712
 5712POPC   C3A72269   3.687  11.448   6.907
 5712POPC   C4A72270   3.839  11.488   7.310
 5712POPC   C1B72271   3.493  10.905   6.333
 5712POPC   C2B72272   3.306  10.897   6.702
 5712POPC   C3B72273   3.050  10.948   7.043
 5712POPC   C4B72274   3.408  10.899   7.302
 5713POPC   NC372275  11.579   9.536   5.132
 5713POPC   PO472276  11.020   9.784   5.438
 5713POPC   GL172277  11.285   9.717   5.776
 5713POPC   GL272278  11.651   9.597   5.751
 5713POPC   C1A72279  11.081   9.611   6.151
 5713POPC   D2A72280  11.179   9.705   6.551
 5713POPC   C3A72281  11.131   9.356   6.798
 5713POPC   C4A72282  11.304   9.494   7.158
 5713POPC   C1B72283  11.595   9.672   6.231
 5713POPC   C2B72284  11.645   9.542   6.719
 5713POPC   C3B72285  11.713   9.810   7.124
 5713POPC   C4B72286  11.828   9.718   7.586
 5714POPC   NC372287  25.829  11.067   5.518
 5714POPC   PO472288  25.916  11.676   5.650
 5714POPC   GL172289  25.983  11.367   5.951
 5714POPC   GL272290  26.295  11.389   5.843
 5714POPC   C1A72291  26.007  11.346   6.410
 5714POPC   D2A72292  25.972  11.642   6.741
 5714POPC   C3A72293  25.993  11.441   7.137
 5714POPC   C4A72294  25.897  11.140   7.455
 5714POPC   C1B72295  26.439  11.163   6.199
 5714POPC   C2B72296  26.384  10.991   6.621
 5714POPC   C3B72297  26.424  11.135   7.055
 5714POPC   C4B72298  26.396  11.354   7.431
 5715POPC   NC372299   0.096  39.327   5.437
 5715POPC   PO472300   0.684  39.650   5.382
 5715POPC   GL172301   0.512  39.385   5.731
 5715POPC   GL272302   0.277  39.629   5.850
 5715POPC   C1A72303   0.403  39.097   6.110
 5715POPC   D2A72304   0.559  39.187   6.537
 5715POPC   C3A72305   0.599  39.042   6.954
 5715POPC   C4A72306   0.265  38.858   7.180
 5715POPC   C1B72307   0.568  39.579   6.199
 5715POPC   C2B72308   0.645  39.679   6.621
 5715POPC   C3B72309   0.353  39.651   6.936
 5715POPC   C4B72310   0.347  39.356   7.231
 5716POPC   NC372311   1.349  16.263   5.214
 5716POPC   PO472312   1.128  15.729   5.474
 5716POPC   GL172313   1.294  16.076   5.708
 5716POPC   GL272314   1.642  15.973   5.762
 5716POPC   C1A72315   1.141  16.194   6.136
 5716POPC   D2A72316   1.045  15.902   6.505
 5716POPC   C3A72317   0.952  15.982   6.946
 5716POPC   C4A72318   0.895  16.179   7.327
 5716POPC   C1B72319   1.672  16.251   6.113
 5716POPC   C2B72320   1.492  16.242   6.506
 5716POPC   C3B72321   1.454  15.982   6.837
 5716POPC   C4B72322   1.392  16.054   7.274
 5717POPC   NC372323   7.475  37.293   5.412
 5717POPC   PO472324   7.211  36.630   5.414
 5717POPC   GL172325   7.397  36.743   5.803
 5717POPC   GL272326   7.317  37.086   5.855
 5717POPC   C1A72327   7.443  36.764   6.267
 5717POPC   D2A72328   7.710  36.718   6.642
 5717POPC   C3A72329   7.503  36.854   7.030
 5717POPC   C4A72330   7.590  37.138   7.387
 5717POPC   C1B72331   7.135  37.190   6.256
 5717POPC   C2B72332   7.331  37.234   6.665
 5717POPC   C3B72333   7.149  37.227   7.081
 5717POPC   C4B72334   6.892  36.868   7.154
 5718POPC   NC372335  10.675  28.797   5.421
 5718POPC   PO472336  10.907  28.186   5.447
 5718POPC   GL172337  10.612  28.346   5.790
 5718POPC   GL272338  10.249  28.236   5.831
 5718POPC   C1A72339  10.603  28.166   6.220
 5718POPC   D2A72340  10.741  27.919   6.607
 5718POPC   C3A72341  10.681  28.190   6.977
 5718POPC   C4A72342  10.406  28.479   7.184
 5718POPC   C1B72343  10.102  28.068   6.197
 5718POPC   C2B72344  10.247  28.154   6.599
 5718POPC   C3B72345  10.130  28.082   6.983
 5718POPC   C4B72346   9.985  28.253   7.354
 5719POPC   NC372347  44.659   2.417   5.452
 5719POPC   PO472348  44.375   1.811   5.478
 5719POPC   GL172349  44.621   1.858   5.867
 5719POPC   GL272350  44.521   2.207   5.876
 5719POPC   C1A72351  44.790   1.722   6.295
 5719POPC   D2A72352  44.826   1.679   6.743
 5719POPC   C3A72353  44.602   1.898   7.036
 5719POPC   C4A72354  44.527   1.830   7.476
 5719POPC   C1B72355  44.748   2.236   6.229
 5719POPC   C2B72356  44.587   2.390   6.597
 5719POPC   C3B72357  44.704   2.406   6.992
 5719POPC   C4B72358  44.650   2.298   7.380
 5720POPC   NC372359   5.854   0.591   5.291
 5720POPC   PO472360   6.215   0.044   5.264
 5720POPC   GL172361   6.090   0.320   5.665
 5720POPC   GL272362   5.735   0.290   5.810
 5720POPC   C1A72363   6.112   0.315   6.150
 5720POPC   D2A72364   5.878   0.466   6.552
 5720POPC   C3A72365   6.064   0.416   6.953
 5720POPC   C4A72366   5.856   0.327   7.327
 5720POPC   C1B72367   5.501   0.499   6.182
 5720POPC   C2B72368   5.403   0.702   6.587
 5720POPC   C3B72369   5.618   0.727   7.008
 5720POPC   C4B72370   5.584   0.729   7.515
 5721POPC   NC372371  26.398  19.063   5.562
 5721POPC   PO472372  27.034  19.450   5.681
 5721POPC   GL172373  26.811  19.094   5.887
 5721POPC   GL272374  27.050  18.810   5.901
 5721POPC   C1A72375  26.615  18.885   6.235
 5721POPC   D2A72376  26.704  19.091   6.611
 5721POPC   C3A72377  26.567  18.995   7.014
 5721POPC   C4A72378  26.797  19.285   7.262
 5721POPC   C1B72379  27.062  18.605   6.288
 5721POPC   C2B72380  26.906  18.626   6.701
 5721POPC   C3B72381  27.058  18.772   7.098
 5721POPC   C4B72382  26.923  18.884   7.536
 5722POPC   NC372383   8.456   2.181   5.358
 5722POPC   PO472384   7.847   2.072   5.573
 5722POPC   GL172385   8.207   2.233   5.815
 5722POPC   GL272386   8.385   1.908   5.780
 5722POPC   C1A72387   8.370   2.169   6.255
 5722POPC   D2A72388   8.234   2.057   6.679
 5722POPC   C3A72389   8.234   2.193   7.119
 5722POPC   C4A72390   8.114   2.141   7.552
 5722POPC   C1B72391   8.566   1.708   6.115
 5722POPC   C2B72392   8.489   1.621   6.537
 5722POPC   C3B72393   8.562   1.790   6.943
 5722POPC   C4B72394   8.403   1.770   7.329
 5723POPC   NC372395  13.303  34.684   5.067
 5723POPC   PO472396  12.770  34.716   5.454
 5723POPC   GL172397  12.794  34.616   5.845
 5723POPC   GL272398  12.684  34.282   5.831
 5723POPC   C1A72399  12.949  34.703   6.239
 5723POPC   D2A72400  13.202  34.556   6.552
 5723POPC   C3A72401  13.027  34.632   6.939
 5723POPC   C4A72402  12.799  34.609   7.307
 5723POPC   C1B72403  12.494  34.387   6.208
 5723POPC   C2B72404  12.662  34.472   6.596
 5723POPC   C3B72405  12.684  34.246   6.974
 5723POPC   C4B72406  12.628  34.120   7.406
 5724POPC   NC372407  37.376  33.921   5.677
 5724POPC   PO472408  37.967  33.926   5.353
 5724POPC   GL172409  37.853  33.758   5.773
 5724POPC   GL272410  37.858  34.087   5.851
 5724POPC   C1A72411  37.594  33.703   6.223
 5724POPC   D2A72412  37.415  33.703   6.664
 5724POPC   C3A72413  37.630  33.502   6.996
 5724POPC   C4A72414  37.774  33.607   7.392
 5724POPC   C1B72415  38.029  33.953   6.226
 5724POPC   C2B72416  37.946  33.726   6.599
 5724POPC   C3B72417  37.969  33.886   6.985
 5724POPC   C4B72418  38.174  33.909   7.379
 5725POPC   NC372419  19.047  35.587   5.408
 5725POPC   PO472420  18.491  35.218   5.338
 5725POPC   GL172421  18.903  35.130   5.629
 5725POPC   GL272422  19.263  35.288   5.762
 5725POPC   C1A72423  18.949  35.092   6.094
 5725POPC   D2A72424  19.182  35.251   6.438
 5725POPC   C3A72425  19.116  35.049   6.821
 5725POPC   C4A72426  19.240  35.160   7.230
 5725POPC   C1B72427  19.293  35.656   6.107
 5725POPC   C2B72428  19.008  35.734   6.477
 5725POPC   C3B72429  19.105  35.569   6.892
 5725POPC   C4B72430  19.405  35.791   7.158
 5726POPC   NC372431  25.241   9.571   5.362
 5726POPC   PO472432  24.835  10.081   5.494
 5726POPC   GL172433  25.093   9.824   5.773
 5726POPC   GL272434  25.462   9.722   5.807
 5726POPC   C1A72435  25.078   9.576   6.130
 5726POPC   D2A72436  25.024   9.734   6.523
 5726POPC   C3A72437  25.256   9.562   6.824
 5726POPC   C4A72438  25.224   9.662   7.216
 5726POPC   C1B72439  25.600   9.997   6.176
 5726POPC   C2B72440  25.449  10.115   6.604
 5726POPC   C3B72441  25.590   9.949   7.007
 5726POPC   C4B72442  25.611   9.817   7.489
 5727POPC   NC372443   2.105  11.190   5.216
 5727POPC   PO472444   2.220  11.820   5.221
 5727POPC   GL172445   2.082  11.518   5.604
 5727POPC   GL272446   1.775  11.403   5.763
 5727POPC   C1A72447   2.206  11.210   5.986
 5727POPC   D2A72448   2.336  11.107   6.451
 5727POPC   C3A72449   2.131  11.082   6.893
 5727POPC   C4A72450   2.148  10.970   7.337
 5727POPC   C1B72451   1.845  11.465   6.218
 5727POPC   C2B72452   1.773  11.335   6.612
 5727POPC   C3B72453   1.765  11.541   6.973
 5727POPC   C4B72454   1.789  11.314   7.303
 5728POPC   NC372455  11.267  13.264   5.360
 5728POPC   PO472456  11.131  12.549   5.432
 5728POPC   GL172457  11.407  12.836   5.718
 5728POPC   GL272458  11.187  13.053   5.826
 5728POPC   C1A72459  11.617  12.932   6.148
 5728POPC   D2A72460  11.525  12.761   6.587
 5728POPC   C3A72461  11.648  12.947   6.999
 5728POPC   C4A72462  11.612  12.857   7.471
 5728POPC   C1B72463  11.114  12.938   6.260
 5728POPC   C2B72464  10.873  13.140   6.578
 5728POPC   C3B72465  10.942  13.045   7.017
 5728POPC   C4B72466  11.224  12.720   7.165
 5729POPC   NC372467  31.748  21.157   5.811
 5729POPC   PO472468  32.249  20.743   5.483
 5729POPC   GL172469  32.147  20.737   5.872
 5729POPC   GL272470  32.336  20.993   5.928
 5729POPC   C1A72471  32.163  20.725   6.315
 5729POPC   D2A72472  32.016  20.497   6.621
 5729POPC   C3A72473  32.213  20.566   6.978
 5729POPC   C4A72474  32.290  20.305   7.302
 5729POPC   C1B72475  32.569  21.037   6.354
 5729POPC   C2B72476  32.464  20.982   6.803
 5729POPC   C3B72477  32.436  20.998   7.282
 5729POPC   C4B72478  32.430  21.001   7.753
 5730POPC   NC372479   9.407  10.396   5.543
 5730POPC   PO472480  10.081  10.379   5.633
 5730POPC   GL172481   9.793  10.492   5.895
 5730POPC   GL272482   9.687  10.823   5.781
 5730POPC   C1A72483   9.699  10.392   6.291
 5730POPC   D2A72484   9.665  10.580   6.664
 5730POPC   C3A72485   9.778  10.323   7.003
 5730POPC   C4A72486   9.609  10.222   7.397
 5730POPC   C1B72487   9.572  10.912   6.205
 5730POPC   C2B72488   9.558  11.089   6.621
 5730POPC   C3B72489   9.599  10.932   7.031
 5730POPC   C4B72490   9.755  10.693   7.342
 5731POPC   NC372491  40.854  31.278   5.207
 5731POPC   PO472492  40.816  30.642   5.287
 5731POPC   GL172493  40.910  30.573   5.756
 5731POPC   GL272494  40.588  30.603   5.884
 5731POPC   C1A72495  40.958  30.730   6.227
 5731POPC   D2A72496  40.878  31.023   6.574
 5731POPC   C3A72497  40.635  30.842   6.916
 5731POPC   C4A72498  40.863  30.823   7.284
 5731POPC   C1B72499  40.592  30.367   6.292
 5731POPC   C2B72500  40.502  30.360   6.758
 5731POPC   C3B72501  40.466  30.420   7.200
 5731POPC   C4B72502  40.399  30.782   7.461
 5732POPC   NC372503   0.861  33.068   5.317
 5732POPC   PO472504   1.529  33.173   5.449
 5732POPC   GL172505   1.185  33.100   5.779
 5732POPC   GL272506   1.036  32.739   5.790
 5732POPC   C1A72507   1.230  33.132   6.249
 5732POPC   D2A72508   1.253  32.798   6.592
 5732POPC   C3A72509   1.315  32.989   7.001
 5732POPC   C4A72510   1.417  33.388   7.214
 5732POPC   C1B72511   0.868  32.786   6.213
 5732POPC   C2B72512   0.825  33.075   6.569
 5732POPC   C3B72513   0.822  32.935   6.977
 5732POPC   C4B72514   0.902  33.218   7.261
 5733POPC   NC372515   0.795  37.044   5.412
 5733POPC   PO472516   1.298  36.550   5.340
 5733POPC   GL172517   1.343  36.649   5.782
 5733POPC   GL272518   0.995  36.570   5.811
 5733POPC   C1A72519   1.499  36.952   6.129
 5733POPC   D2A72520   1.623  37.199   6.506
 5733POPC   C3A72521   1.436  37.142   6.925
 5733POPC   C4A72522   1.506  36.870   7.284
 5733POPC   C1B72523   0.972  36.892   6.101
 5733POPC   C2B72524   1.124  36.928   6.511
 5733POPC   C3B72525   1.082  36.754   6.907
 5733POPC   C4B72526   1.013  36.839   7.330
 5734POPC   NC372527  23.569  13.163   5.094
 5734POPC   PO472528  23.883  13.699   5.422
 5734POPC   GL172529  23.730  13.543   5.811
 5734POPC   GL272530  23.408  13.712   5.852
 5734POPC   C1A72531  23.896  13.529   6.239
 5734POPC   D2A72532  23.914  13.331   6.649
 5734POPC   C3A72533  23.873  13.650   6.961
 5734POPC   C4A72534  23.758  14.044   7.168
 5734POPC   C1B72535  23.396  13.401   6.201
 5734POPC   C2B72536  23.399  13.250   6.613
 5734POPC   C3B72537  23.440  13.362   7.063
 5734POPC   C4B72538  23.401  13.374   7.523
 5735POPC   NC372539  13.430  39.062   5.390
 5735POPC   PO472540  14.057  39.020   5.199
 5735POPC   GL172541  13.944  39.368   5.574
 5735POPC   GL272542  13.621  39.316   5.796
 5735POPC   C1A72543  14.027  39.452   6.067
 5735POPC   D2A72544  13.723  39.340   6.437
 5735POPC   C3A72545  13.817  39.265   6.866
 5735POPC   C4A72546  13.671  39.372   7.276
 5735POPC   C1B72547  13.440  39.054   6.139
 5735POPC   C2B72548  13.256  39.079   6.544
 5735POPC   C3B72549  13.334  39.099   6.984
 5735POPC   C4B72550  13.058  39.013   7.306
 5736POPC   NC372551  37.839   5.312   5.305
 5736POPC   PO472552  37.454   4.790   5.545
 5736POPC   GL172553  37.765   5.031   5.733
 5736POPC   GL272554  37.672   5.336   5.834
 5736POPC   C1A72555  37.911   5.005   6.165
 5736POPC   D2A72556  37.687   5.321   6.410
 5736POPC   C3A72557  37.665   5.271   6.870
 5736POPC   C4A72558  37.829   5.010   7.217
 5736POPC   C1B72559  37.394   5.056   6.112
 5736POPC   C2B72560  37.468   4.875   6.524
 5736POPC   C3B72561  37.543   4.710   6.918
 5736POPC   C4B72562  37.326   4.796   7.304
 5737POPC   NC372563   7.015   5.940   5.350
 5737POPC   PO472564   7.635   5.705   5.425
 5737POPC   GL172565   7.458   5.922   5.759
 5737POPC   GL272566   7.195   5.702   5.829
 5737POPC   C1A72567   7.459   6.038   6.203
 5737POPC   D2A72568   7.718   6.068   6.584
 5737POPC   C3A72569   7.462   6.015   6.964
 5737POPC   C4A72570   7.554   6.059   7.396
 5737POPC   C1B72571   7.316   5.474   6.233
 5737POPC   C2B72572   7.481   5.598   6.616
 5737POPC   C3B72573   7.284   5.473   7.001
 5737POPC   C4B72574   7.227   5.694   7.379
 5738POPC   NC372575  30.547   3.989   5.315
 5738POPC   PO472576  30.927   4.600   5.440
 5738POPC   GL172577  30.783   4.432   5.838
 5738POPC   GL272578  30.653   4.116   5.838
 5738POPC   C1A72579  30.665   4.441   6.312
 5738POPC   D2A72580  30.311   4.636   6.565
 5738POPC   C3A72581  30.333   4.602   7.042
 5738POPC   C4A72582  30.532   4.369   7.391
 5738POPC   C1B72583  30.854   3.957   6.226
 5738POPC   C2B72584  30.857   4.081   6.667
 5738POPC   C3B72585  30.720   4.005   7.098
 5738POPC   C4B72586  30.736   3.928   7.578
 5739POPC   NC372587  11.526  16.855   5.289
 5739POPC   PO472588  10.999  16.602   5.623
 5739POPC   GL172589  11.141  16.744   5.981
 5739POPC   GL272590  11.483  16.810   5.870
 5739POPC   C1A72591  11.097  16.772   6.382
 5739POPC   D2A72592  11.408  16.607   6.594
 5739POPC   C3A72593  11.271  16.773   6.957
 5739POPC   C4A72594  11.408  16.683   7.367
 5739POPC   C1B72595  11.452  17.114   6.210
 5739POPC   C2B72596  11.533  17.090   6.652
 5739POPC   C3B72597  11.658  17.063   7.088
 5739POPC   C4B72598  11.600  17.332   7.437
 5740POPC   NC372599   6.881   3.333   5.389
 5740POPC   PO472600   6.361   3.788   5.491
 5740POPC   GL172601   6.689   3.628   5.762
 5740POPC   GL272602   6.598   3.283   5.819
 5740POPC   C1A72603   6.880   3.555   6.167
 5740POPC   D2A72604   6.717   3.682   6.560
 5740POPC   C3A72605   6.980   3.797   6.899
 5740POPC   C4A72606   6.920   3.665   7.311
 5740POPC   C1B72607   6.746   3.053   6.135
 5740POPC   C2B72608   6.838   3.173   6.512
 5740POPC   C3B72609   6.799   3.295   6.906
 5740POPC   C4B72610   6.900   3.163   7.287
 5741POPC   NC372611  33.473  32.341   5.610
 5741POPC   PO472612  32.886  32.082   5.522
 5741POPC   GL172613  33.088  32.215   5.939
 5741POPC   GL272614  33.327  32.491   6.066
 5741POPC   C1A72615  33.164  32.163   6.402
 5741POPC   D2A72616  33.062  32.225   6.834
 5741POPC   C3A72617  33.203  31.912   7.116
 5741POPC   C4A72618  33.258  31.999   7.582
 5741POPC   C1B72619  32.930  32.623   6.225
 5741POPC   C2B72620  32.708  32.612   6.636
 5741POPC   C3B72621  32.873  32.642   7.088
 5741POPC   C4B72622  33.248  32.421   7.280
 5742POPC   NC372623  40.040  24.420   5.419
 5742POPC   PO472624  40.016  25.124   5.363
 5742POPC   GL172625  39.806  24.866   5.732
 5742POPC   GL272626  39.875  24.502   5.878
 5742POPC   C1A72627  39.825  24.893   6.191
 5742POPC   D2A72628  40.009  24.857   6.627
 5742POPC   C3A72629  39.759  24.704   6.978
 5742POPC   C4A72630  39.758  24.611   7.425
 5742POPC   C1B72631  40.140  24.472   6.261
 5742POPC   C2B72632  40.115  24.310   6.682
 5742POPC   C3B72633  39.930  24.188   7.070
 5742POPC   C4B72634  40.218  24.164   7.414
 5743POPC   NC372635  37.474  30.999   5.473
 5743POPC   PO472636  37.691  30.410   5.391
 5743POPC   GL172637  37.679  30.617   5.763
 5743POPC   GL272638  37.350  30.502   5.781
 5743POPC   C1A72639  37.791  30.848   6.142
 5743POPC   D2A72640  37.716  30.666   6.554
 5743POPC   C3A72641  37.866  30.742   6.960
 5743POPC   C4A72642  37.652  30.835   7.331
 5743POPC   C1B72643  37.493  30.386   6.197
 5743POPC   C2B72644  37.295  30.386   6.640
 5743POPC   C3B72645  37.282  30.365   7.104
 5743POPC   C4B72646  37.340  30.489   7.567
 5744POPC   NC372647  34.664  10.726   5.590
 5744POPC   PO472648  34.917  10.134   5.711
 5744POPC   GL172649  34.749  10.325   6.014
 5744POPC   GL272650  34.425  10.347   5.839
 5744POPC   C1A72651  34.899  10.617   6.319
 5744POPC   D2A72652  34.985  10.869   6.677
 5744POPC   C3A72653  34.690  10.766   6.999
 5744POPC   C4A72654  34.861  10.485   7.281
 5744POPC   C1B72655  34.399  10.635   6.203
 5744POPC   C2B72656  34.452  10.484   6.613
 5744POPC   C3B72657  34.372  10.162   6.921
 5744POPC   C4B72658  34.399  10.317   7.338
 5745POPC   NC372659  15.253  39.445   5.552
 5745POPC   PO472660  14.755  39.046   5.314
 5745POPC   GL172661  14.983  39.007   5.789
 5745POPC   GL272662  15.346  39.114   5.896
 5745POPC   C1A72663  14.981  39.196   6.243
 5745POPC   D2A72664  14.910  39.028   6.646
 5745POPC   C3A72665  14.931  39.214   7.071
 5745POPC   C4A72666  15.163  39.278   7.476
 5745POPC   C1B72667  15.425  39.451   6.207
 5745POPC   C2B72668  15.372  39.343   6.647
 5745POPC   C3B72669  15.457  39.194   7.072
 5745POPC   C4B72670  15.573  39.548   7.368
 5746POPC   NC372671  23.941  37.942   5.400
 5746POPC   PO472672  23.297  37.694   5.231
 5746POPC   GL172673  23.505  37.776   5.669
 5746POPC   GL272674  23.678  37.481   5.785
 5746POPC   C1A72675  23.712  37.913   6.101
 5746POPC   D2A72676  23.798  38.125   6.526
 5746POPC   C3A72677  23.781  37.934   6.967
 5746POPC   C4A72678  23.831  37.631   7.318
 5746POPC   C1B72679  23.893  37.412   6.178
 5746POPC   C2B72680  23.933  37.104   6.539
 5746POPC   C3B72681  23.955  37.205   6.993
 5746POPC   C4B72682  24.246  37.283   7.337
 5747POPC   NC372683  31.237  34.001   5.356
 5747POPC   PO472684  31.937  33.901   5.480
 5747POPC   GL172685  31.578  33.789   5.751
 5747POPC   GL272686  31.530  34.109   5.780
 5747POPC   C1A72687  31.364  33.649   6.171
 5747POPC   D2A72688  31.251  33.479   6.603
 5747POPC   C3A72689  31.553  33.419   6.930
 5747POPC   C4A72690  31.621  33.617   7.333
 5747POPC   C1B72691  31.268  34.157   6.130
 5747POPC   C2B72692  31.190  33.987   6.564
 5747POPC   C3B72693  31.336  33.906   6.983
 5747POPC   C4B72694  31.428  34.207   7.319
 5748POPC   NC372695  36.947   9.980   5.489
 5748POPC   PO472696  36.824  10.565   5.429
 5748POPC   GL172697  36.710  10.599   5.840
 5748POPC   GL272698  36.592  10.255   5.840
 5748POPC   C1A72699  36.888  10.675   6.292
 5748POPC   D2A72700  37.022  10.357   6.650
 5748POPC   C3A72701  36.803  10.317   7.032
 5748POPC   C4A72702  36.923  10.746   7.130
 5748POPC   C1B72703  36.450  10.445   6.244
 5748POPC   C2B72704  36.530  10.492   6.645
 5748POPC   C3B72705  36.430  10.690   6.997
 5748POPC   C4B72706  36.534  10.561   7.423
 5749POPC   NC372707  38.146  24.445   5.384
 5749POPC   PO472708  38.766  24.426   5.302
 5749POPC   GL172709  38.557  24.439   5.722
 5749POPC   GL272710  38.473  24.759   5.795
 5749POPC   C1A72711  38.481  24.396   6.201
 5749POPC   D2A72712  38.283  24.271   6.618
 5749POPC   C3A72713  38.451  24.264   7.024
 5749POPC   C4A72714  38.730  24.570   7.203
 5749POPC   C1B72715  38.269  24.920   6.170
 5749POPC   C2B72716  38.377  24.793   6.589
 5749POPC   C3B72717  38.274  24.790   7.022
 5749POPC   C4B72718  38.039  25.063   7.302
 5750POPC   NC372719  20.806  13.426   5.498
 5750POPC   PO472720  20.217  13.775   5.583
 5750POPC   GL172721  20.502  13.613   5.850
 5750POPC   GL272722  20.662  13.934   5.856
 5750POPC   C1A72723  20.524  13.398   6.233
 5750POPC   D2A72724  20.730  13.475   6.632
 5750POPC   C3A72725  20.603  13.306   7.001
 5750POPC   C4A72726  20.823  13.292   7.388
 5750POPC   C1B72727  20.298  13.926   6.177
 5750POPC   C2B72728  20.341  13.776   6.541
 5750POPC   C3B72729  20.518  13.907   6.878
 5750POPC   C4B72730  20.566  13.740   7.246
 5751POPC   NC372731  26.447   5.643   5.531
 5751POPC   PO472732  26.844   6.185   5.401
 5751POPC   GL172733  26.789   5.971   5.809
 5751POPC   GL272734  26.502   6.136   5.907
 5751POPC   C1A72735  26.731   5.642   6.169
 5751POPC   D2A72736  26.904   5.518   6.603
 5751POPC   C3A72737  26.881   5.820   6.918
 5751POPC   C4A72738  27.088   5.859   7.299
 5751POPC   C1B72739  26.623   6.136   6.354
 5751POPC   C2B72740  26.590   6.217   6.811
 5751POPC   C3B72741  26.751   6.233   7.239
 5751POPC   C4B72742  26.616   6.198   7.731
 5752POPC   NC372743  25.171  31.397   5.234
 5752POPC   PO472744  25.677  31.450   5.590
 5752POPC   GL172745  25.381  31.278   5.822
 5752POPC   GL272746  25.058  31.394   5.784
 5752POPC   C1A72747  25.405  31.381   6.225
 5752POPC   D2A72748  25.303  31.496   6.611
 5752POPC   C3A72749  25.390  31.444   7.014
 5752POPC   C4A72750  25.190  31.754   7.210
 5752POPC   C1B72751  24.936  31.215   6.193
 5752POPC   C2B72752  24.820  31.325   6.622
 5752POPC   C3B72753  24.901  31.334   7.067
 5752POPC   C4B72754  25.022  31.357   7.510
 5753POPC   NC372755  39.435  36.551   5.544
 5753POPC   PO472756  38.728  36.584   5.461
 5753POPC   GL172757  39.008  36.667   5.834
 5753POPC   GL272758  39.238  36.974   5.847
 5753POPC   C1A72759  39.302  36.604   6.191
 5753POPC   D2A72760  39.155  36.525   6.582
 5753POPC   C3A72761  39.342  36.669   6.981
 5753POPC   C4A72762  39.081  36.977   7.187
 5753POPC   C1B72763  39.434  37.105   6.253
 5753POPC   C2B72764  39.324  37.100   6.704
 5753POPC   C3B72765  39.548  37.133   7.109
 5753POPC   C4B72766  39.335  37.245   7.546
 5754POPC   NC372767  34.552  25.271   5.383
 5754POPC   PO472768  34.204  24.729   5.443
 5754POPC   GL172769  34.330  25.029   5.809
 5754POPC   GL272770  34.375  25.392   5.834
 5754POPC   C1A72771  34.509  25.129   6.257
 5754POPC   D2A72772  34.380  25.237   6.686
 5754POPC   C3A72773  34.690  25.304   6.993
 5754POPC   C4A72774  34.722  24.998   7.268
 5754POPC   C1B72775  34.387  25.664   6.150
 5754POPC   C2B72776  34.305  25.861   6.526
 5754POPC   C3B72777  34.254  25.704   6.920
 5754POPC   C4B72778  34.404  25.645   7.284
 5755POPC   NC372779  21.631  31.104   5.138
 5755POPC   PO472780  22.115  31.624   5.336
 5755POPC   GL172781  22.001  31.525   5.747
 5755POPC   GL272782  22.300  31.680   5.853
 5755POPC   C1A72783  22.106  31.291   6.135
 5755POPC   D2A72784  22.326  31.437   6.506
 5755POPC   C3A72785  22.156  31.315   6.899
 5755POPC   C4A72786  21.873  31.632   7.026
 5755POPC   C1B72787  22.398  31.918   6.230
 5755POPC   C2B72788  22.566  31.915   6.628
 5755POPC   C3B72789  22.457  31.721   7.009
 5755POPC   C4B72790  22.634  31.827   7.416
 5756POPC   NC372791  41.794  11.867   5.281
 5756POPC   PO472792  41.467  12.492   5.314
 5756POPC   GL172793  41.506  12.163   5.673
 5756POPC   GL272794  41.552  11.778   5.729
 5756POPC   C1A72795  41.627  12.111   6.130
 5756POPC   D2A72796  41.686  11.891   6.537
 5756POPC   C3A72797  41.624  12.116   6.943
 5756POPC   C4A72798  41.730  12.209   7.398
 5756POPC   C1B72799  41.357  11.662   6.113
 5756POPC   C2B72800  41.181  11.778   6.515
 5756POPC   C3B72801  41.342  11.663   6.908
 5756POPC   C4B72802  41.236  11.913   7.245
 5757POPC   NC372803  14.082   1.927   5.412
 5757POPC   PO472804  13.370   1.986   5.471
 5757POPC   GL172805  13.663   1.923   5.805
 5757POPC   GL272806  13.861   1.659   5.861
 5757POPC   C1A72807  13.671   2.011   6.241
 5757POPC   D2A72808  13.496   2.235   6.595
 5757POPC   C3A72809  13.617   1.999   6.949
 5757POPC   C4A72810  13.791   1.996   7.348
 5757POPC   C1B72811  14.070   1.673   6.251
 5757POPC   C2B72812  13.909   1.653   6.672
 5757POPC   C3B72813  14.108   1.720   7.054
 5757POPC   C4B72814  14.032   1.555   7.473
 5758POPC   NC372815  20.228  16.290   5.615
 5758POPC   PO472816  19.896  15.866   5.187
 5758POPC   GL172817  20.025  15.816   5.639
 5758POPC   GL272818  20.048  15.541   5.876
 5758POPC   C1A72819  19.827  15.957   6.059
 5758POPC   D2A72820  19.701  15.969   6.508
 5758POPC   C3A72821  19.761  16.223   6.870
 5758POPC   C4A72822  19.512  16.104   7.222
 5758POPC   C1B72823  19.776  15.487   6.261
 5758POPC   C2B72824  19.897  15.528   6.691
 5758POPC   C3B72825  19.856  15.721   7.100
 5758POPC   C4B72826  19.801  15.851   7.534
 5759POPC   NC372827  35.613  22.904   5.453
 5759POPC   PO472828  35.043  23.254   5.514
 5759POPC   GL172829  35.326  23.061   5.843
 5759POPC   GL272830  35.292  22.750   6.011
 5759POPC   C1A72831  35.526  23.103   6.278
 5759POPC   D2A72832  35.308  22.938   6.642
 5759POPC   C3A72833  35.505  23.070   7.022
 5759POPC   C4A72834  35.547  22.961   7.474
 5759POPC   C1B72835  35.003  23.089   6.232
 5759POPC   C2B72836  34.921  23.303   6.645
 5759POPC   C3B72837  34.990  23.039   7.040
 5759POPC   C4B72838  35.188  22.668   7.221
 5760POPC   NC372839  38.651   4.088   5.493
 5760POPC   PO472840  38.371   4.673   5.465
 5760POPC   GL172841  38.385   4.376   5.802
 5760POPC   GL272842  38.626   4.562   5.978
 5760POPC   C1A72843  38.504   4.098   6.154
 5760POPC   D2A72844  38.609   4.304   6.522
 5760POPC   C3A72845  38.460   4.208   6.907
 5760POPC   C4A72846  38.791   3.982   7.077
 5760POPC   C1B72847  38.221   4.551   6.249
 5760POPC   C2B72848  37.974   4.672   6.607
 5760POPC   C3B72849  38.134   4.660   7.029
 5760POPC   C4B72850  38.512   4.534   7.303
 5761POPC   NC372851  16.091  36.171   5.187
 5761POPC   PO472852  15.585  36.077   5.538
 5761POPC   GL172853  15.907  35.987   5.814
 5761POPC   GL272854  16.085  36.291   5.697
 5761POPC   C1A72855  15.848  35.947   6.276
 5761POPC   D2A72856  15.872  36.171   6.676
 5761POPC   C3A72857  15.925  35.973   7.084
 5761POPC   C4A72858  16.255  35.899   7.359
 5761POPC   C1B72859  16.163  36.345   6.130
 5761POPC   C2B72860  16.258  36.518   6.542
 5761POPC   C3B72861  16.094  36.535   6.966
 5761POPC   C4B72862  16.348  36.429   7.320
 5762POPC   NC372863  42.931  12.256   5.164
 5762POPC   PO472864  42.235  12.066   5.338
 5762POPC   GL172865  42.301  12.234   5.743
 5762POPC   GL272866  42.530  12.531   5.658
 5762POPC   C1A72867  42.151  12.126   6.160
 5762POPC   D2A72868  42.199  11.912   6.555
 5762POPC   C3A72869  42.142  12.087   6.940
 5762POPC   C4A72870  42.185  11.919   7.337
 5762POPC   C1B72871  42.513  12.538   6.121
 5762POPC   C2B72872  42.441  12.364   6.515
 5762POPC   C3B72873  42.422  12.508   6.924
 5762POPC   C4B72874  42.273  12.404   7.325
 5763POPC   NC372875  44.333  44.493   5.560
 5763POPC   PO472876  44.913  44.859   5.681
 5763POPC   GL172877  44.736  44.587   5.900
 5763POPC   GL272878  44.497  44.821   5.984
 5763POPC   C1A72879   0.000  44.425   6.214
 5763POPC   D2A72880  44.779  44.410   6.576
 5763POPC   C3A72881   0.020  44.453   6.934
 5763POPC   C4A72882  44.852  44.647   7.316
 5763POPC   C1B72883  44.776  44.876   6.347
 5763POPC   C2B72884  44.743  44.884   6.788
 5763POPC   C3B72885  44.560   0.013   7.159
 5763POPC   C4B72886  44.563   0.047   7.575
 5764POPC   NC372887   2.299  13.062   5.394
 5764POPC   PO472888   2.949  13.028   5.581
 5764POPC   GL172889   2.625  13.000   5.807
 5764POPC   GL272890   2.632  12.644   5.731
 5764POPC   C1A72891   2.788  13.142   6.197
 5764POPC   D2A72892   2.965  12.891   6.546
 5764POPC   C3A72893   2.873  13.085   6.929
 5764POPC   C4A72894   2.790  12.930   7.336
 5764POPC   C1B72895   2.665  12.635   6.189
 5764POPC   C2B72896   2.551  12.520   6.609
 5764POPC   C3B72897   2.558  12.565   7.047
 5764POPC   C4B72898   2.513  12.514   7.523
 5765POPC   NC372899   2.726  22.351   5.299
 5765POPC   PO472900   2.218  21.957   5.569
 5765POPC   GL172901   2.527  22.250   5.780
 5765POPC   GL272902   2.345  22.325   6.088
 5765POPC   C1A72903   2.839  22.438   6.107
 5765POPC   D2A72904   2.718  22.347   6.552
 5765POPC   C3A72905   2.967  22.320   6.920
 5765POPC   C4A72906   2.928  22.657   7.226
 5765POPC   C1B72907   2.627  21.968   6.224
 5765POPC   C2B72908   2.647  21.799   6.661
 5765POPC   C3B72909   2.639  21.914   7.133
 5765POPC   C4B72910   2.521  21.976   7.607
 5766POPC   NC372911  19.802   8.623   5.376
 5766POPC   PO472912  19.715   9.215   5.400
 5766POPC   GL172913  20.005   8.985   5.713
 5766POPC   GL272914  20.271   9.187   5.835
 5766POPC   C1A72915  19.995   8.873   6.184
 5766POPC   D2A72916  19.692   9.008   6.543
 5766POPC   C3A72917  19.722   8.930   7.020
 5766POPC   C4A72918  19.479   8.862   7.442
 5766POPC   C1B72919  20.195   9.340   6.235
 5766POPC   C2B72920  20.162   9.152   6.642
 5766POPC   C3B72921  20.063   9.333   7.021
 5766POPC   C4B72922  19.914   9.196   7.417
 5767POPC   NC372923   9.224  15.594   5.562
 5767POPC   PO472924   8.761  16.070   5.371
 5767POPC   GL172925   8.837  15.867   5.760
 5767POPC   GL272926   8.742  15.495   5.736
 5767POPC   C1A72927   9.056  16.008   6.185
 5767POPC   D2A72928   9.049  16.200   6.639
 5767POPC   C3A72929   9.003  16.003   7.092
 5767POPC   C4A72930   9.092  15.954   7.582
 5767POPC   C1B72931   8.742  15.607   6.180
 5767POPC   C2B72932   8.901  15.691   6.565
 5767POPC   C3B72933   8.950  15.491   6.924
 5767POPC   C4B72934   9.172  15.544   7.285
 5768POPC   NC372935  38.987  30.965   5.089
 5768POPC   PO472936  39.358  31.456   5.352
 5768POPC   GL172937  39.157  31.390   5.791
 5768POPC   GL272938  38.980  31.066   5.754
 5768POPC   C1A72939  39.230  31.378   6.276
 5768POPC   D2A72940  39.031  31.482   6.691
 5768POPC   C3A72941  39.316  31.513   7.032
 5768POPC   C4A72942  39.515  31.740   7.355
 5768POPC   C1B72943  38.807  31.101   6.166
 5768POPC   C2B72944  38.673  31.110   6.627
 5768POPC   C3B72945  38.889  31.119   7.039
 5768POPC   C4B72946  39.118  31.252   7.428
 5769POPC   NC372947  37.919  13.228   5.150
 5769POPC   PO472948  37.543  12.812   5.458
 5769POPC   GL172949  37.773  12.770   5.866
 5769POPC   GL272950  37.442  12.588   5.974
 5769POPC   C1A72951  37.822  12.622   6.306
 5769POPC   D2A72952  37.644  12.872   6.618
 5769POPC   C3A72953  37.776  12.874   7.056
 5769POPC   C4A72954  38.121  13.051   7.311
 5769POPC   C1B72955  37.455  13.037   6.145
 5769POPC   C2B72956  37.758  13.305   6.376
 5769POPC   C3B72957  37.657  13.347   6.791
 5769POPC   C4B72958  37.724  13.358   7.189
 5770POPC   NC372959  12.174  24.810   5.476
 5770POPC   PO472960  12.213  24.135   5.273
 5770POPC   GL172961  12.296  24.304   5.671
 5770POPC   GL272962  11.949  24.259   5.718
 5770POPC   C1A72963  12.226  24.490   6.089
 5770POPC   D2A72964  12.090  24.779   6.423
 5770POPC   C3A72965  12.028  24.583   6.810
 5770POPC   C4A72966  12.017  24.593   7.244
 5770POPC   C1B72967  11.791  24.054   6.092
 5770POPC   C2B72968  11.588  24.180   6.507
 5770POPC   C3B72969  11.726  24.192   6.950
 5770POPC   C4B72970  12.141  24.115   7.104
 5771POPC   NC372971  30.245  15.663   5.120
 5771POPC   PO472972  30.819  16.088   5.339
 5771POPC   GL172973  30.722  15.785   5.745
 5771POPC   GL272974  30.361  15.710   5.798
 5771POPC   C1A72975  30.680  15.907   6.182
 5771POPC   D2A72976  30.978  15.987   6.499
 5771POPC   C3A72977  30.810  15.973   6.910
 5771POPC   C4A72978  30.723  16.046   7.322
 5771POPC   C1B72979  30.229  15.653   6.224
 5771POPC   C2B72980  30.428  15.791   6.625
 5771POPC   C3B72981  30.411  15.689   7.072
 5771POPC   C4B72982  30.472  15.641   7.513
 5772POPC   NC372983  12.394  15.347   5.352
 5772POPC   PO472984  11.921  14.807   5.376
 5772POPC   GL172985  11.921  15.057   5.746
 5772POPC   GL272986  11.898  15.415   5.648
 5772POPC   C1A72987  11.965  14.990   6.208
 5772POPC   D2A72988  11.727  15.112   6.604
 5772POPC   C3A72989  11.809  14.856   6.954
 5772POPC   C4A72990  11.812  15.018   7.339
 5772POPC   C1B72991  12.051  15.478   6.090
 5772POPC   C2B72992  12.187  15.346   6.540
 5772POPC   C3B72993  12.072  15.297   6.992
 5772POPC   C4B72994  12.257  15.332   7.436
 5773POPC   NC372995  26.047   6.991   5.424
 5773POPC   PO472996  25.860   6.302   5.421
 5773POPC   GL172997  26.094   6.446   5.808
 5773POPC   GL272998  26.215   6.767   5.841
 5773POPC   C1A72999  26.148   6.324   6.243
 5773POPC   D2A73000  26.281   6.565   6.614
 5773POPC   C3A73001  26.152   6.478   7.011
 5773POPC   C4A73002  26.269   6.213   7.319
 5773POPC   C1B73003  26.080   6.850   6.252
 5773POPC   C2B73004  25.932   6.971   6.661
 5773POPC   C3B73005  25.730   7.080   7.040
 5773POPC   C4B73006  25.636   6.796   7.373
 5774POPC   NC373007  33.351   1.167   5.684
 5774POPC   PO473008  32.721   1.078   5.438
 5774POPC   GL173009  32.861   1.266   5.829
 5774POPC   GL273010  32.892   1.650   5.767
 5774POPC   C1A73011  32.996   1.071   6.242
 5774POPC   D2A73012  33.040   0.843   6.647
 5774POPC   C3A73013  33.151   0.973   7.041
 5774POPC   C4A73014  32.874   1.057   7.345
 5774POPC   C1B73015  32.800   1.590   6.219
 5774POPC   C2B73016  32.815   1.359   6.629
 5774POPC   C3B73017  32.940   1.465   7.042
 5774POPC   C4B73018  32.809   1.571   7.462
 5775POPC   NC373019  11.280  18.330   5.399
 5775POPC   PO473020  11.756  18.779   5.663
 5775POPC   GL173021  11.555  18.421   5.807
 5775POPC   GL273022  11.540  18.595   6.106
 5775POPC   C1A73023  11.277  18.152   6.056
 5775POPC   D2A73024  11.199  17.989   6.466
 5775POPC   C3A73025  11.286  18.066   6.895
 5775POPC   C4A73026  10.978  18.134   7.247
 5775POPC   C1B73027  11.391  18.457   6.477
 5775POPC   C2B73028  11.271  18.591   6.855
 5775POPC   C3B73029  11.389  18.466   7.241
 5775POPC   C4B73030  11.526  18.647   7.618
 5776POPC   NC373031  26.152  13.064   5.494
 5776POPC   PO473032  25.669  12.563   5.578
 5776POPC   GL173033  25.934  12.805   5.876
 5776POPC   GL273034  26.299  12.741   5.869
 5776POPC   C1A73035  26.082  12.826   6.317
 5776POPC   D2A73036  26.266  12.486   6.552
 5776POPC   C3A73037  26.223  12.552   6.990
 5776POPC   C4A73038  25.863  12.507   7.259
 5776POPC   C1B73039  26.438  13.140   6.124
 5776POPC   C2B73040  26.429  13.216   6.591
 5776POPC   C3B73041  26.419  13.062   7.041
 5776POPC   C4B73042  26.102  12.942   7.337
 5777POPC   NC373043  32.712   3.306   5.370
 5777POPC   PO473044  33.234   3.783   5.395
 5777POPC   GL173045  33.222   3.641   5.786
 5777POPC   GL273046  32.868   3.567   5.813
 5777POPC   C1A73047  33.190   3.684   6.227
 5777POPC   D2A73048  33.379   3.487   6.563
 5777POPC   C3A73049  33.228   3.599   6.933
 5777POPC   C4A73050  33.229   3.569   7.361
 5777POPC   C1B73051  32.731   3.458   6.245
 5777POPC   C2B73052  32.808   3.449   6.685
 5777POPC   C3B73053  32.593   3.403   7.083
 5777POPC   C4B73054  32.743   3.573   7.501
 5778POPC   NC373055  43.658  34.968   5.487
 5778POPC   PO473056  44.090  35.442   5.343
 5778POPC   GL173057  43.910  35.361   5.729
 5778POPC   GL273058  43.590  35.538   5.679
 5778POPC   C1A73059  44.086  35.357   6.147
 5778POPC   D2A73060  44.170  35.498   6.545
 5778POPC   C3A73061  44.117  35.270   6.895
 5778POPC   C4A73062  44.076  35.383   7.286
 5778POPC   C1B73063  43.561  35.322   6.107
 5778POPC   C2B73064  43.741  35.172   6.517
 5778POPC   C3B73065  43.600  35.257   6.934
 5778POPC   C4B73066  43.586  35.304   7.374
 5779POPC   NC373067   8.672  35.159   5.727
 5779POPC   PO473068   8.213  35.310   5.205
 5779POPC   GL173069   8.156  35.291   5.696
 5779POPC   GL273070   8.015  35.006   5.886
 5779POPC   C1A73071   8.214  35.360   6.187
 5779POPC   D2A73072   8.209  35.141   6.607
 5779POPC   C3A73073   8.152  35.385   7.009
 5779POPC   C4A73074   8.012  35.820   7.117
 5779POPC   C1B73075   7.800  35.106   6.308
 5779POPC   C2B73076   7.722  35.025   6.773
 5779POPC   C3B73077   7.779  35.054   7.247
 5779POPC   C4B73078   7.856  35.131   7.697
 5780POPC   NC373079  20.665  31.143   5.395
 5780POPC   PO473080  20.435  31.691   5.679
 5780POPC   GL173081  20.698  31.498   5.986
 5780POPC   GL273082  20.576  31.212   5.914
 5780POPC   C1A73083  20.709  31.401   6.438
 5780POPC   D2A73084  20.465  31.603   6.786
 5780POPC   C3A73085  20.668  31.740   7.179
 5780POPC   C4A73086  20.963  31.640   7.491
 5780POPC   C1B73087  20.436  30.992   6.262
 5780POPC   C2B73088  20.500  30.909   6.701
 5780POPC   C3B73089  20.635  31.190   7.022
 5780POPC   C4B73090  20.668  31.215   7.490
 5781POPC   NC373091   2.087  20.016   5.468
 5781POPC   PO473092   1.705  19.502   5.468
 5781POPC   GL173093   2.033  19.590   5.774
 5781POPC   GL273094   1.805  19.850   5.921
 5781POPC   C1A73095   2.206  19.686   6.205
 5781POPC   D2A73096   2.014  19.806   6.608
 5781POPC   C3A73097   2.207  19.768   7.016
 5781POPC   C4A73098   2.252  20.163   7.216
 5781POPC   C1B73099   1.577  19.914   6.343
 5781POPC   C2B73100   1.533  19.780   6.790
 5781POPC   C3B73101   1.732  19.910   7.198
 5781POPC   C4B73102   1.550  19.835   7.621
 5782POPC   NC373103  16.124  29.594   5.473
 5782POPC   PO473104  15.724  29.190   5.274
 5782POPC   GL173105  15.904  29.158   5.735
 5782POPC   GL273106  16.223  29.288   5.861
 5782POPC   C1A73107  15.998  28.997   6.206
 5782POPC   D2A73108  16.054  29.180   6.644
 5782POPC   C3A73109  16.169  28.961   7.019
 5782POPC   C4A73110  15.862  28.843   7.319
 5782POPC   C1B73111  16.265  29.463   6.240
 5782POPC   C2B73112  16.507  29.398   6.607
 5782POPC   C3B73113  16.348  29.455   7.028
 5782POPC   C4B73114  16.346  29.377   7.458
 5783POPC   NC373115  14.021  23.500   5.316
 5783POPC   PO473116  13.693  24.017   5.118
 5783POPC   GL173117  13.800  23.916   5.609
 5783POPC   GL273118  13.748  23.596   5.760
 5783POPC   C1A73119  13.711  24.018   6.067
 5783POPC   D2A73120  13.541  24.006   6.514
 5783POPC   C3A73121  13.705  23.933   6.961
 5783POPC   C4A73122  13.453  23.815   7.326
 5783POPC   C1B73123  13.497  23.561   6.175
 5783POPC   C2B73124  13.285  23.534   6.584
 5783POPC   C3B73125  13.490  23.466   6.970
 5783POPC   C4B73126  13.736  23.406   7.352
 5784POPC   NC373127  31.212  17.960   5.272
 5784POPC   PO473128  31.455  18.602   5.235
 5784POPC   GL173129  31.332  18.348   5.597
 5784POPC   GL273130  31.653  18.395   5.722
 5784POPC   C1A73131  31.397  18.069   6.006
 5784POPC   D2A73132  31.449  18.255   6.439
 5784POPC   C3A73133  31.497  18.061   6.875
 5784POPC   C4A73134  31.460  18.036   7.315
 5784POPC   C1B73135  31.374  18.614   6.037
 5784POPC   C2B73136  31.481  18.792   6.450
 5784POPC   C3B73137  31.553  18.570   6.836
 5784POPC   C4B73138  31.576  18.539   7.260
 5785POPC   NC373139  28.730  24.263   5.560
 5785POPC   PO473140  28.129  24.595   5.373
 5785POPC   GL173141  28.237  24.518   5.840
 5785POPC   GL273142  28.406  24.200   5.954
 5785POPC   C1A73143  28.366  24.639   6.299
 5785POPC   D2A73144  28.491  24.855   6.713
 5785POPC   C3A73145  28.208  24.666   6.999
 5785POPC   C4A73146  28.039  24.315   7.187
 5785POPC   C1B73147  28.740  24.090   6.273
 5785POPC   C2B73148  28.725  24.057   6.719
 5785POPC   C3B73149  28.549  24.251   7.074
 5785POPC   C4B73150  28.638  24.145   7.464
 5786POPC   NC373151   5.912  10.852   5.432
 5786POPC   PO473152   5.663  10.236   5.399
 5786POPC   GL173153   5.884  10.442   5.747
 5786POPC   GL273154   5.811  10.165   5.905
 5786POPC   C1A73155   5.994  10.535   6.215
 5786POPC   D2A73156   6.064  10.322   6.646
 5786POPC   C3A73157   5.926  10.494   7.061
 5786POPC   C4A73158   6.219  10.806   7.163
 5786POPC   C1B73159   5.559  10.275   6.276
 5786POPC   C2B73160   5.576  10.458   6.680
 5786POPC   C3B73161   5.413  10.411   7.080
 5786POPC   C4B73162   5.465  10.387   7.506
 5787POPC   NC373163   2.090   9.909   5.255
 5787POPC   PO473164   2.007   9.330   5.433
 5787POPC   GL173165   2.224   9.638   5.765
 5787POPC   GL273166   2.273  10.033   5.724
 5787POPC   C1A73167   2.147   9.593   6.222
 5787POPC   D2A73168   1.781   9.476   6.510
 5787POPC   C3A73169   1.788   9.721   6.904
 5787POPC   C4A73170   2.091   9.586   7.180
 5787POPC   C1B73171   2.352  10.066   6.166
 5787POPC   C2B73172   2.076  10.020   6.553
 5787POPC   C3B73173   2.232  10.040   6.990
 5787POPC   C4B73174   2.341   9.959   7.442
 5788POPC   NC373175   8.323  25.223   5.444
 5788POPC   PO473176   7.829  24.837   5.270
 5788POPC   GL173177   8.054  24.853   5.693
 5788POPC   GL273178   7.963  25.174   5.835
 5788POPC   C1A73179   8.364  24.976   6.058
 5788POPC   D2A73180   8.153  25.098   6.438
 5788POPC   C3A73181   8.210  25.088   6.867
 5788POPC   C4A73182   8.407  25.087   7.219
 5788POPC   C1B73183   8.197  25.476   6.109
 5788POPC   C2B73184   8.426  25.524   6.530
 5788POPC   C3B73185   8.373  25.575   6.988
 5788POPC   C4B73186   8.004  25.505   7.250
 5789POPC   NC373187  24.541  26.612   5.531
 5789POPC   PO473188  24.259  27.162   5.505
 5789POPC   GL173189  24.546  27.028   5.912
 5789POPC   GL273190  24.833  26.783   5.938
 5789POPC   C1A73191  24.760  27.021   6.382
 5789POPC   D2A73192  24.804  26.943   6.852
 5789POPC   C3A73193  24.447  27.013   7.191
 5789POPC   C4A73194  24.501  27.103   7.661
 5789POPC   C1B73195  24.663  26.527   6.285
 5789POPC   C2B73196  24.636  26.453   6.749
 5789POPC   C3B73197  24.684  26.541   7.192
 5789POPC   C4B73198  24.658  26.607   7.613
 5790POPC   NC373199  33.283  44.533   5.078
 5790POPC   PO473200  33.119   0.103   5.367
 5790POPC   GL173201  33.031  44.813   5.760
 5790POPC   GL273202  32.735   0.031   5.856
 5790POPC   C1A73203  32.999  44.499   6.170
 5790POPC   D2A73204  33.094  44.269   6.603
 5790POPC   C3A73205  33.117  44.441   7.021
 5790POPC   C4A73206  33.266  44.841   7.157
 5790POPC   C1B73207  32.955   0.003   6.244
 5790POPC   C2B73208  32.997  44.808   6.654
 5790POPC   C3B73209  32.784  44.865   7.030
 5790POPC   C4B73210  32.835   0.108   7.392
 5791POPC   NC373211  19.569   9.642   5.307
 5791POPC   PO473212  20.038  10.161   5.423
 5791POPC   GL173213  19.910   9.919   5.786
 5791POPC   GL273214  19.895   9.551   5.762
 5791POPC   C1A73215  19.965   9.820   6.215
 5791POPC   D2A73216  19.856   9.561   6.547
 5791POPC   C3A73217  19.844   9.775   6.912
 5791POPC   C4A73218  19.820   9.686   7.325
 5791POPC   C1B73219  19.690   9.323   6.107
 5791POPC   C2B73220  19.375   9.403   6.457
 5791POPC   C3B73221  19.502   9.375   6.876
 5791POPC   C4B73222  19.442   9.343   7.296
 5792POPC   NC373223  17.091  31.396   5.444
 5792POPC   PO473224  16.492  31.590   5.658
 5792POPC   GL173225  16.773  31.578   5.984
 5792POPC   GL273226  17.091  31.627   5.886
 5792POPC   C1A73227  16.781  31.580   6.432
 5792POPC   D2A73228  16.456  31.317   6.645
 5792POPC   C3A73229  16.358  31.299   7.063
 5792POPC   C4A73230  16.520  31.634   7.241
 5792POPC   C1B73231  17.127  31.231   6.147
 5792POPC   C2B73232  16.992  31.129   6.576
 5792POPC   C3B73233  16.893  31.401   6.934
 5792POPC   C4B73234  17.161  31.496   7.284
 5793POPC   NC373235  16.842  24.157   5.170
 5793POPC   PO473236  16.802  24.768   5.374
 5793POPC   GL173237  16.694  24.797   5.839
 5793POPC   GL273238  16.927  24.566   5.864
 5793POPC   C1A73239  16.538  24.596   6.247
 5793POPC   D2A73240  16.505  24.261   6.585
 5793POPC   C3A73241  16.429  24.380   7.006
 5793POPC   C4A73242  16.750  24.637   7.172
 5793POPC   C1B73243  17.115  24.501   6.238
 5793POPC   C2B73244  17.260  24.217   6.517
 5793POPC   C3B73245  17.018  24.331   6.822
 5793POPC   C4B73246  17.139  24.298   7.186
 5794POPC   NC373247   7.839  18.990   5.639
 5794POPC   PO473248   7.131  18.930   5.500
 5794POPC   GL173249   7.337  18.895   5.906
 5794POPC   GL273250   7.623  18.671   5.984
 5794POPC   C1A73251   7.236  18.872   6.341
 5794POPC   D2A73252   7.071  19.083   6.671
 5794POPC   C3A73253   7.225  18.921   7.024
 5794POPC   C4A73254   7.206  19.032   7.436
 5794POPC   C1B73255   7.752  18.925   6.305
 5794POPC   C2B73256   7.635  18.961   6.719
 5794POPC   C3B73257   7.789  19.293   6.999
 5794POPC   C4B73258   7.699  19.321   7.424
 5795POPC   NC373259  13.441  42.633   5.596
 5795POPC   PO473260  13.829  42.145   5.435
 5795POPC   GL173261  13.722  41.943   5.825
 5795POPC   GL273262  13.348  41.889   5.843
 5795POPC   C1A73263  13.839  42.120   6.228
 5795POPC   D2A73264  13.913  42.515   6.515
 5795POPC   C3A73265  13.834  42.465   6.950
 5795POPC   C4A73266  13.569  42.548   7.279
 5795POPC   C1B73267  13.335  42.041   6.276
 5795POPC   C2B73268  13.567  42.123   6.672
 5795POPC   C3B73269  13.524  42.048   7.110
 5795POPC   C4B73270  13.387  41.865   7.516
 5796POPC   NC373271  25.320   3.986   4.692
 5796POPC   PO473272  25.210   4.128   5.383
 5796POPC   GL173273  25.173   4.195   5.850
 5796POPC   GL273274  24.849   4.118   5.944
 5796POPC   C1A73275  25.251   4.489   6.202
 5796POPC   D2A73276  25.510   4.456   6.537
 5796POPC   C3A73277  25.328   4.586   6.925
 5796POPC   C4A73278  25.322   4.412   7.329
 5796POPC   C1B73279  25.007   4.086   6.390
 5796POPC   C2B73280  24.975   4.167   6.833
 5796POPC   C3B73281  24.910   4.118   7.272
 5796POPC   C4B73282  25.057   4.110   7.706
 5797POPC   NC373283  42.697  10.720   5.115
 5797POPC   PO473284  42.237  10.614   5.625
 5797POPC   GL173285  42.516  10.744   5.941
 5797POPC   GL273286  42.447  10.388   6.034
 5797POPC   C1A73287  42.571  10.737   6.390
 5797POPC   D2A73288  42.206  10.736   6.682
 5797POPC   C3A73289  42.294  10.606   7.090
 5797POPC   C4A73290  42.136  10.183   7.021
 5797POPC   C1B73291  42.258  10.200   6.355
 5797POPC   C2B73292  42.497  10.308   6.683
 5797POPC   C3B73293  42.690  10.258   7.039
 5797POPC   C4B73294  42.502  10.273   7.427
 5798POPC   NC373295  34.705  21.738   4.923
 5798POPC   PO473296  34.740  22.097   5.425
 5798POPC   GL173297  34.617  22.197   5.889
 5798POPC   GL273298  34.253  22.192   5.929
 5798POPC   C1A73299  34.542  22.179   6.359
 5798POPC   D2A73300  34.276  22.035   6.728
 5798POPC   C3A73301  34.469  21.870   7.132
 5798POPC   C4A73302  34.524  21.531   7.458
 5798POPC   C1B73303  34.137  22.495   6.233
 5798POPC   C2B73304  34.321  22.555   6.642
 5798POPC   C3B73305  34.127  22.426   7.019
 5798POPC   C4B73306  34.294  22.281   7.369
 5799POPC   NC373307  40.430   2.468   5.093
 5799POPC   PO473308  40.960   2.844   5.281
 5799POPC   GL173309  40.846   2.766   5.717
 5799POPC   GL273310  41.162   2.583   5.757
 5799POPC   C1A73311  40.544   2.880   6.086
 5799POPC   D2A73312  40.651   2.939   6.530
 5799POPC   C3A73313  40.428   2.942   6.915
 5799POPC   C4A73314  40.530   2.985   7.332
 5799POPC   C1B73315  41.031   2.719   6.183
 5799POPC   C2B73316  41.080   2.670   6.617
 5799POPC   C3B73317  40.923   2.801   7.002
 5799POPC   C4B73318  41.074   2.593   7.364
 5800POPC   NC373319   7.128  40.337   5.401
 5800POPC   PO473320   7.440  40.969   5.429
 5800POPC   GL173321   7.256  40.993   5.819
 5800POPC   GL273322   7.483  40.773   5.935
 5800POPC   C1A73323   7.199  41.077   6.268
 5800POPC   D2A73324   7.344  40.839   6.633
 5800POPC   C3A73325   7.398  40.959   7.062
 5800POPC   C4A73326   7.486  40.706   7.447
 5800POPC   C1B73327   7.333  40.487   6.240
 5800POPC   C2B73328   7.476  40.318   6.629
 5800POPC   C3B73329   7.312  40.441   7.028
 5800POPC   C4B73330   7.152  40.233   7.431
 5801POPC   NC373331  16.687  34.025   5.374
 5801POPC   PO473332  16.470  33.420   5.658
 5801POPC   GL173333  16.600  33.854   5.866
 5801POPC   GL273334  16.939  34.006   5.819
 5801POPC   C1A73335  16.683  34.063   6.285
 5801POPC   D2A73336  16.443  34.046   6.670
 5801POPC   C3A73337  16.645  33.985   7.055
 5801POPC   C4A73338  16.622  33.677   7.423
 5801POPC   C1B73339  17.158  33.845   6.204
 5801POPC   C2B73340  17.052  33.856   6.637
 5801POPC   C3B73341  17.008  33.648   7.043
 5801POPC   C4B73342  17.103  33.863   7.434
 5802POPC   NC373343  18.215  30.580   5.525
 5802POPC   PO473344  17.855  31.113   5.439
 5802POPC   GL173345  18.055  30.919   5.868
 5802POPC   GL273346  18.045  30.527   5.987
 5802POPC   C1A73347  18.414  30.833   6.228
 5802POPC   D2A73348  18.614  30.830   6.659
 5802POPC   C3A73349  18.448  30.742   7.079
 5802POPC   C4A73350  18.599  30.778   7.497
 5802POPC   C1B73351  17.925  30.727   6.345
 5802POPC   C2B73352  18.055  30.814   6.734
 5802POPC   C3B73353  17.993  30.459   7.013
 5802POPC   C4B73354  18.129  30.399   7.388
 5803POPC   NC373355  29.946  38.917   5.556
 5803POPC   PO473356  29.590  39.421   5.411
 5803POPC   GL173357  29.856  39.406   5.780
 5803POPC   GL273358  30.218  39.372   5.778
 5803POPC   C1A73359  29.840  39.203   6.184
 5803POPC   D2A73360  29.650  39.202   6.596
 5803POPC   C3A73361  29.866  39.038   6.921
 5803POPC   C4A73362  29.736  39.212   7.267
 5803POPC   C1B73363  30.349  39.253   6.197
 5803POPC   C2B73364  30.142  39.454   6.561
 5803POPC   C3B73365  30.076  39.533   7.004
 5803POPC   C4B73366  30.248  39.191   7.240
 5804POPC   NC373367  21.535  29.138   5.433
 5804POPC   PO473368  20.969  28.979   5.543
 5804POPC   GL173369  21.189  29.267   5.840
 5804POPC   GL273370  21.511  29.150   5.939
 5804POPC   C1A73371  21.263  29.535   6.202
 5804POPC   D2A73372  21.064  29.446   6.603
 5804POPC   C3A73373  21.348  29.397   6.951
 5804POPC   C4A73374  21.682  29.440   7.279
 5804POPC   C1B73375  21.407  29.081   6.387
 5804POPC   C2B73376  21.477  28.918   6.813
 5804POPC   C3B73377  21.442  28.972   7.251
 5804POPC   C4B73378  21.768  28.972   7.574
 5805POPC   NC373379  28.430   7.651   5.341
 5805POPC   PO473380  28.334   7.000   5.456
 5805POPC   GL173381  28.476   7.165   5.830
 5805POPC   GL273382  28.615   7.458   5.767
 5805POPC   C1A73383  28.295   7.242   6.224
 5805POPC   D2A73384  28.300   7.041   6.646
 5805POPC   C3A73385  28.198   7.355   6.970
 5805POPC   C4A73386  28.272   7.564   7.356
 5805POPC   C1B73387  28.575   7.689   6.158
 5805POPC   C2B73388  28.479   7.561   6.579
 5805POPC   C3B73389  28.607   7.677   6.976
 5805POPC   C4B73390  28.539   7.996   7.280
 5806POPC   NC373391  17.925  31.530   5.635
 5806POPC   PO473392  17.413  31.266   5.156
 5806POPC   GL173393  17.468  31.224   5.738
 5806POPC   GL273394  17.572  31.522   6.006
 5806POPC   C1A73395  17.608  31.048   6.122
 5806POPC   D2A73396  17.482  31.008   6.555
 5806POPC   C3A73397  17.417  31.335   6.848
 5806POPC   C4A73398  17.693  31.374   7.206
 5806POPC   C1B73399  17.302  31.700   6.342
 5806POPC   C2B73400  17.381  31.838   6.757
 5806POPC   C3B73401  17.623  31.904   7.114
 5806POPC   C4B73402  17.318  31.970   7.429
 5807POPC   NC373403  23.363  32.270   5.527
 5807POPC   PO473404  23.896  31.889   5.424
 5807POPC   GL173405  23.741  32.045   5.813
 5807POPC   GL273406  23.390  31.986   5.967
 5807POPC   C1A73407  23.799  32.276   6.180
 5807POPC   D2A73408  23.615  32.226   6.581
 5807POPC   C3A73409  23.737  32.552   6.836
 5807POPC   C4A73410  24.032  32.526   7.168
 5807POPC   C1B73411  23.273  32.386   6.212
 5807POPC   C2B73412  23.212  32.607   6.619
 5807POPC   C3B73413  23.234  32.440   7.027
 5807POPC   C4B73414  23.572  32.292   7.253
 5808POPC   NC373415  21.728  16.871   5.626
 5808POPC   PO473416  22.383  16.895   5.419
 5808POPC   GL173417  22.256  16.655   5.782
 5808POPC   GL273418  22.052  16.370   5.781
 5808POPC   C1A73419  22.451  16.511   6.171
 5808POPC   D2A73420  22.550  16.700   6.569
 5808POPC   C3A73421  22.387  16.512   6.931
 5808POPC   C4A73422  22.227  16.690   7.287
 5808POPC   C1B73423  21.946  16.548   6.182
 5808POPC   C2B73424  22.014  16.684   6.574
 5808POPC   C3B73425  21.866  16.541   6.934
 5808POPC   C4B73426  21.724  16.329   7.238
 5809POPC   NC373427  44.521  41.797   5.624
 5809POPC   PO473428  44.594  42.312   5.201
 5809POPC   GL173429  44.564  42.320   5.664
 5809POPC   GL273430  44.816  42.132   5.887
 5809POPC   C1A73431  44.633  42.600   6.034
 5809POPC   D2A73432  44.757  42.530   6.457
 5809POPC   C3A73433  44.389  42.551   6.724
 5809POPC   C4A73434  44.371  42.540   7.174
 5809POPC   C1B73435  44.459  42.136   6.198
 5809POPC   C2B73436  44.428  41.998   6.611
 5809POPC   C3B73437  44.713  42.172   6.840
 5809POPC   C4B73438  44.892  42.139   7.204
 5810POPC   NC373439   5.079  17.616   5.352
 5810POPC   PO473440   5.515  17.045   5.410
 5810POPC   GL173441   5.256  17.253   5.756
 5810POPC   GL273442   5.061  17.559   5.847
 5810POPC   C1A73443   5.346  17.318   6.205
 5810POPC   D2A73444   5.546  17.127   6.556
 5810POPC   C3A73445   5.453  17.391   6.887
 5810POPC   C4A73446   5.090  17.426   7.140
 5810POPC   C1B73447   4.998  17.842   6.198
 5810POPC   C2B73448   4.951  18.050   6.582
 5810POPC   C3B73449   4.891  17.901   6.980
 5810POPC   C4B73450   5.082  17.874   7.361
 5811POPC   NC373451   7.335  25.112   5.338
 5811POPC   PO473452   7.326  25.669   5.504
 5811POPC   GL173453   7.448  25.269   5.829
 5811POPC   GL273454   7.530  24.884   5.753
 5811POPC   C1A73455   7.678  25.163   6.257
 5811POPC   D2A73456   7.761  25.275   6.716
 5811POPC   C3A73457   7.486  25.475   7.018
 5811POPC   C4A73458   7.122  25.367   7.252
 5811POPC   C1B73459   7.323  24.811   6.170
 5811POPC   C2B73460   7.393  24.892   6.633
 5811POPC   C3B73461   7.214  24.907   7.042
 5811POPC   C4B73462   7.253  24.952   7.509
 5812POPC   NC373463   1.036   1.584   5.454
 5812POPC   PO473464   1.428   1.065   5.486
 5812POPC   GL173465   1.130   1.089   5.782
 5812POPC   GL273466   1.239   1.395   5.883
 5812POPC   C1A73467   1.102   0.983   6.211
 5812POPC   D2A73468   1.102   1.206   6.589
 5812POPC   C3A73469   0.990   1.031   6.982
 5812POPC   C4A73470   1.248   1.097   7.324
 5812POPC   C1B73471   0.886   1.449   6.130
 5812POPC   C2B73472   0.675   1.481   6.497
 5812POPC   C3B73473   0.807   1.506   6.894
 5812POPC   C4B73474   1.008   1.592   7.298
 5813POPC   NC373475  29.114   2.317   5.096
 5813POPC   PO473476  29.289   1.773   5.412
 5813POPC   GL173477  29.060   1.959   5.818
 5813POPC   GL273478  29.090   2.341   5.897
 5813POPC   C1A73479  28.773   2.078   6.193
 5813POPC   D2A73480  28.843   2.019   6.644
 5813POPC   C3A73481  28.901   2.126   7.079
 5813POPC   C4A73482  28.963   1.793   7.348
 5813POPC   C1B73483  29.296   2.144   6.279
 5813POPC   C2B73484  29.314   2.193   6.740
 5813POPC   C3B73485  29.401   2.024   7.115
 5813POPC   C4B73486  29.252   2.232   7.464
 5814POPC   NC373487  15.175  38.844   5.344
 5814POPC   PO473488  14.682  38.413   5.466
 5814POPC   GL173489  15.006  38.456   5.761
 5814POPC   GL273490  15.324  38.613   5.775
 5814POPC   C1A73491  15.164  38.316   6.146
 5814POPC   D2A73492  15.005  38.280   6.543
 5814POPC   C3A73493  14.828  38.340   6.930
 5814POPC   C4A73494  15.044  38.306   7.296
 5814POPC   C1B73495  15.332  38.774   6.244
 5814POPC   C2B73496  15.376  38.817   6.680
 5814POPC   C3B73497  15.132  38.748   7.040
 5814POPC   C4B73498  15.239  38.773   7.467
 5815POPC   NC373499  37.300  41.286   5.476
 5815POPC   PO473500  37.016  41.901   5.566
 5815POPC   GL173501  36.776  41.743   5.846
 5815POPC   GL273502  36.988  41.439   5.865
 5815POPC   C1A73503  36.674  41.836   6.265
 5815POPC   D2A73504  36.895  41.834   6.643
 5815POPC   C3A73505  36.702  41.824   7.002
 5815POPC   C4A73506  36.588  41.416   7.177
 5815POPC   C1B73507  37.178  41.698   6.199
 5815POPC   C2B73508  37.347  41.578   6.592
 5815POPC   C3B73509  37.226  41.587   7.014
 5815POPC   C4B73510  37.487  41.695   7.391
 5816POPC   NC373511   5.201  33.238   5.391
 5816POPC   PO473512   5.209  32.584   5.363
 5816POPC   GL173513   5.144  32.854   5.731
 5816POPC   GL273514   5.428  33.028   5.827
 5816POPC   C1A73515   5.005  33.077   6.119
 5816POPC   D2A73516   4.855  32.988   6.549
 5816POPC   C3A73517   5.035  33.107   6.945
 5816POPC   C4A73518   4.825  32.939   7.264
 5816POPC   C1B73519   5.425  32.781   6.203
 5816POPC   C2B73520   5.402  32.917   6.607
 5816POPC   C3B73521   5.374  32.702   7.002
 5816POPC   C4B73522   5.268  32.733   7.420
 5817POPC   NC373523  27.353   0.688   5.487
 5817POPC   PO473524  27.639   1.329   5.373
 5817POPC   GL173525  27.550   1.210   5.800
 5817POPC   GL273526  27.205   1.097   5.804
 5817POPC   C1A73527  27.761   1.363   6.186
 5817POPC   D2A73528  28.003   1.130   6.484
 5817POPC   C3A73529  27.883   1.153   6.888
 5817POPC   C4A73530  27.657   1.280   7.197
 5817POPC   C1B73531  27.311   1.103   6.253
 5817POPC   C2B73532  27.464   1.298   6.622
 5817POPC   C3B73533  27.225   1.386   6.982
 5817POPC   C4B73534  26.964   1.134   7.212
 5818POPC   NC373535  24.193  29.666   5.552
 5818POPC   PO473536  23.522  29.630   5.463
 5818POPC   GL173537  23.715  29.884   5.783
 5818POPC   GL273538  23.758  30.261   5.736
 5818POPC   C1A73539  23.880  29.892   6.212
 5818POPC   D2A73540  23.956  29.721   6.615
 5818POPC   C3A73541  23.785  29.860   6.968
 5818POPC   C4A73542  23.863  29.758   7.381
 5818POPC   C1B73543  23.446  30.213   6.070
 5818POPC   C2B73544  23.503  30.144   6.508
 5818POPC   C3B73545  23.398  30.209   6.942
 5818POPC   C4B73546  23.647  30.214   7.328
 5819POPC   NC373547   6.975   2.694   5.145
 5819POPC   PO473548   6.466   3.094   5.376
 5819POPC   GL173549   6.596   2.751   5.678
 5819POPC   GL273550   6.323   2.500   5.749
 5819POPC   C1A73551   6.690   2.540   6.107
 5819POPC   D2A73552   6.855   2.660   6.533
 5819POPC   C3A73553   6.711   2.531   6.941
 5819POPC   C4A73554   6.786   2.682   7.375
 5819POPC   C1B73555   6.286   2.837   6.127
 5819POPC   C2B73556   6.406   2.916   6.597
 5819POPC   C3B73557   6.441   2.944   7.071
 5819POPC   C4B73558   6.474   3.061   7.525
 5820POPC   NC373559  13.388  40.636   5.374
 5820POPC   PO473560  13.989  40.610   5.511
 5820POPC   GL173561  13.751  40.732   5.838
 5820POPC   GL273562  13.406  40.856   5.864
 5820POPC   C1A73563  13.924  40.573   6.201
 5820POPC   D2A73564  13.771  40.743   6.579
 5820POPC   C3A73565  13.865  40.507   6.946
 5820POPC   C4A73566  13.739  40.556   7.344
 5820POPC   C1B73567  13.359  41.025   6.265
 5820POPC   C2B73568  13.559  41.205   6.628
 5820POPC   C3B73569  13.693  41.030   7.017
 5820POPC   C4B73570  13.493  41.002   7.406
 5821POPC   NC373571  34.483  11.556   5.464
 5821POPC   PO473572  34.909  11.124   5.570
 5821POPC   GL173573  34.757  11.039   5.992
 5821POPC   GL273574  34.595  11.360   5.971
 5821POPC   C1A73575  34.593  11.075   6.433
 5821POPC   D2A73576  34.365  11.236   6.802
 5821POPC   C3A73577  34.514  11.188   7.243
 5821POPC   C4A73578  34.687  11.389   7.617
 5821POPC   C1B73579  34.328  11.538   6.293
 5821POPC   C2B73580  34.181  11.725   6.662
 5821POPC   C3B73581  33.986  11.545   6.996
 5821POPC   C4B73582  34.189  11.575   7.357
 5822POPC   NC373583  24.416  16.473   5.263
 5822POPC   PO473584  24.275  17.155   5.414
 5822POPC   GL173585  24.528  16.902   5.714
 5822POPC   GL273586  24.420  16.580   5.764
 5822POPC   C1A73587  24.676  16.932   6.144
 5822POPC   D2A73588  24.734  16.739   6.557
 5822POPC   C3A73589  24.610  16.882   6.967
 5822POPC   C4A73590  24.237  16.696   7.088
 5822POPC   C1B73591  24.318  16.540   6.195
 5822POPC   C2B73592  24.340  16.362   6.609
 5822POPC   C3B73593  24.547  16.285   6.973
 5822POPC   C4B73594  24.731  16.498   7.291
 5823POPC   NC373595  17.098  19.014   5.311
 5823POPC   PO473596  16.465  18.845   5.503
 5823POPC   GL173597  16.619  19.205   5.776
 5823POPC   GL273598  16.299  19.244   5.949
 5823POPC   C1A73599  16.913  19.310   6.166
 5823POPC   D2A73600  17.145  19.210   6.577
 5823POPC   C3A73601  16.956  19.190   7.012
 5823POPC   C4A73602  16.547  19.202   7.239
 5823POPC   C1B73603  16.562  18.938   6.234
 5823POPC   C2B73604  16.755  18.849   6.656
 5823POPC   C3B73605  16.562  18.698   7.039
 5823POPC   C4B73606  16.411  18.749   7.466
 5824POPC   NC373607  30.777  19.874   5.285
 5824POPC   PO473608  30.336  19.732   5.774
 5824POPC   GL173609  30.800  19.771   5.841
 5824POPC   GL273610  30.971  20.088   5.712
 5824POPC   C1A73611  30.976  19.576   6.232
 5824POPC   D2A73612  31.083  19.688   6.678
 5824POPC   C3A73613  30.731  19.620   7.013
 5824POPC   C4A73614  30.754  19.642   7.497
 5824POPC   C1B73615  31.159  20.149   6.141
 5824POPC   C2B73616  31.085  20.249   6.594
 5824POPC   C3B73617  30.964  20.084   7.017
 5824POPC   C4B73618  30.552  20.040   7.210
 5825POPC   NC373619  42.023  23.096   5.499
 5825POPC   PO473620  41.407  22.838   5.517
 5825POPC   GL173621  41.700  22.762   5.839
 5825POPC   GL273622  41.782  23.106   5.949
 5825POPC   C1A73623  41.549  22.803   6.274
 5825POPC   D2A73624  41.708  22.949   6.650
 5825POPC   C3A73625  41.465  22.849   7.042
 5825POPC   C4A73626  41.342  22.666   7.447
 5825POPC   C1B73627  41.777  23.423   6.269
 5825POPC   C2B73628  41.634  23.474   6.687
 5825POPC   C3B73629  41.834  23.268   7.020
 5825POPC   C4B73630  42.068  23.253   7.375
 5826POPC   NC373631  42.272  23.515   5.072
 5826POPC   PO473632  42.569  24.042   5.402
 5826POPC   GL173633  42.348  23.749   5.765
 5826POPC   GL273634  42.205  23.406   5.861
 5826POPC   C1A73635  42.144  23.811   6.174
 5826POPC   D2A73636  42.198  24.000   6.575
 5826POPC   C3A73637  42.093  23.706   6.866
 5826POPC   C4A73638  42.175  23.824   7.262
 5826POPC   C1B73639  42.558  23.472   6.138
 5826POPC   C2B73640  42.584  23.688   6.516
 5826POPC   C3B73641  42.618  23.738   6.960
 5826POPC   C4B73642  42.570  23.499   7.321
 5827POPC   NC373643   9.436  13.097   5.249
 5827POPC   PO473644   9.912  13.287   5.645
 5827POPC   GL173645   9.562  12.971   5.748
 5827POPC   GL273646   9.572  12.585   5.812
 5827POPC   C1A73647   9.556  12.984   6.181
 5827POPC   D2A73648   9.816  13.209   6.503
 5827POPC   C3A73649   9.642  13.124   6.903
 5827POPC   C4A73650   9.540  13.140   7.312
 5827POPC   C1B73651   9.798  12.536   6.231
 5827POPC   C2B73652   9.819  12.703   6.645
 5827POPC   C3B73653  10.016  12.813   7.030
 5827POPC   C4B73654   9.815  12.724   7.401
 5828POPC   NC373655  18.638  18.422   5.571
 5828POPC   PO473656  17.926  18.211   5.362
 5828POPC   GL173657  18.149  18.387   5.744
 5828POPC   GL273658  18.258  18.058   5.811
 5828POPC   C1A73659  18.415  18.396   6.174
 5828POPC   D2A73660  18.535  18.603   6.553
 5828POPC   C3A73661  18.327  18.437   6.881
 5828POPC   C4A73662  18.544  18.443   7.236
 5828POPC   C1B73663  18.251  17.860   6.229
 5828POPC   C2B73664  18.232  17.971   6.665
 5828POPC   C3B73665  18.392  17.957   7.095
 5828POPC   C4B73666  18.232  18.124   7.484
 5829POPC   NC373667  32.035  41.006   5.439
 5829POPC   PO473668  32.758  40.809   5.435
 5829POPC   GL173669  32.399  40.850   5.758
 5829POPC   GL273670  32.161  40.566   5.825
 5829POPC   C1A73671  32.228  40.912   6.187
 5829POPC   D2A73672  32.367  40.881   6.608
 5829POPC   C3A73673  32.152  41.010   6.953
 5829POPC   C4A73674  32.224  40.617   7.141
 5829POPC   C1B73675  31.848  40.494   6.192
 5829POPC   C2B73676  31.921  40.539   6.665
 5829POPC   C3B73677  31.738  40.691   7.062
 5829POPC   C4B73678  31.845  40.976   7.378
 5830POPC   NC373679  17.766  16.373   5.615
 5830POPC   PO473680  17.551  17.018   5.582
 5830POPC   GL173681  17.778  16.954   5.960
 5830POPC   GL273682  17.616  16.627   6.074
 5830POPC   C1A73683  17.891  16.881   6.413
 5830POPC   D2A73684  17.640  16.544   6.657
 5830POPC   C3A73685  17.498  16.709   7.037
 5830POPC   C4A73686  17.671  16.752   7.451
 5830POPC   C1B73687  17.368  16.898   6.390
 5830POPC   C2B73688  17.114  17.049   6.760
 5830POPC   C3B73689  17.164  17.048   7.211
 5830POPC   C4B73690  17.173  16.679   7.488
 5831POPC   NC373691  16.345  32.021   5.549
 5831POPC   PO473692  16.992  32.288   5.236
 5831POPC   GL173693  16.836  32.176   5.683
 5831POPC   GL273694  16.603  32.422   5.867
 5831POPC   C1A73695  16.895  32.040   6.128
 5831POPC   D2A73696  17.047  32.160   6.538
 5831POPC   C3A73697  16.935  32.126   6.980
 5831POPC   C4A73698  16.732  32.467   7.227
 5831POPC   C1B73699  16.420  32.173   6.230
 5831POPC   C2B73700  16.526  31.995   6.663
 5831POPC   C3B73701  16.344  32.079   7.091
 5831POPC   C4B73702  16.301  31.997   7.575
 5832POPC   NC373703  31.639  30.155   5.404
 5832POPC   PO473704  31.694  29.513   5.423
 5832POPC   GL173705  31.581  29.655   5.835
 5832POPC   GL273706  31.612  30.012   5.901
 5832POPC   C1A73707  31.426  29.666   6.249
 5832POPC   D2A73708  31.556  29.946   6.574
 5832POPC   C3A73709  31.379  29.842   6.944
 5832POPC   C4A73710  31.409  29.574   7.276
 5832POPC   C1B73711  31.886  30.176   6.240
 5832POPC   C2B73712  32.072  30.289   6.647
 5832POPC   C3B73713  31.791  30.192   6.973
 5832POPC   C4B73714  31.567  30.059   7.359
 5833POPC   NC373715  40.635  27.011   5.463
 5833POPC   PO473716  41.227  26.728   5.375
 5833POPC   GL173717  40.954  26.725   5.762
 5833POPC   GL273718  41.033  27.060   5.835
 5833POPC   C1A73719  40.683  26.820   6.128
 5833POPC   D2A73720  40.731  27.025   6.531
 5833POPC   C3A73721  40.730  26.842   6.946
 5833POPC   C4A73722  40.792  26.503   7.234
 5833POPC   C1B73723  41.169  26.969   6.261
 5833POPC   C2B73724  41.207  26.958   6.716
 5833POPC   C3B73725  41.167  27.045   7.161
 5833POPC   C4B73726  41.070  27.428   7.385
 5834POPC   NC373727   0.747  28.908   5.242
 5834POPC   PO473728   1.335  28.929   5.626
 5834POPC   GL173729   1.096  29.200   5.863
 5834POPC   GL273730   1.106  28.950   6.132
 5834POPC   C1A73731   0.884  29.390   6.212
 5834POPC   D2A73732   0.940  29.192   6.611
 5834POPC   C3A73733   0.946  29.417   7.004
 5834POPC   C4A73734   1.036  29.282   7.420
 5834POPC   C1B73735   1.374  29.311   6.307
 5834POPC   C2B73736   1.448  29.228   6.736
 5834POPC   C3B73737   1.186  28.958   7.017
 5834POPC   C4B73738   1.303  28.852   7.431
 5835POPC   NC373739  22.177  17.320   5.346
 5835POPC   PO473740  22.618  17.689   5.485
 5835POPC   GL173741  22.334  17.453   5.827
 5835POPC   GL273742  22.108  17.153   5.817
 5835POPC   C1A73743  22.075  17.496   6.216
 5835POPC   D2A73744  22.268  17.623   6.610
 5835POPC   C3A73745  22.162  17.490   6.992
 5835POPC   C4A73746  22.103  17.764   7.346
 5835POPC   C1B73747  22.270  17.003   6.205
 5835POPC   C2B73748  22.124  17.151   6.592
 5835POPC   C3B73749  21.949  17.036   6.956
 5835POPC   C4B73750  22.070  17.158   7.362
 5836POPC   NC373751  26.143  44.248   5.412
 5836POPC   PO473752  26.113  43.567   5.450
 5836POPC   GL173753  26.056  43.852   5.795
 5836POPC   GL273754  25.681  43.830   5.836
 5836POPC   C1A73755  26.220  43.981   6.216
 5836POPC   D2A73756  26.284  43.926   6.654
 5836POPC   C3A73757  26.262  44.059   7.082
 5836POPC   C4A73758  26.221  43.730   7.369
 5836POPC   C1B73759  25.826  43.657   6.206
 5836POPC   C2B73760  25.796  43.764   6.580
 5836POPC   C3B73761  25.890  43.693   6.984
 5836POPC   C4B73762  25.725  43.793   7.354
 5837POPC   NC373763  18.084  19.151   5.213
 5837POPC   PO473764  18.669  18.840   5.332
 5837POPC   GL173765  18.402  18.857   5.715
 5837POPC   GL273766  18.095  19.045   5.709
 5837POPC   C1A73767  18.411  18.916   6.167
 5837POPC   D2A73768  18.424  19.111   6.592
 5837POPC   C3A73769  18.341  18.916   7.021
 5837POPC   C4A73770  18.571  18.936   7.424
 5837POPC   C1B73771  17.906  19.002   6.094
 5837POPC   C2B73772  17.934  19.146   6.502
 5837POPC   C3B73773  18.047  19.313   6.895
 5837POPC   C4B73774  17.903  19.059   7.264
 5838POPC   NC373775   8.473  34.228   5.421
 5838POPC   PO473776   8.350  33.512   5.462
 5838POPC   GL173777   8.363  33.770   5.833
 5838POPC   GL273778   8.069  33.968   5.806
 5838POPC   C1A73779   8.276  33.886   6.281
 5838POPC   D2A73780   7.996  33.886   6.640
 5838POPC   C3A73781   8.207  33.763   7.038
 5838POPC   C4A73782   8.001  33.419   7.243
 5838POPC   C1B73783   7.999  34.293   6.134
 5838POPC   C2B73784   8.148  34.372   6.538
 5838POPC   C3B73785   8.094  34.269   6.960
 5838POPC   C4B73786   8.063  34.113   7.390
 5839POPC   NC373787  16.189  31.281   5.514
 5839POPC   PO473788  15.842  31.936   5.531
 5839POPC   GL173789  15.985  31.653   5.830
 5839POPC   GL273790  15.783  31.329   5.829
 5839POPC   C1A73791  15.868  31.646   6.255
 5839POPC   D2A73792  15.716  31.675   6.649
 5839POPC   C3A73793  16.077  31.676   6.874
 5839POPC   C4A73794  16.002  31.674   7.283
 5839POPC   C1B73795  16.112  31.211   6.164
 5839POPC   C2B73796  15.969  31.187   6.605
 5839POPC   C3B73797  15.836  31.242   7.038
 5839POPC   C4B73798  15.899  31.189   7.512
 5840POPC   NC373799  27.612  32.703   5.421
 5840POPC   PO473800  27.571  32.120   5.408
 5840POPC   GL173801  27.525  32.384   5.855
 5840POPC   GL273802  27.224  32.320   6.050
 5840POPC   C1A73803  27.615  32.334   6.354
 5840POPC   D2A73804  27.795  32.554   6.738
 5840POPC   C3A73805  27.626  32.395   7.184
 5840POPC   C4A73806  27.833  32.371   7.599
 5840POPC   C1B73807  27.167  32.099   6.448
 5840POPC   C2B73808  27.036  32.184   6.833
 5840POPC   C3B73809  27.229  32.039   7.190
 5840POPC   C4B73810  27.549  31.850   7.427
 5841POPC   NC373811  16.383   3.635   5.417
 5841POPC   PO473812  15.787   3.231   5.438
 5841POPC   GL173813  15.862   3.468   5.791
 5841POPC   GL273814  16.207   3.357   5.784
 5841POPC   C1A73815  15.719   3.348   6.209
 5841POPC   D2A73816  15.464   3.458   6.572
 5841POPC   C3A73817  15.679   3.444   6.921
 5841POPC   C4A73818  15.912   3.494   7.227
 5841POPC   C1B73819  16.221   3.542   6.181
 5841POPC   C2B73820  16.081   3.550   6.607
 5841POPC   C3B73821  16.300   3.675   6.977
 5841POPC   C4B73822  16.387   3.354   7.297
 5842POPC   NC373823  39.799  20.162   5.458
 5842POPC   PO473824  40.304  19.765   5.446
 5842POPC   GL173825  40.055  19.726   5.796
 5842POPC   GL273826  40.081  20.048   5.900
 5842POPC   C1A73827  39.841  19.726   6.203
 5842POPC   D2A73828  39.735  20.035   6.486
 5842POPC   C3A73829  39.876  19.897   6.880
 5842POPC   C4A73830  39.653  19.792   7.267
 5842POPC   C1B73831  40.262  20.198   6.296
 5842POPC   C2B73832  40.382  19.956   6.643
 5842POPC   C3B73833  40.383  19.775   7.049
 5842POPC   C4B73834  40.145  19.886   7.376
 5843POPC   NC373835  24.268  36.987   5.565
 5843POPC   PO473836  24.892  37.310   5.503
 5843POPC   GL173837  24.701  37.103   5.851
 5843POPC   GL273838  24.387  37.234   5.986
 5843POPC   C1A73839  24.601  36.795   6.176
 5843POPC   D2A73840  24.327  36.582   6.464
 5843POPC   C3A73841  24.296  36.839   6.853
 5843POPC   C4A73842  24.469  36.821   7.287
 5843POPC   C1B73843  24.678  37.295   6.323
 5843POPC   C2B73844  24.514  37.305   6.741
 5843POPC   C3B73845  24.744  37.236   7.109
 5843POPC   C4B73846  24.706  37.207   7.545
 5844POPC   NC373847  36.160  23.450   5.540
 5844POPC   PO473848  36.120  22.820   5.390
 5844POPC   GL173849  36.161  22.931   5.826
 5844POPC   GL273850  35.826  22.943   5.889
 5844POPC   C1A73851  36.075  23.148   6.266
 5844POPC   D2A73852  35.951  23.231   6.713
 5844POPC   C3A73853  36.195  22.882   6.924
 5844POPC   C4A73854  36.391  22.732   7.289
 5844POPC   C1B73855  35.827  22.672   6.220
 5844POPC   C2B73856  35.791  22.746   6.656
 5844POPC   C3B73857  35.785  22.669   7.124
 5844POPC   C4B73858  35.723  22.493   7.507
 5845POPC   NC373859  34.285  43.828   5.250
 5845POPC   PO473860  34.809  43.446   5.620
 5845POPC   GL173861  34.415  43.648   5.749
 5845POPC   GL273862  34.373  44.024   5.703
 5845POPC   C1A73863  34.293  43.607   6.188
 5845POPC   D2A73864  34.493  43.498   6.588
 5845POPC   C3A73865  34.468  43.717   6.977
 5845POPC   C4A73866  34.656  43.647   7.385
 5845POPC   C1B73867  34.356  44.139   6.114
 5845POPC   C2B73868  34.422  44.014   6.536
 5845POPC   C3B73869  34.540  44.202   6.910
 5845POPC   C4B73870  34.621  44.146   7.310
 5846POPC   NC373871  40.161  43.111   5.338
 5846POPC   PO473872  39.584  43.413   5.107
 5846POPC   GL173873  39.727  43.220   5.571
 5846POPC   GL273874  40.042  43.357   5.767
 5846POPC   C1A73875  39.732  43.064   6.030
 5846POPC   D2A73876  39.857  42.963   6.474
 5846POPC   C3A73877  39.810  43.221   6.843
 5846POPC   C4A73878  39.787  43.042   7.244
 5846POPC   C1B73879  40.218  43.308   6.222
 5846POPC   C2B73880  40.224  43.496   6.673
 5846POPC   C3B73881  40.268  43.289   7.129
 5846POPC   C4B73882  40.602  43.092   7.437
 5847POPC   NC373883  10.352  35.210   5.380
 5847POPC   PO473884  10.571  35.815   5.468
 5847POPC   GL173885  10.668  35.423   5.759
 5847POPC   GL273886  10.415  35.150   5.880
 5847POPC   C1A73887  10.761  35.337   6.211
 5847POPC   D2A73888  10.605  35.246   6.614
 5847POPC   C3A73889  10.801  35.491   6.934
 5847POPC   C4A73890  10.749  35.335   7.334
 5847POPC   C1B73891  10.215  35.332   6.255
 5847POPC   C2B73892  10.096  35.216   6.689
 5847POPC   C3B73893  10.310  35.307   7.086
 5847POPC   C4B73894  10.333  35.171   7.554
 5848POPC   NC373895  12.362  12.916   5.461
 5848POPC   PO473896  11.732  13.081   5.408
 5848POPC   GL173897  11.942  13.089   5.782
 5848POPC   GL273898  11.984  12.729   5.773
 5848POPC   C1A73899  12.173  13.048   6.190
 5848POPC   D2A73900  12.391  13.162   6.598
 5848POPC   C3A73901  12.145  13.097   6.970
 5848POPC   C4A73902  12.099  12.894   7.354
 5848POPC   C1B73903  12.021  12.578   6.191
 5848POPC   C2B73904  12.044  12.733   6.605
 5848POPC   C3B73905  12.001  12.565   6.993
 5848POPC   C4B73906  12.270  12.287   7.206
 5849POPC   NC373907   5.148   4.581   5.356
 5849POPC   PO473908   4.951   3.937   5.236
 5849POPC   GL173909   4.999   4.123   5.699
 5849POPC   GL273910   5.159   4.469   5.832
 5849POPC   C1A73911   5.065   4.144   6.189
 5849POPC   D2A73912   4.952   4.471   6.518
 5849POPC   C3A73913   5.065   4.366   6.960
 5849POPC   C4A73914   4.930   4.095   7.269
 5849POPC   C1B73915   5.376   4.578   6.212
 5849POPC   C2B73916   5.456   4.436   6.638
 5849POPC   C3B73917   5.538   4.602   7.055
 5849POPC   C4B73918   5.396   4.302   7.362
 5850POPC   NC373919  25.696  28.610   5.631
 5850POPC   PO473920  25.976  28.006   5.461
 5850POPC   GL173921  26.071  28.219   5.914
 5850POPC   GL273922  25.933  28.505   6.065
 5850POPC   C1A73923  26.151  28.085   6.318
 5850POPC   D2A73924  26.231  28.146   6.745
 5850POPC   C3A73925  25.864  28.350   6.918
 5850POPC   C4A73926  25.771  28.515   7.330
 5850POPC   C1B73927  26.260  28.579   6.352
 5850POPC   C2B73928  26.228  28.676   6.776
 5850POPC   C3B73929  26.249  28.536   7.196
 5850POPC   C4B73930  26.497  28.392   7.541
 5851POPC   NC373931  43.697  24.744   5.071
 5851POPC   PO473932  44.049  24.392   5.504
 5851POPC   GL173933  43.766  24.454   5.820
 5851POPC   GL273934  43.966  24.712   5.923
 5851POPC   C1A73935  43.778  24.331   6.263
 5851POPC   D2A73936  44.048  24.338   6.635
 5851POPC   C3A73937  43.919  24.215   7.034
 5851POPC   C4A73938  43.820  24.303   7.458
 5851POPC   C1B73939  44.044  24.777   6.363
 5851POPC   C2B73940  43.701  24.710   6.663
 5851POPC   C3B73941  43.722  24.685   7.094
 5851POPC   C4B73942  44.085  24.770   7.301
 5852POPC   NC373943  42.647  41.816   5.379
 5852POPC   PO473944  43.307  41.697   5.523
 5852POPC   GL173945  43.239  41.478   5.899
 5852POPC   GL273946  42.881  41.404   5.918
 5852POPC   C1A73947  43.258  41.545   6.300
 5852POPC   D2A73948  42.976  41.453   6.576
 5852POPC   C3A73949  43.192  41.555   6.911
 5852POPC   C4A73950  43.208  41.268   7.210
 5852POPC   C1B73951  42.866  41.806   6.137
 5852POPC   C2B73952  43.066  41.960   6.547
 5852POPC   C3B73953  42.790  41.893   6.882
 5852POPC   C4B73954  42.841  41.683   7.242
 5853POPC   NC373955   7.244  43.404   5.513
 5853POPC   PO473956   7.575  42.796   5.384
 5853POPC   GL173957   7.396  42.935   5.754
 5853POPC   GL273958   7.624  43.221   5.809
 5853POPC   C1A73959   7.337  42.811   6.190
 5853POPC   D2A73960   7.586  42.994   6.536
 5853POPC   C3A73961   7.373  42.899   6.903
 5853POPC   C4A73962   7.139  42.840   7.276
 5853POPC   C1B73963   7.385  43.317   6.163
 5853POPC   C2B73964   7.369  43.471   6.565
 5853POPC   C3B73965   7.564  43.380   6.928
 5853POPC   C4B73966   7.292  43.317   7.225
 5854POPC   NC373967   4.581   9.720   5.481
 5854POPC   PO473968   3.963  10.095   5.441
 5854POPC   GL173969   3.931   9.946   5.867
 5854POPC   GL273970   4.159   9.647   5.828
 5854POPC   C1A73971   4.057   9.790   6.296
 5854POPC   D2A73972   4.436   9.811   6.542
 5854POPC   C3A73973   4.333   9.799   6.983
 5854POPC   C4A73974   4.628   9.825   7.319
 5854POPC   C1B73975   4.164   9.313   6.146
 5854POPC   C2B73976   4.174   9.349   6.584
 5854POPC   C3B73977   4.362   9.175   6.949
 5854POPC   C4B73978   4.361   9.392   7.325
 5855POPC   NC373979   7.617  12.464   5.423
 5855POPC   PO473980   7.541  13.212   5.359
 5855POPC   GL173981   7.428  12.944   5.777
 5855POPC   GL273982   7.423  12.559   5.882
 5855POPC   C1A73983   7.425  12.912   6.259
 5855POPC   D2A73984   7.618  13.140   6.608
 5855POPC   C3A73985   7.390  13.036   7.007
 5855POPC   C4A73986   7.579  12.793   7.354
 5855POPC   C1B73987   7.178  12.444   6.270
 5855POPC   C2B73988   7.242  12.617   6.701
 5855POPC   C3B73989   7.170  12.531   7.149
 5855POPC   C4B73990   7.276  12.473   7.581
 5856POPC   NC373991  18.169  41.292   5.479
 5856POPC   PO473992  18.455  41.898   5.476
 5856POPC   GL173993  18.328  41.721   5.893
 5856POPC   GL273994  18.028  41.471   5.935
 5856POPC   C1A73995  18.472  41.407   6.208
 5856POPC   D2A73996  18.334  41.258   6.607
 5856POPC   C3A73997  18.539  41.139   6.987
 5856POPC   C4A73998  18.482  41.408   7.352
 5856POPC   C1B73999  17.791  41.267   6.299
 5856POPC   C2B74000  17.854  41.190   6.755
 5856POPC   C3B74001  18.079  41.522   7.009
 5856POPC   C4B74002  17.978  41.611   7.458
 5857POPC   NC374003  14.386  44.306   5.494
 5857POPC   PO474004  14.656  44.976   5.574
 5857POPC   GL174005  14.409  44.702   5.819
 5857POPC   GL274006  14.146  44.883   5.995
 5857POPC   C1A74007  14.281  44.413   6.150
 5857POPC   D2A74008  14.115  44.337   6.544
 5857POPC   C3A74009  14.186  44.605   6.876
 5857POPC   C4A74010  14.377  44.412   7.237
 5857POPC   C1B74011  14.516  44.990   6.223
 5857POPC   C2B74012  14.570  44.711   6.507
 5857POPC   C3B74013  14.677  44.772   6.894
 5857POPC   C4B74014  14.661  44.830   7.285
 5858POPC   NC374015  10.950   1.257   5.445
 5858POPC   PO474016  10.274   1.364   5.335
 5858POPC   GL174017  10.206   1.350   5.761
 5858POPC   GL274018  10.457   1.068   5.743
 5858POPC   C1A74019  10.390   1.360   6.183
 5858POPC   D2A74020  10.350   1.053   6.542
 5858POPC   C3A74021  10.337   1.190   6.965
 5858POPC   C4A74022  10.264   1.561   7.263
 5858POPC   C1B74023  10.653   0.933   6.131
 5858POPC   C2B74024  10.853   1.139   6.493
 5858POPC   C3B74025  10.879   1.294   6.891
 5858POPC   C4B74026  10.694   1.319   7.282
 5859POPC   NC374027  22.397  29.644   5.405
 5859POPC   PO474028  21.987  30.109   5.296
 5859POPC   GL174029  22.012  30.017   5.760
 5859POPC   GL274030  22.342  30.111   5.815
 5859POPC   C1A74031  22.105  29.906   6.243
 5859POPC   D2A74032  22.239  29.803   6.697
 5859POPC   C3A74033  22.035  29.826   7.127
 5859POPC   C4A74034  22.077  29.624   7.532
 5859POPC   C1B74035  22.449  30.306   6.187
 5859POPC   C2B74036  22.584  30.180   6.600
 5859POPC   C3B74037  22.427  30.149   7.021
 5859POPC   C4B74038  22.412  30.028   7.432
 5860POPC   NC374039  38.256  17.280   5.353
 5860POPC   PO474040  38.127  17.927   5.219
 5860POPC   GL174041  38.477  17.746   5.587
 5860POPC   GL274042  38.392  17.435   5.806
 5860POPC   C1A74043  38.557  17.818   6.079
 5860POPC   D2A74044  38.216  17.709   6.420
 5860POPC   C3A74045  38.302  17.636   6.885
 5860POPC   C4A74046  38.606  17.711   7.227
 5860POPC   C1B74047  38.616  17.297   6.187
 5860POPC   C2B74048  38.483  17.083   6.566
 5860POPC   C3B74049  38.396  17.093   6.989
 5860POPC   C4B74050  38.806  17.133   7.202
 5861POPC   NC374051  34.481  40.364   5.401
 5861POPC   PO474052  34.988  39.925   5.581
 5861POPC   GL174053  34.700  39.929   5.925
 5861POPC   GL274054  34.466  40.136   5.846
 5861POPC   C1A74055  34.616  39.943   6.376
 5861POPC   D2A74056  34.796  40.120   6.765
 5861POPC   C3A74057  34.576  39.957   7.123
 5861POPC   C4A74058  34.496  40.097   7.539
 5861POPC   C1B74059  34.311  40.339   6.229
 5861POPC   C2B74060  34.333  40.299   6.669
 5861POPC   C3B74061  34.303  40.391   7.125
 5861POPC   C4B74062  34.360  40.571   7.588
 5862POPC   NC374063   3.221   2.733   5.410
 5862POPC   PO474064   2.605   2.423   5.445
 5862POPC   GL174065   2.772   2.734   5.746
 5862POPC   GL274066   2.993   2.485   5.788
 5862POPC   C1A74067   2.646   2.985   6.141
 5862POPC   D2A74068   2.486   2.812   6.546
 5862POPC   C3A74069   2.499   2.964   6.998
 5862POPC   C4A74070   2.514   2.945   7.474
 5862POPC   C1B74071   2.808   2.495   6.209
 5862POPC   C2B74072   3.038   2.784   6.493
 5862POPC   C3B74073   3.214   2.860   6.919
 5862POPC   C4B74074   2.993   2.801   7.325
 5863POPC   NC374075   0.082  36.795   5.238
 5863POPC   PO474076   0.451  37.328   5.557
 5863POPC   GL174077   0.539  37.119   5.900
 5863POPC   GL274078   0.525  36.789   5.809
 5863POPC   C1A74079   0.491  36.959   6.316
 5863POPC   D2A74080   0.226  36.772   6.596
 5863POPC   C3A74081   0.310  36.915   6.983
 5863POPC   C4A74082   0.087  37.064   7.314
 5863POPC   C1B74083   0.628  36.488   6.185
 5863POPC   C2B74084   0.670  36.528   6.646
 5863POPC   C3B74085   0.650  36.557   7.109
 5863POPC   C4B74086   0.481  36.799   7.475
 5864POPC   NC374087  10.044   0.087   5.572
 5864POPC   PO474088  10.703   0.134   5.348
 5864POPC   GL174089  10.669   0.414   5.746
 5864POPC   GL274090  10.889   0.720   5.717
 5864POPC   C1A74091  10.441   0.457   6.198
 5864POPC   D2A74092  10.237   0.541   6.651
 5864POPC   C3A74093  10.450   0.391   7.046
 5864POPC   C4A74094  10.462   0.394   7.547
 5864POPC   C1B74095  10.977   0.530   6.153
 5864POPC   C2B74096  10.763   0.637   6.567
 5864POPC   C3B74097  10.744   0.813   6.977
 5864POPC   C4B74098  10.872   0.547   7.294
 5865POPC   NC374099   3.655   7.596   5.384
 5865POPC   PO474100   3.407   7.001   5.400
 5865POPC   GL174101   3.499   7.109   5.785
 5865POPC   GL274102   3.490   7.473   5.841
 5865POPC   C1A74103   3.396   6.987   6.186
 5865POPC   D2A74104   3.448   7.226   6.552
 5865POPC   C3A74105   3.539   7.073   6.958
 5865POPC   C4A74106   3.496   7.350   7.331
 5865POPC   C1B74107   3.740   7.739   6.118
 5865POPC   C2B74108   3.577   7.715   6.517
 5865POPC   C3B74109   3.692   7.568   6.899
 5865POPC   C4B74110   3.811   7.761   7.262
 5866POPC   NC374111  38.908  44.315   5.580
 5866POPC   PO474112  39.391  44.705   5.441
 5866POPC   GL174113  39.304  44.585   5.828
 5866POPC   GL274114  39.182  44.876   5.923
 5866POPC   C1A74115  39.225  44.486   6.259
 5866POPC   D2A74116  39.261  44.719   6.628
 5866POPC   C3A74117  39.264  44.506   6.989
 5866POPC   C4A74118  39.223  44.248   7.332
 5866POPC   C1B74119  39.476  44.988   6.250
 5866POPC   C2B74120  39.599   0.096   6.639
 5866POPC   C3B74121  39.325   0.039   7.039
 5866POPC   C4B74122  39.287  44.799   7.445
 5867POPC   NC374123  21.991  14.649   5.434
 5867POPC   PO474124  22.432  14.102   5.530
 5867POPC   GL174125  22.234  14.382   5.809
 5867POPC   GL274126  22.411  14.675   5.864
 5867POPC   C1A74127  22.042  14.511   6.218
 5867POPC   D2A74128  22.074  14.718   6.647
 5867POPC   C3A74129  21.923  14.505   7.050
 5867POPC   C4A74130  21.938  14.070   7.190
 5867POPC   C1B74131  22.642  14.645   6.257
 5867POPC   C2B74132  22.576  14.487   6.684
 5867POPC   C3B74133  22.400  14.666   7.065
 5867POPC   C4B74134  22.260  14.512   7.465
 5868POPC   NC374135   4.858  29.399   5.331
 5868POPC   PO474136   4.227  29.177   5.311
 5868POPC   GL174137   4.203  29.301   5.799
 5868POPC   GL274138   4.184  28.967   5.796
 5868POPC   C1A74139   4.227  29.246   6.322
 5868POPC   D2A74140   4.020  29.282   6.760
 5868POPC   C3A74141   4.284  29.351   7.153
 5868POPC   C4A74142   4.528  29.470   7.558
 5868POPC   C1B74143   3.961  28.849   6.141
 5868POPC   C2B74144   4.118  28.762   6.578
 5868POPC   C3B74145   4.237  28.850   7.010
 5868POPC   C4B74146   4.564  28.950   7.318
 5869POPC   NC374147  19.377  11.966   5.540
 5869POPC   PO474148  19.806  12.394   5.173
 5869POPC   GL174149  19.909  12.375   5.686
 5869POPC   GL274150  19.631  12.189   5.901
 5869POPC   C1A74151  20.037  12.184   6.168
 5869POPC   D2A74152  19.829  12.140   6.559
 5869POPC   C3A74153  20.095  11.926   6.814
 5869POPC   C4A74154  20.136  11.983   7.233
 5869POPC   C1B74155  19.576  11.834   6.221
 5869POPC   C2B74156  19.606  11.632   6.654
 5869POPC   C3B74157  19.698  11.769   7.092
 5869POPC   C4B74158  19.566  12.087   7.343
 5870POPC   NC374159  40.324  31.962   5.547
 5870POPC   PO474160  39.665  31.971   5.498
 5870POPC   GL174161  39.923  32.043   5.880
 5870POPC   GL274162  40.110  32.377   5.814
 5870POPC   C1A74163  39.783  32.189   6.309
 5870POPC   D2A74164  39.615  32.322   6.713
 5870POPC   C3A74165  39.775  32.044   7.017
 5870POPC   C4A74166  39.856  32.123   7.455
 5870POPC   C1B74167  40.282  32.247   6.218
 5870POPC   C2B74168  40.172  32.098   6.670
 5870POPC   C3B74169  40.221  32.294   7.091
 5870POPC   C4B74170  40.291  32.364   7.540
 5871POPC   NC374171  27.899   0.086   5.631
 5871POPC   PO474172  27.254   0.256   5.666
 5871POPC   GL174173  27.573   0.395   5.916
 5871POPC   GL274174  27.436   0.679   5.973
 5871POPC   C1A74175  27.612   0.341   6.335
 5871POPC   D2A74176  27.384   0.233   6.663
 5871POPC   C3A74177  27.470   0.406   7.038
 5871POPC   C4A74178  27.628   0.255   7.395
 5871POPC   C1B74179  27.746   0.830   6.167
 5871POPC   C2B74180  27.622   0.804   6.597
 5871POPC   C3B74181  27.351   0.888   6.940
 5871POPC   C4B74182  27.362   0.796   7.386
 5872POPC   NC374183  42.540  37.144   5.509
 5872POPC   PO474184  42.935  36.616   5.309
 5872POPC   GL174185  42.668  36.655   5.771
 5872POPC   GL274186  42.292  36.721   5.735
 5872POPC   C1A74187  42.508  36.949   6.143
 5872POPC   D2A74188  42.220  36.987   6.533
 5872POPC   C3A74189  42.297  36.774   6.948
 5872POPC   C4A74190  42.378  36.910   7.369
 5872POPC   C1B74191  42.068  36.640   6.144
 5872POPC   C2B74192  42.088  36.461   6.583
 5872POPC   C3B74193  41.854  36.518   6.979
 5872POPC   C4B74194  41.880  36.773   7.389
 5873POPC   NC374195  36.669  37.899   5.525
 5873POPC   PO474196  37.338  37.724   5.475
 5873POPC   GL174197  37.113  37.859   5.850
 5873POPC   GL274198  36.875  37.550   5.866
 5873POPC   C1A74199  36.866  37.885   6.279
 5873POPC   D2A74200  36.729  37.593   6.661
 5873POPC   C3A74201  36.790  37.739   7.119
 5873POPC   C4A74202  36.875  37.729   7.604
 5873POPC   C1B74203  37.167  37.481   6.212
 5873POPC   C2B74204  37.244  37.673   6.586
 5873POPC   C3B74205  37.172  37.432   6.912
 5873POPC   C4B74206  37.167  37.445   7.327
 5874POPC   NC374207  30.339  37.269   5.534
 5874POPC   PO474208  30.070  37.837   5.594
 5874POPC   GL174209  29.921  37.491   5.780
 5874POPC   GL274210  30.211  37.434   5.990
 5874POPC   C1A74211  29.637  37.502   6.111
 5874POPC   D2A74212  29.622  37.727   6.499
 5874POPC   C3A74213  29.797  37.473   6.850
 5874POPC   C4A74214  29.710  37.566   7.276
 5874POPC   C1B74215  30.090  37.732   6.273
 5874POPC   C2B74216  30.080  37.915   6.674
 5874POPC   C3B74217  30.190  37.758   7.068
 5874POPC   C4B74218  30.201  37.384   7.278
 5875POPC   NC374219   0.047  16.109   5.328
 5875POPC   PO474220  44.462  15.801   5.593
 5875POPC   GL174221  44.705  15.870   5.925
 5875POPC   GL274222  44.870  16.151   5.858
 5875POPC   C1A74223  44.784  15.878   6.351
 5875POPC   D2A74224  44.822  15.585   6.657
 5875POPC   C3A74225  44.772  15.891   6.926
 5875POPC   C4A74226  44.944  16.065   7.275
 5875POPC   C1B74227  44.637  16.342   6.198
 5875POPC   C2B74228  44.724  16.383   6.629
 5875POPC   C3B74229  44.565  16.340   7.060
 5875POPC   C4B74230  44.501  16.218   7.498
 5876POPC   NC374231   4.884  42.477   5.365
 5876POPC   PO474232   5.456  42.094   5.415
 5876POPC   GL174233   5.206  42.267   5.747
 5876POPC   GL274234   4.976  42.557   5.853
 5876POPC   C1A74235   5.120  42.130   6.150
 5876POPC   D2A74236   5.205  41.948   6.537
 5876POPC   C3A74237   5.087  42.129   6.938
 5876POPC   C4A74238   5.369  42.259   7.267
 5876POPC   C1B74239   5.328  42.606   6.111
 5876POPC   C2B74240   5.323  42.471   6.496
 5876POPC   C3B74241   5.275  42.587   6.866
 5876POPC   C4B74242   4.956  42.578   7.177
 5877POPC   NC374243   0.387  33.625   5.602
 5877POPC   PO474244   0.378  34.257   5.437
 5877POPC   GL174245   0.488  34.097   5.821
 5877POPC   GL274246   0.154  33.956   5.956
 5877POPC   C1A74247   0.611  33.867   6.197
 5877POPC   D2A74248   0.589  33.579   6.551
 5877POPC   C3A74249   0.603  33.795   6.954
 5877POPC   C4A74250   0.697  34.083   7.319
 5877POPC   C1B74251   0.144  33.601   6.270
 5877POPC   C2B74252   0.058  33.497   6.702
 5877POPC   C3B74253   0.009  33.432   7.139
 5877POPC   C4B74254   0.175  33.800   7.239
 5878POPC   NC374255   5.442  12.819   5.441
 5878POPC   PO474256   4.822  12.779   5.502
 5878POPC   GL174257   5.121  12.852   5.842
 5878POPC   GL274258   5.309  13.168   5.816
 5878POPC   C1A74259   5.151  12.892   6.277
 5878POPC   D2A74260   5.349  12.647   6.596
 5878POPC   C3A74261   5.110  12.564   6.957
 5878POPC   C4A74262   5.059  12.624   7.395
 5878POPC   C1B74263   5.570  13.207   6.188
 5878POPC   C2B74264   5.418  13.173   6.614
 5878POPC   C3B74265   5.308  13.055   7.010
 5878POPC   C4B74266   5.471  13.198   7.458
 5879POPC   NC374267  29.805  23.989   5.244
 5879POPC   PO474268  30.322  23.598   5.308
 5879POPC   GL174269  29.989  23.775   5.665
 5879POPC   GL274270  29.840  23.523   5.890
 5879POPC   C1A74271  29.710  23.982   6.028
 5879POPC   D2A74272  29.650  23.820   6.485
 5879POPC   C3A74273  29.870  23.932   6.861
 5879POPC   C4A74274  29.653  23.929   7.255
 5879POPC   C1B74275  30.097  23.744   6.252
 5879POPC   C2B74276  30.438  23.602   6.500
 5879POPC   C3B74277  30.352  23.704   6.914
 5879POPC   C4B74278  30.071  23.631   7.270
 5880POPC   NC374279  18.916  25.540   5.520
 5880POPC   PO474280  19.396  25.144   5.568
 5880POPC   GL174281  19.087  25.181   5.880
 5880POPC   GL274282  19.176  25.520   5.961
 5880POPC   C1A74283  19.098  25.155   6.325
 5880POPC   D2A74284  19.336  25.461   6.583
 5880POPC   C3A74285  19.279  25.403   7.029
 5880POPC   C4A74286  18.989  25.165   7.271
 5880POPC   C1B74287  18.825  25.577   6.214
 5880POPC   C2B74288  18.789  25.475   6.633
 5880POPC   C3B74289  18.781  25.572   7.027
 5880POPC   C4B74290  18.787  25.615   7.438
 5881POPC   NC374291  38.544  18.234   5.436
 5881POPC   PO474292  38.007  17.841   5.728
 5881POPC   GL174293  38.206  18.184   5.950
 5881POPC   GL274294  38.436  18.472   5.934
 5881POPC   C1A74295  38.390  18.199   6.380
 5881POPC   D2A74296  38.613  18.027   6.704
 5881POPC   C3A74297  38.388  18.156   7.049
 5881POPC   C4A74298  38.399  18.172   7.505
 5881POPC   C1B74299  38.642  18.644   6.318
 5881POPC   C2B74300  38.703  18.562   6.770
 5881POPC   C3B74301  38.537  18.619   7.187
 5881POPC   C4B74302  38.379  18.688   7.618
 5882POPC   NC374303  17.573  19.539   5.496
 5882POPC   PO474304  17.665  20.169   5.650
 5882POPC   GL174305  17.551  19.801   5.928
 5882POPC   GL274306  17.824  19.516   5.938
 5882POPC   C1A74307  17.226  19.735   6.229
 5882POPC   D2A74308  17.293  19.901   6.647
 5882POPC   C3A74309  17.282  19.616   6.982
 5882POPC   C4A74310  17.374  19.774   7.388
 5882POPC   C1B74311  17.985  19.856   6.221
 5882POPC   C2B74312  17.921  20.011   6.644
 5882POPC   C3B74313  17.728  19.860   6.993
 5882POPC   C4B74314  17.813  19.552   7.279
 5883POPC   NC374315   3.831  26.368   5.418
 5883POPC   PO474316   3.345  26.801   5.350
 5883POPC   GL174317   3.333  26.666   5.808
 5883POPC   GL274318   3.670  26.563   5.872
 5883POPC   C1A74319   3.424  26.733   6.301
 5883POPC   D2A74320   3.372  27.056   6.631
 5883POPC   C3A74321   3.172  26.982   7.034
 5883POPC   C4A74322   3.309  26.873   7.468
 5883POPC   C1B74323   3.847  26.339   6.231
 5883POPC   C2B74324   3.646  26.344   6.629
 5883POPC   C3B74325   3.533  26.643   6.929
 5883POPC   C4B74326   3.653  27.039   7.132
 5884POPC   NC374327  42.874  20.898   5.460
 5884POPC   PO474328  43.358  20.402   5.442
 5884POPC   GL174329  43.202  20.467   5.853
 5884POPC   GL274330  43.175  20.836   5.899
 5884POPC   C1A74331  43.044  20.493   6.275
 5884POPC   D2A74332  43.182  20.779   6.576
 5884POPC   C3A74333  43.093  20.572   6.956
 5884POPC   C4A74334  42.854  20.311   7.211
 5884POPC   C1B74335  42.721  20.846   6.091
 5884POPC   C2B74336  42.653  20.850   6.541
 5884POPC   C3B74337  42.886  21.032   6.908
 5884POPC   C4B74338  42.937  20.853   7.354
 5885POPC   NC374339   4.156  25.654   5.120
 5885POPC   PO474340   3.760  25.238   5.369
 5885POPC   GL174341   3.890  25.131   5.804
 5885POPC   GL274342   4.255  25.131   5.945
 5885POPC   C1A74343   3.872  25.336   6.204
 5885POPC   D2A74344   4.165  25.245   6.501
 5885POPC   C3A74345   4.149  25.305   6.925
 5885POPC   C4A74346   4.283  25.679   7.168
 5885POPC   C1B74347   4.487  24.902   6.290
 5885POPC   C2B74348   4.561  25.027   6.731
 5885POPC   C3B74349   4.632  25.285   7.110
 5885POPC   C4B74350   4.788  25.682   7.340
 5886POPC   NC374351   9.597  19.348   5.437
 5886POPC   PO474352   9.523  18.620   5.403
 5886POPC   GL174353   9.817  18.919   5.641
 5886POPC   GL274354   9.848  18.766   5.930
 5886POPC   C1A74355   9.977  19.249   5.991
 5886POPC   D2A74356   9.913  19.417   6.415
 5886POPC   C3A74357   9.882  19.159   6.761
 5886POPC   C4A74358   9.685  19.252   7.139
 5886POPC   C1B74359   9.686  18.946   6.314
 5886POPC   C2B74360   9.512  18.830   6.725
 5886POPC   C3B74361   9.795  18.764   7.079
 5886POPC   C4B74362   9.759  18.705   7.549
 5887POPC   NC374363   9.980  23.795   5.697
 5887POPC   PO474364  10.495  23.670   5.279
 5887POPC   GL174365  10.509  23.829   5.711
 5887POPC   GL274366  10.400  23.524   5.817
 5887POPC   C1A74367  10.694  23.931   6.162
 5887POPC   D2A74368  10.761  23.995   6.647
 5887POPC   C3A74369  10.520  23.986   7.055
 5887POPC   C4A74370  10.399  23.728   7.428
 5887POPC   C1B74371  10.385  23.454   6.256
 5887POPC   C2B74372  10.357  23.205   6.620
 5887POPC   C3B74373  10.395  23.344   7.079
 5887POPC   C4B74374  10.142  23.284   7.465
 5888POPC   NC374375   4.756  32.596   5.457
 5888POPC   PO474376   5.363  32.158   5.637
 5888POPC   GL174377   5.072  32.364   5.844
 5888POPC   GL274378   4.877  32.108   5.983
 5888POPC   C1A74379   4.952  32.570   6.192
 5888POPC   D2A74380   5.089  32.526   6.610
 5888POPC   C3A74381   4.983  32.209   6.884
 5888POPC   C4A74382   5.006  32.232   7.313
 5888POPC   C1B74383   5.219  32.119   6.310
 5888POPC   C2B74384   5.321  31.861   6.676
 5888POPC   C3B74385   5.293  31.832   7.145
 5888POPC   C4B74386   5.231  31.869   7.616
 5889POPC   NC374387  29.365   9.047   5.439
 5889POPC   PO474388  28.895   8.549   5.438
 5889POPC   GL174389  29.100   8.742   5.803
 5889POPC   GL274390  28.992   9.072   5.884
 5889POPC   C1A74391  29.349   8.869   6.196
 5889POPC   D2A74392  29.500   9.036   6.616
 5889POPC   C3A74393  29.282   8.951   6.994
 5889POPC   C4A74394  28.876   9.118   7.005
 5889POPC   C1B74395  28.886   9.095   6.339
 5889POPC   C2B74396  28.994   8.754   6.609
 5889POPC   C3B74397  28.956   8.534   6.993
 5889POPC   C4B74398  28.836   8.728   7.369
 5890POPC   NC374399  17.476  17.933   5.417
 5890POPC   PO474400  17.112  18.479   5.507
 5890POPC   GL174401  17.320  18.234   5.818
 5890POPC   GL274402  17.685  18.160   5.820
 5890POPC   C1A74403  17.401  18.146   6.258
 5890POPC   D2A74404  17.605  18.359   6.586
 5890POPC   C3A74405  17.437  18.272   6.947
 5890POPC   C4A74406  17.302  18.147   7.346
 5890POPC   C1B74407  17.923  18.273   6.195
 5890POPC   C2B74408  18.017  18.642   6.473
 5890POPC   C3B74409  17.862  18.664   6.914
 5890POPC   C4B74410  17.915  18.216   7.088
 5891POPC   NC374411   4.699  35.266   5.497
 5891POPC   PO474412   4.229  35.798   5.562
 5891POPC   GL174413   4.487  35.584   5.828
 5891POPC   GL274414   4.187  35.434   5.953
 5891POPC   C1A74415   4.594  35.272   6.168
 5891POPC   D2A74416   4.325  35.309   6.513
 5891POPC   C3A74417   4.499  35.416   6.910
 5891POPC   C4A74418   4.582  35.180   7.274
 5891POPC   C1B74419   3.941  35.161   6.174
 5891POPC   C2B74420   3.865  35.113   6.574
 5891POPC   C3B74421   3.812  35.220   6.944
 5891POPC   C4B74422   4.099  35.339   7.221
 5892POPC   NC374423   8.681  19.739   5.524
 5892POPC   PO474424   9.070  20.234   5.261
 5892POPC   GL174425   9.045  20.100   5.701
 5892POPC   GL274426   9.159  19.738   5.746
 5892POPC   C1A74427   8.972  20.070   6.169
 5892POPC   D2A74428   8.764  20.028   6.605
 5892POPC   C3A74429   8.884  20.193   7.036
 5892POPC   C4A74430   8.786  20.177   7.506
 5892POPC   C1B74431   9.075  19.562   6.173
 5892POPC   C2B74432   8.901  19.526   6.618
 5892POPC   C3B74433   8.935  19.648   7.072
 5892POPC   C4B74434   9.300  19.507   7.327
 5893POPC   NC374435  24.777  30.195   5.417
 5893POPC   PO474436  24.595  29.501   5.373
 5893POPC   GL174437  24.716  29.800   5.735
 5893POPC   GL274438  24.427  30.048   5.832
 5893POPC   C1A74439  24.699  29.795   6.198
 5893POPC   D2A74440  24.418  29.927   6.531
 5893POPC   C3A74441  24.526  29.816   6.928
 5893POPC   C4A74442  24.359  29.780   7.301
 5893POPC   C1B74443  24.168  30.310   6.150
 5893POPC   C2B74444  24.005  30.253   6.599
 5893POPC   C3B74445  24.158  30.187   7.037
 5893POPC   C4B74446  24.162  30.260   7.505
 5894POPC   NC374447  16.196  43.951   5.493
 5894POPC   PO474448  15.687  43.592   5.323
 5894POPC   GL174449  15.821  43.694   5.804
 5894POPC   GL274450  16.165  43.603   5.866
 5894POPC   C1A74451  15.911  43.938   6.242
 5894POPC   D2A74452  15.853  44.174   6.663
 5894POPC   C3A74453  15.757  43.982   7.060
 5894POPC   C4A74454  16.187  44.091   7.117
 5894POPC   C1B74455  16.230  43.543   6.302
 5894POPC   C2B74456  16.210  43.759   6.699
 5894POPC   C3B74457  16.101  43.602   7.102
 5894POPC   C4B74458  16.101  43.647   7.553
 5895POPC   NC374459  15.309  43.796   5.058
 5895POPC   PO474460  14.861  44.127   5.507
 5895POPC   GL174461  15.095  43.883   5.849
 5895POPC   GL274462  15.232  43.530   5.803
 5895POPC   C1A74463  14.946  43.647   6.218
 5895POPC   D2A74464  14.782  43.757   6.567
 5895POPC   C3A74465  15.045  44.013   6.755
 5895POPC   C4A74466  15.188  43.977   7.156
 5895POPC   C1B74467  15.448  43.717   6.195
 5895POPC   C2B74468  15.507  43.771   6.659
 5895POPC   C3B74469  15.448  43.564   7.070
 5895POPC   C4B74470  15.486  43.741   7.511
 5896POPC   NC374471  10.781  14.853   5.557
 5896POPC   PO474472  10.602  14.190   5.535
 5896POPC   GL174473  10.562  14.457   5.855
 5896POPC   GL274474  10.294  14.645   5.704
 5896POPC   C1A74475  10.614  14.321   6.283
 5896POPC   D2A74476  10.475  14.002   6.546
 5896POPC   C3A74477  10.472  14.228   6.906
 5896POPC   C4A74478  10.692  14.539   7.170
 5896POPC   C1B74479  10.230  14.640   6.185
 5896POPC   C2B74480  10.403  14.667   6.616
 5896POPC   C3B74481  10.236  14.699   7.027
 5896POPC   C4B74482  10.287  14.637   7.451
 5897POPC   NC374483  29.936  25.500   5.547
 5897POPC   PO474484  29.727  24.865   5.503
 5897POPC   GL174485  29.778  25.096   5.830
 5897POPC   GL274486  30.125  25.113   5.819
 5897POPC   C1A74487  29.810  25.268   6.235
 5897POPC   D2A74488  29.764  25.087   6.655
 5897POPC   C3A74489  29.781  25.398   6.996
 5897POPC   C4A74490  29.822  25.596   7.412
 5897POPC   C1B74491  30.131  24.837   6.165
 5897POPC   C2B74492  30.279  24.807   6.583
 5897POPC   C3B74493  30.148  24.962   6.988
 5897POPC   C4B74494  30.185  25.251   7.317
 5898POPC   NC374495  25.556  17.839   5.526
 5898POPC   PO474496  25.022  17.545   5.176
 5898POPC   GL174497  25.091  17.608   5.663
 5898POPC   GL274498  25.002  17.927   5.813
 5898POPC   C1A74499  25.304  17.639   6.125
 5898POPC   D2A74500  25.497  17.433   6.511
 5898POPC   C3A74501  25.219  17.323   6.884
 5898POPC   C4A74502  25.130  17.389   7.329
 5898POPC   C1B74503  24.858  17.870   6.264
 5898POPC   C2B74504  25.002  17.770   6.703
 5898POPC   C3B74505  24.985  17.827   7.159
 5898POPC   C4B74506  24.934  17.787   7.619
 5899POPC   NC374507  14.924  44.606   5.501
 5899POPC   PO474508  15.410  44.922   5.248
 5899POPC   GL174509  15.255  44.938   5.758
 5899POPC   GL274510  14.924  44.778   5.972
 5899POPC   C1A74511  15.349  44.829   6.218
 5899POPC   D2A74512  15.089  44.630   6.540
 5899POPC   C3A74513  15.218  44.853   6.874
 5899POPC   C4A74514  15.445  44.760   7.211
 5899POPC   C1B74515  15.147  44.370   6.084
 5899POPC   C2B74516  15.405  44.227   6.429
 5899POPC   C3B74517  15.405  44.351   6.879
 5899POPC   C4B74518  15.009  44.451   7.100
 5900POPC   NC374519  39.178  22.975   5.336
 5900POPC   PO474520  38.521  23.055   5.375
 5900POPC   GL174521  38.862  23.124   5.710
 5900POPC   GL274522  38.838  23.428   5.881
 5900POPC   C1A74523  39.305  23.083   5.959
 5900POPC   D2A74524  39.343  22.799   6.349
 5900POPC   C3A74525  39.550  22.872   6.759
 5900POPC   C4A74526  39.511  22.645   7.145
 5900POPC   C1B74527  38.915  23.127   6.257
 5900POPC   C2B74528  38.928  22.975   6.689
 5900POPC   C3B74529  39.117  22.996   7.090
 5900POPC   C4B74530  39.038  23.229   7.485
 5901POPC   NC374531  23.931  33.088   5.432
 5901POPC   PO474532  23.371  32.738   5.484
 5901POPC   GL174533  23.549  32.675   5.883
 5901POPC   GL274534  23.674  33.003   5.875
 5901POPC   C1A74535  23.605  32.785   6.340
 5901POPC   D2A74536  23.754  33.098   6.649
 5901POPC   C3A74537  23.593  33.003   7.045
 5901POPC   C4A74538  23.374  32.809   7.377
 5901POPC   C1B74539  24.011  33.054   6.175
 5901POPC   C2B74540  24.255  33.051   6.573
 5901POPC   C3B74541  24.121  33.050   7.015
 5901POPC   C4B74542  23.882  33.368   7.266
 5902POPC   NC374543   3.439  24.902   5.459
 5902POPC   PO474544   3.549  24.262   5.305
 5902POPC   GL174545   3.682  24.356   5.688
 5902POPC   GL274546   3.702  23.991   5.736
 5902POPC   C1A74547   3.571  24.640   6.061
 5902POPC   D2A74548   3.356  24.675   6.483
 5902POPC   C3A74549   3.511  24.654   6.886
 5902POPC   C4A74550   3.778  24.610   7.272
 5902POPC   C1B74551   3.532  24.144   6.116
 5902POPC   C2B74552   3.763  24.341   6.478
 5902POPC   C3B74553   3.778  24.218   6.920
 5902POPC   C4B74554   3.413  24.263   7.216
 5903POPC   NC374555  39.524  39.735   5.636
 5903POPC   PO474556  39.305  39.027   5.536
 5903POPC   GL174557  39.100  39.138   5.944
 5903POPC   GL274558  38.919  38.834   5.936
 5903POPC   C1A74559  39.116  39.349   6.405
 5903POPC   D2A74560  39.379  39.346   6.813
 5903POPC   C3A74561  39.276  39.531   7.253
 5903POPC   C4A74562  39.553  39.627   7.656
 5903POPC   C1B74563  39.118  38.814   6.364
 5903POPC   C2B74564  39.279  38.789   6.786
 5903POPC   C3B74565  39.291  38.995   7.172
 5903POPC   C4B74566  38.913  39.156   7.283
 5904POPC   NC374567  38.879  30.316   5.369
 5904POPC   PO474568  39.438  29.851   5.417
 5904POPC   GL174569  39.063  29.874   5.683
 5904POPC   GL274570  39.173  30.172   5.837
 5904POPC   C1A74571  38.923  29.828   6.135
 5904POPC   D2A74572  39.186  29.748   6.525
 5904POPC   C3A74573  39.127  29.986   6.907
 5904POPC   C4A74574  38.917  29.872   7.287
 5904POPC   C1B74575  39.456  29.915   6.112
 5904POPC   C2B74576  39.673  29.954   6.541
 5904POPC   C3B74577  39.632  29.860   7.006
 5904POPC   C4B74578  39.388  30.029   7.386
 5905POPC   NC374579   1.551  25.454   5.369
 5905POPC   PO474580   2.205  25.374   5.491
 5905POPC   GL174581   1.870  25.327   5.818
 5905POPC   GL274582   1.673  25.617   5.854
 5905POPC   C1A74583   1.787  25.066   6.218
 5905POPC   D2A74584   2.045  24.747   6.446
 5905POPC   C3A74585   2.068  24.806   6.880
 5905POPC   C4A74586   1.940  25.017   7.236
 5905POPC   C1B74587   1.866  25.558   6.269
 5905POPC   C2B74588   1.966  25.315   6.676
 5905POPC   C3B74589   2.014  25.527   7.099
 5905POPC   C4B74590   1.909  25.792   7.492
 5906POPC   NC374591  18.000  25.480   5.632
 5906POPC   PO474592  18.095  26.210   5.502
 5906POPC   GL174593  18.384  26.025   5.821
 5906POPC   GL274594  18.466  25.655   5.842
 5906POPC   C1A74595  18.502  26.084   6.261
 5906POPC   D2A74596  18.406  26.434   6.564
 5906POPC   C3A74597  18.563  26.422   6.977
 5906POPC   C4A74598  18.651  26.043   7.170
 5906POPC   C1B74599  18.324  25.567   6.277
 5906POPC   C2B74600  18.379  25.779   6.677
 5906POPC   C3B74601  18.289  25.662   7.092
 5906POPC   C4B74602  18.010  25.591   7.386
 5907POPC   NC374603  12.384  33.440   5.398
 5907POPC   PO474604  12.135  34.055   5.470
 5907POPC   GL174605  12.092  33.767   5.794
 5907POPC   GL274606  12.456  33.783   5.809
 5907POPC   C1A74607  11.955  33.754   6.239
 5907POPC   D2A74608  12.118  33.578   6.635
 5907POPC   C3A74609  11.880  33.627   7.032
 5907POPC   C4A74610  11.752  34.078   7.115
 5907POPC   C1B74611  12.479  33.745   6.242
 5907POPC   C2B74612  12.438  33.999   6.588
 5907POPC   C3B74613  12.282  33.945   7.002
 5907POPC   C4B74614  12.357  33.642   7.313
 5908POPC   NC374615  44.777  17.741   5.461
 5908POPC   PO474616  44.810  17.104   5.444
 5908POPC   GL174617  44.655  17.373   5.812
 5908POPC   GL274618  44.485  17.724   5.900
 5908POPC   C1A74619  44.572  17.348   6.240
 5908POPC   D2A74620  44.589  17.641   6.546
 5908POPC   C3A74621  44.777  17.442   6.885
 5908POPC   C4A74622  44.578  17.374   7.295
 5908POPC   C1B74623  44.905  17.729   6.099
 5908POPC   C2B74624   0.065  17.829   6.512
 5908POPC   C3B74625  44.867  18.022   6.841
 5908POPC   C4B74626  44.850  17.824   7.235
 5909POPC   NC374627  41.750   7.351   5.482
 5909POPC   PO474628  41.088   7.362   5.364
 5909POPC   GL174629  41.336   7.536   5.744
 5909POPC   GL274630  41.395   7.185   5.855
 5909POPC   C1A74631  41.437   7.588   6.207
 5909POPC   D2A74632  41.663   7.774   6.549
 5909POPC   C3A74633  41.503   7.773   6.929
 5909POPC   C4A74634  41.458   7.767   7.340
 5909POPC   C1B74635  41.716   7.179   6.203
 5909POPC   C2B74636  41.594   7.265   6.634
 5909POPC   C3B74637  41.754   7.334   7.044
 5909POPC   C4B74638  41.736   7.059   7.374
 5910POPC   NC374639   2.760  24.612   5.566
 5910POPC   PO474640   2.836  23.985   5.336
 5910POPC   GL174641   2.828  24.144   5.761
 5910POPC   GL274642   3.163  24.296   5.763
 5910POPC   C1A74643   2.583  24.349   6.127
 5910POPC   D2A74644   2.723  24.614   6.491
 5910POPC   C3A74645   2.604  24.445   6.874
 5910POPC   C4A74646   2.534  24.697   7.225
 5910POPC   C1B74647   3.083  24.332   6.239
 5910POPC   C2B74648   3.133  24.303   6.736
 5910POPC   C3B74649   3.028  24.546   7.135
 5910POPC   C4B74650   2.922  24.730   7.539
 5911POPC   NC374651  13.950  34.022   5.351
 5911POPC   PO474652  13.473  33.509   5.535
 5911POPC   GL174653  13.829  33.669   5.723
 5911POPC   GL274654  13.641  33.983   5.772
 5911POPC   C1A74655  13.879  33.711   6.179
 5911POPC   D2A74656  13.590  33.608   6.539
 5911POPC   C3A74657  13.837  33.550   6.904
 5911POPC   C4A74658  13.983  33.781   7.256
 5911POPC   C1B74659  13.457  34.019   6.178
 5911POPC   C2B74660  13.673  34.115   6.558
 5911POPC   C3B74661  13.581  33.981   6.963
 5911POPC   C4B74662  13.648  34.185   7.322
 5912POPC   NC374663   7.057  13.339   5.415
 5912POPC   PO474664   6.380  13.535   5.438
 5912POPC   GL174665   6.508  13.656   5.837
 5912POPC   GL274666   6.840  13.593   5.823
 5912POPC   C1A74667   6.610  13.517   6.289
 5912POPC   D2A74668   6.620  13.178   6.597
 5912POPC   C3A74669   6.860  13.373   6.942
 5912POPC   C4A74670   6.693  13.677   7.219
 5912POPC   C1B74671   7.014  13.823   6.179
 5912POPC   C2B74672   6.944  13.798   6.624
 5912POPC   C3B74673   7.166  14.006   6.972
 5912POPC   C4B74674   7.066  13.974   7.392
 5913POPC   NC374675  34.348  44.795   5.520
 5913POPC   PO474676  34.742  44.319   5.455
 5913POPC   GL174677  34.683  44.559   5.839
 5913POPC   GL274678  34.807  44.885   5.763
 5913POPC   C1A74679  34.388  44.662   6.199
 5913POPC   D2A74680  34.577  44.582   6.591
 5913POPC   C3A74681  34.570  44.705   7.033
 5913POPC   C4A74682  34.505  44.636   7.461
 5913POPC   C1B74683  34.785  44.955   6.209
 5913POPC   C2B74684  34.931  44.953   6.606
 5913POPC   C3B74685  34.855   0.120   7.008
 5913POPC   C4B74686  34.953  44.883   7.368
 5914POPC   NC374687  22.647  15.487   5.480
 5914POPC   PO474688  22.376  14.894   5.399
 5914POPC   GL174689  22.134  15.095   5.745
 5914POPC   GL274690  21.778  14.991   5.802
 5914POPC   C1A74691  22.139  15.021   6.199
 5914POPC   D2A74692  22.121  15.226   6.600
 5914POPC   C3A74693  22.404  15.173   6.933
 5914POPC   C4A74694  22.276  15.223   7.349
 5914POPC   C1B74695  21.640  14.855   6.225
 5914POPC   C2B74696  21.643  15.034   6.654
 5914POPC   C3B74697  21.901  15.020   7.040
 5914POPC   C4B74698  21.910  14.881   7.482
 5915POPC   NC374699  29.136  34.498   5.434
 5915POPC   PO474700  28.756  35.095   5.516
 5915POPC   GL174701  28.932  34.791   5.789
 5915POPC   GL274702  29.308  34.776   5.841
 5915POPC   C1A74703  28.912  34.578   6.143
 5915POPC   D2A74704  28.750  34.656   6.541
 5915POPC   C3A74705  29.017  34.595   6.874
 5915POPC   C4A74706  28.986  34.532   7.286
 5915POPC   C1B74707  29.431  34.559   6.212
 5915POPC   C2B74708  29.443  34.409   6.643
 5915POPC   C3B74709  29.526  34.570   7.073
 5915POPC   C4B74710  29.453  34.471   7.531
 5916POPC   NC374711  19.045  11.039   5.365
 5916POPC   PO474712  19.193  11.672   5.188
 5916POPC   GL174713  19.199  11.503   5.671
 5916POPC   GL274714  19.178  11.190   5.851
 5916POPC   C1A74715  19.114  11.604   6.140
 5916POPC   D2A74716  19.053  11.395   6.534
 5916POPC   C3A74717  19.105  11.601   6.908
 5916POPC   C4A74718  19.025  11.418   7.318
 5916POPC   C1B74719  19.467  11.219   6.228
 5916POPC   C2B74720  19.472  11.097   6.674
 5916POPC   C3B74721  19.087  11.056   6.949
 5916POPC   C4B74722  18.941  10.900   7.349
 5917POPC   NC374723  26.376  21.554   5.102
 5917POPC   PO474724  26.196  20.938   5.261
 5917POPC   GL174725  26.134  21.225   5.654
 5917POPC   GL274726  26.218  21.585   5.729
 5917POPC   C1A74727  26.002  21.190   6.097
 5917POPC   D2A74728  26.169  21.284   6.508
 5917POPC   C3A74729  26.036  21.064   6.877
 5917POPC   C4A74730  26.083  21.265   7.289
 5917POPC   C1B74731  25.843  21.669   6.035
 5917POPC   C2B74732  25.719  21.576   6.474
 5917POPC   C3B74733  25.896  21.556   6.898
 5917POPC   C4B74734  25.747  21.676   7.312
 5918POPC   NC374735  31.359  24.409   5.420
 5918POPC   PO474736  30.670  24.522   5.462
 5918POPC   GL174737  30.688  24.388   5.859
 5918POPC   GL274738  30.920  24.132   5.843
 5918POPC   C1A74739  30.555  24.529   6.247
 5918POPC   D2A74740  30.737  24.513   6.642
 5918POPC   C3A74741  30.575  24.671   6.989
 5918POPC   C4A74742  30.465  24.539   7.409
 5918POPC   C1B74743  31.032  24.164   6.257
 5918POPC   C2B74744  31.169  24.170   6.679
 5918POPC   C3B74745  30.994  24.331   7.046
 5918POPC   C4B74746  30.846  24.222   7.471
 5919POPC   NC374747  41.048  12.454   5.515
 5919POPC   PO474748  40.950  13.153   5.390
 5919POPC   GL174749  41.038  12.961   5.791
 5919POPC   GL274750  40.755  12.717   5.853
 5919POPC   C1A74751  40.885  13.097   6.214
 5919POPC   D2A74752  40.605  12.916   6.541
 5919POPC   C3A74753  40.527  13.121   6.949
 5919POPC   C4A74754  40.631  13.019   7.383
 5919POPC   C1B74755  41.062  12.619   6.187
 5919POPC   C2B74756  41.113  12.753   6.610
 5919POPC   C3B74757  40.945  12.814   7.031
 5919POPC   C4B74758  40.974  12.683   7.519
 5920POPC   NC374759  38.252  33.578   5.272
 5920POPC   PO474760  38.695  34.023   5.437
 5920POPC   GL174761  38.683  33.852   5.818
 5920POPC   GL274762  38.351  33.814   5.849
 5920POPC   C1A74763  38.749  33.746   6.245
 5920POPC   D2A74764  38.450  33.757   6.579
 5920POPC   C3A74765  38.514  33.895   6.970
 5920POPC   C4A74766  38.949  33.882   7.089
 5920POPC   C1B74767  38.291  33.512   6.167
 5920POPC   C2B74768  38.233  33.306   6.590
 5920POPC   C3B74769  38.198  33.437   7.069
 5920POPC   C4B74770  38.189  33.356   7.551
 5921POPC   NC374771   1.571   2.912   5.514
 5921POPC   PO474772   0.892   2.888   5.416
 5921POPC   GL174773   1.121   2.706   5.778
 5921POPC   GL274774   1.182   3.038   5.897
 5921POPC   C1A74775   1.228   2.643   6.244
 5921POPC   D2A74776   1.198   2.852   6.693
 5921POPC   C3A74777   1.043   2.639   7.096
 5921POPC   C4A74778   1.308   2.489   7.491
 5921POPC   C1B74779   1.469   3.109   6.265
 5921POPC   C2B74780   1.616   3.180   6.705
 5921POPC   C3B74781   1.344   3.185   7.072
 5921POPC   C4B74782   0.887   3.116   7.007
 5922POPC   NC374783  33.394  36.746   5.518
 5922POPC   PO474784  33.922  37.151   5.426
 5922POPC   GL174785  33.698  37.081   5.784
 5922POPC   GL274786  33.844  36.731   5.826
 5922POPC   C1A74787  33.628  37.020   6.223
 5922POPC   D2A74788  33.719  37.250   6.586
 5922POPC   C3A74789  33.711  37.055   6.995
 5922POPC   C4A74790  33.802  36.879   7.374
 5922POPC   C1B74791  34.069  36.785   6.240
 5922POPC   C2B74792  34.019  36.835   6.654
 5922POPC   C3B74793  34.099  36.652   7.039
 5922POPC   C4B74794  34.008  36.373   7.402
 5923POPC   NC374795  22.049  44.907   5.300
 5923POPC   PO474796  21.865  44.312   5.504
 5923POPC   GL174797  22.092  44.584   5.793
 5923POPC   GL274798  22.101  44.922   5.800
 5923POPC   C1A74799  22.247  44.488   6.184
 5923POPC   D2A74800  22.099  44.244   6.501
 5923POPC   C3A74801  22.124  44.470   6.873
 5923POPC   C4A74802  22.039  44.284   7.235
 5923POPC   C1B74803  22.352  44.972   6.138
 5923POPC   C2B74804  22.215  44.857   6.532
 5923POPC   C3B74805  22.176   0.023   6.917
 5923POPC   C4B74806  22.218  44.860   7.296
 5924POPC   NC374807  41.652  29.119   5.371
 5924POPC   PO474808  41.037  29.270   5.378
 5924POPC   GL174809  41.346  29.273   5.754
 5924POPC   GL274810  41.423  28.931   5.817
 5924POPC   C1A74811  41.553  29.371   6.175
 5924POPC   D2A74812  41.878  29.372   6.478
 5924POPC   C3A74813  41.764  29.255   6.881
 5924POPC   C4A74814  41.561  29.328   7.256
 5924POPC   C1B74815  41.290  28.926   6.214
 5924POPC   C2B74816  41.340  29.146   6.583
 5924POPC   C3B74817  41.323  28.974   6.979
 5924POPC   C4B74818  41.286  28.755   7.366
 5925POPC   NC374819  21.500  42.005   5.527
 5925POPC   PO474820  21.398  41.449   5.340
 5925POPC   GL174821  21.423  41.559   5.821
 5925POPC   GL274822  21.342  41.862   5.994
 5925POPC   C1A74823  21.320  41.463   6.291
 5925POPC   D2A74824  21.310  41.702   6.707
 5925POPC   C3A74825  21.338  41.530   7.127
 5925POPC   C4A74826  21.357  41.672   7.547
 5925POPC   C1B74827  21.594  41.926   6.350
 5925POPC   C2B74828  21.828  41.817   6.749
 5925POPC   C3B74829  21.754  41.827   7.231
 5925POPC   C4B74830  21.732  41.999   7.686
 5926POPC   NC374831  23.333  24.231   5.306
 5926POPC   PO474832  22.820  24.657   5.513
 5926POPC   GL174833  22.953  24.379   5.790
 5926POPC   GL274834  23.339  24.416   5.800
 5926POPC   C1A74835  22.658  24.274   6.149
 5926POPC   D2A74836  22.479  24.313   6.574
 5926POPC   C3A74837  22.715  24.438   6.904
 5926POPC   C4A74838  22.807  24.333   7.291
 5926POPC   C1B74839  23.179  24.411   6.244
 5926POPC   C2B74840  23.168  24.521   6.690
 5926POPC   C3B74841  23.220  24.609   7.116
 5926POPC   C4B74842  23.268  25.000   7.347
 5927POPC   NC374843  40.981  43.353   5.377
 5927POPC   PO474844  40.506  42.977   5.608
 5927POPC   GL174845  40.866  43.097   5.862
 5927POPC   GL274846  41.004  43.438   5.866
 5927POPC   C1A74847  40.940  42.911   6.286
 5927POPC   D2A74848  40.679  42.715   6.623
 5927POPC   C3A74849  40.769  42.925   6.997
 5927POPC   C4A74850  41.094  43.168   7.211
 5927POPC   C1B74851  40.736  43.430   6.225
 5927POPC   C2B74852  40.677  43.258   6.599
 5927POPC   C3B74853  40.701  43.490   6.952
 5927POPC   C4B74854  40.872  43.609   7.307
 5928POPC   NC374855  33.429  25.543   5.394
 5928POPC   PO474856  34.056  25.398   5.422
 5928POPC   GL174857  33.731  25.345   5.799
 5928POPC   GL274858  33.517  25.670   5.890
 5928POPC   C1A74859  33.734  25.120   6.254
 5928POPC   D2A74860  33.918  25.014   6.696
 5928POPC   C3A74861  33.674  25.030   7.032
 5928POPC   C4A74862  33.394  25.206   7.348
 5928POPC   C1B74863  33.876  25.659   6.165
 5928POPC   C2B74864  33.948  25.494   6.557
 5928POPC   C3B74865  33.770  25.543   6.973
 5928POPC   C4B74866  33.887  25.531   7.411
 5929POPC   NC374867  38.593  37.059   5.363
 5929POPC   PO474868  38.180  36.452   5.180
 5929POPC   GL174869  38.239  36.723   5.637
 5929POPC   GL274870  38.236  37.107   5.733
 5929POPC   C1A74871  38.358  36.815   6.115
 5929POPC   D2A74872  38.656  36.755   6.495
 5929POPC   C3A74873  38.495  36.745   6.945
 5929POPC   C4A74874  38.355  37.107   7.184
 5929POPC   C1B74875  38.636  37.219   6.022
 5929POPC   C2B74876  38.610  37.303   6.480
 5929POPC   C3B74877  38.811  37.293   6.887
 5929POPC   C4B74878  38.767  37.371   7.344
 5930POPC   NC374879   9.570  41.116   5.503
 5930POPC   PO474880   9.769  40.489   5.487
 5930POPC   GL174881   9.749  40.752   5.807
 5930POPC   GL274882  10.041  40.989   5.688
 5930POPC   C1A74883   9.633  40.767   6.235
 5930POPC   D2A74884   9.724  40.528   6.602
 5930POPC   C3A74885   9.604  40.729   7.009
 5930POPC   C4A74886   9.478  41.098   7.267
 5930POPC   C1B74887  10.171  40.786   6.066
 5930POPC   C2B74888  10.116  40.839   6.480
 5930POPC   C3B74889  10.091  40.820   6.912
 5930POPC   C4B74890   9.961  40.988   7.313
 5931POPC   NC374891  43.914   1.806   5.438
 5931POPC   PO474892  44.197   2.553   5.448
 5931POPC   GL174893  43.991   2.236   5.810
 5931POPC   GL274894  44.121   1.891   5.910
 5931POPC   C1A74895  43.772   2.042   6.218
 5931POPC   D2A74896  43.918   1.680   6.432
 5931POPC   C3A74897  43.829   1.703   6.873
 5931POPC   C4A74898  43.724   2.053   7.131
 5931POPC   C1B74899  44.296   2.006   6.314
 5931POPC   C2B74900  44.122   2.130   6.715
 5931POPC   C3B74901  44.205   2.199   7.145
 5931POPC   C4B74902  44.200   2.198   7.593
 5932POPC   NC374903  26.186  32.228   5.295
 5932POPC   PO474904  25.693  32.448   5.661
 5932POPC   GL174905  26.114  32.397   5.809
 5932POPC   GL274906  26.169  32.079   5.795
 5932POPC   C1A74907  26.319  32.401   6.221
 5932POPC   D2A74908  26.138  32.582   6.596
 5932POPC   C3A74909  26.242  32.596   7.032
 5932POPC   C4A74910  25.875  32.492   7.257
 5932POPC   C1B74911  25.982  31.995   6.149
 5932POPC   C2B74912  26.037  31.882   6.568
 5932POPC   C3B74913  26.100  32.081   6.954
 5932POPC   C4B74914  26.128  32.059   7.368
 5933POPC   NC374915  36.882  29.456   5.436
 5933POPC   PO474916  37.157  28.750   5.393
 5933POPC   GL174917  37.006  29.004   5.757
 5933POPC   GL274918  37.011  29.336   5.929
 5933POPC   C1A74919  36.685  28.960   6.089
 5933POPC   D2A74920  36.480  28.890   6.495
 5933POPC   C3A74921  36.497  29.223   6.798
 5933POPC   C4A74922  36.690  29.308   7.196
 5933POPC   C1B74923  37.183  29.090   6.266
 5933POPC   C2B74924  37.364  29.122   6.676
 5933POPC   C3B74925  37.303  28.947   7.069
 5933POPC   C4B74926  37.166  29.248   7.348
 5934POPC   NC374927   8.593   9.827   5.409
 5934POPC   PO474928   7.990   9.607   5.485
 5934POPC   GL174929   8.122   9.616   5.896
 5934POPC   GL274930   8.468   9.532   5.840
 5934POPC   C1A74931   8.064   9.580   6.358
 5934POPC   D2A74932   7.955   9.937   6.626
 5934POPC   C3A74933   8.108   9.896   7.040
 5934POPC   C4A74934   8.402   9.598   7.201
 5934POPC   C1B74935   8.453   9.864   6.195
 5934POPC   C2B74936   8.454   9.764   6.642
 5934POPC   C3B74937   8.627   9.971   6.958
 5934POPC   C4B74938   8.489  10.095   7.345
 5935POPC   NC374939  38.666   3.178   5.113
 5935POPC   PO474940  38.454   3.676   5.497
 5935POPC   GL174941  38.451   3.461   5.879
 5935POPC   GL274942  38.458   3.139   5.753
 5935POPC   C1A74943  38.368   3.605   6.281
 5935POPC   D2A74944  38.543   3.762   6.632
 5935POPC   C3A74945  38.204   3.735   6.907
 5935POPC   C4A74946  38.327   3.858   7.275
 5935POPC   C1B74947  38.568   3.062   6.205
 5935POPC   C2B74948  38.552   3.226   6.635
 5935POPC   C3B74949  38.306   3.117   7.010
 5935POPC   C4B74950  38.586   3.068   7.339
 5936POPC   NC374951   4.665  40.453   5.436
 5936POPC   PO474952   4.111  40.924   5.442
 5936POPC   GL174953   4.087  40.691   5.824
 5936POPC   GL274954   4.359  40.454   5.845
 5936POPC   C1A74955   4.056  40.640   6.284
 5936POPC   D2A74956   3.849  40.756   6.679
 5936POPC   C3A74957   4.182  40.870   6.959
 5936POPC   C4A74958   4.396  40.564   7.201
 5936POPC   C1B74959   4.511  40.805   6.101
 5936POPC   C2B74960   4.497  40.772   6.537
 5936POPC   C3B74961   4.724  40.772   6.891
 5936POPC   C4B74962   4.594  41.018   7.267
 5937POPC   NC374963  25.905  24.771   5.256
 5937POPC   PO474964  26.489  24.410   5.350
 5937POPC   GL174965  26.274  24.359   5.741
 5937POPC   GL274966  25.942  24.533   5.736
 5937POPC   C1A74967  26.288  24.426   6.188
 5937POPC   D2A74968  26.118  24.737   6.472
 5937POPC   C3A74969  26.236  24.663   6.901
 5937POPC   C4A74970  26.218  24.308   7.182
 5937POPC   C1B74971  25.733  24.446   6.131
 5937POPC   C2B74972  25.604  24.685   6.485
 5937POPC   C3B74973  25.707  24.599   6.910
 5937POPC   C4B74974  25.900  24.710   7.302
 5938POPC   NC374975  38.581  22.519   5.442
 5938POPC   PO474976  38.545  21.851   5.464
 5938POPC   GL174977  38.579  22.061   5.855
 5938POPC   GL274978  38.325  22.305   5.903
 5938POPC   C1A74979  38.593  22.129   6.305
 5938POPC   D2A74980  38.330  22.131   6.661
 5938POPC   C3A74981  38.585  22.128   6.994
 5938POPC   C4A74982  38.793  21.770   7.187
 5938POPC   C1B74983  38.216  22.484   6.307
 5938POPC   C2B74984  38.123  22.619   6.740
 5938POPC   C3B74985  38.104  22.314   7.104
 5938POPC   C4B74986  38.253  21.922   7.336
 5939POPC   NC374987  24.648  12.561   5.360
 5939POPC   PO474988  24.741  13.228   5.626
 5939POPC   GL174989  24.616  12.778   5.832
 5939POPC   GL274990  24.279  12.583   5.767
 5939POPC   C1A74991  24.609  12.531   6.240
 5939POPC   D2A74992  24.639  12.615   6.692
 5939POPC   C3A74993  24.894  12.965   6.794
 5939POPC   C4A74994  24.826  13.269   7.100
 5939POPC   C1B74995  24.176  12.771   6.188
 5939POPC   C2B74996  24.108  12.855   6.640
 5939POPC   C3B74997  24.313  12.834   7.075
 5939POPC   C4B74998  24.658  12.569   7.230
 5940POPC   NC374999   3.319  33.174   5.377
 5940POPC   PO475000   3.614  32.558   5.546
 5940POPC   GL175001   3.480  32.863   5.793
 5940POPC   GL275002   3.635  33.197   5.815
 5940POPC   C1A75003   3.641  32.846   6.189
 5940POPC   D2A75004   3.516  32.620   6.506
 5940POPC   C3A75005   3.572  32.898   6.804
 5940POPC   C4A75006   3.624  32.913   7.201
 5940POPC   C1B75007   3.529  33.361   6.245
 5940POPC   C2B75008   3.548  33.412   6.707
 5940POPC   C3B75009   3.868  33.331   7.017
 5940POPC   C4B75010   3.808  33.314   7.472
 5941POPC   NC375011  14.502   2.727   5.358
 5941POPC   PO475012  13.941   2.319   5.612
 5941POPC   GL175013  14.209   2.537   5.898
 5941POPC   GL275014  14.543   2.647   5.857
 5941POPC   C1A75015  14.281   2.729   6.308
 5941POPC   D2A75016  14.596   2.855   6.624
 5941POPC   C3A75017  14.281   2.889   6.898
 5941POPC   C4A75018  14.203   2.724   7.282
 5941POPC   C1B75019  14.640   2.391   6.200
 5941POPC   C2B75020  14.459   2.357   6.622
 5941POPC   C3B75021  14.568   2.480   7.007
 5941POPC   C4B75022  14.738   2.333   7.352
 5942POPC   NC375023   5.417  35.960   5.457
 5942POPC   PO475024   5.570  36.632   5.557
 5942POPC   GL175025   5.328  36.352   5.841
 5942POPC   GL275026   4.948  36.321   5.773
 5942POPC   C1A75027   5.403  36.105   6.229
 5942POPC   D2A75028   5.568  36.248   6.636
 5942POPC   C3A75029   5.358  36.058   6.964
 5942POPC   C4A75030   5.066  35.745   7.193
 5942POPC   C1B75031   4.982  36.399   6.229
 5942POPC   C2B75032   4.999  36.140   6.608
 5942POPC   C3B75033   4.894  36.231   7.058
 5942POPC   C4B75034   4.841  36.108   7.503
 5943POPC   NC375035  27.164   6.526   5.475
 5943POPC   PO475036  26.516   6.778   5.382
 5943POPC   GL175037  26.688   6.585   5.735
 5943POPC   GL275038  26.978   6.755   5.871
 5943POPC   C1A75039  26.580   6.620   6.186
 5943POPC   D2A75040  26.812   6.628   6.595
 5943POPC   C3A75041  26.612   6.702   7.025
 5943POPC   C4A75042  26.529   6.620   7.497
 5943POPC   C1B75043  27.038   6.355   6.140
 5943POPC   C2B75044  27.098   6.150   6.567
 5943POPC   C3B75045  27.216   6.292   6.999
 5943POPC   C4B75046  27.223   6.707   7.191
 5944POPC   NC375047  31.448  42.552   5.328
 5944POPC   PO475048  31.762  42.093   5.711
 5944POPC   GL175049  31.433  42.313   5.831
 5944POPC   GL275050  31.572  42.651   5.841
 5944POPC   C1A75051  31.348  42.306   6.277
 5944POPC   D2A75052  31.668  42.277   6.572
 5944POPC   C3A75053  31.522  42.345   6.976
 5944POPC   C4A75054  31.747  42.285   7.342
 5944POPC   C1B75055  31.325  42.811   6.187
 5944POPC   C2B75056  31.364  42.711   6.620
 5944POPC   C3B75057  31.211  42.728   7.050
 5944POPC   C4B75058  31.309  42.504   7.438
 5945POPC   NC375059  40.816  36.366   5.526
 5945POPC   PO475060  40.747  35.697   5.298
 5945POPC   GL175061  40.924  35.888   5.683
 5945POPC   GL275062  40.547  35.973   5.736
 5945POPC   C1A75063  40.986  36.114   6.120
 5945POPC   D2A75064  40.743  36.317   6.457
 5945POPC   C3A75065  40.823  36.171   6.871
 5945POPC   C4A75066  40.626  36.213   7.272
 5945POPC   C1B75067  40.355  36.025   6.147
 5945POPC   C2B75068  40.351  36.026   6.589
 5945POPC   C3B75069  40.482  35.782   6.944
 5945POPC   C4B75070  40.384  35.758   7.385
 5946POPC   NC375071  36.097  44.893   5.390
 5946POPC   PO475072  36.222  44.284   5.502
 5946POPC   GL175073  36.004  44.523   5.766
 5946POPC   GL275074  35.696  44.388   5.820
 5946POPC   C1A75075  36.118  44.745   6.126
 5946POPC   D2A75076  35.961  44.838   6.529
 5946POPC   C3A75077  36.259  44.680   6.803
 5946POPC   C4A75078  36.434  44.658   7.203
 5946POPC   C1B75079  35.664  44.522   6.192
 5946POPC   C2B75080  35.623  44.387   6.567
 5946POPC   C3B75081  35.726  44.569   6.920
 5946POPC   C4B75082  35.939  44.848   7.162
 5947POPC   NC375083  44.654  40.224   5.423
 5947POPC   PO475084   0.009  39.730   5.240
 5947POPC   GL175085  44.897  39.955   5.723
 5947POPC   GL275086  44.447  39.855   5.684
 5947POPC   C1A75087  44.600  40.114   6.073
 5947POPC   D2A75088  44.550  40.023   6.498
 5947POPC   C3A75089  44.874  39.807   6.751
 5947POPC   C4A75090  44.817  39.845   7.203
 5947POPC   C1B75091  44.277  39.674   6.079
 5947POPC   C2B75092  44.335  39.568   6.515
 5947POPC   C3B75093  44.385  39.681   6.941
 5947POPC   C4B75094  44.183  39.473   7.259
 5948POPC   NC375095  20.072  30.339   5.351
 5948POPC   PO475096  19.553  30.615   5.601
 5948POPC   GL175097  19.967  30.676   5.782
 5948POPC   GL275098  20.071  31.042   5.876
 5948POPC   C1A75099  20.051  30.652   6.217
 5948POPC   D2A75100  20.003  30.924   6.535
 5948POPC   C3A75101  20.028  30.723   6.911
 5948POPC   C4A75102  19.932  30.547   7.296
 5948POPC   C1B75103  19.738  31.230   6.178
 5948POPC   C2B75104  19.540  31.153   6.596
 5948POPC   C3B75105  19.633  31.029   6.991
 5948POPC   C4B75106  19.879  31.046   7.352
 5949POPC   NC375107  26.546   4.706   5.743
 5949POPC   PO475108  26.907   5.236   5.435
 5949POPC   GL175109  26.983   5.256   5.865
 5949POPC   GL275110  26.676   5.133   6.005
 5949POPC   C1A75111  27.184   5.294   6.255
 5949POPC   D2A75112  27.249   5.094   6.684
 5949POPC   C3A75113  27.199   5.360   7.036
 5949POPC   C4A75114  26.839   5.414   7.217
 5949POPC   C1B75115  26.793   4.948   6.401
 5949POPC   C2B75116  26.748   5.072   6.832
 5949POPC   C3B75117  26.603   4.882   7.191
 5949POPC   C4B75118  26.585   4.915   7.628
 5950POPC   NC375119  26.683   8.981   5.388
 5950POPC   PO475120  27.328   8.861   5.610
 5950POPC   GL175121  26.987   9.075   5.794
 5950POPC   GL275122  26.710   8.831   5.869
 5950POPC   C1A75123  26.892   9.210   6.208
 5950POPC   D2A75124  27.059   9.009   6.573
 5950POPC   C3A75125  26.910   9.169   6.959
 5950POPC   C4A75126  26.622   9.283   7.329
 5950POPC   C1B75127  26.999   8.650   6.160
 5950POPC   C2B75128  26.918   8.447   6.539
 5950POPC   C3B75129  26.826   8.638   6.910
 5950POPC   C4B75130  26.853   8.822   7.309
 5951POPC   NC375131  41.040   3.223   5.546
 5951POPC   PO475132  41.626   3.322   5.184
 5951POPC   GL175133  41.620   3.428   5.666
 5951POPC   GL275134  41.325   3.537   5.842
 5951POPC   C1A75135  41.706   3.423   6.148
 5951POPC   D2A75136  41.451   3.550   6.523
 5951POPC   C3A75137  41.609   3.434   6.889
 5951POPC   C4A75138  41.652   3.409   7.284
 5951POPC   C1B75139  41.117   3.734   6.186
 5951POPC   C2B75140  40.987   3.810   6.622
 5951POPC   C3B75141  41.164   3.685   7.018
 5951POPC   C4B75142  41.391   3.859   7.372
 5952POPC   NC375143  20.950  22.104   5.390
 5952POPC   PO475144  20.432  22.471   5.504
 5952POPC   GL175145  20.537  22.319   5.898
 5952POPC   GL275146  20.568  21.963   5.793
 5952POPC   C1A75147  20.645  22.480   6.331
 5952POPC   D2A75148  20.921  22.646   6.712
 5952POPC   C3A75149  20.831  22.492   7.124
 5952POPC   C4A75150  20.476  22.209   7.199
 5952POPC   C1B75151  20.458  21.940   6.271
 5952POPC   C2B75152  20.286  21.776   6.702
 5952POPC   C3B75153  20.349  21.697   7.145
 5952POPC   C4B75154  20.709  21.622   7.448
 5953POPC   NC375155  12.250  41.705   5.272
 5953POPC   PO475156  11.691  41.478   5.383
 5953POPC   GL175157  11.899  41.383   5.807
 5953POPC   GL275158  12.192  41.591   5.778
 5953POPC   C1A75159  11.882  41.326   6.294
 5953POPC   D2A75160  12.044  41.572   6.676
 5953POPC   C3A75161  11.825  41.458   7.069
 5953POPC   C4A75162  11.917  41.313   7.501
 5953POPC   C1B75163  12.436  41.821   6.090
 5953POPC   C2B75164  12.330  41.997   6.484
 5953POPC   C3B75165  12.443  41.932   6.907
 5953POPC   C4B75166  12.345  42.050   7.342
 5954POPC   NC375167  20.092  39.659   5.166
 5954POPC   PO475168  19.643  39.943   5.605
 5954POPC   GL175169  19.867  40.225   5.846
 5954POPC   GL275170  19.688  40.547   5.825
 5954POPC   C1A75171  19.857  40.077   6.266
 5954POPC   D2A75172  19.848  39.823   6.627
 5954POPC   C3A75173  19.916  39.981   7.012
 5954POPC   C4A75174  19.928  39.728   7.341
 5954POPC   C1B75175  19.454  40.424   6.180
 5954POPC   C2B75176  19.497  40.249   6.611
 5954POPC   C3B75177  19.557  40.355   7.043
 5954POPC   C4B75178  19.574  40.094   7.422
 5955POPC   NC375179   4.385  11.464   5.570
 5955POPC   PO475180   4.624  10.841   5.361
 5955POPC   GL175181   4.393  10.959   5.745
 5955POPC   GL275182   4.026  11.023   5.721
 5955POPC   C1A75183   4.436  11.188   6.163
 5955POPC   D2A75184   4.240  11.439   6.502
 5955POPC   C3A75185   4.312  11.243   6.908
 5955POPC   C4A75186   4.289  11.252   7.363
 5955POPC   C1B75187   3.943  11.082   6.171
 5955POPC   C2B75188   3.884  11.075   6.619
 5955POPC   C3B75189   3.885  11.005   7.063
 5955POPC   C4B75190   3.858  11.007   7.502
 5956POPC   NC375191  25.365  33.997   5.297
 5956POPC   PO475192  24.836  33.623   5.392
 5956POPC   GL175193  25.210  33.663   5.701
 5956POPC   GL275194  25.383  33.984   5.794
 5956POPC   C1A75195  25.374  33.528   6.110
 5956POPC   D2A75196  25.140  33.582   6.478
 5956POPC   C3A75197  25.269  33.542   6.871
 5956POPC   C4A75198  25.271  33.745   7.237
 5956POPC   C1B75199  25.648  33.971   6.141
 5956POPC   C2B75200  25.657  33.761   6.532
 5956POPC   C3B75201  25.666  33.918   6.928
 5956POPC   C4B75202  25.815  33.962   7.332
 5957POPC   NC375203   8.344  30.192   5.313
 5957POPC   PO475204   8.044  30.842   5.394
 5957POPC   GL175205   7.915  30.779   5.836
 5957POPC   GL275206   7.938  31.134   5.858
 5957POPC   C1A75207   8.067  30.666   6.268
 5957POPC   D2A75208   8.461  30.770   6.482
 5957POPC   C3A75209   8.419  30.444   6.817
 5957POPC   C4A75210   8.077  30.416   7.091
 5957POPC   C1B75211   8.164  31.147   6.203
 5957POPC   C2B75212   8.012  31.119   6.579
 5957POPC   C3B75213   8.127  30.855   6.853
 5957POPC   C4B75214   8.203  30.924   7.242
 5958POPC   NC375215  41.320   1.087   5.205
 5958POPC   PO475216  41.541   1.707   5.521
 5958POPC   GL175217  41.494   1.277   5.792
 5958POPC   GL275218  41.765   1.037   5.715
 5958POPC   C1A75219  41.417   1.292   6.255
 5958POPC   D2A75220  41.683   1.461   6.571
 5958POPC   C3A75221  41.651   1.311   6.963
 5958POPC   C4A75222  41.640   1.474   7.378
 5958POPC   C1B75223  41.659   0.861   6.133
 5958POPC   C2B75224  41.746   0.956   6.569
 5958POPC   C3B75225  41.787   0.779   6.972
 5958POPC   C4B75226  41.577   0.921   7.303
 5959POPC   NC375227  15.609  17.996   5.527
 5959POPC   PO475228  15.201  18.386   5.276
 5959POPC   GL175229  14.996  18.438   5.665
 5959POPC   GL275230  15.172  18.152   5.811
 5959POPC   C1A75231  14.922  18.476   6.124
 5959POPC   D2A75232  15.177  18.457   6.504
 5959POPC   C3A75233  15.007  18.536   6.913
 5959POPC   C4A75234  15.195  18.303   7.236
 5959POPC   C1B75235  15.463  18.142   6.164
 5959POPC   C2B75236  15.563  18.127   6.603
 5959POPC   C3B75237  15.646  18.153   7.046
 5959POPC   C4B75238  15.582  18.010   7.478
 5960POPC   NC375239  35.110  42.578   5.587
 5960POPC   PO475240  35.619  42.232   5.310
 5960POPC   GL175241  35.455  42.199   5.727
 5960POPC   GL275242  35.560  42.537   5.807
 5960POPC   C1A75243  35.412  42.070   6.175
 5960POPC   D2A75244  35.140  42.153   6.558
 5960POPC   C3A75245  35.350  42.177   6.959
 5960POPC   C4A75246  35.391  41.913   7.306
 5960POPC   C1B75247  35.309  42.564   6.206
 5960POPC   C2B75248  35.413  42.586   6.623
 5960POPC   C3B75249  35.292  42.698   7.025
 5960POPC   C4B75250  35.548  42.873   7.321
 5961POPC   NC375251  30.114  15.310   5.580
 5961POPC   PO475252  29.644  15.073   5.207
 5961POPC   GL175253  29.642  15.301   5.714
 5961POPC   GL275254  29.918  15.060   5.960
 5961POPC   C1A75255  29.688  15.429   6.189
 5961POPC   D2A75256  29.471  15.470   6.613
 5961POPC   C3A75257  29.692  15.367   6.973
 5961POPC   C4A75258  29.698  15.047   7.223
 5961POPC   C1B75259  30.268  15.127   6.193
 5961POPC   C2B75260  30.289  15.277   6.594
 5961POPC   C3B75261  30.150  15.113   6.971
 5961POPC   C4B75262  30.083  15.359   7.340
 5962POPC   NC375263  21.693   1.949   5.519
 5962POPC   PO475264  21.213   2.472   5.401
 5962POPC   GL175265  21.373   2.281   5.859
 5962POPC   GL275266  21.549   1.943   5.996
 5962POPC   C1A75267  21.188   2.143   6.295
 5962POPC   D2A75268  21.141   1.745   6.585
 5962POPC   C3A75269  21.256   1.837   7.016
 5962POPC   C4A75270  21.220   2.267   7.163
 5962POPC   C1B75271  21.814   2.250   6.190
 5962POPC   C2B75272  21.675   2.389   6.600
 5962POPC   C3B75273  21.711   2.249   7.017
 5962POPC   C4B75274  21.947   2.365   7.380
 5963POPC   NC375275  26.885  11.365   5.337
 5963POPC   PO475276  27.582  11.376   5.217
 5963POPC   GL175277  27.462  11.433   5.683
 5963POPC   GL275278  27.137  11.620   5.706
 5963POPC   C1A75279  27.553  11.271   6.126
 5963POPC   D2A75280  27.887  11.301   6.435
 5963POPC   C3A75281  27.863  11.150   6.838
 5963POPC   C4A75282  27.691  11.179   7.211
 5963POPC   C1B75283  27.237  11.732   6.131
 5963POPC   C2B75284  27.431  11.560   6.521
 5963POPC   C3B75285  27.314  11.390   6.899
 5963POPC   C4B75286  27.385  11.603   7.273
 5964POPC   NC375287  24.191  17.636   5.325
 5964POPC   PO475288  23.543  17.366   5.283
 5964POPC   GL175289  23.827  17.497   5.655
 5964POPC   GL275290  23.584  17.413   5.914
 5964POPC   C1A75291  24.016  17.644   6.081
 5964POPC   D2A75292  23.914  17.422   6.481
 5964POPC   C3A75293  23.908  17.567   6.915
 5964POPC   C4A75294  23.794  17.379   7.311
 5964POPC   C1B75295  23.543  17.726   6.294
 5964POPC   C2B75296  23.393  17.726   6.731
 5964POPC   C3B75297  23.335  17.507   7.126
 5964POPC   C4B75298  23.397  17.584   7.574
 5965POPC   NC375299  33.166  14.201   5.351
 5965POPC   PO475300  32.952  14.821   5.313
 5965POPC   GL175301  32.996  14.566   5.695
 5965POPC   GL275302  32.818  14.767   5.887
 5965POPC   C1A75303  33.145  14.284   6.077
 5965POPC   D2A75304  33.152  14.137   6.554
 5965POPC   C3A75305  33.377  14.245   6.984
 5965POPC   C4A75306  33.200  14.326   7.412
 5965POPC   C1B75307  32.873  14.631   6.340
 5965POPC   C2B75308  33.171  14.630   6.701
 5965POPC   C3B75309  33.233  14.764   7.129
 5965POPC   C4B75310  32.865  14.719   7.419
 5966POPC   NC375311  35.614  35.599   5.495
 5966POPC   PO475312  35.291  35.023   5.205
 5966POPC   GL175313  35.285  35.168   5.668
 5966POPC   GL275314  34.982  35.343   5.825
 5966POPC   C1A75315  35.429  35.336   6.094
 5966POPC   D2A75316  35.419  35.556   6.503
 5966POPC   C3A75317  35.526  35.359   6.907
 5966POPC   C4A75318  35.274  35.271   7.276
 5966POPC   C1B75319  35.006  35.668   6.188
 5966POPC   C2B75320  34.936  35.759   6.611
 5966POPC   C3B75321  34.919  35.469   6.954
 5966POPC   C4B75322  34.957  35.684   7.328
 5967POPC   NC375323   9.243   2.315   5.591
 5967POPC   PO475324   8.786   1.783   5.387
 5967POPC   GL175325   8.909   1.948   5.769
 5967POPC   GL275326   8.763   2.272   5.774
 5967POPC   C1A75327   9.058   1.847   6.191
 5967POPC   D2A75328   9.279   2.004   6.548
 5967POPC   C3A75329   9.064   1.852   6.896
 5967POPC   C4A75330   8.924   1.804   7.337
 5967POPC   C1B75331   8.857   2.359   6.217
 5967POPC   C2B75332   8.764   2.202   6.651
 5967POPC   C3B75333   8.798   2.253   7.123
 5967POPC   C4B75334   8.628   2.167   7.569
 5968POPC   NC375335  38.924  19.678   5.466
 5968POPC   PO475336  39.377  20.112   5.305
 5968POPC   GL175337  39.249  20.035   5.713
 5968POPC   GL275338  39.554  20.061   5.901
 5968POPC   C1A75339  39.137  19.790   6.099
 5968POPC   D2A75340  39.225  19.859   6.536
 5968POPC   C3A75341  38.945  19.954   6.882
 5968POPC   C4A75342  39.133  19.768   7.235
 5968POPC   C1B75343  39.283  20.269   6.188
 5968POPC   C2B75344  39.355  20.369   6.617
 5968POPC   C3B75345  39.422  20.127   6.976
 5968POPC   C4B75346  39.411  20.181   7.461
 5969POPC   NC375347  41.782  20.552   4.912
 5969POPC   PO475348  41.688  20.679   5.537
 5969POPC   GL175349  41.593  20.579   5.935
 5969POPC   GL275350  41.839  20.420   5.983
 5969POPC   C1A75351  41.456  20.775   6.321
 5969POPC   D2A75352  41.651  20.874   6.732
 5969POPC   C3A75353  41.463  20.895   7.129
 5969POPC   C4A75354  41.464  20.704   7.538
 5969POPC   C1B75355  41.626  20.282   6.358
 5969POPC   C2B75356  41.733  20.243   6.780
 5969POPC   C3B75357  41.571  20.380   7.166
 5969POPC   C4B75358  41.506  20.200   7.579
 5970POPC   NC375359  17.441  23.463   5.456
 5970POPC   PO475360  17.466  22.824   5.410
 5970POPC   GL175361  17.524  23.048   5.776
 5970POPC   GL275362  17.174  23.150   5.793
 5970POPC   C1A75363  17.503  22.889   6.197
 5970POPC   D2A75364  17.535  23.038   6.611
 5970POPC   C3A75365  17.764  22.797   6.917
 5970POPC   C4A75366  17.660  22.593   7.303
 5970POPC   C1B75367  17.182  23.279   6.240
 5970POPC   C2B75368  17.058  23.228   6.650
 5970POPC   C3B75369  17.230  23.065   7.045
 5970POPC   C4B75370  17.386  23.317   7.398
 5971POPC   NC375371  44.335   5.737   5.352
 5971POPC   PO475372  43.920   6.351   5.369
 5971POPC   GL175373  43.997   6.077   5.709
 5971POPC   GL275374  43.701   5.912   5.848
 5971POPC   C1A75375  44.086   5.908   6.148
 5971POPC   D2A75376  43.899   6.050   6.546
 5971POPC   C3A75377  43.952   5.804   6.924
 5971POPC   C4A75378  44.143   5.963   7.293
 5971POPC   C1B75379  43.525   5.786   6.270
 5971POPC   C2B75380  43.474   5.714   6.720
 5971POPC   C3B75381  43.509   5.583   7.140
 5971POPC   C4B75382  43.598   5.747   7.553
 5972POPC   NC375383  31.318  11.665   5.466
 5972POPC   PO475384  31.685  11.135   5.465
 5972POPC   GL175385  31.568  11.357   5.833
 5972POPC   GL275386  31.206  11.275   5.826
 5972POPC   C1A75387  31.390  11.473   6.250
 5972POPC   D2A75388  31.189  11.780   6.532
 5972POPC   C3A75389  31.303  11.594   6.944
 5972POPC   C4A75390  31.713  11.494   7.156
 5972POPC   C1B75391  31.348  10.939   6.100
 5972POPC   C2B75392  31.336  10.926   6.539
 5972POPC   C3B75393  31.116  10.966   6.930
 5972POPC   C4B75394  31.323  11.163   7.253
 5973POPC   NC375395   1.442  41.273   5.479
 5973POPC   PO475396   1.006  41.720   5.117
 5973POPC   GL175397   1.067  41.554   5.628
 5973POPC   GL275398   0.990  41.210   5.739
 5973POPC   C1A75399   1.270  41.504   6.065
 5973POPC   D2A75400   1.342  41.438   6.514
 5973POPC   C3A75401   1.333  41.817   6.788
 5973POPC   C4A75402   1.289  41.753   7.202
 5973POPC   C1B75403   0.778  41.397   6.126
 5973POPC   C2B75404   0.889  41.673   6.490
 5973POPC   C3B75405   0.874  41.571   6.937
 5973POPC   C4B75406   1.041  41.304   7.298
 5974POPC   NC375407   1.597  14.503   5.513
 5974POPC   PO475408   2.160  14.202   5.409
 5974POPC   GL175409   2.027  14.397   5.792
 5974POPC   GL275410   1.751  14.255   5.975
 5974POPC   C1A75411   2.142  14.559   6.197
 5974POPC   D2A75412   2.183  14.358   6.594
 5974POPC   C3A75413   1.951  14.328   6.972
 5974POPC   C4A75414   2.119  14.316   7.391
 5974POPC   C1B75415   1.654  14.561   6.310
 5974POPC   C2B75416   1.851  14.744   6.696
 5974POPC   C3B75417   1.856  14.768   7.203
 5974POPC   C4B75418   1.634  14.525   7.529
 5975POPC   NC375419  20.258  14.239   5.505
 5975POPC   PO475420  20.778  14.465   5.126
 5975POPC   GL175421  20.728  14.423   5.648
 5975POPC   GL275422  20.710  14.725   5.817
 5975POPC   C1A75423  20.554  14.363   6.131
 5975POPC   D2A75424  20.303  14.281   6.528
 5975POPC   C3A75425  20.327  14.387   6.931
 5975POPC   C4A75426  20.530  14.260   7.308
 5975POPC   C1B75427  20.935  14.686   6.201
 5975POPC   C2B75428  20.675  14.656   6.583
 5975POPC   C3B75429  20.854  14.559   6.990
 5975POPC   C4B75430  20.922  14.772   7.371
 5976POPC   NC375431  17.220   0.682   5.342
 5976POPC   PO475432  17.846   0.409   5.569
 5976POPC   GL175433  17.663   0.488   5.919
 5976POPC   GL275434  17.913   0.697   6.023
 5976POPC   C1A75435  17.438   0.465   6.300
 5976POPC   D2A75436  17.595   0.518   6.704
 5976POPC   C3A75437  17.501   0.228   7.022
 5976POPC   C4A75438  17.258   0.531   7.199
 5976POPC   C1B75439  17.942   0.377   6.343
 5976POPC   C2B75440  18.109   0.434   6.740
 5976POPC   C3B75441  17.900   0.541   7.111
 5976POPC   C4B75442  17.690   0.605   7.514
 5977POPC   NC375443   7.680  38.584   5.529
 5977POPC   PO475444   7.700  38.001   5.872
 5977POPC   GL175445   7.524  38.393   6.011
 5977POPC   GL275446   7.662  38.747   5.993
 5977POPC   C1A75447   7.309  38.335   6.380
 5977POPC   D2A75448   7.208  38.197   6.773
 5977POPC   C3A75449   7.519  38.027   7.052
 5977POPC   C4A75450   7.459  38.052   7.514
 5977POPC   C1B75451   7.405  38.821   6.326
 5977POPC   C2B75452   7.354  38.814   6.730
 5977POPC   C3B75453   7.298  38.696   7.124
 5977POPC   C4B75454   7.503  38.881   7.456
 5978POPC   NC375455  42.741  15.210   5.297
 5978POPC   PO475456  43.358  15.057   5.356
 5978POPC   GL175457  43.093  15.015   5.691
 5978POPC   GL275458  43.142  15.367   5.752
 5978POPC   C1A75459  43.154  15.039   6.155
 5978POPC   D2A75460  43.208  15.191   6.575
 5978POPC   C3A75461  43.184  14.817   6.814
 5978POPC   C4A75462  43.034  14.723   7.232
 5978POPC   C1B75463  43.399  15.498   6.104
 5978POPC   C2B75464  43.477  15.647   6.510
 5978POPC   C3B75465  43.369  15.562   6.930
 5978POPC   C4B75466  43.106  15.230   7.113
 5979POPC   NC375467  32.464  34.216   5.473
 5979POPC   PO475468  32.087  34.766   5.382
 5979POPC   GL175469  32.188  34.573   5.766
 5979POPC   GL275470  32.043  34.262   5.815
 5979POPC   C1A75471  32.197  34.683   6.201
 5979POPC   D2A75472  31.976  34.610   6.590
 5979POPC   C3A75473  32.215  34.777   6.931
 5979POPC   C4A75474  32.290  34.659   7.357
 5979POPC   C1B75475  32.331  34.192   6.177
 5979POPC   C2B75476  32.439  34.382   6.603
 5979POPC   C3B75477  32.262  34.249   6.992
 5979POPC   C4B75478  32.366  34.175   7.413
 5980POPC   NC375479   0.676   6.841   5.422
 5980POPC   PO475480   0.598   6.153   5.572
 5980POPC   GL175481   0.552   6.365   5.972
 5980POPC   GL275482   0.257   6.559   6.025
 5980POPC   C1A75483   0.708   6.779   6.141
 5980POPC   D2A75484   0.760   6.840   6.568
 5980POPC   C3A75485   0.675   6.455   6.776
 5980POPC   C4A75486   0.594   6.460   7.198
 5980POPC   C1B75487   0.221   6.799   6.394
 5980POPC   C2B75488   0.291   6.800   6.842
 5980POPC   C3B75489   0.204   6.762   7.280
 5980POPC   C4B75490   0.097   6.664   7.721
 5981POPC   NC375491  34.388   4.406   5.373
 5981POPC   PO475492  34.975   4.174   5.322
 5981POPC   GL175493  34.692   4.283   5.752
 5981POPC   GL275494  34.343   4.362   5.890
 5981POPC   C1A75495  34.732   4.211   6.202
 5981POPC   D2A75496  34.439   4.419   6.477
 5981POPC   C3A75497  34.365   4.329   6.917
 5981POPC   C4A75498  34.620   4.379   7.286
 5981POPC   C1B75499  34.297   3.967   6.184
 5981POPC   C2B75500  34.402   3.909   6.592
 5981POPC   C3B75501  34.237   3.830   6.988
 5981POPC   C4B75502  34.325   3.955   7.415
 5982POPC   NC375503  19.164  17.653   5.468
 5982POPC   PO475504  19.073  17.024   5.643
 5982POPC   GL175505  19.032  17.385   5.902
 5982POPC   GL275506  19.348  17.539   5.920
 5982POPC   C1A75507  19.004  17.588   6.301
 5982POPC   D2A75508  18.685  17.675   6.605
 5982POPC   C3A75509  18.842  17.709   7.021
 5982POPC   C4A75510  19.102  17.787   7.362
 5982POPC   C1B75511  19.448  17.268   6.229
 5982POPC   C2B75512  19.413  17.448   6.616
 5982POPC   C3B75513  19.331  17.431   7.067
 5982POPC   C4B75514  19.424  17.428   7.506
 5983POPC   NC375515  24.781   8.717   5.603
 5983POPC   PO475516  25.304   9.110   5.343
 5983POPC   GL175517  25.198   9.057   5.761
 5983POPC   GL275518  24.876   9.242   5.763
 5983POPC   C1A75519  25.406   8.908   6.150
 5983POPC   D2A75520  25.711   9.035   6.463
 5983POPC   C3A75521  25.524   9.027   6.869
 5983POPC   C4A75522  25.671   8.915   7.268
 5983POPC   C1B75523  24.918   9.079   6.189
 5983POPC   C2B75524  25.113   9.098   6.564
 5983POPC   C3B75525  25.017   9.132   6.984
 5983POPC   C4B75526  25.243   9.178   7.318
 5984POPC   NC375527  27.874  38.714   5.295
 5984POPC   PO475528  27.439  38.167   5.387
 5984POPC   GL175529  27.677  38.286   5.773
 5984POPC   GL275530  27.922  38.576   5.803
 5984POPC   C1A75531  27.708  38.423   6.217
 5984POPC   D2A75532  27.941  38.290   6.548
 5984POPC   C3A75533  27.721  38.435   6.873
 5984POPC   C4A75534  27.778  38.393   7.289
 5984POPC   C1B75535  27.946  38.873   6.225
 5984POPC   C2B75536  28.006  38.830   6.680
 5984POPC   C3B75537  27.852  38.866   7.129
 5984POPC   C4B75538  27.435  38.984   7.286
 5985POPC   NC375539  40.694  38.625   5.621
 5985POPC   PO475540  40.744  39.147   5.143
 5985POPC   GL175541  40.744  39.188   5.644
 5985POPC   GL275542  40.956  38.971   5.879
 5985POPC   C1A75543  40.679  39.324   6.120
 5985POPC   D2A75544  40.731  39.116   6.544
 5985POPC   C3A75545  40.594  39.245   6.959
 5985POPC   C4A75546  40.853  39.186   7.316
 5985POPC   C1B75547  41.027  38.780   6.304
 5985POPC   C2B75548  41.188  38.721   6.730
 5985POPC   C3B75549  41.159  38.811   7.171
 5985POPC   C4B75550  41.115  38.708   7.644
 5986POPC   NC375551  30.162   9.455   5.724
 5986POPC   PO475552  29.724   9.814   5.415
 5986POPC   GL175553  29.832   9.843   5.855
 5986POPC   GL275554  30.161   9.963   5.852
 5986POPC   C1A75555  29.931   9.662   6.289
 5986POPC   D2A75556  30.177   9.554   6.670
 5986POPC   C3A75557  29.966   9.714   7.047
 5986POPC   C4A75558  29.788   9.550   7.413
 5986POPC   C1B75559  30.311  10.029   6.317
 5986POPC   C2B75560  30.275  10.074   6.780
 5986POPC   C3B75561  30.402   9.938   7.186
 5986POPC   C4B75562  30.085  10.002   7.524
 5987POPC   NC375563   2.965   4.534   5.629
 5987POPC   PO475564   3.129   3.894   5.358
 5987POPC   GL175565   2.994   4.035   5.776
 5987POPC   GL275566   2.636   4.110   5.803
 5987POPC   C1A75567   3.014   4.123   6.244
 5987POPC   D2A75568   3.180   4.328   6.634
 5987POPC   C3A75569   3.054   4.178   7.045
 5987POPC   C4A75570   2.704   4.288   7.307
 5987POPC   C1B75571   2.534   4.309   6.210
 5987POPC   C2B75572   2.672   4.383   6.648
 5987POPC   C3B75573   2.753   4.683   6.984
 5987POPC   C4B75574   2.434   4.762   7.300
 5988POPC   NC375575  13.773   6.701   5.535
 5988POPC   PO475576  13.149   6.569   5.505
 5988POPC   GL175577  13.344   6.904   5.781
 5988POPC   GL275578  13.473   6.612   5.938
 5988POPC   C1A75579  13.428   7.021   6.255
 5988POPC   D2A75580  13.489   6.852   6.719
 5988POPC   C3A75581  13.832   6.925   7.054
 5988POPC   C4A75582  13.765   6.833   7.527
 5988POPC   C1B75583  13.601   6.515   6.335
 5988POPC   C2B75584  13.352   6.336   6.620
 5988POPC   C3B75585  13.168   6.512   6.942
 5988POPC   C4B75586  13.567   6.491   7.172
 5989POPC   NC375587  17.696  38.928   5.562
 5989POPC   PO475588  17.224  39.448   5.413
 5989POPC   GL175589  17.549  39.401   5.772
 5989POPC   GL275590  17.525  39.115   5.985
 5989POPC   C1A75591  17.694  39.519   6.205
 5989POPC   D2A75592  17.377  39.518   6.538
 5989POPC   C3A75593  17.415  39.243   6.853
 5989POPC   C4A75594  17.481  39.340   7.256
 5989POPC   C1B75595  17.455  39.024   6.377
 5989POPC   C2B75596  17.792  38.911   6.632
 5989POPC   C3B75597  17.784  38.962   7.058
 5989POPC   C4B75598  17.526  38.831   7.333
 5990POPC   NC375599  36.896  34.515   5.275
 5990POPC   PO475600  36.214  34.599   5.362
 5990POPC   GL175601  36.229  34.536   5.801
 5990POPC   GL275602  36.570  34.431   5.859
 5990POPC   C1A75603  36.011  34.564   6.205
 5990POPC   D2A75604  36.096  34.781   6.598
 5990POPC   C3A75605  35.912  34.647   6.934
 5990POPC   C4A75606  36.125  34.704   7.300
 5990POPC   C1B75607  36.421  34.269   6.269
 5990POPC   C2B75608  36.344  34.347   6.709
 5990POPC   C3B75609  36.427  34.332   7.126
 5990POPC   C4B75610  36.387  34.151   7.529
 5991POPC   NC375611  15.276  35.869   5.278
 5991POPC   PO475612  15.170  35.210   5.327
 5991POPC   GL175613  15.275  35.400   5.791
 5991POPC   GL275614  14.949  35.423   5.978
 5991POPC   C1A75615  15.367  35.585   6.249
 5991POPC   D2A75616  15.153  35.539   6.677
 5991POPC   C3A75617  15.232  35.336   7.094
 5991POPC   C4A75618  15.447  35.644   7.386
 5991POPC   C1B75619  15.153  35.124   6.253
 5991POPC   C2B75620  15.044  35.027   6.684
 5991POPC   C3B75621  14.927  34.852   7.043
 5991POPC   C4B75622  14.900  35.038   7.421
 5992POPC   NC375623  21.808   2.724   5.403
 5992POPC   PO475624  22.466   2.891   5.309
 5992POPC   GL175625  22.337   2.845   5.757
 5992POPC   GL275626  22.463   3.134   5.918
 5992POPC   C1A75627  22.216   2.623   6.166
 5992POPC   D2A75628  22.126   2.840   6.583
 5992POPC   C3A75629  22.086   2.601   6.955
 5992POPC   C4A75630  22.376   2.280   7.133
 5992POPC   C1B75631  22.609   2.946   6.285
 5992POPC   C2B75632  22.596   3.118   6.704
 5992POPC   C3B75633  22.306   3.041   7.062
 5992POPC   C4B75634  22.373   2.710   7.410
 5993POPC   NC375635  37.592  22.659   5.409
 5993POPC   PO475636  37.685  23.411   5.481
 5993POPC   GL175637  37.616  23.127   5.777
 5993POPC   GL275638  37.832  22.844   5.831
 5993POPC   C1A75639  37.601  23.146   6.215
 5993POPC   D2A75640  37.452  23.133   6.627
 5993POPC   C3A75641  37.698  23.110   7.011
 5993POPC   C4A75642  38.115  23.265   7.088
 5993POPC   C1B75643  37.747  22.648   6.251
 5993POPC   C2B75644  37.524  22.618   6.640
 5993POPC   C3B75645  37.665  22.600   7.049
 5993POPC   C4B75646  37.479  22.785   7.420
 5994POPC   NC375647   9.317  41.713   5.404
 5994POPC   PO475648   9.866  41.480   5.392
 5994POPC   GL175649   9.712  41.509   5.800
 5994POPC   GL275650   9.790  41.856   5.849
 5994POPC   C1A75651   9.852  41.254   6.153
 5994POPC   D2A75652  10.021  41.334   6.557
 5994POPC   C3A75653   9.794  41.279   6.924
 5994POPC   C4A75654   9.807  41.470   7.369
 5994POPC   C1B75655   9.601  41.777   6.287
 5994POPC   C2B75656   9.268  41.587   6.586
 5994POPC   C3B75657   9.373  41.568   7.032
 5994POPC   C4B75658   9.682  41.880   7.097
 5995POPC   NC375659  13.224  34.861   5.605
 5995POPC   PO475660  13.520  34.288   5.285
 5995POPC   GL175661  13.587  34.493   5.711
 5995POPC   GL275662  13.299  34.454   5.946
 5995POPC   C1A75663  13.799  34.424   6.130
 5995POPC   D2A75664  13.824  34.622   6.555
 5995POPC   C3A75665  13.561  34.497   6.912
 5995POPC   C4A75666  13.689  34.683   7.300
 5995POPC   C1B75667  13.468  34.825   6.214
 5995POPC   C2B75668  13.304  35.080   6.535
 5995POPC   C3B75669  13.402  34.973   6.942
 5995POPC   C4B75670  13.223  34.900   7.342
 5996POPC   NC375671  22.470  22.662   5.506
 5996POPC   PO475672  21.971  23.087   5.327
 5996POPC   GL175673  22.095  23.108   5.737
 5996POPC   GL275674  21.803  22.894   5.849
 5996POPC   C1A75675  22.273  23.182   6.167
 5996POPC   D2A75676  22.386  22.887   6.553
 5996POPC   C3A75677  22.347  22.963   7.017
 5996POPC   C4A75678  22.189  22.969   7.465
 5996POPC   C1B75679  21.902  22.869   6.324
 5996POPC   C2B75680  21.878  22.930   6.789
 5996POPC   C3B75681  21.905  22.684   7.167
 5996POPC   C4B75682  22.105  22.447   7.545
 5997POPC   NC375683   0.358   0.874   5.261
 5997POPC   PO475684   0.618   1.462   5.273
 5997POPC   GL175685   0.649   1.312   5.684
 5997POPC   GL275686   0.612   1.644   5.766
 5997POPC   C1A75687   0.530   1.086   6.077
 5997POPC   D2A75688   0.643   0.947   6.495
 5997POPC   C3A75689   0.458   1.102   6.874
 5997POPC   C4A75690   0.549   1.319   7.265
 5997POPC   C1B75691   0.256   1.524   6.049
 5997POPC   C2B75692   0.177   1.394   6.482
 5997POPC   C3B75693   0.304   1.599   6.877
 5997POPC   C4B75694   0.114   1.593   7.277
 5998POPC   NC375695  24.736   0.484   5.260
 5998POPC   PO475696  24.229   0.096   5.633
 5998POPC   GL175697  24.523   0.266   5.880
 5998POPC   GL275698  24.636   0.558   5.754
 5998POPC   C1A75699  24.384   0.349   6.278
 5998POPC   D2A75700  24.507   0.488   6.662
 5998POPC   C3A75701  24.253   0.434   7.027
 5998POPC   C4A75702  24.256   0.287   7.432
 5998POPC   C1B75703  24.692   0.752   6.170
 5998POPC   C2B75704  24.730   0.945   6.587
 5998POPC   C3B75705  24.657   0.797   7.023
 5998POPC   C4B75706  24.647   0.726   7.457
 5999POPC   NC375707  10.379  17.661   5.375
 5999POPC   PO475708  10.036  17.001   5.480
 5999POPC   GL175709   9.858  17.344   5.812
 5999POPC   GL275710   9.813  17.746   5.766
 5999POPC   C1A75711   9.802  17.280   6.268
 5999POPC   D2A75712   9.966  17.474   6.664
 5999POPC   C3A75713   9.801  17.301   7.052
 5999POPC   C4A75714   9.390  17.201   7.194
 5999POPC   C1B75715   9.891  17.783   6.213
 5999POPC   C2B75716   9.928  18.003   6.603
 5999POPC   C3B75717   9.854  17.920   7.027
 5999POPC   C4B75718   9.996  17.676   7.380
 6000POPC   NC375719  19.244  13.058   5.450
 6000POPC   PO475720  19.070  12.440   5.342
 6000POPC   GL175721  19.001  12.714   5.727
 6000POPC   GL275722  18.864  13.036   5.825
 6000POPC   C1A75723  19.113  12.739   6.175
 6000POPC   D2A75724  18.982  12.563   6.587
 6000POPC   C3A75725  19.138  12.844   6.912
 6000POPC   C4A75726  19.438  12.862   7.258
 6000POPC   C1B75727  18.783  13.174   6.260
 6000POPC   C2B75728  18.627  13.010   6.678
 6000POPC   C3B75729  18.657  12.927   7.117
 6000POPC   C4B75730  18.945  12.779   7.382
 6001POPC   NC375731  18.475  32.206   5.413
 6001POPC   PO475732  17.935  31.956   5.264
 6001POPC   GL175733  18.051  32.097   5.767
 6001POPC   GL275734  18.331  32.343   5.884
 6001POPC   C1A75735  18.087  32.141   6.280
 6001POPC   D2A75736  18.006  31.983   6.716
 6001POPC   C3A75737  18.018  32.288   7.024
 6001POPC   C4A75738  18.390  32.361   7.271
 6001POPC   C1B75739  18.512  32.459   6.311
 6001POPC   C2B75740  18.534  32.463   6.774
 6001POPC   C3B75741  18.778  32.655   7.128
 6001POPC   C4B75742  18.794  32.542   7.605
 6002POPC   NC375743  10.914  23.882   5.351
 6002POPC   PO475744  11.466  23.489   5.430
 6002POPC   GL175745  11.363  23.769   5.744
 6002POPC   GL275746  11.014  23.669   5.807
 6002POPC   C1A75747  11.290  23.912   6.165
 6002POPC   D2A75748  11.201  23.703   6.544
 6002POPC   C3A75749  11.322  23.877   6.927
 6002POPC   C4A75750  11.342  24.024   7.343
 6002POPC   C1B75751  10.890  23.465   6.194
 6002POPC   C2B75752  10.768  23.473   6.629
 6002POPC   C3B75753  10.848  23.616   7.031
 6002POPC   C4B75754  10.921  23.707   7.440
 6003POPC   NC375755  40.506  42.498   5.585
 6003POPC   PO475756  40.626  41.808   5.508
 6003POPC   GL175757  40.662  42.083   5.850
 6003POPC   GL275758  40.320  41.950   5.909
 6003POPC   C1A75759  40.799  42.391   6.208
 6003POPC   D2A75760  41.143  42.488   6.543
 6003POPC   C3A75761  40.999  42.451   6.992
 6003POPC   C4A75762  41.064  42.693   7.391
 6003POPC   C1B75763  40.497  41.941   6.300
 6003POPC   C2B75764  40.567  42.207   6.646
 6003POPC   C3B75765  40.425  42.208   7.050
 6003POPC   C4B75766  40.430  41.820   7.252
 6004POPC   NC375767  21.162  44.493   5.384
 6004POPC   PO475768  21.538   0.113   5.276
 6004POPC   GL175769  21.602  44.778   5.598
 6004POPC   GL275770  21.606   0.028   5.831
 6004POPC   C1A75771  21.363  44.627   5.995
 6004POPC   D2A75772  21.310  44.931   6.353
 6004POPC   C3A75773  21.155  44.737   6.740
 6004POPC   C4A75774  21.147  44.843   7.178
 6004POPC   C1B75775  21.808  44.765   6.179
 6004POPC   C2B75776  21.657  44.536   6.517
 6004POPC   C3B75777  21.606  44.545   6.947
 6004POPC   C4B75778  21.713  44.887   7.138
 6005POPC   NC375779  35.526   7.004   5.457
 6005POPC   PO475780  35.374   7.624   5.551
 6005POPC   GL175781  35.370   7.346   5.919
 6005POPC   GL275782  35.683   7.167   5.923
 6005POPC   C1A75783  35.113   7.361   6.305
 6005POPC   D2A75784  34.916   7.739   6.513
 6005POPC   C3A75785  35.015   7.668   6.937
 6005POPC   C4A75786  35.137   7.259   7.110
 6005POPC   C1B75787  35.657   7.321   6.349
 6005POPC   C2B75788  35.554   7.170   6.778
 6005POPC   C3B75789  35.619   7.145   7.248
 6005POPC   C4B75790  35.720   7.452   7.563
 6006POPC   NC375791  22.818   7.027   5.545
 6006POPC   PO475792  23.231   7.533   5.337
 6006POPC   GL175793  23.262   7.585   5.775
 6006POPC   GL275794  22.941   7.428   5.871
 6006POPC   C1A75795  23.235   7.676   6.235
 6006POPC   D2A75796  22.917   7.484   6.512
 6006POPC   C3A75797  22.898   7.499   6.955
 6006POPC   C4A75798  22.563   7.454   7.203
 6006POPC   C1B75799  23.237   7.149   6.069
 6006POPC   C2B75800  23.137   6.998   6.476
 6006POPC   C3B75801  22.789   7.032   6.777
 6006POPC   C4B75802  22.849   7.013   7.214
 6007POPC   NC375803  33.337  21.325   5.426
 6007POPC   PO475804  32.675  21.258   5.110
 6007POPC   GL175805  32.892  21.345   5.653
 6007POPC   GL275806  33.173  21.256   5.885
 6007POPC   C1A75807  32.967  21.663   6.087
 6007POPC   D2A75808  33.045  21.637   6.564
 6007POPC   C3A75809  32.874  21.326   6.863
 6007POPC   C4A75810  32.817  21.515   7.249
 6007POPC   C1B75811  33.069  21.193   6.320
 6007POPC   C2B75812  33.339  21.190   6.701
 6007POPC   C3B75813  33.343  21.241   7.167
 6007POPC   C4B75814  33.317  21.230   7.630
 6008POPC   NC375815  40.709  13.804   5.075
 6008POPC   PO475816  41.157  13.881   5.624
 6008POPC   GL175817  40.874  13.681   5.922
 6008POPC   GL275818  41.007  13.925   6.160
 6008POPC   C1A75819  40.640  13.605   6.327
 6008POPC   D2A75820  40.836  13.778   6.695
 6008POPC   C3A75821  40.636  13.770   7.084
 6008POPC   C4A75822  40.261  13.549   7.142
 6008POPC   C1B75823  41.154  13.528   6.358
 6008POPC   C2B75824  40.969  13.258   6.702
 6008POPC   C3B75825  40.937  13.361   7.148
 6008POPC   C4B75826  40.980  13.706   7.463
 6009POPC   NC375827  23.224  35.639   5.572
 6009POPC   PO475828  23.698  35.119   5.329
 6009POPC   GL175829  23.669  35.348   5.737
 6009POPC   GL275830  23.352  35.261   5.907
 6009POPC   C1A75831  23.787  35.341   6.200
 6009POPC   D2A75832  23.917  35.629   6.555
 6009POPC   C3A75833  23.768  35.485   6.967
 6009POPC   C4A75834  23.826  35.408   7.397
 6009POPC   C1B75835  23.320  35.586   6.231
 6009POPC   C2B75836  23.394  35.703   6.635
 6009POPC   C3B75837  23.286  35.903   6.990
 6009POPC   C4B75838  23.455  35.752   7.326
 6010POPC   NC375839  42.305  18.547   5.499
 6010POPC   PO475840  42.027  18.001   5.422
 6010POPC   GL175841  42.067  18.256   5.847
 6010POPC   GL275842  42.356  18.517   6.001
 6010POPC   C1A75843  42.181  18.115   6.264
 6010POPC   D2A75844  42.367  18.158   6.670
 6010POPC   C3A75845  42.137  18.198   7.015
 6010POPC   C4A75846  42.125  18.562   7.212
 6010POPC   C1B75847  42.688  18.403   6.328
 6010POPC   C2B75848  42.867  18.239   6.741
 6010POPC   C3B75849  42.655  18.350   7.133
 6010POPC   C4B75850  42.487  18.286   7.566
 6011POPC   NC375851  32.321  13.935   5.368
 6011POPC   PO475852  31.904  13.492   5.534
 6011POPC   GL175853  32.003  13.846   5.806
 6011POPC   GL275854  32.367  13.843   5.859
 6011POPC   C1A75855  31.951  13.797   6.246
 6011POPC   D2A75856  32.204  13.768   6.612
 6011POPC   C3A75857  32.044  13.730   7.034
 6011POPC   C4A75858  32.300  13.477   7.299
 6011POPC   C1B75859  32.623  13.770   6.219
 6011POPC   C2B75860  32.699  13.910   6.617
 6011POPC   C3B75861  32.567  13.798   7.009
 6011POPC   C4B75862  32.395  13.965   7.371
 6012POPC   NC375863  42.609  33.100   5.204
 6012POPC   PO475864  42.070  32.675   5.392
 6012POPC   GL175865  42.188  32.965   5.732
 6012POPC   GL275866  42.558  33.022   5.717
 6012POPC   C1A75867  42.181  32.957   6.198
 6012POPC   D2A75868  42.404  32.854   6.603
 6012POPC   C3A75869  42.140  32.918   7.007
 6012POPC   C4A75870  42.111  32.801   7.462
 6012POPC   C1B75871  42.655  33.119   6.144
 6012POPC   C2B75872  42.431  33.357   6.470
 6012POPC   C3B75873  42.493  33.305   6.907
 6012POPC   C4B75874  42.608  32.989   7.192
 6013POPC   NC375875   7.257  44.093   5.180
 6013POPC   PO475876   7.661  43.600   5.400
 6013POPC   GL175877   7.497  43.758   5.787
 6013POPC   GL275878   7.249  44.020   5.711
 6013POPC   C1A75879   7.310  43.817   6.189
 6013POPC   D2A75880   7.149  43.992   6.553
 6013POPC   C3A75881   7.349  43.851   6.922
 6013POPC   C4A75882   7.536  43.744   7.287
 6013POPC   C1B75883   7.117  44.287   6.089
 6013POPC   C2B75884   7.148  44.502   6.536
 6013POPC   C3B75885   7.202  44.353   6.990
 6013POPC   C4B75886   7.127  44.045   7.341
 6014POPC   NC375887  23.251  12.227   5.243
 6014POPC   PO475888  22.631  12.034   5.402
 6014POPC   GL175889  23.002  12.084   5.719
 6014POPC   GL275890  23.320  12.314   5.741
 6014POPC   C1A75891  22.974  11.948   6.172
 6014POPC   D2A75892  22.696  11.878   6.528
 6014POPC   C3A75893  22.868  11.822   6.947
 6014POPC   C4A75894  23.152  12.056   7.220
 6014POPC   C1B75895  23.056  12.448   6.091
 6014POPC   C2B75896  22.728  12.375   6.401
 6014POPC   C3B75897  22.790  12.321   6.859
 6014POPC   C4B75898  22.919  12.540   7.244
 6015POPC   NC375899   0.090  37.560   5.392
 6015POPC   PO475900  44.406  37.655   5.380
 6015POPC   GL175901  44.709  37.628   5.728
 6015POPC   GL275902  44.614  37.886   5.918
 6015POPC   C1A75903  44.855  37.534   6.166
 6015POPC   D2A75904  44.950  37.776   6.547
 6015POPC   C3A75905  44.828  37.564   6.954
 6015POPC   C4A75906  44.497  37.641   7.268
 6015POPC   C1B75907  44.422  37.892   6.345
 6015POPC   C2B75908  44.459  37.881   6.792
 6015POPC   C3B75909  44.419  38.195   7.129
 6015POPC   C4B75910  44.434  38.167   7.584
 6016POPC   NC375911  43.110   4.549   5.358
 6016POPC   PO475912  43.631   4.602   5.723
 6016POPC   GL175913  43.256   4.502   5.950
 6016POPC   GL275914  42.966   4.306   5.828
 6016POPC   C1A75915  43.129   4.365   6.349
 6016POPC   D2A75916  43.302   4.132   6.659
 6016POPC   C3A75917  43.107   4.280   6.979
 6016POPC   C4A75918  43.278   4.204   7.379
 6016POPC   C1B75919  42.694   4.162   6.162
 6016POPC   C2B75920  42.803   3.987   6.565
 6016POPC   C3B75921  42.828   3.866   6.984
 6016POPC   C4B75922  42.798   4.115   7.348
 6017POPC   NC375923  22.222   9.174   5.461
 6017POPC   PO475924  21.784   8.634   5.351
 6017POPC   GL175925  21.991   8.819   5.730
 6017POPC   GL275926  21.926   9.206   5.847
 6017POPC   C1A75927  22.103   8.867   6.159
 6017POPC   D2A75928  22.370   9.144   6.394
 6017POPC   C3A75929  22.393   8.865   6.775
 6017POPC   C4A75930  22.308   8.933   7.209
 6017POPC   C1B75931  21.777   9.287   6.211
 6017POPC   C2B75932  21.921   9.146   6.608
 6017POPC   C3B75933  21.897   9.184   7.028
 6017POPC   C4B75934  21.848   9.388   7.378
 6018POPC   NC375935  26.059   4.183   5.337
 6018POPC   PO475936  26.314   4.860   5.380
 6018POPC   GL175937  26.092   4.571   5.870
 6018POPC   GL275938  25.701   4.456   5.949
 6018POPC   C1A75939  26.040   4.458   6.339
 6018POPC   D2A75940  26.350   4.308   6.649
 6018POPC   C3A75941  26.344   4.460   7.063
 6018POPC   C4A75942  26.408   4.475   7.499
 6018POPC   C1B75943  25.663   4.826   6.206
 6018POPC   C2B75944  25.808   4.881   6.611
 6018POPC   C3B75945  25.870   4.515   6.893
 6018POPC   C4B75946  25.892   4.350   7.328
 6019POPC   NC375947  41.386  23.867   5.507
 6019POPC   PO475948  41.992  23.641   5.407
 6019POPC   GL175949  41.775  23.695   5.813
 6019POPC   GL275950  41.461  23.488   5.846
 6019POPC   C1A75951  41.608  23.920   6.189
 6019POPC   D2A75952  41.706  24.115   6.598
 6019POPC   C3A75953  41.593  23.925   6.928
 6019POPC   C4A75954  41.704  23.702   7.221
 6019POPC   C1B75955  41.232  23.556   6.235
 6019POPC   C2B75956  41.218  23.795   6.613
 6019POPC   C3B75957  41.156  23.676   7.037
 6019POPC   C4B75958  41.364  23.331   7.236
 6020POPC   NC375959  41.704   3.779   5.290
 6020POPC   PO475960  41.668   4.496   5.383
 6020POPC   GL175961  41.504   4.383   5.744
 6020POPC   GL275962  41.335   4.055   5.787
 6020POPC   C1A75963  41.513   4.479   6.175
 6020POPC   D2A75964  41.839   4.389   6.474
 6020POPC   C3A75965  41.702   4.444   6.901
 6020POPC   C4A75966  41.601   4.326   7.297
 6020POPC   C1B75967  41.626   3.951   6.121
 6020POPC   C2B75968  41.828   3.877   6.520
 6020POPC   C3B75969  41.663   3.928   6.925
 6020POPC   C4B75970  41.873   3.875   7.291
 6021POPC   NC375971  18.162   1.814   5.421
 6021POPC   PO475972  18.713   2.117   5.386
 6021POPC   GL175973  18.507   2.175   5.799
 6021POPC   GL275974  18.166   2.087   5.853
 6021POPC   C1A75975  18.499   2.048   6.248
 6021POPC   D2A75976  18.121   2.021   6.501
 6021POPC   C3A75977  18.209   2.004   6.900
 6021POPC   C4A75978  18.112   1.812   7.277
 6021POPC   C1B75979  18.095   2.387   6.156
 6021POPC   C2B75980  17.918   2.530   6.522
 6021POPC   C3B75981  17.879   2.428   6.958
 6021POPC   C4B75982  18.138   2.315   7.308
 6022POPC   NC375983  19.744  42.421   5.294
 6022POPC   PO475984  19.258  42.168   5.695
 6022POPC   GL175985  19.700  42.230   5.778
 6022POPC   GL275986  19.790  42.594   5.767
 6022POPC   C1A75987  19.819  42.086   6.171
 6022POPC   D2A75988  19.665  42.162   6.593
 6022POPC   C3A75989  19.911  42.327   6.953
 6022POPC   C4A75990  20.020  42.054   7.307
 6022POPC   C1B75991  20.104  42.499   6.062
 6022POPC   C2B75992  20.102  42.440   6.478
 6022POPC   C3B75993  20.349  42.556   6.798
 6022POPC   C4B75994  20.431  42.614   7.205
 6023POPC   NC375995   0.174  15.236   5.279
 6023POPC   PO475996   0.423  14.714   5.114
 6023POPC   GL175997   0.387  14.871   5.587
 6023POPC   GL275998   0.123  14.805   5.820
 6023POPC   C1A75999   0.504  15.063   6.041
 6023POPC   D2A76000   0.387  15.247   6.491
 6023POPC   C3A76001   0.614  15.120   6.897
 6023POPC   C4A76002   1.007  15.263   7.105
 6023POPC   C1B76003   0.029  14.994   6.204
 6023POPC   C2B76004   0.072  14.853   6.632
 6023POPC   C3B76005   0.085  15.197   6.910
 6023POPC   C4B76006   0.293  15.271   7.270
 6024POPC   NC376007  27.770   7.563   5.401
 6024POPC   PO476008  27.400   6.988   5.428
 6024POPC   GL176009  27.569   7.259   5.773
 6024POPC   GL276010  27.917   7.176   5.726
 6024POPC   C1A76011  27.523   7.504   6.207
 6024POPC   D2A76012  27.287   7.522   6.623
 6024POPC   C3A76013  27.230   7.752   7.027
 6024POPC   C4A76014  27.278   7.709   7.509
 6024POPC   C1B76015  27.820   7.070   6.172
 6024POPC   C2B76016  27.850   7.307   6.569
 6024POPC   C3B76017  27.714   7.539   6.925
 6024POPC   C4B76018  27.767   7.656   7.333
 6025POPC   NC376019   3.076  28.860   5.534
 6025POPC   PO476020   2.706  28.263   5.473
 6025POPC   GL176021   2.922  28.373   5.865
 6025POPC   GL276022   2.831  28.717   5.987
 6025POPC   C1A76023   2.868  28.292   6.319
 6025POPC   D2A76024   2.574  28.202   6.675
 6025POPC   C3A76025   2.796  28.319   7.051
 6025POPC   C4A76026   3.074  28.114   7.350
 6025POPC   C1B76027   2.511  28.659   6.356
 6025POPC   C2B76028   2.423  28.665   6.805
 6025POPC   C3B76029   2.572  28.741   7.230
 6025POPC   C4B76030   2.428  28.672   7.665
 6026POPC   NC376031  30.476  40.606   5.399
 6026POPC   PO476032  31.113  40.280   5.465
 6026POPC   GL176033  30.873  40.563   5.766
 6026POPC   GL276034  30.512  40.570   5.906
 6026POPC   C1A76035  30.938  40.897   6.091
 6026POPC   D2A76036  31.148  41.004   6.480
 6026POPC   C3A76037  30.880  40.915   6.799
 6026POPC   C4A76038  30.881  40.800   7.205
 6026POPC   C1B76039  30.407  40.994   6.077
 6026POPC   C2B76040  30.466  41.153   6.511
 6026POPC   C3B76041  30.456  41.181   6.980
 6026POPC   C4B76042  30.402  40.914   7.326
 6027POPC   NC376043  13.435  35.513   5.558
 6027POPC   PO476044  13.838  36.000   5.316
 6027POPC   GL176045  13.649  36.004   5.735
 6027POPC   GL276046  13.968  35.942   5.868
 6027POPC   C1A76047  13.594  36.227   6.170
 6027POPC   D2A76048  13.472  36.043   6.601
 6027POPC   C3A76049  13.498  36.288   6.982
 6027POPC   C4A76050  13.261  36.280   7.358
 6027POPC   C1B76051  13.750  35.750   6.211
 6027POPC   C2B76052  13.873  35.700   6.614
 6027POPC   C3B76053  13.851  35.900   7.000
 6027POPC   C4B76054  13.467  35.851   7.220
 6028POPC   NC376055  35.011  15.423   5.595
 6028POPC   PO476056  35.591  15.189   5.437
 6028POPC   GL176057  35.422  15.111   5.838
 6028POPC   GL276058  35.209  15.307   6.063
 6028POPC   C1A76059  35.504  14.938   6.237
 6028POPC   D2A76060  35.388  15.137   6.624
 6028POPC   C3A76061  35.650  15.036   6.961
 6028POPC   C4A76062  35.474  14.906   7.359
 6028POPC   C1B76063  35.477  15.586   6.357
 6028POPC   C2B76064  35.615  15.566   6.808
 6028POPC   C3B76065  35.379  15.401   7.166
 6028POPC   C4B76066  35.152  15.491   7.523
 6029POPC   NC376067  15.466   4.505   5.137
 6029POPC   PO476068  15.355   5.007   5.531
 6029POPC   GL176069  15.042   4.858   5.809
 6029POPC   GL276070  15.160   5.164   5.998
 6029POPC   C1A76071  14.831   4.866   6.211
 6029POPC   D2A76072  14.944   5.205   6.475
 6029POPC   C3A76073  14.842   5.190   6.881
 6029POPC   C4A76074  15.092   5.011   7.204
 6029POPC   C1B76075  15.453   5.164   6.331
 6029POPC   C2B76076  15.367   5.085   6.754
 6029POPC   C3B76077  15.518   4.800   7.050
 6029POPC   C4B76078  15.589   5.012   7.397
 6030POPC   NC376079   8.707  20.043   5.052
 6030POPC   PO476080   8.291  19.595   5.320
 6030POPC   GL176081   8.276  19.823   5.789
 6030POPC   GL276082   8.546  20.047   5.903
 6030POPC   C1A76083   8.114  19.955   6.204
 6030POPC   D2A76084   8.244  20.147   6.603
 6030POPC   C3A76085   7.975  20.148   6.999
 6030POPC   C4A76086   8.129  20.153   7.449
 6030POPC   C1B76087   8.586  19.724   6.210
 6030POPC   C2B76088   8.401  19.614   6.579
 6030POPC   C3B76089   8.376  19.817   6.975
 6030POPC   C4B76090   8.020  19.690   7.246
 6031POPC   NC376091   1.883  13.883   5.229
 6031POPC   PO476092   1.923  13.253   5.618
 6031POPC   GL176093   1.939  13.559   5.891
 6031POPC   GL276094   2.025  13.852   5.755
 6031POPC   C1A76095   1.930  13.496   6.283
 6031POPC   D2A76096   2.175  13.438   6.602
 6031POPC   C3A76097   1.911  13.374   6.931
 6031POPC   C4A76098   2.072  13.375   7.354
 6031POPC   C1B76099   2.109  13.981   6.206
 6031POPC   C2B76100   1.953  13.892   6.649
 6031POPC   C3B76101   1.987  13.848   7.113
 6031POPC   C4B76102   1.869  13.913   7.565
 6032POPC   NC376103  40.587  30.290   5.446
 6032POPC   PO476104  41.147  30.018   5.381
 6032POPC   GL176105  40.959  30.061   5.764
 6032POPC   GL276106  40.633  29.930   5.828
 6032POPC   C1A76107  40.995  30.081   6.196
 6032POPC   D2A76108  40.818  30.009   6.579
 6032POPC   C3A76109  41.088  29.983   6.884
 6032POPC   C4A76110  40.932  30.231   7.187
 6032POPC   C1B76111  40.627  29.707   6.211
 6032POPC   C2B76112  40.504  29.609   6.641
 6032POPC   C3B76113  40.585  29.840   7.025
 6032POPC   C4B76114  40.923  29.730   7.301
 6033POPC   NC376115  28.649  27.812   5.400
 6033POPC   PO476116  28.256  28.385   5.367
 6033POPC   GL176117  28.214  28.273   5.777
 6033POPC   GL276118  28.330  27.964   5.816
 6033POPC   C1A76119  27.953  28.286   6.135
 6033POPC   D2A76120  27.996  28.314   6.596
 6033POPC   C3A76121  28.226  28.644   6.840
 6033POPC   C4A76122  28.320  28.611   7.308
 6033POPC   C1B76123  28.387  28.067   6.255
 6033POPC   C2B76124  28.502  28.256   6.635
 6033POPC   C3B76125  28.362  28.168   7.033
 6033POPC   C4B76126  28.627  28.216   7.366
 6034POPC   NC376127  32.186  42.018   5.543
 6034POPC   PO476128  32.329  41.356   5.541
 6034POPC   GL176129  32.086  41.305   5.887
 6034POPC   GL276130  31.975  41.644   5.865
 6034POPC   C1A76131  32.155  41.408   6.327
 6034POPC   D2A76132  32.342  41.717   6.600
 6034POPC   C3A76133  32.174  41.621   6.974
 6034POPC   C4A76134  32.167  41.377   7.333
 6034POPC   C1B76135  31.972  41.886   6.263
 6034POPC   C2B76136  31.804  41.757   6.614
 6034POPC   C3B76137  31.761  41.912   6.985
 6034POPC   C4B76138  31.890  41.796   7.368
 6035POPC   NC376139  40.700  16.854   5.598
 6035POPC   PO476140  40.802  17.423   5.177
 6035POPC   GL176141  40.904  17.455   5.645
 6035POPC   GL276142  40.572  17.370   5.764
 6035POPC   C1A76143  40.879  17.592   6.113
 6035POPC   D2A76144  40.735  17.576   6.573
 6035POPC   C3A76145  40.823  17.454   7.005
 6035POPC   C4A76146  41.140  17.215   7.230
 6035POPC   C1B76147  40.445  17.316   6.229
 6035POPC   C2B76148  40.405  17.134   6.641
 6035POPC   C3B76149  40.351  17.231   7.072
 6035POPC   C4B76150  40.585  17.378   7.479
 6036POPC   NC376151  32.761  33.700   5.475
 6036POPC   PO476152  33.438  33.521   5.501
 6036POPC   GL176153  33.171  33.721   5.822
 6036POPC   GL276154  33.289  33.589   6.112
 6036POPC   C1A76155  32.950  33.968   6.182
 6036POPC   D2A76156  32.885  33.800   6.625
 6036POPC   C3A76157  32.762  34.064   6.999
 6036POPC   C4A76158  32.787  33.912   7.428
 6036POPC   C1B76159  33.377  33.866   6.465
 6036POPC   C2B76160  33.401  33.632   6.818
 6036POPC   C3B76161  33.064  33.645   7.091
 6036POPC   C4B76162  33.043  33.482   7.503
 6037POPC   NC376163   0.236   3.155   5.505
 6037POPC   PO476164   0.679   3.818   5.401
 6037POPC   GL176165   0.552   3.752   5.823
 6037POPC   GL276166   0.223   3.612   5.798
 6037POPC   C1A76167   0.592   3.707   6.294
 6037POPC   D2A76168   0.352   3.687   6.685
 6037POPC   C3A76169   0.513   3.480   7.073
 6037POPC   C4A76170   0.390   3.619   7.470
 6037POPC   C1B76171   0.092   3.472   6.208
 6037POPC   C2B76172   0.052   3.206   6.561
 6037POPC   C3B76173   0.028   3.377   6.972
 6037POPC   C4B76174   0.175   3.145   7.353
 6038POPC   NC376175  32.511  14.767   5.463
 6038POPC   PO476176  31.964  14.257   5.373
 6038POPC   GL176177  32.171  14.345   5.750
 6038POPC   GL276178  32.529  14.343   5.771
 6038POPC   C1A76179  32.235  14.211   6.175
 6038POPC   D2A76180  32.411  14.353   6.538
 6038POPC   C3A76181  32.258  14.195   6.903
 6038POPC   C4A76182  32.208  14.411   7.241
 6038POPC   C1B76183  32.395  14.691   6.125
 6038POPC   C2B76184  32.484  14.866   6.586
 6038POPC   C3B76185  32.479  14.803   7.075
 6038POPC   C4B76186  32.286  14.823   7.522
 6039POPC   NC376187  44.129  20.300   5.641
 6039POPC   PO476188  43.830  19.746   5.390
 6039POPC   GL176189  43.862  19.859   5.816
 6039POPC   GL276190  43.568  20.072   5.893
 6039POPC   C1A76191  44.001  19.691   6.220
 6039POPC   D2A76192  43.806  19.457   6.566
 6039POPC   C3A76193  43.925  19.591   6.948
 6039POPC   C4A76194  44.242  19.828   7.098
 6039POPC   C1B76195  43.860  20.193   6.236
 6039POPC   C2B76196  44.019  20.023   6.632
 6039POPC   C3B76197  43.813  20.091   7.015
 6039POPC   C4B76198  43.876  20.255   7.416
 6040POPC   NC376199   9.992  44.311   5.563
 6040POPC   PO476200   9.597  44.915   5.469
 6040POPC   GL176201   9.748  44.693   5.803
 6040POPC   GL276202   9.516  44.420   5.804
 6040POPC   C1A76203   9.828  44.516   6.217
 6040POPC   D2A76204   9.960  44.411   6.628
 6040POPC   C3A76205   9.785  44.360   7.004
 6040POPC   C4A76206  10.047  44.561   7.305
 6040POPC   C1B76207   9.350  44.703   6.154
 6040POPC   C2B76208   9.243  44.525   6.575
 6040POPC   C3B76209   9.303  44.680   6.988
 6040POPC   C4B76210   9.564  44.718   7.311
 6041POPC   NC376211  18.563   3.228   5.588
 6041POPC   PO476212  18.245   3.752   5.264
 6041POPC   GL176213  18.252   3.627   5.723
 6041POPC   GL276214  18.596   3.722   5.744
 6041POPC   C1A76215  18.230   3.375   6.136
 6041POPC   D2A76216  17.997   3.316   6.529
 6041POPC   C3A76217  18.205   3.385   6.904
 6041POPC   C4A76218  18.291   3.299   7.283
 6041POPC   C1B76219  18.732   3.608   6.152
 6041POPC   C2B76220  18.551   3.495   6.531
 6041POPC   C3B76221  18.595   3.750   6.878
 6041POPC   C4B76222  18.624   3.747   7.313
 6042POPC   NC376223  19.930   4.272   5.093
 6042POPC   PO476224  19.707   3.889   5.615
 6042POPC   GL176225  19.570   4.097   5.980
 6042POPC   GL276226  19.776   4.376   6.024
 6042POPC   C1A76227  19.633   4.108   6.425
 6042POPC   D2A76228  19.959   3.907   6.680
 6042POPC   C3A76229  19.890   3.982   7.128
 6042POPC   C4A76230  19.489   4.073   7.301
 6042POPC   C1B76231  20.105   4.301   6.371
 6042POPC   C2B76232  20.017   4.395   6.835
 6042POPC   C3B76233  19.732   4.547   7.173
 6042POPC   C4B76234  19.469   4.744   7.508
 6043POPC   NC376235  28.812   5.962   5.387
 6043POPC   PO476236  29.399   5.667   5.264
 6043POPC   GL176237  29.137   5.658   5.653
 6043POPC   GL276238  29.133   5.997   5.792
 6043POPC   C1A76239  29.108   5.644   6.130
 6043POPC   D2A76240  28.982   5.599   6.554
 6043POPC   C3A76241  29.310   5.735   6.854
 6043POPC   C4A76242  29.319   5.611   7.258
 6043POPC   C1B76243  28.909   6.231   6.122
 6043POPC   C2B76244  28.743   6.126   6.546
 6043POPC   C3B76245  28.836   5.886   6.953
 6043POPC   C4B76246  29.098   6.080   7.261
 6044POPC   NC376247  28.751   6.761   5.587
 6044POPC   PO476248  28.234   6.401   5.353
 6044POPC   GL176249  28.321   6.523   5.764
 6044POPC   GL276250  28.157   6.770   5.913
 6044POPC   C1A76251  28.374   6.299   6.157
 6044POPC   D2A76252  28.131   6.221   6.502
 6044POPC   C3A76253  28.215   6.512   6.823
 6044POPC   C4A76254  28.133   6.418   7.244
 6044POPC   C1B76255  28.529   6.787   6.217
 6044POPC   C2B76256  28.728   6.649   6.611
 6044POPC   C3B76257  28.670   6.752   7.030
 6044POPC   C4B76258  28.274   6.895   7.163
 6045POPC   NC376259  38.839  14.203   5.390
 6045POPC   PO476260  38.210  14.609   5.348
 6045POPC   GL176261  38.375  14.367   5.707
 6045POPC   GL276262  38.128  14.243   5.969
 6045POPC   C1A76263  38.624  14.376   6.084
 6045POPC   D2A76264  38.441  14.471   6.502
 6045POPC   C3A76265  38.627  14.429   6.893
 6045POPC   C4A76266  38.474  14.416   7.299
 6045POPC   C1B76267  38.208  14.713   6.111
 6045POPC   C2B76268  38.223  14.955   6.515
 6045POPC   C3B76269  38.224  14.755   6.935
 6045POPC   C4B76270  38.127  14.778   7.381
 6046POPC   NC376271  33.116  35.822   5.254
 6046POPC   PO476272  32.826  35.208   5.417
 6046POPC   GL176273  33.053  35.330   5.792
 6046POPC   GL276274  32.739  35.325   5.948
 6046POPC   C1A76275  33.159  35.259   6.239
 6046POPC   D2A76276  33.199  35.415   6.667
 6046POPC   C3A76277  33.125  35.192   7.048
 6046POPC   C4A76278  33.035  35.316   7.474
 6046POPC   C1B76279  32.716  34.987   6.243
 6046POPC   C2B76280  32.790  34.949   6.705
 6046POPC   C3B76281  32.675  34.959   7.167
 6046POPC   C4B76282  32.624  34.972   7.644
 6047POPC   NC376283   3.440  38.868   5.381
 6047POPC   PO476284   3.598  38.280   5.280
 6047POPC   GL176285   3.581  38.509   5.715
 6047POPC   GL276286   3.847  38.773   5.717
 6047POPC   C1A76287   3.377  38.519   6.157
 6047POPC   D2A76288   3.321  38.270   6.559
 6047POPC   C3A76289   3.496  38.411   6.959
 6047POPC   C4A76290   3.448  38.773   7.212
 6047POPC   C1B76291   3.869  38.546   6.132
 6047POPC   C2B76292   3.717  38.616   6.541
 6047POPC   C3B76293   3.894  38.725   6.950
 6047POPC   C4B76294   3.902  39.020   7.295
 6048POPC   NC376295  15.812  35.226   5.321
 6048POPC   PO476296  16.336  35.423   5.445
 6048POPC   GL176297  16.117  35.218   5.804
 6048POPC   GL276298  15.768  35.044   5.804
 6048POPC   C1A76299  16.095  35.418   6.240
 6048POPC   D2A76300  16.045  35.625   6.667
 6048POPC   C3A76301  16.160  35.445   7.091
 6048POPC   C4A76302  15.925  35.479   7.513
 6048POPC   C1B76303  15.660  35.155   6.255
 6048POPC   C2B76304  15.603  35.224   6.719
 6048POPC   C3B76305  15.716  35.169   7.185
 6048POPC   C4B76306  15.753  35.000   7.653
 6049POPC   NC376307  32.489   1.583   5.393
 6049POPC   PO476308  32.028   1.168   5.548
 6049POPC   GL176309  32.358   1.208   5.824
 6049POPC   GL276310  32.389   1.548   5.917
 6049POPC   C1A76311  32.487   1.175   6.260
 6049POPC   D2A76312  32.308   1.301   6.664
 6049POPC   C3A76313  32.433   1.084   7.042
 6049POPC   C4A76314  32.408   1.048   7.497
 6049POPC   C1B76315  32.020   1.346   6.184
 6049POPC   C2B76316  31.805   1.343   6.580
 6049POPC   C3B76317  31.913   1.143   6.995
 6049POPC   C4B76318  32.031   1.351   7.376
 6050POPC   NC376319  44.650  20.696   5.226
 6050POPC   PO476320  44.541  20.133   5.538
 6050POPC   GL176321  44.565  20.476   5.829
 6050POPC   GL276322  44.562  20.811   5.723
 6050POPC   C1A76323  44.525  20.507   6.261
 6050POPC   D2A76324  44.408  20.419   6.678
 6050POPC   C3A76325  44.790  20.396   6.925
 6050POPC   C4A76326  44.723  20.529   7.333
 6050POPC   C1B76327  44.446  21.002   6.130
 6050POPC   C2B76328  44.638  20.944   6.557
 6050POPC   C3B76329  44.549  20.853   6.982
 6050POPC   C4B76330  44.306  20.972   7.379
 6051POPC   NC376331   2.201  18.374   5.407
 6051POPC   PO476332   1.490  18.526   5.434
 6051POPC   GL176333   1.819  18.516   5.797
 6051POPC   GL276334   2.207  18.449   5.907
 6051POPC   C1A76335   1.835  18.408   6.258
 6051POPC   D2A76336   1.965  18.137   6.614
 6051POPC   C3A76337   2.008  18.395   6.973
 6051POPC   C4A76338   1.655  18.570   7.144
 6051POPC   C1B76339   2.277  18.045   6.193
 6051POPC   C2B76340   2.398  17.856   6.603
 6051POPC   C3B76341   2.292  17.967   7.055
 6051POPC   C4B76342   1.941  18.062   7.369
 6052POPC   NC376343   7.286  42.425   5.308
 6052POPC   PO476344   7.659  41.853   5.382
 6052POPC   GL176345   7.534  42.187   5.708
 6052POPC   GL276346   7.187  42.256   5.799
 6052POPC   C1A76347   7.683  42.417   6.080
 6052POPC   D2A76348   7.564  42.471   6.525
 6052POPC   C3A76349   7.634  42.139   6.801
 6052POPC   C4A76350   7.659  42.195   7.235
 6052POPC   C1B76351   7.263  42.139   6.228
 6052POPC   C2B76352   7.135  42.147   6.649
 6052POPC   C3B76353   7.251  42.401   7.024
 6052POPC   C4B76354   7.076  42.384   7.474
 6053POPC   NC376355  32.133  24.630   5.216
 6053POPC   PO476356  32.120  24.029   5.572
 6053POPC   GL176357  32.407  24.285   5.794
 6053POPC   GL276358  32.340  24.669   5.821
 6053POPC   C1A76359  32.426  24.382   6.232
 6053POPC   D2A76360  32.340  24.486   6.656
 6053POPC   C3A76361  32.116  24.230   6.958
 6053POPC   C4A76362  32.244  24.440   7.306
 6053POPC   C1B76363  32.032  24.776   6.182
 6053POPC   C2B76364  31.833  24.655   6.591
 6053POPC   C3B76365  31.917  24.716   7.021
 6053POPC   C4B76366  31.991  24.849   7.467
 6054POPC   NC376367  12.383  21.412   5.484
 6054POPC   PO476368  13.039  21.089   5.537
 6054POPC   GL176369  12.842  21.369   5.727
 6054POPC   GL276370  12.624  21.127   5.824
 6054POPC   C1A76371  13.061  21.524   6.044
 6054POPC   D2A76372  13.014  21.606   6.461
 6054POPC   C3A76373  12.941  21.246   6.745
 6054POPC   C4A76374  12.951  21.326   7.197
 6054POPC   C1B76375  12.688  21.210   6.248
 6054POPC   C2B76376  12.427  21.345   6.579
 6054POPC   C3B76377  12.450  21.274   7.017
 6054POPC   C4B76378  12.681  20.906   7.133
 6055POPC   NC376379   1.439  15.360   5.424
 6055POPC   PO476380   1.244  14.758   5.683
 6055POPC   GL176381   1.330  15.183   5.882
 6055POPC   GL276382   1.603  15.470   5.912
 6055POPC   C1A76383   1.294  15.240   6.292
 6055POPC   D2A76384   1.388  14.928   6.584
 6055POPC   C3A76385   1.482  15.060   6.975
 6055POPC   C4A76386   1.365  15.008   7.381
 6055POPC   C1B76387   1.480  15.719   6.308
 6055POPC   C2B76388   1.345  15.510   6.718
 6055POPC   C3B76389   1.418  15.549   7.138
 6055POPC   C4B76390   1.117  15.681   7.437
 6056POPC   NC376391   1.275  16.953   5.338
 6056POPC   PO476392   0.921  16.395   5.287
 6056POPC   GL176393   1.145  16.579   5.687
 6056POPC   GL276394   1.440  16.819   5.787
 6056POPC   C1A76395   1.068  16.736   6.123
 6056POPC   D2A76396   0.963  16.668   6.545
 6056POPC   C3A76397   1.201  16.448   6.882
 6056POPC   C4A76398   1.081  16.696   7.224
 6056POPC   C1B76399   1.475  17.012   6.194
 6056POPC   C2B76400   1.494  16.776   6.582
 6056POPC   C3B76401   1.552  16.812   7.024
 6056POPC   C4B76402   1.692  16.987   7.403
 6057POPC   NC376403  19.563   0.855   5.416
 6057POPC   PO476404  19.991   0.290   5.386
 6057POPC   GL176405  19.836   0.503   5.750
 6057POPC   GL276406  20.012   0.781   5.859
 6057POPC   C1A76407  19.654   0.605   6.169
 6057POPC   D2A76408  19.385   0.656   6.510
 6057POPC   C3A76409  19.637   0.679   6.883
 6057POPC   C4A76410  19.686   0.472   7.260
 6057POPC   C1B76411  20.113   0.985   6.207
 6057POPC   C2B76412  20.263   0.921   6.631
 6057POPC   C3B76413  20.144   0.959   7.058
 6057POPC   C4B76414  20.091   0.726   7.438
 6058POPC   NC376415  11.363  27.038   5.471
 6058POPC   PO476416  10.834  26.605   5.414
 6058POPC   GL176417  11.093  26.668   5.779
 6058POPC   GL276418  11.400  26.511   5.752
 6058POPC   C1A76419  11.168  26.840   6.213
 6058POPC   D2A76420  11.146  27.103   6.599
 6058POPC   C3A76421  11.361  26.958   6.983
 6058POPC   C4A76422  11.272  26.619   7.235
 6058POPC   C1B76423  11.630  26.630   6.112
 6058POPC   C2B76424  11.657  26.803   6.526
 6058POPC   C3B76425  11.736  26.574   6.893
 6058POPC   C4B76426  11.766  26.514   7.305
 6059POPC   NC376427  43.647   3.732   5.618
 6059POPC   PO476428  43.057   3.550   5.406
 6059POPC   GL176429  43.099   3.738   5.813
 6059POPC   GL276430  43.161   3.408   6.000
 6059POPC   C1A76431  43.196   3.844   6.247
 6059POPC   D2A76432  43.081   3.551   6.581
 6059POPC   C3A76433  43.207   3.505   6.990
 6059POPC   C4A76434  43.153   3.686   7.369
 6059POPC   C1B76435  42.957   3.117   6.328
 6059POPC   C2B76436  42.896   3.110   6.817
 6059POPC   C3B76437  43.008   3.163   7.302
 6059POPC   C4B76438  42.962   2.892   7.688
 6060POPC   NC376439  23.775  18.193   5.402
 6060POPC   PO476440  23.656  18.879   5.447
 6060POPC   GL176441  23.848  18.556   5.789
 6060POPC   GL276442  23.854  18.176   5.925
 6060POPC   C1A76443  23.998  18.498   6.257
 6060POPC   D2A76444  23.965  18.097   6.519
 6060POPC   C3A76445  23.965  18.190   6.971
 6060POPC   C4A76446  23.709  18.448   7.283
 6060POPC   C1B76447  23.538  18.249   6.253
 6060POPC   C2B76448  23.334  18.344   6.645
 6060POPC   C3B76449  23.334  18.147   7.044
 6060POPC   C4B76450  23.656  17.888   7.244
 6061POPC   NC376451  33.547  26.862   5.348
 6061POPC   PO476452  34.167  27.158   5.489
 6061POPC   GL176453  33.912  26.773   5.760
 6061POPC   GL276454  33.521  26.625   5.785
 6061POPC   C1A76455  33.786  26.676   6.213
 6061POPC   D2A76456  33.535  26.892   6.533
 6061POPC   C3A76457  33.771  26.988   6.895
 6061POPC   C4A76458  33.864  26.857   7.322
 6061POPC   C1B76459  33.285  26.521   6.171
 6061POPC   C2B76460  33.460  26.384   6.577
 6061POPC   C3B76461  33.627  26.474   6.977
 6061POPC   C4B76462  33.548  26.473   7.406
 6062POPC   NC376463  38.665  28.609   5.422
 6062POPC   PO476464  38.124  29.005   5.499
 6062POPC   GL176465  38.358  29.082   5.893
 6062POPC   GL276466  38.643  28.908   5.815
 6062POPC   C1A76467  38.258  29.063   6.349
 6062POPC   D2A76468  38.349  29.241   6.764
 6062POPC   C3A76469  38.320  29.052   7.182
 6062POPC   C4A76470  38.530  29.123   7.592
 6062POPC   C1B76471  38.847  28.937   6.182
 6062POPC   C2B76472  38.702  28.881   6.578
 6062POPC   C3B76473  38.805  29.053   6.963
 6062POPC   C4B76474  38.841  28.845   7.319
 6063POPC   NC376475  12.513   9.497   5.213
 6063POPC   PO476476  11.944   9.836   5.138
 6063POPC   GL176477  12.163   9.772   5.550
 6063POPC   GL276478  11.961  10.021   5.725
 6063POPC   C1A76479  12.234   9.619   6.000
 6063POPC   D2A76480  12.061   9.673   6.435
 6063POPC   C3A76481  12.181   9.508   6.845
 6063POPC   C4A76482  12.253   9.599   7.286
 6063POPC   C1B76483  12.183  10.106   6.107
 6063POPC   C2B76484  12.360  10.091   6.509
 6063POPC   C3B76485  12.177  10.013   6.923
 6063POPC   C4B76486  12.086  10.081   7.346
 6064POPC   NC376487  26.009  20.064   5.374
 6064POPC   PO476488  26.049  19.350   5.428
 6064POPC   GL176489  25.983  19.604   5.857
 6064POPC   GL276490  25.970  20.002   5.873
 6064POPC   C1A76491  25.832  19.759   6.288
 6064POPC   D2A76492  26.057  19.881   6.653
 6064POPC   C3A76493  25.861  19.790   7.036
 6064POPC   C4A76494  25.819  19.430   7.298
 6064POPC   C1B76495  26.282  19.967   6.209
 6064POPC   C2B76496  26.320  20.319   6.532
 6064POPC   C3B76497  26.213  20.249   6.951
 6064POPC   C4B76498  26.264  19.962   7.291
 6065POPC   NC376499  43.709   2.759   5.281
 6065POPC   PO476500  44.032   3.380   5.264
 6065POPC   GL176501  43.836   3.113   5.672
 6065POPC   GL276502  43.831   2.732   5.766
 6065POPC   C1A76503  43.956   3.002   6.151
 6065POPC   D2A76504  43.748   2.957   6.539
 6065POPC   C3A76505  43.914   3.052   6.952
 6065POPC   C4A76506  43.819   3.032   7.392
 6065POPC   C1B76507  43.728   2.547   6.182
 6065POPC   C2B76508  43.688   2.443   6.629
 6065POPC   C3B76509  43.748   2.572   7.052
 6065POPC   C4B76510  43.691   2.439   7.484
 6066POPC   NC376511  38.743  32.718   5.138
 6066POPC   PO476512  38.281  33.132   5.252
 6066POPC   GL176513  38.217  33.239   5.709
 6066POPC   GL276514  38.557  33.372   5.659
 6066POPC   C1A76515  38.264  33.000   6.148
 6066POPC   D2A76516  38.156  32.777   6.519
 6066POPC   C3A76517  38.402  32.908   6.875
 6066POPC   C4A76518  38.256  32.825   7.261
 6066POPC   C1B76519  38.706  33.243   6.047
 6066POPC   C2B76520  38.740  33.290   6.501
 6066POPC   C3B76521  38.701  33.425   6.922
 6066POPC   C4B76522  38.588  33.188   7.290
 6067POPC   NC376523  23.877   3.977   5.201
 6067POPC   PO476524  23.708   3.325   5.400
 6067POPC   GL176525  23.587   3.444   5.789
 6067POPC   GL276526  23.705   3.799   5.819
 6067POPC   C1A76527  23.769   3.368   6.195
 6067POPC   D2A76528  23.753   3.590   6.552
 6067POPC   C3A76529  23.758   3.323   6.891
 6067POPC   C4A76530  23.710   3.515   7.271
 6067POPC   C1B76531  24.037   3.836   6.175
 6067POPC   C2B76532  24.097   3.960   6.620
 6067POPC   C3B76533  24.105   3.726   6.979
 6067POPC   C4B76534  24.146   3.770   7.398
 6068POPC   NC376535  17.942   5.084   5.537
 6068POPC   PO476536  17.353   5.096   5.321
 6068POPC   GL176537  17.474   4.944   5.757
 6068POPC   GL276538  17.621   5.257   5.890
 6068POPC   C1A76539  17.472   4.938   6.239
 6068POPC   D2A76540  17.661   5.004   6.642
 6068POPC   C3A76541  17.472   5.041   7.047
 6068POPC   C4A76542  17.327   5.255   7.452
 6068POPC   C1B76543  17.841   5.329   6.294
 6068POPC   C2B76544  17.736   5.492   6.738
 6068POPC   C3B76545  17.542   5.552   7.121
 6068POPC   C4B76546  17.515   5.716   7.574
 6069POPC   NC376547  24.752  22.135   5.187
 6069POPC   PO476548  24.213  22.124   5.628
 6069POPC   GL176549  24.164  21.929   6.008
 6069POPC   GL276550  24.441  21.687   6.019
 6069POPC   C1A76551  24.327  21.929   6.437
 6069POPC   D2A76552  24.396  22.267   6.701
 6069POPC   C3A76553  24.177  22.269   7.068
 6069POPC   C4A76554  24.441  22.412   7.384
 6069POPC   C1B76555  24.811  21.845   6.313
 6069POPC   C2B76556  24.794  21.873   6.753
 6069POPC   C3B76557  24.597  21.977   7.131
 6069POPC   C4B76558  24.817  21.907   7.518
 6070POPC   NC376559   8.706  13.044   5.425
 6070POPC   PO476560   9.289  12.676   5.355
 6070POPC   GL176561   9.061  12.799   5.745
 6070POPC   GL276562   8.743  12.591   5.737
 6070POPC   C1A76563   9.027  12.969   6.192
 6070POPC   D2A76564   9.288  12.924   6.598
 6070POPC   C3A76565   9.153  12.951   7.024
 6070POPC   C4A76566   8.837  13.093   7.305
 6070POPC   C1B76567   8.757  12.423   6.170
 6070POPC   C2B76568   8.865  12.616   6.564
 6070POPC   C3B76569   8.967  12.470   6.953
 6070POPC   C4B76570   8.937  12.601   7.356
 6071POPC   NC376571  33.499  40.315   5.581
 6071POPC   PO476572  33.812  40.838   5.288
 6071POPC   GL176573  33.592  40.854   5.720
 6071POPC   GL276574  33.542  40.586   6.004
 6071POPC   C1A76575  33.638  41.072   6.147
 6071POPC   D2A76576  33.937  41.067   6.509
 6071POPC   C3A76577  33.782  41.025   6.950
 6071POPC   C4A76578  34.036  40.790   7.256
 6071POPC   C1B76579  33.872  40.602   6.303
 6071POPC   C2B76580  33.934  40.590   6.757
 6071POPC   C3B76581  33.771  40.334   7.095
 6071POPC   C4B76582  33.962  40.295   7.511
 6072POPC   NC376583  30.859  16.602   5.339
 6072POPC   PO476584  31.242  17.172   5.387
 6072POPC   GL176585  30.903  17.047   5.675
 6072POPC   GL276586  30.753  16.725   5.812
 6072POPC   C1A76587  30.900  17.077   6.150
 6072POPC   D2A76588  30.879  16.783   6.534
 6072POPC   C3A76589  30.903  16.971   6.948
 6072POPC   C4A76590  30.498  17.017   7.171
 6072POPC   C1B76591  30.764  16.422   6.165
 6072POPC   C2B76592  30.590  16.320   6.576
 6072POPC   C3B76593  30.745  16.479   6.977
 6072POPC   C4B76594  30.573  16.544   7.366
 6073POPC   NC376595  16.310  40.609   5.456
 6073POPC   PO476596  15.594  40.823   5.417
 6073POPC   GL176597  15.850  40.660   5.734
 6073POPC   GL276598  15.644  40.459   5.992
 6073POPC   C1A76599  16.024  40.790   6.103
 6073POPC   D2A76600  15.862  40.654   6.485
 6073POPC   C3A76601  16.083  40.840   6.788
 6073POPC   C4A76602  16.057  40.667   7.180
 6073POPC   C1B76603  15.521  40.857   6.157
 6073POPC   C2B76604  15.519  41.030   6.534
 6073POPC   C3B76605  15.609  40.860   6.930
 6073POPC   C4B76606  15.638  40.959   7.335
 6074POPC   NC376607  39.511   0.111   5.613
 6074POPC   PO476608  39.086   0.616   5.398
 6074POPC   GL176609  39.121   0.436   5.803
 6074POPC   GL276610  39.142   0.743   5.994
 6074POPC   C1A76611  39.031   0.244   6.214
 6074POPC   D2A76612  39.162   0.338   6.612
 6074POPC   C3A76613  38.900   0.408   6.948
 6074POPC   C4A76614  38.832   0.181   7.304
 6074POPC   C1B76615  39.487   0.502   6.196
 6074POPC   C2B76616  39.736   0.585   6.557
 6074POPC   C3B76617  39.536   0.502   6.935
 6074POPC   C4B76618  39.273   0.531   7.262
 6075POPC   NC376619  32.778  41.269   5.541
 6075POPC   PO476620  32.677  42.021   5.468
 6075POPC   GL176621  32.836  41.705   5.810
 6075POPC   GL276622  32.575  41.479   5.981
 6075POPC   C1A76623  33.077  41.450   6.118
 6075POPC   D2A76624  33.049  41.488   6.558
 6075POPC   C3A76625  33.103  41.177   6.875
 6075POPC   C4A76626  33.129  41.552   7.141
 6075POPC   C1B76627  32.644  41.238   6.378
 6075POPC   C2B76628  32.590  41.304   6.842
 6075POPC   C3B76629  32.621  41.604   7.196
 6075POPC   C4B76630  32.868  41.617   7.577
 6076POPC   NC376631   1.587  13.555   5.519
 6076POPC   PO476632   1.193  14.065   5.193
 6076POPC   GL176633   1.173  13.764   5.683
 6076POPC   GL276634   1.011  13.460   5.679
 6076POPC   C1A76635   1.457  13.762   6.123
 6076POPC   D2A76636   1.493  13.561   6.527
 6076POPC   C3A76637   1.508  13.743   6.898
 6076POPC   C4A76638   1.587  13.578   7.281
 6076POPC   C1B76639   0.847  13.329   6.086
 6076POPC   C2B76640   0.981  13.295   6.522
 6076POPC   C3B76641   0.918  13.460   6.927
 6076POPC   C4B76642   1.100  13.738   7.222
 6077POPC   NC376643  31.500  43.549   5.183
 6077POPC   PO476644  31.440  43.018   5.509
 6077POPC   GL176645  31.400  43.304   5.837
 6077POPC   GL276646  31.720  43.417   5.941
 6077POPC   C1A76647  31.329  43.352   6.286
 6077POPC   D2A76648  31.558  43.202   6.650
 6077POPC   C3A76649  31.376  43.198   7.062
 6077POPC   C4A76650  30.926  43.170   7.100
 6077POPC   C1B76651  31.782  43.043   6.178
 6077POPC   C2B76652  31.869  42.777   6.524
 6077POPC   C3B76653  31.759  42.803   6.922
 6077POPC   C4B76654  31.673  42.827   7.320
 6078POPC   NC376655  26.207  17.510   5.250
 6078POPC   PO476656  25.534  17.375   5.498
 6078POPC   GL176657  25.931  17.513   5.683
 6078POPC   GL276658  25.795  17.680   5.946
 6078POPC   C1A76659  26.245  17.516   6.063
 6078POPC   D2A76660  26.016  17.673   6.456
 6078POPC   C3A76661  26.164  17.603   6.909
 6078POPC   C4A76662  25.898  17.553   7.275
 6078POPC   C1B76663  25.703  18.011   6.208
 6078POPC   C2B76664  25.487  17.954   6.572
 6078POPC   C3B76665  25.520  17.737   6.956
 6078POPC   C4B76666  25.459  17.806   7.382
 6079POPC   NC376667  18.638  22.491   5.534
 6079POPC   PO476668  18.032  22.502   5.439
 6079POPC   GL176669  18.205  22.178   5.747
 6079POPC   GL276670  18.392  22.401   5.957
 6079POPC   C1A76671  18.240  21.963   6.182
 6079POPC   D2A76672  18.104  21.891   6.630
 6079POPC   C3A76673  18.358  22.175   6.877
 6079POPC   C4A76674  18.558  22.115   7.270
 6079POPC   C1B76675  18.290  22.441   6.375
 6079POPC   C2B76676  17.921  22.385   6.599
 6079POPC   C3B76677  17.832  22.239   6.969
 6079POPC   C4B76678  18.065  22.275   7.303
 6080POPC   NC376679  15.164  11.775   5.333
 6080POPC   PO476680  15.590  12.352   5.312
 6080POPC   GL176681  15.450  12.080   5.686
 6080POPC   GL276682  15.064  12.072   5.746
 6080POPC   C1A76683  15.374  11.919   6.116
 6080POPC   D2A76684  15.209  11.853   6.543
 6080POPC   C3A76685  15.435  11.744   6.917
 6080POPC   C4A76686  15.260  11.948   7.277
 6080POPC   C1B76687  14.920  12.147   6.195
 6080POPC   C2B76688  14.813  12.261   6.630
 6080POPC   C3B76689  14.818  12.261   7.096
 6080POPC   C4B76690  14.693  11.925   7.372
 6081POPC   NC376691  40.311  19.305   5.498
 6081POPC   PO476692  39.838  18.717   5.397
 6081POPC   GL176693  40.047  18.895   5.748
 6081POPC   GL276694  39.929  19.227   5.867
 6081POPC   C1A76695  40.079  18.850   6.180
 6081POPC   D2A76696  39.868  19.070   6.504
 6081POPC   C3A76697  40.128  19.040   6.871
 6081POPC   C4A76698  40.047  19.012   7.312
 6081POPC   C1B76699  40.214  19.363   6.214
 6081POPC   C2B76700  40.125  19.508   6.657
 6081POPC   C3B76701  39.991  19.462   7.119
 6081POPC   C4B76702  40.077  19.454   7.609
 6082POPC   NC376703   7.114  31.481   5.315
 6082POPC   PO476704   7.753  31.799   5.396
 6082POPC   GL176705   7.584  31.546   5.778
 6082POPC   GL276706   7.200  31.450   5.811
 6082POPC   C1A76707   7.446  31.610   6.222
 6082POPC   D2A76708   7.597  31.439   6.603
 6082POPC   C3A76709   7.476  31.699   6.949
 6082POPC   C4A76710   7.350  31.581   7.386
 6082POPC   C1B76711   7.137  31.172   6.171
 6082POPC   C2B76712   7.239  31.073   6.607
 6082POPC   C3B76713   7.261  31.232   7.019
 6082POPC   C4B76714   7.376  31.082   7.430
 6083POPC   NC376715  20.799  22.717   5.614
 6083POPC   PO476716  21.101  23.213   5.471
 6083POPC   GL176717  20.669  23.213   5.673
 6083POPC   GL276718  20.339  22.998   5.677
 6083POPC   C1A76719  20.540  23.234   6.103
 6083POPC   D2A76720  20.651  22.988   6.462
 6083POPC   C3A76721  20.669  23.060   6.919
 6083POPC   C4A76722  20.921  22.999   7.259
 6083POPC   C1B76723  20.249  22.809   6.104
 6083POPC   C2B76724  20.188  22.771   6.559
 6083POPC   C3B76725  20.377  22.655   6.955
 6083POPC   C4B76726  20.472  22.767   7.385
 6084POPC   NC376727   4.545  43.871   5.418
 6084POPC   PO476728   5.246  43.738   5.470
 6084POPC   GL176729   5.111  43.930   5.837
 6084POPC   GL276730   5.140  44.306   5.870
 6084POPC   C1A76731   5.277  43.937   6.233
 6084POPC   D2A76732   4.991  43.780   6.516
 6084POPC   C3A76733   5.069  43.915   6.913
 6084POPC   C4A76734   5.116  43.710   7.298
 6084POPC   C1B76735   4.857  44.240   6.225
 6084POPC   C2B76736   4.741  44.280   6.674
 6084POPC   C3B76737   4.823  44.295   7.139
 6084POPC   C4B76738   5.182  44.430   7.405
 6085POPC   NC376739   5.968   1.166   5.450
 6085POPC   PO476740   5.477   0.651   5.558
 6085POPC   GL176741   5.833   0.806   5.780
 6085POPC   GL276742   5.809   1.181   5.915
 6085POPC   C1A76743   5.960   0.797   6.182
 6085POPC   D2A76744   5.789   1.043   6.505
 6085POPC   C3A76745   5.965   1.100   6.906
 6085POPC   C4A76746   6.035   0.848   7.281
 6085POPC   C1B76747   5.674   1.458   6.233
 6085POPC   C2B76748   5.779   1.587   6.658
 6085POPC   C3B76749   5.594   1.654   7.066
 6085POPC   C4B76750   5.763   1.354   7.326
 6086POPC   NC376751  27.884  19.620   5.470
 6086POPC   PO476752  27.432  20.073   5.315
 6086POPC   GL176753  27.566  19.975   5.732
 6086POPC   GL276754  27.483  19.649   5.783
 6086POPC   C1A76755  27.633  19.946   6.193
 6086POPC   D2A76756  27.860  19.951   6.581
 6086POPC   C3A76757  27.600  20.137   6.885
 6086POPC   C4A76758  27.513  20.051   7.301
 6086POPC   C1B76759  27.702  19.433   6.098
 6086POPC   C2B76760  27.541  19.421   6.501
 6086POPC   C3B76761  27.522  19.625   6.894
 6086POPC   C4B76762  27.657  19.507   7.273
 6087POPC   NC376763  40.885  44.265   5.356
 6087POPC   PO476764  40.556  43.580   5.273
 6087POPC   GL176765  40.692  43.820   5.623
 6087POPC   GL276766  40.494  43.597   5.809
 6087POPC   C1A76767  40.866  43.917   6.053
 6087POPC   D2A76768  41.047  43.801   6.467
 6087POPC   C3A76769  40.948  43.966   6.898
 6087POPC   C4A76770  40.773  44.115   7.288
 6087POPC   C1B76771  40.385  43.796   6.200
 6087POPC   C2B76772  40.556  43.906   6.551
 6087POPC   C3B76773  40.414  43.925   6.939
 6087POPC   C4B76774  40.390  43.761   7.317
 6088POPC   NC376775  40.478  30.975   5.497
 6088POPC   PO476776  39.840  30.765   5.464
 6088POPC   GL176777  40.086  30.633   5.772
 6088POPC   GL276778  40.182  30.973   5.916
 6088POPC   C1A76779  40.130  30.545   6.211
 6088POPC   D2A76780  39.913  30.452   6.582
 6088POPC   C3A76781  40.075  30.652   6.945
 6088POPC   C4A76782  39.965  30.449   7.299
 6088POPC   C1B76783  39.775  30.903   6.141
 6088POPC   C2B76784  39.567  31.047   6.506
 6088POPC   C3B76785  39.393  31.015   6.911
 6088POPC   C4B76786  39.664  30.856   7.211
 6089POPC   NC376787  33.238  13.539   5.318
 6089POPC   PO476788  32.776  13.966   5.408
 6089POPC   GL176789  33.106  13.828   5.738
 6089POPC   GL276790  33.175  13.450   5.813
 6089POPC   C1A76791  33.154  13.764   6.197
 6089POPC   D2A76792  33.097  13.552   6.571
 6089POPC   C3A76793  33.076  13.804   6.956
 6089POPC   C4A76794  32.926  13.889   7.393
 6089POPC   C1B76795  33.371  13.203   6.142
 6089POPC   C2B76796  33.563  13.277   6.544
 6089POPC   C3B76797  33.346  13.290   6.920
 6089POPC   C4B76798  33.244  13.467   7.295
 6090POPC   NC376799  42.164  35.742   5.534
 6090POPC   PO476800  42.239  35.167   5.447
 6090POPC   GL176801  42.381  35.374   5.839
 6090POPC   GL276802  42.627  35.642   5.764
 6090POPC   C1A76803  42.223  35.387   6.268
 6090POPC   D2A76804  42.283  35.595   6.666
 6090POPC   C3A76805  42.165  35.513   7.076
 6090POPC   C4A76806  42.329  35.144   7.307
 6090POPC   C1B76807  42.657  35.706   6.199
 6090POPC   C2B76808  42.791  35.640   6.624
 6090POPC   C3B76809  42.683  35.556   7.068
 6090POPC   C4B76810  42.667  35.481   7.536
 6091POPC   NC376811  18.299  20.125   5.136
 6091POPC   PO476812  18.067  19.526   5.471
 6091POPC   GL176813  18.379  19.670   5.742
 6091POPC   GL276814  18.494  19.369   5.772
 6091POPC   C1A76815  18.535  19.840   6.154
 6091POPC   D2A76816  18.401  20.154   6.472
 6091POPC   C3A76817  18.464  20.084   6.935
 6091POPC   C4A76818  18.196  19.888   7.209
 6091POPC   C1B76819  18.251  19.407   6.179
 6091POPC   C2B76820  18.315  19.633   6.577
 6091POPC   C3B76821  18.503  19.557   6.968
 6091POPC   C4B76822  18.327  19.373   7.330
 6092POPC   NC376823  38.279  34.216   5.538
 6092POPC   PO476824  38.374  34.838   5.302
 6092POPC   GL176825  38.457  34.841   5.754
 6092POPC   GL276826  38.542  34.513   5.872
 6092POPC   C1A76827  38.343  34.857   6.213
 6092POPC   D2A76828  38.430  34.657   6.623
 6092POPC   C3A76829  38.335  34.815   7.050
 6092POPC   C4A76830  38.483  34.683   7.504
 6092POPC   C1B76831  38.460  34.236   6.242
 6092POPC   C2B76832  38.204  34.197   6.633
 6092POPC   C3B76833  38.231  34.321   7.051
 6092POPC   C4B76834  38.048  34.416   7.434
 6093POPC   NC376835  38.672  20.606   5.595
 6093POPC   PO476836  38.029  20.485   5.491
 6093POPC   GL176837  38.285  20.397   5.868
 6093POPC   GL276838  38.312  20.774   5.957
 6093POPC   C1A76839  38.517  20.451   6.281
 6093POPC   D2A76840  38.410  20.638   6.685
 6093POPC   C3A76841  38.556  20.430   7.049
 6093POPC   C4A76842  38.629  20.471   7.507
 6093POPC   C1B76843  38.192  21.005   6.362
 6093POPC   C2B76844  38.142  21.052   6.827
 6093POPC   C3B76845  38.422  20.897   7.159
 6093POPC   C4B76846  38.471  20.940   7.615
 6094POPC   NC376847   8.549  42.121   5.217
 6094POPC   PO476848   9.063  42.444   5.517
 6094POPC   GL176849   8.885  42.248   5.831
 6094POPC   GL276850   8.593  42.077   5.744
 6094POPC   C1A76851   8.811  42.386   6.233
 6094POPC   D2A76852   9.073  42.372   6.599
 6094POPC   C3A76853   8.925  42.368   7.000
 6094POPC   C4A76854   8.934  42.619   7.380
 6094POPC   C1B76855   8.449  41.843   6.108
 6094POPC   C2B76856   8.270  41.898   6.527
 6094POPC   C3B76857   8.453  42.135   6.862
 6094POPC   C4B76858   8.641  42.061   7.283
 6095POPC   NC376859  42.215  22.005   5.519
 6095POPC   PO476860  42.167  22.657   5.407
 6095POPC   GL176861  42.368  22.418   5.751
 6095POPC   GL276862  42.060  22.333   5.927
 6095POPC   C1A76863  42.545  22.521   6.132
 6095POPC   D2A76864  42.656  22.507   6.569
 6095POPC   C3A76865  42.362  22.307   6.826
 6095POPC   C4A76866  42.289  22.229   7.214
 6095POPC   C1B76867  42.360  22.042   6.169
 6095POPC   C2B76868  42.447  21.862   6.590
 6095POPC   C3B76869  42.222  21.761   6.980
 6095POPC   C4B76870  42.100  21.804   7.432
 6096POPC   NC376871  22.012  13.924   5.660
 6096POPC   PO476872  21.986  13.280   5.407
 6096POPC   GL176873  22.137  13.439   5.786
 6096POPC   GL276874  21.814  13.431   5.891
 6096POPC   C1A76875  22.455  13.598   6.100
 6096POPC   D2A76876  22.635  13.694   6.536
 6096POPC   C3A76877  22.334  13.796   6.889
 6096POPC   C4A76878  22.284  13.724   7.344
 6096POPC   C1B76879  21.989  13.524   6.303
 6096POPC   C2B76880  22.120  13.358   6.698
 6096POPC   C3B76881  21.969  13.375   7.140
 6096POPC   C4B76882  21.810  13.669   7.487
 6097POPC   NC376883   8.321  32.487   5.423
 6097POPC   PO476884   8.729  32.007   5.280
 6097POPC   GL176885   8.422  32.018   5.677
 6097POPC   GL276886   8.055  32.113   5.692
 6097POPC   C1A76887   8.262  31.980   6.156
 6097POPC   D2A76888   8.319  32.070   6.630
 6097POPC   C3A76889   8.426  31.833   6.997
 6097POPC   C4A76890   8.256  32.023   7.395
 6097POPC   C1B76891   8.103  32.443   6.023
 6097POPC   C2B76892   8.079  32.478   6.470
 6097POPC   C3B76893   8.120  32.526   6.916
 6097POPC   C4B76894   7.937  32.425   7.313
 6098POPC   NC376895  27.355  21.727   5.179
 6098POPC   PO476896  27.623  21.050   5.374
 6098POPC   GL176897  27.585  21.210   5.823
 6098POPC   GL276898  27.433  21.559   5.890
 6098POPC   C1A76899  27.735  21.284   6.228
 6098POPC   D2A76900  27.726  21.427   6.630
 6098POPC   C3A76901  27.826  21.191   6.978
 6098POPC   C4A76902  27.960  21.530   7.184
 6098POPC   C1B76903  27.448  21.768   6.304
 6098POPC   C2B76904  27.461  21.842   6.756
 6098POPC   C3B76905  27.453  21.561   7.107
 6098POPC   C4B76906  27.337  21.126   7.130
 6099POPC   NC376907  34.796  16.396   5.727
 6099POPC   PO476908  34.481  16.930   5.467
 6099POPC   GL176909  34.453  16.770   5.865
 6099POPC   GL276910  34.320  16.459   5.835
 6099POPC   C1A76911  34.744  16.932   6.200
 6099POPC   D2A76912  34.898  16.929   6.609
 6099POPC   C3A76913  34.622  16.942   6.974
 6099POPC   C4A76914  34.609  16.660   7.245
 6099POPC   C1B76915  34.531  16.483   6.283
 6099POPC   C2B76916  34.687  16.451   6.689
 6099POPC   C3B76917  34.435  16.262   6.997
 6099POPC   C4B76918  34.401  16.217   7.426
 6100POPC   NC376919  35.037  29.293   5.387
 6100POPC   PO476920  35.540  28.848   5.248
 6100POPC   GL176921  35.485  29.232   5.605
 6100POPC   GL276922  35.256  29.087   5.798
 6100POPC   C1A76923  35.462  29.461   6.063
 6100POPC   D2A76924  35.561  29.342   6.507
 6100POPC   C3A76925  35.395  29.349   6.947
 6100POPC   C4A76926  35.668  29.376   7.306
 6100POPC   C1B76927  35.242  29.003   6.229
 6100POPC   C2B76928  35.480  28.823   6.535
 6100POPC   C3B76929  35.558  28.850   6.948
 6100POPC   C4B76930  35.360  28.968   7.352
 6101POPC   NC376931  17.789  15.076   5.465
 6101POPC   PO476932  17.152  15.208   5.295
 6101POPC   GL176933  17.255  15.183   5.794
 6101POPC   GL276934  17.600  15.265   5.886
 6101POPC   C1A76935  17.315  15.225   6.287
 6101POPC   D2A76936  17.161  15.156   6.706
 6101POPC   C3A76937  17.394  15.286   7.051
 6101POPC   C4A76938  17.348  15.272   7.466
 6101POPC   C1B76939  17.753  15.528   6.213
 6101POPC   C2B76940  17.634  15.461   6.643
 6101POPC   C3B76941  17.764  15.613   7.042
 6101POPC   C4B76942  18.118  15.533   7.210
 6102POPC   NC376943  28.961   3.844   5.287
 6102POPC   PO476944  29.442   3.442   5.212
 6102POPC   GL176945  29.185   3.563   5.636
 6102POPC   GL276946  29.064   3.277   5.761
 6102POPC   C1A76947  29.037   3.684   6.107
 6102POPC   D2A76948  28.998   3.503   6.555
 6102POPC   C3A76949  29.064   3.674   6.983
 6102POPC   C4A76950  28.806   3.683   7.370
 6102POPC   C1B76951  29.196   3.177   6.172
 6102POPC   C2B76952  29.068   2.987   6.553
 6102POPC   C3B76953  29.250   3.033   6.953
 6102POPC   C4B76954  29.147   3.261   7.288
 6103POPC   NC376955  28.082  25.527   5.506
 6103POPC   PO476956  28.319  26.213   5.494
 6103POPC   GL176957  28.104  26.261   5.852
 6103POPC   GL276958  28.022  25.921   5.887
 6103POPC   C1A76959  28.264  26.298   6.244
 6103POPC   D2A76960  28.564  26.142   6.512
 6103POPC   C3A76961  28.361  26.163   6.901
 6103POPC   C4A76962  28.086  26.231   7.244
 6103POPC   C1B76963  28.374  25.799   6.134
 6103POPC   C2B76964  28.381  25.677   6.560
 6103POPC   C3B76965  28.189  25.668   6.932
 6103POPC   C4B76966  28.317  25.778   7.312
 6104POPC   NC376967  19.541  14.669   5.508
 6104POPC   PO476968  20.221  14.715   5.472
 6104POPC   GL176969  20.151  14.576   5.883
 6104POPC   GL276970  19.788  14.527   5.945
 6104POPC   C1A76971  20.180  14.705   6.301
 6104POPC   D2A76972  19.891  14.605   6.666
 6104POPC   C3A76973  19.962  14.753   7.065
 6104POPC   C4A76974  20.114  14.527   7.420
 6104POPC   C1B76975  19.829  14.245   6.303
 6104POPC   C2B76976  19.909  13.979   6.681
 6104POPC   C3B76977  19.977  14.040   7.122
 6104POPC   C4B76978  19.673  14.361   7.203
 6105POPC   NC376979  39.969  15.428   5.738
 6105POPC   PO476980  39.997  14.832   5.383
 6105POPC   GL176981  40.235  14.942   5.791
 6105POPC   GL276982  40.488  15.211   5.761
 6105POPC   C1A76983  40.188  15.040   6.251
 6105POPC   D2A76984  39.829  15.181   6.525
 6105POPC   C3A76985  39.840  15.023   6.938
 6105POPC   C4A76986  40.113  15.047   7.270
 6105POPC   C1B76987  40.488  15.483   6.142
 6105POPC   C2B76988  40.236  15.526   6.531
 6105POPC   C3B76989  40.070  15.489   6.952
 6105POPC   C4B76990  40.352  15.512   7.301
 6106POPC   NC376991  16.158   2.872   5.434
 6106POPC   PO476992  15.696   2.376   5.481
 6106POPC   GL176993  15.856   2.611   5.838
 6106POPC   GL276994  15.889   2.954   5.864
 6106POPC   C1A76995  16.031   2.570   6.269
 6106POPC   D2A76996  15.851   2.333   6.636
 6106POPC   C3A76997  15.987   2.479   7.051
 6106POPC   C4A76998  15.851   2.853   7.247
 6106POPC   C1B76999  16.305   2.981   6.089
 6106POPC   C2B77000  16.374   3.131   6.498
 6106POPC   C3B77001  16.169   3.120   6.904
 6106POPC   C4B77002  16.353   2.838   7.214
 6107POPC   NC377003   0.732  43.433   5.443
 6107POPC   PO477004   0.276  42.952   5.552
 6107POPC   GL177005   0.432  42.847   5.927
 6107POPC   GL277006   0.575  43.160   5.952
 6107POPC   C1A77007   0.276  42.954   6.336
 6107POPC   D2A77008   0.425  43.085   6.741
 6107POPC   C3A77009   0.286  42.921   7.132
 6107POPC   C4A77010   0.501  42.686   7.469
 6107POPC   C1B77011   0.630  43.360   6.353
 6107POPC   C2B77012   0.827  43.407   6.749
 6107POPC   C3B77013   0.693  43.347   7.181
 6107POPC   C4B77014   0.705  43.599   7.580
 6108POPC   NC377015   4.445  16.467   5.354
 6108POPC   PO477016   4.061  16.952   5.476
 6108POPC   GL177017   4.325  16.758   5.795
 6108POPC   GL277018   4.031  16.614   5.885
 6108POPC   C1A77019   4.526  16.895   6.214
 6108POPC   D2A77020   4.616  17.045   6.645
 6108POPC   C3A77021   4.465  16.752   6.925
 6108POPC   C4A77022   4.147  16.512   7.139
 6108POPC   C1B77023   3.998  16.943   6.170
 6108POPC   C2B77024   4.106  16.913   6.580
 6108POPC   C3B77025   3.983  16.967   6.977
 6108POPC   C4B77026   3.838  16.832   7.367
 6109POPC   NC377027  19.978  22.511   5.454
 6109POPC   PO477028  19.599  21.942   5.346
 6109POPC   GL177029  19.658  22.229   5.729
 6109POPC   GL277030  20.021  22.226   5.853
 6109POPC   C1A77031  19.604  22.440   6.138
 6109POPC   D2A77032  19.729  22.506   6.595
 6109POPC   C3A77033  19.527  22.302   6.991
 6109POPC   C4A77034  19.567  22.409   7.458
 6109POPC   C1B77035  20.114  22.334   6.256
 6109POPC   C2B77036  20.285  22.274   6.635
 6109POPC   C3B77037  20.033  22.281   6.954
 6109POPC   C4B77038  19.970  22.124   7.316
 6110POPC   NC377039   2.291  16.782   5.357
 6110POPC   PO477040   1.656  16.577   5.363
 6110POPC   GL177041   1.939  16.738   5.737
 6110POPC   GL277042   2.178  17.032   5.812
 6110POPC   C1A77043   1.899  16.737   6.193
 6110POPC   D2A77044   1.900  17.085   6.506
 6110POPC   C3A77045   2.025  16.957   6.892
 6110POPC   C4A77046   2.077  16.632   7.189
 6110POPC   C1B77047   2.328  16.993   6.265
 6110POPC   C2B77048   2.382  16.667   6.610
 6110POPC   C3B77049   2.525  16.447   6.985
 6110POPC   C4B77050   2.593  16.763   7.299
 6111POPC   NC377051  39.492   2.675   5.369
 6111POPC   PO477052  38.930   2.976   5.427
 6111POPC   GL177053  39.203   2.823   5.764
 6111POPC   GL277054  39.247   2.510   5.790
 6111POPC   C1A77055  39.126   2.763   6.211
 6111POPC   D2A77056  39.253   2.953   6.603
 6111POPC   C3A77057  39.171   2.715   6.965
 6111POPC   C4A77058  39.026   2.821   7.372
 6111POPC   C1B77059  39.514   2.418   6.131
 6111POPC   C2B77060  39.432   2.468   6.567
 6111POPC   C3B77061  39.481   2.284   6.989
 6111POPC   C4B77062  39.682   2.405   7.370
 6112POPC   NC377063  31.163  18.959   5.216
 6112POPC   PO477064  31.824  19.162   5.351
 6112POPC   GL177065  31.513  19.005   5.627
 6112POPC   GL277066  31.747  18.893   5.836
 6112POPC   C1A77067  31.258  19.120   6.033
 6112POPC   D2A77068  31.343  19.286   6.480
 6112POPC   C3A77069  31.210  19.102   6.876
 6112POPC   C4A77070  31.412  19.176   7.284
 6112POPC   C1B77071  31.746  19.248   6.131
 6112POPC   C2B77072  31.874  19.234   6.542
 6112POPC   C3B77073  31.731  19.035   6.910
 6112POPC   C4B77074  31.893  18.927   7.309
 6113POPC   NC377075   1.812  32.789   5.451
 6113POPC   PO477076   2.484  32.881   5.508
 6113POPC   GL177077   2.292  33.142   5.800
 6113POPC   GL277078   1.962  33.239   5.720
 6113POPC   C1A77079   2.188  33.010   6.208
 6113POPC   D2A77080   2.218  33.204   6.590
 6113POPC   C3A77081   2.188  32.911   6.907
 6113POPC   C4A77082   2.198  33.170   7.258
 6113POPC   C1B77083   1.710  33.077   6.072
 6113POPC   C2B77084   1.716  33.068   6.517
 6113POPC   C3B77085   1.778  33.174   6.944
 6113POPC   C4B77086   1.752  32.773   7.195
 6114POPC   NC377087  23.147  43.755   4.977
 6114POPC   PO477088  22.855  44.255   5.438
 6114POPC   GL177089  22.880  43.983   5.792
 6114POPC   GL277090  22.639  43.716   5.778
 6114POPC   C1A77091  22.957  43.861   6.203
 6114POPC   D2A77092  23.054  44.037   6.583
 6114POPC   C3A77093  23.071  43.825   6.942
 6114POPC   C4A77094  22.912  44.074   7.280
 6114POPC   C1B77095  22.517  43.562   6.208
 6114POPC   C2B77096  22.765  43.554   6.572
 6114POPC   C3B77097  22.606  43.630   6.965
 6114POPC   C4B77098  22.801  43.567   7.309
 6115POPC   NC377099  12.461  40.387   5.654
 6115POPC   PO477100  11.984  39.958   5.524
 6115POPC   GL177101  12.071  40.060   5.914
 6115POPC   GL277102  11.919  40.397   5.890
 6115POPC   C1A77103  12.073  39.829   6.313
 6115POPC   D2A77104  12.151  39.682   6.742
 6115POPC   C3A77105  12.074  39.988   7.075
 6115POPC   C4A77106  11.912  40.146   7.496
 6115POPC   C1B77107  12.092  40.358   6.320
 6115POPC   C2B77108  11.885  40.367   6.701
 6115POPC   C3B77109  11.970  40.484   7.091
 6115POPC   C4B77110  12.336  40.394   7.318
 6116POPC   NC377111   6.536  37.631   5.363
 6116POPC   PO477112   6.832  38.184   5.522
 6116POPC   GL177113   6.735  37.820   5.830
 6116POPC   GL277114   6.455  37.558   5.866
 6116POPC   C1A77115   6.775  37.584   6.257
 6116POPC   D2A77116   6.500  37.514   6.623
 6116POPC   C3A77117   6.708  37.527   7.037
 6116POPC   C4A77118   6.792  37.413   7.464
 6116POPC   C1B77119   6.377  37.878   6.199
 6116POPC   C2B77120   6.180  37.923   6.600
 6116POPC   C3B77121   6.306  37.839   6.999
 6116POPC   C4B77122   6.510  37.856   7.409
 6117POPC   NC377123   0.480  35.128   5.447
 6117POPC   PO477124   0.610  35.862   5.455
 6117POPC   GL177125   0.546  35.624   5.828
 6117POPC   GL277126   0.647  35.302   5.871
 6117POPC   C1A77127   0.409  35.533   6.255
 6117POPC   D2A77128   0.175  35.683   6.580
 6117POPC   C3A77129   0.514  35.620   6.841
 6117POPC   C4A77130   0.537  35.673   7.239
 6117POPC   C1B77131   0.680  35.075   6.214
 6117POPC   C2B77132   0.615  35.175   6.632
 6117POPC   C3B77133   0.463  35.153   7.070
 6117POPC   C4B77134   0.336  35.299   7.503
 6118POPC   NC377135  39.681  10.041   5.423
 6118POPC   PO477136  40.042   9.557   5.337
 6118POPC   GL177137  40.188   9.765   5.727
 6118POPC   GL277138  39.939   9.940   5.918
 6118POPC   C1A77139  40.273   9.650   6.169
 6118POPC   D2A77140  40.270   9.844   6.577
 6118POPC   C3A77141  40.216   9.684   6.985
 6118POPC   C4A77142  40.243   9.966   7.312
 6118POPC   C1B77143  39.806  10.116   6.342
 6118POPC   C2B77144  39.862  10.062   6.835
 6118POPC   C3B77145  39.750   9.870   7.265
 6118POPC   C4B77146  39.527   9.911   7.680
 6119POPC   NC377147  21.765  37.103   5.500
 6119POPC   PO477148  21.591  36.533   5.824
 6119POPC   GL177149  21.544  36.927   5.944
 6119POPC   GL277150  21.378  37.240   5.801
 6119POPC   C1A77151  21.609  36.889   6.367
 6119POPC   D2A77152  21.444  36.810   6.720
 6119POPC   C3A77153  21.711  36.964   6.967
 6119POPC   C4A77154  21.510  36.999   7.301
 6119POPC   C1B77155  21.257  37.264   6.248
 6119POPC   C2B77156  21.025  37.116   6.622
 6119POPC   C3B77157  21.068  37.104   7.055
 6119POPC   C4B77158  21.115  37.477   7.267
 6120POPC   NC377159  36.539  31.347   5.401
 6120POPC   PO477160  35.855  31.521   5.480
 6120POPC   GL177161  36.205  31.508   5.789
 6120POPC   GL277162  36.075  31.735   6.043
 6120POPC   C1A77163  36.324  31.343   6.220
 6120POPC   D2A77164  36.200  31.668   6.538
 6120POPC   C3A77165  36.060  31.544   6.955
 6120POPC   C4A77166  36.090  31.281   7.290
 6120POPC   C1B77167  35.812  31.397   6.212
 6120POPC   C2B77168  35.934  31.165   6.577
 6120POPC   C3B77169  35.699  31.139   6.961
 6120POPC   C4B77170  35.597  31.423   7.287
 6121POPC   NC377171  28.713  22.750   5.122
 6121POPC   PO477172  29.268  22.845   5.461
 6121POPC   GL177173  29.044  22.865   5.817
 6121POPC   GL277174  29.130  23.204   5.880
 6121POPC   C1A77175  29.060  22.725   6.250
 6121POPC   D2A77176  29.382  22.634   6.560
 6121POPC   C3A77177  29.203  22.789   6.936
 6121POPC   C4A77178  28.869  22.743   7.210
 6121POPC   C1B77179  29.446  23.076   6.202
 6121POPC   C2B77180  29.518  23.322   6.587
 6121POPC   C3B77181  29.621  23.401   7.033
 6121POPC   C4B77182  29.390  23.119   7.295
 6122POPC   NC377183  40.447   9.397   5.467
 6122POPC   PO477184  40.892   9.903   5.448
 6122POPC   GL177185  40.713   9.738   5.835
 6122POPC   GL277186  40.800   9.370   5.853
 6122POPC   C1A77187  40.718   9.862   6.281
 6122POPC   D2A77188  40.679  10.146   6.600
 6122POPC   C3A77189  40.673   9.946   7.002
 6122POPC   C4A77190  40.752  10.010   7.428
 6122POPC   C1B77191  40.815   9.350   6.310
 6122POPC   C2B77192  40.659   9.507   6.708
 6122POPC   C3B77193  40.676   9.449   7.154
 6122POPC   C4B77194  40.496   9.583   7.501
 6123POPC   NC377195  41.294   4.797   5.383
 6123POPC   PO477196  41.877   5.046   5.526
 6123POPC   GL177197  41.567   4.913   5.827
 6123POPC   GL277198  41.293   5.154   5.806
 6123POPC   C1A77199  41.448   4.996   6.264
 6123POPC   D2A77200  41.541   4.864   6.656
 6123POPC   C3A77201  41.787   5.157   6.878
 6123POPC   C4A77202  41.911   5.159   7.285
 6123POPC   C1B77203  41.112   5.394   6.189
 6123POPC   C2B77204  41.212   5.372   6.631
 6123POPC   C3B77205  41.201   5.125   6.993
 6123POPC   C4B77206  41.466   4.815   7.177
 6124POPC   NC377207   5.050  16.915   5.423
 6124POPC   PO477208   4.882  16.272   5.358
 6124POPC   GL177209   4.997  16.500   5.757
 6124POPC   GL277210   5.335  16.692   5.780
 6124POPC   C1A77211   5.097  16.417   6.212
 6124POPC   D2A77212   5.258  16.431   6.630
 6124POPC   C3A77213   5.022  16.496   6.994
 6124POPC   C4A77214   5.336  16.610   7.241
 6124POPC   C1B77215   5.049  16.908   6.072
 6124POPC   C2B77216   5.080  16.908   6.486
 6124POPC   C3B77217   5.174  16.970   6.895
 6124POPC   C4B77218   4.860  16.972   7.181
 6125POPC   NC377219   2.680  36.479   5.647
 6125POPC   PO477220   2.640  35.847   5.511
 6125POPC   GL177221   2.669  35.988   5.900
 6125POPC   GL277222   3.031  36.016   5.931
 6125POPC   C1A77223   2.689  35.858   6.324
 6125POPC   D2A77224   2.982  35.988   6.616
 6125POPC   C3A77225   2.869  35.825   7.003
 6125POPC   C4A77226   2.622  35.990   7.330
 6125POPC   C1B77227   3.069  36.361   6.247
 6125POPC   C2B77228   3.280  36.392   6.652
 6125POPC   C3B77229   3.231  36.489   7.054
 6125POPC   C4B77230   3.059  36.245   7.378
 6126POPC   NC377231  24.815   5.268   5.661
 6126POPC   PO477232  24.289   5.696   5.325
 6126POPC   GL177233  24.375   5.789   5.773
 6126POPC   GL277234  24.658   5.669   5.941
 6126POPC   C1A77235  24.290   5.852   6.239
 6126POPC   D2A77236  24.575   6.080   6.520
 6126POPC   C3A77237  24.469   6.088   6.962
 6126POPC   C4A77238  24.347   5.797   7.274
 6126POPC   C1B77239  24.637   5.461   6.318
 6126POPC   C2B77240  24.670   5.632   6.776
 6126POPC   C3B77241  24.676   5.419   7.187
 6126POPC   C4B77242  24.546   5.432   7.637
 6127POPC   NC377243   1.866  30.990   5.523
 6127POPC   PO477244   1.914  30.432   5.083
 6127POPC   GL177245   2.024  30.451   5.569
 6127POPC   GL277246   2.356  30.497   5.739
 6127POPC   C1A77247   1.889  30.541   6.029
 6127POPC   D2A77248   1.973  30.612   6.480
 6127POPC   C3A77249   1.746  30.767   6.831
 6127POPC   C4A77250   1.857  30.862   7.274
 6127POPC   C1B77251   2.340  30.756   6.155
 6127POPC   C2B77252   2.518  30.669   6.562
 6127POPC   C3B77253   2.287  30.668   6.952
 6127POPC   C4B77254   2.353  30.943   7.299
 6128POPC   NC377255  16.590  30.375   5.378
 6128POPC   PO477256  16.949  30.932   5.451
 6128POPC   GL177257  16.741  31.106   5.782
 6128POPC   GL277258  16.407  30.920   5.796
 6128POPC   C1A77259  16.623  31.121   6.207
 6128POPC   D2A77260  16.572  30.829   6.538
 6128POPC   C3A77261  16.688  30.923   6.930
 6128POPC   C4A77262  16.746  30.672   7.223
 6128POPC   C1B77263  16.456  30.568   6.099
 6128POPC   C2B77264  16.543  30.321   6.495
 6128POPC   C3B77265  16.373  30.340   6.922
 6128POPC   C4B77266  16.269  30.432   7.338
 6129POPC   NC377267  21.648  38.739   5.475
 6129POPC   PO477268  21.287  38.154   5.403
 6129POPC   GL177269  21.325  38.450   5.761
 6129POPC   GL277270  21.027  38.608   5.822
 6129POPC   C1A77271  21.624  38.504   6.117
 6129POPC   D2A77272  21.793  38.220   6.432
 6129POPC   C3A77273  21.732  38.326   6.882
 6129POPC   C4A77274  21.729  38.745   7.072
 6129POPC   C1B77275  21.169  38.729   6.234
 6129POPC   C2B77276  21.323  38.605   6.676
 6129POPC   C3B77277  21.173  38.394   7.088
 6129POPC   C4B77278  21.070  38.407   7.563
 6130POPC   NC377279  16.937  25.640   5.447
 6130POPC   PO477280  16.440  26.108   5.593
 6130POPC   GL177281  16.793  26.129   5.915
 6130POPC   GL277282  17.095  25.852   5.901
 6130POPC   C1A77283  16.622  26.140   6.335
 6130POPC   D2A77284  16.578  25.957   6.733
 6130POPC   C3A77285  16.488  26.107   7.116
 6130POPC   C4A77286  16.703  26.089   7.537
 6130POPC   C1B77287  17.088  25.926   6.323
 6130POPC   C2B77288  17.019  26.199   6.669
 6130POPC   C3B77289  17.001  26.107   7.098
 6130POPC   C4B77290  17.087  26.378   7.443
 6131POPC   NC377291  26.667  23.000   5.485
 6131POPC   PO477292  27.359  23.117   5.610
 6131POPC   GL177293  27.017  22.982   5.943
 6131POPC   GL277294  26.719  22.755   5.945
 6131POPC   C1A77295  26.813  22.943   6.403
 6131POPC   D2A77296  26.604  22.885   6.814
 6131POPC   C3A77297  26.785  23.162   7.120
 6131POPC   C4A77298  27.209  23.310   7.145
 6131POPC   C1B77299  26.469  23.128   6.101
 6131POPC   C2B77300  26.490  23.354   6.501
 6131POPC   C3B77301  26.341  23.332   6.920
 6131POPC   C4B77302  26.237  23.026   7.229
 6132POPC   NC377303  34.335   8.217   5.568
 6132POPC   PO477304  34.808   7.816   5.484
 6132POPC   GL177305  34.673   8.026   5.917
 6132POPC   GL277306  34.295   7.981   6.010
 6132POPC   C1A77307  34.585   8.370   6.262
 6132POPC   D2A77308  34.559   8.659   6.640
 6132POPC   C3A77309  34.695   8.497   7.050
 6132POPC   C4A77310  34.850   8.081   7.234
 6132POPC   C1B77311  34.113   8.208   6.354
 6132POPC   C2B77312  34.294   8.251   6.771
 6132POPC   C3B77313  34.341   8.114   7.194
 6132POPC   C4B77314  34.066   7.989   7.508
 6133POPC   NC377315  24.046  30.746   5.400
 6133POPC   PO477316  23.423  30.532   5.425
 6133POPC   GL177317  23.469  30.692   5.845
 6133POPC   GL277318  23.790  30.817   5.819
 6133POPC   C1A77319  23.670  30.610   6.270
 6133POPC   D2A77320  23.513  30.632   6.680
 6133POPC   C3A77321  23.805  30.562   7.002
 6133POPC   C4A77322  23.907  30.696   7.441
 6133POPC   C1B77323  24.116  30.837   6.137
 6133POPC   C2B77324  24.043  30.767   6.577
 6133POPC   C3B77325  24.004  31.014   6.933
 6133POPC   C4B77326  24.152  31.129   7.286
 6134POPC   NC377327  23.887  21.801   5.559
 6134POPC   PO477328  23.520  22.271   5.400
 6134POPC   GL177329  23.706  22.206   5.831
 6134POPC   GL277330  23.936  22.417   5.958
 6134POPC   C1A77331  23.642  21.975   6.237
 6134POPC   D2A77332  23.879  21.908   6.650
 6134POPC   C3A77333  23.700  21.974   7.040
 6134POPC   C4A77334  23.399  22.062   7.368
 6134POPC   C1B77335  23.983  22.321   6.365
 6134POPC   C2B77336  23.845  22.510   6.736
 6134POPC   C3B77337  23.709  22.464   7.155
 6134POPC   C4B77338  23.935  22.298   7.530
 6135POPC   NC377339  42.674   3.922   5.489
 6135POPC   PO477340  42.081   3.640   5.510
 6135POPC   GL177341  42.366   3.656   5.850
 6135POPC   GL277342  42.670   3.435   5.774
 6135POPC   C1A77343  42.206   3.599   6.279
 6135POPC   D2A77344  42.007   3.344   6.592
 6135POPC   C3A77345  42.105   3.513   6.987
 6135POPC   C4A77346  42.142   3.422   7.417
 6135POPC   C1B77347  42.715   3.586   6.226
 6135POPC   C2B77348  42.558   3.536   6.686
 6135POPC   C3B77349  42.602   3.440   7.147
 6135POPC   C4B77350  42.628   3.676   7.536
 6136POPC   NC377351   3.496  15.038   4.828
 6136POPC   PO477352   3.318  14.965   5.583
 6136POPC   GL177353   3.683  15.002   5.850
 6136POPC   GL277354   3.917  15.299   5.788
 6136POPC   C1A77355   3.616  15.176   6.247
 6136POPC   D2A77356   3.533  15.552   6.507
 6136POPC   C3A77357   3.314  15.411   6.887
 6136POPC   C4A77358   3.224  15.004   7.134
 6136POPC   C1B77359   4.079  15.394   6.213
 6136POPC   C2B77360   3.946  15.228   6.634
 6136POPC   C3B77361   3.752  15.149   7.024
 6136POPC   C4B77362   3.696  14.837   7.323
 6137POPC   NC377363  15.735  32.468   5.424
 6137POPC   PO477364  16.353  32.487   5.422
 6137POPC   GL177365  16.069  32.361   5.796
 6137POPC   GL277366  15.822  32.594   5.925
 6137POPC   C1A77367  15.909  32.156   6.185
 6137POPC   D2A77368  16.035  32.122   6.620
 6137POPC   C3A77369  15.782  32.099   6.991
 6137POPC   C4A77370  15.767  32.460   7.246
 6137POPC   C1B77371  16.228  32.681   6.163
 6137POPC   C2B77372  16.421  32.576   6.569
 6137POPC   C3B77373  16.209  32.583   6.970
 6137POPC   C4B77374  16.244  32.469   7.391
 6138POPC   NC377375  44.585  26.928   5.213
 6138POPC   PO477376  44.530  27.614   5.398
 6138POPC   GL177377  44.770  27.689   5.782
 6138POPC   GL277378   0.028  27.426   5.874
 6138POPC   C1A77379  44.610  27.609   6.192
 6138POPC   D2A77380  44.357  27.351   6.490
 6138POPC   C3A77381  44.475  27.521   6.903
 6138POPC   C4A77382  44.365  27.756   7.257
 6138POPC   C1B77383   0.115  27.754   6.169
 6138POPC   C2B77384  44.922  27.830   6.554
 6138POPC   C3B77385  44.979  27.603   6.930
 6138POPC   C4B77386  44.829  27.574   7.324
 6139POPC   NC377387  19.433  13.677   5.440
 6139POPC   PO477388  18.754  13.382   5.457
 6139POPC   GL177389  18.871  13.557   5.863
 6139POPC   GL277390  19.206  13.475   5.869
 6139POPC   C1A77391  19.021  13.726   6.278
 6139POPC   D2A77392  19.034  13.964   6.675
 6139POPC   C3A77393  18.983  13.688   7.038
 6139POPC   C4A77394  18.912  13.311   7.371
 6139POPC   C1B77395  19.287  13.290   6.285
 6139POPC   C2B77396  19.133  13.300   6.690
 6139POPC   C3B77397  19.342  13.332   7.073
 6139POPC   C4B77398  19.422  13.326   7.481
 6140POPC   NC377399  27.036  37.139   5.554
 6140POPC   PO477400  26.829  37.721   5.362
 6140POPC   GL177401  27.044  37.641   5.771
 6140POPC   GL277402  26.823  37.410   5.923
 6140POPC   C1A77403  27.027  37.792   6.231
 6140POPC   D2A77404  27.187  38.018   6.601
 6140POPC   C3A77405  27.009  37.880   6.980
 6140POPC   C4A77406  26.919  37.506   7.224
 6140POPC   C1B77407  26.954  37.299   6.348
 6140POPC   C2B77408  26.785  37.427   6.738
 6140POPC   C3B77409  26.455  37.543   7.022
 6140POPC   C4B77410  26.464  37.481   7.514
 6141POPC   NC377411  43.488  11.956   5.170
 6141POPC   PO477412  43.239  12.541   5.412
 6141POPC   GL177413  43.126  12.197   5.669
 6141POPC   GL277414  42.788  12.094   5.641
 6141POPC   C1A77415  43.203  12.044   6.090
 6141POPC   D2A77416  43.333  12.069   6.551
 6141POPC   C3A77417  43.159  11.860   6.946
 6141POPC   C4A77418  43.341  11.838   7.395
 6141POPC   C1B77419  42.678  12.044   6.053
 6141POPC   C2B77420  42.838  12.068   6.452
 6141POPC   C3B77421  42.665  12.038   6.842
 6141POPC   C4B77422  42.673  12.096   7.246
 6142POPC   NC377423  33.991   6.242   5.444
 6142POPC   PO477424  33.524   6.781   5.317
 6142POPC   GL177425  33.616   6.669   5.737
 6142POPC   GL277426  33.966   6.704   5.825
 6142POPC   C1A77427  33.595   6.552   6.172
 6142POPC   D2A77428  33.518   6.329   6.561
 6142POPC   C3A77429  33.813   6.442   6.882
 6142POPC   C4A77430  33.685   6.718   7.260
 6142POPC   C1B77431  34.224   6.854   6.153
 6142POPC   C2B77432  34.113   6.694   6.554
 6142POPC   C3B77433  33.959   6.936   6.879
 6142POPC   C4B77434  34.080   7.089   7.305
 6143POPC   NC377435  36.611  22.863   5.505
 6143POPC   PO477436  37.280  22.992   5.360
 6143POPC   GL177437  37.175  22.856   5.773
 6143POPC   GL277438  36.883  22.990   5.933
 6143POPC   C1A77439  37.247  22.776   6.223
 6143POPC   D2A77440  37.015  22.732   6.608
 6143POPC   C3A77441  37.186  22.889   6.991
 6143POPC   C4A77442  36.945  22.729   7.308
 6143POPC   C1B77443  36.630  23.232   6.235
 6143POPC   C2B77444  36.463  23.197   6.622
 6143POPC   C3B77445  36.676  23.024   6.976
 6143POPC   C4B77446  36.873  23.237   7.287
 6144POPC   NC377447   4.877  20.989   5.585
 6144POPC   PO477448   4.984  20.315   5.550
 6144POPC   GL177449   5.103  20.567   5.859
 6144POPC   GL277450   4.811  20.709   5.992
 6144POPC   C1A77451   5.246  20.623   6.275
 6144POPC   D2A77452   5.297  20.511   6.694
 6144POPC   C3A77453   5.291  20.773   7.066
 6144POPC   C4A77454   5.446  20.657   7.497
 6144POPC   C1B77455   4.776  20.338   6.204
 6144POPC   C2B77456   4.793  20.464   6.644
 6144POPC   C3B77457   4.921  20.376   7.072
 6144POPC   C4B77458   4.669  20.299   7.415
 6145POPC   NC377459  11.022  35.794   5.583
 6145POPC   PO477460  11.271  35.196   5.423
 6145POPC   GL177461  11.162  35.212   5.848
 6145POPC   GL277462  10.910  34.960   5.885
 6145POPC   C1A77463  11.307  35.427   6.257
 6145POPC   D2A77464  11.447  35.572   6.688
 6145POPC   C3A77465  11.361  35.511   7.158
 6145POPC   C4A77466  11.440  35.650   7.635
 6145POPC   C1B77467  11.093  34.964   6.282
 6145POPC   C2B77468  11.120  35.169   6.679
 6145POPC   C3B77469  11.089  35.029   7.097
 6145POPC   C4B77470  10.832  34.849   7.436
 6146POPC   NC377471  41.983  26.314   5.494
 6146POPC   PO477472  41.381  26.026   5.400
 6146POPC   GL177473  41.554  25.943   5.806
 6146POPC   GL277474  41.588  26.284   5.844
 6146POPC   C1A77475  41.458  25.934   6.271
 6146POPC   D2A77476  41.570  25.656   6.642
 6146POPC   C3A77477  41.502  25.843   7.041
 6146POPC   C4A77478  41.274  26.185   7.109
 6146POPC   C1B77479  41.734  26.520   6.211
 6146POPC   C2B77480  41.901  26.376   6.589
 6146POPC   C3B77481  41.794  26.252   7.000
 6146POPC   C4B77482  41.757  26.430   7.410
 6147POPC   NC377483  41.852  42.415   5.480
 6147POPC   PO477484  41.172  42.239   5.500
 6147POPC   GL177485  41.346  42.164   5.924
 6147POPC   GL277486  41.646  42.348   5.932
 6147POPC   C1A77487  41.498  42.129   6.367
 6147POPC   D2A77488  41.715  42.073   6.764
 6147POPC   C3A77489  41.387  41.971   7.066
 6147POPC   C4A77490  41.274  42.236   7.428
 6147POPC   C1B77491  41.564  42.628   6.252
 6147POPC   C2B77492  41.739  42.563   6.640
 6147POPC   C3B77493  41.521  42.506   7.007
 6147POPC   C4B77494  41.600  42.630   7.411
 6148POPC   NC377495  20.680  11.720   5.299
 6148POPC   PO477496  20.440  11.076   5.456
 6148POPC   GL177497  20.644  11.134   5.847
 6148POPC   GL277498  20.829  11.453   5.840
 6148POPC   C1A77499  20.510  11.245   6.261
 6148POPC   D2A77500  20.724  11.287   6.629
 6148POPC   C3A77501  20.541  11.086   7.019
 6148POPC   C4A77502  20.170  10.989   7.276
 6148POPC   C1B77503  20.989  11.629   6.249
 6148POPC   C2B77504  20.853  11.766   6.677
 6148POPC   C3B77505  20.658  11.593   7.041
 6148POPC   C4B77506  20.915  11.481   7.342
 6149POPC   NC377507  10.350   5.023   5.385
 6149POPC   PO477508  10.445   5.663   5.421
 6149POPC   GL177509  10.474   5.312   5.803
 6149POPC   GL277510  10.376   4.902   5.865
 6149POPC   C1A77511  10.621   5.160   6.224
 6149POPC   D2A77512  10.927   5.275   6.543
 6149POPC   C3A77513  11.002   5.163   6.973
 6149POPC   C4A77514  10.735   5.186   7.324
 6149POPC   C1B77515  10.391   4.694   6.240
 6149POPC   C2B77516  10.611   4.642   6.605
 6149POPC   C3B77517  10.609   4.801   7.018
 6149POPC   C4B77518  10.564   4.726   7.469
 6150POPC   NC377519   8.581   0.413   5.196
 6150POPC   PO477520   8.963  44.935   5.487
 6150POPC   GL177521   9.062   0.091   5.887
 6150POPC   GL277522   8.977   0.471   5.834
 6150POPC   C1A77523   9.206   0.258   6.245
 6150POPC   D2A77524   9.098   0.531   6.554
 6150POPC   C3A77525   9.119   0.404   6.972
 6150POPC   C4A77526   9.107   0.210   7.398
 6150POPC   C1B77527   8.642   0.707   6.070
 6150POPC   C2B77528   8.694   0.832   6.502
 6150POPC   C3B77529   8.565   0.873   6.956
 6150POPC   C4B77530   8.816   0.647   7.285
 6151POPC   NC377531  11.441  15.056   5.416
 6151POPC   PO477532  11.183  15.550   5.643
 6151POPC   GL177533  11.450  15.245   5.885
 6151POPC   GL277534  11.154  15.030   5.864
 6151POPC   C1A77535  11.466  14.886   6.223
 6151POPC   D2A77536  11.232  14.834   6.639
 6151POPC   C3A77537  11.342  14.983   7.043
 6151POPC   C4A77538  11.577  15.386   7.073
 6151POPC   C1B77539  11.131  15.275   6.267
 6151POPC   C2B77540  11.205  15.359   6.711
 6151POPC   C3B77541  11.055  15.382   7.158
 6151POPC   C4B77542  10.924  15.353   7.587
 6152POPC   NC377543   8.895  24.232   5.432
 6152POPC   PO477544   9.298  24.710   5.427
 6152POPC   GL177545   9.112  24.549   5.795
 6152POPC   GL277546   9.232  24.188   5.846
 6152POPC   C1A77547   9.047  24.681   6.203
 6152POPC   D2A77548   9.315  24.539   6.510
 6152POPC   C3A77549   9.208  24.638   6.956
 6152POPC   C4A77550   8.836  24.808   7.166
 6152POPC   C1B77551   8.860  24.183   6.127
 6152POPC   C2B77552   8.789  24.347   6.545
 6152POPC   C3B77553   8.824  24.221   6.972
 6152POPC   C4B77554   8.643  24.339   7.341
 6153POPC   NC377555  17.605  22.376   5.436
 6153POPC   PO477556  17.067  22.043   5.374
 6153POPC   GL177557  17.286  21.932   5.784
 6153POPC   GL277558  17.684  21.949   5.769
 6153POPC   C1A77559  17.245  22.114   6.212
 6153POPC   D2A77560  17.424  22.464   6.481
 6153POPC   C3A77561  17.354  22.474   6.913
 6153POPC   C4A77562  17.380  22.145   7.226
 6153POPC   C1B77563  17.751  22.085   6.212
 6153POPC   C2B77564  17.579  21.951   6.625
 6153POPC   C3B77565  17.658  21.758   7.042
 6153POPC   C4B77566  17.761  21.888   7.495
 6154POPC   NC377567  44.072   4.528   5.629
 6154POPC   PO477568  43.726   4.060   5.289
 6154POPC   GL177569  43.807   4.140   5.824
 6154POPC   GL277570  44.158   4.117   5.956
 6154POPC   C1A77571  43.760   3.939   6.262
 6154POPC   D2A77572  44.117   3.929   6.568
 6154POPC   C3A77573  44.048   4.040   7.016
 6154POPC   C4A77574  43.659   4.280   7.039
 6154POPC   C1B77575  44.017   4.383   6.271
 6154POPC   C2B77576  44.220   4.623   6.525
 6154POPC   C3B77577  44.002   4.757   6.851
 6154POPC   C4B77578  44.078   4.551   7.206
 6155POPC   NC377579  43.713  24.006   5.551
 6155POPC   PO477580  44.086  23.448   5.694
 6155POPC   GL177581  44.080  23.834   5.893
 6155POPC   GL277582  43.730  23.840   6.032
 6155POPC   C1A77583  44.149  23.935   6.320
 6155POPC   D2A77584  43.894  23.832   6.686
 6155POPC   C3A77585  44.104  23.698   7.069
 6155POPC   C4A77586  44.260  23.272   7.175
 6155POPC   C1B77587  43.579  23.549   6.353
 6155POPC   C2B77588  43.410  23.642   6.760
 6155POPC   C3B77589  43.593  23.830   7.127
 6155POPC   C4B77590  43.463  23.960   7.546
 6156POPC   NC377591  25.971   5.179   5.302
 6156POPC   PO477592  25.797   4.558   5.477
 6156POPC   GL177593  25.819   4.980   5.752
 6156POPC   GL277594  26.185   5.100   5.800
 6156POPC   C1A77595  25.883   5.291   6.140
 6156POPC   D2A77596  26.145   5.321   6.526
 6156POPC   C3A77597  26.008   5.418   6.929
 6156POPC   C4A77598  25.868   5.292   7.346
 6156POPC   C1B77599  26.215   4.920   6.232
 6156POPC   C2B77600  26.326   4.818   6.650
 6156POPC   C3B77601  26.122   4.939   7.020
 6156POPC   C4B77602  26.124   4.874   7.436
 6157POPC   NC377603  27.890  16.120   5.450
 6157POPC   PO477604  27.246  15.773   5.525
 6157POPC   GL177605  27.494  16.021   5.836
 6157POPC   GL277606  27.847  15.894   5.907
 6157POPC   C1A77607  27.522  16.100   6.297
 6157POPC   D2A77608  27.410  16.307   6.679
 6157POPC   C3A77609  27.493  16.072   7.041
 6157POPC   C4A77610  27.811  16.218   7.345
 6157POPC   C1B77611  27.647  15.613   6.212
 6157POPC   C2B77612  27.751  15.697   6.645
 6157POPC   C3B77613  27.939  15.837   7.027
 6157POPC   C4B77614  27.690  15.745   7.413
 6158POPC   NC377615  36.999  39.748   5.217
 6158POPC   PO477616  36.675  39.154   5.387
 6158POPC   GL177617  36.930  39.064   5.780
 6158POPC   GL277618  37.038  39.322   5.961
 6158POPC   C1A77619  37.175  38.875   6.119
 6158POPC   D2A77620  37.257  39.184   6.443
 6158POPC   C3A77621  37.091  39.141   6.838
 6158POPC   C4A77622  37.222  39.124   7.266
 6158POPC   C1B77623  36.734  39.113   6.256
 6158POPC   C2B77624  36.581  39.162   6.663
 6158POPC   C3B77625  36.663  39.212   7.104
 6158POPC   C4B77626  36.783  38.976   7.464
 6159POPC   NC377627  25.275  21.621   5.427
 6159POPC   PO477628  25.137  20.972   5.362
 6159POPC   GL177629  25.256  21.207   5.740
 6159POPC   GL277630  25.609  21.205   5.749
 6159POPC   C1A77631  25.310  21.380   6.157
 6159POPC   D2A77632  25.124  21.512   6.544
 6159POPC   C3A77633  25.388  21.491   6.872
 6159POPC   C4A77634  25.268  21.409   7.261
 6159POPC   C1B77635  25.539  20.937   6.118
 6159POPC   C2B77636  25.663  21.060   6.520
 6159POPC   C3B77637  25.515  20.997   6.931
 6159POPC   C4B77638  25.629  21.090   7.345
 6160POPC   NC377639  11.277  41.629   5.279
 6160POPC   PO477640  10.816  41.886   5.642
 6160POPC   GL177641  11.236  41.838   5.796
 6160POPC   GL277642  11.392  41.499   5.860
 6160POPC   C1A77643  11.447  41.940   6.177
 6160POPC   D2A77644  11.544  41.662   6.524
 6160POPC   C3A77645  11.495  41.829   6.918
 6160POPC   C4A77646  11.418  41.776   7.335
 6160POPC   C1B77647  11.125  41.555   6.250
 6160POPC   C2B77648  11.024  41.334   6.588
 6160POPC   C3B77649  11.155  41.458   6.981
 6160POPC   C4B77650  10.919  41.214   7.247
 6161POPC   NC377651  13.403  24.187   5.426
 6161POPC   PO477652  12.768  24.370   5.256
 6161POPC   GL177653  12.792  24.490   5.741
 6161POPC   GL277654  12.931  24.833   5.925
 6161POPC   C1A77655  12.872  24.406   6.193
 6161POPC   D2A77656  13.153  24.426   6.563
 6161POPC   C3A77657  12.960  24.504   6.983
 6161POPC   C4A77658  12.801  24.171   7.251
 6161POPC   C1B77659  12.575  24.844   6.248
 6161POPC   C2B77660  12.530  24.766   6.710
 6161POPC   C3B77661  12.522  24.712   7.171
 6161POPC   C4B77662  12.467  24.843   7.606
 6162POPC   NC377663  37.119   3.104   5.432
 6162POPC   PO477664  36.883   2.520   5.146
 6162POPC   GL177665  37.021   2.600   5.610
 6162POPC   GL277666  36.790   2.551   5.875
 6162POPC   C1A77667  37.205   2.781   6.030
 6162POPC   D2A77668  37.248   2.804   6.517
 6162POPC   C3A77669  36.845   2.849   6.794
 6162POPC   C4A77670  36.653   2.958   7.204
 6162POPC   C1B77671  36.618   2.625   6.282
 6162POPC   C2B77672  36.383   2.518   6.644
 6162POPC   C3B77673  36.591   2.399   7.031
 6162POPC   C4B77674  36.704   2.533   7.461
 6163POPC   NC377675  40.988  26.336   5.430
 6163POPC   PO477676  40.637  25.760   5.382
 6163POPC   GL177677  40.680  26.026   5.751
 6163POPC   GL277678  41.041  25.995   5.822
 6163POPC   C1A77679  40.731  26.294   6.127
 6163POPC   D2A77680  40.869  26.526   6.509
 6163POPC   C3A77681  40.867  26.223   6.809
 6163POPC   C4A77682  40.601  26.034   7.097
 6163POPC   C1B77683  40.962  25.750   6.198
 6163POPC   C2B77684  41.072  25.774   6.670
 6163POPC   C3B77685  41.015  25.745   7.136
 6163POPC   C4B77686  41.200  25.607   7.522
 6164POPC   NC377687  25.529   0.680   5.529
 6164POPC   PO477688  25.052   0.162   5.401
 6164POPC   GL177689  25.052   0.263   5.835
 6164POPC   GL277690  25.139   0.613   5.927
 6164POPC   C1A77691  24.926   0.288   6.282
 6164POPC   D2A77692  24.977   0.299   6.732
 6164POPC   C3A77693  25.244   0.497   7.020
 6164POPC   C4A77694  25.196   0.533   7.485
 6164POPC   C1B77695  25.246   0.666   6.402
 6164POPC   C2B77696  25.213   0.959   6.765
 6164POPC   C3B77697  25.083   0.962   7.204
 6164POPC   C4B77698  25.095   0.994   7.647
 6165POPC   NC377699  21.916  36.246   5.650
 6165POPC   PO477700  22.580  36.502   5.615
 6165POPC   GL177701  22.440  36.327   5.981
 6165POPC   GL277702  22.287  35.984   5.938
 6165POPC   C1A77703  22.528  36.274   6.418
 6165POPC   D2A77704  22.476  35.891   6.614
 6165POPC   C3A77705  22.245  36.074   6.897
 6165POPC   C4A77706  22.439  36.174   7.286
 6165POPC   C1B77707  22.050  36.110   6.317
 6165POPC   C2B77708  21.822  36.425   6.562
 6165POPC   C3B77709  21.975  36.522   6.929
 6165POPC   C4B77710  21.938  36.282   7.273
 6166POPC   NC377711  17.382  35.403   5.406
 6166POPC   PO477712  17.888  35.830   5.390
 6166POPC   GL177713  17.639  35.594   5.804
 6166POPC   GL277714  17.317  35.309   5.884
 6166POPC   C1A77715  17.601  35.476   6.263
 6166POPC   D2A77716  17.410  35.397   6.653
 6166POPC   C3A77717  17.685  35.483   6.963
 6166POPC   C4A77718  17.820  35.122   7.176
 6166POPC   C1B77719  17.058  35.357   6.270
 6166POPC   C2B77720  17.031  35.728   6.578
 6166POPC   C3B77721  17.159  35.669   7.018
 6166POPC   C4B77722  17.274  35.248   7.159
 6167POPC   NC377723  17.420  30.876   5.382
 6167POPC   PO477724  17.805  30.307   5.530
 6167POPC   GL177725  17.575  30.627   5.819
 6167POPC   GL277726  17.228  30.786   5.848
 6167POPC   C1A77727  17.437  30.591   6.265
 6167POPC   D2A77728  17.594  30.536   6.687
 6167POPC   C3A77729  17.641  30.838   7.041
 6167POPC   C4A77730  17.633  30.578   7.418
 6167POPC   C1B77731  16.948  30.718   6.188
 6167POPC   C2B77732  17.030  30.503   6.569
 6167POPC   C3B77733  17.179  30.609   6.967
 6167POPC   C4B77734  17.167  30.998   7.132
 6168POPC   NC377735  44.448  31.603   5.428
 6168POPC   PO477736  44.860  31.060   5.423
 6168POPC   GL177737  44.768  31.417   5.765
 6168POPC   GL277738   0.025  31.607   5.901
 6168POPC   C1A77739  44.516  31.626   6.097
 6168POPC   D2A77740  44.391  31.497   6.515
 6168POPC   C3A77741  44.665  31.541   6.877
 6168POPC   C4A77742  44.549  31.492   7.304
 6168POPC   C1B77743  44.931  31.477   6.357
 6168POPC   C2B77744   0.162  31.368   6.742
 6168POPC   C3B77745   0.058  31.395   7.190
 6168POPC   C4B77746  44.961  31.419   7.669
 6169POPC   NC377747   7.170  17.497   5.557
 6169POPC   PO477748   7.705  17.827   5.469
 6169POPC   GL177749   7.577  17.625   5.860
 6169POPC   GL277750   7.639  17.246   5.782
 6169POPC   C1A77751   7.207  17.711   6.176
 6169POPC   D2A77752   6.980  17.842   6.567
 6169POPC   C3A77753   7.175  17.738   6.961
 6169POPC   C4A77754   7.583  17.657   7.136
 6169POPC   C1B77755   7.432  17.232   6.186
 6169POPC   C2B77756   7.328  17.398   6.577
 6169POPC   C3B77757   7.292  17.236   6.959
 6169POPC   C4B77758   7.369  17.025   7.291
 6170POPC   NC377759  37.075  12.774   5.435
 6170POPC   PO477760  36.351  12.844   5.432
 6170POPC   GL177761  36.657  12.893   5.791
 6170POPC   GL277762  37.011  13.014   5.858
 6170POPC   C1A77763  36.636  13.085   6.198
 6170POPC   D2A77764  36.618  12.866   6.539
 6170POPC   C3A77765  36.800  12.998   6.920
 6170POPC   C4A77766  36.869  12.673   7.244
 6170POPC   C1B77767  36.983  12.700   6.168
 6170POPC   C2B77768  37.127  12.882   6.519
 6170POPC   C3B77769  37.248  12.745   6.897
 6170POPC   C4B77770  37.270  13.006   7.201
 6171POPC   NC377771   1.545  42.258   5.614
 6171POPC   PO477772   2.170  42.058   5.295
 6171POPC   GL177773   1.977  41.987   5.698
 6171POPC   GL277774   2.015  42.297   5.812
 6171POPC   C1A77775   1.871  41.950   6.168
 6171POPC   D2A77776   2.075  42.060   6.604
 6171POPC   C3A77777   1.821  41.983   6.987
 6171POPC   C4A77778   2.111  42.076   7.298
 6171POPC   C1B77779   2.133  42.400   6.229
 6171POPC   C2B77780   2.150  42.604   6.605
 6171POPC   C3B77781   2.286  42.464   6.980
 6171POPC   C4B77782   2.222  42.581   7.394
 6172POPC   NC377783   5.035  18.645   5.586
 6172POPC   PO477784   5.278  18.014   5.476
 6172POPC   GL177785   5.179  18.209   5.841
 6172POPC   GL277786   5.468  18.416   5.845
 6172POPC   C1A77787   4.914  18.379   6.182
 6172POPC   D2A77788   4.598  18.464   6.495
 6172POPC   C3A77789   4.706  18.679   6.892
 6172POPC   C4A77790   5.016  18.605   7.238
 6172POPC   C1B77791   5.390  18.219   6.296
 6172POPC   C2B77792   5.417  18.186   6.747
 6172POPC   C3B77793   5.389  18.219   7.177
 6172POPC   C4B77794   5.530  18.041   7.572
 6173POPC   NC377795  23.012  32.781   5.187
 6173POPC   PO477796  22.929  32.145   5.405
 6173POPC   GL177797  22.941  32.221   5.839
 6173POPC   GL277798  22.755  31.949   5.871
 6173POPC   C1A77799  22.762  32.317   6.255
 6173POPC   D2A77800  22.740  32.424   6.678
 6173POPC   C3A77801  22.793  32.151   7.026
 6173POPC   C4A77802  22.846  32.364   7.402
 6173POPC   C1B77803  22.947  31.856   6.270
 6173POPC   C2B77804  23.125  32.053   6.613
 6173POPC   C3B77805  23.380  31.940   6.947
 6173POPC   C4B77806  23.179  31.976   7.334
 6174POPC   NC377807  30.260  12.683   5.302
 6174POPC   PO477808  29.762  13.098   5.201
 6174POPC   GL177809  29.920  12.961   5.629
 6174POPC   GL277810  29.971  13.258   5.819
 6174POPC   C1A77811  30.138  12.791   6.041
 6174POPC   D2A77812  30.407  12.663   6.421
 6174POPC   C3A77813  30.228  12.651   6.848
 6174POPC   C4A77814  29.817  12.653   7.053
 6174POPC   C1B77815  29.878  13.272   6.234
 6174POPC   C2B77816  29.960  12.987   6.556
 6174POPC   C3B77817  29.999  13.127   6.967
 6174POPC   C4B77818  29.717  13.142   7.288
 6175POPC   NC377819  37.540  16.786   5.231
 6175POPC   PO477820  38.238  16.853   5.170
 6175POPC   GL177821  37.936  16.746   5.643
 6175POPC   GL277822  37.606  16.538   5.683
 6175POPC   C1A77823  37.673  16.846   6.097
 6175POPC   D2A77824  37.597  17.013   6.547
 6175POPC   C3A77825  37.726  16.844   6.931
 6175POPC   C4A77826  37.442  16.802   7.258
 6175POPC   C1B77827  37.532  16.354   6.130
 6175POPC   C2B77828  37.644  16.485   6.530
 6175POPC   C3B77829  37.470  16.382   6.922
 6175POPC   C4B77830  37.565  16.323   7.344
 6176POPC   NC377831  25.878  13.835   5.419
 6176POPC   PO477832  25.777  13.285   5.697
 6176POPC   GL177833  26.162  13.461   5.848
 6176POPC   GL277834  26.247  13.809   5.846
 6176POPC   C1A77835  26.109  13.523   6.293
 6176POPC   D2A77836  25.772  13.449   6.601
 6176POPC   C3A77837  25.865  13.204   6.959
 6176POPC   C4A77838  26.094  13.446   7.260
 6176POPC   C1B77839  26.233  14.038   6.277
 6176POPC   C2B77840  26.379  14.157   6.725
 6176POPC   C3B77841  26.380  14.074   7.211
 6176POPC   C4B77842  26.292  13.853   7.617
 6177POPC   NC377843  27.808  13.860   5.500
 6177POPC   PO477844  27.206  13.676   5.424
 6177POPC   GL177845  27.325  13.490   5.843
 6177POPC   GL277846  27.671  13.571   5.880
 6177POPC   C1A77847  27.453  13.343   6.285
 6177POPC   D2A77848  27.753  13.372   6.643
 6177POPC   C3A77849  27.592  13.451   7.046
 6177POPC   C4A77850  27.289  13.213   7.272
 6177POPC   C1B77851  27.608  13.897   6.170
 6177POPC   C2B77852  27.635  13.860   6.599
 6177POPC   C3B77853  27.737  13.975   6.999
 6177POPC   C4B77854  27.531  13.879   7.351
 6178POPC   NC377855  15.932  11.151   5.187
 6178POPC   PO477856  16.047  10.799   5.757
 6178POPC   GL177857  15.777  11.136   5.857
 6178POPC   GL277858  15.926  11.428   5.706
 6178POPC   C1A77859  15.869  11.262   6.290
 6178POPC   D2A77860  16.219  11.137   6.593
 6178POPC   C3A77861  16.092  11.092   7.021
 6178POPC   C4A77862  15.675  11.189   7.103
 6178POPC   C1B77863  15.854  11.736   6.026
 6178POPC   C2B77864  15.704  11.712   6.447
 6178POPC   C3B77865  15.925  11.557   6.793
 6178POPC   C4B77866  15.961  11.665   7.217
 6179POPC   NC377867  12.578   0.939   5.221
 6179POPC   PO477868  13.247   0.985   5.410
 6179POPC   GL177869  12.954   1.070   5.728
 6179POPC   GL277870  12.598   1.173   5.711
 6179POPC   C1A77871  12.951   1.259   6.124
 6179POPC   D2A77872  12.903   1.035   6.516
 6179POPC   C3A77873  13.039   1.192   6.877
 6179POPC   C4A77874  12.975   0.977   7.240
 6179POPC   C1B77875  12.442   1.168   6.164
 6179POPC   C2B77876  12.384   0.893   6.538
 6179POPC   C3B77877  12.548   1.024   6.945
 6179POPC   C4B77878  12.696   1.449   7.145
 6180POPC   NC377879  38.739   4.965   5.545
 6180POPC   PO477880  38.296   5.428   5.389
 6180POPC   GL177881  38.281   5.150   5.752
 6180POPC   GL277882  38.539   5.386   5.855
 6180POPC   C1A77883  38.454   5.009   6.180
 6180POPC   D2A77884  38.761   4.801   6.419
 6180POPC   C3A77885  38.594   4.722   6.810
 6180POPC   C4A77886  38.484   5.024   7.104
 6180POPC   C1B77887  38.178   5.428   6.189
 6180POPC   C2B77888  38.167   5.231   6.632
 6180POPC   C3B77889  38.127   5.413   7.075
 6180POPC   C4B77890  37.773   5.487   7.371
 6181POPC   NC377891  37.313   4.464   5.239
 6181POPC   PO477892  36.638   4.246   5.354
 6181POPC   GL177893  36.818   4.410   5.742
 6181POPC   GL277894  37.189   4.419   5.791
 6181POPC   C1A77895  36.767   4.246   6.163
 6181POPC   D2A77896  36.675   4.025   6.547
 6181POPC   C3A77897  36.764   4.222   6.940
 6181POPC   C4A77898  37.065   4.300   7.250
 6181POPC   C1B77899  37.151   4.596   6.226
 6181POPC   C2B77900  37.117   4.521   6.696
 6181POPC   C3B77901  36.876   4.715   7.052
 6181POPC   C4B77902  36.878   4.680   7.541
 6182POPC   NC377903   3.189  37.333   5.546
 6182POPC   PO477904   2.731  37.906   5.398
 6182POPC   GL177905   2.785  37.595   5.713
 6182POPC   GL277906   3.054  37.790   5.830
 6182POPC   C1A77907   2.872  37.407   6.149
 6182POPC   D2A77908   2.773  37.271   6.600
 6182POPC   C3A77909   2.709  37.571   6.950
 6182POPC   C4A77910   2.372  37.673   7.210
 6182POPC   C1B77911   2.698  37.886   6.123
 6182POPC   C2B77912   2.655  37.929   6.564
 6182POPC   C3B77913   2.984  38.009   6.855
 6182POPC   C4B77914   3.073  37.822   7.239
 6183POPC   NC377915  25.824   2.595   5.655
 6183POPC   PO477916  26.442   2.768   5.407
 6183POPC   GL177917  26.245   2.841   5.812
 6183POPC   GL277918  26.274   2.513   5.932
 6183POPC   C1A77919  25.933   2.954   6.184
 6183POPC   D2A77920  25.641   3.076   6.514
 6183POPC   C3A77921  25.719   3.048   6.969
 6183POPC   C4A77922  26.043   2.860   7.204
 6183POPC   C1B77923  25.939   2.441   6.271
 6183POPC   C2B77924  25.928   2.639   6.647
 6183POPC   C3B77925  26.286   2.585   6.875
 6183POPC   C4B77926  26.127   2.313   7.186
 6184POPC   NC377927  10.979   7.660   4.939
 6184POPC   PO477928  11.477   7.531   5.371
 6184POPC   GL177929  11.439   7.469   5.804
 6184POPC   GL277930  11.201   7.207   5.746
 6184POPC   C1A77931  11.264   7.564   6.206
 6184POPC   D2A77932  11.358   7.334   6.576
 6184POPC   C3A77933  11.281   7.576   6.944
 6184POPC   C4A77934  11.319   7.547   7.390
 6184POPC   C1B77935  11.005   7.142   6.126
 6184POPC   C2B77936  10.991   6.976   6.535
 6184POPC   C3B77937  11.120   7.040   6.949
 6184POPC   C4B77938  11.048   6.886   7.357
 6185POPC   NC377939  13.683   4.877   4.914
 6185POPC   PO477940  13.706   5.317   5.443
 6185POPC   GL177941  13.605   5.081   5.821
 6185POPC   GL277942  13.328   5.285   5.886
 6185POPC   C1A77943  13.783   5.039   6.275
 6185POPC   D2A77944  13.869   5.242   6.691
 6185POPC   C3A77945  13.864   5.150   7.129
 6185POPC   C4A77946  14.081   5.302   7.493
 6185POPC   C1B77947  13.270   5.063   6.269
 6185POPC   C2B77948  13.437   4.901   6.637
 6185POPC   C3B77949  13.376   5.148   6.966
 6185POPC   C4B77950  13.265   5.021   7.341
 6186POPC   NC377951  32.233  29.586   5.494
 6186POPC   PO477952  32.055  30.334   5.488
 6186POPC   GL177953  32.237  30.094   5.843
 6186POPC   GL277954  32.066  29.775   5.915
 6186POPC   C1A77955  32.352  29.953   6.282
 6186POPC   D2A77956  32.549  29.738   6.629
 6186POPC   C3A77957  32.416  29.907   7.023
 6186POPC   C4A77958  32.228  30.295   7.182
 6186POPC   C1B77959  31.936  29.670   6.313
 6186POPC   C2B77960  32.025  29.800   6.700
 6186POPC   C3B77961  31.886  29.726   7.096
 6186POPC   C4B77962  31.857  29.615   7.506
 6187POPC   NC377963  28.120  37.220   5.312
 6187POPC   PO477964  28.411  36.710   5.653
 6187POPC   GL177965  28.339  36.760   6.023
 6187POPC   GL277966  28.222  37.118   5.914
 6187POPC   C1A77967  28.531  36.724   6.434
 6187POPC   D2A77968  28.569  37.053   6.767
 6187POPC   C3A77969  28.671  36.827   7.127
 6187POPC   C4A77970  28.696  36.462   7.350
 6187POPC   C1B77971  28.277  37.154   6.330
 6187POPC   C2B77972  28.075  36.911   6.644
 6187POPC   C3B77973  28.168  36.961   7.065
 6187POPC   C4B77974  28.411  37.265   7.246
 6188POPC   NC377975  31.943  33.437   5.608
 6188POPC   PO477976  32.396  33.828   5.230
 6188POPC   GL177977  32.362  33.831   5.768
 6188POPC   GL277978  32.079  33.769   5.954
 6188POPC   C1A77979  32.499  33.696   6.216
 6188POPC   D2A77980  32.377  33.877   6.625
 6188POPC   C3A77981  32.491  33.620   6.985
 6188POPC   C4A77982  32.325  33.675   7.375
 6188POPC   C1B77983  31.795  33.954   6.204
 6188POPC   C2B77984  31.695  33.794   6.600
 6188POPC   C3B77985  31.957  33.800   6.970
 6188POPC   C4B77986  31.904  34.021   7.322
 6189POPC   NC377987  13.443  11.649   5.308
 6189POPC   PO477988  14.040  11.127   5.421
 6189POPC   GL177989  13.760  11.322   5.783
 6189POPC   GL277990  13.425  11.525   5.796
 6189POPC   C1A77991  13.668  11.457   6.232
 6189POPC   D2A77992  13.466  11.593   6.620
 6189POPC   C3A77993  13.740  11.502   6.959
 6189POPC   C4A77994  13.779  11.266   7.310
 6189POPC   C1B77995  13.321  11.136   6.049
 6189POPC   C2B77996  13.505  11.042   6.470
 6189POPC   C3B77997  13.467  11.089   6.924
 6189POPC   C4B77998  13.417  10.926   7.360
 6190POPC   NC377999  31.560  40.128   5.503
 6190POPC   PO478000  32.342  39.901   5.392
 6190POPC   GL178001  32.290  40.057   5.798
 6190POPC   GL278002  31.927  40.064   5.863
 6190POPC   C1A78003  32.287  40.247   6.217
 6190POPC   D2A78004  32.103  40.057   6.578
 6190POPC   C3A78005  32.285  40.149   6.963
 6190POPC   C4A78006  32.155  40.129   7.402
 6190POPC   C1B78007  31.813  39.799   6.229
 6190POPC   C2B78008  31.961  39.550   6.582
 6190POPC   C3B78009  32.082  39.682   6.982
 6190POPC   C4B78010  32.002  39.635   7.400
 6191POPC   NC378011  32.298   0.796   5.513
 6191POPC   PO478012  32.351   0.166   5.408
 6191POPC   GL178013  32.320   0.380   5.852
 6191POPC   GL278014  32.007   0.288   6.060
 6191POPC   C1A78015  32.151   0.767   6.149
 6191POPC   D2A78016  32.021   0.880   6.543
 6191POPC   C3A78017  32.165   0.631   6.879
 6191POPC   C4A78018  32.221   0.630   7.300
 6191POPC   C1B78019  32.360   0.330   6.357
 6191POPC   C2B78020  32.461   0.087   6.699
 6191POPC   C3B78021  32.420   0.207   7.120
 6191POPC   C4B78022  32.378   0.229   7.588
 6192POPC   NC378023   4.006  44.178   5.457
 6192POPC   PO478024   4.357  43.454   5.476
 6192POPC   GL178025   4.405  43.696   5.890
 6192POPC   GL278026   4.167  43.964   5.904
 6192POPC   C1A78027   4.478  43.914   6.331
 6192POPC   D2A78028   4.550  43.825   6.799
 6192POPC   C3A78029   4.221  43.993   7.017
 6192POPC   C4A78030   4.280  44.244   7.330
 6192POPC   C1B78031   4.005  43.668   6.237
 6192POPC   C2B78032   3.772  43.619   6.625
 6192POPC   C3B78033   3.888  43.594   7.084
 6192POPC   C4B78034   4.257  43.598   7.347
 6193POPC   NC378035   3.742  12.898   5.337
 6193POPC   PO478036   3.179  12.835   5.133
 6193POPC   GL178037   3.372  12.796   5.671
 6193POPC   GL278038   3.645  13.009   5.827
 6193POPC   C1A78039   3.285  12.955   6.152
 6193POPC   D2A78040   3.572  13.093   6.508
 6193POPC   C3A78041   3.387  13.010   6.929
 6193POPC   C4A78042   3.302  12.836   7.366
 6193POPC   C1B78043   3.701  12.678   6.234
 6193POPC   C2B78044   3.820  12.667   6.700
 6193POPC   C3B78045   3.779  12.759   7.158
 6193POPC   C4B78046   3.769  12.781   7.599
 6194POPC   NC378047  20.844  34.474   5.463
 6194POPC   PO478048  20.278  34.836   5.536
 6194POPC   GL178049  20.624  34.739   5.855
 6194POPC   GL278050  20.618  34.367   5.900
 6194POPC   C1A78051  20.688  34.689   6.333
 6194POPC   D2A78052  20.521  34.696   6.747
 6194POPC   C3A78053  20.766  34.780   7.114
 6194POPC   C4A78054  20.896  34.763   7.540
 6194POPC   C1B78055  20.805  34.202   6.258
 6194POPC   C2B78056  20.556  34.158   6.629
 6194POPC   C3B78057  20.577  34.287   7.058
 6194POPC   C4B78058  20.912  34.291   7.337
 6195POPC   NC378059  18.875  44.911   5.251
 6195POPC   PO478060  19.221   0.509   5.371
 6195POPC   GL178061  18.899   0.500   5.702
 6195POPC   GL278062  18.719   0.181   5.710
 6195POPC   C1A78063  18.835   0.582   6.143
 6195POPC   D2A78064  18.828   0.679   6.589
 6195POPC   C3A78065  19.120   0.942   6.828
 6195POPC   C4A78066  19.253   0.797   7.210
 6195POPC   C1B78067  19.014   0.087   6.074
 6195POPC   C2B78068  19.109   0.211   6.530
 6195POPC   C3B78069  19.266   0.323   6.975
 6195POPC   C4B78070  19.162   0.375   7.471
 6196POPC   NC378071  29.353  13.093   5.399
 6196POPC   PO478072  28.779  12.856   5.280
 6196POPC   GL178073  28.928  12.887   5.734
 6196POPC   GL278074  29.045  12.547   5.841
 6196POPC   C1A78075  28.870  12.895   6.222
 6196POPC   D2A78076  28.992  12.663   6.637
 6196POPC   C3A78077  28.826  12.780   7.054
 6196POPC   C4A78078  28.845  13.179   7.296
 6196POPC   C1B78079  29.313  12.587   6.229
 6196POPC   C2B78080  29.495  12.707   6.645
 6196POPC   C3B78081  29.327  12.573   7.050
 6196POPC   C4B78082  29.471  12.666   7.508
 6197POPC   NC378083  38.498  16.522   5.341
 6197POPC   PO478084  38.755  17.167   5.462
 6197POPC   GL178085  38.454  16.892   5.729
 6197POPC   GL278086  38.347  16.494   5.811
 6197POPC   C1A78087  38.549  16.773   6.165
 6197POPC   D2A78088  38.496  16.466   6.484
 6197POPC   C3A78089  38.643  16.645   6.876
 6197POPC   C4A78090  38.506  16.669   7.290
 6197POPC   C1B78091  38.079  16.570   6.138
 6197POPC   C2B78092  38.072  16.768   6.529
 6197POPC   C3B78093  38.144  16.546   6.908
 6197POPC   C4B78094  38.007  16.569   7.318
 6198POPC   NC378095   8.781  27.865   5.385
 6198POPC   PO478096   8.583  27.251   5.440
 6198POPC   GL178097   8.875  27.486   5.735
 6198POPC   GL278098   9.129  27.262   5.842
 6198POPC   C1A78099   9.102  27.738   6.095
 6198POPC   D2A78100   9.289  27.780   6.536
 6198POPC   C3A78101   9.046  27.774   6.908
 6198POPC   C4A78102   8.662  27.627   7.045
 6198POPC   C1B78103   8.940  27.239   6.209
 6198POPC   C2B78104   8.863  27.422   6.585
 6198POPC   C3B78105   8.974  27.235   6.971
 6198POPC   C4B78106   9.082  27.372   7.416
 6199POPC   NC378107  39.928  17.427   5.381
 6199POPC   PO478108  40.246  16.981   5.713
 6199POPC   GL178109  40.045  17.365   5.894
 6199POPC   GL278110  39.692  17.389   5.832
 6199POPC   C1A78111  40.014  17.598   6.327
 6199POPC   D2A78112  40.261  17.640   6.739
 6199POPC   C3A78113  40.111  17.647   7.196
 6199POPC   C4A78114  40.173  17.718   7.648
 6199POPC   C1B78115  39.518  17.571   6.173
 6199POPC   C2B78116  39.468  17.493   6.602
 6199POPC   C3B78117  39.621  17.591   7.022
 6199POPC   C4B78118  39.712  17.559   7.497
 6200POPC   NC378119  15.227  36.337   5.662
 6200POPC   PO478120  14.999  36.863   5.339
 6200POPC   GL178121  15.242  36.827   5.791
 6200POPC   GL278122  15.168  37.125   5.950
 6200POPC   C1A78123  15.228  36.668   6.215
 6200POPC   D2A78124  14.995  36.650   6.571
 6200POPC   C3A78125  15.133  36.805   6.928
 6200POPC   C4A78126  15.102  36.615   7.292
 6200POPC   C1B78127  14.997  37.363   6.312
 6200POPC   C2B78128  14.910  37.241   6.732
 6200POPC   C3B78129  14.799  37.192   7.162
 6200POPC   C4B78130  14.650  37.242   7.589
 6201POPC   NC378131  12.124  20.135   5.499
 6201POPC   PO478132  12.015  19.423   5.450
 6201POPC   GL178133  12.108  19.677   5.803
 6201POPC   GL278134  11.947  19.986   5.951
 6201POPC   C1A78135  12.156  19.539   6.225
 6201POPC   D2A78136  11.995  19.317   6.581
 6201POPC   C3A78137  12.131  19.513   6.952
 6201POPC   C4A78138  11.978  19.691   7.296
 6201POPC   C1B78139  12.103  20.276   6.250
 6201POPC   C2B78140  12.300  20.237   6.653
 6201POPC   C3B78141  12.202  20.122   7.090
 6201POPC   C4B78142  12.023  20.123   7.531
 6202POPC   NC378143   7.625  36.398   5.397
 6202POPC   PO478144   7.330  35.718   5.439
 6202POPC   GL178145   7.379  36.075   5.751
 6202POPC   GL278146   7.078  36.296   5.825
 6202POPC   C1A78147   7.533  36.200   6.173
 6202POPC   D2A78148   7.647  36.002   6.571
 6202POPC   C3A78149   7.515  36.017   6.990
 6202POPC   C4A78150   7.268  35.794   7.274
 6202POPC   C1B78151   7.076  36.409   6.281
 6202POPC   C2B78152   7.293  36.413   6.697
 6202POPC   C3B78153   7.232  36.429   7.151
 6202POPC   C4B78154   6.988  36.531   7.520
 6203POPC   NC378155  37.911  18.223   5.499
 6203POPC   PO478156  37.267  18.424   5.365
 6203POPC   GL178157  37.507  18.417   5.756
 6203POPC   GL278158  37.535  18.069   5.867
 6203POPC   C1A78159  37.522  18.507   6.210
 6203POPC   D2A78160  37.455  18.300   6.623
 6203POPC   C3A78161  37.649  18.381   6.989
 6203POPC   C4A78162  37.643  18.246   7.395
 6203POPC   C1B78163  37.787  18.076   6.288
 6203POPC   C2B78164  37.963  18.059   6.715
 6203POPC   C3B78165  37.963  17.929   7.151
 6203POPC   C4B78166  37.980  17.872   7.599
 6204POPC   NC378167  44.941  27.403   5.374
 6204POPC   PO478168   0.526  27.544   5.456
 6204POPC   GL178169   0.516  27.620   5.859
 6204POPC   GL278170   0.634  27.908   5.940
 6204POPC   C1A78171   0.430  27.351   6.183
 6204POPC   D2A78172   0.200  27.356   6.525
 6204POPC   C3A78173   0.397  27.300   6.919
 6204POPC   C4A78174   0.296  27.390   7.317
 6204POPC   C1B78175   0.582  27.865   6.338
 6204POPC   C2B78176   0.401  27.821   6.711
 6204POPC   C3B78177   0.562  27.826   7.095
 6204POPC   C4B78178   0.603  27.739   7.521
 6205POPC   NC378179  10.785  15.723   5.064
 6205POPC   PO478180  10.435  16.198   5.497
 6205POPC   GL178181  10.400  15.993   5.862
 6205POPC   GL278182  10.056  15.926   5.834
 6205POPC   C1A78183  10.615  15.944   6.256
 6205POPC   D2A78184  10.544  16.167   6.633
 6205POPC   C3A78185  10.667  16.126   7.090
 6205POPC   C4A78186  10.323  16.058   7.426
 6205POPC   C1B78187  10.171  15.582   6.127
 6205POPC   C2B78188  10.399  15.553   6.507
 6205POPC   C3B78189  10.703  15.619   6.813
 6205POPC   C4B78190  10.623  15.634   7.237
 6206POPC   NC378191  14.633  22.526   5.510
 6206POPC   PO478192  14.131  23.044   5.465
 6206POPC   GL178193  14.247  22.796   5.732
 6206POPC   GL278194  14.544  22.943   5.813
 6206POPC   C1A78195  14.207  22.780   6.163
 6206POPC   D2A78196  14.493  22.824   6.479
 6206POPC   C3A78197  14.348  22.860   6.882
 6206POPC   C4A78198  14.439  22.535   7.153
 6206POPC   C1B78199  14.518  23.222   6.171
 6206POPC   C2B78200  14.687  23.269   6.607
 6206POPC   C3B78201  14.599  23.261   7.057
 6206POPC   C4B78202  14.924  23.437   7.265
 6207POPC   NC378203  43.653  38.261   5.663
 6207POPC   PO478204  44.285  38.400   5.476
 6207POPC   GL178205  44.052  38.535   5.817
 6207POPC   GL278206  43.857  38.803   5.965
 6207POPC   C1A78207  43.974  38.357   6.244
 6207POPC   D2A78208  44.182  38.277   6.641
 6207POPC   C3A78209  43.914  38.283   6.991
 6207POPC   C4A78210  43.721  38.607   7.198
 6207POPC   C1B78211  44.278  38.760   6.198
 6207POPC   C2B78212  44.441  38.713   6.602
 6207POPC   C3B78213  44.243  38.675   7.008
 6207POPC   C4B78214  44.216  38.602   7.463
 6208POPC   NC378215   5.373  41.623   5.442
 6208POPC   PO478216   4.711  41.723   5.446
 6208POPC   GL178217   4.984  41.564   5.783
 6208POPC   GL278218   5.162  41.218   5.750
 6208POPC   C1A78219   5.256  41.604   6.145
 6208POPC   D2A78220   5.284  41.424   6.559
 6208POPC   C3A78221   5.195  41.638   6.936
 6208POPC   C4A78222   5.254  41.688   7.349
 6208POPC   C1B78223   4.891  41.188   6.125
 6208POPC   C2B78224   4.860  41.148   6.564
 6208POPC   C3B78225   4.976  41.197   6.991
 6208POPC   C4B78226   4.764  41.505   7.280
 6209POPC   NC378227  11.020  20.652   5.433
 6209POPC   PO478228  11.630  20.657   5.195
 6209POPC   GL178229  11.415  20.611   5.725
 6209POPC   GL278230  11.198  20.319   5.803
 6209POPC   C1A78231  11.242  20.741   6.130
 6209POPC   D2A78232  11.236  20.576   6.541
 6209POPC   C3A78233  11.117  20.708   6.956
 6209POPC   C4A78234  11.419  20.767   7.295
 6209POPC   C1B78235  11.495  20.270   6.155
 6209POPC   C2B78236  11.410  20.091   6.545
 6209POPC   C3B78237  11.438  20.297   6.940
 6209POPC   C4B78238  11.158  20.313   7.267
 6210POPC   NC378239  38.170  28.269   5.092
 6210POPC   PO478240  38.659  28.161   5.526
 6210POPC   GL178241  38.422  28.397   5.805
 6210POPC   GL278242  38.142  28.205   5.716
 6210POPC   C1A78243  38.436  28.620   6.190
 6210POPC   D2A78244  38.433  28.405   6.579
 6210POPC   C3A78245  38.506  28.618   6.983
 6210POPC   C4A78246  38.390  28.602   7.441
 6210POPC   C1B78247  38.050  28.301   6.156
 6210POPC   C2B78248  37.952  28.549   6.557
 6210POPC   C3B78249  38.093  28.321   6.965
 6210POPC   C4B78250  38.120  28.123   7.398
 6211POPC   NC378251  24.399  14.670   5.443
 6211POPC   PO478252  24.857  14.273   5.550
 6211POPC   GL178253  24.707  14.585   5.874
 6211POPC   GL278254  24.340  14.492   5.911
 6211POPC   C1A78255  24.639  14.506   6.318
 6211POPC   D2A78256  24.636  14.198   6.627
 6211POPC   C3A78257  24.818  14.324   6.972
 6211POPC   C4A78258  24.827  14.411   7.378
 6211POPC   C1B78259  24.069  14.472   6.280
 6211POPC   C2B78260  24.181  14.423   6.702
 6211POPC   C3B78261  24.299  14.344   7.122
 6211POPC   C4B78262  24.007  14.504   7.435
 6212POPC   NC378263  15.166  42.691   5.476
 6212POPC   PO478264  15.477  42.124   5.328
 6212POPC   GL178265  15.273  42.260   5.749
 6212POPC   GL278266  15.474  41.982   5.856
 6212POPC   C1A78267  15.164  42.541   6.146
 6212POPC   D2A78268  15.045  42.751   6.566
 6212POPC   C3A78269  15.090  42.514   6.933
 6212POPC   C4A78270  15.265  42.520   7.334
 6212POPC   C1B78271  15.277  41.978   6.239
 6212POPC   C2B78272  15.473  41.892   6.608
 6212POPC   C3B78273  15.634  41.893   7.010
 6212POPC   C4B78274  15.318  42.021   7.325
 6213POPC   NC378275  41.285  27.970   5.347
 6213POPC   PO478276  41.505  28.657   5.407
 6213POPC   GL178277  41.491  28.392   5.784
 6213POPC   GL278278  41.583  28.027   5.770
 6213POPC   C1A78279  41.549  28.463   6.237
 6213POPC   D2A78280  41.578  28.687   6.636
 6213POPC   C3A78281  41.464  28.442   6.998
 6213POPC   C4A78282  41.570  28.325   7.420
 6213POPC   C1B78283  41.442  27.958   6.187
 6213POPC   C2B78284  41.445  28.079   6.630
 6213POPC   C3B78285  41.266  27.962   7.053
 6213POPC   C4B78286  41.325  27.872   7.473
 6214POPC   NC378287  14.958   0.422   5.531
 6214POPC   PO478288  15.614   0.274   5.594
 6214POPC   GL178289  15.340   0.451   5.923
 6214POPC   GL278290  14.931   0.590   5.997
 6214POPC   C1A78291  15.313   0.717   6.289
 6214POPC   D2A78292  15.049   0.613   6.597
 6214POPC   C3A78293  15.207   0.572   6.982
 6214POPC   C4A78294  14.952   0.620   7.331
 6214POPC   C1B78295  14.995   0.226   6.212
 6214POPC   C2B78296  14.896   0.110   6.586
 6214POPC   C3B78297  14.780   0.267   6.978
 6214POPC   C4B78298  15.085   0.135   7.276
 6215POPC   NC378299  26.615  33.046   5.283
 6215POPC   PO478300  27.152  32.738   5.459
 6215POPC   GL178301  26.867  32.863   5.796
 6215POPC   GL278302  26.921  33.203   5.847
 6215POPC   C1A78303  26.631  32.952   6.205
 6215POPC   D2A78304  26.683  33.238   6.576
 6215POPC   C3A78305  26.543  33.048   6.955
 6215POPC   C4A78306  26.669  32.790   7.284
 6215POPC   C1B78307  27.117  33.185   6.264
 6215POPC   C2B78308  27.170  33.479   6.639
 6215POPC   C3B78309  26.940  33.392   7.022
 6215POPC   C4B78310  27.094  33.076   7.277
 6216POPC   NC378311   3.231  31.521   5.489
 6216POPC   PO478312   3.972  31.383   5.519
 6216POPC   GL178313   3.759  31.245   5.907
 6216POPC   GL278314   3.430  31.161   5.854
 6216POPC   C1A78315   3.814  31.122   6.359
 6216POPC   D2A78316   3.660  31.191   6.782
 6216POPC   C3A78317   3.906  31.452   7.123
 6216POPC   C4A78318   3.989  31.468   7.573
 6216POPC   C1B78319   3.347  31.333   6.257
 6216POPC   C2B78320   3.421  31.622   6.590
 6216POPC   C3B78321   3.445  31.608   7.021
 6216POPC   C4B78322   3.621  31.832   7.357
 6217POPC   NC378323  32.844  37.580   5.557
 6217POPC   PO478324  33.051  38.175   5.431
 6217POPC   GL178325  33.194  37.879   5.801
 6217POPC   GL278326  33.277  37.513   5.798
 6217POPC   C1A78327  32.991  37.745   6.214
 6217POPC   D2A78328  32.770  37.551   6.560
 6217POPC   C3A78329  32.870  37.686   6.953
 6217POPC   C4A78330  32.520  37.915   7.145
 6217POPC   C1B78331  33.197  37.265   6.127
 6217POPC   C2B78332  33.211  37.295   6.552
 6217POPC   C3B78333  33.346  37.408   6.942
 6217POPC   C4B78334  33.192  37.440   7.310
 6218POPC   NC378335   1.538   5.176   5.453
 6218POPC   PO478336   2.123   4.958   5.348
 6218POPC   GL178337   2.093   5.116   5.804
 6218POPC   GL278338   1.778   5.303   5.893
 6218POPC   C1A78339   2.267   5.036   6.250
 6218POPC   D2A78340   2.315   4.756   6.589
 6218POPC   C3A78341   2.110   4.923   6.939
 6218POPC   C4A78342   2.092   5.177   7.298
 6218POPC   C1B78343   1.774   4.966   6.196
 6218POPC   C2B78344   1.683   4.886   6.642
 6218POPC   C3B78345   1.645   5.166   7.033
 6218POPC   C4B78346   1.650   5.111   7.514
 6219POPC   NC378347  38.397  43.733   5.435
 6219POPC   PO478348  38.470  44.435   5.542
 6219POPC   GL178349  38.283  44.151   5.756
 6219POPC   GL278350  38.590  43.999   5.833
 6219POPC   C1A78351  38.261  44.196   6.203
 6219POPC   D2A78352  38.522  44.118   6.566
 6219POPC   C3A78353  38.286  44.095   6.963
 6219POPC   C4A78354  38.509  44.197   7.337
 6219POPC   C1B78355  38.518  43.735   6.166
 6219POPC   C2B78356  38.642  43.602   6.564
 6219POPC   C3B78357  38.671  43.766   6.968
 6219POPC   C4B78358  38.416  43.688   7.312
 6220POPC   NC378359   8.473  14.001   5.594
 6220POPC   PO478360   8.159  13.565   5.226
 6220POPC   GL178361   8.189  13.498   5.722
 6220POPC   GL278362   8.477  13.626   5.944
 6220POPC   C1A78363   8.011  13.473   6.178
 6220POPC   D2A78364   7.974  13.578   6.640
 6220POPC   C3A78365   8.376  13.517   6.820
 6220POPC   C4A78366   8.467  13.430   7.229
 6220POPC   C1B78367   8.348  13.848   6.333
 6220POPC   C2B78368   8.319  14.036   6.736
 6220POPC   C3B78369   8.198  13.884   7.137
 6220POPC   C4B78370   8.014  13.954   7.501
 6221POPC   NC378371  39.441  22.008   5.423
 6221POPC   PO478372  39.052  22.519   5.366
 6221POPC   GL178373  39.040  22.294   5.772
 6221POPC   GL278374  39.201  21.964   5.887
 6221POPC   C1A78375  39.021  22.398   6.216
 6221POPC   D2A78376  39.018  22.197   6.623
 6221POPC   C3A78377  39.023  22.462   6.982
 6221POPC   C4A78378  38.934  22.233   7.342
 6221POPC   C1B78379  39.486  22.155   6.221
 6221POPC   C2B78380  39.548  22.110   6.663
 6221POPC   C3B78381  39.468  22.142   7.106
 6221POPC   C4B78382  39.283  21.868   7.380
 6222POPC   NC378383  40.664  37.873   5.555
 6222POPC   PO478384  41.204  37.569   5.138
 6222POPC   GL178385  41.021  37.519   5.637
 6222POPC   GL278386  41.052  37.843   5.870
 6222POPC   C1A78387  40.745  37.428   6.048
 6222POPC   D2A78388  40.637  37.367   6.521
 6222POPC   C3A78389  40.526  37.530   6.944
 6222POPC   C4A78390  40.736  37.436   7.352
 6222POPC   C1B78391  40.801  37.899   6.232
 6222POPC   C2B78392  40.877  37.792   6.629
 6222POPC   C3B78393  41.008  37.706   7.007
 6222POPC   C4B78394  40.672  37.995   7.137
 6223POPC   NC378395   4.798  39.655   5.607
 6223POPC   PO478396   5.205  40.183   5.387
 6223POPC   GL178397   5.082  40.192   5.810
 6223POPC   GL278398   5.216  39.867   5.894
 6223POPC   C1A78399   5.261  40.284   6.247
 6223POPC   D2A78400   5.303  40.068   6.649
 6223POPC   C3A78401   5.071  40.206   6.994
 6223POPC   C4A78402   5.201  40.211   7.422
 6223POPC   C1B78403   4.907  39.919   6.220
 6223POPC   C2B78404   4.785  39.941   6.607
 6223POPC   C3B78405   4.951  39.696   6.893
 6223POPC   C4B78406   4.917  39.807   7.273
 6224POPC   NC378407  11.843  13.547   5.362
 6224POPC   PO478408  12.502  13.320   5.274
 6224POPC   GL178409  12.294  13.467   5.701
 6224POPC   GL278410  11.994  13.646   5.831
 6224POPC   C1A78411  12.317  13.519   6.194
 6224POPC   D2A78412  12.119  13.608   6.594
 6224POPC   C3A78413  12.289  13.586   7.002
 6224POPC   C4A78414  12.171  13.397   7.410
 6224POPC   C1B78415  11.805  13.431   6.194
 6224POPC   C2B78416  11.832  13.202   6.573
 6224POPC   C3B78417  11.777  13.444   6.966
 6224POPC   C4B78418  11.682  13.663   7.319
 6225POPC   NC378419  22.654  14.516   5.420
 6225POPC   PO478420  23.330  14.532   5.437
 6225POPC   GL178421  23.087  14.573   5.822
 6225POPC   GL278422  22.808  14.317   5.855
 6225POPC   C1A78423  23.162  14.464   6.255
 6225POPC   D2A78424  23.074  14.655   6.672
 6225POPC   C3A78425  22.910  14.568   7.081
 6225POPC   C4A78426  23.165  14.755   7.361
 6225POPC   C1B78427  22.733  14.138   6.247
 6225POPC   C2B78428  22.980  14.152   6.614
 6225POPC   C3B78429  22.853  14.091   6.956
 6225POPC   C4B78430  22.516  14.177   7.196
 6226POPC   NC378431   5.446  31.724   5.463
 6226POPC   PO478432   5.972  31.371   5.543
 6226POPC   GL178433   5.699  31.392   5.846
 6226POPC   GL278434   5.813  31.716   5.890
 6226POPC   C1A78435   5.788  31.214   6.255
 6226POPC   D2A78436   5.710  30.952   6.613
 6226POPC   C3A78437   5.999  31.142   6.920
 6226POPC   C4A78438   5.985  31.372   7.299
 6226POPC   C1B78439   5.704  31.726   6.302
 6226POPC   C2B78440   5.922  31.589   6.653
 6226POPC   C3B78441   5.776  31.745   7.033
 6226POPC   C4B78442   5.712  31.754   7.486
 6227POPC   NC378443  24.629  44.972   5.450
 6227POPC   PO478444  24.599  44.311   5.135
 6227POPC   GL178445  24.569  44.492   5.571
 6227POPC   GL278446  24.858  44.620   5.774
 6227POPC   C1A78447  24.345  44.512   5.998
 6227POPC   D2A78448  24.450  44.501   6.475
 6227POPC   C3A78449  24.264  44.659   6.911
 6227POPC   C4A78450  24.297  44.408   7.327
 6227POPC   C1B78451  24.689  44.857   6.155
 6227POPC   C2B78452  24.574  44.989   6.605
 6227POPC   C3B78453  24.628   0.076   7.067
 6227POPC   C4B78454  24.507  44.846   7.449
 6228POPC   NC378455  13.991  41.065   5.491
 6228POPC   PO478456  14.610  40.731   5.450
 6228POPC   GL178457  14.648  40.776   5.910
 6228POPC   GL278458  14.276  40.849   5.892
 6228POPC   C1A78459  14.522  40.842   6.356
 6228POPC   D2A78460  14.249  40.559   6.592
 6228POPC   C3A78461  14.378  40.430   6.981
 6228POPC   C4A78462  14.633  40.657   7.223
 6228POPC   C1B78463  13.975  41.087   6.154
 6228POPC   C2B78464  14.062  41.177   6.554
 6228POPC   C3B78465  14.309  41.018   6.861
 6228POPC   C4B78466  14.146  40.859   7.222
 6229POPC   NC378467  41.385  36.822   5.424
 6229POPC   PO478468  42.032  37.127   5.487
 6229POPC   GL178469  41.758  36.910   5.798
 6229POPC   GL278470  41.721  36.522   5.776
 6229POPC   C1A78471  41.523  37.052   6.172
 6229POPC   D2A78472  41.452  36.906   6.602
 6229POPC   C3A78473  41.813  37.032   6.870
 6229POPC   C4A78474  41.772  37.243   7.242
 6229POPC   C1B78475  41.386  36.563   6.123
 6229POPC   C2B78476  41.217  36.441   6.540
 6229POPC   C3B78477  41.112  36.607   6.939
 6229POPC   C4B78478  41.443  36.805   7.140
 6230POPC   NC378479  35.069  41.005   5.512
 6230POPC   PO478480  35.664  40.599   5.546
 6230POPC   GL178481  35.473  40.883   5.824
 6230POPC   GL278482  35.204  40.713   5.969
 6230POPC   C1A78483  35.481  41.046   6.241
 6230POPC   D2A78484  35.478  40.825   6.618
 6230POPC   C3A78485  35.636  41.020   6.979
 6230POPC   C4A78486  35.573  40.917   7.386
 6230POPC   C1B78487  35.287  40.417   6.323
 6230POPC   C2B78488  35.222  40.399   6.754
 6230POPC   C3B78489  35.236  40.697   7.083
 6230POPC   C4B78490  35.173  40.652   7.535
 6231W        W78491  10.169  36.535   1.721
 6232W        W78492  41.551  19.025  13.899
 6233W        W78493   0.131  10.648  13.324
 6234W        W78494   5.239  27.151   0.713
 6235W        W78495  12.838  32.259  11.271
 6236W        W78496  29.973  13.095  13.507
 6237W        W78497  17.072   4.069  13.855
 6238W        W78498  32.874  30.185  11.332
 6239W        W78499  40.390  32.878  14.451
 6240W        W78500  44.987  22.115  13.616
 6241W        W78501  26.158  23.724   4.395
 6242W        W78502  28.521  42.003  11.967
 6243W        W78503   7.984  15.741  14.943
 6244W        W78504  19.346  22.844   5.009
 6245W        W78505   7.445  43.951  10.984
 6246W        W78506   2.205  20.128   0.783
 6247W        W78507  29.623  15.218  12.947
 6248W        W78508   3.465  13.165  11.879
 6249W        W78509  25.027  32.735  12.826
 6250W        W78510   5.784  21.429  12.057
 6251W        W78511  15.763  44.739   4.361
 6252W        W78512  18.587  33.404  13.076
 6253W        W78513  18.111   7.866   3.046
 6254W        W78514  22.665  36.997   3.637
 6255W        W78515  25.985  41.475  13.229
 6256W        W78516  33.142   6.015   1.411
 6257W        W78517  31.261   1.400   2.207
 6258W        W78518  33.658   7.474   2.334
 6259W        W78519  26.908  15.811   0.912
 6260W        W78520  34.879  17.712   2.238
 6261W        W78521  18.103  31.490  12.592
 6262W        W78522  22.543   3.852  14.419
 6263W        W78523  15.879  31.806  12.918
 6264W        W78524  42.811  26.037  12.479
 6265W        W78525  37.342  12.669  13.447
 6266W        W78526  15.211  35.596   4.388
 6267W        W78527  44.997   9.006  11.889
 6268W        W78528  42.974  16.100  11.875
 6269W        W78529   8.171   3.883   3.343
 6270W        W78530  43.379  37.469  11.056
 6271W        W78531  44.980  43.054  13.484
 6272W        W78532  33.349  17.580   3.318
 6273W        W78533  16.715  41.424  11.271
 6274W        W78534  27.714  14.162  14.369
 6275W        W78535  29.088  22.783   1.027
 6276W        W78536  43.959  20.227  10.788
 6277W        W78537  28.466  23.015   2.678
 6278W        W78538  17.901  38.449  11.235
 6279W        W78539  18.714  37.320   4.525
 6280W        W78540  23.930  29.890   4.282
 6281W        W78541  27.682  39.831  12.469
 6282W        W78542   7.180  44.507   3.823
 6283W        W78543  22.221  17.512  13.040
 6284W        W78544  28.388  44.315   0.809
 6285W        W78545  38.927   8.852  11.345
 6286W        W78546  38.537  37.991  12.906
 6287W        W78547  31.818  23.036   4.195
 6288W        W78548  35.031  44.315  12.436
 6289W        W78549  23.781  24.523   4.060
 6290W        W78550  32.356  31.601  13.273
 6291W        W78551  16.485  40.979  12.609
 6292W        W78552  10.667   6.161  14.456
 6293W        W78553  37.222   9.147  11.111
 6294W        W78554  22.650  16.321  11.829
 6295W        W78555  23.972  16.567   3.220
 6296W        W78556  25.601  20.721  10.685
 6297W        W78557  10.393  42.231  11.970
 6298W        W78558  40.060  22.119  13.532
 6299W        W78559  16.991  26.267   2.653
 6300W        W78560  26.216  39.434  10.472
 6301W        W78561  19.019   1.362   0.470
 6302W        W78562  32.718  38.730   2.144
 6303W        W78563  29.002  35.218  13.821
 6304W        W78564  11.338  19.930   2.278
 6305W        W78565  25.648   6.372   1.705
 6306W        W78566  26.464   5.877  13.978
 6307W        W78567  44.862  19.113   0.130
 6308W        W78568   4.733  14.861   3.815
 6309W        W78569  42.211  41.740   4.614
 6310W        W78570  28.535  43.915   2.862
 6311W        W78571  20.723  17.761  10.737
 6312W        W78572   7.999  15.753   0.905
 6313W        W78573  28.098  34.201   0.426
 6314W        W78574   7.332  30.940   3.236
 6315W        W78575  27.131  12.767  11.164
 6316W        W78576  38.974  19.850   1.769
 6317W        W78577  40.456  44.330  10.725
 6318W        W78578  26.720  31.880  12.080
 6319W        W78579  30.110  27.701  10.519
 6320W        W78580  23.211   8.229   2.582
 6321W        W78581   3.989  43.849   3.699
 6322W        W78582  33.759  29.690  12.431
 6323W        W78583   4.257  11.896  14.509
 6324W        W78584  20.145  18.528   2.210
 6325W        W78585  41.220  12.112  11.001
 6326W        W78586   1.887  40.850  14.403
 6327W        W78587  41.734  11.723   4.728
 6328W        W78588  31.919  33.553   3.626
 6329W        W78589   3.488  34.526   3.670
 6330W        W78590  26.106  24.944   1.842
 6331W        W78591  13.305  17.561  11.933
 6332W        W78592   9.435  25.620  11.180
 6333W        W78593  27.660  22.013  11.306
 6334W        W78594  17.256   9.696  13.058
 6335W        W78595  42.434  39.899  10.979
 6336W        W78596  32.934  24.554  13.444
 6337W        W78597  27.628  43.346   4.594
 6338W        W78598  23.714  15.324   0.743
 6339W        W78599  30.132  19.464   3.270
 6340W        W78600  21.255  25.430  12.396
 6341W        W78601  40.941   8.129  10.724
 6342W        W78602  20.489  26.071   1.930
 6343W        W78603   8.474  28.678  10.659
 6344W        W78604   0.246  22.610  10.196
 6345W        W78605   0.948  21.054  13.464
 6346W        W78606  42.523  29.568  11.386
 6347W        W78607  24.572   4.811   1.803
 6348W        W78608  25.241  14.799   3.609
 6349W        W78609  26.553  31.062  13.789
 6350W        W78610  41.835   3.849   4.780
 6351W        W78611  21.229  41.289   3.611
 6352W        W78612  35.549   8.919   5.030
 6353W        W78613  21.201  42.580  13.107
 6354W        W78614  29.749  31.716  14.060
 6355W        W78615  19.821  35.022   1.327
 6356W        W78616  23.087  13.029   4.915
 6357W        W78617   1.219  44.365   4.608
 6358W        W78618  33.063  35.402   0.634
 6359W        W78619  37.782  35.365   0.608
 6360W        W78620  24.714  15.779  11.224
 6361W        W78621  26.457  39.521   4.991
 6362W        W78622   3.672  30.457  14.468
 6363W        W78623  16.847  10.761  13.166
 6364W        W78624  22.276  35.438  13.072
 6365W        W78625  27.357   7.785   3.733
 6366W        W78626   3.723  18.591  11.263
 6367W        W78627  21.279  42.002   2.322
 6368W        W78628  14.893  30.222  13.808
 6369W        W78629   3.309  12.236   3.286
 6370W        W78630  35.104  23.038   1.796
 6371W        W78631  22.678   8.595   9.910
 6372W        W78632  41.295   4.857   4.851
 6373W        W78633  13.266   7.291   2.146
 6374W        W78634  38.958  20.127   2.225
 6375W        W78635   5.687  15.333  14.065
 6376W        W78636  25.102   4.304   2.230
 6377W        W78637   9.210  36.987  11.104
 6378W        W78638  31.942   4.665   5.001
 6379W        W78639  15.732  31.838  14.972
 6380W        W78640   0.101  23.478  13.951
 6381W        W78641  39.603  35.118   0.959
 6382W        W78642  37.467  28.541  13.225
 6383W        W78643  28.388  42.515  12.904
 6384W        W78644  11.446   6.972  13.411
 6385W        W78645  35.916  29.927  11.396
 6386W        W78646  26.001  33.633   4.051
 6387W        W78647  13.126  11.562   0.810
 6388W        W78648  26.193  41.369  10.136
 6389W        W78649  14.286  31.074   3.513
 6390W        W78650  44.361  11.239   4.741
 6391W        W78651  26.383  25.123  11.203
 6392W        W78652  17.431  14.392   2.332
 6393W        W78653  17.769  20.036   0.787
 6394W        W78654  25.413  30.906  14.477
 6395W        W78655   6.791  44.316  14.428
 6396W        W78656  13.892  18.172  11.954
 6397W        W78657  25.041  25.045  13.014
 6398W        W78658  14.705  42.895  14.333
 6399W        W78659  29.072  19.559   0.871
 6400W        W78660  13.592  10.641   3.929
 6401W        W78661  14.867  20.832  11.684
 6402W        W78662  36.069  11.697  12.035
 6403W        W78663  33.191  26.441  12.479
 6404W        W78664  10.730  22.203  11.028
 6405W        W78665  15.121  20.507  11.346
 6406W        W78666  31.888  37.472  13.067
 6407W        W78667   0.488  12.902  14.957
 6408W        W78668  28.594  28.403   2.205
 6409W        W78669   3.259  11.874  13.176
 6410W        W78670  24.949  28.616   3.949
 6411W        W78671  10.338  27.034   4.613
 6412W        W78672  14.599  37.404  10.370
 6413W        W78673   9.573  20.208  12.108
 6414W        W78674  37.106  39.363   0.387
 6415W        W78675  23.489  21.593  14.545
 6416W        W78676  43.428  29.914   0.453
 6417W        W78677  15.373  16.287   1.947
 6418W        W78678  43.673  42.978   2.767
 6419W        W78679   8.544  43.885   1.928
 6420W        W78680  25.893  38.983  10.486
 6421W        W78681   4.211   1.639  13.905
 6422W        W78682  21.599  35.839  12.415
 6423W        W78683   4.502  33.401  11.513
 6424W        W78684  34.610   8.823   2.189
 6425W        W78685  23.220  14.906   0.039
 6426W        W78686  39.556  44.282   2.845
 6427W        W78687  13.546  17.590   5.146
 6428W        W78688  20.685   7.771  10.918
 6429W        W78689  20.240  28.341   4.530
 6430W        W78690  30.842  14.616   4.052
 6431W        W78691  28.211   4.394   2.669
 6432W        W78692  40.397  27.556   0.722
 6433W        W78693   9.654  30.555  10.533
 6434W        W78694  39.415  14.785  14.535
 6435W        W78695  12.030  12.848   5.039
 6436W        W78696  22.079  15.573  14.929
 6437W        W78697  27.245   1.321  11.756
 6438W        W78698  27.945  37.443   4.609
 6439W        W78699  13.675  18.549   2.378
 6440W        W78700  12.730   4.808   4.171
 6441W        W78701  20.131  30.105   4.902
 6442W        W78702  24.668  13.005   0.234
 6443W        W78703  16.244  30.973   3.620
 6444W        W78704  29.581  13.201   3.007
 6445W        W78705  23.476  41.051   4.129
 6446W        W78706  15.285  34.502  14.132
 6447W        W78707  42.768  33.936   1.707
 6448W        W78708  19.300   2.295   1.889
 6449W        W78709  39.646  20.629   2.383
 6450W        W78710  10.815   7.381   2.204
 6451W        W78711  17.159  43.910  12.186
 6452W        W78712  16.439  27.967   3.314
 6453W        W78713  34.067   4.661  11.948
 6454W        W78714   2.822  29.355   1.979
 6455W        W78715   7.769  20.564  10.581
 6456W        W78716   0.655  25.228   1.733
 6457W        W78717  12.614  18.638  13.375
 6458W        W78718  44.321   6.246   4.561
 6459W        W78719  14.889  12.957   5.059
 6460W        W78720  23.212   2.439   1.055
 6461W        W78721   5.702  11.665   4.409
 6462W        W78722  15.190  27.592   0.918
 6463W        W78723  44.685  40.717  11.258
 6464W        W78724  38.046  33.959   0.368
 6465W        W78725  31.575  31.537  14.010
 6466W        W78726   3.836   0.767   1.982
 6467W        W78727  28.467  25.733   3.699
 6468W        W78728  33.291  25.987  12.746
 6469W        W78729   1.513  44.941   0.904
 6470W        W78730  42.770  41.326   4.178
 6471W        W78731  43.763  14.182  12.145
 6472W        W78732   3.339   4.902  10.891
 6473W        W78733  41.026  33.918   2.401
 6474W        W78734   2.007   2.730  12.163
 6475W        W78735  30.382  22.208   1.301
 6476W        W78736  41.364  42.867  10.448
 6477W        W78737   8.303  18.157  10.510
 6478W        W78738  12.200  14.176  10.601
 6479W        W78739  14.880  38.856   2.375
 6480W        W78740  23.153  28.554   4.702
 6481W        W78741  27.629  39.070   9.876
 6482W        W78742  15.114  43.470   0.522
 6483W        W78743  20.998   8.773   4.209
 6484W        W78744  19.832   4.905   3.408
 6485W        W78745   5.400  22.216  11.626
 6486W        W78746  30.462  28.416   4.552
 6487W        W78747  38.501  38.938  12.626
 6488W        W78748   3.000  10.377  12.855
 6489W        W78749  32.428  15.623   1.778
 6490W        W78750   0.353  33.711   4.808
 6491W        W78751  15.353  15.139  13.500
 6492W        W78752  34.671  35.187  14.853
 6493W        W78753  20.252  13.139  11.130
 6494W        W78754   8.224  26.124  11.742
 6495W        W78755  38.126  27.213   3.750
 6496W        W78756   5.794  38.550   4.158
 6497W        W78757  14.555  13.330  12.483
 6498W        W78758  21.165  43.322   4.584
 6499W        W78759   2.366  34.585   4.715
 6500W        W78760  31.434  41.638  10.502
 6501W        W78761  28.910  28.129  12.508
 6502W        W78762  19.955   5.844   2.644
 6503W        W78763  32.670  41.741  12.452
 6504W        W78764  18.714  26.905   0.693
 6505W        W78765  35.623  22.918  10.722
 6506W        W78766   1.229  34.442   4.621
 6507W        W78767   9.805  14.080  12.370
 6508W        W78768  25.289  42.769  10.976
 6509W        W78769  33.714   5.901  14.875
 6510W        W78770  15.267   1.784  14.317
 6511W        W78771  22.035   0.663   3.689
 6512W        W78772  13.435  11.619  12.141
 6513W        W78773  32.565   3.086  12.995
 6514W        W78774  10.165  38.583  12.312
 6515W        W78775  21.569   5.226   1.750
 6516W        W78776  35.154   1.732  11.378
 6517W        W78777  12.598  19.702  14.447
 6518W        W78778   2.172  13.240   2.007
 6519W        W78779  40.553   1.779  14.498
 6520W        W78780  35.871  40.487   4.105
 6521W        W78781  35.025  38.424  13.338
 6522W        W78782  32.943  14.577   2.598
 6523W        W78783   2.284   1.042   4.483
 6524W        W78784  42.036  44.787  12.193
 6525W        W78785  12.286  26.139   0.956
 6526W        W78786   9.736  41.957   3.507
 6527W        W78787  21.535  41.577  10.597
 6528W        W78788  16.205   2.475  10.791
 6529W        W78789  17.783   1.014   1.378
 6530W        W78790  42.525  34.784   1.657
 6531W        W78791   1.124  14.114   1.412
 6532W        W78792  36.059  44.220  12.275
 6533W        W78793  25.946  41.560   0.237
 6534W        W78794  36.144  29.946   4.559
 6535W        W78795  40.898  33.167  13.325
 6536W        W78796   0.560  26.648  10.952
 6537W        W78797   1.215  15.313  10.662
 6538W        W78798   3.024  21.094   4.870
 6539W        W78799  16.985  16.326   3.766
 6540W        W78800  12.215   0.678  12.349
 6541W        W78801  41.756  15.719   1.259
 6542W        W78802  33.903  36.485  10.591
 6543W        W78803  23.223  29.172  14.858
 6544W        W78804  30.977  35.828  11.402
 6545W        W78805  21.506  26.636  12.038
 6546W        W78806  18.147  19.456   4.847
 6547W        W78807   3.694  20.712   2.241
 6548W        W78808   8.845  40.143   2.806
 6549W        W78809  30.921  39.601   2.356
 6550W        W78810   6.200  19.555  13.450
 6551W        W78811  33.325  31.653  10.500
 6552W        W78812   5.839  25.140  13.825
 6553W        W78813  29.164  32.569   0.338
 6554W        W78814  19.062  42.590   1.215
 6555W        W78815  25.570  38.906   2.389
 6556W        W78816   7.525   2.719   5.012
 6557W        W78817  21.497  12.035   0.257
 6558W        W78818  12.342  38.110   4.188
 6559W        W78819   6.680  39.295   1.869
 6560W        W78820   9.413  20.726  12.191
 6561W        W78821  24.925  32.676  11.492
 6562W        W78822  15.579   4.261   1.846
 6563W        W78823  21.617   7.121   0.160
 6564W        W78824  14.022   4.245   0.629
 6565W        W78825  12.273  24.429  11.037
 6566W        W78826  19.944   4.035  11.435
 6567W        W78827  41.986  14.032  14.825
 6568W        W78828  24.884  37.394  14.903
 6569W        W78829  21.401  30.064   4.855
 6570W        W78830  23.056  19.209   4.848
 6571W        W78831   5.022  24.079  12.575
 6572W        W78832  29.393  23.025  10.970
 6573W        W78833  28.753  16.019   0.379
 6574W        W78834  17.596  29.349   1.891
 6575W        W78835  29.424  40.831   1.243
 6576W        W78836   1.339  41.725  14.477
 6577W        W78837  21.487   9.784   3.634
 6578W        W78838  27.269   7.527  13.898
 6579W        W78839  18.165  12.278   2.877
 6580W        W78840  13.707  27.512   4.270
 6581W        W78841  37.900  18.189   3.726
 6582W        W78842  41.930  26.675   0.540
 6583W        W78843  40.504  39.375   3.328
 6584W        W78844  31.372   2.463   4.182
 6585W        W78845  17.690  25.564  14.204
 6586W        W78846   2.222  23.634   1.951
 6587W        W78847  33.157  11.314  13.406
 6588W        W78848  27.218  35.073  10.851
 6589W        W78849  18.575  30.934  11.919
 6590W        W78850   5.752   8.638  10.695
 6591W        W78851  42.210  39.485  11.171
 6592W        W78852  32.689  23.078   2.885
 6593W        W78853  33.118  37.044   3.127
 6594W        W78854   3.024  42.350  13.703
 6595W        W78855  17.563  44.150  11.026
 6596W        W78856  39.297  44.377   3.767
 6597W        W78857  33.602  29.429   3.649
 6598W        W78858  28.905  39.511  13.609
 6599W        W78859  30.650   2.886  10.262
 6600W        W78860   3.274  11.735  11.269
 6601W        W78861   6.460   8.359  12.127
 6602W        W78862  15.047  33.478   3.098
 6603W        W78863  24.391  36.876  13.326
 6604W        W78864  19.033  12.401  10.704
 6605W        W78865   0.257  38.146  11.779
 6606W        W78866   0.804  30.594   3.645
 6607W        W78867  35.935  16.197  14.344
 6608W        W78868   4.768   8.229   2.955
 6609W        W78869  27.010  39.655  10.307
 6610W        W78870   7.421  22.299   4.294
 6611W        W78871   8.248  34.980  14.231
 6612W        W78872   4.742  36.611   0.393
 6613W        W78873  37.388   7.404  11.544
 6614W        W78874  22.283  17.755   0.272
 6615W        W78875  36.434  10.727  13.925
 6616W        W78876   8.197  30.810  11.570
 6617W        W78877   7.818  13.242   2.798
 6618W        W78878  22.649   7.910  13.538
 6619W        W78879  43.917  43.068   1.791
 6620W        W78880  39.351   0.089  14.127
 6621W        W78881  27.550  29.695  10.660
 6622W        W78882  16.742  12.886   3.274
 6623W        W78883  26.847  42.565  10.408
 6624W        W78884  41.004  20.505   4.604
 6625W        W78885  37.428   8.673  10.456
 6626W        W78886  28.724  29.992  14.966
 6627W        W78887   7.967  20.108   0.357
 6628W        W78888  30.518  17.587   2.926
 6629W        W78889   5.926  10.836  13.329
 6630W        W78890  33.829  11.883  13.831
 6631W        W78891   1.058  28.180   0.359
 6632W        W78892  18.953  14.894   4.692
 6633W        W78893   1.394  36.536   3.142
 6634W        W78894  24.939   1.477   0.467
 6635W        W78895   8.442  23.776   4.533
 6636W        W78896  42.729  42.411  13.030
 6637W        W78897  38.688  29.371   4.568
 6638W        W78898  30.756  42.840   4.123
 6639W        W78899  21.525  41.708   0.942
 6640W        W78900  30.468  27.585  11.200
 6641W        W78901  21.060   3.033   2.371
 6642W        W78902  12.694  15.867   0.317
 6643W        W78903  44.711  36.986   2.174
 6644W        W78904  38.980  23.691   3.685
 6645W        W78905  10.200  31.433  12.995
 6646W        W78906  36.399  18.347   5.452
 6647W        W78907  29.445  16.206  12.799
 6648W        W78908  11.164  37.852  12.416
 6649W        W78909  41.764  35.341   2.369
 6650W        W78910  26.239  21.017  14.643
 6651W        W78911   9.823   3.536  13.519
 6652W        W78912  23.944  40.446   2.271
 6653W        W78913  27.543  17.862  13.764
 6654W        W78914  29.523  33.462  14.104
 6655W        W78915  30.503  19.754  12.897
 6656W        W78916   6.431   0.421   4.216
 6657W        W78917   7.597  29.429   1.999
 6658W        W78918  23.112  40.112   2.361
 6659W        W78919  13.243  10.675   3.165
 6660W        W78920  21.801  40.922  13.864
 6661W        W78921   2.495   3.452   3.619
 6662W        W78922  34.004  30.031  14.850
 6663W        W78923  37.283   2.939   1.153
 6664W        W78924  42.408  28.974   3.847
 6665W        W78925  24.220   3.937   0.411
 6666W        W78926  15.152  24.655   4.015
 6667W        W78927   6.711  22.930   2.828
 6668W        W78928  36.903  16.633   1.286
 6669W        W78929  39.279   0.719  11.474
 6670W        W78930   1.847  18.504  11.623
 6671W        W78931   7.386  44.002   0.110
 6672W        W78932   7.332  33.769  11.605
 6673W        W78933   9.237  10.176  13.495
 6674W        W78934  20.573  35.292   0.092
 6675W        W78935  31.199  14.290   2.469
 6676W        W78936  14.013  26.409  12.064
 6677W        W78937   4.893  27.815   9.868
 6678W        W78938  26.233  22.167   4.284
 6679W        W78939   9.704  24.533  13.517
 6680W        W78940  30.189  35.815   0.246
 6681W        W78941   1.765  32.563  12.090
 6682W        W78942   0.793  31.960  10.950
 6683W        W78943   2.198  26.686   0.336
 6684W        W78944  23.660   5.590  12.585
 6685W        W78945  10.697   2.917   1.235
 6686W        W78946  22.593  18.813   2.297
 6687W        W78947  38.792   2.894  13.653
 6688W        W78948   8.065   0.329  14.860
 6689W        W78949   3.741  19.487   2.743
 6690W        W78950  14.598  38.263   3.274
 6691W        W78951   0.696  31.103  10.914
 6692W        W78952  13.443  16.391  12.546
 6693W        W78953  27.154  36.340  10.736
 6694W        W78954   3.299  26.727  13.941
 6695W        W78955  27.290  18.932  10.820
 6696W        W78956  32.494   1.922   0.236
 6697W        W78957  37.191  35.825  12.364
 6698W        W78958  14.284  14.538   2.878
 6699W        W78959  19.069  38.831   5.078
 6700W        W78960  43.715  13.006  12.046
 6701W        W78961  16.894   6.376   2.262
 6702W        W78962  39.600  38.487  12.369
 6703W        W78963  27.116  42.986  12.550
 6704W        W78964  10.840  20.699  13.831
 6705W        W78965  23.580  39.536  10.643
 6706W        W78966  41.791   1.254  12.994
 6707W        W78967   7.000  14.544   3.752
 6708W        W78968   0.448  10.420   2.335
 6709W        W78969  43.365  42.022  14.106
 6710W        W78970  16.351  39.827  10.703
 6711W        W78971   0.252  34.106  13.312
 6712W        W78972   2.035  40.627   1.151
 6713W        W78973  27.553  41.395  11.603
 6714W        W78974   9.597  30.371   1.716
 6715W        W78975  25.446  18.998  11.885
 6716W        W78976  40.066   5.890   4.572
 6717W        W78977  17.710  19.970   3.266
 6718W        W78978  10.724  41.893   3.264
 6719W        W78979  20.087   6.668   2.271
 6720W        W78980  40.483  27.007  14.801
 6721W        W78981  44.298  38.299  14.783
 6722W        W78982  41.133  26.662   1.134
 6723W        W78983   8.373  26.000  13.668
 6724W        W78984  26.006  29.616  10.750
 6725W        W78985   2.078  21.624   0.788
 6726W        W78986  24.984   4.521   3.605
 6727W        W78987  13.741  37.525   4.073
 6728W        W78988  36.504  21.062   1.706
 6729W        W78989  20.877  25.245   4.980
 6730W        W78990  12.375  41.049   2.650
 6731W        W78991   0.683  26.197  14.944
 6732W        W78992   8.520  27.169  13.031
 6733W        W78993  24.581  28.914  13.169
 6734W        W78994   2.365   3.712  11.484
 6735W        W78995  28.639   2.849   3.401
 6736W        W78996   0.400  23.549   1.874
 6737W        W78997  34.455  31.644   1.382
 6738W        W78998  43.979  24.663   1.964
 6739W        W78999  30.531  30.154   1.711
 6740W        W79000  12.836   3.375   4.335
 6741W        W79001  43.823  42.108  11.970
 6742W        W79002  33.389  27.551  12.071
 6743W        W79003  30.660  28.718  14.556
 6744W        W79004  22.524  32.365   2.822
 6745W        W79005  22.171  28.978   1.412
 6746W        W79006  12.644  20.955   0.565
 6747W        W79007  41.171  32.437   1.391
 6748W        W79008  43.394  21.343  14.768
 6749W        W79009  38.410   9.661   0.170
 6750W        W79010   9.275  39.339   4.989
 6751W        W79011  40.554  24.558   0.425
 6752W        W79012  14.551  39.361   0.769
 6753W        W79013  32.577  34.676   0.795
 6754W        W79014  10.825   2.910   3.769
 6755W        W79015  21.216  15.573  13.043
 6756W        W79016   2.191  15.113  10.817
 6757W        W79017   7.537  32.864   2.755
 6758W        W79018  24.483   6.260   2.670
 6759W        W79019  34.784  13.224   4.176
 6760W        W79020  16.258  20.189  13.421
 6761W        W79021  27.953  11.775  11.901
 6762W        W79022   8.832  41.425  10.636
 6763W        W79023  34.258   6.919   2.789
 6764W        W79024  20.006   9.069  13.899
 6765W        W79025  21.767  44.511  11.091
 6766W        W79026   1.841   0.009  11.643
 6767W        W79027  21.866  24.125  11.947
 6768W        W79028  16.516  10.718   4.068
 6769W        W79029  44.985  11.176   4.074
 6770W        W79030  29.579   2.804  11.164
 6771W        W79031  24.594   6.793   0.821
 6772W        W79032  29.528  11.338  12.095
 6773W        W79033   9.701  40.499  11.150
 6774W        W79034  25.878  38.530  12.675
 6775W        W79035  22.085   7.015  11.613
 6776W        W79036  26.218  42.995  13.064
 6777W        W79037  33.136  43.002   2.326
 6778W        W79038   3.861  20.840   4.045
 6779W        W79039  43.275  24.091   2.296
 6780W        W79040   1.826  18.254  14.362
 6781W        W79041   6.355  38.415  14.846
 6782W        W79042  37.009  39.628   0.861
 6783W        W79043  28.661  12.498   2.410
 6784W        W79044   5.000  35.816   4.476
 6785W        W79045  19.806   2.732  12.786
 6786W        W79046   6.462  32.960  13.539
 6787W        W79047  40.296  18.043  14.291
 6788W        W79048  10.283  17.376   1.644
 6789W        W79049  30.906  31.693   9.660
 6790W        W79050  37.111  15.177  14.069
 6791W        W79051  35.962  30.453  14.478
 6792W        W79052  24.657  40.940  10.200
 6793W        W79053   1.251  41.045   3.531
 6794W        W79054   6.329  29.390   2.268
 6795W        W79055  15.060  30.943   4.371
 6796W        W79056  12.639  43.519   0.846
 6797W        W79057  40.287  34.101  10.720
 6798W        W79058  41.930  26.202  14.992
 6799W        W79059  24.100  29.928   3.006
 6800W        W79060  42.261  20.648   0.603
 6801W        W79061  15.930  22.128  12.368
 6802W        W79062  40.784  27.131  10.707
 6803W        W79063  14.136  10.913   3.259
 6804W        W79064  19.486  40.743  13.462
 6805W        W79065  36.343   7.372  14.399
 6806W        W79066   1.766  16.499   1.398
 6807W        W79067  35.151  36.971   4.267
 6808W        W79068   2.947  41.536   1.823
 6809W        W79069   3.414  32.011  13.898
 6810W        W79070  32.107   2.458   5.199
 6811W        W79071   5.712  10.103   1.472
 6812W        W79072  42.043   0.384  11.710
 6813W        W79073   5.228  27.990  11.522
 6814W        W79074   8.597  37.794  11.985
 6815W        W79075  20.190  23.052   2.431
 6816W        W79076  14.180  22.308   2.996
 6817W        W79077   7.679  28.508   1.123
 6818W        W79078   9.553  17.684   1.498
 6819W        W79079   9.488  24.937  13.827
 6820W        W79080   9.847  44.739  12.957
 6821W        W79081  34.313  12.805   2.329
 6822W        W79082  28.784  15.700   3.320
 6823W        W79083  30.980  13.820  12.107
 6824W        W79084  12.707  27.875   3.442
 6825W        W79085   7.807   4.505  11.502
 6826W        W79086  26.133  34.312   1.325
 6827W        W79087  26.947  31.427   4.452
 6828W        W79088   8.587  31.048   0.427
 6829W        W79089  37.747   9.211  13.505
 6830W        W79090  10.457  27.706  10.197
 6831W        W79091  33.892  23.847   3.226
 6832W        W79092   4.063  17.273   1.249
 6833W        W79093  36.071  33.362   2.411
 6834W        W79094   4.801   9.646  13.297
 6835W        W79095   7.393  29.465   1.232
 6836W        W79096  13.098  24.512   3.335
 6837W        W79097  29.950  38.532   2.834
 6838W        W79098  43.564  36.662  13.961
 6839W        W79099  22.434  12.599   3.210
 6840W        W79100   0.816   8.028   4.574
 6841W        W79101  15.638  37.894  13.146
 6842W        W79102  36.258  43.540  12.181
 6843W        W79103  14.211  39.407  13.027
 6844W        W79104  42.764  28.656  11.003
 6845W        W79105  21.659  10.432  14.254
 6846W        W79106  16.794  36.234  13.523
 6847W        W79107  16.195  35.515  11.593
 6848W        W79108  19.762  36.868  14.819
 6849W        W79109   6.485  29.741   0.276
 6850W        W79110   2.209  22.957  10.638
 6851W        W79111  31.542   7.712   4.563
 6852W        W79112  44.035  44.528   2.726
 6853W        W79113  29.066   5.799  14.603
 6854W        W79114  10.735  12.850   3.278
 6855W        W79115  44.376  38.019  10.645
 6856W        W79116  10.582  24.322   2.327
 6857W        W79117  38.369  34.938   2.833
 6858W        W79118  39.947  38.319   0.965
 6859W        W79119   5.893  32.623  14.410
 6860W        W79120  39.446  16.929   0.327
 6861W        W79121   0.001  18.140   4.599
 6862W        W79122   2.752  20.946  14.407
 6863W        W79123  33.972  41.362   2.980
 6864W        W79124  20.844  16.046  11.653
 6865W        W79125  23.223  16.100   0.253
 6866W        W79126  40.956  16.631   4.713
 6867W        W79127  36.932  33.856  11.683
 6868W        W79128  17.835   9.419  13.949
 6869W        W79129  13.346  27.490  12.628
 6870W        W79130  34.533   1.908  13.113
 6871W        W79131  26.066  34.293   3.763
 6872W        W79132  18.779  14.205   1.389
 6873W        W79133   4.248  12.257  14.129
 6874W        W79134  26.743  17.732   0.303
 6875W        W79135   8.970  40.375   0.425
 6876W        W79136  26.127  16.556  11.395
 6877W        W79137  43.364  27.118   1.324
 6878W        W79138  13.105  39.425  12.817
 6879W        W79139  27.581  32.430  13.301
 6880W        W79140  25.627  18.477   0.290
 6881W        W79141  15.123  21.811  12.390
 6882W        W79142  41.849  38.912   4.253
 6883W        W79143  29.877  40.610   1.307
 6884W        W79144  34.002  38.566  13.640
 6885W        W79145  33.554  26.601   1.752
 6886W        W79146  30.411  12.158   0.975
 6887W        W79147  35.863   0.692  14.081
 6888W        W79148   7.968  38.094   2.718
 6889W        W79149   4.552  10.413  10.938
 6890W        W79150  28.454  10.108   2.456
 6891W        W79151   5.325  10.419  14.732
 6892W        W79152  11.288   8.206  10.710
 6893W        W79153  37.852  18.483   1.823
 6894W        W79154  20.785  17.112   2.992
 6895W        W79155  14.657  33.401  14.452
 6896W        W79156  10.468   5.259  11.108
 6897W        W79157  13.612  11.671   3.748
 6898W        W79158  23.751  14.308   1.712
 6899W        W79159  18.098  22.715   0.530
 6900W        W79160  16.096  13.608   2.255
 6901W        W79161   2.081  23.832  13.329
 6902W        W79162  13.820  34.496   4.630
 6903W        W79163  38.073   5.340   0.714
 6904W        W79164   1.891  36.516   3.317
 6905W        W79165  10.317  35.833   3.267
 6906W        W79166   8.583  13.033  11.119
 6907W        W79167  22.794  20.468   0.288
 6908W        W79168  26.848  43.843  11.465
 6909W        W79169  14.244  24.150   4.089
 6910W        W79170   0.798   9.343   2.843
 6911W        W79171  17.494  28.943  13.784
 6912W        W79172  16.704  13.109   3.771
 6913W        W79173  27.004  27.513  11.990
 6914W        W79174  36.075  31.304   4.353
 6915W        W79175  32.847  10.181  11.486
 6916W        W79176  27.025  20.222   4.539
 6917W        W79177  27.919  19.364   2.344
 6918W        W79178  29.915   6.703   0.890
 6919W        W79179  13.183  21.507   1.291
 6920W        W79180  28.045  19.048  10.068
 6921W        W79181  39.655   9.630   4.134
 6922W        W79182   6.644  41.966   3.954
 6923W        W79183  37.069   9.288  14.659
 6924W        W79184   8.589   3.762   3.064
 6925W        W79185  29.188  30.155  14.798
 6926W        W79186   6.662   0.499  11.448
 6927W        W79187  24.736   9.244  13.465
 6928W        W79188   3.336  35.128   1.392
 6929W        W79189   9.773  35.459   4.779
 6930W        W79190   7.691  31.927  10.324
 6931W        W79191  10.948  27.036   3.766
 6932W        W79192   4.976  19.455   5.124
 6933W        W79193  39.187  36.901  13.822
 6934W        W79194  29.122  15.607  13.959
 6935W        W79195  32.884  32.958   1.427
 6936W        W79196  19.511  12.252   3.215
 6937W        W79197  38.063  15.267  10.760
 6938W        W79198  30.169  33.825  14.595
 6939W        W79199  25.772  20.500  11.131
 6940W        W79200   4.557  20.329  11.513
 6941W        W79201  26.170  43.833  12.645
 6942W        W79202  42.281  13.100   1.293
 6943W        W79203  23.533  40.809   3.239
 6944W        W79204   1.891  10.915   2.226
 6945W        W79205  15.762  18.283  12.566
 6946W        W79206  24.130  27.943   9.909
 6947W        W79207  24.152   9.865  13.826
 6948W        W79208   5.675   8.088   4.367
 6949W        W79209  24.177   9.864  14.342
 6950W        W79210  37.132  17.180  14.550
 6951W        W79211  20.186  15.557   3.838
 6952W        W79212  42.984  13.342  10.671
 6953W        W79213  12.746  15.120   4.597
 6954W        W79214  42.486  44.232   0.313
 6955W        W79215  20.738  37.018   4.654
 6956W        W79216  41.567  29.641  11.597
 6957W        W79217  28.880   5.832  12.907
 6958W        W79218  21.672  28.676   5.623
 6959W        W79219  29.451  28.105   1.814
 6960W        W79220  26.475  14.314   2.706
 6961W        W79221  30.487  38.885   4.652
 6962W        W79222  14.312   5.259  11.909
 6963W        W79223  24.105  30.548   0.722
 6964W        W79224   2.520   9.115  13.450
 6965W        W79225   3.316  19.199   4.511
 6966W        W79226  33.528  15.952   1.417
 6967W        W79227  22.615  41.037   4.100
 6968W        W79228   1.277   4.541  10.854
 6969W        W79229  22.118  11.630  11.034
 6970W        W79230   4.201  21.191   4.954
 6971W        W79231  28.643  31.461   3.603
 6972W        W79232  29.927  34.559  14.328
 6973W        W79233  33.048  20.964  12.387
 6974W        W79234   4.240  41.825   2.464
 6975W        W79235  39.749   5.929  14.941
 6976W        W79236   9.129  26.078  10.586
 6977W        W79237  30.038  34.647   1.705
 6978W        W79238  20.649   6.170  14.800
 6979W        W79239   2.415  15.515  11.558
 6980W        W79240  17.557  36.000  11.119
 6981W        W79241  26.748  33.579   2.675
 6982W        W79242   0.862   1.253   0.405
 6983W        W79243  13.941  25.815   0.771
 6984W        W79244  28.729  28.576   2.700
 6985W        W79245  29.473  15.256   1.517
 6986W        W79246  25.652  22.346  10.718
 6987W        W79247   3.386   5.801  11.579
 6988W        W79248  39.028  24.947  12.965
 6989W        W79249  39.720   1.867  13.086
 6990W        W79250  33.510  11.693  11.308
 6991W        W79251  22.579  36.542  13.283
 6992W        W79252  12.307  41.836  10.682
 6993W        W79253  16.722   1.766  10.395
 6994W        W79254  18.586  34.688   3.297
 6995W        W79255  14.550  43.742   3.166
 6996W        W79256   7.023  44.799   2.254
 6997W        W79257  39.086  21.871   0.541
 6998W        W79258  40.431  37.854   5.058
 6999W        W79259  29.511  15.361  14.470
 7000W        W79260  16.912  27.941   3.130
 7001W        W79261  12.096  44.810   3.719
 7002W        W79262  21.697  26.567  14.036
 7003W        W79263  41.887  41.235   5.013
 7004W        W79264  34.645  43.426   0.383
 7005W        W79265   7.409  25.011  11.831
 7006W        W79266  24.830   7.570  12.437
 7007W        W79267  33.470  37.149   4.988
 7008W        W79268  34.061  31.998   1.460
 7009W        W79269  23.047  11.671  14.023
 7010W        W79270   9.594  31.354  13.899
 7011W        W79271  13.058  28.648   3.581
 7012W        W79272  20.505   5.930  10.653
 7013W        W79273   4.900   4.411   1.211
 7014W        W79274  38.469   4.723  10.691
 7015W        W79275  18.391  28.766   1.841
 7016W        W79276  20.697  42.397  10.652
 7017W        W79277  35.622  12.897  12.992
 7018W        W79278  40.436   5.405   0.450
 7019W        W79279   3.710  44.732  10.546
 7020W        W79280   4.807   0.283  10.705
 7021W        W79281  12.864  18.592  13.840
 7022W        W79282  35.536  23.634   1.062
 7023W        W79283  30.007   4.197  12.155
 7024W        W79284  14.219  43.290  12.435
 7025W        W79285  20.278  20.152  12.950
 7026W        W79286  12.902  30.664  11.190
 7027W        W79287  12.751   5.907  11.329
 7028W        W79288  32.692   4.662   3.685
 7029W        W79289   6.693  32.056   4.095
 7030W        W79290  17.036  27.482  14.519
 7031W        W79291   7.420  33.617  10.734
 7032W        W79292  38.359   9.567   3.714
 7033W        W79293   1.318  39.486  12.877
 7034W        W79294  27.014  17.926  14.903
 7035W        W79295  21.891   5.589   4.114
 7036W        W79296  24.874  19.038  14.025
 7037W        W79297   9.867  44.030  10.700
 7038W        W79298   5.408  33.157  13.555
 7039W        W79299  41.720  26.178  13.981
 7040W        W79300  11.396   6.244   4.577
 7041W        W79301  39.384   9.052   0.960
 7042W        W79302  21.022  44.272  10.596
 7043W        W79303  38.833  26.703   4.852
 7044W        W79304  24.624   3.630   0.590
 7045W        W79305   7.880  42.366   4.448
 7046W        W79306  15.335  34.460  12.672
 7047W        W79307  44.779   0.520  11.955
 7048W        W79308  38.476   2.499  14.824
 7049W        W79309  29.490  15.881  10.725
 7050W        W79310  42.738  22.464  13.023
 7051W        W79311  12.764  16.342  11.124
 7052W        W79312  11.831  17.345  12.821
 7053W        W79313   8.679  39.530  14.514
 7054W        W79314  34.207  16.269   4.188
 7055W        W79315   0.817   0.272  12.970
 7056W        W79316  37.841  28.417   4.338
 7057W        W79317  34.253  32.447  12.516
 7058W        W79318  21.087  20.762  13.983
 7059W        W79319  35.997  28.380   1.765
 7060W        W79320  11.293  17.470   0.857
 7061W        W79321  25.060  30.920  13.498
 7062W        W79322  39.376  28.085  11.421
 7063W        W79323   1.320  35.524  11.874
 7064W        W79324  27.522  38.366   3.713
 7065W        W79325  10.421   4.419   1.185
 7066W        W79326  34.486   3.360  12.572
 7067W        W79327   6.896   1.862  14.456
 7068W        W79328  43.841  40.142  13.906
 7069W        W79329   4.872  41.108   0.255
 7070W        W79330  44.951  12.775  12.921
 7071W        W79331  31.486  35.981  11.568
 7072W        W79332  38.363  39.547   4.708
 7073W        W79333  13.608  34.889  13.934
 7074W        W79334  32.121  24.152   0.885
 7075W        W79335  31.486  15.802   0.691
 7076W        W79336  13.145  20.147  10.452
 7077W        W79337   0.252  30.565  12.919
 7078W        W79338  37.600  18.147  12.439
 7079W        W79339  15.478  13.461   0.493
 7080W        W79340  35.463  44.351  14.895
 7081W        W79341  37.314   5.965   0.297
 7082W        W79342  25.453  28.049  14.170
 7083W        W79343  34.726  15.793   4.566
 7084W        W79344  16.036   4.883   4.187
 7085W        W79345  34.305   4.162  12.036
 7086W        W79346  39.835  26.414  14.096
 7087W        W79347  13.886  11.136   4.664
 7088W        W79348  30.633   2.424  14.322
 7089W        W79349  10.507  40.094   5.068
 7090W        W79350  11.114  20.765  13.409
 7091W        W79351   4.339  10.763   4.154
 7092W        W79352   1.942  12.789   1.895
 7093W        W79353  16.024  27.389  14.696
 7094W        W79354  30.988  41.524  12.621
 7095W        W79355  23.770  26.419   4.134
 7096W        W79356  24.177   0.422   3.919
 7097W        W79357  32.003  44.395  13.505
 7098W        W79358  11.220  21.128   4.565
 7099W        W79359   0.019   0.423   3.638
 7100W        W79360  21.041  36.236  13.530
 7101W        W79361  32.478  14.363   5.145
 7102W        W79362  29.043   6.428  13.971
 7103W        W79363   3.582  33.448   0.962
 7104W        W79364  21.118  40.758   4.680
 7105W        W79365   8.838  24.480   2.398
 7106W        W79366  34.005  36.464  11.105
 7107W        W79367  32.011  20.470   3.247
 7108W        W79368  12.772   4.012  11.000
 7109W        W79369  34.665  31.410   4.127
 7110W        W79370  41.933   3.144  12.823
 7111W        W79371  20.940  32.029  12.521
 7112W        W79372  25.717  32.889  10.613
 7113W        W79373  38.088  38.937   0.965
 7114W        W79374  41.510  27.456  14.527
 7115W        W79375   8.028  40.287   0.418
 7116W        W79376   7.006  37.615  13.501
 7117W        W79377  13.170  34.523  14.989
 7118W        W79378  18.927  44.848  14.857
 7119W        W79379  41.446  20.174  12.156
 7120W        W79380  40.617  25.472  14.589
 7121W        W79381  22.074  20.634  12.442
 7122W        W79382  29.574   8.092  12.775
 7123W        W79383  18.496  21.254   4.149
 7124W        W79384  32.153   1.293  12.045
 7125W        W79385  38.774  17.802   2.755
 7126W        W79386  19.127  19.660  14.821
 7127W        W79387  19.505   3.968   0.717
 7128W        W79388  21.515   0.381   1.766
 7129W        W79389   8.944  39.848  13.419
 7130W        W79390  36.730  35.393   1.419
 7131W        W79391   9.115  12.655  11.620
 7132W        W79392  38.401  24.523   2.826
 7133W        W79393   6.627   3.966   1.845
 7134W        W79394  27.455  31.396   4.613
 7135W        W79395  28.228  42.781   5.119
 7136W        W79396  35.857  18.714   2.374
 7137W        W79397  31.342  18.757  12.817
 7138W        W79398  23.732  41.875   2.443
 7139W        W79399  32.529  40.785   3.682
 7140W        W79400  42.915   6.807   4.494
 7141W        W79401  17.022  21.728  11.613
 7142W        W79402  30.107   9.971  14.425
 7143W        W79403   6.112  33.019   4.515
 7144W        W79404  11.230  20.307   1.801
 7145W        W79405  29.527  24.583   0.314
 7146W        W79406  38.637  11.759   4.190
 7147W        W79407  22.313  12.601   4.148
 7148W        W79408  32.920  42.603   4.722
 7149W        W79409  16.091  43.870  13.949
 7150W        W79410   6.716  28.025  11.665
 7151W        W79411  41.006  32.988  13.829
 7152W        W79412  41.335  37.015   0.925
 7153W        W79413  41.555  24.058  14.874
 7154W        W79414  29.329  34.531   0.901
 7155W        W79415  37.505  36.952   4.827
 7156W        W79416  25.945  41.898   4.979
 7157W        W79417  30.052  43.997  13.879
 7158W        W79418  20.238  29.220  11.111
 7159W        W79419  38.757  21.174   1.226
 7160W        W79420  27.013  29.083  13.135
 7161W        W79421   1.414  31.426   2.997
 7162W        W79422  30.340  41.954   1.200
 7163W        W79423   4.781   9.241   3.139
 7164W        W79424  43.472  28.141  12.359
 7165W        W79425  36.054  11.635  10.667
 7166W        W79426  12.084  21.340   2.723
 7167W        W79427  37.982  35.591   4.733
 7168W        W79428  16.094  31.169   4.098
 7169W        W79429  28.934  32.675  14.868
 7170W        W79430  29.913  12.071  12.061
 7171W        W79431  18.058   1.412  12.863
 7172W        W79432  26.873  24.005   1.302
 7173W        W79433  23.607  19.210   3.515
 7174W        W79434  20.492  34.108  11.166
 7175W        W79435  40.817  16.275   3.482
 7176W        W79436   6.901  33.044   1.272
 7177W        W79437  34.003   8.031   1.482
 7178W        W79438  23.114  14.173   4.112
 7179W        W79439   4.700  31.380  11.784
 7180W        W79440   3.450  40.755   1.130
 7181W        W79441  14.959  36.210   2.907
 7182W        W79442  22.439  39.961  12.396
 7183W        W79443   7.229   3.791  12.887
 7184W        W79444  25.680  37.793   0.997
 7185W        W79445  43.938  43.905  13.008
 7186W        W79446  27.619  21.785  13.579
 7187W        W79447  12.414  15.363   2.826
 7188W        W79448  27.792  31.166   9.882
 7189W        W79449  15.196   9.589   2.772
 7190W        W79450  28.607  11.286  14.437
 7191W        W79451  42.798  27.161  10.601
 7192W        W79452  27.008  24.148   4.124
 7193W        W79453  30.014  34.911   2.165
 7194W        W79454  35.318  27.651   1.951
 7195W        W79455   7.419  27.116  14.381
 7196W        W79456  24.171  39.694   1.002
 7197W        W79457   4.808  23.168   1.449
 7198W        W79458  22.610   9.401   0.811
 7199W        W79459  14.013  41.975   0.395
 7200W        W79460  28.509  37.789  14.526
 7201W        W79461  32.013  39.620  14.685
 7202W        W79462  41.219  42.446   3.563
 7203W        W79463  27.983   0.452   0.214
 7204W        W79464  39.956   3.868   2.685
 7205W        W79465  37.487  24.208   4.553
 7206W        W79466   5.946  42.218  14.360
 7207W        W79467  34.946   8.772  10.302
 7208W        W79468   2.631   4.274  11.124
 7209W        W79469  34.698  32.041  14.849
 7210W        W79470   8.392  28.535   2.208
 7211W        W79471  17.813   4.015  11.070
 7212W        W79472  23.154   2.102   1.982
 7213W        W79473  25.403  33.365   2.129
 7214W        W79474  17.720   5.600  12.800
 7215W        W79475  13.098   8.044   2.527
 7216W        W79476  19.079  21.009   0.329
 7217W        W79477  31.953  37.969   0.730
 7218W        W79478   0.155  11.229  14.846
 7219W        W79479  18.576  33.087  11.595
 7220W        W79480  28.758  25.855  12.934
 7221W        W79481  23.021   2.149   0.194
 7222W        W79482  29.560  37.290   4.769
 7223W        W79483   8.911  12.096  12.446
 7224W        W79484  14.697  17.768  13.993
 7225W        W79485  13.761   7.351  13.792
 7226W        W79486  14.675  25.705  10.654
 7227W        W79487  44.493  33.225  13.420
 7228W        W79488   6.737   3.675  11.213
 7229W        W79489  27.977  33.387   2.937
 7230W        W79490  12.332  34.358   3.141
 7231W        W79491  30.046  13.205   1.807
 7232W        W79492  22.734  26.621   2.962
 7233W        W79493  15.824   4.248   3.589
 7234W        W79494  11.309   5.931   3.414
 7235W        W79495   7.070   2.014  12.021
 7236W        W79496  20.745  23.236  12.182
 7237W        W79497  38.540  44.144  13.427
 7238W        W79498  10.268  36.351   3.321
 7239W        W79499   6.703  29.121  11.124
 7240W        W79500  28.650  25.029  11.106
 7241W        W79501  27.097  33.869  12.636
 7242W        W79502  14.749  40.416  14.450
 7243W        W79503  20.310  27.985   3.271
 7244W        W79504   3.956  29.720   4.897
 7245W        W79505   1.327  22.957   2.727
 7246W        W79506  15.313   2.704   0.906
 7247W        W79507   0.956   0.388  14.356
 7248W        W79508  12.991  20.970  12.425
 7249W        W79509   1.427   0.744  14.964
 7250W        W79510   7.443  41.775  12.520
 7251W        W79511  13.530  30.063  10.204
 7252W        W79512  33.035  28.190  10.540
 7253W        W79513  19.208  35.018   4.030
 7254W        W79514  30.180  11.902   4.035
 7255W        W79515  38.113   3.859  12.637
 7256W        W79516  22.579  33.787  13.372
 7257W        W79517  41.968  16.643   4.727
 7258W        W79518  23.646  21.168  11.989
 7259W        W79519  34.808  11.598  12.304
 7260W        W79520  17.866   7.358  12.412
 7261W        W79521  33.606   9.648   1.613
 7262W        W79522  22.972  26.609  14.505
 7263W        W79523  37.484   0.221  14.083
 7264W        W79524   9.334  43.505   4.748
 7265W        W79525  14.880  44.365  14.522
 7266W        W79526  26.421  43.379  12.525
 7267W        W79527  27.763  14.536   3.289
 7268W        W79528  42.857  20.680  11.041
 7269W        W79529   5.745   0.368  11.152
 7270W        W79530  23.146  23.924  13.596
 7271W        W79531  11.727  24.092   3.566
 7272W        W79532  15.634  35.222   1.739
 7273W        W79533   6.226  39.984  14.053
 7274W        W79534  27.490  15.287  11.955
 7275W        W79535  29.623   8.015   4.483
 7276W        W79536  42.965  23.547   0.478
 7277W        W79537   9.602  29.448  12.058
 7278W        W79538  31.376  31.250  11.875
 7279W        W79539  32.536  30.160  10.473
 7280W        W79540  10.195  41.840  11.177
 7281W        W79541  16.283   0.293  11.115
 7282W        W79542  14.814  31.662  14.844
 7283W        W79543  22.566  39.466   0.748
 7284W        W79544   8.756  31.775  13.533
 7285W        W79545  14.072  37.566   1.692
 7286W        W79546  17.178  20.164   3.162
 7287W        W79547  41.285  40.510   4.478
 7288W        W79548   9.439  38.869  10.906
 7289W        W79549  38.401  30.540   3.106
 7290W        W79550  24.474  38.998  12.986
 7291W        W79551  24.830  35.589   1.798
 7292W        W79552  39.969  22.130   0.087
 7293W        W79553  23.013  17.752  13.617
 7294W        W79554  43.841  10.395   2.376
 7295W        W79555  25.260  41.627   3.440
 7296W        W79556  24.593  21.312  13.940
 7297W        W79557  35.089  27.262  14.816
 7298W        W79558  34.964  35.598  12.422
 7299W        W79559   3.902  20.767  14.554
 7300W        W79560  11.344  35.136   0.729
 7301W        W79561   9.223  42.259  14.373
 7302W        W79562   3.898  31.930  11.609
 7303W        W79563   7.515  22.988  10.958
 7304W        W79564  44.502  16.632   0.089
 7305W        W79565  24.944  41.377   4.321
 7306W        W79566  22.066  16.635  14.083
 7307W        W79567  28.817  26.937  11.985
 7308W        W79568   9.940  40.260  12.924
 7309W        W79569  18.341  28.413  14.785
 7310W        W79570  17.260  18.137   1.929
 7311W        W79571  34.748  27.545   0.849
 7312W        W79572   9.373  37.289   1.482
 7313W        W79573  32.492  23.523  14.254
 7314W        W79574  20.550  36.599  14.364
 7315W        W79575  18.786   2.408   4.005
 7316W        W79576  29.565  35.790  14.410
 7317W        W79577   3.025  42.373   2.979
 7318W        W79578  33.900  24.676   1.338
 7319W        W79579   4.839  35.472   1.209
 7320W        W79580  24.644  16.376   4.464
 7321W        W79581  43.435  19.411   1.838
 7322W        W79582  15.148   3.916   1.425
 7323W        W79583  17.734  29.247  12.831
 7324W        W79584  36.591  40.316  13.440
 7325W        W79585  12.101   5.453   2.325
 7326W        W79586   2.472  33.475   0.083
 7327W        W79587  28.379   8.332  12.418
 7328W        W79588  12.656   8.859  13.980
 7329W        W79589  14.296  15.200   2.076
 7330W        W79590  31.632  24.002  13.772
 7331W        W79591  10.779  41.328   1.501
 7332W        W79592  17.365  16.810  14.488
 7333W        W79593  15.876  21.328  11.534
 7334W        W79594  13.638   9.122  11.169
 7335W        W79595  33.665  25.295   0.918
 7336W        W79596  42.566   2.956  13.460
 7337W        W79597  22.631   1.378  14.815
 7338W        W79598  36.540  28.635   4.384
 7339W        W79599   8.218  41.312  13.980
 7340W        W79600  42.487  17.833   0.528
 7341W        W79601  34.394  41.349  11.648
 7342W        W79602  28.927  33.985   0.202
 7343W        W79603  15.043  12.197  11.296
 7344W        W79604   2.768   8.859   3.273
 7345W        W79605  25.282  28.200   4.256
 7346W        W79606   9.253  23.088  10.626
 7347W        W79607  40.584  41.285   1.618
 7348W        W79608  23.019  19.235  13.528
 7349W        W79609   6.239  21.937   3.224
 7350W        W79610  40.919  29.809   3.927
 7351W        W79611  19.185   5.495  14.854
 7352W        W79612  37.598  16.343  12.066
 7353W        W79613  31.000  25.442  14.339
 7354W        W79614  31.485  12.434  12.401
 7355W        W79615   3.053  39.207  11.754
 7356W        W79616  16.660  20.066   2.889
 7357W        W79617  17.684   0.853  10.891
 7358W        W79618  43.245  41.861   0.388
 7359W        W79619  38.586  26.566  11.165
 7360W        W79620   4.935  40.815   0.704
 7361W        W79621  28.968  37.515   2.415
 7362W        W79622  24.203  10.329  13.547
 7363W        W79623   6.589  21.827  12.304
 7364W        W79624  21.988  29.180  12.897
 7365W        W79625   1.308  40.626  12.223
 7366W        W79626  23.258   5.352  14.286
 7367W        W79627  32.401  30.087  14.101
 7368W        W79628  25.519   9.021  14.358
 7369W        W79629  41.545  20.172   3.456
 7370W        W79630   0.154  23.074   0.345
 7371W        W79631   9.414  15.578   4.420
 7372W        W79632  37.711   7.797  13.623
 7373W        W79633   4.455   1.473  13.051
 7374W        W79634  35.578  32.726   1.005
 7375W        W79635  23.778   1.787   3.411
 7376W        W79636  36.318   5.210   1.394
 7377W        W79637  39.013  27.955  11.084
 7378W        W79638  38.621  19.095   2.389
 7379W        W79639  37.255  22.633  12.136
 7380W        W79640  28.977  38.902   3.913
 7381W        W79641  36.378  30.889   3.115
 7382W        W79642  42.423  40.033  12.520
 7383W        W79643  21.550   2.895   0.901
 7384W        W79644  34.070  40.778   0.885
 7385W        W79645  35.642  25.966   3.761
 7386W        W79646  31.323  27.492  14.325
 7387W        W79647  44.226  30.542  14.337
 7388W        W79648   6.924  16.662  12.084
 7389W        W79649  37.469  33.469  11.453
 7390W        W79650  27.030  35.909   4.136
 7391W        W79651  35.131   0.201  14.010
 7392W        W79652  27.079   6.220   4.096
 7393W        W79653  30.166  13.865  14.895
 7394W        W79654  32.860   0.668   1.016
 7395W        W79655  30.343  32.424   4.192
 7396W        W79656   9.519  15.779  10.405
 7397W        W79657   0.833  10.235   3.936
 7398W        W79658  15.068  36.476   1.259
 7399W        W79659  22.608  22.051  14.428
 7400W        W79660  10.312  34.925  11.901
 7401W        W79661  20.934   5.428  12.429
 7402W        W79662  25.924  13.838   0.555
 7403W        W79663  41.101  12.809  11.567
 7404W        W79664  18.019  33.546  11.812
 7405W        W79665  43.018  34.007   3.136
 7406W        W79666  11.334  24.266  12.470
 7407W        W79667   2.481  33.419  12.542
 7408W        W79668  23.003  18.789  10.647
 7409W        W79669  13.627  42.890   1.371
 7410W        W79670  19.463  38.438   3.941
 7411W        W79671  10.220  11.786   1.331
 7412W        W79672   9.245  22.160   2.824
 7413W        W79673   4.961  34.904   4.485
 7414W        W79674   4.359  21.061   3.169
 7415W        W79675  10.728   1.299  12.964
 7416W        W79676  29.117  28.175   4.344
 7417W        W79677  18.409  12.053   4.684
 7418W        W79678  28.322   8.306   3.121
 7419W        W79679  42.499  41.545  13.071
 7420W        W79680  38.602   2.364  12.633
 7421W        W79681  18.290  28.135  10.533
 7422W        W79682  17.316  23.933   0.334
 7423W        W79683  29.435   4.318   2.275
 7424W        W79684  26.575  31.354  11.011
 7425W        W79685   7.709  34.301  14.294
 7426W        W79686  14.253  44.223  10.984
 7427W        W79687  38.697  29.736   4.194
 7428W        W79688   3.373  38.536   2.872
 7429W        W79689  12.957  23.604   3.105
 7430W        W79690  17.743  40.281   0.890
 7431W        W79691  41.001  23.571   2.621
 7432W        W79692  26.149   1.376   2.859
 7433W        W79693  44.778  24.959   0.230
 7434W        W79694  18.533  17.561   3.127
 7435W        W79695  43.667  35.164   4.093
 7436W        W79696  12.252   2.716  11.557
 7437W        W79697  15.897   2.914   4.115
 7438W        W79698  14.461  41.756  13.838
 7439W        W79699  39.554   1.414   1.251
 7440W        W79700   5.188  16.803  14.450
 7441W        W79701  37.526  16.913   3.622
 7442W        W79702  43.229  31.616  12.056
 7443W        W79703   9.930  31.241   2.792
 7444W        W79704   4.770  10.172   3.274
 7445W        W79705   2.501  16.573   1.930
 7446W        W79706  14.056  11.132   2.789
 7447W        W79707   9.934  17.899   2.847
 7448W        W79708  30.937  14.666  14.265
 7449W        W79709  12.721   1.210  13.099
 7450W        W79710  33.571   7.197  13.883
 7451W        W79711  19.085  40.491  11.606
 7452W        W79712  31.491  28.032  10.699
 7453W        W79713  11.309  41.573   1.324
 7454W        W79714  14.721   3.317  14.781
 7455W        W79715  17.285  16.075  10.614
 7456W        W79716  36.836  18.225  11.347
 7457W        W79717  37.046  13.518  11.588
 7458W        W79718  12.189   6.120  12.458
 7459W        W79719  42.385  42.814   1.470
 7460W        W79720  17.433  10.446   3.809
 7461W        W79721   8.434   2.525  12.936
 7462W        W79722  24.112   4.671  12.007
 7463W        W79723  28.171   6.223  14.497
 7464W        W79724  27.363  12.092  13.506
 7465W        W79725  25.462  20.448  12.854
 7466W        W79726  43.551  37.013  11.305
 7467W        W79727  20.914   3.521  13.076
 7468W        W79728  23.657  37.835  10.956
 7469W        W79729  10.760   9.420  14.880
 7470W        W79730  21.975  19.678   0.014
 7471W        W79731  44.290  19.341  11.651
 7472W        W79732   0.149  16.564  14.417
 7473W        W79733  44.965  14.337  11.608
 7474W        W79734  17.062  40.511  11.510
 7475W        W79735  39.042  15.342  11.502
 7476W        W79736   6.334   5.432   2.311
 7477W        W79737   7.187   6.243  11.524
 7478W        W79738  39.754  27.094  12.477
 7479W        W79739  10.715   6.639  12.439
 7480W        W79740  10.255  38.120  14.382
 7481W        W79741  41.912  23.661  11.612
 7482W        W79742  32.361  11.547   4.684
 7483W        W79743  21.268   3.766   1.430
 7484W        W79744   3.299  10.916   1.238
 7485W        W79745  16.034  13.876   1.789
 7486W        W79746  28.616   9.279   3.624
 7487W        W79747  39.286   7.583   1.976
 7488W        W79748   2.059  15.355  11.917
 7489W        W79749  38.921   8.429  12.511
 7490W        W79750  39.530  24.893  11.911
 7491W        W79751  41.898  41.803  10.745
 7492W        W79752  13.160  29.287   1.927
 7493W        W79753  36.571  27.003  10.631
 7494W        W79754  35.812  42.982  14.390
 7495W        W79755  19.826  27.493  10.595
 7496W        W79756  25.762  29.983   4.505
 7497W        W79757  18.544  33.544  14.006
 7498W        W79758   9.441   5.146  11.203
 7499W        W79759   0.513  34.546  12.498
 7500W        W79760  38.628  11.678  14.796
 7501W        W79761   7.464   0.903   2.275
 7502W        W79762  32.590  32.595   0.583
 7503W        W79763  37.091   8.464   1.879
 7504W        W79764   4.344  14.153  12.582
 7505W        W79765  11.245  29.647   0.501
 7506W        W79766  26.551  22.308  12.361
 7507W        W79767  28.517  21.018  13.088
 7508W        W79768  34.149  20.728  11.100
 7509W        W79769  10.647  44.869  12.769
 7510W        W79770  29.064  38.410   1.799
 7511W        W79771  21.849  24.184  10.185
 7512W        W79772  37.410  38.851   2.337
 7513W        W79773  25.435  32.837   2.112
 7514W        W79774  38.253  24.504  13.420
 7515W        W79775   2.847  25.700   4.707
 7516W        W79776  30.888  32.420   0.816
 7517W        W79777  36.836  21.913   3.173
 7518W        W79778  11.894  32.651  12.564
 7519W        W79779   4.023  26.753  14.788
 7520W        W79780  41.803  39.435   0.344
 7521W        W79781   3.484  29.506   5.054
 7522W        W79782  42.623  27.616  14.402
 7523W        W79783   8.395  31.715   4.538
 7524W        W79784  18.289  29.747  14.814
 7525W        W79785  35.158  30.867   5.069
 7526W        W79786  43.866  25.427   2.698
 7527W        W79787  11.541  42.075  10.862
 7528W        W79788  19.946  18.349  11.528
 7529W        W79789   6.689   9.727   0.941
 7530W        W79790  30.595   8.870   3.810
 7531W        W79791  29.096  28.502   0.826
 7532W        W79792  20.921  35.953  10.664
 7533W        W79793  22.630  14.216  11.572
 7534W        W79794  30.871  23.704   1.370
 7535W        W79795   9.363   1.948   5.252
 7536W        W79796  15.880  17.979  11.956
 7537W        W79797  19.285   3.258   1.832
 7538W        W79798  12.231  44.230  14.889
 7539W        W79799  18.026  23.577  13.482
 7540W        W79800  34.805  37.462  10.695
 7541W        W79801  33.011  21.040  12.894
 7542W        W79802  25.127  36.911   3.280
 7543W        W79803   5.370  41.763  11.724
 7544W        W79804  23.424   4.458   1.878
 7545W        W79805  16.820  25.853   3.662
 7546W        W79806  43.217   8.200   4.704
 7547W        W79807  25.770   8.782   9.891
 7548W        W79808  32.695  10.772  12.754
 7549W        W79809   7.487  37.917  12.782
 7550W        W79810  30.563   1.329   4.360
 7551W        W79811   4.617   3.525  11.116
 7552W        W79812  34.056  19.199  13.787
 7553W        W79813  11.894  34.893   2.175
 7554W        W79814   8.811  26.220   3.195
 7555W        W79815  43.784  11.169   0.639
 7556W        W79816  13.184  23.290   2.659
 7557W        W79817  11.624  20.756   3.871
 7558W        W79818  13.264  15.524  11.382
 7559W        W79819  20.680   9.425  13.484
 7560W        W79820  23.091  12.162  12.853
 7561W        W79821  41.429  21.950  14.022
 7562W        W79822   6.964  38.871   3.098
 7563W        W79823  16.026  29.726   4.135
 7564W        W79824  34.391   0.072   0.840
 7565W        W79825  22.048  37.695  13.530
 7566W        W79826  26.889  41.429   4.220
 7567W        W79827  21.145  19.699  11.239
 7568W        W79828   0.825   3.753  13.394
 7569W        W79829  26.075   2.301   2.910
 7570W        W79830  33.994  35.372   2.369
 7571W        W79831  12.900   5.475  11.116
 7572W        W79832  44.371  23.842   0.988
 7573W        W79833   6.674   8.453  10.508
 7574W        W79834  16.653  24.958   1.768
 7575W        W79835  11.262  42.372   0.561
 7576W        W79836  32.527  23.833   3.790
 7577W        W79837  11.994  21.782  13.617
 7578W        W79838  15.021  34.405  11.413
 7579W        W79839  11.205  26.928  14.535
 7580W        W79840  43.612  25.070  12.193
 7581W        W79841  34.344  30.476   1.885
 7582W        W79842  35.329   6.260  10.770
 7583W        W79843  30.584   6.336   0.224
 7584W        W79844  29.009  37.483   2.915
 7585W        W79845  19.926  28.507   0.341
 7586W        W79846  12.796  28.504   2.298
 7587W        W79847  13.811  15.148   2.275
 7588W        W79848  23.508  44.703  13.521
 7589W        W79849  21.034  41.781   1.309
 7590W        W79850  25.644  28.072   2.458
 7591W        W79851   5.040  17.027   3.225
 7592W        W79852  17.110   3.451   0.223
 7593W        W79853  44.177  22.671  14.055
 7594W        W79854  17.280  18.829   3.718
 7595W        W79855   7.581  30.881  14.534
 7596W        W79856   6.295  20.532   3.144
 7597W        W79857   7.732   6.884  11.130
 7598W        W79858  26.073  44.190  10.642
 7599W        W79859   0.464  16.136  10.828
 7600W        W79860  11.746  10.780  13.093
 7601W        W79861  16.181  44.745   3.045
 7602W        W79862  12.788  28.965   2.051
 7603W        W79863  15.561  43.239  11.542
 7604W        W79864   8.771   3.525   2.636
 7605W        W79865  30.472  17.741   4.361
 7606W        W79866  36.992  38.016  13.833
 7607W        W79867  32.455   9.617  11.057
 7608W        W79868  31.448  28.825   3.227
 7609W        W79869  35.932  12.800   4.269
 7610W        W79870  24.963  34.929  13.583
 7611W        W79871  32.310  32.732   2.190
 7612W        W79872  43.218  40.964  12.953
 7613W        W79873   1.358  44.915  11.707
 7614W        W79874  39.953   5.477  14.777
 7615W        W79875  20.095  19.580   2.696
 7616W        W79876  13.601  42.357   3.709
 7617W        W79877  22.755  26.770   1.331
 7618W        W79878  37.160   4.879   0.738
 7619W        W79879  22.700  15.095  13.874
 7620W        W79880   2.931   9.447   2.226
 7621W        W79881  42.839   1.019   1.729
 7622W        W79882  32.463  30.976   3.072
 7623W        W79883   3.707   3.052  11.615
 7624W        W79884  19.643  18.277  12.574
 7625W        W79885  17.317  16.012  12.993
 7626W        W79886  35.600  22.185   0.168
 7627W        W79887   9.057  33.104   2.798
 7628W        W79888  16.641  22.012   3.167
 7629W        W79889  22.532  23.415  14.350
 7630W        W79890   5.795  39.079   3.189
 7631W        W79891  18.235  42.119   1.245
 7632W        W79892  44.536  19.945   4.233
 7633W        W79893   4.135  32.784   0.446
 7634W        W79894  29.479  41.583  14.059
 7635W        W79895  16.200  18.690  13.885
 7636W        W79896  23.504   2.916  12.400
 7637W        W79897  19.783  12.878  13.046
 7638W        W79898  38.675   5.986   2.248
 7639W        W79899   3.291  15.585  10.540
 7640W        W79900   9.311  22.239  13.395
 7641W        W79901  22.290  37.476   1.947
 7642W        W79902  14.778   3.055   2.849
 7643W        W79903   9.820  10.119   4.669
 7644W        W79904  29.553  42.153   2.849
 7645W        W79905  31.069  17.222   4.856
 7646W        W79906   7.272  14.066  14.229
 7647W        W79907  43.519  25.084  13.012
 7648W        W79908  31.986  32.963   0.726
 7649W        W79909   8.026  34.007   0.213
 7650W        W79910   0.730   4.100  13.804
 7651W        W79911   2.327  26.874  12.066
 7652W        W79912  38.861  25.942   0.768
 7653W        W79913  21.923   8.705   3.675
 7654W        W79914  17.292  31.024  12.588
 7655W        W79915  20.275  23.979   0.700
 7656W        W79916  16.261  11.245   0.292
 7657W        W79917  44.381   2.520   3.404
 7658W        W79918  37.893  13.011  12.566
 7659W        W79919   2.923   4.936  11.149
 7660W        W79920  38.715  17.710  14.889
 7661W        W79921  43.114  40.426   4.146
 7662W        W79922   8.683  40.528   4.663
 7663W        W79923  17.927  19.096  14.889
 7664W        W79924   4.471  42.186   3.939
 7665W        W79925  44.254  40.350   0.866
 7666W        W79926  38.541   5.461   2.269
 7667W        W79927  44.949  42.974   4.122
 7668W        W79928   9.168  39.926   3.646
 7669W        W79929  34.894  11.357   3.259
 7670W        W79930  11.131  12.537  14.868
 7671W        W79931  37.430   1.264   4.887
 7672W        W79932   6.934  36.085  14.460
 7673W        W79933  37.047  36.316  12.344
 7674W        W79934  25.901   6.545   2.463
 7675W        W79935  24.299   2.444  13.501
 7676W        W79936  44.061  17.765   1.474
 7677W        W79937  35.627  43.421   2.402
 7678W        W79938   6.303  33.896   3.232
 7679W        W79939  38.900   5.309   2.789
 7680W        W79940  13.134  36.073   2.866
 7681W        W79941  20.192   3.609  13.589
 7682W        W79942  26.949   5.660  13.938
 7683W        W79943  40.582  12.706  13.118
 7684W        W79944  13.782  36.015  11.549
 7685W        W79945  40.358  24.714   2.571
 7686W        W79946  33.019   8.022   4.536
 7687W        W79947  23.336  28.037  11.526
 7688W        W79948   7.257   6.796  11.351
 7689W        W79949  31.941  41.266   1.750
 7690W        W79950   0.393  42.349   4.484
 7691W        W79951  10.916  26.058   1.255
 7692W        W79952   4.644  26.270   5.070
 7693W        W79953  16.732  20.083  13.122
 7694W        W79954  33.655  16.212   0.211
 7695W        W79955  41.546  42.819   2.077
 7696W        W79956   3.874   0.768   0.793
 7697W        W79957  14.828  13.641   4.175
 7698W        W79958  44.446  15.872   1.246
 7699W        W79959  40.427  25.759  14.198
 7700W        W79960   5.665   1.853   0.851
 7701W        W79961  36.023  11.328  11.082
 7702W        W79962  26.232  43.457  14.441
 7703W        W79963  30.845   8.415   3.731
 7704W        W79964  19.770   9.240   1.373
 7705W        W79965  39.608  16.888  11.977
 7706W        W79966  11.830  10.045  11.624
 7707W        W79967   4.823  38.672  10.030
 7708W        W79968  28.164  28.117  12.096
 7709W        W79969   5.017   9.874   0.309
 7710W        W79970  22.651  36.063  12.519
 7711W        W79971  19.121  43.036   1.496
 7712W        W79972  41.379  29.702   3.682
 7713W        W79973   9.926  23.470  11.191
 7714W        W79974  22.509  29.128   2.799
 7715W        W79975   1.768  19.459  11.590
 7716W        W79976  13.122  30.904  14.468
 7717W        W79977  19.308  13.383  11.568
 7718W        W79978  39.735  42.326  12.755
 7719W        W79979  11.469  28.561   0.334
 7720W        W79980   2.582  38.752   0.712
 7721W        W79981   5.029  37.455  12.801
 7722W        W79982  44.838  11.710  12.489
 7723W        W79983  33.785  19.580   4.503
 7724W        W79984   3.823  22.439   1.384
 7725W        W79985  31.492   7.403   1.431
 7726W        W79986   1.646  22.989  11.607
 7727W        W79987  13.567  31.983  12.020
 7728W        W79988  25.494  10.971   1.185
 7729W        W79989  26.996  30.030  12.836
 7730W        W79990  17.172  22.377   0.768
 7731W        W79991  30.435  37.838   4.881
 7732W        W79992   0.461  41.833  12.155
 7733W        W79993  28.557  44.228  12.559
 7734W        W79994  31.635  34.133  12.038
 7735W        W79995  12.984  12.662  13.151
 7736W        W79996   9.022   2.312  14.634
 7737W        W79997  10.136  42.270  10.265
 7738W        W79998  27.639  25.939   0.477
 7739W        W79999   1.474   3.465  13.014
 7740W        W80000  13.328  26.376  14.287
 7741W        W80001  29.955  37.511   2.759
 7742W        W80002  16.124   9.148   1.331
 7743W        W80003  22.067  20.631   1.738
 7744W        W80004   7.344   0.423  12.055
 7745W        W80005   7.577  27.120   3.182
 7746W        W80006   9.249  42.306   4.013
 7747W        W80007  44.364  41.767   3.247
 7748W        W80008  23.530  18.595  14.747
 7749W        W80009   6.799  30.542   3.650
 7750W        W80010  12.669  20.007   4.256
 7751W        W80011  28.842  35.004  10.608
 7752W        W80012  27.942   7.852   0.989
 7753W        W80013   8.932  27.415   2.354
 7754W        W80014  19.816  12.701  10.507
 7755W        W80015  14.396  11.465   2.236
 7756W        W80016   3.201  17.132  10.721
 7757W        W80017  20.581  39.523  11.647
 7758W        W80018  22.550   1.706   2.244
 7759W        W80019  43.748  39.721   4.739
 7760W        W80020  11.088  26.009  10.658
 7761W        W80021  21.922  35.335  14.810
 7762W        W80022  24.633  41.561   0.356
 7763W        W80023  12.380   9.244  14.178
 7764W        W80024  26.211   3.806   1.220
 7765W        W80025   2.862   1.659   1.467
 7766W        W80026   9.619  41.710   1.778
 7767W        W80027  12.673   2.965   3.837
 7768W        W80028  15.084  25.731  12.456
 7769W        W80029  11.750  13.224  10.653
 7770W        W80030  28.517  41.066  14.537
 7771W        W80031   2.357   6.798   0.745
 7772W        W80032  11.564   5.342   4.050
 7773W        W80033  21.794  28.915  11.272
 7774W        W80034  35.268  19.792  11.138
 7775W        W80035  31.860  29.321   3.571
 7776W        W80036  42.839  20.679   0.685
 7777W        W80037  33.519  36.477  13.133
 7778W        W80038  22.810  13.263  14.935
 7779W        W80039   4.371  25.579  10.315
 7780W        W80040   8.111  30.626   3.624
 7781W        W80041  12.866   7.113  11.153
 7782W        W80042  31.459  41.084   2.780
 7783W        W80043  37.706   1.419   3.387
 7784W        W80044   2.903  12.835  12.095
 7785W        W80045  17.414  26.063  13.216
 7786W        W80046   6.478  11.365   2.358
 7787W        W80047  41.997  16.785   0.972
 7788W        W80048  22.004  36.599   1.873
 7789W        W80049  28.600  11.670  14.102
 7790W        W80050  40.361  37.950  14.436
 7791W        W80051  31.481  41.402  11.923
 7792W        W80052   7.380  37.893  14.405
 7793W        W80053  17.566  43.317   4.269
 7794W        W80054  42.202  14.258  12.973
 7795W        W80055  14.850  30.261   3.754
 7796W        W80056  29.206  27.038   1.931
 7797W        W80057  39.769  33.892   1.193
 7798W        W80058  43.465  31.359  13.495
 7799W        W80059  28.410   8.711   3.815
 7800W        W80060  23.144  44.860  11.012
 7801W        W80061  44.319   7.869  12.478
 7802W        W80062  18.766  36.579   4.572
 7803W        W80063  16.684  34.508   0.352
 7804W        W80064   0.745  24.491   3.285
 7805W        W80065  27.728  21.279   4.118
 7806W        W80066  36.287  16.066  11.554
 7807W        W80067  39.800  39.006   4.129
 7808W        W80068  31.778   0.547   2.290
 7809W        W80069   1.819  32.740  10.538
 7810W        W80070   4.782   7.377  13.891
 7811W        W80071  23.777   9.323   1.651
 7812W        W80072  12.235  34.344  11.118
 7813W        W80073  43.848  32.605  11.265
 7814W        W80074  30.971  40.493  14.892
 7815W        W80075   3.293  12.032  14.359
 7816W        W80076   2.332  12.789   1.189
 7817W        W80077   4.918  40.508  11.927
 7818W        W80078   4.915  29.046  13.574
 7819W        W80079  16.625  35.093   2.755
 7820W        W80080   9.422   1.003  11.660
 7821W        W80081   2.008   5.056   2.606
 7822W        W80082   8.249  32.230  12.391
 7823W        W80083  24.053  39.382  10.819
 7824W        W80084   3.761   1.831   3.809
 7825W        W80085  40.322  16.272  14.687
 7826W        W80086  21.049  31.887   4.066
 7827W        W80087   2.860  12.305   4.297
 7828W        W80088  26.014  10.291   1.276
 7829W        W80089  10.368   2.830  12.488
 7830W        W80090  13.016  17.622  14.061
 7831W        W80091  36.897  20.670  11.641
 7832W        W80092  30.866  27.147  11.947
 7833W        W80093  34.174  16.710   3.622
 7834W        W80094   1.808  34.490   1.879
 7835W        W80095   7.068   2.139  13.279
 7836W        W80096  43.834  33.457  10.649
 7837W        W80097  15.101   8.323   1.908
 7838W        W80098  28.923  25.287  11.926
 7839W        W80099  26.310  19.206  12.824
 7840W        W80100   7.464  40.105  13.512
 7841W        W80101  17.896  43.329   2.819
 7842W        W80102  19.270  33.298  13.387
 7843W        W80103  10.231  34.420   0.075
 7844W        W80104  27.116  15.757  10.227
 7845W        W80105  13.558  32.167   1.546
 7846W        W80106   7.697   7.526   2.636
 7847W        W80107  28.524  41.926  12.825
 7848W        W80108   3.254   8.209   4.414
 7849W        W80109  19.220  40.399   1.746
 7850W        W80110   0.669  26.880   1.263
 7851W        W80111  25.900  30.338   4.135
 7852W        W80112   6.859  37.037  13.024
 7853W        W80113  39.353   1.053  14.361
 7854W        W80114   0.129  26.120   3.653
 7855W        W80115   1.174  18.567  14.227
 7856W        W80116  20.038  15.568   0.886
 7857W        W80117   8.249  23.543   3.975
 7858W        W80118  34.620  44.441  13.922
 7859W        W80119  30.175   4.850   3.857
 7860W        W80120  44.514  14.550   5.327
 7861W        W80121   1.528  20.411   2.546
 7862W        W80122  41.803  36.192   1.388
 7863W        W80123   1.239  25.877  11.945
 7864W        W80124  39.869  35.458   4.082
 7865W        W80125  28.461   1.403   1.911
 7866W        W80126   0.245   4.779  10.753
 7867W        W80127  28.684   4.252   0.022
 7868W        W80128  32.523  19.816  13.997
 7869W        W80129   1.494  38.455   2.158
 7870W        W80130  17.283  43.153  13.990
 7871W        W80131  37.648  43.371  13.799
 7872W        W80132   3.738   9.381  14.987
 7873W        W80133  10.275  43.025  11.584
 7874W        W80134  35.947   5.442   0.101
 7875W        W80135   3.826  19.980   4.506
 7876W        W80136  33.949  25.201   1.342
 7877W        W80137  44.566   4.232  12.457
 7878W        W80138  43.904   8.312  11.141
 7879W        W80139  24.227  41.759  10.332
 7880W        W80140  23.056  12.754  11.606
 7881W        W80141  31.464  19.514  14.377
 7882W        W80142   5.594   9.033   3.395
 7883W        W80143  34.389  39.124   1.763
 7884W        W80144  35.314  19.618  12.604
 7885W        W80145  37.816  40.855  12.949
 7886W        W80146   3.765  37.539   1.888
 7887W        W80147  40.655  13.510  13.487
 7888W        W80148  30.912  34.205   0.413
 7889W        W80149  36.624   8.931   5.473
 7890W        W80150  14.280   4.986  13.574
 7891W        W80151  29.437   3.384   2.705
 7892W        W80152  26.146  38.055  11.933
 7893W        W80153   5.917  21.566   4.573
 7894W        W80154   2.908   0.287   2.747
 7895W        W80155  28.602  17.830   3.210
 7896W        W80156  11.967  17.090   5.055
 7897W        W80157  35.134  10.618   2.701
 7898W        W80158  24.985  39.052  12.881
 7899W        W80159   3.328   8.146   2.001
 7900W        W80160  26.745   9.872  13.463
 7901W        W80161  13.063  14.559  14.981
 7902W        W80162  32.560  36.633   3.610
 7903W        W80163   2.737  43.365  10.805
 7904W        W80164  26.516  41.872   3.174
 7905W        W80165  12.830   8.494   2.568
 7906W        W80166  38.402  33.136  13.803
 7907W        W80167  43.461   0.735  10.705
 7908W        W80168  23.010  29.351   4.136
 7909W        W80169  41.024  36.523   2.076
 7910W        W80170  38.298  43.367   4.035
 7911W        W80171  44.450  34.207   1.699
 7912W        W80172   3.290  34.613  11.428
 7913W        W80173   1.594  36.526   1.368
 7914W        W80174  28.393  43.935   1.279
 7915W        W80175   5.483  14.217   2.912
 7916W        W80176  35.642  24.184   0.319
 7917W        W80177   3.438  16.741  13.428
 7918W        W80178  42.373   6.648   0.073
 7919W        W80179  22.820   3.811  13.948
 7920W        W80180   1.829   1.531  13.082
 7921W        W80181  26.007  20.924  13.384
 7922W        W80182  44.649   0.650  13.516
 7923W        W80183   8.343  27.120  14.274
 7924W        W80184  34.512  40.929   4.125
 7925W        W80185   0.887  31.084   4.703
 7926W        W80186  17.793  16.338  12.413
 7927W        W80187  15.864  35.967   1.238
 7928W        W80188  19.739  16.136  10.609
 7929W        W80189  37.658  39.283  11.155
 7930W        W80190   6.216   6.391   3.860
 7931W        W80191  35.113  18.193  10.211
 7932W        W80192   0.328   1.017   4.368
 7933W        W80193   9.170   4.319   4.588
 7934W        W80194  24.693  39.927  11.303
 7935W        W80195  23.867  13.616  11.072
 7936W        W80196  41.515  14.735  10.669
 7937W        W80197  39.506  23.605   2.775
 7938W        W80198  41.028  25.151   1.795
 7939W        W80199  40.994  13.742  13.155
 7940W        W80200  42.426   5.732  10.605
 7941W        W80201  27.617  35.323  12.523
 7942W        W80202  40.472  38.545   1.152
 7943W        W80203  11.670  32.841   1.436
 7944W        W80204  33.837  31.579  13.324
 7945W        W80205  24.023   2.662   2.159
 7946W        W80206   1.309  18.289  10.784
 7947W        W80207  19.726  13.197  11.317
 7948W        W80208  16.738  28.414  11.595
 7949W        W80209  12.759   7.521  13.855
 7950W        W80210   3.850  20.261   3.202
 7951W        W80211  37.327  31.904  12.668
 7952W        W80212  20.034  43.803   2.717
 7953W        W80213  32.950  15.017  12.101
 7954W        W80214  25.007  34.841   2.879
 7955W        W80215  12.241  38.600   0.121
 7956W        W80216  31.943  29.921   1.002
 7957W        W80217  26.484  31.586  13.784
 7958W        W80218  41.988  11.381  11.388
 7959W        W80219   2.913  32.139  10.731
 7960W        W80220  21.450  42.329  14.852
 7961W        W80221  28.726  42.392  13.265
 7962W        W80222  22.447  32.298  11.058
 7963W        W80223  39.326   4.290   0.476
 7964W        W80224  41.067  21.268  12.706
 7965W        W80225  20.259  33.478  14.378
 7966W        W80226   4.816  34.988   2.083
 7967W        W80227  36.190   6.348   4.146
 7968W        W80228  18.662   6.362  13.458
 7969W        W80229  30.467  14.866  14.123
 7970W        W80230  27.665  41.447  13.227
 7971W        W80231  26.235  16.179  14.430
 7972W        W80232  25.095   9.747  12.000
 7973W        W80233   1.482   9.368  12.906
 7974W        W80234  15.063   2.566   4.078
 7975W        W80235  29.673   2.769   3.307
 7976W        W80236  20.605  40.568  11.139
 7977W        W80237   8.278  24.657  14.028
 7978W        W80238  25.656  21.725   1.416
 7979W        W80239  25.670  44.770  14.259
 7980W        W80240  37.287   5.623   1.738
 7981W        W80241  24.206   6.418  11.152
 7982W        W80242  37.465  40.002  12.135
 7983W        W80243   2.523  27.073  11.616
 7984W        W80244   8.770   8.261  11.595
 7985W        W80245  19.678  31.015  13.436
 7986W        W80246  26.569  42.201   0.202
 7987W        W80247   9.857  12.402   4.083
 7988W        W80248  39.644   9.392   3.227
 7989W        W80249  14.165  16.061  12.107
 7990W        W80250  32.168  20.024   4.572
 7991W        W80251  31.282  43.993  14.099
 7992W        W80252  17.016  25.516  13.977
 7993W        W80253  11.266  14.696  14.776
 7994W        W80254  26.366  36.319  12.492
 7995W        W80255  24.506  11.609   2.804
 7996W        W80256  35.794  19.719   3.785
 7997W        W80257   2.047  11.426  11.381
 7998W        W80258  11.106  18.578  14.410
 7999W        W80259  44.870   9.799   0.880
 8000W        W80260  33.994  26.165   4.940
 8001W        W80261   5.137  32.133  12.925
 8002W        W80262  14.781   0.673   4.078
 8003W        W80263  14.694  30.476   0.871
 8004W        W80264  29.403   3.416  13.504
 8005W        W80265  33.913   8.179  14.004
 8006W        W80266  11.118   2.762  11.526
 8007W        W80267  35.618  32.947   0.073
 8008W        W80268  16.843  29.249  12.882
 8009W        W80269  36.600   3.280   0.016
 8010W        W80270  11.622  32.304   4.900
 8011W        W80271  25.524  41.092  10.653
 8012W        W80272  39.496  38.582   0.936
 8013W        W80273  26.647  29.171  14.094
 8014W        W80274  44.448  29.228   3.241
 8015W        W80275  17.259  14.235   9.920
 8016W        W80276  31.578  23.512  12.803
 8017W        W80277  30.506  32.921   4.155
 8018W        W80278  30.644  22.773  12.807
 8019W        W80279   3.932  23.956  13.419
 8020W        W80280   7.451   0.989  13.816
 8021W        W80281   9.760  29.414   4.494
 8022W        W80282  35.972  35.931   3.429
 8023W        W80283   1.514   2.133  10.473
 8024W        W80284  22.533  15.292  11.044
 8025W        W80285  37.837   9.785  12.782
 8026W        W80286  44.872  24.282  14.343
 8027W        W80287  10.225   8.600   3.654
 8028W        W80288  15.216  34.059  11.726
 8029W        W80289  35.513  35.825  14.860
 8030W        W80290  22.758  25.383   2.705
 8031W        W80291  11.204  24.638   4.649
 8032W        W80292  10.800  39.049  11.947
 8033W        W80293   5.664  39.624  11.155
 8034W        W80294  36.064  10.913   1.372
 8035W        W80295  41.899  21.479  14.696
 8036W        W80296  36.026   7.696   4.289
 8037W        W80297  11.812  12.472   0.087
 8038W        W80298  34.882  40.364  12.916
 8039W        W80299  34.347   1.028  11.600
 8040W        W80300  17.310  19.286  12.935
 8041W        W80301  25.153  15.132   3.229
 8042W        W80302  21.220   8.334   4.077
 8043W        W80303  18.604  14.687  14.942
 8044W        W80304  18.515  33.871  12.867
 8045W        W80305  37.418   0.723   2.343
 8046W        W80306   3.384  31.464   3.255
 8047W        W80307  22.282  13.210   0.001
 8048W        W80308  15.217  10.301   1.620
 8049W        W80309  21.209  19.954   4.667
 8050W        W80310  28.461  24.633   3.799
 8051W        W80311  40.991  21.513  11.197
 8052W        W80312  25.437  40.035   4.324
 8053W        W80313  22.840  40.231   3.712
 8054W        W80314  24.228  24.013  10.410
 8055W        W80315  31.612   2.766   2.923
 8056W        W80316   3.093   4.457   2.343
 8057W        W80317  37.849  30.338   4.109
 8058W        W80318   6.759  27.219  11.357
 8059W        W80319   5.261  33.602   3.522
 8060W        W80320  27.607  44.993  14.880
 8061W        W80321   7.704  22.297   3.747
 8062W        W80322   4.655  12.600   2.364
 8063W        W80323  22.095   4.842  11.182
 8064W        W80324  21.500  36.807   4.131
 8065W        W80325  20.125  23.786  11.452
 8066W        W80326  43.832   3.253  12.535
 8067W        W80327  37.220  19.891  12.446
 8068W        W80328  21.756  27.856  14.880
 8069W        W80329  39.024  17.221   2.186
 8070W        W80330  32.700  15.030  12.979
 8071W        W80331   3.197  42.598  11.196
 8072W        W80332  35.539   3.607  14.247
 8073W        W80333  20.022  22.080  11.429
 8074W        W80334  21.107  42.884  11.944
 8075W        W80335  19.005  10.773   3.706
 8076W        W80336  29.662  22.047   4.134
 8077W        W80337   5.197  25.658   9.978
 8078W        W80338  39.452   2.480  10.770
 8079W        W80339   4.657  44.351   2.219
 8080W        W80340  37.144  16.189   3.440
 8081W        W80341  43.013  12.251   3.425
 8082W        W80342  27.961  25.497  13.460
 8083W        W80343  41.040  25.576  11.158
 8084W        W80344  20.056   4.940  13.006
 8085W        W80345  10.660  10.318  12.538
 8086W        W80346  10.829  32.090   9.575
 8087W        W80347   1.383  28.455   2.307
 8088W        W80348  38.401  27.478  13.419
 8089W        W80349  18.484  44.440   4.473
 8090W        W80350  32.996   9.720   3.169
 8091W        W80351  15.804  44.786   2.676
 8092W        W80352   0.817  15.826  14.229
 8093W        W80353  11.241  22.051   1.347
 8094W        W80354   8.682  39.489   4.153
 8095W        W80355  25.957  10.912  11.080
 8096W        W80356  44.938   1.789   1.260
 8097W        W80357   1.954   2.205   2.842
 8098W        W80358  22.239  24.165   0.021
 8099W        W80359  22.014  31.996   0.942
 8100W        W80360  10.807   0.428   2.311
 8101W        W80361  34.564  33.047  11.943
 8102W        W80362   0.787  44.508   1.817
 8103W        W80363  21.092  26.466  14.727
 8104W        W80364  31.033  35.575   2.338
 8105W        W80365  44.229  40.964  12.093
 8106W        W80366   4.381  18.195  13.010
 8107W        W80367  22.291  23.648  14.876
 8108W        W80368  37.133  12.185   4.209
 8109W        W80369  36.924  28.078  13.067
 8110W        W80370  24.462   9.221  11.706
 8111W        W80371   4.636  11.209   0.454
 8112W        W80372  18.851   1.977  10.482
 8113W        W80373   5.708  16.334   3.369
 8114W        W80374  18.733   6.827  13.811
 8115W        W80375  13.661  14.952  11.499
 8116W        W80376  28.429  24.840  12.873
 8117W        W80377  29.736  15.877  13.608
 8118W        W80378  42.776  17.687   3.285
 8119W        W80379  41.382   0.846  13.828
 8120W        W80380  25.997  16.530   4.503
 8121W        W80381   5.635  39.039   4.133
 8122W        W80382  20.679  36.555  12.788
 8123W        W80383   2.963  27.549   1.673
 8124W        W80384  15.195  19.051  12.536
 8125W        W80385  20.010  22.616   1.721
 8126W        W80386  18.316  28.697  12.139
 8127W        W80387  24.107  17.256  10.717
 8128W        W80388  22.909   8.959   3.732
 8129W        W80389   7.816  30.590   4.960
 8130W        W80390  10.665  22.601  10.654
 8131W        W80391  38.838  34.685  14.428
 8132W        W80392   0.475  27.397  13.048
 8133W        W80393  23.652   8.164   1.370
 8134W        W80394  13.636  33.027   2.523
 8135W        W80395  34.152  28.543   1.291
 8136W        W80396  41.835  26.412  13.530
 8137W        W80397  14.829  28.916   1.481
 8138W        W80398  44.809  11.670   2.171
 8139W        W80399   3.449   3.662   3.700
 8140W        W80400  31.423  26.731   0.268
 8141W        W80401  26.704  24.527  13.700
 8142W        W80402   8.623   4.668  10.914
 8143W        W80403  11.958  39.475  14.973
 8144W        W80404  41.079  32.077   5.106
 8145W        W80405  37.823   3.248   4.922
 8146W        W80406  30.528   7.636   0.303
 8147W        W80407  37.607  40.259   0.856
 8148W        W80408  43.840  30.505  11.966
 8149W        W80409  36.617  39.310   2.770
 8150W        W80410   3.879  36.857  11.935
 8151W        W80411  13.101   4.648  11.065
 8152W        W80412  44.731   7.741  14.358
 8153W        W80413  42.324  43.840  13.931
 8154W        W80414   2.475  23.271  14.961
 8155W        W80415  25.570  24.966   4.120
 8156W        W80416   4.475  29.267   1.759
 8157W        W80417  40.025  24.958   1.804
 8158W        W80418   8.598   6.856  10.322
 8159W        W80419   8.803   2.261  10.759
 8160W        W80420  19.933  37.427   0.450
 8161W        W80421  19.277  10.896   4.169
 8162W        W80422  13.301  30.230  12.016
 8163W        W80423  22.021   6.652   4.590
 8164W        W80424  15.375  33.081   3.198
 8165W        W80425  12.112   7.111  11.402
 8166W        W80426  41.455  18.698  14.297
 8167W        W80427  13.066  29.707   4.289
 8168W        W80428  38.481   5.286  14.019
 8169W        W80429   9.886  15.899   2.779
 8170W        W80430  25.965   0.229   3.924
 8171W        W80431  39.014  13.865  12.174
 8172W        W80432   4.898  37.345   2.929
 8173W        W80433  30.629  13.675   1.640
 8174W        W80434  25.692  18.535  14.349
 8175W        W80435  22.545  27.684   3.708
 8176W        W80436  42.749  31.823   0.865
 8177W        W80437  27.360  31.217   5.091
 8178W        W80438  11.158   3.502  14.032
 8179W        W80439  40.369  19.616   2.007
 8180W        W80440  27.877  20.454  12.954
 8181W        W80441  33.079  42.017  13.256
 8182W        W80442  43.847   8.940   4.217
 8183W        W80443  18.931  18.937  13.533
 8184W        W80444   4.696  25.676   9.916
 8185W        W80445  18.067  30.105  14.471
 8186W        W80446  14.385  17.897  14.992
 8187W        W80447   1.033  14.455   2.376
 8188W        W80448   7.674  40.461  11.292
 8189W        W80449   4.755   0.979  11.051
 8190W        W80450  38.576  11.162  14.809
 8191W        W80451  18.486   8.228  13.544
 8192W        W80452  25.620  28.171   3.454
 8193W        W80453  13.830  13.610   1.385
 8194W        W80454  28.461  37.330  14.273
 8195W        W80455  23.553  41.056   2.783
 8196W        W80456  32.902  33.166  10.822
 8197W        W80457  35.325  32.815  10.591
 8198W        W80458   4.863  12.747  10.203
 8199W        W80459  18.127  15.020  10.847
 8200W        W80460  29.877  37.787   2.284
 8201W        W80461  25.962  14.779  11.640
 8202W        W80462  35.477  23.132   1.245
 8203W        W80463   9.677  43.193  14.562
 8204W        W80464   2.219  12.289  12.592
 8205W        W80465  43.344  26.577   9.968
 8206W        W80466  25.714  41.943   2.211
 8207W        W80467  16.047  18.099  14.613
 8208W        W80468  16.666  41.850  12.214
 8209W        W80469  33.363  23.103  12.694
 8210W        W80470  30.311  43.095  13.613
 8211W        W80471  26.589   0.575  12.374
 8212W        W80472  44.535  11.190   3.849
 8213W        W80473   4.993   4.259  13.099
 8214W        W80474  12.865   6.600  11.279
 8215W        W80475  41.443  44.707   0.442
 8216W        W80476  30.722  11.951   1.336
 8217W        W80477  23.160  18.565   1.327
 8218W        W80478  30.441   2.274  13.387
 8219W        W80479  21.485  34.887  14.447
 8220W        W80480  33.587  11.676  10.799
 8221W        W80481  18.156  43.420  14.821
 8222W        W80482  18.938   4.746  12.610
 8223W        W80483   7.295   8.234  13.498
 8224W        W80484  31.607  30.659  12.041
 8225W        W80485  23.058   1.743  14.777
 8226W        W80486  41.538  13.336   4.155
 8227W        W80487  39.155  38.208  12.345
 8228W        W80488  39.220  24.464   5.076
 8229W        W80489   9.720   9.405  13.056
 8230W        W80490   1.537  26.566  11.306
 8231W        W80491  23.143  18.378   2.781
 8232W        W80492   3.503  33.431  12.503
 8233W        W80493  24.992  10.348   4.615
 8234W        W80494  28.619  18.688   2.337
 8235W        W80495  12.528  40.888   4.381
 8236W        W80496  42.486  34.111  11.153
 8237W        W80497  39.052  26.170  13.833
 8238W        W80498  34.034   9.828   2.253
 8239W        W80499  28.487   4.852   3.632
 8240W        W80500  13.651  21.571  14.382
 8241W        W80501  26.275  11.839  10.770
 8242W        W80502   8.421  25.870   3.282
 8243W        W80503  30.969  29.022   3.434
 8244W        W80504  12.619   9.646   0.757
 8245W        W80505  38.332  38.497  12.876
 8246W        W80506  34.948  10.222  13.314
 8247W        W80507  13.853  26.231  13.440
 8248W        W80508  28.727  14.569   1.223
 8249W        W80509  40.956  24.298   1.811
 8250W        W80510  23.823  25.891  13.380
 8251W        W80511  24.148  38.782   0.987
 8252W        W80512  15.535  13.236   3.049
 8253W        W80513  40.133  35.077  11.533
 8254W        W80514   1.653  32.794  13.936
 8255W        W80515  28.482   9.310  10.636
 8256W        W80516  13.236  31.587   3.262
 8257W        W80517  12.633  37.013   2.377
 8258W        W80518  24.080  27.222  11.002
 8259W        W80519  39.099   2.927   0.396
 8260W        W80520  10.082   8.717   2.607
 8261W        W80521  17.223  21.264   4.524
 8262W        W80522  22.662   9.963   0.695
 8263W        W80523  36.538   6.247   3.788
 8264W        W80524  40.549   3.865  11.210
 8265W        W80525   8.745   8.137  14.453
 8266W        W80526   9.579  23.431   0.897
 8267W        W80527  32.576   4.701   0.836
 8268W        W80528  25.407  41.675  13.874
 8269W        W80529  21.982  18.712   0.918
 8270W        W80530   2.452  12.296   1.440
 8271W        W80531  24.242  16.862  14.935
 8272W        W80532   0.157   8.876  14.437
 8273W        W80533  38.497   4.629  13.843
 8274W        W80534  10.904  21.619  13.568
 8275W        W80535  38.696   1.771  13.078
 8276W        W80536  13.083  22.699  14.941
 8277W        W80537  19.984   6.242   1.831
 8278W        W80538  40.529  26.578   1.126
 8279W        W80539  12.155   4.363   3.006
 8280W        W80540   2.332  16.374   2.760
 8281W        W80541  24.132  27.405  14.428
 8282W        W80542  30.367  40.525   2.193
 8283W        W80543  24.617  24.968   2.570
 8284W        W80544  24.648   9.626  14.397
 8285W        W80545  12.463  42.068  11.133
 8286W        W80546  16.087  43.250  11.706
 8287W        W80547  13.775   2.730   1.545
 8288W        W80548  35.092  37.018   3.756
 8289W        W80549   7.186  43.690   0.490
 8290W        W80550  28.172  23.617   1.307
 8291W        W80551  29.025  31.859   0.785
 8292W        W80552  17.667  44.322  14.832
 8293W        W80553  42.736  37.414   2.894
 8294W        W80554  29.936  22.510  11.409
 8295W        W80555  19.044  35.117  14.437
 8296W        W80556   1.905  34.220  11.582
 8297W        W80557  39.950  29.645  12.426
 8298W        W80558  32.497   1.762   3.292
 8299W        W80559   3.288  17.627   4.658
 8300W        W80560   9.393  39.977   3.163
 8301W        W80561  18.637  40.625   2.122
 8302W        W80562  26.163  43.364  13.923
 8303W        W80563   7.701   1.497  12.425
 8304W        W80564  14.263  34.185   3.190
 8305W        W80565  19.556  33.540  11.916
 8306W        W80566  39.437  21.121   1.679
 8307W        W80567  23.422  34.301   1.341
 8308W        W80568  11.828  21.372   4.679
 8309W        W80569  36.719  30.641  14.977
 8310W        W80570  34.871   7.827   3.704
 8311W        W80571  18.051  40.233   0.468
 8312W        W80572  36.413  20.027  12.249
 8313W        W80573  40.936  29.434  13.818
 8314W        W80574  34.363  43.562  12.777
 8315W        W80575  16.680  28.157   1.689
 8316W        W80576   5.561   7.288  12.530
 8317W        W80577  27.482  23.557   3.840
 8318W        W80578  21.575  27.958  11.983
 8319W        W80579  10.730  37.520  13.038
 8320W        W80580  32.919  31.435  13.789
 8321W        W80581  32.994  20.132   9.854
 8322W        W80582  43.816  27.635  11.447
 8323W        W80583  28.957  16.068  14.820
 8324W        W80584  20.106  18.013  10.688
 8325W        W80585  13.850  39.542   1.802
 8326W        W80586  34.502  24.012  12.113
 8327W        W80587  30.411  22.834   3.388
 8328W        W80588  11.149  33.100  14.438
 8329W        W80589  12.016   5.865  12.062
 8330W        W80590  21.287  16.106   3.674
 8331W        W80591  37.324   3.914  10.508
 8332W        W80592  10.911   6.205  13.538
 8333W        W80593  35.099  24.757   4.285
 8334W        W80594  30.081  44.123  11.601
 8335W        W80595  43.057  33.442  13.923
 8336W        W80596  21.715   5.862   0.946
 8337W        W80597  31.905   3.776  13.020
 8338W        W80598   9.414  27.608   2.225
 8339W        W80599  42.978   9.356   4.097
 8340W        W80600   3.270  31.439  14.844
 8341W        W80601   8.747  18.277  13.014
 8342W        W80602  43.275  16.132   4.924
 8343W        W80603  38.694  43.347   0.710
 8344W        W80604  21.066  22.061   2.347
 8345W        W80605   7.052   5.981   0.994
 8346W        W80606  18.650  42.840  12.440
 8347W        W80607  32.919   7.971   0.503
 8348W        W80608   7.482   0.218   3.000
 8349W        W80609  11.822  26.553   2.712
 8350W        W80610  43.029   9.157   3.180
 8351W        W80611  22.588  10.204  14.814
 8352W        W80612  10.216   8.757   0.739
 8353W        W80613  30.668  29.658  14.709
 8354W        W80614  39.680  25.843   2.709
 8355W        W80615  28.923  29.262   4.195
 8356W        W80616  29.100  30.903   2.890
 8357W        W80617  43.694  26.613   2.416
 8358W        W80618  26.655  13.711  13.919
 8359W        W80619  21.121   4.258   0.661
 8360W        W80620  25.947  18.311   0.835
 8361W        W80621   6.225   7.948  14.257
 8362W        W80622  32.325   5.962   0.413
 8363W        W80623   7.973  37.799  13.213
 8364W        W80624  35.103  37.818   0.431
 8365W        W80625  35.585  10.620   4.565
 8366W        W80626  33.118  14.128   2.372
 8367W        W80627  33.520  11.629  10.282
 8368W        W80628   4.150  19.520  14.419
 8369W        W80629  22.085  38.913   1.443
 8370W        W80630  28.655  43.450  13.106
 8371W        W80631  21.527  31.415  11.217
 8372W        W80632  22.072  43.273   4.058
 8373W        W80633  27.287  33.063  14.941
 8374W        W80634   9.777  26.893   0.030
 8375W        W80635   1.325  41.731  12.402
 8376W        W80636  42.926  35.716  13.549
 8377W        W80637  16.601  18.810   1.289
 8378W        W80638  41.254  39.173   0.762
 8379W        W80639   9.365  39.393  12.951
 8380W        W80640  34.034  22.761   2.350
 8381W        W80641  44.081   0.017   0.865
 8382W        W80642  38.983  43.359   0.274
 8383W        W80643  39.098   8.832   0.205
 8384W        W80644  24.624  28.117   0.015
 8385W        W80645  14.189   5.252   4.301
 8386W        W80646  29.696  35.954  11.068
 8387W        W80647  44.683  13.879   1.793
 8388W        W80648  22.483   1.894  12.700
 8389W        W80649   9.540   1.214  12.493
 8390W        W80650  41.646  13.323   0.534
 8391W        W80651  41.942   0.068   1.377
 8392W        W80652  15.844  39.464   2.742
 8393W        W80653   1.950  18.086  11.152
 8394W        W80654   4.697  15.063  11.714
 8395W        W80655  12.299  18.967  11.958
 8396W        W80656  40.080  41.241   0.212
 8397W        W80657  14.074   4.670   2.737
 8398W        W80658  43.833  19.098  11.465
 8399W        W80659  37.878  26.156  10.781
 8400W        W80660  32.467  36.735  11.083
 8401W        W80661  24.153   0.008  14.952
 8402W        W80662  13.915   5.965  11.348
 8403W        W80663  18.698  36.795   4.088
 8404W        W80664  19.513  15.261   2.665
 8405W        W80665   3.841   6.680  10.946
 8406W        W80666  39.353  26.490   0.321
 8407W        W80667  19.566  33.403   3.638
 8408W        W80668   2.071  20.683  14.916
 8409W        W80669  29.930   7.659   0.888
 8410W        W80670  21.092  18.605  13.841
 8411W        W80671  29.778  35.023   1.022
 8412W        W80672   1.029  16.718  12.299
 8413W        W80673  39.052  35.458   3.315
 8414W        W80674  18.656  21.420   2.385
 8415W        W80675  36.481  25.210   1.830
 8416W        W80676  19.206   5.378   2.423
 8417W        W80677  25.451   4.735   3.735
 8418W        W80678  39.231  11.262  13.018
 8419W        W80679  22.616  20.111  14.294
 8420W        W80680  36.330  44.998   2.379
 8421W        W80681  28.812  15.583  14.955
 8422W        W80682  30.419   8.666  14.671
 8423W        W80683  36.653  25.467  11.646
 8424W        W80684  33.124  34.047  10.757
 8425W        W80685  37.377   4.421   4.146
 8426W        W80686  10.267  25.541  10.704
 8427W        W80687   5.416  43.038  11.972
 8428W        W80688   9.840   9.840   1.490
 8429W        W80689  39.872   2.070  12.414
 8430W        W80690  39.436  43.648  14.204
 8431W        W80691   4.166   4.595  13.396
 8432W        W80692   4.865   4.358   0.701
 8433W        W80693  14.745  43.788   2.690
 8434W        W80694  35.076   0.244   4.012
 8435W        W80695  35.517  38.054  11.502
 8436W        W80696  42.545   6.684  11.488
 8437W        W80697  29.266  22.051   0.420
 8438W        W80698  20.056  19.578   3.717
 8439W        W80699  10.831   5.426   2.804
 8440W        W80700  20.244   5.240   0.290
 8441W        W80701  21.268  29.649   0.877
 8442W        W80702  11.396  11.226   2.843
 8443W        W80703  44.291  44.861  13.290
 8444W        W80704  11.704  23.965  10.749
 8445W        W80705  39.273  23.993  12.035
 8446W        W80706   5.902  32.159  13.483
 8447W        W80707  20.805  20.414  10.169
 8448W        W80708  20.726  44.025  11.679
 8449W        W80709  15.332  42.750   4.681
 8450W        W80710  43.936  44.025  13.511
 8451W        W80711  44.506   3.869   4.124
 8452W        W80712  24.093  15.563   1.832
 8453W        W80713   5.729  40.097   1.475
 8454W        W80714   6.329  44.093  13.807
 8455W        W80715   2.780  16.551   4.152
 8456W        W80716  18.851  32.312  11.037
 8457W        W80717  31.483  29.181   0.039
 8458W        W80718   2.431  37.662   4.453
 8459W        W80719  39.882  12.388  11.985
 8460W        W80720  19.020  35.786  10.540
 8461W        W80721  22.564  33.077   3.590
 8462W        W80722  42.779  32.073   3.839
 8463W        W80723  43.364  33.165  12.867
 8464W        W80724  15.407  25.566  13.830
 8465W        W80725   7.107   7.190  12.392
 8466W        W80726  32.613  40.479  14.295
 8467W        W80727  37.924  16.701   3.334
 8468W        W80728  13.257  39.413  10.392
 8469W        W80729   4.854  16.759   3.667
 8470W        W80730  12.142  29.671  11.941
 8471W        W80731  21.199  35.115   4.438
 8472W        W80732  16.773  35.303  12.066
 8473W        W80733  34.397  35.069  11.493
 8474W        W80734   1.539  42.347  12.952
 8475W        W80735   6.463  30.643   0.147
 8476W        W80736  19.657  14.822   3.945
 8477W        W80737  31.702   9.867   3.159
 8478W        W80738  23.169  38.932  13.268
 8479W        W80739  19.313  24.653   3.070
 8480W        W80740   4.586  19.617  11.139
 8481W        W80741   7.080  32.517   2.827
 8482W        W80742  33.094  19.697   2.031
 8483W        W80743  27.512   9.295  13.544
 8484W        W80744  10.211  33.345   1.588
 8485W        W80745  38.015  23.104   0.729
 8486W        W80746  22.531  34.292  11.928
 8487W        W80747  36.929   0.053  12.956
 8488W        W80748  38.447  10.717  14.480
 8489W        W80749  40.972  21.780   0.324
 8490W        W80750  34.899  36.903  14.003
 8491W        W80751  11.627  22.487  11.538
 8492W        W80752   3.956   3.262  14.889
 8493W        W80753  29.064  41.733   0.640
 8494W        W80754  32.907  22.272   1.629
 8495W        W80755  31.326   1.046  13.565
 8496W        W80756   8.859   7.459  14.017
 8497W        W80757  32.405   4.173   1.782
 8498W        W80758  23.808  28.783  12.032
 8499W        W80759  28.648  13.522   2.608
 8500W        W80760  11.132  32.455   3.273
 8501W        W80761  19.590  40.710   4.609
 8502W        W80762  25.741   9.871  14.786
 8503W        W80763  34.166  18.782   5.078
 8504W        W80764  32.635   3.959  11.216
 8505W        W80765  12.714  11.769   0.543
 8506W        W80766  14.341  39.818   4.706
 8507W        W80767  26.470  15.643   2.156
 8508W        W80768  33.109   7.594   0.807
 8509W        W80769  44.309  31.319   0.569
 8510W        W80770  42.325   9.155   0.864
 8511W        W80771  13.944  37.595  13.927
 8512W        W80772  17.175  22.459  11.177
 8513W        W80773  19.392  30.499  14.556
 8514W        W80774  29.143   1.058  11.622
 8515W        W80775  15.665  28.436  13.851
 8516W        W80776  17.892  35.548  13.866
 8517W        W80777  21.026  22.539   1.436
 8518W        W80778   3.203  41.065   3.531
 8519W        W80779  24.690   6.429  13.943
 8520W        W80780  11.948   0.781   2.704
 8521W        W80781  30.020  18.620  12.223
 8522W        W80782  13.583  22.598  11.566
 8523W        W80783  11.322  10.601  13.355
 8524W        W80784   6.066  42.681   5.176
 8525W        W80785   7.728  33.067   4.560
 8526W        W80786  25.604  33.126  11.047
 8527W        W80787  10.650  37.863  11.673
 8528W        W80788   5.453  29.698   0.312
 8529W        W80789  42.028  36.379   0.938
 8530W        W80790   6.374   9.571  13.508
 8531W        W80791  34.339   2.084   1.841
 8532W        W80792   7.576  30.662  12.380
 8533W        W80793  25.021  44.686  11.466
 8534W        W80794  32.009  14.983   0.393
 8535W        W80795  13.074  30.613  12.634
 8536W        W80796  28.548   6.469  10.436
 8537W        W80797  17.258  29.641   0.005
 8538W        W80798  32.188  43.891  12.456
 8539W        W80799  13.152  39.750  10.009
 8540W        W80800   8.248  41.993  12.863
 8541W        W80801  21.832  11.189  11.937
 8542W        W80802  37.606  28.045   1.719
 8543W        W80803  23.068  18.503  12.966
 8544W        W80804  19.032   3.860   0.934
 8545W        W80805  21.751  25.677   2.760
 8546W        W80806  21.242  27.379   5.584
 8547W        W80807  19.587  25.613   0.429
 8548W        W80808  23.991  24.652  12.565
 8549W        W80809  34.802  41.835   4.589
 8550W        W80810  17.669  31.110   0.737
 8551W        W80811  37.038  28.182  12.134
 8552W        W80812  41.999  16.663  12.405
 8553W        W80813   1.213  34.928   3.436
 8554W        W80814  44.206  42.849   4.600
 8555W        W80815  42.267  34.881   4.063
 8556W        W80816  23.261  42.911   4.596
 8557W        W80817  39.337  10.617   2.702
 8558W        W80818  44.673  35.146   4.085
 8559W        W80819   1.112  38.815   1.864
 8560W        W80820  16.699  12.366  11.877
 8561W        W80821   8.293  38.916   1.299
 8562W        W80822   9.712  41.107   3.888
 8563W        W80823  15.241   7.227  13.758
 8564W        W80824  43.800  20.799   3.222
 8565W        W80825  29.662  35.319   2.143
 8566W        W80826  42.756  11.308  13.898
 8567W        W80827  23.570   2.322   1.416
 8568W        W80828  38.638  33.619  13.647
 8569W        W80829  26.924  25.584  14.473
 8570W        W80830  30.613  32.129  11.068
 8571W        W80831  43.464  35.009  12.155
 8572W        W80832  27.001  18.036   2.499
 8573W        W80833  41.829  37.052  12.075
 8574W        W80834  20.571  29.158  14.893
 8575W        W80835  44.149  10.752  13.003
 8576W        W80836  15.221  29.574  11.059
 8577W        W80837  35.085  17.727   3.585
 8578W        W80838  39.050   5.728   2.490
 8579W        W80839  20.062  43.424   1.650
 8580W        W80840  15.603  39.809   3.345
 8581W        W80841   2.096  28.089   0.665
 8582W        W80842  28.748  20.549   3.492
 8583W        W80843   2.349   0.832  12.548
 8584W        W80844  34.140  40.549  12.442
 8585W        W80845  41.573  32.849  12.301
 8586W        W80846   9.868  31.199   4.165
 8587W        W80847   1.775   4.394  10.719
 8588W        W80848  36.894  35.595   0.971
 8589W        W80849   6.839  25.172  14.173
 8590W        W80850   9.179  18.719   4.189
 8591W        W80851   0.222  19.592  13.524
 8592W        W80852  35.103  29.630  12.924
 8593W        W80853  10.557  28.311  13.790
 8594W        W80854  18.263  11.785   3.014
 8595W        W80855  27.923  32.657   1.718
 8596W        W80856  35.797   4.311   0.826
 8597W        W80857  44.017   2.809  13.261
 8598W        W80858  25.395   9.255   2.782
 8599W        W80859  23.538  35.378   1.217
 8600W        W80860  27.168  19.731   4.385
 8601W        W80861   6.739  14.399   0.511
 8602W        W80862  21.718  31.086   1.923
 8603W        W80863  24.006  40.845   2.953
 8604W        W80864  11.773  17.901   4.106
 8605W        W80865  10.140   6.659  13.243
 8606W        W80866   4.899  42.981  12.661
 8607W        W80867  41.053  20.647  14.352
 8608W        W80868  11.692   5.520  11.851
 8609W        W80869   1.715  21.233  11.056
 8610W        W80870  39.255  35.069   2.787
 8611W        W80871  17.400  18.715  14.098
 8612W        W80872   8.907  38.582   4.783
 8613W        W80873   7.160  20.780  12.565
 8614W        W80874  21.867  38.175  14.974
 8615W        W80875  37.635  29.409   4.080
 8616W        W80876   9.829  11.091   3.645
 8617W        W80877  21.464  31.590   3.883
 8618W        W80878  22.631  22.293   3.362
 8619W        W80879  24.022  29.087   4.732
 8620W        W80880  39.563  15.238   0.502
 8621W        W80881  11.947   8.652  10.059
 8622W        W80882  44.833  43.294  12.111
 8623W        W80883  23.121  36.380   0.042
 8624W        W80884  33.862   8.818  10.155
 8625W        W80885  41.513  19.658  13.050
 8626W        W80886  28.668  33.863   1.651
 8627W        W80887  13.886  15.902   1.856
 8628W        W80888  31.291   8.610  12.469
 8629W        W80889  21.677  10.570   1.916
 8630W        W80890   4.844  27.582  10.733
 8631W        W80891   5.011  29.969  11.153
 8632W        W80892  12.204  25.728   1.944
 8633W        W80893  24.298  40.819  13.605
 8634W        W80894  13.891  15.893  13.972
 8635W        W80895  27.312  37.905   3.840
 8636W        W80896  24.280   1.802   1.156
 8637W        W80897  19.050  44.544  13.030
 8638W        W80898  38.426  22.194  13.763
 8639W        W80899  26.941  36.175   1.735
 8640W        W80900   1.711  30.097  11.882
 8641W        W80901   1.409  24.990   4.517
 8642W        W80902  25.647  17.680  12.453
 8643W        W80903  16.350  16.236  10.577
 8644W        W80904   5.000  41.965  12.535
 8645W        W80905  37.931  33.589  11.292
 8646W        W80906  10.598  39.050   2.799
 8647W        W80907  19.634  23.477   4.864
 8648W        W80908  12.906  37.467   0.082
 8649W        W80909   3.434  22.712  13.043
 8650W        W80910  24.433  11.134   2.576
 8651W        W80911  29.618  10.606   2.135
 8652W        W80912  41.289   8.257   1.964
 8653W        W80913  14.094  22.591  11.539
 8654W        W80914  11.210   5.665   3.841
 8655W        W80915  43.734  38.675  10.658
 8656W        W80916  28.740   8.457   4.668
 8657W        W80917  34.075  33.010   3.239
 8658W        W80918  19.267  12.177  13.893
 8659W        W80919  38.855  14.258   3.310
 8660W        W80920  18.566  25.648   0.288
 8661W        W80921   7.913   4.947  12.315
 8662W        W80922  37.967  34.308   2.618
 8663W        W80923  44.899  40.519   0.011
 8664W        W80924  34.605  42.421  11.675
 8665W        W80925  11.309   5.851   1.446
 8666W        W80926  10.830  32.019  13.916
 8667W        W80927  24.001  40.118   1.838
 8668W        W80928  44.280   0.956   4.357
 8669W        W80929  39.472  41.239   3.910
 8670W        W80930  29.034  16.333   0.725
 8671W        W80931  21.792  44.520   1.281
 8672W        W80932  41.372  18.846  13.426
 8673W        W80933  32.045   2.421   4.224
 8674W        W80934  41.424   4.324   0.733
 8675W        W80935  13.881  41.380   1.110
 8676W        W80936  44.374   1.069  11.730
 8677W        W80937  23.096  38.066  14.900
 8678W        W80938  29.564  42.410  12.156
 8679W        W80939  31.254  42.372   1.249
 8680W        W80940  24.026   7.144   3.771
 8681W        W80941  12.789   1.383  12.406
 8682W        W80942  27.139   1.026  12.207
 8683W        W80943  33.997  29.374  12.016
 8684W        W80944   5.504  20.137  12.386
 8685W        W80945  20.535  27.917  12.202
 8686W        W80946   1.492  33.023  11.202
 8687W        W80947  18.980  40.389  14.379
 8688W        W80948  11.258  14.392  10.574
 8689W        W80949  12.601  24.196   3.756
 8690W        W80950  25.958  34.619   3.182
 8691W        W80951  27.179  23.971   2.764
 8692W        W80952  31.043  40.963   1.048
 8693W        W80953  14.641  16.182  13.392
 8694W        W80954   5.764  17.164   1.855
 8695W        W80955  31.059  21.035   1.808
 8696W        W80956  32.881  20.063   0.151
 8697W        W80957  32.684  29.399   3.341
 8698W        W80958  30.073  15.069  13.824
 8699W        W80959  35.389   7.824   3.704
 8700W        W80960   8.857   2.024  14.234
 8701W        W80961   1.826   7.938   0.433
 8702W        W80962  32.372  32.874   1.463
 8703W        W80963   9.288   4.417   2.096
 8704W        W80964   1.486  24.580  12.241
 8705W        W80965  22.972  28.932   3.022
 8706W        W80966  41.341  41.526   4.222
 8707W        W80967   2.986  16.768  12.585
 8708W        W80968  37.102  44.561  13.240
 8709W        W80969   6.881  34.665  14.748
 8710W        W80970   1.182  15.101  13.755
 8711W        W80971  16.313   0.520  13.424
 8712W        W80972  12.105   8.302  14.526
 8713W        W80973  15.284  35.631  12.147
 8714W        W80974  38.808  31.811  12.454
 8715W        W80975  30.720  36.537   5.111
 8716W        W80976  22.808  18.902   3.157
 8717W        W80977  18.770  23.140  11.013
 8718W        W80978   5.829  10.172  14.339
 8719W        W80979  34.547  18.746  11.668
 8720W        W80980  32.090  38.012   2.830
 8721W        W80981  21.095   0.251   2.617
 8722W        W80982  16.456  13.007  11.097
 8723W        W80983   7.798  17.672  14.356
 8724W        W80984  42.904  35.877   4.623
 8725W        W80985   0.835   7.449   0.334
 8726W        W80986  19.995  24.726   1.093
 8727W        W80987   8.764  37.427   3.426
 8728W        W80988  28.410  36.883  14.030
 8729W        W80989   9.280  29.615  13.362
 8730W        W80990  38.851   5.175  13.330
 8731W        W80991  13.037  30.163  10.338
 8732W        W80992  36.364   3.123   2.675
 8733W        W80993   7.222  19.688  14.308
 8734W        W80994  27.951  23.425   0.428
 8735W        W80995  24.679  35.561   4.144
 8736W        W80996  17.588  38.063  14.601
 8737W        W80997  38.046  27.570  10.305
 8738W        W80998  25.101  11.097  14.723
 8739W        W80999  32.553  12.627   3.536
 8740W        W81000  26.855  16.755   2.529
 8741W        W81001  10.249  35.512  13.270
 8742W        W81002  21.292  11.636  14.951
 8743W        W81003  43.784   0.566  13.529
 8744W        W81004  35.005  34.762  11.100
 8745W        W81005  28.420  18.518   2.783
 8746W        W81006  17.556  13.698   0.397
 8747W        W81007  25.581  44.803   1.600
 8748W        W81008  10.804  30.961  11.869
 8749W        W81009  15.825  27.004   3.194
 8750W        W81010  13.320  10.544  13.835
 8751W        W81011   0.224  19.986   0.983
 8752W        W81012  36.193   0.440  14.402
 8753W        W81013  15.241  17.506  12.369
 8754W        W81014   0.325  18.068  11.400
 8755W        W81015  23.961  28.068   5.490
 8756W        W81016  42.382  39.520   3.204
 8757W        W81017  23.668  14.400   4.587
 8758W        W81018   3.299   6.638  14.357
 8759W        W81019  34.938  35.087  11.517
 8760W        W81020   3.332  17.886   4.211
 8761W        W81021  19.919  33.080  14.457
 8762W        W81022  27.696  44.823  12.968
 8763W        W81023   9.720   0.587   3.698
 8764W        W81024   3.287   6.383   4.634
 8765W        W81025  13.711  39.406  11.177
 8766W        W81026   1.506  40.565   3.837
 8767W        W81027  30.132   5.663  11.145
 8768W        W81028  13.895  36.483  12.394
 8769W        W81029  38.973  33.521   1.725
 8770W        W81030   6.681  31.941  14.963
 8771W        W81031  10.566   7.206  14.455
 8772W        W81032  42.083   9.728   0.894
 8773W        W81033  29.479  22.647  13.515
 8774W        W81034   0.514  29.579   3.271
 8775W        W81035  44.152  40.363   4.360
 8776W        W81036  30.044  40.800   4.262
 8777W        W81037  21.722  21.005  14.068
 8778W        W81038  21.968  23.280   3.595
 8779W        W81039   1.831  11.801   1.747
 8780W        W81040  40.517  14.472   0.871
 8781W        W81041  38.997   0.410   2.839
 8782W        W81042  16.160  18.272   1.872
 8783W        W81043  34.131  40.261   2.183
 8784W        W81044  42.572  31.462   0.248
 8785W        W81045  33.790  21.687  13.896
 8786W        W81046  27.649   9.146  13.077
 8787W        W81047  36.312  14.749  12.168
 8788W        W81048  39.863  22.236   2.457
 8789W        W81049  18.163  31.866  10.386
 8790W        W81050   2.179  13.041  14.271
 8791W        W81051  31.529  30.071   0.735
 8792W        W81052   5.914  35.716  10.461
 8793W        W81053  10.082  22.480   4.525
 8794W        W81054  28.171  11.542  10.383
 8795W        W81055  28.410  36.995  11.212
 8796W        W81056  22.889   3.292  12.730
 8797W        W81057   3.162   0.977  12.672
 8798W        W81058  25.117  32.626  13.710
 8799W        W81059  37.481  22.960   0.639
 8800W        W81060  21.273  11.105   1.430
 8801W        W81061  11.151  11.586   0.087
 8802W        W81062  42.879   8.151   3.691
 8803W        W81063  39.903  29.757   2.290
 8804W        W81064  41.103  32.574  13.531
 8805W        W81065  10.539  14.324   3.798
 8806W        W81066  42.700  14.378  12.948
 8807W        W81067  25.066   3.460  14.484
 8808W        W81068  38.110  13.795   0.964
 8809W        W81069  21.697   1.730  11.645
 8810W        W81070  33.540  23.974  11.866
 8811W        W81071  19.227   7.926  11.135
 8812W        W81072  28.652  19.240  11.644
 8813W        W81073  34.658  40.355   0.291
 8814W        W81074   0.898  36.615   2.911
 8815W        W81075  10.745  32.000   2.322
 8816W        W81076  11.654  12.378   4.163
 8817W        W81077   6.857  21.616  10.427
 8818W        W81078  21.123  40.182  11.919
 8819W        W81079  13.797  28.170  11.585
 8820W        W81080  41.296  37.878   4.325
 8821W        W81081  24.463  32.612   1.277
 8822W        W81082  18.743   3.410   0.939
 8823W        W81083  21.939   1.415   0.511
 8824W        W81084  22.740  24.123  14.896
 8825W        W81085  24.901  21.284   3.697
 8826W        W81086  20.986  33.891   2.262
 8827W        W81087   1.764  28.034   2.988
 8828W        W81088  31.590  24.065   3.537
 8829W        W81089  22.188   0.712   2.389
 8830W        W81090  14.557   7.208   0.420
 8831W        W81091  11.434   8.312   2.915
 8832W        W81092   3.943  19.752  10.610
 8833W        W81093  15.464   1.398   0.226
 8834W        W81094  18.480  33.078  11.107
 8835W        W81095  34.767  10.619   2.279
 8836W        W81096   1.407  19.737   0.618
 8837W        W81097  17.769   5.748   4.979
 8838W        W81098  44.810   1.419   1.598
 8839W        W81099  23.224   3.020  12.986
 8840W        W81100  37.063  20.204   3.660
 8841W        W81101  30.556  32.646   4.616
 8842W        W81102  14.726  20.047   3.388
 8843W        W81103  14.647  35.331  12.715
 8844W        W81104  30.423  37.474   0.433
 8845W        W81105  27.464  14.383  13.950
 8846W        W81106  37.927  30.561  13.641
 8847W        W81107  32.307  22.005   0.071
 8848W        W81108  30.882   8.560  13.850
 8849W        W81109  21.372  39.484   1.250
 8850W        W81110  16.364  17.222   0.032
 8851W        W81111  31.546  32.133   4.245
 8852W        W81112  16.477  18.108   3.190
 8853W        W81113  40.950  29.530   4.363
 8854W        W81114   2.523   2.665   0.836
 8855W        W81115  14.110   1.379   1.324
 8856W        W81116   9.698  35.931   3.925
 8857W        W81117  14.067  15.428  14.799
 8858W        W81118  34.339   6.700  14.834
 8859W        W81119  30.680  10.694  13.400
 8860W        W81120  21.549  44.807   4.419
 8861W        W81121  16.723  20.095  14.463
 8862W        W81122   1.304  14.123   0.547
 8863W        W81123  22.093  28.094  11.079
 8864W        W81124   4.785  28.619   3.636
 8865W        W81125  22.498  17.305  14.653
 8866W        W81126  38.437  29.072   2.840
 8867W        W81127  38.309  43.399  10.686
 8868W        W81128  39.462  29.951  14.860
 8869W        W81129  12.867   6.680   0.295
 8870W        W81130  23.510  43.908  13.444
 8871W        W81131  11.350  13.604   2.392
 8872W        W81132   6.699  27.776   0.385
 8873W        W81133  15.633  32.791   4.344
 8874W        W81134  30.365  22.236  12.001
 8875W        W81135  23.168  30.212   1.969
 8876W        W81136  40.983  22.011  14.861
 8877W        W81137  28.569  22.540   3.181
 8878W        W81138  21.730  24.742   4.799
 8879W        W81139   7.622  28.071   3.246
 8880W        W81140  36.287  15.406   3.094
 8881W        W81141  18.032  43.520   2.352
 8882W        W81142  27.293  26.671  11.098
 8883W        W81143  27.266   0.914   2.311
 8884W        W81144   8.736  10.921  12.115
 8885W        W81145  30.909  39.675   4.164
 8886W        W81146   0.778  34.120   2.181
 8887W        W81147  30.907  21.883   1.420
 8888W        W81148  10.011  37.459   4.149
 8889W        W81149  22.648   1.512  13.499
 8890W        W81150  34.335   2.006  11.125
 8891W        W81151  12.321  23.571  12.046
 8892W        W81152  11.680  10.924   4.322
 8893W        W81153  23.643  18.366  10.889
 8894W        W81154  29.448  27.487  14.778
 8895W        W81155  16.669   5.037  12.175
 8896W        W81156  15.252  35.850   0.561
 8897W        W81157   6.731  41.350  14.253
 8898W        W81158  39.083  18.131   1.349
 8899W        W81159  28.033   7.258   3.265
 8900W        W81160  11.390  21.750   2.354
 8901W        W81161   8.270   9.337  12.506
 8902W        W81162  21.575  11.196  13.521
 8903W        W81163  34.894  40.476  14.760
 8904W        W81164   0.520  30.608   0.979
 8905W        W81165   5.393  39.620  13.158
 8906W        W81166  18.868   5.837   0.044
 8907W        W81167  30.924  12.289   2.209
 8908W        W81168  42.466  37.852   1.648
 8909W        W81169  10.896  15.544  13.935
 8910W        W81170  25.160   3.710  11.199
 8911W        W81171  20.144  40.305  13.002
 8912W        W81172  35.939  30.872   2.840
 8913W        W81173  28.154  41.802   0.593
 8914W        W81174  14.182  22.735   1.218
 8915W        W81175  23.099  29.484  13.362
 8916W        W81176   5.170   3.829   0.079
 8917W        W81177  28.466   2.749   0.440
 8918W        W81178  29.146  31.643   3.699
 8919W        W81179  38.137  35.406  12.921
 8920W        W81180  39.091   8.977  12.555
 8921W        W81181  32.959  43.447   1.429
 8922W        W81182  25.529   3.345  14.753
 8923W        W81183  19.993  13.753  12.567
 8924W        W81184  20.080  35.661  10.986
 8925W        W81185  28.082   4.880  12.859
 8926W        W81186  39.585  32.147  12.426
 8927W        W81187  42.893  12.931  12.831
 8928W        W81188   3.038  28.964   2.879
 8929W        W81189   2.022  16.015   1.490
 8930W        W81190  29.730  43.609   1.212
 8931W        W81191   7.619  12.839  10.929
 8932W        W81192  18.044  34.771   0.329
 8933W        W81193  31.101  43.398  13.830
 8934W        W81194   8.827   0.500  14.346
 8935W        W81195  13.141  44.627   4.646
 8936W        W81196  35.106  21.749   2.638
 8937W        W81197  19.167  24.176   3.668
 8938W        W81198  28.993  26.154  13.821
 8939W        W81199  17.236  43.705  11.719
 8940W        W81200  32.011   1.283   0.702
 8941W        W81201   4.398  42.914   4.579
 8942W        W81202  41.850  44.995  11.389
 8943W        W81203  19.302  26.610   4.393
 8944W        W81204   0.699   0.328  11.113
 8945W        W81205  18.666  22.147   4.382
 8946W        W81206  14.292  22.457  11.081
 8947W        W81207  37.905  23.808   3.312
 8948W        W81208  14.423  38.460  14.412
 8949W        W81209  32.453  18.203  12.488
 8950W        W81210  21.005  35.936   0.292
 8951W        W81211  36.369  28.673   4.898
 8952W        W81212  34.893  35.153   4.276
 8953W        W81213   1.722  14.238   2.653
 8954W        W81214  10.115  14.121   4.666
 8955W        W81215  26.197  13.047   0.978
 8956W        W81216  35.250  30.909  11.943
 8957W        W81217  17.963  31.495   0.196
 8958W        W81218  12.349  32.795  14.522
 8959W        W81219  17.323  44.750  13.604
 8960W        W81220  41.297  28.589   1.685
 8961W        W81221   7.181  25.945   3.213
 8962W        W81222  20.118   4.395   3.382
 8963W        W81223   4.979  30.966  12.634
 8964W        W81224   6.152  42.228  13.316
 8965W        W81225   1.298   7.286   4.636
 8966W        W81226  36.115  44.296   0.263
 8967W        W81227  30.609   2.582   1.760
 8968W        W81228   9.435  33.382  13.848
 8969W        W81229  14.852   8.116   3.052
 8970W        W81230  33.441  30.046  10.525
 8971W        W81231   3.047  17.592   2.582
 8972W        W81232   9.253   8.883  14.392
 8973W        W81233  12.576   0.704   3.770
 8974W        W81234   3.211  30.630  11.416
 8975W        W81235  12.132  41.803  13.773
 8976W        W81236  16.309  25.594   3.535
 8977W        W81237   8.819  39.022   1.282
 8978W        W81238  12.755   9.227   4.746
 8979W        W81239  37.528   4.896   1.112
 8980W        W81240  29.995  12.775   4.881
 8981W        W81241  37.092  30.280  14.955
 8982W        W81242   2.691  16.123   0.809
 8983W        W81243  37.911  39.418   4.424
 8984W        W81244  22.711  11.159  14.878
 8985W        W81245  11.105  39.455   0.265
 8986W        W81246  40.262  40.538   1.926
 8987W        W81247  41.246  28.765  14.291
 8988W        W81248   5.934  10.194  11.595
 8989W        W81249  44.229  44.291  11.488
 8990W        W81250   2.947  10.746  10.504
 8991W        W81251  10.236  17.363   0.423
 8992W        W81252  35.107  42.295  11.399
 8993W        W81253  36.135  33.203  13.773
 8994W        W81254  31.955  25.797   3.288
 8995W        W81255  10.658  17.335  10.793
 8996W        W81256   8.110  25.686   0.353
 8997W        W81257  24.919   8.803   1.224
 8998W        W81258   0.350  10.738  14.883
 8999W        W81259  33.667  16.456   1.399
 9000W        W81260   6.659  35.834  11.907
 9001W        W81261  20.498  30.453   1.610
 9002W        W81262  44.775   5.476   3.198
 9003W        W81263   1.597   1.014   1.453
 9004W        W81264   3.257  10.813  12.902
 9005W        W81265  33.430  44.968   0.825
 9006W        W81266  16.670  14.369   1.240
 9007W        W81267  34.454  30.750  12.882
 9008W        W81268  42.431  24.160  11.372
 9009W        W81269  44.684  31.973   1.904
 9010W        W81270  36.496  20.054   5.683
 9011W        W81271  30.566   0.457   1.185
 9012W        W81272  27.225  19.459  10.674
 9013W        W81273   9.826  20.003  12.510
 9014W        W81274  41.113  10.267   3.133
 9015W        W81275  43.486   3.123   0.930
 9016W        W81276  39.439   6.638   0.355
 9017W        W81277  22.844  26.136   3.184
 9018W        W81278   5.490  35.661   2.816
 9019W        W81279  44.405   4.808   3.391
 9020W        W81280  20.790  44.950   0.184
 9021W        W81281  24.254  35.957  14.699
 9022W        W81282  15.953  25.601  14.031
 9023W        W81283  14.179   8.127  12.444
 9024W        W81284   5.254   8.058   2.110
 9025W        W81285  28.990  20.574  13.745
 9026W        W81286   6.601  15.186   4.007
 9027W        W81287  23.923  14.915   4.089
 9028W        W81288  26.453   0.389   4.732
 9029W        W81289  15.866  14.695  14.979
 9030W        W81290   1.515  18.068  12.591
 9031W        W81291  24.513  43.970   4.223
 9032W        W81292  23.274   3.501  14.014
 9033W        W81293  12.356  28.585  14.375
 9034W        W81294   4.380  34.857  14.418
 9035W        W81295   9.838  42.999   1.888
 9036W        W81296  20.514  27.191   0.177
 9037W        W81297  15.707  44.387  11.909
 9038W        W81298  25.758  34.692   1.969
 9039W        W81299  14.669   9.304  13.074
 9040W        W81300  19.681   3.334  10.559
 9041W        W81301  33.182   2.867  14.618
 9042W        W81302  27.692  13.183   3.601
 9043W        W81303   4.794  33.547  13.379
 9044W        W81304  28.277   3.352  14.500
 9045W        W81305   2.305   9.892  11.223
 9046W        W81306  12.666  16.750  13.627
 9047W        W81307  11.290  40.128  13.357
 9048W        W81308   9.749  41.383  10.602
 9049W        W81309  25.533  22.191   3.190
 9050W        W81310  35.974  10.375   0.065
 9051W        W81311   5.406  26.613   4.261
 9052W        W81312  30.443   5.893  14.922
 9053W        W81313  21.075  24.233   0.312
 9054W        W81314  10.236  10.349   2.362
 9055W        W81315  24.633  20.633  11.341
 9056W        W81316  13.795  42.803  14.309
 9057W        W81317  31.506  14.973   1.204
 9058W        W81318  29.922   7.933  14.449
 9059W        W81319  21.760   9.726   4.084
 9060W        W81320  35.031  13.709   4.163
 9061W        W81321   6.146  30.879  10.697
 9062W        W81322   3.772  17.154   2.811
 9063W        W81323   8.911   6.602   2.042
 9064W        W81324  26.991  44.926  13.029
 9065W        W81325  17.515  41.405   2.443
 9066W        W81326  10.193  35.193   4.061
 9067W        W81327   6.243  31.896   2.752
 9068W        W81328  13.690  34.900  14.441
 9069W        W81329  42.035  34.987   1.048
 9070W        W81330   0.423   6.969  14.307
 9071W        W81331   9.308  34.688   0.682
 9072W        W81332   8.571  25.155  13.797
 9073W        W81333  34.382   0.980   2.794
 9074W        W81334   6.304  25.686  12.057
 9075W        W81335  19.665  36.499  10.685
 9076W        W81336   9.178   6.448   2.435
 9077W        W81337  19.730  41.863  11.103
 9078W        W81338  21.943  20.931   2.148
 9079W        W81339  35.351  19.144   2.255
 9080W        W81340   1.490   8.280  11.860
 9081W        W81341   5.297  24.680   4.065
 9082W        W81342  13.092  22.253   2.144
 9083W        W81343  33.673   8.972  11.987
 9084W        W81344  35.431  38.341  11.935
 9085W        W81345   7.492  15.548   0.030
 9086W        W81346  43.627  31.525   0.047
 9087W        W81347  19.646   2.625   3.685
 9088W        W81348   6.734  18.510  10.673
 9089W        W81349   5.878  33.426  12.985
 9090W        W81350  26.096  21.829   0.364
 9091W        W81351   2.268  37.458   3.571
 9092W        W81352  39.090  39.036  10.864
 9093W        W81353  33.310  22.468   1.901
 9094W        W81354  32.437  33.611   4.761
 9095W        W81355  41.754  24.720  11.643
 9096W        W81356  28.213   9.238   1.000
 9097W        W81357  33.923  18.064  13.303
 9098W        W81358   7.177  35.967  11.575
 9099W        W81359  18.026  40.022  14.880
 9100W        W81360  25.114  44.683   0.867
 9101W        W81361  11.739  43.462   4.106
 9102W        W81362  35.552  33.427  12.935
 9103W        W81363  18.253   0.337   2.184
 9104W        W81364  28.070  38.570   1.707
 9105W        W81365  29.926  21.929  12.064
 9106W        W81366  32.122  26.180  11.045
 9107W        W81367  37.942  37.105   0.948
 9108W        W81368  42.345  19.167  11.494
 9109W        W81369  27.959  40.095   1.366
 9110W        W81370  33.615  26.539   1.128
 9111W        W81371  17.265  38.155  13.668
 9112W        W81372  35.351  12.788   1.377
 9113W        W81373  29.646   3.780  10.612
 9114W        W81374  27.286   7.734   2.665
 9115W        W81375  32.687   6.831   1.339
 9116W        W81376  31.482  32.962   3.877
 9117W        W81377  44.758  11.518  11.029
 9118W        W81378   0.202  29.210   2.092
 9119W        W81379  12.156   4.281  12.632
 9120W        W81380  32.634  11.233   3.679
 9121W        W81381   2.465  41.948  12.888
 9122W        W81382  26.613   5.344  14.526
 9123W        W81383  35.190   2.883  14.907
 9124W        W81384  38.308  16.291  12.926
 9125W        W81385  41.544  37.111  13.415
 9126W        W81386   1.287  41.563  13.292
 9127W        W81387   7.207  12.928   4.060
 9128W        W81388   9.185  16.974  14.066
 9129W        W81389  23.780  23.117   4.440
 9130W        W81390   3.769  24.433  11.627
 9131W        W81391   3.392  16.075   4.578
 9132W        W81392  24.704  23.277  13.784
 9133W        W81393  33.113   3.976   1.825
 9134W        W81394  29.848  41.399  13.294
 9135W        W81395   4.668  31.185  13.963
 9136W        W81396   0.381  37.511  10.112
 9137W        W81397  21.661   4.197   2.432
 9138W        W81398  12.737  14.482   0.413
 9139W        W81399  13.701   1.894  13.057
 9140W        W81400  27.584  26.065   1.980
 9141W        W81401  27.495   6.959   2.162
 9142W        W81402   2.198  37.355   0.850
 9143W        W81403  44.481   5.741   4.768
 9144W        W81404  20.804  39.962  13.550
 9145W        W81405  40.847  20.633  10.653
 9146W        W81406  27.641  39.130   1.243
 9147W        W81407  23.544  17.641   0.890
 9148W        W81408  24.567  39.999  13.547
 9149W        W81409  34.151  44.526   3.820
 9150W        W81410  42.848  23.852  11.359
 9151W        W81411  41.347  39.138   0.233
 9152W        W81412  32.453   2.653  12.159
 9153W        W81413  22.136   4.310   4.289
 9154W        W81414  16.131  42.525   0.930
 9155W        W81415  15.625  33.917  14.266
 9156W        W81416   7.742  32.448  13.423
 9157W        W81417  29.859   9.485   1.165
 9158W        W81418  14.781  13.761  14.790
 9159W        W81419  24.431  13.871  14.557
 9160W        W81420  13.247   5.679  12.824
 9161W        W81421  33.849   1.315   3.991
 9162W        W81422  34.606   8.804  12.579
 9163W        W81423  15.565   1.789   4.174
 9164W        W81424  25.106  33.633   1.738
 9165W        W81425  26.013   5.635  13.912
 9166W        W81426   0.954  38.520  10.892
 9167W        W81427  24.070  12.312  10.711
 9168W        W81428  16.105  40.507   4.657
 9169W        W81429   6.868  12.311   1.947
 9170W        W81430  29.935  11.339   2.544
 9171W        W81431  21.657  13.752  12.366
 9172W        W81432  33.395   5.257   1.735
 9173W        W81433   3.521  41.007  11.676
 9174W        W81434  24.741  33.493   0.733
 9175W        W81435  32.018  12.098  13.952
 9176W        W81436  26.983   5.154  12.127
 9177W        W81437  21.808   4.456  11.388
 9178W        W81438  17.058   7.224  12.022
 9179W        W81439  26.604  44.787  11.935
 9180W        W81440  31.112   8.410  11.860
 9181W        W81441   9.158   7.683  14.847
 9182W        W81442  33.116  30.015   3.573
 9183W        W81443  44.674  26.757   2.232
 9184W        W81444  30.847  25.694  11.239
 9185W        W81445  10.594  22.041  13.529
 9186W        W81446  14.412  35.221  11.763
 9187W        W81447  27.028   2.345  10.674
 9188W        W81448  32.373  38.427  13.508
 9189W        W81449  19.602  22.523  14.551
 9190W        W81450  23.708  18.528   2.942
 9191W        W81451  25.301  23.494   3.622
 9192W        W81452  28.475  28.553  10.516
 9193W        W81453   9.986  29.064  12.949
 9194W        W81454  28.018   0.328   1.213
 9195W        W81455   5.166   8.085  11.418
 9196W        W81456  41.563  25.025   0.882
 9197W        W81457  35.071  22.086   4.643
 9198W        W81458   2.888   1.871   2.852
 9199W        W81459  13.549  16.100  10.608
 9200W        W81460  34.840   9.032  13.791
 9201W        W81461  41.335  15.152  11.475
 9202W        W81462  20.032  32.044  13.457
 9203W        W81463  25.609  23.748  13.596
 9204W        W81464  21.701  27.811   3.156
 9205W        W81465  26.427  29.520   4.089
 9206W        W81466  32.411  28.200  14.876
 9207W        W81467  26.484  39.392   3.349
 9208W        W81468  41.929  15.284   0.514
 9209W        W81469   2.027  16.224  11.840
 9210W        W81470   4.358  36.832   3.133
 9211W        W81471  41.829  32.843   3.562
 9212W        W81472  43.566  17.483   3.610
 9213W        W81473   2.669  23.283   1.851
 9214W        W81474  26.489  36.338   3.493
 9215W        W81475  16.784  15.707   9.796
 9216W        W81476  21.368  16.882  13.452
 9217W        W81477  14.365   5.208   1.327
 9218W        W81478  21.482  40.991  11.167
 9219W        W81479   8.183   2.409   0.227
 9220W        W81480   9.508   6.102   3.478
 9221W        W81481  42.913  43.699  12.776
 9222W        W81482  34.262  32.515   3.137
 9223W        W81483  20.660  14.165   3.642
 9224W        W81484  10.861  40.397   2.034
 9225W        W81485  36.044  25.790   0.313
 9226W        W81486  44.768  40.091  12.944
 9227W        W81487  28.946   9.139   4.227
 9228W        W81488  32.419  25.246  12.492
 9229W        W81489  28.955  12.671   1.358
 9230W        W81490  18.492  26.020  12.458
 9231W        W81491  10.519  18.252  11.465
 9232W        W81492  20.714  19.099   2.707
 9233W        W81493  18.039  39.017   1.382
 9234W        W81494  12.546  28.722   3.661
 9235W        W81495   6.871  25.655  13.371
 9236W        W81496  17.548  32.901  14.766
 9237W        W81497   6.475   0.625  13.433
 9238W        W81498   4.299  24.175   0.982
 9239W        W81499  33.358   5.763  14.484
 9240W        W81500  32.265  19.197   3.734
 9241W        W81501  41.391   3.203  12.024
 9242W        W81502  38.399   0.821   0.878
 9243W        W81503  29.410   7.327   0.316
 9244W        W81504   2.487   2.644   1.728
 9245W        W81505  32.894  31.509  11.409
 9246W        W81506  38.106  41.047  10.755
 9247W        W81507  43.576  28.560   4.106
 9248W        W81508  17.499  34.853   4.213
 9249W        W81509  18.551   4.564  14.389
 9250W        W81510  28.687  38.746   1.376
 9251W        W81511  23.707  24.746   3.101
 9252W        W81512  15.945  40.242   3.381
 9253W        W81513  41.785   1.335   0.717
 9254W        W81514  14.943  40.774   2.820
 9255W        W81515  41.887  44.493   0.174
 9256W        W81516  40.099   8.879  13.423
 9257W        W81517   5.301   9.405   4.287
 9258W        W81518  18.268  23.736  10.700
 9259W        W81519  43.834  10.748   0.967
 9260W        W81520  20.561  27.947   0.727
 9261W        W81521   7.297  42.591  11.531
 9262W        W81522   0.856   5.885  10.809
 9263W        W81523   8.078   0.913   4.091
 9264W        W81524  18.296  21.522   2.770
 9265W        W81525  36.525   1.348   4.659
 9266W        W81526  10.364  26.624   3.163
 9267W        W81527  26.847  19.619   0.339
 9268W        W81528   6.291  41.068  10.679
 9269W        W81529  27.760  24.663   2.156
 9270W        W81530   6.451  41.975   1.950
 9271W        W81531  28.161  10.719  12.186
 9272W        W81532  35.207  33.593   3.620
 9273W        W81533   5.648  16.855  12.491
 9274W        W81534  41.983  14.020   4.982
 9275W        W81535  17.641  21.250  11.079
 9276W        W81536  37.373  42.072   2.616
 9277W        W81537  34.862  32.584  13.125
 9278W        W81538  41.253  15.173   3.921
 9279W        W81539   7.897   2.961   4.256
 9280W        W81540  11.149  33.992  10.573
 9281W        W81541  23.975   5.859  11.674
 9282W        W81542   3.849   4.051   3.769
 9283W        W81543  20.801  42.010   1.710
 9284W        W81544  35.171  35.552   1.460
 9285W        W81545   3.485  37.251   4.100
 9286W        W81546  36.293  34.398   3.651
 9287W        W81547  22.742  18.581  12.169
 9288W        W81548   5.598   7.593  10.800
 9289W        W81549   0.195  21.086   3.632
 9290W        W81550   1.334  18.991   1.429
 9291W        W81551  21.230  23.487   4.131
 9292W        W81552  33.397  23.679   3.246
 9293W        W81553  42.555  37.884  13.877
 9294W        W81554  12.080  24.883   3.621
 9295W        W81555  29.561   9.247  14.418
 9296W        W81556  31.257   5.455  14.893
 9297W        W81557  22.383  40.401   3.554
 9298W        W81558  28.930  42.793   4.592
 9299W        W81559  16.782   2.533  11.070
 9300W        W81560  28.930  32.240   4.900
 9301W        W81561  40.348   4.394   1.477
 9302W        W81562  30.193  13.482   0.399
 9303W        W81563  27.440  39.783   4.202
 9304W        W81564   8.114  13.087  13.798
 9305W        W81565  34.618   4.964   2.715
 9306W        W81566  16.023  33.099  11.693
 9307W        W81567   3.369  26.424  11.621
 9308W        W81568  25.203  18.773  14.557
 9309W        W81569   3.466  12.667  12.058
 9310W        W81570  26.844   8.882  10.372
 9311W        W81571  18.124  38.408   4.601
 9312W        W81572  30.724  15.397   1.687
 9313W        W81573  41.858  36.801   0.329
 9314W        W81574  24.467  10.667  14.696
 9315W        W81575  33.915  25.710  13.967
 9316W        W81576  19.509   9.641   1.913
 9317W        W81577  20.333   6.896   2.719
 9318W        W81578  30.420  30.863  11.539
 9319W        W81579  19.988   2.750  10.604
 9320W        W81580  25.189  34.074   1.254
 9321W        W81581  31.045   6.682   2.225
 9322W        W81582  18.596  34.771  13.162
 9323W        W81583  41.517  22.145  11.146
 9324W        W81584   1.548   2.732  11.923
 9325W        W81585  10.838  15.704   1.336
 9326W        W81586  15.689   6.235   1.290
 9327W        W81587  13.608  44.890  12.859
 9328W        W81588  18.525  30.178  13.141
 9329W        W81589  10.158   5.789  14.578
 9330W        W81590   5.728  16.287  12.625
 9331W        W81591  22.491  11.677   1.729
 9332W        W81592   6.903  44.940   3.650
 9333W        W81593  42.742  23.822   4.221
 9334W        W81594  37.968   7.893   3.211
 9335W        W81595  18.818  33.567  10.505
 9336W        W81596  31.602  10.519  11.360
 9337W        W81597   3.453  18.808   4.153
 9338W        W81598  23.190   2.956  11.577
 9339W        W81599   3.145   1.402  11.721
 9340W        W81600   9.698  21.273   2.583
 9341W        W81601   9.735  42.804  10.886
 9342W        W81602  36.812  28.478  12.509
 9343W        W81603  35.972   0.953   2.914
 9344W        W81604   1.532  44.627  12.994
 9345W        W81605   1.939  26.638  13.406
 9346W        W81606  33.666  32.793  13.398
 9347W        W81607   0.359  32.519  12.494
 9348W        W81608  43.531   5.216   2.831
 9349W        W81609   6.484   7.185  13.641
 9350W        W81610  22.725  40.145   3.159
 9351W        W81611   7.363  35.859   1.836
 9352W        W81612   5.682   2.382   1.382
 9353W        W81613  18.307  22.483  13.670
 9354W        W81614  18.220  10.310   0.940
 9355W        W81615  39.281  44.272   1.156
 9356W        W81616  38.780  26.343   2.731
 9357W        W81617  36.340  43.014  14.481
 9358W        W81618   1.926   8.557  11.743
 9359W        W81619  21.946  34.162  13.413
 9360W        W81620  22.812  22.195   2.379
 9361W        W81621   1.316   4.710   4.773
 9362W        W81622  10.064   1.548   3.830
 9363W        W81623   7.594  14.157   0.240
 9364W        W81624   5.331  11.792  14.243
 9365W        W81625  44.364  30.025  14.840
 9366W        W81626  31.946  37.665  11.610
 9367W        W81627   3.354   6.832  10.754
 9368W        W81628  36.207  27.375   0.898
 9369W        W81629   3.800  24.471  14.331
 9370W        W81630   5.403  40.785   3.814
 9371W        W81631  39.507  18.668  14.393
 9372W        W81632  27.559   5.755   2.905
 9373W        W81633  11.345  21.200   0.904
 9374W        W81634  23.249  21.689  14.079
 9375W        W81635  38.528  31.395  12.307
 9376W        W81636  18.604  43.523  11.215
 9377W        W81637   6.962  13.350   3.310
 9378W        W81638   5.702  25.729  11.732
 9379W        W81639  29.670  31.476   3.673
 9380W        W81640  20.087  26.714  12.115
 9381W        W81641   3.847  14.830   4.450
 9382W        W81642  37.343  20.718   3.899
 9383W        W81643   3.692  13.059   1.200
 9384W        W81644  15.764   1.383   3.184
 9385W        W81645  27.634  20.017  13.082
 9386W        W81646  17.344  23.197  10.625
 9387W        W81647  15.296  25.989  12.853
 9388W        W81648  26.532  43.247  11.996
 9389W        W81649  24.112  20.368  13.799
 9390W        W81650   5.977  25.698   2.263
 9391W        W81651   0.605  32.666   0.444
 9392W        W81652  25.106  15.225   1.728
 9393W        W81653  15.577  38.046   2.832
 9394W        W81654  13.739  17.712   3.706
 9395W        W81655   1.229  19.713   4.132
 9396W        W81656  37.994  33.925   0.901
 9397W        W81657  23.949   2.833  11.018
 9398W        W81658  23.014  38.119   0.954
 9399W        W81659   7.686  25.215  10.537
 9400W        W81660   3.799  27.751  13.579
 9401W        W81661   4.955  24.757  10.795
 9402W        W81662  22.326  12.027  11.888
 9403W        W81663  30.582  16.608  10.661
 9404W        W81664  33.334  39.421  12.906
 9405W        W81665  35.519  22.398  10.708
 9406W        W81666   7.353  25.616   1.483
 9407W        W81667  25.651  26.168  11.819
 9408W        W81668   7.319  25.594  10.641
 9409W        W81669  19.211  21.338  13.106
 9410W        W81670  25.289  41.476   3.968
 9411W        W81671   9.248  18.679  12.462
 9412W        W81672   4.323  24.443   3.245
 9413W        W81673  34.472  17.555   4.257
 9414W        W81674  31.662  13.526  13.721
 9415W        W81675   1.818   9.351  10.719
 9416W        W81676  15.228  18.253   4.789
 9417W        W81677  10.369  44.936  10.662
 9418W        W81678   0.008  28.627  14.456
 9419W        W81679  11.013  15.672   2.291
 9420W        W81680  22.641  29.695   1.148
 9421W        W81681  17.703  11.748   3.101
 9422W        W81682  20.965  14.743  13.419
 9423W        W81683  38.083  36.075   3.817
 9424W        W81684  26.244  42.563  12.233
 9425W        W81685  19.067   5.799   2.676
 9426W        W81686  32.628  31.024   4.316
 9427W        W81687  23.143   9.871   1.807
 9428W        W81688  26.948  36.490  14.793
 9429W        W81689  27.755  42.407  13.603
 9430W        W81690   7.368  26.332  12.326
 9431W        W81691  18.186  21.275   0.696
 9432W        W81692  39.220   4.867   2.735
 9433W        W81693  29.169  39.024  14.444
 9434W        W81694  33.467  10.141   2.768
 9435W        W81695   4.710   2.408   2.389
 9436W        W81696  19.849  40.746  13.074
 9437W        W81697  29.877   0.071  11.520
 9438W        W81698  35.555  21.549   5.891
 9439W        W81699  31.961  25.040   3.640
 9440W        W81700  32.953  25.712  11.412
 9441W        W81701   0.219  34.493  14.053
 9442W        W81702  40.811   0.851   4.317
 9443W        W81703  30.128  39.238  11.605
 9444W        W81704  32.078  33.905  12.174
 9445W        W81705   0.831  25.043   3.157
 9446W        W81706  25.037  24.118  11.049
 9447W        W81707  38.036  19.993  10.652
 9448W        W81708   2.881  11.877   2.230
 9449W        W81709  13.669  21.990  13.345
 9450W        W81710   1.021  23.462   1.304
 9451W        W81711  22.825  15.165  13.015
 9452W        W81712  19.201  25.535  10.585
 9453W        W81713   5.870  17.088   4.572
 9454W        W81714   6.808  13.009   2.897
 9455W        W81715  41.100   0.754  14.289
 9456W        W81716  18.136  36.405   3.762
 9457W        W81717  35.501  18.739  13.121
 9458W        W81718  26.559  30.963   1.348
 9459W        W81719  12.352   1.196   0.741
 9460W        W81720  31.433  42.169   4.556
 9461W        W81721  30.968  33.970  14.762
 9462W        W81722   7.892  22.146   1.645
 9463W        W81723  11.832  16.869   4.160
 9464W        W81724  25.786   8.646   1.608
 9465W        W81725  24.019  30.062  11.880
 9466W        W81726  12.379  37.513   3.581
 9467W        W81727  10.550  30.612  13.594
 9468W        W81728   0.992  19.710   1.963
 9469W        W81729   1.265  43.806   0.479
 9470W        W81730  38.132  32.548   3.735
 9471W        W81731  10.414  21.207  10.618
 9472W        W81732  25.663  31.795   3.660
 9473W        W81733   1.039  11.829  11.733
 9474W        W81734  34.877  38.005   4.303
 9475W        W81735  26.397  42.351   4.267
 9476W        W81736  41.207  32.135  13.863
 9477W        W81737   3.667  32.170   4.673
 9478W        W81738   9.436  20.475  13.598
 9479W        W81739  41.356  31.138   0.549
 9480W        W81740  42.007  28.061   2.248
 9481W        W81741   1.752  23.529   3.320
 9482W        W81742  12.273  18.176   4.108
 9483W        W81743  26.109  44.841  13.378
 9484W        W81744  39.834  32.712   2.388
 9485W        W81745  29.617  38.606   2.252
 9486W        W81746  38.483  42.259  12.966
 9487W        W81747  29.397  28.057  11.412
 9488W        W81748  44.414  42.024   3.924
 9489W        W81749  28.952  18.260   4.479
 9490W        W81750  39.288   6.728   2.743
 9491W        W81751  34.840   5.192  13.375
 9492W        W81752   7.803  32.370  14.316
 9493W        W81753  21.615  12.310  11.550
 9494W        W81754  38.789  32.077  13.202
 9495W        W81755  19.364  40.723  12.304
 9496W        W81756  19.614  30.882   0.501
 9497W        W81757  20.131  37.980  14.451
 9498W        W81758  29.079   7.727   1.402
 9499W        W81759   9.805  33.023   3.374
 9500W        W81760   9.641  28.571  14.079
 9501W        W81761  12.730  20.096   1.803
 9502W        W81762  12.588  30.961   4.615
 9503W        W81763  25.894  31.976  12.417
 9504W        W81764   5.961  30.672   0.344
 9505W        W81765   3.284  28.137  12.901
 9506W        W81766  43.233  25.740   1.834
 9507W        W81767  20.572   5.085   4.403
 9508W        W81768  29.510   9.872  11.654
 9509W        W81769  19.443  27.103   2.318
 9510W        W81770  42.443  36.429  13.107
 9511W        W81771  22.992  16.137   3.277
 9512W        W81772  26.445  38.572   4.913
 9513W        W81773  35.671   7.774   2.307
 9514W        W81774  31.911  10.575   0.583
 9515W        W81775   1.241   2.954   1.293
 9516W        W81776  11.706  29.732  12.955
 9517W        W81777  29.191  15.192  13.255
 9518W        W81778  11.136  30.402  14.513
 9519W        W81779  31.749   3.969  11.691
 9520W        W81780   5.957   8.635  12.865
 9521W        W81781  44.403  11.158  12.189
 9522W        W81782  10.316  20.988  14.904
 9523W        W81783  11.783  16.448  11.286
 9524W        W81784  35.923  31.478   1.155
 9525W        W81785  44.322  41.265   3.167
 9526W        W81786   5.652  40.551   3.244
 9527W        W81787  14.232   1.850   3.810
 9528W        W81788  40.556  35.494  11.074
 9529W        W81789  20.461  39.264  12.496
 9530W        W81790  35.114  27.549  10.792
 9531W        W81791  18.713  31.108   1.775
 9532W        W81792  23.958  41.255   4.112
 9533W        W81793  14.725   5.998  11.499
 9534W        W81794   8.103  37.567  11.110
 9535W        W81795  40.018   7.110  10.607
 9536W        W81796  35.400  37.897  14.992
 9537W        W81797  17.088  38.005   2.701
 9538W        W81798  36.557  31.467   1.892
 9539W        W81799  44.227   3.454  11.099
 9540W        W81800  11.241   3.003   2.780
 9541W        W81801  11.261  39.114  12.155
 9542W        W81802  43.238  20.609   1.193
 9543W        W81803   8.420  39.952  13.442
 9544W        W81804  24.583  42.315  10.942
 9545W        W81805  13.794  27.947   3.609
 9546W        W81806  41.783  38.897  13.006
 9547W        W81807   4.748   6.449   4.145
 9548W        W81808  34.907  12.917  11.302
 9549W        W81809   9.781   4.237  13.536
 9550W        W81810  22.069  34.226  12.621
 9551W        W81811  13.955  22.683   0.240
 9552W        W81812  32.275  34.696  13.387
 9553W        W81813  15.814  34.545  11.532
 9554W        W81814   6.482  27.369  13.602
 9555W        W81815  32.169  11.396  13.504
 9556W        W81816  13.287  39.438   0.004
 9557W        W81817  43.954  32.459   4.611
 9558W        W81818   5.367  14.110   1.536
 9559W        W81819  25.030   5.733  12.453
 9560W        W81820  40.651  12.255   2.798
 9561W        W81821  37.427  35.015   2.804
 9562W        W81822   7.861   6.979   0.808
 9563W        W81823   9.169  40.641   1.213
 9564W        W81824  30.328  44.454   4.052
 9565W        W81825  12.578  19.162  11.566
 9566W        W81826  25.505  20.862   1.817
 9567W        W81827  28.928  39.199   0.736
 9568W        W81828  38.133  22.910  12.044
 9569W        W81829  37.386  15.853   2.854
 9570W        W81830  15.380  15.130  11.797
 9571W        W81831  15.058  38.377  13.671
 9572W        W81832  30.548  40.987   4.261
 9573W        W81833  29.919  42.717   2.935
 9574W        W81834  11.850  14.788  13.841
 9575W        W81835   4.491  12.142  11.562
 9576W        W81836   3.365   6.487  14.884
 9577W        W81837  20.093   2.725   1.188
 9578W        W81838   1.448  34.892   1.924
 9579W        W81839  25.680  33.639  14.651
 9580W        W81840  37.789  16.217   2.719
 9581W        W81841  11.757  22.245  12.879
 9582W        W81842  10.638   1.711   4.656
 9583W        W81843  29.553  30.156  13.347
 9584W        W81844  38.859  23.887   0.747
 9585W        W81845  19.750  21.686  13.667
 9586W        W81846   2.295  16.706  10.452
 9587W        W81847  31.529  16.085   4.077
 9588W        W81848  24.607  12.582  14.936
 9589W        W81849   3.245  16.392  14.393
 9590W        W81850   1.524  34.539   3.205
 9591W        W81851  17.257   7.616  13.753
 9592W        W81852  44.932  12.453  11.147
 9593W        W81853  17.258  19.053   4.729
 9594W        W81854  32.422  33.190   0.484
 9595W        W81855   9.851  22.042  10.979
 9596W        W81856   7.625  32.548   3.152
 9597W        W81857  35.440  35.498   3.630
 9598W        W81858  43.395  39.744   1.344
 9599W        W81859  25.400  26.544   1.814
 9600W        W81860  43.835  43.546  12.183
 9601W        W81861  15.051  18.142   2.923
 9602W        W81862  44.998   4.340  13.367
 9603W        W81863  35.013  28.616   1.871
 9604W        W81864   5.856   4.271   1.263
 9605W        W81865  23.289  34.843  12.340
 9606W        W81866   6.791  29.185  13.895
 9607W        W81867  23.623   1.151  10.965
 9608W        W81868  20.131  42.523   2.012
 9609W        W81869   6.867  24.598   4.153
 9610W        W81870  40.117   0.174  11.591
 9611W        W81871  40.169  25.441   4.096
 9612W        W81872   7.309  39.279   0.855
 9613W        W81873  34.323  17.091   0.191
 9614W        W81874  32.943  13.407  11.905
 9615W        W81875  18.519  23.141  12.553
 9616W        W81876  35.872  16.629  12.100
 9617W        W81877  33.457  28.122  11.243
 9618W        W81878  31.916  17.629  11.570
 9619W        W81879   2.463  43.534   2.698
 9620W        W81880   5.350  25.054   0.264
 9621W        W81881  39.506   4.344   3.162
 9622W        W81882  25.221  42.501   3.728
 9623W        W81883  27.578  24.087  12.673
 9624W        W81884  17.102  12.051  13.135
 9625W        W81885  34.291  30.175   0.276
 9626W        W81886  10.045  37.009  10.013
 9627W        W81887  22.993  35.319   3.864
 9628W        W81888  21.250   0.659   0.281
 9629W        W81889  40.939  24.038   2.835
 9630W        W81890   2.203  41.606  13.819
 9631W        W81891  34.877  43.503  13.426
 9632W        W81892   7.334   4.987  11.041
 9633W        W81893  18.607  35.105  13.554
 9634W        W81894  42.776  37.921   2.745
 9635W        W81895  32.955   3.148   2.936
 9636W        W81896   1.486  29.628   3.247
 9637W        W81897   7.774  16.030   2.874
 9638W        W81898  25.526  10.658   2.667
 9639W        W81899  10.547  33.899   1.367
 9640W        W81900  12.509  17.514  14.044
 9641W        W81901   5.539  28.720   4.179
 9642W        W81902  43.425  30.555  14.007
 9643W        W81903  43.342   6.833  12.526
 9644W        W81904  37.868  35.814  12.383
 9645W        W81905  35.522  22.423   4.624
 9646W        W81906  41.958  37.725   4.752
 9647W        W81907  10.744  33.071   1.940
 9648W        W81908  12.667  27.812  10.215
 9649W        W81909   6.191  24.973  10.672
 9650W        W81910   6.230   7.739   3.754
 9651W        W81911  12.279  20.982  14.930
 9652W        W81912  20.632   0.376   2.345
 9653W        W81913  43.005  39.298  11.641
 9654W        W81914  12.321  16.101  14.293
 9655W        W81915  43.238   5.656   2.812
 9656W        W81916   5.927  11.672   3.935
 9657W        W81917  30.575  35.529   2.600
 9658W        W81918  27.836   0.916   0.409
 9659W        W81919  33.873  13.265  12.893
 9660W        W81920  21.756  41.040   0.273
 9661W        W81921  34.497   8.236  10.843
 9662W        W81922  33.945  24.733  14.972
 9663W        W81923  20.123  14.845   3.173
 9664W        W81924  40.441   0.954   4.666
 9665W        W81925  22.136  20.572   0.875
 9666W        W81926  27.260  14.599   2.731
 9667W        W81927  41.876  37.399  13.086
 9668W        W81928  11.157  39.850   3.745
 9669W        W81929  17.130  38.328   3.310
 9670W        W81930   0.870  14.632   0.781
 9671W        W81931  24.980  34.703  12.101
 9672W        W81932  16.716  39.736   4.581
 9673W        W81933   1.001  10.739   2.633
 9674W        W81934  38.375  29.068  11.423
 9675W        W81935  33.662   3.825  13.507
 9676W        W81936  21.729  38.794  12.548
 9677W        W81937  25.216  27.977  12.049
 9678W        W81938  39.528  17.602   4.582
 9679W        W81939  41.601  13.555   3.249
 9680W        W81940  41.061  20.920  14.854
 9681W        W81941  43.181  27.790   0.298
 9682W        W81942  42.330   0.394   3.046
 9683W        W81943  18.312  11.682  13.479
 9684W        W81944  19.040  20.752   3.245
 9685W        W81945  41.815  14.046  11.267
 9686W        W81946  33.387   0.608   0.250
 9687W        W81947   6.420  36.061  14.427
 9688W        W81948  42.681  25.108   3.057
 9689W        W81949  23.139  25.856   0.453
 9690W        W81950  33.379  27.955   3.655
 9691W        W81951  41.640  13.430  12.660
 9692W        W81952  18.266  31.206   3.134
 9693W        W81953  34.958   1.906   5.097
 9694W        W81954   5.422  23.477  11.137
 9695W        W81955   5.209  31.437  11.892
 9696W        W81956  27.242  23.121   3.760
 9697W        W81957  23.624  13.277   0.289
 9698W        W81958  19.548  38.277   1.016
 9699W        W81959  28.854  25.718  14.121
 9700W        W81960  42.811  18.200   4.532
 9701W        W81961  14.782  19.676   1.302
 9702W        W81962  32.656  43.008   4.511
 9703W        W81963  44.707  21.595  10.482
 9704W        W81964  31.056  12.765  10.483
 9705W        W81965  26.600  35.042   3.701
 9706W        W81966  17.824  31.876   3.418
 9707W        W81967   1.347  22.554  13.803
 9708W        W81968  35.929  36.682   1.743
 9709W        W81969  36.402   4.887  13.074
 9710W        W81970  36.231  22.783  13.898
 9711W        W81971  37.573  20.644  10.097
 9712W        W81972  24.699  32.398  11.119
 9713W        W81973   4.948  16.909  10.288
 9714W        W81974   7.913  26.425   3.686
 9715W        W81975   9.105   7.458  11.012
 9716W        W81976   2.389   3.152  14.480
 9717W        W81977  28.443  10.953   1.271
 9718W        W81978   1.212  43.059   2.525
 9719W        W81979   0.483   4.271   3.261
 9720W        W81980  37.687  22.999  13.761
 9721W        W81981   7.806  18.199  14.031
 9722W        W81982  17.348  38.564  14.449
 9723W        W81983   6.117  43.938  12.474
 9724W        W81984   2.261  37.070  14.120
 9725W        W81985  24.704   3.972  11.130
 9726W        W81986  30.180  33.915  13.677
 9727W        W81987  40.292   8.207   1.883
 9728W        W81988  33.373  44.891   2.703
 9729W        W81989  17.353  35.557  13.868
 9730W        W81990  15.742  31.299  12.815
 9731W        W81991   1.408  35.474  13.382
 9732W        W81992   5.779  24.649  13.635
 9733W        W81993  24.475  37.724  14.903
 9734W        W81994   0.505  43.162   4.167
 9735W        W81995  33.070   8.727   3.203
 9736W        W81996  39.903  11.691   1.584
 9737W        W81997  36.803   4.858  13.406
 9738W        W81998  38.973  34.461   1.241
 9739W        W81999  39.998  15.383   4.861
 9740W        W82000  37.120  23.607   2.215
 9741W        W82001  38.551   5.985  13.331
 9742W        W82002  17.319  34.657  11.153
 9743W        W82003  44.973   7.482   2.653
 9744W        W82004  35.476  44.372  12.839
 9745W        W82005   3.764   7.039   3.591
 9746W        W82006  18.147  30.764  11.675
 9747W        W82007   5.910  23.697   1.884
 9748W        W82008  34.109  27.029   1.900
 9749W        W82009  34.599  12.924  13.123
 9750W        W82010  18.750   6.503  12.918
 9751W        W82011  44.021   7.164   2.367
 9752W        W82012   3.049  25.746   0.191
 9753W        W82013  12.556  25.055   2.857
 9754W        W82014  12.845   9.400   2.954
 9755W        W82015  37.172  10.103   4.172
 9756W        W82016  21.483   3.882   3.242
 9757W        W82017  31.472  27.138   4.352
 9758W        W82018  22.719  40.535   0.012
 9759W        W82019   5.467   5.272   4.305
 9760W        W82020  11.109  30.688   0.305
 9761W        W82021  36.578  16.587  14.786
 9762W        W82022  28.747  36.798   0.016
 9763W        W82023  11.949  18.778  14.767
 9764W        W82024  12.333  44.904  11.085
 9765W        W82025   3.902  26.452  13.302
 9766W        W82026  18.894  24.659  13.547
 9767W        W82027   5.870  28.038  10.760
 9768W        W82028  34.107  40.035  12.455
 9769W        W82029   1.250  37.822  11.427
 9770W        W82030   4.904  27.635   2.398
 9771W        W82031  28.902  25.161  12.433
 9772W        W82032   6.900  34.909   4.040
 9773W        W82033  37.733  33.564   5.070
 9774W        W82034  13.122  35.045  13.069
 9775W        W82035  22.281   8.762  13.276
 9776W        W82036  28.978  43.886  14.350
 9777W        W82037   6.024  27.585  13.521
 9778W        W82038  33.260  20.293  14.878
 9779W        W82039   8.611  36.643   0.824
 9780W        W82040  13.925  22.118  12.844
 9781W        W82041  19.725  17.078  11.781
 9782W        W82042  15.504  11.253   2.924
 9783W        W82043  40.979  41.700   2.178
 9784W        W82044  44.574  14.567  13.877
 9785W        W82045  32.984   4.659   0.367
 9786W        W82046  22.053  10.638  11.167
 9787W        W82047  13.719   7.428   0.828
 9788W        W82048  41.596  32.516  14.776
 9789W        W82049  14.656  12.028  12.897
 9790W        W82050  23.014  26.358  10.974
 9791W        W82051  36.367  36.498  13.576
 9792W        W82052   3.847  17.745   1.291
 9793W        W82053  30.976  42.144  14.825
 9794W        W82054   2.260   8.397   1.632
 9795W        W82055   0.312  15.398   2.940
 9796W        W82056  17.784   6.052  14.341
 9797W        W82057   6.838  12.621   3.863
 9798W        W82058  19.806  43.296  13.170
 9799W        W82059  31.212  40.944   3.445
 9800W        W82060  18.329   9.529  13.769
 9801W        W82061  38.280  40.812   0.350
 9802W        W82062  28.554   1.332   0.950
 9803W        W82063   8.621   4.246  14.806
 9804W        W82064  33.027  36.850  14.771
 9805W        W82065   1.449   0.783   4.535
 9806W        W82066  23.613  22.514  14.377
 9807W        W82067  22.535   4.444   4.796
 9808W        W82068  43.604   0.746   1.229
 9809W        W82069  14.470  19.990   2.952
 9810W        W82070  25.181   1.169   4.474
 9811W        W82071  38.831  30.775   2.864
 9812W        W82072  15.259  19.251   3.807
 9813W        W82073  35.354  24.540   3.336
 9814W        W82074  13.232  30.292   1.712
 9815W        W82075  22.302   5.541  10.389
 9816W        W82076   5.558  31.405  14.896
 9817W        W82077  20.621  42.118   1.212
 9818W        W82078  16.788  15.433  13.597
 9819W        W82079  20.986  11.330  11.578
 9820W        W82080  27.459  24.998   3.022
 9821W        W82081  27.426   2.299  13.839
 9822W        W82082  42.815  21.366  10.453
 9823W        W82083  15.723  38.339   1.027
 9824W        W82084  32.279  28.647  10.926
 9825W        W82085   0.820  25.691  14.921
 9826W        W82086  35.353   1.813   4.739
 9827W        W82087  25.744  42.786  13.856
 9828W        W82088   0.349  22.679   3.676
 9829W        W82089  10.262   0.822   4.403
 9830W        W82090  38.810  31.376   5.390
 9831W        W82091  40.421  18.308  10.672
 9832W        W82092  20.542   2.417   3.826
 9833W        W82093   0.956  39.850  13.647
 9834W        W82094   7.967   6.422  11.056
 9835W        W82095  39.030  20.257   3.515
 9836W        W82096  43.129   9.221  14.441
 9837W        W82097   4.278   2.868   5.029
 9838W        W82098  18.615  43.696   1.674
 9839W        W82099  24.672   1.716   3.033
 9840W        W82100  16.460  17.824   1.884
 9841W        W82101  33.674  21.712   2.257
 9842W        W82102  34.454  27.042  13.581
 9843W        W82103  15.148  29.147  11.834
 9844W        W82104  32.042  37.106   1.773
 9845W        W82105  31.998   2.771   4.766
 9846W        W82106  27.538  22.677  11.506
 9847W        W82107  17.575  44.403  12.459
 9848W        W82108   7.375  42.031  11.549
 9849W        W82109  26.068  40.484   3.839
 9850W        W82110  31.037  24.088   4.282
 9851W        W82111   5.718  35.456   0.290
 9852W        W82112  34.217  13.748  11.548
 9853W        W82113  44.263  27.828  11.246
 9854W        W82114  41.001  39.874  11.663
 9855W        W82115  13.489  10.061   0.859
 9856W        W82116   9.906  17.717   3.767
 9857W        W82117   3.257  13.454  14.616
 9858W        W82118  23.680  24.205   1.813
 9859W        W82119   1.742   5.942   4.520
 9860W        W82120   5.382  34.874  11.143
 9861W        W82121  14.640  20.486  12.035
 9862W        W82122  39.441   7.317  11.526
 9863W        W82123   1.667  32.322   1.912
 9864W        W82124  19.741  23.020   1.159
 9865W        W82125  42.889   3.837  13.941
 9866W        W82126  15.773  43.853  10.354
 9867W        W82127   1.706  28.496   1.891
 9868W        W82128  43.019   5.093   2.885
 9869W        W82129   9.815  44.539  12.005
 9870W        W82130  25.136  28.476  10.488
 9871W        W82131  35.138  30.015  12.529
 9872W        W82132  30.695  12.606  12.435
 9873W        W82133  39.228  34.326   1.941
 9874W        W82134   9.423  26.922   1.348
 9875W        W82135  32.881  42.882  14.520
 9876W        W82136  22.729  21.811   9.750
 9877W        W82137  30.181  33.704   3.768
 9878W        W82138  41.845  13.747   1.897
 9879W        W82139  22.481  30.084  13.564
 9880W        W82140  43.151  31.421   1.407
 9881W        W82141  11.641   7.355   0.279
 9882W        W82142  22.493  15.563  11.731
 9883W        W82143  10.913  21.515   4.381
 9884W        W82144   6.801  42.263  10.397
 9885W        W82145  25.174  21.979  12.892
 9886W        W82146   6.005  41.625   2.350
 9887W        W82147  38.557  28.888   4.767
 9888W        W82148  33.405  19.541  11.615
 9889W        W82149  11.270  39.502   2.355
 9890W        W82150  19.330  16.172  12.012
 9891W        W82151   0.056  37.164  14.227
 9892W        W82152   4.399  30.398  11.894
 9893W        W82153   6.147  11.794   4.617
 9894W        W82154  26.812  31.800  11.192
 9895W        W82155  28.642  16.412   1.772
 9896W        W82156  33.537   1.060   2.423
 9897W        W82157  37.010  23.573  13.095
 9898W        W82158  22.720  39.548  12.283
 9899W        W82159  23.209  35.441   4.319
 9900W        W82160  16.401  23.648   4.800
 9901W        W82161  19.763  36.401   0.064
 9902W        W82162  35.996  14.080  10.428
 9903W        W82163  42.794  32.577   3.188
 9904W        W82164  12.374  14.755  13.846
 9905W        W82165  31.969   9.745  14.765
 9906W        W82166  22.596  38.521  11.681
 9907W        W82167  39.857  40.992  11.676
 9908W        W82168  29.682   4.425   0.365
 9909W        W82169  29.881  11.580  13.573
 9910W        W82170  12.050  25.102  12.900
 9911W        W82171   0.888  33.052   3.775
 9912W        W82172  42.479   4.384  11.417
 9913W        W82173  40.791  39.668   2.999
 9914W        W82174  23.775  25.656   1.814
 9915W        W82175  18.261   7.939  10.212
 9916W        W82176  17.806  34.844   1.206
 9917W        W82177  32.731  40.673  12.577
 9918W        W82178  33.403  32.398  12.537
 9919W        W82179  34.447  30.018  10.503
 9920W        W82180  23.289  32.128  13.374
 9921W        W82181   0.392  38.988   0.376
 9922W        W82182  16.192  42.439   0.029
 9923W        W82183   8.393  27.146   0.801
 9924W        W82184  28.062  11.558   3.685
 9925W        W82185  34.183   4.316  10.583
 9926W        W82186   8.217  20.267   0.773
 9927W        W82187  22.630   2.641  11.988
 9928W        W82188  21.225  13.802  11.567
 9929W        W82189  15.617  17.486   4.115
 9930W        W82190  44.195   7.657   2.337
 9931W        W82191  37.828  21.188  10.718
 9932W        W82192   1.270  17.225  14.779
 9933W        W82193  27.452  22.128  12.196
 9934W        W82194  35.159   4.702  10.536
 9935W        W82195  40.032   0.000   2.206
 9936W        W82196  20.888  22.244  13.057
 9937W        W82197   6.259  27.191   1.094
 9938W        W82198  10.889   1.368  11.647
 9939W        W82199   7.859  30.423   0.284
 9940W        W82200  19.539  23.084  12.406
 9941W        W82201  19.730  39.302  14.928
 9942W        W82202  41.071  23.991   0.847
 9943W        W82203  30.915  42.977  12.967
 9944W        W82204  10.875  38.430  14.999
 9945W        W82205  20.857  40.982  13.870
 9946W        W82206   8.617  31.472   2.164
 9947W        W82207   7.135  26.023   0.152
 9948W        W82208  24.109  18.326   3.735
 9949W        W82209  33.799  15.881  14.856
 9950W        W82210  16.162   2.979   0.025
 9951W        W82211  43.002   9.864  11.502
 9952W        W82212   4.909  32.502   2.282
 9953W        W82213  20.745  24.246   4.175
 9954W        W82214  30.998  16.653  12.488
 9955W        W82215  17.254  19.547   4.506
 9956W        W82216  40.569  20.347   3.802
 9957W        W82217  17.306  30.073   2.358
 9958W        W82218  41.428  25.037  11.946
 9959W        W82219   5.546  12.440   4.407
 9960W        W82220   9.808  29.940   4.552
 9961W        W82221  26.665  29.488  11.065
 9962W        W82222  21.751  30.124  13.783
 9963W        W82223  37.355  37.966   2.189
 9964W        W82224   5.477  13.666  10.836
 9965W        W82225  17.704  15.395   3.296
 9966W        W82226  31.487  19.938   0.409
 9967W        W82227  44.151  26.511  11.511
 9968W        W82228  37.385  39.708  11.286
 9969W        W82229  40.933   6.240  10.768
 9970W        W82230  12.846  38.410  13.019
 9971W        W82231   4.238  37.035  12.347
 9972W        W82232  40.497  42.317  13.857
 9973W        W82233  42.531  44.548   2.534
 9974W        W82234  25.051   4.666   4.089
 9975W        W82235  29.042  22.529  11.560
 9976W        W82236   1.026  43.329   3.636
 9977W        W82237  34.608  18.333  12.979
 9978W        W82238   3.028   6.661  11.622
 9979W        W82239  27.670  31.018   5.447
 9980W        W82240  11.038   5.114   0.168
 9981W        W82241  35.317  23.742   3.541
 9982W        W82242  12.794  36.577   3.646
 9983W        W82243   3.208  13.184   4.105
 9984W        W82244   8.432   5.668   2.931
 9985W        W82245   0.052  16.625  12.449
 9986W        W82246   1.938  28.606  14.575
 9987W        W82247  16.671  15.888   1.232
 9988W        W82248   0.687   6.459   4.656
 9989W        W82249   8.138  38.071   3.203
 9990W        W82250  40.583  38.364   4.080
 9991W        W82251  28.385  30.457  10.240
 9992W        W82252  38.640   0.352   0.725
 9993W        W82253   1.741  10.351  14.705
 9994W        W82254  17.119  18.824  12.815
 9995W        W82255  21.786   6.448   4.165
 9996W        W82256  24.819  23.703  11.559
 9997W        W82257  34.039   1.747   2.520
 9998W        W82258  16.042  40.360   1.631
 9999W        W82259  32.091  39.811   2.857
10000W        W82260  11.905   0.364   4.242
10001W        W82261  43.042  18.942   0.003
10002W        W82262  11.162   3.957  12.047
10003W        W82263   4.295  15.772  14.694
10004W        W82264  32.353  26.163  12.465
10005W        W82265   4.785  26.181   9.879
10006W        W82266  32.379  12.148   4.111
10007W        W82267  28.223  26.680   2.132
10008W        W82268   8.350   7.247  12.890
10009W        W82269   9.159  40.166   1.452
10010W        W82270   3.720   2.935   1.728
10011W        W82271  20.253  12.722  12.869
10012W        W82272  38.991  16.187  14.071
10013W        W82273  44.289   5.150  10.665
10014W        W82274  31.451  41.603   2.821
10015W        W82275  29.469  43.693  14.179
10016W        W82276  39.800  36.599  12.086
10017W        W82277  33.629  33.085  14.723
10018W        W82278   4.066  28.998  10.808
10019W        W82279  35.956  16.196   2.782
10020W        W82280  36.616  22.642  10.295
10021W        W82281  14.609  30.243   3.292
10022W        W82282   8.266  27.147   3.760
10023W        W82283  18.353  34.668   2.618
10024W        W82284  26.151  33.424   3.598
10025W        W82285  41.051  10.981   1.912
10026W        W82286  42.389  19.038   2.135
10027W        W82287  36.448  35.337   0.991
10028W        W82288  21.207   8.314  12.663
10029W        W82289  17.578  44.808   4.245
10030W        W82290   3.394  21.704  12.894
10031W        W82291  12.690  24.178   0.895
10032W        W82292  11.772  42.628  13.451
10033W        W82293  12.730  12.416  11.682
10034W        W82294   3.940   2.865  12.576
10035W        W82295   2.473  10.200  14.414
10036W        W82296  25.006   1.979  11.004
10037W        W82297  38.379  34.384   3.759
10038W        W82298  28.640  23.844  14.902
10039W        W82299  10.766   1.672  10.700
10040W        W82300   3.839  15.651   9.973
10041W        W82301   8.743   2.161   3.153
10042W        W82302  36.114   8.896  12.661
10043W        W82303  43.447  23.005   0.870
10044W        W82304  42.231   6.773  10.691
10045W        W82305  17.603  37.314   4.548
10046W        W82306  31.976   4.468   0.989
10047W        W82307   0.769   9.814   1.931
10048W        W82308  43.211   0.401   2.949
10049W        W82309   5.336  36.092   1.886
10050W        W82310  14.683  35.534   2.925
10051W        W82311   0.437   3.425  12.950
10052W        W82312  24.714  26.992  14.692
10053W        W82313  25.419  34.190  12.858
10054W        W82314  32.665   4.236  14.871
10055W        W82315   3.276   7.851  10.758
10056W        W82316  44.480   9.768   3.676
10057W        W82317   6.823  11.664   4.043
10058W        W82318   5.592  43.456   2.220
10059W        W82319  40.553  31.912   3.296
10060W        W82320  43.838  12.313   2.796
10061W        W82321  11.454  42.617   3.266
10062W        W82322   3.935  10.467   4.298
10063W        W82323  33.456   1.919   3.607
10064W        W82324  22.716  15.459   2.779
10065W        W82325  13.414   2.886   1.202
10066W        W82326   7.887  10.158   0.153
10067W        W82327  29.644  10.355   0.880
10068W        W82328  17.207  13.129   4.494
10069W        W82329  35.003  25.968   2.106
10070W        W82330   6.399   2.219   4.625
10071W        W82331  24.181   1.890  11.357
10072W        W82332  16.411   1.579   4.052
10073W        W82333  26.288  41.428  13.900
10074W        W82334   9.432  10.206  10.852
10075W        W82335  11.130   0.268  14.901
10076W        W82336  20.729   7.597   0.257
10077W        W82337  40.505  14.683   3.685
10078W        W82338  44.955   1.989  13.707
10079W        W82339   6.402  16.499  13.440
10080W        W82340  26.188   0.543   1.698
10081W        W82341  39.967  43.239   0.451
10082W        W82342  31.108   1.786   1.406
10083W        W82343  15.202  36.812  10.384
10084W        W82344  44.704  38.560   3.158
10085W        W82345  20.186  12.995   0.973
10086W        W82346  28.044  24.069   2.336
10087W        W82347  42.260   1.780   3.741
10088W        W82348  28.977   5.920  13.789
10089W        W82349   7.470  18.016   3.722
10090W        W82350  21.023  36.369  14.418
10091W        W82351  31.633  12.414   3.202
10092W        W82352   0.904  16.806   1.254
10093W        W82353  22.176   5.435  12.825
10094W        W82354  41.217   7.715  14.330
10095W        W82355  39.001   2.951  11.512
10096W        W82356  16.965  42.190  14.997
10097W        W82357  23.084  10.948   2.742
10098W        W82358  22.646   3.168  12.070
10099W        W82359  28.033  30.634   4.580
10100W        W82360  12.761  15.581   5.051
10101W        W82361  39.686  10.272   0.406
10102W        W82362  30.586  41.066   0.396
10103W        W82363  15.124  38.538   1.984
10104W        W82364  13.884  38.045   0.585
10105W        W82365  15.356  19.304  11.206
10106W        W82366  16.273   3.938   0.247
10107W        W82367  29.533  13.360  10.999
10108W        W82368  37.409  30.879   0.319
10109W        W82369  36.344   7.487  12.876
10110W        W82370  34.537  31.919   0.864
10111W        W82371  31.873   4.822  14.892
10112W        W82372  27.987  22.462  10.625
10113W        W82373  37.573   7.390  13.913
10114W        W82374  25.436  15.072   4.303
10115W        W82375  30.651  35.407  12.581
10116W        W82376  29.595  25.428  12.876
10117W        W82377  37.525   1.493   4.415
10118W        W82378   5.938  13.610   1.027
10119W        W82379  20.552  30.047   4.614
10120W        W82380  24.975   0.839   2.821
10121W        W82381   7.276  11.859  13.982
10122W        W82382  44.794  15.732   3.762
10123W        W82383  20.835  30.715   2.310
10124W        W82384  12.633   8.102   2.209
10125W        W82385  15.068  31.507   4.642
10126W        W82386  27.130  36.251  14.342
10127W        W82387   0.386   7.302  13.119
10128W        W82388   4.416  13.337  12.195
10129W        W82389   5.049  31.120  13.142
10130W        W82390   0.823   6.756  10.534
10131W        W82391  28.101  21.656   0.321
10132W        W82392  39.359  23.089  12.947
10133W        W82393   3.235  26.394   4.051
10134W        W82394   9.431  41.555   0.851
10135W        W82395   0.564   4.821  13.942
10136W        W82396   5.815  34.862  11.436
10137W        W82397  34.423   0.494   3.588
10138W        W82398  23.317   0.460   0.733
10139W        W82399  32.588  39.974  11.646
10140W        W82400  43.247  38.976  13.979
10141W        W82401  11.623  42.880  11.142
10142W        W82402  31.939  32.921   2.670
10143W        W82403   3.790  15.772  10.685
10144W        W82404  44.822  27.209   4.274
10145W        W82405  12.619  11.306   0.761
10146W        W82406  39.037   1.989  14.504
10147W        W82407   6.392  34.062  11.891
10148W        W82408  43.274  31.138   0.969
10149W        W82409   1.467  31.457  11.318
10150W        W82410  39.899   8.399  13.510
10151W        W82411  43.703   1.241  11.646
10152W        W82412  13.646  44.883  11.380
10153W        W82413  27.121  13.820  10.793
10154W        W82414  32.439  39.197  10.705
10155W        W82415  40.018  33.908   3.232
10156W        W82416  22.987   7.237  14.452
10157W        W82417  17.284  20.634  14.822
10158W        W82418   5.106  24.715  14.165
10159W        W82419  44.981  13.574  12.519
10160W        W82420  23.722  26.679   1.234
10161W        W82421   8.187  36.992   2.332
10162W        W82422  23.284  29.045   4.827
10163W        W82423  19.528   3.478  13.141
10164W        W82424  43.436  25.236  10.492
10165W        W82425  33.186  41.416   1.327
10166W        W82426   0.431  21.888   1.149
10167W        W82427   3.307   7.458  13.061
10168W        W82428  36.028  32.344  11.586
10169W        W82429  20.728   3.323   2.126
10170W        W82430  12.244  41.385  12.422
10171W        W82431  17.654  39.063  10.524
10172W        W82432  31.865   2.028  12.586
10173W        W82433   9.814   3.222   1.355
10174W        W82434  14.321  32.528  14.984
10175W        W82435  40.104   9.409  13.404
10176W        W82436  14.321   9.952   0.160
10177W        W82437  15.785  32.162  11.621
10178W        W82438   3.852   3.569   0.376
10179W        W82439  24.539  14.219   0.804
10180W        W82440  10.381  32.960  11.983
10181W        W82441  35.469   2.985  13.988
10182W        W82442  18.196   1.713   1.227
10183W        W82443  19.103  32.095  14.024
10184W        W82444  23.807  26.983   3.644
10185W        W82445  13.666   9.782   3.657
10186W        W82446  20.468  15.034  13.084
10187W        W82447  37.895  44.243  13.129
10188W        W82448  33.135  28.410   2.423
10189W        W82449  23.021  37.382   3.758
10190W        W82450   4.386   6.645  11.607
10191W        W82451  32.105  44.228  12.029
10192W        W82452  31.618  25.664   4.622
10193W        W82453  17.090  32.445  10.698
10194W        W82454  39.997  15.234  14.643
10195W        W82455  25.181   7.968   4.205
10196W        W82456   5.370  35.895   2.361
10197W        W82457   6.941  28.919  10.716
10198W        W82458  31.080  14.152   4.143
10199W        W82459   9.404   2.746   0.850
10200W        W82460  12.336  13.331   1.648
10201W        W82461   8.680   7.896  14.938
10202W        W82462  37.974  36.787  14.486
10203W        W82463  18.734  21.561  14.948
10204W        W82464  13.904  10.185   4.745
10205W        W82465  31.434  31.302   3.760
10206W        W82466  37.506   2.404   4.431
10207W        W82467   8.908  34.521  12.034
10208W        W82468  10.307   2.323   4.968
10209W        W82469   5.694  44.287   2.246
10210W        W82470  26.519  43.546   3.252
10211W        W82471  22.610  37.053  10.416
10212W        W82472  25.170  27.109   3.669
10213W        W82473  33.524  10.168   4.978
10214W        W82474  14.668  37.920   4.253
10215W        W82475  20.532  32.943  11.436
10216W        W82476  32.927   8.688  13.816
10217W        W82477  39.570  30.146   0.889
10218W        W82478  13.891  24.553  13.152
10219W        W82479  18.870  43.374  11.716
10220W        W82480  18.430  10.020  13.924
10221W        W82481  35.962  30.610  13.091
10222W        W82482  41.011   5.315   2.142
10223W        W82483  29.718   0.369   3.237
10224W        W82484  27.560  18.639  13.504
10225W        W82485  25.309   8.388  12.112
10226W        W82486  14.844  27.872  11.438
10227W        W82487   7.663   0.930   0.242
10228W        W82488  36.453  34.997   0.565
10229W        W82489   6.019  28.484   4.236
10230W        W82490   1.802  41.828  10.625
10231W        W82491  24.520   6.194   2.150
10232W        W82492  31.493  14.309   4.427
10233W        W82493  24.691  21.831   0.467
10234W        W82494   8.344   0.172  14.436
10235W        W82495  33.472   3.893  13.981
10236W        W82496  19.046  28.455   2.665
10237W        W82497  17.565   7.201  11.997
10238W        W82498  21.493  38.236   0.912
10239W        W82499  10.062  32.630   0.776
10240W        W82500  27.809   7.645   0.528
10241W        W82501  39.170   7.408   5.090
10242W        W82502   0.979  29.139   0.258
10243W        W82503  10.832   5.944  11.210
10244W        W82504   1.842  22.247  13.129
10245W        W82505  10.372  44.056  13.371
10246W        W82506  23.970   8.394  13.053
10247W        W82507  24.819  33.529   2.181
10248W        W82508  14.391  38.038  10.902
10249W        W82509  10.731  21.170   4.754
10250W        W82510  11.598  25.991  13.004
10251W        W82511  36.001  41.580  11.009
10252W        W82512  13.091  33.058  14.838
10253W        W82513  26.930  27.483  14.089
10254W        W82514  23.700  18.089   4.734
10255W        W82515  12.318  36.633   0.319
10256W        W82516  34.771  42.057   0.231
10257W        W82517  35.007  22.544  14.403
10258W        W82518   4.256   3.702   3.679
10259W        W82519  19.003  37.933  10.472
10260W        W82520  26.746  15.074   3.213
10261W        W82521  41.427  41.687  13.797
10262W        W82522  17.582  16.803  12.579
10263W        W82523  40.354  13.423   4.108
10264W        W82524  15.319   2.934   0.045
10265W        W82525  12.789  38.790   3.224
10266W        W82526  33.933  12.178  10.725
10267W        W82527   5.318  11.218   1.815
10268W        W82528  34.139  12.292  13.879
10269W        W82529  12.027  13.670   4.823
10270W        W82530   5.805   8.810   2.970
10271W        W82531   7.378  34.382   2.920
10272W        W82532  18.522   7.372   2.671
10273W        W82533  43.816   8.277   1.285
10274W        W82534  29.061  42.809   1.472
10275W        W82535  41.636  33.901  13.528
10276W        W82536  39.834  35.726  14.201
10277W        W82537  26.856  18.250   0.813
10278W        W82538   1.260  34.480   3.693
10279W        W82539  17.600   0.565   1.251
10280W        W82540  34.450  15.702  10.922
10281W        W82541  36.944  39.893  11.965
10282W        W82542  11.735   6.327  13.256
10283W        W82543  15.132  34.536  10.652
10284W        W82544  32.479  14.879  11.138
10285W        W82545  25.427  35.331   2.390
10286W        W82546  37.099   0.311   1.170
10287W        W82547   9.607  26.047  10.330
10288W        W82548  22.390  14.795  10.877
10289W        W82549  38.446   8.578  10.643
10290W        W82550  36.020   8.758   4.875
10291W        W82551  17.341   4.247   3.983
10292W        W82552   2.736   6.864   0.345
10293W        W82553  41.740  16.591   0.260
10294W        W82554  19.200  26.596  14.541
10295W        W82555  19.771   2.831   0.323
10296W        W82556   5.159  26.463  12.018
10297W        W82557  42.043  12.620   1.397
10298W        W82558  13.795  14.739   2.668
10299W        W82559  27.972  16.554  12.044
10300W        W82560  41.896  22.306  13.283
10301W        W82561  25.779  23.749   2.690
10302W        W82562   4.337  14.525  13.852
10303W        W82563  12.797  31.448   3.533
10304W        W82564   2.462   9.367  13.014
10305W        W82565  42.238  19.675   1.509
10306W        W82566  39.285  28.511  12.161
10307W        W82567  14.637  42.994  12.461
10308W        W82568  24.619  32.398   1.719
10309W        W82569   6.688  27.124  10.854
10310W        W82570  11.439  28.422  13.356
10311W        W82571   8.795  43.924   0.786
10312W        W82572  21.549  32.833   4.828
10313W        W82573  12.604  11.794  14.556
10314W        W82574  36.893  23.079  14.377
10315W        W82575  21.686   3.536  12.089
10316W        W82576  22.954  34.932  10.568
10317W        W82577  29.667  43.226  14.039
10318W        W82578  37.923   9.401  10.680
10319W        W82579  40.713  14.967   0.921
10320W        W82580  39.862  26.651   4.742
10321W        W82581  44.977  33.051   2.200
10322W        W82582   6.962  16.511   3.347
10323W        W82583  33.238  11.173   4.499
10324W        W82584  38.947  13.597   2.152
10325W        W82585  33.455   7.283   1.305
10326W        W82586  40.741   4.892   1.711
10327W        W82587  40.645  25.601   3.999
10328W        W82588  27.470  21.163  10.734
10329W        W82589  35.942  21.182   2.472
10330W        W82590   1.758  15.493  14.560
10331W        W82591  16.490  16.531   5.360
10332W        W82592  21.716  28.528  13.049
10333W        W82593  33.167  17.963  12.111
10334W        W82594  19.689  12.599   2.382
10335W        W82595  23.590  32.376   2.327
10336W        W82596  32.107  22.707  13.812
10337W        W82597  35.651  12.301   4.081
10338W        W82598  36.921  12.280  14.904
10339W        W82599  34.075  33.094   0.793
10340W        W82600  19.191  14.612  11.136
10341W        W82601   8.418   5.454  11.026
10342W        W82602  34.092  24.511   2.762
10343W        W82603  17.318  25.161   4.146
10344W        W82604  36.611  29.719  10.745
10345W        W82605  43.992  33.385   2.628
10346W        W82606   8.929  29.109   0.296
10347W        W82607  41.527   2.766  13.812
10348W        W82608  33.003   5.235  14.064
10349W        W82609   2.676  22.748  10.706
10350W        W82610  43.671   3.068   0.279
10351W        W82611  31.095  12.348   1.728
10352W        W82612  38.014  15.831  13.409
10353W        W82613  37.958  15.764   3.785
10354W        W82614  31.840  41.755  12.075
10355W        W82615  17.012  35.072   0.063
10356W        W82616  16.587  15.774  12.751
10357W        W82617  10.309  37.601  14.428
10358W        W82618  40.341  33.716   5.218
10359W        W82619  41.457   7.224   4.144
10360W        W82620  27.067  18.444  14.946
10361W        W82621  39.552  31.196  13.771
10362W        W82622  39.941  28.564   3.135
10363W        W82623  22.453  25.937   4.169
10364W        W82624   3.800  22.548   2.302
10365W        W82625  19.675  21.738  12.239
10366W        W82626  15.090  39.070  14.441
10367W        W82627  31.638  12.690   3.686
10368W        W82628  36.253  24.897   0.374
10369W        W82629  26.231  35.559  11.636
10370W        W82630  32.013  17.333   4.235
10371W        W82631  43.463  33.376   1.350
10372W        W82632  28.716   6.422  14.376
10373W        W82633  34.369  16.194   1.861
10374W        W82634  44.522  35.537  12.014
10375W        W82635   6.276  34.995  10.304
10376W        W82636  42.968  12.354   2.916
10377W        W82637   1.731  17.193   1.822
10378W        W82638  39.663  16.893  14.433
10379W        W82639  44.157   1.978  13.305
10380W        W82640   4.236  41.723   1.380
10381W        W82641   6.143  37.558  11.735
10382W        W82642   5.976  42.262  12.409
10383W        W82643  29.410  30.624  13.506
10384W        W82644   5.935  40.409  10.807
10385W        W82645   5.893  24.540  10.725
10386W        W82646  33.815  32.685  12.358
10387W        W82647  35.820  12.725  14.310
10388W        W82648  43.768  24.170  14.907
10389W        W82649   4.546  22.192  11.155
10390W        W82650  35.309  40.824   2.780
10391W        W82651  10.569  20.672   4.544
10392W        W82652  32.681  15.463   3.683
10393W        W82653   2.677  13.945   3.570
10394W        W82654  38.025   3.981   3.725
10395W        W82655  39.187  19.103  14.413
10396W        W82656   7.280  15.254   2.250
10397W        W82657  28.807  40.428  10.710
10398W        W82658  17.508   8.231   5.701
10399W        W82659  34.666   0.918   3.721
10400W        W82660  33.065  31.894  12.897
10401W        W82661  35.936  17.275   4.902
10402W        W82662  14.964   1.287   0.708
10403W        W82663   3.924  39.549  13.418
10404W        W82664  42.096  15.253   5.062
10405W        W82665  32.864   9.688  14.340
10406W        W82666   7.782  19.882   3.610
10407W        W82667   4.039   3.416  11.762
10408W        W82668  14.933   5.753   0.828
10409W        W82669   8.338  15.211  14.750
10410W        W82670  42.988  42.120   2.389
10411W        W82671  16.716   2.036   4.837
10412W        W82672   4.754  38.414  11.044
10413W        W82673   3.157  25.522  13.846
10414W        W82674  42.332  17.639   4.127
10415W        W82675  41.433   2.247  12.922
10416W        W82676  36.929  28.032   0.378
10417W        W82677  26.619  32.301  11.202
10418W        W82678  23.468   0.357  13.954
10419W        W82679   7.140   4.659   0.033
10420W        W82680  27.220  20.303  14.752
10421W        W82681  42.488  21.106  12.138
10422W        W82682  31.662  27.060  12.540
10423W        W82683  20.140  23.763   0.235
10424W        W82684  29.471   8.296   0.519
10425W        W82685   7.353  41.444   0.733
10426W        W82686  40.029  30.839  12.983
10427W        W82687   7.212  22.037  12.466
10428W        W82688  26.378   6.219  12.978
10429W        W82689  19.315  23.565  10.790
10430W        W82690  28.203  30.675   3.708
10431W        W82691  17.440  22.590  12.957
10432W        W82692  16.185  31.078  13.591
10433W        W82693  18.182   2.860  11.602
10434W        W82694   5.522  38.895  13.752
10435W        W82695   8.957  31.858  10.996
10436W        W82696   5.746  18.630   2.380
10437W        W82697  22.208  43.059  13.870
10438W        W82698  42.434  29.120  11.640
10439W        W82699  30.097  39.413   4.157
10440W        W82700  10.846  23.469  12.899
10441W        W82701  40.020  20.692   1.447
10442W        W82702  34.045  23.665  14.900
10443W        W82703  35.666   0.233   1.778
10444W        W82704  18.992  31.885  12.596
10445W        W82705  13.231  12.073  13.929
10446W        W82706  17.364  39.466  12.109
10447W        W82707  16.392  17.571  10.319
10448W        W82708  13.329  11.657   1.814
10449W        W82709  23.630  32.379  13.895
10450W        W82710  37.839  30.871   4.126
10451W        W82711   6.864  13.361   1.962
10452W        W82712   4.967  24.770   1.878
10453W        W82713  15.621  35.536   2.131
10454W        W82714  42.116  40.094   1.328
10455W        W82715  29.749  29.637   4.243
10456W        W82716  33.833   4.994   9.783
10457W        W82717  19.978  36.633  12.152
10458W        W82718  14.673  33.844   3.109
10459W        W82719  25.595  17.528   2.419
10460W        W82720  29.188  21.118  14.993
10461W        W82721  19.633  28.985  14.481
10462W        W82722  35.790  15.119  14.501
10463W        W82723  28.067  25.632   0.452
10464W        W82724  38.537   2.741   3.576
10465W        W82725  24.149  20.920   1.417
10466W        W82726   4.180  39.974   4.430
10467W        W82727  11.994  21.214  12.472
10468W        W82728   9.186  44.767  10.307
10469W        W82729  11.570   6.887  11.478
10470W        W82730   7.723  43.968   4.951
10471W        W82731  37.658  18.318  14.507
10472W        W82732  25.175  23.643  11.200
10473W        W82733  22.007  37.869   1.741
10474W        W82734   0.435   1.727   0.423
10475W        W82735   8.786   0.846  12.927
10476W        W82736  16.237   4.385  14.318
10477W        W82737  38.952  11.614  13.741
10478W        W82738   5.291  21.557  12.071
10479W        W82739   3.344  28.161  13.817
10480W        W82740  22.702  22.680  14.019
10481W        W82741  37.077  29.413  12.587
10482W        W82742  26.931  23.021  12.059
10483W        W82743  36.868  20.293   1.202
10484W        W82744  25.641  12.119   0.519
10485W        W82745   0.130   0.501  13.454
10486W        W82746  34.456   4.088   1.837
10487W        W82747  31.383  17.177   1.385
10488W        W82748  13.371  39.671  13.780
10489W        W82749  12.187  17.426   1.711
10490W        W82750   0.534  18.805   4.081
10491W        W82751   0.458  25.669  12.403
10492W        W82752  12.210  28.180   3.218
10493W        W82753  38.050  42.072  12.402
10494W        W82754  14.150  18.530   1.785
10495W        W82755  22.518  42.729  11.591
10496W        W82756  28.348  28.017  13.145
10497W        W82757   5.703  17.623   2.343
10498W        W82758  39.293  24.212   0.277
10499W        W82759  35.325  19.100  11.353
10500W        W82760  20.311  35.860  11.432
10501W        W82761  36.454  31.011   2.116
10502W        W82762   1.448  29.170   3.511
10503W        W82763  11.836   8.515  12.287
10504W        W82764  37.513  19.927  13.356
10505W        W82765  44.298   7.811   1.823
10506W        W82766  16.668  44.288   0.599
10507W        W82767  29.442  24.220  14.875
10508W        W82768  14.225  41.271   0.287
10509W        W82769   3.396  25.779  13.470
10510W        W82770  33.998  14.993   1.808
10511W        W82771  38.442  27.575   4.417
10512W        W82772   4.820  33.035  11.701
10513W        W82773  28.937  24.647   3.586
10514W        W82774  28.040  28.084   2.750
10515W        W82775  34.942  20.202   5.022
10516W        W82776   7.987  10.645   4.322
10517W        W82777  31.046   5.407   1.083
10518W        W82778  28.797  21.448  11.272
10519W        W82779  30.138  24.116  12.041
10520W        W82780  42.343  24.125   1.440
10521W        W82781   5.003  40.396   2.374
10522W        W82782  19.771  31.353  12.984
10523W        W82783  43.283  34.604   4.708
10524W        W82784  43.528  11.090   1.218
10525W        W82785  42.503  21.021   0.860
10526W        W82786  38.886  25.270   3.783
10527W        W82787   1.274  35.373  11.381
10528W        W82788  16.287  12.726   2.788
10529W        W82789   5.899  41.983  10.714
10530W        W82790  34.556  18.586  14.440
10531W        W82791  22.114  34.364  10.730
10532W        W82792   6.160  14.730   3.199
10533W        W82793  12.673  13.468   0.374
10534W        W82794  29.650  34.540  11.595
10535W        W82795  18.189  25.752  13.497
10536W        W82796  11.112   8.499  11.096
10537W        W82797   2.982   6.678   3.538
10538W        W82798  22.308  10.571   3.261
10539W        W82799  13.682  36.863  13.120
10540W        W82800  42.229  27.552   3.685
10541W        W82801  36.473  25.435  13.517
10542W        W82802  43.448   1.694  13.840
10543W        W82803  24.239   7.701  11.568
10544W        W82804  19.178  14.438   4.777
10545W        W82805   6.308  29.211   0.403
10546W        W82806   2.870  17.199  11.235
10547W        W82807  19.796  17.548   2.238
10548W        W82808  13.321  39.992   3.660
10549W        W82809  39.780   1.391  11.753
10550W        W82810   2.608  42.772  14.453
10551W        W82811  24.103  27.246   0.461
10552W        W82812   8.382  37.143   3.184
10553W        W82813   1.175  32.059  12.430
10554W        W82814  36.529  16.812  13.461
10555W        W82815  29.576   6.115   3.694
10556W        W82816  42.790  42.499   3.637
10557W        W82817  11.729  35.608  13.008
10558W        W82818  12.890  10.651  10.987
10559W        W82819  21.322  13.236   1.722
10560W        W82820  21.566  11.559   0.840
10561W        W82821  39.985  24.959  11.595
10562W        W82822   1.380  33.758  13.918
10563W        W82823  19.294  39.398   4.199
10564W        W82824  22.229  44.976   0.485
10565W        W82825   9.247  32.124   1.193
10566W        W82826  30.582   7.600  11.812
10567W        W82827  16.670  18.830   2.207
10568W        W82828  24.627  29.051   0.238
10569W        W82829  32.195  25.883  13.889
10570W        W82830  30.591  37.342  13.474
10571W        W82831  36.921  32.470   1.418
10572W        W82832  22.018  26.999   2.215
10573W        W82833  43.519  24.718  12.539
10574W        W82834  25.113   0.201   4.493
10575W        W82835  21.547  35.120  10.724
10576W        W82836  10.093  30.974   0.304
10577W        W82837  24.384  44.593   1.931
10578W        W82838  39.583  17.568   2.698
10579W        W82839  11.096   3.095  13.085
10580W        W82840  11.787   1.287   2.733
10581W        W82841  17.019  11.278  12.487
10582W        W82842   7.374  27.730   0.884
10583W        W82843  33.034   3.943  12.100
10584W        W82844  23.279   6.518  12.530
10585W        W82845   9.116  13.267  11.997
10586W        W82846  37.458  28.489   2.271
10587W        W82847  42.425  40.286  12.966
10588W        W82848  17.407  18.601   4.482
10589W        W82849   8.083   3.416  11.258
10590W        W82850   0.513  30.000  14.267
10591W        W82851   7.254  34.817  11.755
10592W        W82852  37.180  32.198   4.149
10593W        W82853  40.815   2.338  11.176
10594W        W82854  19.985  24.361  12.102
10595W        W82855  20.840  34.084   3.556
10596W        W82856  24.628  23.994   1.707
10597W        W82857  28.849  10.638   1.212
10598W        W82858   4.189  38.618   0.450
10599W        W82859  39.774  21.567  11.583
10600W        W82860  32.449   9.952  13.356
10601W        W82861   6.576  39.830  10.181
10602W        W82862  41.047  19.055  11.053
10603W        W82863  11.253   5.683  11.058
10604W        W82864  26.162  42.710   1.349
10605W        W82865   2.624   3.859   0.967
10606W        W82866  29.698   6.790  14.513
10607W        W82867   6.335   3.217   9.792
10608W        W82868  22.460  10.710  14.729
10609W        W82869  21.096  18.765  12.430
10610W        W82870  40.019  10.180   1.309
10611W        W82871   6.859  13.237   4.301
10612W        W82872  20.725  15.142  14.531
10613W        W82873  24.502  44.434   0.465
10614W        W82874  19.181   0.516  12.132
10615W        W82875  42.044  23.193   0.867
10616W        W82876  23.153  24.517   0.450
10617W        W82877  34.649  37.412   1.896
10618W        W82878  11.824  32.025  10.521
10619W        W82879  17.769  23.476   1.209
10620W        W82880   9.888  32.579  13.364
10621W        W82881  21.222  21.736   5.125
10622W        W82882   3.525  37.997   2.827
10623W        W82883  16.664  15.918  13.794
10624W        W82884  19.957  34.134  12.928
10625W        W82885  31.084  13.743   1.401
10626W        W82886  35.084  19.614  13.998
10627W        W82887   5.681  16.980   4.068
10628W        W82888  31.040  13.073   2.827
10629W        W82889  32.817  20.777   1.418
10630W        W82890  17.132  11.387   4.363
10631W        W82891   1.607  14.244  14.800
10632W        W82892  12.936   6.209  14.917
10633W        W82893  26.667   4.975  11.076
10634W        W82894  42.593   2.268  13.919
10635W        W82895  24.699  43.472   2.379
10636W        W82896  17.058  35.732  11.959
10637W        W82897   8.406   9.691  13.851
10638W        W82898  36.117  30.667   2.323
10639W        W82899  14.706  35.891  11.745
10640W        W82900  39.376  16.783   3.331
10641W        W82901   5.842   2.897  12.611
10642W        W82902  38.761  32.595  11.562
10643W        W82903  19.549  10.649   4.573
10644W        W82904  20.482  10.829  10.663
10645W        W82905  36.044  28.475   4.530
10646W        W82906  14.099  20.081   1.589
10647W        W82907   8.400  30.994  11.129
10648W        W82908   0.914  32.982  12.006
10649W        W82909  18.728  34.412  13.537
10650W        W82910   7.705  44.837   2.693
10651W        W82911  41.226  10.667   1.229
10652W        W82912   9.565   8.960  14.793
10653W        W82913  28.557  19.157   0.423
10654W        W82914  42.322  10.150  11.381
10655W        W82915  39.465  33.381   2.268
10656W        W82916   9.936  23.820  12.551
10657W        W82917  30.392  39.544   2.259
10658W        W82918  41.861  24.553   3.231
10659W        W82919  43.691  21.043  12.501
10660W        W82920  21.287  41.258   2.703
10661W        W82921  20.674  19.174  13.503
10662W        W82922  34.211   2.145  13.897
10663W        W82923  26.632  31.439   3.696
10664W        W82924   6.388  22.665   3.992
10665W        W82925   6.418  35.160  14.254
10666W        W82926  11.559  40.804   4.571
10667W        W82927   4.317  42.075  11.459
10668W        W82928  24.003  13.680  12.884
10669W        W82929  15.637  28.661   0.372
10670W        W82930   1.724  34.577  14.184
10671W        W82931  18.323  26.036  11.251
10672W        W82932  24.103  32.578  12.882
10673W        W82933  27.706   1.423   1.458
10674W        W82934  27.430  22.085   2.459
10675W        W82935  32.891  11.715   4.759
10676W        W82936  41.727  17.816   1.021
10677W        W82937  26.712   2.679   4.409
10678W        W82938  30.550  40.878  13.357
10679W        W82939  40.224  24.115  11.035
10680W        W82940   5.036  27.595  12.672
10681W        W82941  42.860  27.374  13.333
10682W        W82942  17.583  19.084  12.528
10683W        W82943  40.018  32.134  12.864
10684W        W82944   0.683   0.196  12.076
10685W        W82945  33.661  16.624  12.605
10686W        W82946   2.871   9.322   4.769
10687W        W82947  12.244  25.976   1.479
10688W        W82948  43.443   6.972   1.238
10689W        W82949  15.534  25.123   2.265
10690W        W82950  22.733   8.813  13.013
10691W        W82951  23.198  38.354  12.888
10692W        W82952  21.002  31.699   1.853
10693W        W82953  40.177  16.692   1.264
10694W        W82954  18.811  23.544  12.624
10695W        W82955   0.374  15.648  11.019
10696W        W82956  17.220  26.702   1.888
10697W        W82957  39.321   1.586   0.388
10698W        W82958  25.713  40.880   2.504
10699W        W82959  19.991  34.469  11.591
10700W        W82960  19.255  20.801  11.602
10701W        W82961  29.007  19.057   0.747
10702W        W82962   6.819  41.302  12.765
10703W        W82963  30.278  19.284  11.092
10704W        W82964  18.663   5.215  12.525
10705W        W82965   0.374  38.489   2.302
10706W        W82966   4.383  10.279   0.777
10707W        W82967   7.688  29.429  11.980
10708W        W82968  12.960   6.324  10.713
10709W        W82969  44.276  21.166   2.163
10710W        W82970   3.274  40.268  12.037
10711W        W82971  35.675  23.503   2.290
10712W        W82972  30.985  31.324  10.361
10713W        W82973  25.007  23.581  10.691
10714W        W82974  15.417  17.089  11.933
10715W        W82975   7.390   1.285  11.571
10716W        W82976  29.498  44.199  14.079
10717W        W82977   9.196  10.279  14.906
10718W        W82978  10.060   3.953  10.594
10719W        W82979  11.815  19.579   3.288
10720W        W82980   2.720  41.408  13.824
10721W        W82981  18.606  22.759   3.679
10722W        W82982  28.453  31.075  14.335
10723W        W82983   9.874   7.396   3.197
10724W        W82984  14.451  28.724  13.937
10725W        W82985  32.281  18.789   0.022
10726W        W82986  14.795  12.332  14.934
10727W        W82987  19.056  19.161   3.540
10728W        W82988  11.391  29.351  11.965
10729W        W82989  18.862  15.269   5.059
10730W        W82990  11.946  32.553  11.716
10731W        W82991  22.492  26.097   5.049
10732W        W82992  37.889  40.894   2.191
10733W        W82993   0.093  19.308   1.870
10734W        W82994  42.983  12.896   1.426
10735W        W82995  42.975  30.551   1.923
10736W        W82996   1.811  42.479  13.378
10737W        W82997  10.352   9.042   3.421
10738W        W82998   4.840  15.734   2.323
10739W        W82999  39.874   9.804  10.638
10740W        W83000  27.395  40.987   1.470
10741W        W83001  41.458  25.119   4.525
10742W        W83002  43.724   7.222   0.705
10743W        W83003  21.586  11.926   1.203
10744W        W83004  42.714   4.247   4.130
10745W        W83005   1.039   0.481   1.898
10746W        W83006  13.854  17.260   0.820
10747W        W83007  13.029  41.083  12.807
10748W        W83008  32.309  37.316  14.416
10749W        W83009  29.116   5.432  13.592
10750W        W83010  34.498  20.763  11.519
10751W        W83011  24.490  11.290   1.971
10752W        W83012  36.800  21.377   0.494
10753W        W83013  33.246  25.068   4.118
10754W        W83014  29.557  16.059   4.312
10755W        W83015  15.710   2.066   3.773
10756W        W83016  16.509  21.492  14.424
10757W        W83017  17.541   4.721   4.217
10758W        W83018  25.721  30.063  10.623
10759W        W83019  25.421  23.639   1.769
10760W        W83020  10.756  33.384  11.645
10761W        W83021  28.239  27.113   0.545
10762W        W83022  36.893  31.500  14.971
10763W        W83023  34.011  11.924  13.358
10764W        W83024   4.175  36.944  11.398
10765W        W83025  44.301   8.394   3.222
10766W        W83026  37.899  18.969   1.692
10767W        W83027  16.974  42.053  12.585
10768W        W83028  41.825  36.456   4.335
10769W        W83029   9.258  35.782   4.146
10770W        W83030  28.246  11.152  14.822
10771W        W83031  15.856   8.253   2.742
10772W        W83032  38.484  11.996  12.884
10773W        W83033  15.776  22.835   2.227
10774W        W83034   3.353  39.889   2.368
10775W        W83035  42.165  29.216   0.892
10776W        W83036  39.917   7.729   3.282
10777W        W83037  44.430  23.205   3.363
10778W        W83038  36.201   1.397  14.521
10779W        W83039  35.326  18.035  13.915
10780W        W83040  27.617  12.642  14.043
10781W        W83041   1.439  41.243   2.873
10782W        W83042  35.992  30.011  14.826
10783W        W83043  42.393  19.986   2.889
10784W        W83044  28.511  23.154  12.924
10785W        W83045  12.119  27.665  11.932
10786W        W83046  10.574  44.031   1.237
10787W        W83047  10.844  14.256   0.811
10788W        W83048  40.351   3.516  12.088
10789W        W83049   1.298  29.968  11.603
10790W        W83050   2.310  35.512  12.026
10791W        W83051  12.098  29.546   0.824
10792W        W83052  12.809   2.945   2.827
10793W        W83053  41.510  11.203  14.816
10794W        W83054  39.718  18.896   1.768
10795W        W83055  25.530  18.590  13.442
10796W        W83056  11.240  25.545   4.714
10797W        W83057  25.669  15.677  11.779
10798W        W83058  39.397  13.013  13.541
10799W        W83059  44.436  32.653   4.813
10800W        W83060  38.960  16.359  11.528
10801W        W83061  16.353  19.686   1.112
10802W        W83062  37.981  20.081   4.195
10803W        W83063  41.754  25.750  11.500
10804W        W83064  28.155  38.602  10.790
10805W        W83065  11.121  36.992  10.971
10806W        W83066  11.676   5.909  12.873
10807W        W83067  30.835  23.019  14.954
10808W        W83068  29.816  18.335   2.257
10809W        W83069   4.562  15.825   3.718
10810W        W83070  13.118  43.958   1.148
10811W        W83071   3.777  20.337   1.868
10812W        W83072   0.510   5.862   2.584
10813W        W83073  43.829  20.257   1.905
10814W        W83074   6.069  23.444   0.275
10815W        W83075  25.741  18.115  13.398
10816W        W83076  37.375  37.106  14.418
10817W        W83077  39.601  25.921   4.619
10818W        W83078   6.163  12.197  13.425
10819W        W83079  41.429   0.233   0.430
10820W        W83080  26.843  39.377   3.709
10821W        W83081  16.963  35.592   0.748
10822W        W83082  28.117  44.958  14.987
10823W        W83083  36.597  24.947  14.907
10824W        W83084  42.733   8.914  12.873
10825W        W83085  43.970  23.075   0.890
10826W        W83086  21.502   8.549  14.740
10827W        W83087   7.679  25.370  12.973
10828W        W83088  32.920  22.254  11.587
10829W        W83089  21.711   3.645  11.109
10830W        W83090  21.265  20.271   1.673
10831W        W83091  27.517  22.308  13.507
10832W        W83092  18.059   8.127  14.918
10833W        W83093  20.873  34.759   4.615
10834W        W83094  36.340  11.755   0.749
10835W        W83095  28.561  37.832  13.967
10836W        W83096  30.363   8.356  12.979
10837W        W83097  18.851  41.394   2.735
10838W        W83098  18.441  31.461  13.559
10839W        W83099  23.029  42.431   0.001
10840W        W83100   8.460  33.476  12.913
10841W        W83101  33.502  39.433   2.128
10842W        W83102  19.609  38.851   4.948
10843W        W83103  35.359   4.733   3.225
10844W        W83104  32.028  13.080  12.284
10845W        W83105  17.044   6.513  13.462
10846W        W83106  10.808  41.788  12.800
10847W        W83107   0.034  17.744   2.867
10848W        W83108   6.129  15.239   3.778
10849W        W83109   0.517   5.711  14.512
10850W        W83110  31.995  16.793   1.885
10851W        W83111  27.674  30.720  12.049
10852W        W83112  12.649   4.842   0.008
10853W        W83113   9.620  19.163   3.324
10854W        W83114  13.775  39.354   3.179
10855W        W83115  10.430  23.636  12.568
10856W        W83116   7.999   6.246  13.257
10857W        W83117  14.760  10.105  11.267
10858W        W83118   1.820  10.133   1.708
10859W        W83119   7.831   7.886   0.562
10860W        W83120   6.749  10.938  14.747
10861W        W83121  22.615  20.709   0.764
10862W        W83122  27.933  38.298  11.164
10863W        W83123   2.945  36.457  13.922
10864W        W83124  42.808  20.202  14.532
10865W        W83125  24.014   5.979  12.552
10866W        W83126  14.299  29.438  10.211
10867W        W83127  22.856  25.421   0.465
10868W        W83128  25.162  25.187  10.590
10869W        W83129   4.849  44.708  13.869
10870W        W83130  33.126  42.736   1.887
10871W        W83131   1.808  13.404   3.498
10872W        W83132  39.051  31.264   3.733
10873W        W83133  27.611  17.900   3.309
10874W        W83134  22.122   1.165  14.888
10875W        W83135  14.574  14.492   1.676
10876W        W83136  21.225  24.733   0.411
10877W        W83137  41.419  20.685   3.199
10878W        W83138  21.709  30.172   1.488
10879W        W83139  13.703  22.655  14.249
10880W        W83140   9.861  36.961   0.968
10881W        W83141  35.994  18.992  14.730
10882W        W83142  42.845   2.336  11.117
10883W        W83143  25.732   0.280   1.799
10884W        W83144  29.144  39.441   2.099
10885W        W83145   6.068  16.736   2.922
10886W        W83146  29.115   1.865   3.259
10887W        W83147  38.443  33.947  11.763
10888W        W83148  22.292  27.896   3.081
10889W        W83149  11.038   0.529  10.141
10890W        W83150  26.542  39.212   5.421
10891W        W83151  10.657  10.591   0.727
10892W        W83152  21.751   6.763   0.500
10893W        W83153   2.327  31.260   4.345
10894W        W83154  30.026  39.898  10.792
10895W        W83155   6.219  15.458   4.917
10896W        W83156  32.538  34.574   3.106
10897W        W83157  22.140  33.385  10.465
10898W        W83158   4.386   1.811  12.349
10899W        W83159  11.129  21.216  14.865
10900W        W83160  17.742  31.667  10.687
10901W        W83161  34.809  26.885   1.382
10902W        W83162  18.524   7.368   0.874
10903W        W83163   2.787  23.488   3.337
10904W        W83164  21.641  24.174  11.084
10905W        W83165   4.311  33.361   2.148
10906W        W83166  36.917  32.347  13.421
10907W        W83167  39.377   4.895   2.231
10908W        W83168  20.266  22.193   1.866
10909W        W83169  29.600  32.466   2.639
10910W        W83170  44.260  37.320   0.794
10911W        W83171  26.467   8.645   3.273
10912W        W83172  36.473  44.833   3.303
10913W        W83173   0.637  15.928  12.096
10914W        W83174  26.743  19.298   2.590
10915W        W83175  22.049  37.098   1.654
10916W        W83176  20.421  25.562   1.870
10917W        W83177   6.676  10.846  13.789
10918W        W83178  15.154   8.491  13.047
10919W        W83179   9.573  20.592   2.264
10920W        W83180  27.147  39.066   4.655
10921W        W83181  36.812  13.770  13.807
10922W        W83182  14.812  22.634  12.899
10923W        W83183  19.696  28.731   1.387
10924W        W83184  33.815  40.474  12.028
10925W        W83185  33.968   7.397  11.547
10926W        W83186  21.266  41.491  12.488
10927W        W83187   7.567  19.583  11.181
10928W        W83188  15.776  11.704  13.431
10929W        W83189   6.981   7.222   1.284
10930W        W83190  26.220  42.996   0.364
10931W        W83191  10.583  35.905  12.932
10932W        W83192   2.989  43.297   4.825
10933W        W83193  22.211   8.602  11.304
10934W        W83194  27.924  10.922   1.305
10935W        W83195  44.473  22.079  13.535
10936W        W83196  22.735   6.297  14.837
10937W        W83197  25.467  40.411  11.872
10938W        W83198  11.640   6.382  11.559
10939W        W83199  36.053  35.482  11.271
10940W        W83200  44.105  20.628  14.034
10941W        W83201  26.503  20.119   1.277
10942W        W83202  14.865  25.059  11.576
10943W        W83203  13.785   4.750  13.495
10944W        W83204   3.400  20.050   1.344
10945W        W83205  16.596  43.023  13.008
10946W        W83206  30.621  38.080   1.248
10947W        W83207  11.711  21.542   4.193
10948W        W83208  23.601  21.251   1.744
10949W        W83209   8.730  34.670   1.872
10950W        W83210  30.190   0.506   4.166
10951W        W83211  11.694  39.478   1.433
10952W        W83212   8.224  33.020  12.840
10953W        W83213  32.626  29.779  11.517
10954W        W83214  17.049  24.108   2.089
10955W        W83215   2.029  27.014   2.283
10956W        W83216  20.298  28.417  14.953
10957W        W83217  11.766   9.709  14.714
10958W        W83218   7.656  33.887  12.930
10959W        W83219   5.480  22.566   4.974
10960W        W83220  18.902  41.841  11.040
10961W        W83221  32.039  14.592   1.804
10962W        W83222  33.395  35.852   3.638
10963W        W83223  24.511  32.915  12.878
10964W        W83224  44.330  16.779   2.371
10965W        W83225  42.073  21.807  13.277
10966W        W83226  39.110  22.167   2.909
10967W        W83227   8.782   8.660  14.481
10968W        W83228  19.250  13.987  12.006
10969W        W83229  12.578   6.906  11.604
10970W        W83230  24.484  14.952  11.376
10971W        W83231  28.608  28.021   4.327
10972W        W83232  32.309  35.141   3.684
10973W        W83233   0.012  11.731  14.896
10974W        W83234   1.550  19.291  12.024
10975W        W83235  43.990  10.113   4.626
10976W        W83236  41.237  24.310   2.257
10977W        W83237   4.989  44.965   4.692
10978W        W83238  38.765   8.824   2.233
10979W        W83239  32.302  10.441  12.558
10980W        W83240  16.134  39.456  12.936
10981W        W83241   3.449  10.293   1.707
10982W        W83242   3.764   4.558   3.808
10983W        W83243  28.675  41.971   1.952
10984W        W83244  35.744  35.986  12.600
10985W        W83245  13.013   0.515  14.813
10986W        W83246   8.532   5.288   4.187
10987W        W83247  24.538  20.648   4.541
10988W        W83248   2.190  40.090   2.813
10989W        W83249   3.654  35.977  12.905
10990W        W83250   2.535  29.457   4.607
10991W        W83251  28.966  35.809  11.613
10992W        W83252  12.178   7.662  14.771
10993W        W83253   0.804   1.302   4.832
10994W        W83254  44.813  17.665  14.031
10995W        W83255  13.108  40.014   4.517
10996W        W83256  32.127   1.919   2.981
10997W        W83257  26.632  39.475   0.928
10998W        W83258   7.727   3.332  14.998
10999W        W83259  12.872  22.676  11.065
11000W        W83260  10.604  23.520  13.837
11001W        W83261   6.452  39.621   4.302
11002W        W83262  21.145  10.630  14.628
11003W        W83263  22.208  14.212  14.526
11004W        W83264  14.128  36.532   3.897
11005W        W83265   5.203  24.989   1.477
11006W        W83266  11.688  26.024   2.680
11007W        W83267   0.250  36.996  10.650
11008W        W83268  19.516   5.828  13.752
11009W        W83269  27.865  39.083  12.947
11010W        W83270  11.215  23.490  10.768
11011W        W83271  38.134  25.532  12.905
11012W        W83272  12.200  20.295   2.736
11013W        W83273  28.977  29.939   4.980
11014W        W83274  24.914  29.679  14.803
11015W        W83275   6.672  32.887  11.673
11016W        W83276  24.682  14.389   4.534
11017W        W83277  43.140   6.192   1.844
11018W        W83278  30.695  38.391   4.506
11019W        W83279  16.311  28.053   0.309
11020W        W83280  11.763  15.379  12.510
11021W        W83281  21.536   5.443   2.348
11022W        W83282   9.618  16.231   0.886
11023W        W83283  25.471  35.520  14.262
11024W        W83284  40.381  17.591   4.757
11025W        W83285  28.209  27.211   0.039
11026W        W83286   5.548   0.779  11.376
11027W        W83287  42.715  12.653   3.242
11028W        W83288  14.676   8.266   1.174
11029W        W83289  25.715  33.659   1.818
11030W        W83290   1.188  27.473  14.276
11031W        W83291   5.891  33.002  12.678
11032W        W83292  38.719   9.358   1.653
11033W        W83293  24.058  18.652   2.159
11034W        W83294  10.327   0.639   2.129
11035W        W83295   2.682   8.478  13.409
11036W        W83296   6.770   6.939  14.939
11037W        W83297  34.967  11.335  11.195
11038W        W83298  44.556   7.452   4.135
11039W        W83299  17.314   5.981   1.498
11040W        W83300  34.560  26.973   3.415
11041W        W83301  20.379  17.348   3.324
11042W        W83302  40.239  29.446  12.038
11043W        W83303  37.655  25.141   2.693
11044W        W83304  41.581  22.173  11.834
11045W        W83305   9.467  14.401   0.049
11046W        W83306  44.429  44.546  10.379
11047W        W83307   0.520  40.372   1.244
11048W        W83308  41.088   1.698   2.797
11049W        W83309  16.830  40.010   3.638
11050W        W83310  27.335  19.782   3.744
11051W        W83311  29.972  21.976  11.539
11052W        W83312   0.960  24.133   0.445
11053W        W83313  44.111  30.850   4.078
11054W        W83314  40.306  10.174  11.005
11055W        W83315  11.061  44.559  12.874
11056W        W83316  21.248  39.457  14.989
11057W        W83317  30.999  39.349   4.637
11058W        W83318  30.194  17.371  14.847
11059W        W83319   0.451  43.823   3.336
11060W        W83320  18.017  37.131  13.966
11061W        W83321  31.086   8.706  11.045
11062W        W83322   4.926  12.276   0.899
11063W        W83323  21.093  12.880  11.092
11064W        W83324  33.589  37.545  11.264
11065W        W83325   5.200   7.335   4.245
11066W        W83326  23.026  42.417   3.127
11067W        W83327  41.793  34.057  10.632
11068W        W83328  23.531  33.577   1.757
11069W        W83329  13.490  29.870   0.899
11070W        W83330  41.372  19.522   1.225
11071W        W83331  40.622  40.736   1.548
11072W        W83332  26.797  12.206  14.880
11073W        W83333  24.801  22.598  12.971
11074W        W83334  20.224  41.118   2.755
11075W        W83335  11.618  22.799  12.873
11076W        W83336   5.291  44.309  11.553
11077W        W83337  30.213  33.328  14.467
11078W        W83338  25.714   9.648   1.774
11079W        W83339  12.571  30.961  13.467
11080W        W83340  42.837  12.579   1.956
11081W        W83341  25.347  38.006  11.170
11082W        W83342  19.506  42.924  13.406
11083W        W83343  34.998  24.456  13.748
11084W        W83344  28.671  23.302   0.994
11085W        W83345  22.693   2.797  13.978
11086W        W83346   2.897   4.380   0.689
11087W        W83347  30.192  12.603   0.762
11088W        W83348  10.619   2.174   4.429
11089W        W83349  38.321  36.027  11.147
11090W        W83350  24.430  23.159  12.038
11091W        W83351   4.884  31.993  10.717
11092W        W83352  24.277   2.895   1.231
11093W        W83353  43.329  25.822   0.752
11094W        W83354  20.765  21.937  12.551
11095W        W83355   2.968   9.732   3.798
11096W        W83356  10.397  13.667   0.236
11097W        W83357  18.848  37.704  11.649
11098W        W83358   8.458  15.563   1.784
11099W        W83359  10.100  11.289  14.122
11100W        W83360  15.396  34.061   0.416
11101W        W83361  22.987  10.592  11.079
11102W        W83362  15.768  43.565  12.169
11103W        W83363  18.526   5.435  13.682
11104W        W83364  29.055  36.193   3.490
11105W        W83365  16.987  14.716   1.550
11106W        W83366  14.922  12.114  11.806
11107W        W83367  27.407  41.275   2.705
11108W        W83368  43.916  42.942   3.221
11109W        W83369  39.036  12.906  11.643
11110W        W83370  19.462  17.885   0.839
11111W        W83371   3.862  30.908  13.551
11112W        W83372  35.780   4.077   0.344
11113W        W83373  15.273  24.207   2.662
11114W        W83374   5.132  42.814   4.640
11115W        W83375   7.893  31.065  14.949
11116W        W83376   0.668  36.117  14.421
11117W        W83377  25.181  38.392   1.585
11118W        W83378  40.254  38.802  13.880
11119W        W83379  35.791  30.946   3.633
11120W        W83380  22.265  19.607  12.470
11121W        W83381  25.084  10.596   3.737
11122W        W83382   5.765   1.412  10.591
11123W        W83383  17.008  30.493  13.824
11124W        W83384  36.092  10.786   3.549
11125W        W83385  23.228  42.859  11.896
11126W        W83386  29.076  26.247   2.372
11127W        W83387  35.846   6.943  14.889
11128W        W83388  32.459  24.943  11.636
11129W        W83389  28.514  23.476   2.938
11130W        W83390  31.993  10.460   3.807
11131W        W83391  44.171  20.570  11.180
11132W        W83392  16.246   5.871   4.885
11133W        W83393  20.541  25.034  11.980
11134W        W83394  34.889  33.641  11.829
11135W        W83395  42.526  37.102   3.354
11136W        W83396  12.168  30.415  10.528
11137W        W83397  24.792   3.643   2.778
11138W        W83398   2.076  42.898  13.572
11139W        W83399  36.395  15.147  11.483
11140W        W83400  17.486  13.179   2.323
11141W        W83401   5.978  29.421   0.753
11142W        W83402   9.338  38.457   2.842
11143W        W83403   2.951  40.851   1.197
11144W        W83404  23.978  43.940   3.348
11145W        W83405  43.467  12.944   3.662
11146W        W83406  27.898  39.035   2.994
11147W        W83407  39.239  38.475  11.089
11148W        W83408  32.713   3.689  14.441
11149W        W83409  34.013  27.473  13.123
11150W        W83410  15.056   8.724  11.452
11151W        W83411  25.057   6.407  12.044
11152W        W83412  30.646  30.917  10.313
11153W        W83413   9.766  13.256  13.828
11154W        W83414  27.513  27.051  13.556
11155W        W83415   1.371   8.120   0.714
11156W        W83416   4.153  19.988  12.013
11157W        W83417  29.710  28.718   2.589
11158W        W83418  24.568  22.924  11.127
11159W        W83419  22.344   9.686  12.921
11160W        W83420  30.606  29.615   1.691
11161W        W83421  36.406  10.886   3.140
11162W        W83422   0.071   5.232   2.341
11163W        W83423   4.264  28.450  11.533
11164W        W83424  30.628  36.307  12.481
11165W        W83425  13.613  30.173  12.428
11166W        W83426  25.560  22.111  11.164
11167W        W83427  24.479  37.274   5.169
11168W        W83428  14.722   0.429  13.015
11169W        W83429   8.701   9.667   0.715
11170W        W83430  27.959  41.615   1.477
11171W        W83431  15.091  42.430  12.618
11172W        W83432  18.809  33.786   5.447
11173W        W83433  37.986  21.783   2.252
11174W        W83434  42.018  10.304  10.558
11175W        W83435  21.495  32.648  11.409
11176W        W83436  34.069   6.433  14.441
11177W        W83437  13.320  28.400   2.272
11178W        W83438  42.079   9.708  13.787
11179W        W83439  44.762  20.768   1.360
11180W        W83440  27.994  21.328   2.036
11181W        W83441  15.099   1.037   0.256
11182W        W83442   9.189  21.796  13.638
11183W        W83443  24.063   5.408  10.883
11184W        W83444  27.684   7.339   2.719
11185W        W83445   8.336  30.365  11.788
11186W        W83446  17.729  21.257   4.571
11187W        W83447  18.121  35.388  14.586
11188W        W83448  16.649  13.946  12.786
11189W        W83449   9.853  33.330  11.149
11190W        W83450  30.952  12.230   4.919
11191W        W83451  36.025   6.337   3.653
11192W        W83452  30.688  23.636  14.044
11193W        W83453  21.992   1.191   1.431
11194W        W83454  15.100   6.925  12.001
11195W        W83455  32.364   2.363   2.606
11196W        W83456  22.479  39.016   4.199
11197W        W83457  16.233   4.961  11.880
11198W        W83458  37.467  19.342  11.952
11199W        W83459  40.056  10.308  14.949
11200W        W83460  23.493  32.625  12.099
11201W        W83461  23.142  33.573  14.492
11202W        W83462  18.872  19.770  13.059
11203W        W83463  22.297  34.989   1.351
11204W        W83464  21.793  38.371   3.194
11205W        W83465   9.592  41.263  12.117
11206W        W83466  33.902  43.934   0.378
11207W        W83467  10.196   1.927   2.524
11208W        W83468   7.184  44.037   1.738
11209W        W83469  15.771  34.664   4.858
11210W        W83470   8.460  41.272  11.448
11211W        W83471  40.292  31.147   1.345
11212W        W83472  35.386   3.678   3.259
11213W        W83473  20.868  16.364   1.436
11214W        W83474  17.415  35.992  14.986
11215W        W83475  37.567   0.018  12.408
11216W        W83476   8.879  40.189   4.985
11217W        W83477  10.212  18.343   0.179
11218W        W83478  21.683  12.501   0.709
11219W        W83479   6.714   5.667  13.002
11220W        W83480  22.441   1.515  13.029
11221W        W83481   0.280  35.875   2.772
11222W        W83482  21.509  37.501  14.603
11223W        W83483  15.998  24.010  12.372
11224W        W83484  39.834  35.424  10.693
11225W        W83485  19.153  32.685  13.115
11226W        W83486  44.251  17.107  10.930
11227W        W83487  15.853  24.880   2.690
11228W        W83488  16.403  31.110  12.796
11229W        W83489  20.668   5.947   0.818
11230W        W83490  37.361  14.932   4.576
11231W        W83491  33.671  43.085   3.795
11232W        W83492  32.111  12.920   3.528
11233W        W83493  25.049  40.531  11.030
11234W        W83494  20.258  42.836  14.836
11235W        W83495  31.952  15.667  11.992
11236W        W83496  44.129  20.542   2.890
11237W        W83497  27.103  39.941  14.450
11238W        W83498  20.754  29.578   0.904
11239W        W83499  40.876  44.340   0.398
11240W        W83500  23.107   0.760  14.810
11241W        W83501   1.249   7.716   4.361
11242W        W83502  41.007  10.007   3.937
11243W        W83503   2.375  16.376  14.556
11244W        W83504  19.484  34.460  11.607
11245W        W83505  22.321  40.842  13.766
11246W        W83506  12.498  44.411   3.708
11247W        W83507  26.174  13.507  14.763
11248W        W83508  43.727   0.277   3.156
11249W        W83509  27.094  14.512   4.619
11250W        W83510  35.675   2.231   4.894
11251W        W83511  44.406  10.384  13.987
11252W        W83512  33.527  35.707   4.131
11253W        W83513  27.434  16.192   2.121
11254W        W83514  34.001  39.488   0.411
11255W        W83515  17.739  23.196  14.929
11256W        W83516  44.634  29.801  13.800
11257W        W83517  12.903  22.608  12.476
11258W        W83518   7.127  19.977  10.831
11259W        W83519  18.059   1.677  14.306
11260W        W83520  44.848  29.924   3.725
11261W        W83521  16.188  22.679   0.848
11262W        W83522  28.704  25.349   3.409
11263W        W83523  44.825   1.071   2.826
11264W        W83524   6.879   9.512  14.842
11265W        W83525  39.137  23.072  11.140
11266W        W83526  16.585   2.248   1.829
11267W        W83527   5.438  24.766  10.602
11268W        W83528  32.639  19.097   0.877
11269W        W83529  27.942  12.879   1.240
11270W        W83530  36.692  15.293  14.356
11271W        W83531  14.607  25.273  12.915
11272W        W83532   9.218  10.285   4.136
11273W        W83533  35.255  19.212   4.077
11274W        W83534  43.965  24.135   3.171
11275W        W83535  40.550  24.887   0.905
11276W        W83536  23.044   6.686   1.275
11277W        W83537  34.011  36.157   1.704
11278W        W83538  10.608  37.333   4.663
11279W        W83539  38.444  24.503   0.252
11280W        W83540  17.306  18.538  11.879
11281W        W83541  17.648   3.809   0.608
11282W        W83542  17.623  40.090  14.540
11283W        W83543   5.925  24.213   1.284
11284W        W83544   9.244  21.452   2.741
11285W        W83545  32.336  19.187   0.386
11286W        W83546   7.435  28.752  10.648
11287W        W83547  26.613  22.525  14.854
11288W        W83548   2.297   1.508  13.302
11289W        W83549  30.971   7.814   2.740
11290W        W83550  25.207  14.730   1.877
11291W        W83551  24.245  32.105  13.120
11292W        W83552  14.098   1.901   1.260
11293W        W83553   7.834  17.191  10.347
11294W        W83554  30.584  37.170  10.660
11295W        W83555  18.774  40.925   2.968
11296W        W83556  17.524  40.572  14.362
11297W        W83557  20.237  14.578   1.786
11298W        W83558  10.747  38.266   0.968
11299W        W83559  11.637  36.385   4.180
11300W        W83560  30.020  10.156  13.384
11301W        W83561  27.740   0.793  14.914
11302W        W83562  44.373  32.527   4.297
11303W        W83563   0.476  29.080   2.522
11304W        W83564  44.626  41.950  14.013
11305W        W83565   4.614  43.349   1.928
11306W        W83566  40.407   0.375  12.561
11307W        W83567  23.483  26.604   3.705
11308W        W83568   4.911   9.038  12.815
11309W        W83569  33.285  24.924  13.390
11310W        W83570  11.189   0.503   4.682
11311W        W83571  24.040   7.385   1.875
11312W        W83572  24.407   3.687   3.683
11313W        W83573  40.980   6.449  13.492
11314W        W83574  32.224  27.189   0.054
11315W        W83575  22.376   5.265   0.943
11316W        W83576  20.009  12.183   2.297
11317W        W83577  11.159  31.696   0.381
11318W        W83578  11.149   4.807  11.474
11319W        W83579   8.673  41.403   3.140
11320W        W83580  22.163  27.508   2.262
11321W        W83581   4.653  44.755  10.827
11322W        W83582  35.496  21.556   4.314
11323W        W83583   2.083  36.559  12.951
11324W        W83584  33.612  13.896   0.435
11325W        W83585  15.947  19.808  10.681
11326W        W83586  25.602  33.801   2.341
11327W        W83587   2.759  27.650   2.143
11328W        W83588  18.579  11.181  14.984
11329W        W83589  17.216   2.196   0.012
11330W        W83590  37.821  19.764   4.570
11331W        W83591  39.176  16.384   0.945
11332W        W83592  42.524  42.510  13.482
11333W        W83593  35.825  26.591  12.540
11334W        W83594  15.179  21.033   1.387
11335W        W83595  41.856  25.082  12.779
11336W        W83596  37.963  41.534  11.626
11337W        W83597  28.745  41.068  11.053
11338W        W83598  15.541  22.158   2.677
11339W        W83599  37.479  37.882  13.985
11340W        W83600  42.849  42.029  14.423
11341W        W83601  11.673  22.157   1.034
11342W        W83602  34.448  24.483   4.777
11343W        W83603  34.008  15.597   4.617
11344W        W83604  10.854   3.234  10.709
11345W        W83605  24.722  15.987  14.287
11346W        W83606   5.282  17.318   1.683
11347W        W83607  19.039   1.326  13.144
11348W        W83608   6.222  39.374   3.261
11349W        W83609  44.497  31.577  10.689
11350W        W83610  20.745  44.038   2.803
11351W        W83611  14.402  34.736  11.906
11352W        W83612   9.822  40.893   4.868
11353W        W83613  28.833  29.814   1.765
11354W        W83614   7.376  23.507  14.306
11355W        W83615  17.989   2.287   3.339
11356W        W83616  17.198  41.392  11.094
11357W        W83617  10.357  26.713  14.406
11358W        W83618   1.019  30.124  13.054
11359W        W83619   6.135  23.231  14.821
11360W        W83620  15.814  39.857  11.530
11361W        W83621   8.834  24.239   1.925
11362W        W83622   8.139  43.050  11.852
11363W        W83623   8.263  24.150  13.886
11364W        W83624  40.806  12.812   0.030
11365W        W83625   1.111  24.386   3.855
11366W        W83626  40.877  44.045  11.623
11367W        W83627  20.119  27.014  11.581
11368W        W83628  35.202   6.824  12.476
11369W        W83629  17.721  37.858   3.424
11370W        W83630  20.644  14.801   1.987
11371W        W83631  13.143  38.391   1.834
11372W        W83632   5.459  32.089  12.487
11373W        W83633  20.596  23.482   3.754
11374W        W83634   5.306  43.098  13.521
11375W        W83635  23.301   5.062   0.523
11376W        W83636   6.446   6.374   2.298
11377W        W83637   9.040  34.288   4.086
11378W        W83638  30.470  29.661  12.276
11379W        W83639   4.983  22.155  13.500
11380W        W83640  23.595   9.117  11.434
11381W        W83641  21.770   0.002  11.194
11382W        W83642   4.578  24.614   4.579
11383W        W83643  42.272  30.506   1.237
11384W        W83644   0.909  24.911   4.693
11385W        W83645   8.878   1.342   0.495
11386W        W83646  21.800  28.501  14.217
11387W        W83647  20.273  21.579  13.702
11388W        W83648  21.298  25.985   3.195
11389W        W83649  39.454  25.952  14.069
11390W        W83650  40.125  13.714   3.756
11391W        W83651  10.945  29.356  10.734
11392W        W83652  42.353  15.810  11.522
11393W        W83653  27.676   4.159   1.779
11394W        W83654  38.819   2.983  10.673
11395W        W83655  10.115  21.728   3.786
11396W        W83656  27.135  31.618   2.134
11397W        W83657  41.806   8.854  13.900
11398W        W83658   7.803  23.422   2.168
11399W        W83659  21.186   5.772   0.219
11400W        W83660  22.748  27.206   3.748
11401W        W83661  34.983  31.571   1.454
11402W        W83662   6.953  23.219  13.374
11403W        W83663  25.157  18.684   0.407
11404W        W83664  10.109  37.462  14.893
11405W        W83665  20.661  36.568   3.779
11406W        W83666  36.375  42.905   0.341
11407W        W83667  28.023   0.921  12.059
11408W        W83668  12.284  37.983   3.711
11409W        W83669  42.024  20.187  13.459
11410W        W83670  14.283  25.961   2.400
11411W        W83671  44.017   5.411   2.856
11412W        W83672  15.312  29.166  13.442
11413W        W83673  17.840  17.354   2.283
11414W        W83674  44.731  33.557  13.083
11415W        W83675  21.196  28.975   3.652
11416W        W83676  35.377   9.723  13.490
11417W        W83677  25.353   3.868   2.275
11418W        W83678  18.651   6.627   0.362
11419W        W83679   1.447  13.711   4.034
11420W        W83680  26.529   5.333  12.893
11421W        W83681  13.272   0.865  11.543
11422W        W83682  31.069  43.396   4.203
11423W        W83683  38.704  11.388   3.181
11424W        W83684  22.163  37.969  11.832
11425W        W83685  36.059  21.261  14.984
11426W        W83686  25.144  32.000   3.119
11427W        W83687  39.824  38.380  11.898
11428W        W83688  44.298  12.124  13.687
11429W        W83689  18.223   2.555   2.605
11430W        W83690  43.323  44.778  12.456
11431W        W83691  27.772  30.670  14.186
11432W        W83692  27.485   4.974   1.666
11433W        W83693  23.114  35.319  11.645
11434W        W83694   2.255   1.786  12.872
11435W        W83695   7.950  40.369  13.606
11436W        W83696   5.712  42.365   2.997
11437W        W83697  17.112  30.054  11.187
11438W        W83698  13.195  30.388  10.762
11439W        W83699  37.070  17.857  11.059
11440W        W83700  24.498  28.477   9.790
11441W        W83701  32.594  13.704  13.250
11442W        W83702  16.047  25.120  12.934
11443W        W83703  20.019  13.734   3.771
11444W        W83704   2.993  17.174   3.208
11445W        W83705   4.236  28.643  14.838
11446W        W83706   0.385   0.033   4.562
11447W        W83707  43.817   6.172   2.471
11448W        W83708   4.766  14.745   5.077
11449W        W83709  24.587  26.109   1.295
11450W        W83710  17.441  13.911   3.620
11451W        W83711  30.390  23.636   1.483
11452W        W83712  11.779  27.571  11.378
11453W        W83713  35.496   2.696  14.414
11454W        W83714  37.546  35.467  14.288
11455W        W83715  44.908  22.753  13.407
11456W        W83716   3.503   8.938   2.727
11457W        W83717  43.299  30.878   3.102
11458W        W83718  20.789  37.406  10.703
11459W        W83719  12.324   1.474   2.260
11460W        W83720   9.363   4.498   0.297
11461W        W83721   2.526  37.055   3.802
11462W        W83722   2.290  32.541  12.154
11463W        W83723  10.639   4.268   3.378
11464W        W83724  27.923  42.385  10.363
11465W        W83725  41.801  40.805  14.507
11466W        W83726  36.560  36.122  12.966
11467W        W83727   3.873   8.372   1.341
11468W        W83728   0.517   2.899   0.792
11469W        W83729  43.689   3.988   4.220
11470W        W83730   3.143   3.878  13.977
11471W        W83731  10.680  30.065   3.327
11472W        W83732  43.292  27.205  13.071
11473W        W83733  21.117  13.723   1.631
11474W        W83734  36.559  16.291  13.469
11475W        W83735  24.417  14.283  13.842
11476W        W83736   2.483  12.188  13.934
11477W        W83737  20.473  15.230   2.294
11478W        W83738  13.063  44.441   1.313
11479W        W83739  13.543  35.403   3.731
11480W        W83740  41.894  20.902   3.282
11481W        W83741   4.703   4.367   1.683
11482W        W83742  36.077  40.836  13.424
11483W        W83743  33.106  29.545   0.054
11484W        W83744   2.242  42.859  14.074
11485W        W83745  30.542  34.162  12.064
11486W        W83746  41.483   1.395   1.944
11487W        W83747  10.575  24.946   1.878
11488W        W83748   1.810  34.913   1.541
11489W        W83749  30.212  42.955  11.204
11490W        W83750   8.154  43.052   1.958
11491W        W83751  29.924  32.533  14.707
11492W        W83752  39.381  36.092   1.132
11493W        W83753  44.395  39.129  12.296
11494W        W83754  39.585   6.374  13.308
11495W        W83755   5.375  11.871  11.116
11496W        W83756   9.566  15.114   4.072
11497W        W83757  21.334  40.964  14.091
11498W        W83758   8.003  35.502   1.020
11499W        W83759  38.209  44.038   2.986
11500W        W83760  20.746  10.232   3.850
11501W        W83761  13.763  28.378   0.494
11502W        W83762  10.028  26.213   5.035
11503W        W83763  32.592  33.850   1.405
11504W        W83764  43.815  11.684   3.681
11505W        W83765   0.404  31.468   3.394
11506W        W83766  35.462  23.166  12.447
11507W        W83767  30.088  25.754  14.232
11508W        W83768   2.460   0.203  14.262
11509W        W83769  36.560  19.248   4.509
11510W        W83770  43.484  30.607   4.752
11511W        W83771  23.055  33.013   3.780
11512W        W83772  23.098   1.427  13.922
11513W        W83773   9.661  21.846  13.429
11514W        W83774   3.035  44.323  13.118
11515W        W83775  25.516  39.028   1.298
11516W        W83776  18.080  30.108   1.872
11517W        W83777  31.492  21.530  11.546
11518W        W83778  31.027   3.268   2.838
11519W        W83779   2.704  33.498   3.371
11520W        W83780   7.134  36.556  14.966
11521W        W83781  26.130   8.632   4.797
11522W        W83782  26.159  42.739  11.190
11523W        W83783  17.091  23.434  12.924
11524W        W83784  13.611  41.297   2.646
11525W        W83785  28.249   2.497   3.403
11526W        W83786  37.562  19.073  13.630
11527W        W83787  32.555  21.720   0.452
11528W        W83788   4.785  39.055   1.660
11529W        W83789  28.057   5.324  13.107
11530W        W83790  12.659  27.851  11.028
11531W        W83791  40.051  18.795  13.565
11532W        W83792  33.265   6.776  13.268
11533W        W83793  13.431  37.490  13.857
11534W        W83794   3.306  40.492  14.396
11535W        W83795  19.625  29.662   3.755
11536W        W83796  38.105  15.727  14.934
11537W        W83797  11.144  38.397  13.508
11538W        W83798  29.108  20.222  11.037
11539W        W83799  13.853  36.625  13.580
11540W        W83800  27.586  19.726   0.831
11541W        W83801  18.943  31.655   4.763
11542W        W83802  31.491   0.914  12.119
11543W        W83803   8.682  38.754  10.611
11544W        W83804  27.294  44.512  12.892
11545W        W83805   9.859  19.053   4.193
11546W        W83806  19.993  12.746  12.426
11547W        W83807  25.133  39.373   3.103
11548W        W83808  22.815  29.451   0.702
11549W        W83809  36.082  40.240   3.693
11550W        W83810  22.753  41.998   2.996
11551W        W83811  13.788  13.401  10.602
11552W        W83812  12.898   0.308  13.524
11553W        W83813  29.054  18.931  11.595
11554W        W83814   4.293   9.172   1.903
11555W        W83815  41.802  32.412  12.997
11556W        W83816   7.317  36.919  14.579
11557W        W83817  27.576  30.901   4.639
11558W        W83818   2.964  28.037   1.889
11559W        W83819  24.429  11.088  13.361
11560W        W83820  42.541  23.019   1.767
11561W        W83821  36.595  20.300  11.847
11562W        W83822  24.813  40.270   2.855
11563W        W83823  38.399  20.225  13.592
11564W        W83824  32.537   5.166   3.655
11565W        W83825  14.152  24.187   3.176
11566W        W83826  29.965  24.302  13.068
11567W        W83827  36.115  27.705   0.500
11568W        W83828  12.294   4.142   3.959
11569W        W83829  31.540  44.410   4.535
11570W        W83830   9.241  29.145   2.680
11571W        W83831  27.848  24.596  14.689
11572W        W83832  16.241  37.193  11.594
11573W        W83833  23.023  17.585   3.593
11574W        W83834  41.027  32.822   3.363
11575W        W83835  35.467  31.589  10.518
11576W        W83836  27.540  32.615  14.833
11577W        W83837  28.091  17.372   3.666
11578W        W83838  14.188  28.679   5.008
11579W        W83839  40.381  28.354   2.371
11580W        W83840  34.703   4.908  10.356
11581W        W83841  19.848  37.490  14.073
11582W        W83842   8.960   9.847   1.154
11583W        W83843  32.132  14.725  11.559
11584W        W83844  43.059  27.134   3.169
11585W        W83845   3.046  42.862   3.261
11586W        W83846   0.920  35.163  14.802
11587W        W83847  18.957  29.937   0.268
11588W        W83848  16.626   8.715  10.801
11589W        W83849  25.164  34.708   3.679
11590W        W83850   1.370  30.332  13.919
11591W        W83851   8.419   0.534   0.543
11592W        W83852  31.439  16.326  12.035
11593W        W83853  19.262  25.615  14.950
11594W        W83854  33.546  43.528   2.168
11595W        W83855   4.954  20.558  13.984
11596W        W83856  39.417  34.109  10.646
11597W        W83857  16.071   6.905  13.356
11598W        W83858  42.862   9.529  12.604
11599W        W83859  32.123  16.770   2.472
11600W        W83860  31.401   6.888   4.291
11601W        W83861   5.368  15.100   2.982
11602W        W83862  18.993   5.271   4.712
11603W        W83863   9.726  17.152   2.283
11604W        W83864  36.416  31.694  12.072
11605W        W83865  36.018  37.011   0.050
11606W        W83866  32.850  36.342   4.003
11607W        W83867  36.090  18.991   2.775
11608W        W83868  18.525  15.325  10.644
11609W        W83869  13.343   4.250   4.354
11610W        W83870  34.595  16.139  11.163
11611W        W83871   9.783  10.258  10.030
11612W        W83872  34.355  29.140  13.906
11613W        W83873  14.681  17.968  10.213
11614W        W83874  37.741  29.193  13.972
11615W        W83875  38.034  37.897  10.879
11616W        W83876   3.445  33.928   0.810
11617W        W83877  39.225   3.758  14.836
11618W        W83878  31.608   9.443  10.737
11619W        W83879  31.458   0.330  10.728
11620W        W83880  20.660  25.465  10.695
11621W        W83881  30.088  32.877   0.952
11622W        W83882  39.841  15.360   1.044
11623W        W83883  29.460  21.809  13.458
11624W        W83884  36.853  42.894  13.153
11625W        W83885  32.649   2.725   4.071
11626W        W83886  14.707  23.680   1.456
11627W        W83887   6.912   8.856   2.238
11628W        W83888  15.735  34.187   1.738
11629W        W83889  14.893  17.207  10.220
11630W        W83890  13.273  44.563   0.015
11631W        W83891  41.470  39.008  13.412
11632W        W83892  15.070  15.365   0.481
11633W        W83893  30.757  40.195   4.049
11634W        W83894  43.440  26.514  12.761
11635W        W83895  10.410  15.160   2.821
11636W        W83896  24.752  14.283  12.833
11637W        W83897  41.349  41.397   4.749
11638W        W83898  10.380   1.022   0.596
11639W        W83899  21.658  15.499  13.308
11640W        W83900  21.165  40.458   2.273
11641W        W83901  34.520  21.466  13.459
11642W        W83902  32.914  22.938  12.435
11643W        W83903  29.963  33.469  10.276
11644W        W83904   9.655   6.805  11.317
11645W        W83905  32.432  40.617  13.837
11646W        W83906   0.828  33.743   2.650
11647W        W83907   9.146   4.820  14.024
11648W        W83908  29.300  14.667  14.029
11649W        W83909   5.693  36.312   0.848
11650W        W83910  22.726  41.405   1.796
11651W        W83911  29.957  42.923   1.952
11652W        W83912  15.069  27.677  14.480
11653W        W83913  32.595  38.958   0.497
11654W        W83914  20.669  37.784   0.197
11655W        W83915  21.453  14.730  13.600
11656W        W83916  18.994  17.079   4.193
11657W        W83917  16.559  27.727   2.638
11658W        W83918  12.587  37.055   0.747
11659W        W83919  26.490   0.262   3.813
11660W        W83920  14.195  29.685   2.687
11661W        W83921  20.111  22.103   1.386
11662W        W83922  19.078  19.708   3.290
11663W        W83923  28.008  35.122  10.262
11664W        W83924  42.856  34.181   0.421
11665W        W83925  34.051   7.872  14.807
11666W        W83926   5.255  42.332   2.237
11667W        W83927  34.417  23.942   1.404
11668W        W83928  34.703  44.281   0.315
11669W        W83929  26.564  27.836   4.584
11670W        W83930  26.330  14.077   4.123
11671W        W83931  20.270   7.067   9.818
11672W        W83932  26.451   5.343   4.146
11673W        W83933  33.009   5.941   3.702
11674W        W83934  29.544  18.527  12.384
11675W        W83935  32.990  21.973  13.898
11676W        W83936  17.644   3.291   2.433
11677W        W83937   2.919  32.938  13.385
11678W        W83938  28.459  20.571   2.506
11679W        W83939  26.753  24.283  12.324
11680W        W83940   8.353  14.622   4.515
11681W        W83941  38.804  15.559   0.467
11682W        W83942   6.253   5.472   3.841
11683W        W83943  14.579   5.700   1.193
11684W        W83944  18.192  34.388  10.691
11685W        W83945  29.195  41.351  14.880
11686W        W83946  14.184   9.650   0.553
11687W        W83947   8.698  29.585   4.133
11688W        W83948   5.780  12.320   2.729
11689W        W83949  25.574   6.722  13.437
11690W        W83950   2.882  13.236  12.492
11691W        W83951   5.621  35.830   0.667
11692W        W83952  21.532   7.426  11.063
11693W        W83953  21.293  44.802  11.153
11694W        W83954  25.364  37.793   5.061
11695W        W83955   8.138  40.926  13.041
11696W        W83956  21.261  44.212   4.024
11697W        W83957  28.484  43.004  14.872
11698W        W83958  40.651  39.163   2.871
11699W        W83959  33.655  14.168  14.944
11700W        W83960  10.804  20.647   3.047
11701W        W83961  30.056   9.854   2.417
11702W        W83962  25.497  31.907   1.777
11703W        W83963  25.567  34.284   0.983
11704W        W83964  40.714   4.741   2.770
11705W        W83965  37.929  38.079   2.002
11706W        W83966  16.667   0.940   2.799
11707W        W83967  29.914  24.630  10.786
11708W        W83968  30.552  23.043  12.366
11709W        W83969   1.415  23.088   0.000
11710W        W83970   7.114  24.661  12.645
11711W        W83971   7.209  10.327  11.015
11712W        W83972   7.527  27.630   5.296
11713W        W83973  40.951  39.346   4.658
11714W        W83974  28.237   7.294   2.786
11715W        W83975  22.645  44.184   2.754
11716W        W83976  44.746  39.814  14.335
11717W        W83977   2.453  44.672  14.398
11718W        W83978  33.873   6.255  11.950
11719W        W83979  30.358  33.625  12.048
11720W        W83980  26.698  43.210   0.305
11721W        W83981  21.293  16.646   1.455
11722W        W83982   8.925  23.961   4.696
11723W        W83983  23.334  15.990   4.021
11724W        W83984  29.506  27.465   0.697
11725W        W83985  37.404  40.989  12.485
11726W        W83986   4.730  15.308  10.713
11727W        W83987  26.080  39.936   4.640
11728W        W83988  15.373  36.454  10.739
11729W        W83989  41.072  37.311   0.187
11730W        W83990  21.571  22.540  12.816
11731W        W83991  35.851  21.730   0.254
11732W        W83992   1.611  21.449  12.969
11733W        W83993  34.124  27.411  11.650
11734W        W83994  23.695  12.734   1.298
11735W        W83995  37.095  13.250   3.308
11736W        W83996  43.051  20.120  10.406
11737W        W83997   0.055  30.457   1.147
11738W        W83998  37.580  24.046   3.605
11739W        W83999   1.162  17.211   1.871
11740W        W84000  22.377  17.622  11.711
11741W        W84001  11.214  23.334   0.866
11742W        W84002  42.510  19.081   2.630
11743W        W84003   3.203   7.604  13.560
11744W        W84004   9.728  23.596  12.130
11745W        W84005  22.164  36.820  14.803
11746W        W84006  27.761  35.146  10.734
11747W        W84007  17.639  12.192   2.761
11748W        W84008  29.159   2.476  13.815
11749W        W84009  23.639  40.686  12.593
11750W        W84010  28.754  30.703  12.997
11751W        W84011  31.249  16.069  14.399
11752W        W84012  19.817  29.343   5.400
11753W        W84013  38.339  23.651   2.592
11754W        W84014  19.279  18.189  13.830
11755W        W84015  18.869  43.616   3.988
11756W        W84016  41.742  16.988   1.409
11757W        W84017  43.726  41.605  12.061
11758W        W84018  10.400  36.871   4.764
11759W        W84019  24.718  25.963  13.454
11760W        W84020  33.250  18.887   2.353
11761W        W84021   4.455  35.194  11.068
11762W        W84022   0.694  32.175   3.894
11763W        W84023  22.507  27.196   4.629
11764W        W84024  30.869  18.638  13.044
11765W        W84025  25.060  19.018   3.509
11766W        W84026  36.768  22.837  13.935
11767W        W84027   6.238   9.601  10.532
11768W        W84028  30.221  17.120  13.927
11769W        W84029  32.085  31.527   4.132
11770W        W84030  37.949   0.930  14.044
11771W        W84031  15.011  25.919  13.865
11772W        W84032   3.042  44.997   0.933
11773W        W84033  21.873   0.009   4.817
11774W        W84034  18.323  19.044   1.615
11775W        W84035  34.428  11.218  14.842
11776W        W84036   5.023  14.633  12.547
11777W        W84037  17.271   8.252   0.838
11778W        W84038  16.878  19.532  12.079
11779W        W84039  11.261   7.397  12.531
11780W        W84040  37.885  34.791   2.749
11781W        W84041  15.351  22.415   4.485
11782W        W84042  39.610   2.001   2.753
11783W        W84043   1.302  13.791  13.589
11784W        W84044  38.601  44.128  11.094
11785W        W84045  26.742   4.748   0.310
11786W        W84046   3.912  44.386  10.889
11787W        W84047  44.897  41.997  10.547
11788W        W84048   2.590  30.063   3.062
11789W        W84049  33.551  12.156  11.086
11790W        W84050   3.845   2.915  13.095
11791W        W84051  44.997   7.267  13.487
11792W        W84052  33.590  25.170  12.392
11793W        W84053  26.233  14.760   2.846
11794W        W84054  41.414   1.982   3.192
11795W        W84055  43.287   5.215   1.825
11796W        W84056  27.091  31.474   3.967
11797W        W84057  26.411  40.027   1.657
11798W        W84058  36.599  18.641  11.534
11799W        W84059   3.897  35.028  11.692
11800W        W84060  37.671  34.385   4.928
11801W        W84061   1.833  40.467  12.065
11802W        W84062  28.652  28.135  13.997
11803W        W84063  12.169   1.484  13.911
11804W        W84064  44.720  23.619   3.084
11805W        W84065  44.577  11.680  11.489
11806W        W84066  14.140  44.175  12.237
11807W        W84067  19.226   8.951   1.365
11808W        W84068  43.694  23.128   1.335
11809W        W84069   8.269  25.306   4.531
11810W        W84070  31.964   8.847  14.707
11811W        W84071  31.565   1.735  11.655
11812W        W84072  30.517  43.812   0.191
11813W        W84073  19.488  34.880  11.925
11814W        W84074  33.166  42.233   4.288
11815W        W84075   0.227  26.137  12.884
11816W        W84076  39.930   1.040  12.118
11817W        W84077   4.622  23.142  12.621
11818W        W84078  18.934   7.571  12.870
11819W        W84079   9.921  14.246  10.662
11820W        W84080  39.363  14.583   1.326
11821W        W84081  26.514  18.056   2.128
11822W        W84082  34.108   6.223   4.133
11823W        W84083  37.118  42.058   2.145
11824W        W84084   9.660   1.964   1.817
11825W        W84085  27.489   2.758   2.323
11826W        W84086  38.946  33.015   1.044
11827W        W84087  39.534  43.734   4.142
11828W        W84088  31.993  33.137   1.204
11829W        W84089   1.271  15.563  13.507
11830W        W84090   8.868  29.633  11.645
11831W        W84091   3.817  36.398  13.802
11832W        W84092  25.969   3.957   1.698
11833W        W84093  39.730  14.138   2.168
11834W        W84094  21.395  43.324  11.943
11835W        W84095  44.185  41.044  10.010
11836W        W84096  12.076  44.051   0.368
11837W        W84097  25.738  30.018  13.598
11838W        W84098   8.007  10.629  13.796
11839W        W84099  36.784  34.271   2.845
11840W        W84100  12.819  39.360  14.777
11841W        W84101   0.216  36.268  10.943
11842W        W84102   3.903  39.033   3.210
11843W        W84103   0.280  11.090  12.123
11844W        W84104  32.565  19.225  11.740
11845W        W84105  30.142   5.698  13.591
11846W        W84106   1.439  31.919   0.360
11847W        W84107  18.870   3.073  12.378
11848W        W84108  23.717  35.827  14.468
11849W        W84109  11.082   2.481   4.455
11850W        W84110  31.967  31.867   0.295
11851W        W84111   2.029  37.682   5.033
11852W        W84112  15.242  18.747   2.117
11853W        W84113  22.450  23.489   3.616
11854W        W84114  38.289   6.459   4.627
11855W        W84115  44.456  29.533   1.944
11856W        W84116  20.495   3.454  13.985
11857W        W84117   2.848  28.829  11.549
11858W        W84118   7.115   4.959   4.945
11859W        W84119  40.534  11.221  13.420
11860W        W84120   6.646  30.279   1.370
11861W        W84121  20.294   0.288   4.239
11862W        W84122  32.859  22.024   1.185
11863W        W84123  24.773  23.507   3.763
11864W        W84124  11.238  30.319  10.738
11865W        W84125  41.825  31.249   4.145
11866W        W84126  44.566  20.842   2.884
11867W        W84127  23.387  23.439  13.923
11868W        W84128   6.400  38.849  13.045
11869W        W84129  22.696   1.378  11.078
11870W        W84130  43.030  32.951   4.444
11871W        W84131   1.085  31.468   1.726
11872W        W84132  23.594  10.840   2.812
11873W        W84133  15.120  22.503  13.907
11874W        W84134  16.042  39.893  12.006
11875W        W84135  24.216  17.320  14.050
11876W        W84136  14.226   9.794   3.725
11877W        W84137  14.275  20.689   2.893
11878W        W84138  22.672  20.089  10.878
11879W        W84139   0.013  40.371   1.946
11880W        W84140  10.870   9.406  11.073
11881W        W84141   6.916  20.599  12.985
11882W        W84142  42.427  11.465  11.123
11883W        W84143  11.918   0.396  12.660
11884W        W84144  26.883  23.480   1.187
11885W        W84145   6.205  43.073   4.251
11886W        W84146  23.026  10.303  14.490
11887W        W84147  25.368  30.158  13.977
11888W        W84148  32.638   1.175  13.426
11889W        W84149  20.386  43.030  11.645
11890W        W84150   3.811  16.582  14.835
11891W        W84151  11.923   7.469   2.624
11892W        W84152  12.194  13.651  11.522
11893W        W84153  19.095   0.415   4.591
11894W        W84154   9.546  14.433   3.989
11895W        W84155  28.033  28.731  12.934
11896W        W84156  35.751  28.561  11.180
11897W        W84157   5.936  23.535  13.560
11898W        W84158   6.664  40.618   4.030
11899W        W84159  29.084  40.998   1.837
11900W        W84160  23.147  14.190  10.792
11901W        W84161  40.230  27.456  14.786
11902W        W84162  29.263  32.395  10.896
11903W        W84163  35.355  20.391   4.758
11904W        W84164  41.527  40.490   2.274
11905W        W84165  23.626  24.998  11.097
11906W        W84166   5.643  32.149   4.237
11907W        W84167  30.070  31.124  10.562
11908W        W84168   9.384  10.915   2.030
11909W        W84169   7.819   3.355   0.500
11910W        W84170  17.567  40.537   0.471
11911W        W84171  16.824   8.519  11.648
11912W        W84172   7.018  33.937  10.726
11913W        W84173  20.755  27.462   5.406
11914W        W84174  13.130   3.552   2.936
11915W        W84175  41.445  17.581   2.272
11916W        W84176   5.342  13.364   4.004
11917W        W84177  18.837  16.406  12.631
11918W        W84178  12.994  20.597   3.337
11919W        W84179  25.028  12.738   2.682
11920W        W84180  14.848  20.313   0.882
11921W        W84181  33.805  26.741   2.210
11922W        W84182  43.732   3.917   0.337
11923W        W84183   1.298  41.890  12.889
11924W        W84184  41.959   3.837  13.442
11925W        W84185  11.586  40.855  11.150
11926W        W84186  34.974   3.310   2.914
11927W        W84187  13.754  14.547   3.139
11928W        W84188  17.668   9.666  10.690
11929W        W84189  10.638  36.362   3.721
11930W        W84190  36.627  19.760  13.681
11931W        W84191  10.472  19.645  13.170
11932W        W84192  20.150  17.367  11.691
11933W        W84193  40.976   9.342   0.030
11934W        W84194  42.885  34.438  14.636
11935W        W84195  33.926  11.384  14.995
11936W        W84196  17.943   2.845  10.974
11937W        W84197   9.004  13.119  14.075
11938W        W84198   8.429  34.905   3.701
11939W        W84199  17.697  28.269  14.362
11940W        W84200  35.440  21.902   0.911
11941W        W84201  16.600  15.367   1.206
11942W        W84202  24.141  26.365   1.258
11943W        W84203  11.787  29.810  10.178
11944W        W84204  11.375  17.657   3.887
11945W        W84205  33.278  17.911  13.009
11946W        W84206  28.289  21.727   2.906
11947W        W84207  36.117  27.469   4.669
11948W        W84208  42.448  24.663  12.500
11949W        W84209  29.639  33.613  13.633
11950W        W84210   0.195   5.750   3.025
11951W        W84211   8.769   6.553   2.727
11952W        W84212  44.898   2.251   4.702
11953W        W84213  41.670  38.255  13.876
11954W        W84214  13.065  40.459   0.008
11955W        W84215  27.970  38.446  14.801
11956W        W84216   3.788   1.928  13.896
11957W        W84217  43.224  10.878  12.934
11958W        W84218  22.609   1.320  12.079
11959W        W84219  25.890  18.366  11.124
11960W        W84220   5.494  27.057   4.636
11961W        W84221   1.547   5.348   0.576
11962W        W84222  18.738  41.752  14.891
11963W        W84223  39.195  16.308   1.956
11964W        W84224  14.276   8.851  10.544
11965W        W84225   4.344   6.678   1.168
11966W        W84226  12.879  33.285   0.979
11967W        W84227  28.917  36.052   2.654
11968W        W84228  21.717   9.920  14.458
11969W        W84229   2.679  14.163  11.497
11970W        W84230   1.069  10.168   4.401
11971W        W84231   3.012   0.731  14.933
11972W        W84232  18.930  19.449  12.641
11973W        W84233  42.092  38.306  12.673
11974W        W84234   2.597  11.285  13.357
11975W        W84235  15.794  17.161   4.520
11976W        W84236  34.945  38.961  11.518
11977W        W84237  37.613  36.432   3.425
11978W        W84238  13.436   9.538   4.159
11979W        W84239  44.936  30.923  11.952
11980W        W84240   3.415  12.310   1.443
11981W        W84241  33.619  34.940  12.003
11982W        W84242  40.368  43.319  11.594
11983W        W84243  33.096  15.582  14.425
11984W        W84244  35.068  19.621  13.094
11985W        W84245  37.372  39.876   2.432
11986W        W84246  39.125   3.771   4.509
11987W        W84247   3.262   7.287   0.534
11988W        W84248   8.437   1.914  12.088
11989W        W84249  34.821  24.705  11.642
11990W        W84250  14.889  33.575  14.010
11991W        W84251  25.652  19.977   2.630
11992W        W84252  37.845  38.504   4.314
11993W        W84253  18.649   7.772   1.447
11994W        W84254  22.736   5.278   0.280
11995W        W84255   7.301   3.185   3.621
11996W        W84256  33.069   2.418  12.857
11997W        W84257  39.858   4.779  10.541
11998W        W84258  22.313   3.989  13.957
11999W        W84259  19.020  31.044   2.192
12000W        W84260  10.630  28.685  12.243
12001W        W84261  29.753  43.859   3.824
12002W        W84262  21.522  36.042  13.862
12003W        W84263  32.361  25.880   4.000
12004W        W84264  41.336   1.477   3.252
12005W        W84265  27.683  36.658  14.448
12006W        W84266  38.501  21.107   0.791
12007W        W84267  31.373   8.694  13.866
12008W        W84268  41.365  23.649  10.959
12009W        W84269  19.584  37.482   4.096
12010W        W84270  24.513  17.146   3.827
12011W        W84271  32.061   3.869  10.868
12012W        W84272  36.126  22.538   0.804
12013W        W84273   0.547  31.452   2.904
12014W        W84274  31.913  29.007   0.974
12015W        W84275  15.531  10.431   2.058
12016W        W84276  19.627  14.326  11.129
12017W        W84277  17.529   3.121   0.255
12018W        W84278  40.434   6.106  10.688
12019W        W84279   8.211  44.266  13.289
12020W        W84280  17.754   2.856  14.867
12021W        W84281  40.461  24.249  13.785
12022W        W84282  40.801   9.155   2.262
12023W        W84283  32.203  31.474  14.510
12024W        W84284   6.354  38.338  13.163
12025W        W84285   6.349   5.879   5.123
12026W        W84286  40.065   3.926  10.717
12027W        W84287   5.647  26.045   3.417
12028W        W84288  29.185  36.126  13.855
12029W        W84289  24.199  41.087   1.775
12030W        W84290  38.082  13.346   1.798
12031W        W84291  17.795  43.616  14.075
12032W        W84292  25.004  12.132  11.561
12033W        W84293  10.168  30.953  11.117
12034W        W84294   3.789  33.044   1.227
12035W        W84295  12.401  38.183  14.821
12036W        W84296  12.652  12.113   2.881
12037W        W84297  11.861  37.795  14.336
12038W        W84298  34.659  19.224   1.089
12039W        W84299  44.992  36.525  13.438
12040W        W84300  17.579  40.509  11.381
12041W        W84301  20.062  29.992  14.384
12042W        W84302  42.037  29.456   2.458
12043W        W84303  26.050   6.966  13.347
12044W        W84304  25.706  11.704   3.113
12045W        W84305   8.872   1.753  12.333
12046W        W84306  43.098   1.434   1.359
12047W        W84307  36.078  15.323   4.741
12048W        W84308  21.275  31.811   2.732
12049W        W84309  27.613  30.172  11.574
12050W        W84310   1.232   1.322   0.775
12051W        W84311  17.642  29.861  14.310
12052W        W84312  16.703   2.997   2.904
12053W        W84313  38.945  28.557   4.893
12054W        W84314  17.025  35.970  14.621
12055W        W84315  42.969  15.161   0.317
12056W        W84316  38.130  33.390   1.612
12057W        W84317  22.236   7.307   2.352
12058W        W84318  30.519  24.757   0.959
12059W        W84319  37.665  43.739  11.216
12060W        W84320   2.307  41.739  13.330
12061W        W84321  11.262  37.295   3.195
12062W        W84322  35.058  41.386   3.132
12063W        W84323  25.993  20.157   1.363
12064W        W84324  41.568  44.393  12.969
12065W        W84325   3.789   4.485   1.976
12066W        W84326   4.690  14.602   1.862
12067W        W84327  10.738  42.251   3.668
12068W        W84328  39.837  21.648   0.721
12069W        W84329   2.899  39.407   3.934
12070W        W84330  23.531  14.702   1.438
12071W        W84331  34.547  19.198   1.925
12072W        W84332  21.717  44.863   2.382
12073W        W84333  12.640   0.854  14.381
12074W        W84334  29.033  36.600   4.873
12075W        W84335  11.368  40.575   4.079
12076W        W84336  27.012  15.674  12.240
12077W        W84337  14.800  36.400  12.029
12078W        W84338  30.443  43.487   4.850
12079W        W84339  44.307  28.549   2.035
12080W        W84340   4.744  38.923  12.842
12081W        W84341  38.045   4.876   3.858
12082W        W84342   7.244  12.324   1.332
12083W        W84343  10.714   6.358  11.549
12084W        W84344  13.829  43.244   2.178
12085W        W84345  25.582  16.100   2.489
12086W        W84346  28.624  37.482  11.910
12087W        W84347   2.524  32.657   2.202
12088W        W84348  30.107  33.335   4.438
12089W        W84349   0.263  19.104  11.619
12090W        W84350  14.368  11.382   3.185
12091W        W84351  29.586   8.792  12.873
12092W        W84352  10.398  21.534   3.214
12093W        W84353  41.963  40.831   3.160
12094W        W84354  42.866  36.441   3.261
12095W        W84355  26.006  18.800   0.326
12096W        W84356   6.408  13.192   2.167
12097W        W84357  32.373   9.116   1.813
12098W        W84358  27.975  29.118   2.753
12099W        W84359   7.469  33.641   4.156
12100W        W84360   5.697  11.701  12.417
12101W        W84361  32.850  42.293   1.905
12102W        W84362  33.387  44.765  10.673
12103W        W84363   6.121  28.931   0.946
12104W        W84364  25.635   0.764  11.148
12105W        W84365  43.535  31.630   2.650
12106W        W84366  35.452   5.127  14.540
12107W        W84367   3.079  38.177  11.882
12108W        W84368   6.339  17.862  13.090
12109W        W84369  29.899  15.619  10.957
12110W        W84370  26.771  35.878  14.606
12111W        W84371  29.973  22.793   4.445
12112W        W84372  40.506  41.501   2.094
12113W        W84373   3.424  10.753   3.033
12114W        W84374   4.104  11.446  14.272
12115W        W84375  25.748  30.566   3.223
12116W        W84376  16.914  39.586  13.354
12117W        W84377  11.553  25.194  12.157
12118W        W84378  33.321  41.026   0.875
12119W        W84379  26.414  30.895   0.854
12120W        W84380   8.382  43.470   2.759
12121W        W84381  18.258  31.957  13.860
12122W        W84382   8.810  19.102   0.733
12123W        W84383   0.967   3.146   0.888
12124W        W84384  26.025  26.099  10.904
12125W        W84385   9.235  10.281   1.012
12126W        W84386   0.365  25.497  14.426
12127W        W84387  13.175  14.634  10.635
12128W        W84388   4.340  13.582  10.700
12129W        W84389   6.707  21.021  14.357
12130W        W84390  39.867  22.632  10.466
12131W        W84391   4.746  23.491  11.549
12132W        W84392  14.670  27.245  13.766
12133W        W84393  16.988  15.305   3.792
12134W        W84394  30.468  39.379   2.838
12135W        W84395   6.503  19.573  12.017
12136W        W84396  39.153  23.707   0.348
12137W        W84397  31.525  40.230  14.001
12138W        W84398  25.589  10.892  14.736
12139W        W84399  11.213  19.590  12.031
12140W        W84400  25.434  14.902   1.451
12141W        W84401  13.068  27.545   0.413
12142W        W84402  10.534  43.943  10.808
12143W        W84403  27.088  28.464  11.469
12144W        W84404  40.300  15.107   1.996
12145W        W84405   9.236   0.428   3.506
12146W        W84406  28.961  34.412   0.522
12147W        W84407  39.533   7.859  14.781
12148W        W84408   1.310  32.811   3.576
12149W        W84409  24.134  15.186  10.683
12150W        W84410   9.899   1.774   3.008
12151W        W84411   6.315  33.558  10.029
12152W        W84412   4.766  40.535  13.081
12153W        W84413   3.828  32.183  10.294
12154W        W84414   9.921   7.295  12.486
12155W        W84415  28.421  16.193   2.648
12156W        W84416  13.225  44.750  12.556
12157W        W84417  30.629   4.728   4.056
12158W        W84418  30.126   0.817   2.238
12159W        W84419  10.781   6.422   1.346
12160W        W84420  39.851  31.416  14.807
12161W        W84421  20.027  27.733  12.119
12162W        W84422  38.442  17.114   3.404
12163W        W84423  32.203   6.836   0.304
12164W        W84424  26.945  12.874   1.458
12165W        W84425  41.381  34.810   1.412
12166W        W84426  33.095   3.700   2.385
12167W        W84427   8.541  39.218  10.814
12168W        W84428  13.124   9.074  13.914
12169W        W84429  35.142  15.159   1.319
12170W        W84430  12.527   5.327   3.224
12171W        W84431  23.613  44.885   4.631
12172W        W84432  33.557   1.434   4.728
12173W        W84433   4.994  22.461   3.805
12174W        W84434  24.979  38.343  12.423
12175W        W84435  19.038  16.731   2.974
12176W        W84436  33.015  19.308   5.512
12177W        W84437  38.611  42.510   2.250
12178W        W84438  12.173  38.555   0.690
12179W        W84439  21.442  32.089   1.830
12180W        W84440  11.852  15.106  13.387
12181W        W84441  33.763  44.017  12.421
12182W        W84442   7.905  34.169   3.706
12183W        W84443  27.488  32.815   4.935
12184W        W84444  18.567  33.596  11.507
12185W        W84445  10.082  14.860  12.422
12186W        W84446  26.171  40.312   1.274
12187W        W84447  28.519   9.728   3.299
12188W        W84448  22.555  13.972   3.331
12189W        W84449   4.014  25.160   4.934
12190W        W84450  20.550  42.286  11.157
12191W        W84451  26.490  30.050   0.996
12192W        W84452  44.032   9.422   4.173
12193W        W84453  30.214  21.244  11.163
12194W        W84454  26.189  23.491  12.988
12195W        W84455  35.346  26.870  12.589
12196W        W84456  30.945  29.734  10.192
12197W        W84457  12.007  35.391  12.446
12198W        W84458   8.781   1.406   4.782
12199W        W84459   6.732   0.232   2.243
12200W        W84460  23.621   1.757  14.972
12201W        W84461  15.762  30.624  14.300
12202W        W84462   6.619  43.340   1.908
12203W        W84463  31.984  32.668   4.655
12204W        W84464  16.782  14.267  12.411
12205W        W84465   5.947   0.357   0.706
12206W        W84466  39.339  17.316   3.312
12207W        W84467  13.115  39.912  12.206
12208W        W84468  25.202  35.891   1.515
12209W        W84469  41.933  29.011   2.201
12210W        W84470  31.975  11.960   3.807
12211W        W84471  22.014  13.850   1.743
12212W        W84472  19.516  15.179   1.147
12213W        W84473  10.714  19.203   3.163
12214W        W84474  26.572  39.912   0.649
12215W        W84475  31.649  32.044  13.887
12216W        W84476  12.595  22.135  13.310
12217W        W84477  39.932  34.394   4.531
12218W        W84478  30.916  10.683   3.707
12219W        W84479   8.911  22.800  11.568
12220W        W84480   3.768  37.118   0.073
12221W        W84481   7.420  38.980   2.251
12222W        W84482  27.630  29.883  13.616
12223W        W84483  44.705  43.228   3.689
12224W        W84484  34.365   5.651   1.758
12225W        W84485  17.437  40.984  13.595
12226W        W84486  41.002  23.120   0.723
12227W        W84487   5.902  43.852  11.953
12228W        W84488  18.850  13.354   0.188
12229W        W84489  10.251  19.326  12.311
12230W        W84490  16.430  34.040   3.363
12231W        W84491  20.790  27.474   4.443
12232W        W84492  21.077  11.394   4.501
12233W        W84493  12.230  18.594  10.892
12234W        W84494   5.907  37.306   4.713
12235W        W84495   4.345  16.807  12.555
12236W        W84496  12.085  42.228   0.216
12237W        W84497   6.832   8.786   4.600
12238W        W84498  25.671  26.909   1.480
12239W        W84499   9.775  25.055   3.184
12240W        W84500  24.704  39.438  14.879
12241W        W84501  22.911   5.705  12.426
12242W        W84502  42.775  39.245   3.359
12243W        W84503  22.058   0.945  12.598
12244W        W84504  40.167   6.219   1.326
12245W        W84505   7.207  43.871  12.646
12246W        W84506  18.564  30.160  14.371
12247W        W84507  44.867  22.537   2.356
12248W        W84508  44.056  41.331  11.801
12249W        W84509   5.127  25.063  14.779
12250W        W84510  22.053  11.425  11.532
12251W        W84511  37.665  14.007  12.743
12252W        W84512  19.606  34.938   4.654
12253W        W84513   4.805  15.756   0.445
12254W        W84514  37.466  32.631   1.699
12255W        W84515  13.310  42.212  14.824
12256W        W84516  17.985  19.881  12.952
12257W        W84517  30.023  27.509   1.454
12258W        W84518   4.892  35.928  12.124
12259W        W84519   2.340  39.671  13.943
12260W        W84520  30.157  42.011   4.097
12261W        W84521  41.299  24.301   4.100
12262W        W84522  14.851  39.413   2.616
12263W        W84523  42.381  14.047  13.453
12264W        W84524   6.932  42.290   4.285
12265W        W84525  23.681  41.034  10.492
12266W        W84526  24.029  29.608  14.670
12267W        W84527  11.547  30.073  12.472
12268W        W84528  36.930  42.797   3.695
12269W        W84529   0.311   7.874  12.510
12270W        W84530  27.929  40.781  14.979
12271W        W84531  36.655  14.371  12.114
12272W        W84532  43.662  20.277  12.979
12273W        W84533   5.423  34.523  10.721
12274W        W84534  19.271  20.645  12.501
12275W        W84535  34.985  26.422  13.423
12276W        W84536  31.485  43.620   0.554
12277W        W84537  41.787  39.603   1.775
12278W        W84538  19.396   7.161  12.298
12279W        W84539   6.106  34.491   2.937
12280W        W84540  27.788  35.881   4.136
12281W        W84541   6.859   7.150   4.560
12282W        W84542   1.955  15.725   2.824
12283W        W84543  31.447   0.028   2.801
12284W        W84544   1.254  27.978  11.229
12285W        W84545  35.005  10.950   0.743
12286W        W84546  16.674  32.582   1.678
12287W        W84547  29.519  32.117   0.838
12288W        W84548  35.269   7.286   1.279
12289W        W84549   1.826  37.058  12.872
12290W        W84550  18.617  24.696   2.826
12291W        W84551  23.684  34.014  11.109
12292W        W84552   1.363  17.633   3.730
12293W        W84553  30.670   2.239  11.487
12294W        W84554  22.762  36.475   3.555
12295W        W84555  34.444  42.803  12.981
12296W        W84556  15.322   1.496  14.741
12297W        W84557   0.895  17.308   1.417
12298W        W84558  34.441   2.750   0.324
12299W        W84559   4.742  35.623  10.800
12300W        W84560  10.192   4.470   3.162
12301W        W84561  11.796  39.395   4.766
12302W        W84562   5.087  29.592  12.019
12303W        W84563   8.309  26.187  12.240
12304W        W84564  22.459  10.790  13.951
12305W        W84565  21.997  19.970  14.216
12306W        W84566  40.008  18.004   1.156
12307W        W84567  17.112   7.645  10.328
12308W        W84568  37.162  43.537   2.317
12309W        W84569   7.781  12.630  13.135
12310W        W84570  20.225   4.244  12.378
12311W        W84571  26.726   4.696  13.879
12312W        W84572   4.512  14.511   4.126
12313W        W84573   2.772  39.489  12.072
12314W        W84574  22.028  39.452  13.833
12315W        W84575  43.926  34.456  13.601
12316W        W84576   8.823  12.398   3.775
12317W        W84577  28.698  43.819  11.681
12318W        W84578  36.540   0.953  11.880
12319W        W84579  37.427  15.884   3.801
12320W        W84580   4.039   0.906  12.537
12321W        W84581  32.092   4.153   4.865
12322W        W84582  11.609  10.411   4.308
12323W        W84583  10.127  27.432  10.583
12324W        W84584  19.761  40.992  11.514
12325W        W84585   0.702  41.875  14.023
12326W        W84586  43.062  12.728  13.301
12327W        W84587  19.080  26.940  11.108
12328W        W84588  32.585  35.531   0.433
12329W        W84589  44.017  22.546   0.055
12330W        W84590  13.771  30.990   3.657
12331W        W84591  36.925   8.872   2.150
12332W        W84592   4.258   2.085  11.910
12333W        W84593  11.066  23.465   0.351
12334W        W84594  15.579   3.428  13.020
12335W        W84595  14.859   1.421   4.585
12336W        W84596  18.824  26.166   3.788
12337W        W84597  12.712  38.847   4.042
12338W        W84598   2.949  38.882   2.220
12339W        W84599  28.491  42.696  13.597
12340W        W84600  28.894  22.385   3.851
12341W        W84601  44.878   6.777   4.019
12342W        W84602  20.769  36.438  12.300
12343W        W84603  27.540   6.204   2.661
12344W        W84604   5.383   1.514   2.196
12345W        W84605  40.621  43.086   5.095
12346W        W84606  12.598  39.832   4.282
12347W        W84607  18.216  23.702   2.370
12348W        W84608  29.180  12.934   3.716
12349W        W84609   1.719  10.166  11.049
12350W        W84610  10.391  18.564  13.761
12351W        W84611  18.129   3.463   2.302
12352W        W84612  30.334  40.336   1.358
12353W        W84613  38.792  28.068   1.400
12354W        W84614  36.207   9.809  11.426
12355W        W84615  15.922  40.221  13.320
12356W        W84616  35.462  21.514  11.137
12357W        W84617   5.184  24.285   1.817
12358W        W84618  31.405  28.021   3.819
12359W        W84619  11.381  24.943  14.495
12360W        W84620  37.295  30.229   1.332
12361W        W84621   5.262  31.581   0.950
12362W        W84622   0.864  23.755   1.727
12363W        W84623  13.533  27.269   2.851
12364W        W84624  34.420  11.389  11.623
12365W        W84625  20.273   5.643   2.302
12366W        W84626  44.002  24.411  14.496
12367W        W84627   0.983   1.937  11.612
12368W        W84628  44.841  18.777  12.908
12369W        W84629  36.416  17.768  10.712
12370W        W84630  36.962  14.588   1.614
12371W        W84631  22.538   3.288   1.622
12372W        W84632  13.634  30.382   4.587
12373W        W84633  40.541  21.091  12.664
12374W        W84634  26.474  30.918   3.479
12375W        W84635  36.078  36.001   1.063
12376W        W84636  44.858  22.681   3.810
12377W        W84637  39.914   9.524   2.142
12378W        W84638  14.544  40.701   4.218
12379W        W84639  39.385  44.353  10.365
12380W        W84640  29.950  32.645   5.792
12381W        W84641  13.235  16.527   1.193
12382W        W84642  35.974  24.528   2.642
12383W        W84643  21.216  15.969   1.397
12384W        W84644   4.211  26.751  13.903
12385W        W84645  24.097  12.621   2.262
12386W        W84646  13.070  35.747  13.109
12387W        W84647  25.238  17.422  12.617
12388W        W84648  10.278   0.508   4.829
12389W        W84649  39.312  27.898   4.965
12390W        W84650  33.377   4.793   4.212
12391W        W84651  30.781   3.839  11.905
12392W        W84652  21.495   4.701  14.464
12393W        W84653  39.475  32.832  12.990
12394W        W84654   5.829  22.727  10.533
12395W        W84655  37.872  43.654  12.033
12396W        W84656  42.250  29.441   3.207
12397W        W84657  13.634  40.741  11.612
12398W        W84658   0.262  18.280   0.989
12399W        W84659  24.524  11.826   1.310
12400W        W84660   2.897  38.317  13.553
12401W        W84661  11.610  24.721  11.162
12402W        W84662   3.679  22.989  12.506
12403W        W84663  19.681  30.469  12.403
12404W        W84664   1.173  38.435  13.449
12405W        W84665  26.528   2.162   0.319
12406W        W84666   7.866  42.410   3.915
12407W        W84667  38.942   8.424   1.797
12408W        W84668  31.484  43.571  11.201
12409W        W84669  26.102  38.738   3.655
12410W        W84670   2.700  32.925  12.521
12411W        W84671  35.468  39.841  12.042
12412W        W84672  11.770   2.167   0.015
12413W        W84673  33.545  24.899  14.241
12414W        W84674  16.476  42.160  10.665
12415W        W84675  19.126   4.026  11.480
12416W        W84676  42.527  34.547   2.875
12417W        W84677  40.272  18.094  12.553
12418W        W84678  26.065  28.474   1.787
12419W        W84679  23.545  44.792  12.538
12420W        W84680  39.909  20.915   3.908
12421W        W84681  28.908  10.236  10.233
12422W        W84682  21.330  35.628   1.685
12423W        W84683  41.240  36.097   2.366
12424W        W84684   1.742  20.834   4.642
12425W        W84685  22.606  31.910  11.401
12426W        W84686  15.227  29.910   4.648
12427W        W84687  34.342  37.004   0.119
12428W        W84688  11.554  17.020   0.788
12429W        W84689   0.286   1.896   4.852
12430W        W84690  11.766  10.816   1.454
12431W        W84691  16.575   4.772  11.168
12432W        W84692  38.583  27.165   4.745
12433W        W84693  16.317  40.487   4.191
12434W        W84694  37.889  10.566   5.109
12435W        W84695  40.106  12.416   3.655
12436W        W84696  13.388  36.126   4.325
12437W        W84697  19.121  21.634  12.372
12438W        W84698  36.817  20.104  14.398
12439W        W84699  17.574  20.249   3.702
12440W        W84700  20.151  33.023  11.998
12441W        W84701  10.700  17.773   3.296
12442W        W84702   8.495  42.017  12.401
12443W        W84703   5.910  44.062  14.431
12444W        W84704  39.453  30.440  10.755
12445W        W84705   9.674  36.078   3.006
12446W        W84706  14.820  22.043   3.629
12447W        W84707   8.423  38.292  14.799
12448W        W84708  17.505  36.906   0.456
12449W        W84709  43.714  11.253   2.240
12450W        W84710  28.444  17.221  10.214
12451W        W84711  31.387   8.713   1.700
12452W        W84712  11.271  10.634   2.189
12453W        W84713  41.928  10.016  13.398
12454W        W84714  15.911  34.678   0.874
12455W        W84715   2.981  38.474   3.604
12456W        W84716   9.748  37.618   2.356
12457W        W84717  34.119  16.636   4.599
12458W        W84718  21.077  19.320   0.289
12459W        W84719   4.574   0.413  13.039
12460W        W84720   7.863  23.521   0.884
12461W        W84721  36.985   0.396   0.315
12462W        W84722  25.076   2.169  13.942
12463W        W84723  42.236  14.632   2.252
12464W        W84724   9.515  39.463  15.000
12465W        W84725  40.402  22.577   1.868
12466W        W84726   7.498  36.486  12.536
12467W        W84727  16.295  20.067   4.520
12468W        W84728  15.856  20.249  13.074
12469W        W84729  40.118  23.747   3.804
12470W        W84730  44.421  41.021   3.869
12471W        W84731  12.163  30.991   0.942
12472W        W84732  21.278  42.811   2.898
12473W        W84733  26.543  20.803   1.467
12474W        W84734   3.830  15.155  14.106
12475W        W84735  16.649  19.127  11.900
12476W        W84736  14.384  28.993  10.991
12477W        W84737  29.434  31.602   0.929
12478W        W84738   4.309  34.905   3.714
12479W        W84739  27.472  17.409  12.849
12480W        W84740   9.186  20.839  11.141
12481W        W84741  12.354  37.862   2.565
12482W        W84742  23.652  31.863  11.965
12483W        W84743  42.348  40.561  13.394
12484W        W84744   9.625  36.362   4.526
12485W        W84745  14.288  29.009   0.487
12486W        W84746   1.171  10.708   3.924
12487W        W84747   1.775  23.227  10.633
12488W        W84748   4.274  18.267  13.951
12489W        W84749  20.361  23.545  11.817
12490W        W84750  26.218  12.287   3.217
12491W        W84751   6.480  36.550   1.232
12492W        W84752  41.467  31.379  12.133
12493W        W84753  32.357  42.545   3.238
12494W        W84754  32.317  23.526  10.672
12495W        W84755  26.648  11.706   0.530
12496W        W84756  39.470  36.558   0.898
12497W        W84757   1.044  14.332   1.883
12498W        W84758  15.796  26.146  14.289
12499W        W84759   0.444   9.900  13.636
12500W        W84760   1.452  20.656   3.002
12501W        W84761   5.432  27.483   3.329
12502W        W84762  36.367   1.858   4.617
12503W        W84763  28.056  28.197  11.196
12504W        W84764  14.767  10.219  12.077
12505W        W84765   6.485  27.648   1.383
12506W        W84766  28.290   1.769   3.127
12507W        W84767  12.782   7.243   3.771
12508W        W84768  37.272  43.411  12.452
12509W        W84769  42.007  13.758  10.888
12510W        W84770  35.261  39.326  12.815
12511W        W84771  27.453   7.672  11.190
12512W        W84772  36.129  36.609   2.220
12513W        W84773  27.490   8.038   4.190
12514W        W84774  18.786   0.282  11.934
12515W        W84775   9.629   2.738  13.162
12516W        W84776  18.599  29.369  13.029
12517W        W84777  17.515  32.091  12.282
12518W        W84778  30.541  24.569  14.265
12519W        W84779  16.519  24.668  13.923
12520W        W84780  10.849  14.323  14.780
12521W        W84781  37.083  37.543   3.219
12522W        W84782  37.058  36.052  12.799
12523W        W84783  34.373   4.214  11.065
12524W        W84784   1.193  24.508   4.450
12525W        W84785  28.895  26.007  11.377
12526W        W84786  33.305  24.138   4.126
12527W        W84787   8.787  13.758   4.884
12528W        W84788  40.577  17.530  12.000
12529W        W84789   1.470  12.343   4.645
12530W        W84790  14.109  14.048   9.740
12531W        W84791  16.839  17.170   3.774
12532W        W84792  21.794  38.525   1.248
12533W        W84793  25.280   2.817  14.040
12534W        W84794  36.533  15.304   1.351
12535W        W84795  29.086   9.756  14.429
12536W        W84796  21.695  42.936   1.177
12537W        W84797  21.859  35.225   1.234
12538W        W84798  36.504  31.845  13.007
12539W        W84799  16.032  10.131  13.871
12540W        W84800  39.425   8.604   1.909
12541W        W84801  32.512   3.920   1.230
12542W        W84802  18.683  31.498   3.200
12543W        W84803  28.224  14.139  14.365
12544W        W84804  31.878  23.926  12.679
12545W        W84805  43.992  22.260   3.297
12546W        W84806  43.343  43.503  12.028
12547W        W84807  19.864   4.497   1.243
12548W        W84808  30.168  12.966   0.388
12549W        W84809  35.715   7.205   0.357
12550W        W84810  42.382  39.828  10.472
12551W        W84811   5.619  30.555  11.337
12552W        W84812  38.849  13.345  14.764
12553W        W84813   0.748   4.504   2.792
12554W        W84814  12.050   0.905   1.804
12555W        W84815   4.868  11.388   3.800
12556W        W84816  14.565  30.269   2.292
12557W        W84817   9.219   7.818   3.592
12558W        W84818   6.628  39.147  14.343
12559W        W84819  25.505  15.646   2.223
12560W        W84820  34.718   5.799   0.746
12561W        W84821  22.740  31.512   4.301
12562W        W84822   4.760  16.066   0.988
12563W        W84823  16.200  18.620   0.978
12564W        W84824  43.840  29.224  13.905
12565W        W84825   7.646  26.525   1.344
12566W        W84826  42.895   1.443  11.149
12567W        W84827  28.624  21.460  13.314
12568W        W84828  30.709  26.971  14.842
12569W        W84829  22.687  32.093   1.351
12570W        W84830   9.576  43.330   3.313
12571W        W84831  27.900  34.405   0.901
12572W        W84832  12.181  44.583   1.822
12573W        W84833  21.567  19.765  13.115
12574W        W84834  17.532  13.410   3.741
12575W        W84835  18.211  29.073   2.955
12576W        W84836  32.935  36.629   4.451
12577W        W84837  21.253  11.613   1.453
12578W        W84838  40.482  10.394   1.523
12579W        W84839  36.770  18.802   4.628
12580W        W84840  34.593  31.522  11.714
12581W        W84841   5.389  12.782  13.079
12582W        W84842  28.554  12.066  14.850
12583W        W84843  20.517  22.783  12.309
12584W        W84844  26.568   8.953  13.028
12585W        W84845  17.567  38.380  11.608
12586W        W84846  43.708  41.385   0.787
12587W        W84847  32.194  10.724  14.598
12588W        W84848  22.585  29.982   4.892
12589W        W84849   0.456  11.316  14.073
12590W        W84850   1.236  33.988   2.383
12591W        W84851  19.794  34.622  10.649
12592W        W84852  31.421  42.889   0.026
12593W        W84853  33.852  31.697  14.910
12594W        W84854  24.140  42.971   4.503
12595W        W84855   8.631  24.674  10.808
12596W        W84856  35.952   5.735  11.908
12597W        W84857  28.436   0.558  12.095
12598W        W84858   0.408  17.420   4.277
12599W        W84859  20.146  40.783   3.187
12600W        W84860   4.209  29.919  12.023
12601W        W84861  15.181   8.683  14.818
12602W        W84862  44.920  13.578  14.831
12603W        W84863   7.887  30.549   9.930
12604W        W84864  15.656  34.624   3.140
12605W        W84865  13.101   1.519  11.071
12606W        W84866   2.359  12.499  12.119
12607W        W84867  10.372  38.359  10.968
12608W        W84868   7.819  16.532   4.365
12609W        W84869  37.610  27.516   4.872
12610W        W84870   4.192   6.875   0.686
12611W        W84871  23.070  26.690  10.420
12612W        W84872  27.098  38.347  14.445
12613W        W84873  16.110  39.128  11.140
12614W        W84874  14.856  19.172   2.838
12615W        W84875  23.494  27.562   2.549
12616W        W84876   2.612  30.896   2.608
12617W        W84877  38.124  15.804   4.276
12618W        W84878  24.627  42.393  13.724
12619W        W84879  42.204   9.869   2.963
12620W        W84880  25.507   5.281  12.659
12621W        W84881  11.151  33.499   2.056
12622W        W84882   7.332  40.281   0.941
12623W        W84883  24.615   4.793  10.737
12624W        W84884  13.587   4.905  13.983
12625W        W84885  28.995   5.945   4.256
12626W        W84886  30.388  34.662  14.558
12627W        W84887  22.883  44.963   4.965
12628W        W84888   2.737   8.003   2.153
12629W        W84889   0.862   8.374  10.991
12630W        W84890   7.988  28.193   2.328
12631W        W84891  34.087  11.982   5.019
12632W        W84892   6.284   6.995  12.059
12633W        W84893  35.320   3.314   1.546
12634W        W84894  36.327   4.785   1.864
12635W        W84895   7.959  22.696  12.484
12636W        W84896  19.490  15.870  12.996
12637W        W84897  27.484  25.516   1.146
12638W        W84898  13.605  20.500  12.074
12639W        W84899  14.726  26.073  13.368
12640W        W84900   9.946  34.970   4.816
12641W        W84901  15.575   6.856  11.536
12642W        W84902   8.796  24.997  11.200
12643W        W84903  25.470   9.409  14.004
12644W        W84904  12.590  31.676  12.880
12645W        W84905   3.242  18.048  10.735
12646W        W84906  37.292   9.777  14.602
12647W        W84907  24.067  27.612  10.292
12648W        W84908  11.269  39.633   0.717
12649W        W84909  15.716   4.180  10.402
12650W        W84910  32.660  29.225  11.693
12651W        W84911   2.266   9.617   0.792
12652W        W84912  44.905  25.676  12.349
12653W        W84913  22.800   3.926   0.455
12654W        W84914  22.251  34.384  13.073
12655W        W84915  19.901   5.347  13.605
12656W        W84916  17.190  35.046   3.778
12657W        W84917   7.759   1.031   4.517
12658W        W84918  14.358   0.069  11.251
12659W        W84919  32.192  41.796   4.228
12660W        W84920  20.190  36.526  10.785
12661W        W84921  24.498   5.796  11.644
12662W        W84922   2.221   4.863  12.418
12663W        W84923  22.501  37.484   2.855
12664W        W84924   5.901   1.369   4.642
12665W        W84925  35.079  43.329   0.730
12666W        W84926  20.733   0.801  11.850
12667W        W84927  31.788   1.154  13.819
12668W        W84928  13.674  21.659   3.309
12669W        W84929  40.836  13.149  11.866
12670W        W84930  11.065  41.020  11.142
12671W        W84931  25.010  18.795   4.622
12672W        W84932  10.150  34.984   2.672
12673W        W84933  19.651  43.280  12.676
12674W        W84934  22.774  39.014   2.412
12675W        W84935  23.703  36.102  14.029
12676W        W84936  14.837  30.170  12.927
12677W        W84937   8.759   7.617   5.155
12678W        W84938   1.869  10.650  11.133
12679W        W84939  19.345  15.635  13.451
12680W        W84940  15.222  27.101   4.900
12681W        W84941  20.746   4.802   2.360
12682W        W84942  31.871  13.250  10.880
12683W        W84943  28.165  22.952  14.079
12684W        W84944  40.895   3.571   1.338
12685W        W84945  43.471  22.956   2.270
12686W        W84946  27.682  35.870   1.278
12687W        W84947   6.274  15.257   1.895
12688W        W84948  33.488   6.167  10.269
12689W        W84949  29.638  25.399   1.878
12690W        W84950  14.285  16.128   2.129
12691W        W84951  21.281   5.770   1.234
12692W        W84952  37.309  17.574   1.097
12693W        W84953  43.992  34.066  10.501
12694W        W84954  42.497  26.266   4.155
12695W        W84955   4.275  41.650  10.735
12696W        W84956  13.021  31.429  10.126
12697W        W84957  26.957   7.863   0.750
12698W        W84958  23.377  43.299   0.458
12699W        W84959  28.434  36.905   4.169
12700W        W84960   5.406   5.425  13.362
12701W        W84961  34.449  27.955   0.882
12702W        W84962  13.420   4.256  11.058
12703W        W84963   8.673  28.426  11.068
12704W        W84964  44.300  36.003  12.308
12705W        W84965  18.483  40.334   1.299
12706W        W84966  41.383  42.795  13.921
12707W        W84967  36.924   3.260   3.347
12708W        W84968  43.432   7.705   2.821
12709W        W84969  12.271  30.095  13.523
12710W        W84970  27.279  44.110  13.447
12711W        W84971   8.429  25.660  11.589
12712W        W84972  13.217  28.451   1.372
12713W        W84973  36.498   4.938   3.860
12714W        W84974  37.506  15.711   0.440
12715W        W84975  12.418  35.924   3.604
12716W        W84976  24.342   4.072   2.255
12717W        W84977   0.895  12.346   0.772
12718W        W84978  10.185  16.115  10.474
12719W        W84979  42.707  42.438   1.668
12720W        W84980  19.756   2.118  12.403
12721W        W84981  40.314  25.092  10.585
12722W        W84982   3.878   3.506  10.593
12723W        W84983   5.752  25.684  10.775
12724W        W84984  17.031  10.309  12.376
12725W        W84985   9.882  15.578   0.300
12726W        W84986  32.897  14.430   0.922
12727W        W84987  33.935  25.193  14.041
12728W        W84988  15.984   0.477  11.515
12729W        W84989  24.822  26.664   5.068
12730W        W84990  30.654  39.890   0.278
12731W        W84991  23.608  30.026  11.450
12732W        W84992  32.949  15.143   4.275
12733W        W84993   3.772  37.576  13.303
12734W        W84994   1.887  23.325   4.539
12735W        W84995  44.430   9.560   1.076
12736W        W84996  38.359  10.338   5.053
12737W        W84997  31.077  37.335  12.639
12738W        W84998  19.773   4.978   4.447
12739W        W84999  41.605  15.695   0.332
12740W        W85000   1.358  31.885  13.832
12741W        W85001  11.310  16.997  12.118
12742W        W85002  31.624  37.792  11.990
12743W        W85003  39.356  33.821  14.514
12744W        W85004  31.091  30.117   0.461
12745W        W85005   1.699  43.785  11.982
12746W        W85006  29.045  33.452  14.293
12747W        W85007   9.392   9.599   1.368
12748W        W85008  35.934  41.707   3.739
12749W        W85009  13.380  28.548  14.491
12750W        W85010  22.554  20.013   0.302
12751W        W85011   1.410  21.221  10.633
12752W        W85012   0.904  10.140   2.342
12753W        W85013  21.726   5.287  11.901
12754W        W85014  14.853  44.996  11.326
12755W        W85015  11.308  28.160   4.605
12756W        W85016  42.349  39.395   0.382
12757W        W85017  38.269  44.489   1.015
12758W        W85018  36.374  16.780  12.054
12759W        W85019  20.577  41.913  10.770
12760W        W85020  27.378  19.184   3.108
12761W        W85021  34.210  22.191  13.353
12762W        W85022  29.890  35.545  11.878
12763W        W85023  41.866  23.564   1.598
12764W        W85024   3.071  23.966  11.043
12765W        W85025  36.092  11.061  10.629
12766W        W85026   2.983  31.587   0.884
12767W        W85027   1.369  39.870  13.974
12768W        W85028  13.032   6.184   2.730
12769W        W85029  16.257   5.707   0.794
12770W        W85030  27.010  25.863  14.927
12771W        W85031  16.555  23.204   2.826
12772W        W85032  24.372  31.691  12.407
12773W        W85033  26.835  44.422  13.096
12774W        W85034  27.410   3.435   3.256
12775W        W85035  10.309  24.077   1.704
12776W        W85036  35.839  44.816  11.207
12777W        W85037  34.703   2.918   3.156
12778W        W85038  16.417   2.286   2.369
12779W        W85039   3.670  10.162   4.602
12780W        W85040   4.022  35.071   4.126
12781W        W85041  19.716  26.755  14.726
12782W        W85042   2.346  21.630   2.899
12783W        W85043   2.389  21.291  14.296
12784W        W85044  26.854  44.429   4.642
12785W        W85045  37.011  14.319  14.941
12786W        W85046  37.146  39.405  13.306
12787W        W85047  36.945  12.938   3.826
12788W        W85048  37.093  18.588  11.620
12789W        W85049   9.319  21.112   1.880
12790W        W85050  31.385  25.191  12.525
12791W        W85051  28.088  26.929  12.759
12792W        W85052  39.874  32.985   3.407
12793W        W85053  44.964  24.305   1.614
12794W        W85054  29.855  25.943   2.814
12795W        W85055  37.016   6.209   3.536
12796W        W85056  22.963  23.985   2.814
12797W        W85057  11.227   1.968   4.395
12798W        W85058  15.286  41.274  11.979
12799W        W85059  30.230  22.089   1.776
12800W        W85060  28.611  33.567   3.762
12801W        W85061  12.816  15.076   5.146
12802W        W85062   5.478  22.490   4.458
12803W        W85063  37.204  24.864  11.604
12804W        W85064  19.859  25.962   4.697
12805W        W85065  32.448   4.666   3.190
12806W        W85066  31.195  23.319   0.799
12807W        W85067   8.866  14.991  11.195
12808W        W85068  27.038   2.142   1.845
12809W        W85069   0.936   3.249  14.847
12810W        W85070  15.405  36.493   0.871
12811W        W85071  28.890  21.126  10.899
12812W        W85072  28.835  16.092  12.090
12813W        W85073   5.244  40.122   2.741
12814W        W85074  42.871  21.572  14.835
12815W        W85075   5.825  27.639  12.043
12816W        W85076  18.544  24.584  14.034
12817W        W85077  28.652  22.470   1.190
12818W        W85078   7.428  13.433   3.116
12819W        W85079  42.046  22.944   3.269
12820W        W85080  26.148  11.198   2.440
12821W        W85081  35.839   3.234  12.982
12822W        W85082  26.078  19.203   4.573
12823W        W85083  19.991  12.204   1.382
12824W        W85084  24.176  18.559  11.655
12825W        W85085   6.481  12.219  11.626
12826W        W85086  38.084  44.184   3.625
12827W        W85087  24.000   9.486   0.712
12828W        W85088   4.831  30.935  10.947
12829W        W85089  19.503  18.564  12.985
12830W        W85090  23.670   0.298  12.526
12831W        W85091  36.207  33.610   3.320
12832W        W85092   4.735  35.119  10.646
12833W        W85093   0.546  13.636   2.813
12834W        W85094  42.371   5.138   0.732
12835W        W85095  19.562  36.783  12.427
12836W        W85096   0.782  19.243  11.552
12837W        W85097  20.979  37.382   0.379
12838W        W85098  38.184   9.808   9.798
12839W        W85099  41.559  37.565  12.625
12840W        W85100  27.012   0.215  14.743
12841W        W85101  40.318  10.111   2.854
12842W        W85102  31.496  10.176   1.696
12843W        W85103  15.932  25.026  10.773
12844W        W85104   4.404  28.932   1.278
12845W        W85105  34.486  34.848  10.476
12846W        W85106  29.190  23.082  13.614
12847W        W85107  12.385  36.968   2.807
12848W        W85108  18.657  40.888   4.867
12849W        W85109   1.722   2.228   0.742
12850W        W85110  42.720  29.428  10.582
12851W        W85111   3.932  15.698  11.171
12852W        W85112  34.079  25.969  13.517
12853W        W85113  35.817   7.185  10.605
12854W        W85114   3.638  35.652   3.293
12855W        W85115   4.921   0.001   2.355
12856W        W85116  37.068  42.446   1.301
12857W        W85117  27.747   3.831  10.897
12858W        W85118  36.686  12.177  13.590
12859W        W85119  31.448  35.033   4.922
12860W        W85120  30.023   2.441  12.491
12861W        W85121   6.739  29.221   4.193
12862W        W85122  40.533  16.577   3.807
12863W        W85123  42.366   1.194   0.832
12864W        W85124  33.427   5.423  13.838
12865W        W85125  15.288  14.629  13.758
12866W        W85126  35.110  14.363   4.971
12867W        W85127  37.867  12.524   0.547
12868W        W85128  21.108   5.290  14.867
12869W        W85129  30.782  39.600   1.594
12870W        W85130  13.170   5.322   2.138
12871W        W85131  24.443   7.509  10.661
12872W        W85132  43.466   6.439  12.184
12873W        W85133  41.546  16.449  14.219
12874W        W85134  41.619  28.057   0.808
12875W        W85135  17.169  42.823   5.095
12876W        W85136  33.986  28.596   3.639
12877W        W85137   6.892  14.737  14.270
12878W        W85138  14.111   4.753  11.934
12879W        W85139   0.195  20.478  14.907
12880W        W85140  12.636  40.351   2.912
12881W        W85141   5.309  30.496  14.874
12882W        W85142  34.401  38.386  14.947
12883W        W85143  15.019   9.040   0.402
12884W        W85144  10.714  40.333  11.244
12885W        W85145  40.941  28.589   0.196
12886W        W85146  25.037   3.352   0.493
12887W        W85147   2.457   7.264  12.623
12888W        W85148  32.186  17.127   1.040
12889W        W85149  33.488  27.564   2.227
12890W        W85150  29.020  31.161   3.819
12891W        W85151  19.826   3.906  12.202
12892W        W85152  38.821  33.051   1.935
12893W        W85153  26.228  10.360   3.327
12894W        W85154  22.332  38.870   3.308
12895W        W85155  18.182  36.239  10.618
12896W        W85156  24.513  33.558   1.181
12897W        W85157  31.189   1.748   0.362
12898W        W85158  16.711   0.450  14.578
12899W        W85159  41.175  42.863  13.415
12900W        W85160  13.424  35.557  11.925
12901W        W85161  21.731  17.001  11.247
12902W        W85162  35.572  10.909  14.044
12903W        W85163  12.599  44.063  11.117
12904W        W85164  23.185  42.530   1.397
12905W        W85165   9.340  43.034  12.680
12906W        W85166  21.814  32.028  10.566
12907W        W85167   8.860   8.123  13.423
12908W        W85168  16.896  29.374  11.105
12909W        W85169  16.540  34.276  14.907
12910W        W85170   0.860  39.122   3.563
12911W        W85171  20.883  24.177  12.081
12912W        W85172  10.097  36.672  11.600
12913W        W85173   7.921  34.431   0.712
12914W        W85174  11.230  19.143   0.468
12915W        W85175   8.913  35.472  11.169
12916W        W85176  44.275  19.543  13.010
12917W        W85177  35.663  25.583  14.363
12918W        W85178  35.494  39.505  11.124
12919W        W85179   5.354  38.793   0.295
12920W        W85180  29.103   2.756  10.968
12921W        W85181   8.899  44.134   2.743
12922W        W85182   7.867  40.018  14.968
12923W        W85183   0.428  41.842  12.678
12924W        W85184   3.496  25.251  13.554
12925W        W85185  23.871  42.770   3.575
12926W        W85186  12.032  37.680  12.435
12927W        W85187  14.365  31.976  13.548
12928W        W85188  24.194  40.818   4.269
12929W        W85189  43.906   5.447  11.588
12930W        W85190  41.779  27.086   2.378
12931W        W85191  40.913   0.475   1.145
12932W        W85192  17.320  15.814  11.096
12933W        W85193  43.103  26.726  10.522
12934W        W85194  15.858  43.731  14.943
12935W        W85195  26.481  21.732  14.314
12936W        W85196   5.155  10.166   2.324
12937W        W85197  25.461   0.464   1.297
12938W        W85198  39.855  13.477   4.903
12939W        W85199   4.857  33.064  10.764
12940W        W85200   9.222   9.180  12.464
12941W        W85201  16.311   2.332   4.605
12942W        W85202  18.098  34.417  14.503
12943W        W85203   3.525   6.922  11.748
12944W        W85204  33.118  34.544  10.622
12945W        W85205  37.338   5.823   4.170
12946W        W85206  24.064   5.828   0.232
12947W        W85207  40.295  44.904  13.863
12948W        W85208   5.677  27.000  10.671
12949W        W85209   9.658  10.098  12.472
12950W        W85210  43.817   4.219   3.652
12951W        W85211  15.039  22.794  10.907
12952W        W85212  29.411   6.634   0.887
12953W        W85213   1.378  31.369   3.497
12954W        W85214  40.117  25.222  14.384
12955W        W85215  23.007   8.739   0.674
12956W        W85216  28.533  28.939   2.383
12957W        W85217  42.218  21.312   4.500
12958W        W85218   3.516   6.372  12.982
12959W        W85219  40.497  38.589   4.544
12960W        W85220   7.247  33.507   2.827
12961W        W85221  37.274   5.039  13.379
12962W        W85222  41.470  19.783  14.349
12963W        W85223   4.445  41.887  14.578
12964W        W85224  39.822  30.567   4.385
12965W        W85225  40.979   7.121  12.438
12966W        W85226  20.572   8.922   4.935
12967W        W85227  30.469   7.223   3.575
12968W        W85228  14.984  43.891  14.764
12969W        W85229  13.848  19.200  13.030
12970W        W85230   1.296  22.489   3.597
12971W        W85231   3.962   9.150  11.284
12972W        W85232  18.425  14.611  12.295
12973W        W85233  29.039  31.996  11.987
12974W        W85234  23.016  27.147   4.697
12975W        W85235  33.814  11.929   2.693
12976W        W85236  27.955  36.773  11.097
12977W        W85237  28.353  39.649  13.616
12978W        W85238  28.250  26.194   3.765
12979W        W85239  16.193  13.570  14.346
12980W        W85240  37.474  19.797   2.610
12981W        W85241  17.199  33.516   3.757
12982W        W85242  24.390  41.938   1.666
12983W        W85243  23.445  33.106  14.457
12984W        W85244  40.491   2.287   3.135
12985W        W85245   5.166  25.710   2.719
12986W        W85246   5.315  14.525  11.987
12987W        W85247   5.026  17.364   0.015
12988W        W85248  29.492  19.443  12.062
12989W        W85249  25.759  37.246  11.379
12990W        W85250  19.831  14.851   1.929
12991W        W85251  16.838   0.895  14.873
12992W        W85252  16.980  21.521   1.233
12993W        W85253   8.121  13.239  12.596
12994W        W85254   2.085  27.287  12.966
12995W        W85255  10.753   0.960   2.292
12996W        W85256   5.368  21.647   0.512
12997W        W85257  35.653  37.418   1.702
12998W        W85258  10.620   7.871   2.141
12999W        W85259  24.363  21.646   1.981
13000W        W85260  11.073  11.453  10.367
13001W        W85261  18.111  40.447  10.614
13002W        W85262  32.669  41.351   1.282
13003W        W85263  27.306   7.484   0.913
13004W        W85264  30.519  23.688  13.148
13005W        W85265  19.247  33.700  10.773
13006W        W85266  23.198  25.297  13.659
13007W        W85267  38.373   3.925   2.180
13008W        W85268   4.337  20.806  14.827
13009W        W85269  16.648  11.719  13.779
13010W        W85270  32.083   6.167  14.439
13011W        W85271   7.939  22.041   3.251
13012W        W85272  36.900  12.574  10.949
13013W        W85273  18.537   6.799  10.627
13014W        W85274  37.509  42.410  13.811
13015W        W85275   3.154  25.992  12.434
13016W        W85276  32.445  34.004   2.389
13017W        W85277   9.883  18.029  14.923
13018W        W85278  15.298  35.326  11.134
13019W        W85279  38.443  22.429   3.267
13020W        W85280  39.142   1.287  12.649
13021W        W85281   3.391  43.343  10.570
13022W        W85282   1.899   8.605  13.983
13023W        W85283  43.544   9.232  13.119
13024W        W85284  39.677  34.600  13.515
13025W        W85285   3.972  14.215  14.819
13026W        W85286   2.173  30.361   1.842
13027W        W85287  33.670  41.906  12.533
13028W        W85288  43.753  44.580   4.694
13029W        W85289  37.083  40.890  14.702
13030W        W85290   1.427  32.640  13.404
13031W        W85291  27.783  21.385   5.012
13032W        W85292  29.530  30.988   4.771
13033W        W85293  15.546  26.734  10.654
13034W        W85294   7.928  41.987   1.751
13035W        W85295   5.336  41.998   1.262
13036W        W85296  11.690  33.585  12.615
13037W        W85297  26.072   8.297  11.529
13038W        W85298  31.150  29.137  13.509
13039W        W85299  41.424   9.470   5.304
13040W        W85300  28.011  15.576   4.200
13041W        W85301  37.960  43.348   1.193
13042W        W85302  27.371   1.132  14.878
13043W        W85303  19.497  36.293   0.853
13044W        W85304   5.156  29.456  12.665
13045W        W85305  14.543  12.161  11.463
13046W        W85306  11.041   4.421   2.453
13047W        W85307   4.836   3.860  12.638
13048W        W85308  38.303  11.498  12.917
13049W        W85309  22.125  16.955   4.000
13050W        W85310   6.823  11.137   4.782
13051W        W85311  44.758  30.672  11.550
13052W        W85312  14.615  40.768  12.465
13053W        W85313  36.413  38.811   2.788
13054W        W85314  39.653  17.171   4.908
13055W        W85315  44.585  18.479  12.567
13056W        W85316   7.837  17.018   4.624
13057W        W85317  26.914   0.772  10.323
13058W        W85318  39.602   4.749  12.750
13059W        W85319  15.253  32.841  11.669
13060W        W85320  18.119  13.158   4.300
13061W        W85321  20.511  15.399  12.456
13062W        W85322  41.462   6.460  13.974
13063W        W85323  31.854  28.591  13.284
13064W        W85324  40.046  29.127   3.338
13065W        W85325  33.520  42.640  13.765
13066W        W85326   1.597  32.121  10.354
13067W        W85327  25.917  24.345  12.047
13068W        W85328  14.639   4.512  11.882
13069W        W85329  30.618  11.588  12.650
13070W        W85330  27.208  22.327  14.425
13071W        W85331  16.509  40.715  14.420
13072W        W85332   5.522  34.481   3.618
13073W        W85333  25.636  41.571   4.678
13074W        W85334   1.217  17.217   0.304
13075W        W85335   9.437  37.969  11.044
13076W        W85336  33.970  17.032   0.889
13077W        W85337   8.780   6.110   1.817
13078W        W85338  12.661  18.519   4.629
13079W        W85339   8.924  42.642  12.847
13080W        W85340   2.898   9.616   4.322
13081W        W85341   1.318  42.744  14.485
13082W        W85342  33.579  28.161  14.462
13083W        W85343  16.256  31.976  11.709
13084W        W85344   4.749  44.323   3.564
13085W        W85345  16.877  39.446   1.854
13086W        W85346  32.447  30.499  13.796
13087W        W85347  39.226  21.149   5.023
13088W        W85348  29.450  42.570  14.033
13089W        W85349  35.504   2.526   0.904
13090W        W85350  17.071   2.391   3.924
13091W        W85351   8.295   6.820  11.201
13092W        W85352  11.164   4.824  10.938
13093W        W85353   7.892   5.021  13.986
13094W        W85354  10.335  25.126   4.468
13095W        W85355  20.200  23.249  12.784
13096W        W85356   8.702   4.464   0.817
13097W        W85357  13.642  42.817   4.583
13098W        W85358  26.130   9.568   4.498
13099W        W85359  10.683   7.745  13.484
13100W        W85360  44.244   7.477  11.042
13101W        W85361  37.671  31.194  10.902
13102W        W85362  39.100  42.852  14.978
13103W        W85363  34.118   9.912   1.269
13104W        W85364  38.968  34.846  10.335
13105W        W85365  39.446  17.049   2.481
13106W        W85366   7.963  25.927   3.549
13107W        W85367  22.817  12.693   4.158
13108W        W85368   4.989  23.144  13.512
13109W        W85369   7.418  19.872  12.560
13110W        W85370  34.182  44.720   3.219
13111W        W85371  44.904  36.886  11.405
13112W        W85372  26.869  23.221  14.929
13113W        W85373   1.636  44.199   3.648
13114W        W85374  13.767  33.800  15.000
13115W        W85375  15.127   2.790   1.400
13116W        W85376  32.890  13.125  14.494
13117W        W85377  30.041   2.867  10.955
13118W        W85378  40.265  15.401  12.341
13119W        W85379  40.213  35.885  13.252
13120W        W85380   3.222  22.316  14.829
13121W        W85381  19.322  24.009   4.159
13122W        W85382  11.479  37.001   3.594
13123W        W85383  34.437  43.431  11.424
13124W        W85384  34.949  34.423   4.673
13125W        W85385  37.506  44.467   2.715
13126W        W85386   1.682  43.954   3.135
13127W        W85387  31.884  25.556  12.076
13128W        W85388  12.684  36.885  11.987
13129W        W85389  27.908  41.541  12.487
13130W        W85390  35.798  33.060   4.649
13131W        W85391  15.370  28.308   3.256
13132W        W85392  22.943   2.835   1.247
13133W        W85393  24.467  26.711  12.888
13134W        W85394   6.412  29.170  12.451
13135W        W85395   6.002  21.195   5.095
13136W        W85396   4.452  10.488  14.423
13137W        W85397  35.872  11.907   2.581
13138W        W85398  34.437  14.362   3.201
13139W        W85399   8.767  37.686  12.891
13140W        W85400  21.105  24.254   4.620
13141W        W85401  19.064  15.870  11.671
13142W        W85402  19.527   1.352   0.403
13143W        W85403  16.590  11.205  11.234
13144W        W85404  11.612  26.652   0.959
13145W        W85405  37.983   4.152   1.906
13146W        W85406   5.641   8.817  11.740
13147W        W85407  23.308  16.472  11.012
13148W        W85408  34.854  19.401  12.444
13149W        W85409  22.974  40.965  14.832
13150W        W85410  10.572   6.372   2.722
13151W        W85411   0.925  27.089   2.161
13152W        W85412  30.431  30.049   4.691
13153W        W85413  41.509   4.251   2.591
13154W        W85414  43.832  11.418  10.936
13155W        W85415  29.213  35.044   2.905
13156W        W85416  39.497  39.768  11.792
13157W        W85417   9.911  30.296   2.847
13158W        W85418  41.841  32.493  12.010
13159W        W85419  18.981  13.038   4.847
13160W        W85420  37.032  14.647  12.328
13161W        W85421  43.388  10.710  14.882
13162W        W85422   5.817  24.034   4.242
13163W        W85423  36.610  42.442   1.549
13164W        W85424  18.193  18.695  11.967
13165W        W85425  34.602  30.540  14.114
13166W        W85426  24.500  38.211  11.485
13167W        W85427  44.304  16.574   0.576
13168W        W85428  28.611  21.589  12.116
13169W        W85429  17.988   2.708  14.419
13170W        W85430  40.202  38.417  14.318
13171W        W85431  36.924   1.768   1.324
13172W        W85432  25.440  25.814   3.679
13173W        W85433  21.925  44.408   2.247
13174W        W85434   9.787  25.789   1.891
13175W        W85435   2.579  34.410  14.985
13176W        W85436  16.325  31.038  11.517
13177W        W85437  39.334   4.176  12.978
13178W        W85438  40.982  12.937   3.648
13179W        W85439  35.704  30.436  14.921
13180W        W85440  41.833  30.824  14.996
13181W        W85441  39.011   3.880   0.292
13182W        W85442  11.182  28.914   3.658
13183W        W85443   1.969  31.486   2.779
13184W        W85444  32.264  28.913   2.243
13185W        W85445  29.041  40.723   3.793
13186W        W85446  42.916  38.655   1.594
13187W        W85447   0.503  38.381  13.961
13188W        W85448  17.764  29.458  10.782
13189W        W85449  35.375  26.237   1.786
13190W        W85450  37.391  41.138  13.374
13191W        W85451   9.731  21.168   4.594
13192W        W85452   5.764  18.628   4.101
13193W        W85453  15.781  31.515   4.737
13194W        W85454  30.675  44.506  10.876
13195W        W85455   5.759   7.129   3.263
13196W        W85456  24.831  15.890   4.320
13197W        W85457  39.235   9.292   0.013
13198W        W85458   8.204  32.921   0.738
13199W        W85459   3.288   5.950   3.240
13200W        W85460  18.896  40.553   3.342
13201W        W85461  16.274  31.439   4.525
13202W        W85462  30.860   9.770   3.783
13203W        W85463   7.181  28.479   4.671
13204W        W85464   7.849  32.533   4.568
13205W        W85465  33.594  32.786  11.166
13206W        W85466  15.355  15.242   2.374
13207W        W85467  34.136  39.810  10.714
13208W        W85468  14.660  40.229   0.921
13209W        W85469  39.510   8.951   0.479
13210W        W85470   2.205  19.727  12.484
13211W        W85471  14.343  32.600   0.481
13212W        W85472  34.338  14.215  12.915
13213W        W85473  20.578  20.575   0.875
13214W        W85474  31.091  13.567  11.108
13215W        W85475  19.714  35.985   1.680
13216W        W85476  39.501   9.333   3.734
13217W        W85477  12.879  38.895  13.189
13218W        W85478  36.563  43.292   4.378
13219W        W85479   0.565  31.355   2.385
13220W        W85480  23.774  29.908   2.593
13221W        W85481  18.309  18.367   1.017
13222W        W85482  17.763   7.100   3.065
13223W        W85483   4.291  17.221   0.653
13224W        W85484  19.644  11.779  14.592
13225W        W85485   0.781  32.834   2.739
13226W        W85486   9.940  41.768   1.302
13227W        W85487  27.095  26.107   3.715
13228W        W85488  23.296  28.498  14.510
13229W        W85489   9.638  41.361   1.403
13230W        W85490  17.674  13.340   4.590
13231W        W85491  14.699  39.575  13.828
13232W        W85492  34.990   3.885   3.698
13233W        W85493   7.760  44.145   2.223
13234W        W85494  39.544   9.559   5.516
13235W        W85495  14.150  40.894  14.002
13236W        W85496  33.934  44.856   0.917
13237W        W85497  43.053  33.764   3.636
13238W        W85498   4.711  44.490  12.484
13239W        W85499  36.129   2.129   2.009
13240W        W85500  10.871   9.867  11.304
13241W        W85501   2.532  33.827  14.365
13242W        W85502  12.616   1.756   2.645
13243W        W85503  40.000  41.308   1.239
13244W        W85504  43.626  35.878   5.180
13245W        W85505  27.994   3.368  11.053
13246W        W85506  33.984  10.633   4.259
13247W        W85507  39.389  24.676  14.782
13248W        W85508  20.096  13.607   1.934
13249W        W85509  36.647  38.954  12.128
13250W        W85510  42.103   3.690  14.768
13251W        W85511  44.742   9.247   1.379
13252W        W85512  24.435   2.905  14.836
13253W        W85513  21.198  34.954   2.808
13254W        W85514   7.769  37.942  14.735
13255W        W85515  14.902   3.626  10.638
13256W        W85516  30.388  40.769  11.959
13257W        W85517   6.865  39.517  13.121
13258W        W85518  13.181  14.353   4.582
13259W        W85519  36.568  22.271   2.949
13260W        W85520   6.827  29.231   0.328
13261W        W85521  20.129  10.226   1.469
13262W        W85522  21.084  37.900   0.731
13263W        W85523  33.879   5.184   3.078
13264W        W85524  16.224  22.318  14.555
13265W        W85525  42.408  10.182   4.636
13266W        W85526   2.468  31.622   2.226
13267W        W85527  25.545  34.687  12.876
13268W        W85528  37.445  31.039  13.845
13269W        W85529   3.005  38.937  14.177
13270W        W85530  33.543  41.484   4.909
13271W        W85531  11.454  19.648  12.928
13272W        W85532   2.448  34.073  12.982
13273W        W85533  35.492   4.500  11.741
13274W        W85534  21.201  42.282   1.855
13275W        W85535  23.467  16.760  10.580
13276W        W85536  38.371  30.918   2.642
13277W        W85537  17.340  24.556   2.183
13278W        W85538   5.275   2.082  13.535
13279W        W85539   8.916  13.792  13.809
13280W        W85540  15.091  23.458  14.301
13281W        W85541   3.653  40.418   1.445
13282W        W85542  12.059  18.521  12.021
13283W        W85543  31.334  41.802  13.972
13284W        W85544  24.934  26.056   0.346
13285W        W85545  12.678  31.635  13.773
13286W        W85546   1.202  24.154   2.853
13287W        W85547   3.687  34.373   0.897
13288W        W85548  27.614  30.515   0.326
13289W        W85549  39.009   3.757  13.048
13290W        W85550  32.143  27.442   4.838
13291W        W85551  10.334  26.426  12.283
13292W        W85552  22.998  44.298   3.164
13293W        W85553   2.820  44.300   3.106
13294W        W85554  36.539   5.452   3.889
13295W        W85555   0.601   7.775   4.970
13296W        W85556  26.098   3.149   4.065
13297W        W85557  16.643   6.223   0.408
13298W        W85558   5.624  12.076   3.702
13299W        W85559   5.807  22.501  10.990
13300W        W85560  19.122  17.456   0.120
13301W        W85561  17.484   6.483   0.700
13302W        W85562  42.490   5.232  10.387
13303W        W85563  35.864  43.236  12.107
13304W        W85564  22.603   8.045  10.685
13305W        W85565   1.483  18.541   3.251
13306W        W85566  36.871  28.483   4.779
13307W        W85567   8.298  20.966  13.980
13308W        W85568  11.673  29.982  11.118
13309W        W85569  11.189  10.598   0.324
13310W        W85570  20.625  23.348   2.388
13311W        W85571   6.462  16.604  10.626
13312W        W85572  15.077  44.201   2.691
13313W        W85573   2.539  34.074   2.322
13314W        W85574  23.017  42.786   1.828
13315W        W85575  22.512  37.284   2.373
13316W        W85576  33.382   1.567   4.256
13317W        W85577  11.410  36.863   0.881
13318W        W85578  18.034   0.983  13.824
13319W        W85579  40.633  32.423  10.494
13320W        W85580  36.633  20.564   1.711
13321W        W85581  43.275  33.065   1.885
13322W        W85582  10.434  27.579  14.871
13323W        W85583  33.866  11.424  12.483
13324W        W85584  32.154  22.064  13.574
13325W        W85585   0.454  26.451  11.906
13326W        W85586   7.172  32.926   4.561
13327W        W85587  14.740  11.693  14.570
13328W        W85588   4.565  10.899  10.734
13329W        W85589  32.109  17.366  12.845
13330W        W85590  31.189   2.442  11.471
13331W        W85591   6.357  28.882   4.218
13332W        W85592  41.999  44.706  12.986
13333W        W85593  42.270  42.350   2.643
13334W        W85594  27.807  35.362  12.002
13335W        W85595  32.233   2.449  11.720
13336W        W85596  20.352   6.372   0.790
13337W        W85597  40.361  12.384   4.120
13338W        W85598  35.326  37.136  13.831
13339W        W85599   2.946   7.166   2.280
13340W        W85600   3.882   6.485   1.345
13341W        W85601  28.415  11.137   0.359
13342W        W85602  32.521  18.041   1.763
13343W        W85603  20.781  27.725   3.177
13344W        W85604  35.841  32.540  14.189
13345W        W85605  20.120  25.268  11.791
13346W        W85606  32.061   3.320  10.665
13347W        W85607   0.895   8.625   2.020
13348W        W85608  11.104  28.233   2.814
13349W        W85609   8.701  30.418   2.255
13350W        W85610  42.978  10.249   3.198
13351W        W85611  34.867   9.842   3.890
13352W        W85612  14.241  42.945   3.501
13353W        W85613  39.319  41.591  12.500
13354W        W85614  26.224  38.822   4.141
13355W        W85615  32.639   9.052  12.490
13356W        W85616  25.444  12.346  11.679
13357W        W85617  34.803  20.585   3.772
13358W        W85618  21.766  34.012   0.177
13359W        W85619  43.975  37.321  13.421
13360W        W85620  29.324  33.245  11.909
13361W        W85621   2.000  32.137  11.912
13362W        W85622  32.625  40.404   2.783
13363W        W85623  30.546  31.762  12.044
13364W        W85624  23.530   8.106   4.329
13365W        W85625   9.199  34.524   4.535
13366W        W85626  41.396  11.151  12.068
13367W        W85627  10.599   4.686   2.382
13368W        W85628  36.404  22.189  10.519
13369W        W85629  18.296  27.115   2.600
13370W        W85630  14.692  19.214  11.553
13371W        W85631  36.453  43.495   2.856
13372W        W85632   7.659  31.444  11.139
13373W        W85633   4.519  38.210  13.355
13374W        W85634  25.169  20.099   2.883
13375W        W85635  10.311   6.809  14.702
13376W        W85636   4.777  44.734  14.811
13377W        W85637  13.088   9.601  13.947
13378W        W85638   8.498  13.685  14.261
13379W        W85639  15.826  16.233  12.854
13380W        W85640  23.030  29.033   3.539
13381W        W85641  32.883  12.804   1.713
13382W        W85642  29.974  10.519   3.149
13383W        W85643  37.007  26.428  14.520
13384W        W85644  21.497  41.763  14.118
13385W        W85645  14.039  25.163   1.232
13386W        W85646  32.189  31.034   4.004
13387W        W85647  27.931  24.796  14.176
13388W        W85648  34.042  20.704   5.121
13389W        W85649  42.298   8.921  11.963
13390W        W85650  31.633  16.523   0.261
13391W        W85651  42.564  40.320   1.438
13392W        W85652  28.606  40.908  12.408
13393W        W85653  26.114   6.724   2.892
13394W        W85654  37.936   4.768  10.709
13395W        W85655  28.878   9.830   1.233
13396W        W85656  40.937  32.062  14.318
13397W        W85657   6.948  26.543   0.804
13398W        W85658  35.043  26.266   3.008
13399W        W85659  21.610  43.726  14.865
13400W        W85660  12.685   8.711   4.834
13401W        W85661  14.142  14.616   9.733
13402W        W85662  13.016  21.640  13.612
13403W        W85663  33.067  12.826   0.798
13404W        W85664  36.186  39.749   3.644
13405W        W85665  23.578   4.551  12.363
13406W        W85666  10.325  43.030  13.265
13407W        W85667  36.652  27.031   3.706
13408W        W85668   0.707   9.382   5.001
13409W        W85669  27.740  39.944  11.972
13410W        W85670   4.813  27.793   5.154
13411W        W85671   5.810  23.764  11.304
13412W        W85672  19.290  43.499  12.053
13413W        W85673  13.442  27.342  12.123
13414W        W85674  26.126  19.984   2.378
13415W        W85675  34.655   1.754  14.453
13416W        W85676  33.858  18.242   1.404
13417W        W85677   8.387  37.488   2.240
13418W        W85678  19.497  12.648  12.112
13419W        W85679  20.768  21.242   1.030
13420W        W85680  22.287   0.104  14.983
13421W        W85681  43.187  11.709  14.946
13422W        W85682  39.935  28.581   2.607
13423W        W85683  33.611  10.962   4.064
13424W        W85684  21.096  21.797  14.821
13425W        W85685  13.326  25.639   3.121
13426W        W85686  43.310   2.222  12.070
13427W        W85687  20.580  42.305   2.110
13428W        W85688  34.645  43.334  10.437
13429W        W85689  14.872  31.533  13.006
13430W        W85690  38.757  35.802  12.039
13431W        W85691   1.510  20.353   3.429
13432W        W85692  35.759  36.884   0.954
13433W        W85693  25.024   0.962  12.771
13434W        W85694  30.391  35.773   0.818
13435W        W85695   4.925  20.598   0.993
13436W        W85696  15.403  20.491  14.809
13437W        W85697  31.002   6.510   2.735
13438W        W85698  16.483  14.093  13.492
13439W        W85699  36.346   3.497  12.943
13440W        W85700  38.234  11.236  10.704
13441W        W85701   4.467  37.427   0.040
13442W        W85702   2.296  43.109  10.302
13443W        W85703   7.148  35.744  12.038
13444W        W85704  20.935  44.495   3.621
13445W        W85705  31.342  16.199  14.983
13446W        W85706   9.533  19.752   1.770
13447W        W85707  32.333  44.838  12.838
13448W        W85708   8.594   1.896   4.926
13449W        W85709  41.103   6.644  11.641
13450W        W85710  21.253  28.719   4.086
13451W        W85711  25.673  26.992  10.699
13452W        W85712   7.944   8.799  10.604
13453W        W85713  37.870   0.753  13.026
13454W        W85714   8.344  11.727  14.088
13455W        W85715   4.354  17.260  14.653
13456W        W85716  29.390  11.724  14.908
13457W        W85717  35.421  36.174   0.267
13458W        W85718  25.324  23.772  14.021
13459W        W85719  21.563  18.145   4.636
13460W        W85720  42.931   7.192  10.973
13461W        W85721  13.347  25.528   4.217
13462W        W85722  39.056  23.070  14.545
13463W        W85723  40.462  19.294  10.340
13464W        W85724   4.004  28.117  12.244
13465W        W85725  27.462   3.689   1.745
13466W        W85726  39.062  26.989   4.435
13467W        W85727  15.824  40.571  12.934
13468W        W85728  27.047  20.064  12.217
13469W        W85729  13.447  37.593  11.149
13470W        W85730  21.254  37.462   1.951
13471W        W85731  31.726  26.680  14.789
13472W        W85732   6.487  37.060  11.049
13473W        W85733  21.692  12.778  13.459
13474W        W85734   3.376   6.200   2.106
13475W        W85735  15.157  13.484   4.542
13476W        W85736  22.297   1.728   4.210
13477W        W85737  23.152  25.216  11.084
13478W        W85738  32.223  25.000  12.904
13479W        W85739   5.805  15.904  12.279
13480W        W85740  15.529  44.899   1.425
13481W        W85741  10.385  11.595  11.213
13482W        W85742  32.078  25.215  14.794
13483W        W85743  30.125  38.818   0.463
13484W        W85744  18.347  36.907   4.478
13485W        W85745  28.188   7.367   0.899
13486W        W85746  42.930   6.103  12.995
13487W        W85747  40.342  16.611  13.066
13488W        W85748  11.822  18.556  11.245
13489W        W85749  39.468   2.944  11.176
13490W        W85750   5.110  33.605   4.007
13491W        W85751  11.765  14.917  11.127
13492W        W85752  38.204  31.300  14.268
13493W        W85753   6.381   4.946  12.422
13494W        W85754  34.156   1.795  13.502
13495W        W85755   8.232  11.605  14.998
13496W        W85756   7.520  16.290   2.492
13497W        W85757   6.395  14.638   4.553
13498W        W85758  38.422  10.747   1.017
13499W        W85759  32.955  21.252  10.914
13500W        W85760  27.713  21.185   3.342
13501W        W85761   2.971  39.003  10.905
13502W        W85762  33.754  35.313  10.616
13503W        W85763  39.013  14.633  13.040
13504W        W85764  32.446   4.075   4.447
13505W        W85765   2.240  34.506  12.105
13506W        W85766  23.008  34.692   0.189
13507W        W85767  15.735   3.200   0.298
13508W        W85768  20.293  21.531   0.228
13509W        W85769  16.337  11.645   0.673
13510W        W85770   5.812  21.534   0.778
13511W        W85771  22.668   8.171   1.133
13512W        W85772  32.022  34.123   1.225
13513W        W85773   9.216  41.341   1.764
13514W        W85774  18.677  10.318   2.746
13515W        W85775  13.443  38.949  12.506
13516W        W85776  21.712  31.881   4.683
13517W        W85777  27.707  14.316   0.318
13518W        W85778  42.680   5.787   4.128
13519W        W85779  36.782  31.803  12.525
13520W        W85780  17.582   8.788  11.230
13521W        W85781  27.813  32.321   0.330
13522W        W85782   8.737  30.770   4.744
13523W        W85783  39.061  11.920   1.086
13524W        W85784  37.839  22.467  12.173
13525W        W85785   6.417  27.614  12.699
13526W        W85786  37.985   3.084  12.886
13527W        W85787  33.683  37.775   1.342
13528W        W85788  16.320  34.708  11.390
13529W        W85789  18.706  35.090   2.208
13530W        W85790  13.372  34.672   3.214
13531W        W85791  43.886  43.906   2.869
13532W        W85792  17.645  10.703  10.585
13533W        W85793  23.279  33.093  12.036
13534W        W85794   8.648  16.262   3.389
13535W        W85795  20.367   6.267   3.263
13536W        W85796  36.499  15.302  10.448
13537W        W85797  30.943  30.672   0.899
13538W        W85798   2.314  33.682   1.414
13539W        W85799  16.064  19.396   0.321
13540W        W85800  38.319  11.934  11.156
13541W        W85801   4.968   7.897  13.900
13542W        W85802  29.624  24.510   1.697
13543W        W85803   3.101  44.852   4.249
13544W        W85804  22.738   1.349   2.647
13545W        W85805  26.912   3.306   2.744
13546W        W85806   7.754  10.190   1.158
13547W        W85807  11.683  38.526  11.613
13548W        W85808  28.973  15.776   0.827
13549W        W85809  35.548  31.176  13.803
13550W        W85810  28.098  19.707  12.559
13551W        W85811   7.914  30.074   4.820
13552W        W85812  37.425  44.984   0.273
13553W        W85813  26.641   9.680   1.729
13554W        W85814  20.018   3.836  14.386
13555W        W85815   8.519  23.740   2.678
13556W        W85816  13.894  30.370  11.166
13557W        W85817  30.027   6.879  12.880
13558W        W85818   1.147  19.626  11.963
13559W        W85819  16.948  16.735   5.504
13560W        W85820  38.426  25.867   3.799
13561W        W85821  25.474  37.819   3.328
13562W        W85822  32.680  21.645  10.757
13563W        W85823  21.496  33.841   3.930
13564W        W85824  32.411  29.701   0.979
13565W        W85825   8.553  29.408  11.170
13566W        W85826  30.338  15.391  11.060
13567W        W85827  35.036  34.969   0.152
13568W        W85828  11.916   3.348   4.934
13569W        W85829  16.745  25.099  14.127
13570W        W85830  22.803  33.718   9.929
13571W        W85831  23.064  26.173  12.451
13572W        W85832  26.291  14.175  12.939
13573W        W85833  20.740  14.459  14.359
13574W        W85834  16.767  19.199  12.888
13575W        W85835  25.386  42.561   2.777
13576W        W85836  21.486  37.980   4.649
13577W        W85837   0.329  17.918   3.278
13578W        W85838   5.894   8.697   1.291
13579W        W85839  22.090   4.467  13.946
13580W        W85840  34.388   5.347  10.566
13581W        W85841  14.380   8.843   3.540
13582W        W85842  10.447  22.264  14.542
13583W        W85843  11.648  30.909   4.942
13584W        W85844  13.956  16.241  12.528
13585W        W85845  21.632   0.714  12.382
13586W        W85846  15.534  37.562  10.743
13587W        W85847  39.861   9.875  13.502
13588W        W85848  41.374  22.472  14.026
13589W        W85849  19.878  20.031   4.993
13590W        W85850  44.415  40.040  13.963
13591W        W85851  26.084  42.740  10.661
13592W        W85852   1.002   0.249  12.488
13593W        W85853  16.101  26.890   1.040
13594W        W85854  41.944  42.891   1.752
13595W        W85855  12.616  39.317   4.516
13596W        W85856  39.040  30.595  14.419
13597W        W85857  31.384   7.762  11.927
13598W        W85858  38.141  44.503   0.458
13599W        W85859  15.965  41.034  12.662
13600W        W85860  24.096   7.937   2.361
13601W        W85861   3.337   3.665  10.711
13602W        W85862  15.497  22.746  10.659
13603W        W85863   1.364  41.231  13.670
13604W        W85864  19.825  23.479  11.758
13605W        W85865  10.847  25.969  13.614
13606W        W85866  20.153   4.378   3.885
13607W        W85867  12.688  43.009   2.761
13608W        W85868  13.248  30.664  11.693
13609W        W85869   9.999  26.092   1.004
13610W        W85870   8.127   3.843  14.303
13611W        W85871  43.293  10.068  10.293
13612W        W85872  37.275  32.375   0.365
13613W        W85873   0.032  30.726   4.058
13614W        W85874  43.859   7.795   4.351
13615W        W85875  31.019   9.902   4.240
13616W        W85876  31.071   3.210  10.231
13617W        W85877  20.781  21.450   3.736
13618W        W85878  33.660   3.305   4.326
13619W        W85879  34.411  27.553  12.146
13620W        W85880  25.846   5.237   2.821
13621W        W85881  19.812   0.420  12.639
13622W        W85882  37.980  21.090  11.549
13623W        W85883  41.421   5.111   3.010
13624W        W85884  43.800  17.639   3.136
13625W        W85885   7.854  15.362   1.648
13626W        W85886  25.065  32.442   3.411
13627W        W85887  27.130  15.132   3.584
13628W        W85888  19.071  24.938   1.698
13629W        W85889  41.829  19.670  10.609
13630W        W85890   1.389  38.445  10.574
13631W        W85891  33.883   4.644  13.894
13632W        W85892  28.161  36.053  10.571
13633W        W85893   1.103  17.201  13.031
13634W        W85894   1.027  10.682   4.451
13635W        W85895  41.509  25.915  14.925
13636W        W85896  33.883  39.342   0.906
13637W        W85897  21.503  37.496   9.832
13638W        W85898  17.874  27.872  10.702
13639W        W85899  41.449   9.414   4.108
13640W        W85900  37.404  38.407  13.114
13641W        W85901  39.384  44.142  14.035
13642W        W85902  39.020  12.799   4.246
13643W        W85903  10.352  25.241   1.249
13644W        W85904  32.612  23.323   3.804
13645W        W85905  12.694  32.087   4.210
13646W        W85906  27.087  25.528  11.535
13647W        W85907   1.416  35.137   1.240
13648W        W85908  37.817  32.967   0.036
13649W        W85909  17.044  43.830   4.617
13650W        W85910  11.632  39.302   0.933
13651W        W85911  33.508  37.760   2.217
13652W        W85912  27.678  42.861  11.464
13653W        W85913  22.269  22.338  12.524
13654W        W85914  30.959  29.571   3.737
13655W        W85915  38.041  44.827  13.399
13656W        W85916  10.821  19.880  13.456
13657W        W85917  32.351  36.028   0.131
13658W        W85918  31.145  25.016   2.234
13659W        W85919   2.886  19.567  14.979
13660W        W85920  43.160  22.597  14.549
13661W        W85921  15.973  41.254  10.728
13662W        W85922   7.750  27.461   2.822
13663W        W85923  28.599   2.901  13.774
13664W        W85924  26.206  16.677  11.886
13665W        W85925   2.247  23.137  14.515
13666W        W85926  39.069  12.136  11.343
13667W        W85927   6.505  17.340  13.145
13668W        W85928  15.062  15.519   1.421
13669W        W85929  27.349  10.759   2.954
13670W        W85930   6.961   1.640   3.324
13671W        W85931   7.778  36.861  12.276
13672W        W85932  15.645   6.629  12.009
13673W        W85933   8.710  24.972   4.558
13674W        W85934   8.440   7.904  12.589
13675W        W85935  24.965  34.080  10.679
13676W        W85936   6.760  11.219  11.725
13677W        W85937  23.735   9.866   2.437
13678W        W85938  19.956  14.684   0.624
13679W        W85939  28.101  42.047  14.308
13680W        W85940  42.863  14.119   2.448
13681W        W85941  44.687   8.737   3.792
13682W        W85942  22.296  33.918   0.746
13683W        W85943  32.139  40.416   1.171
13684W        W85944   3.974  34.038  11.989
13685W        W85945  20.619  27.740   2.184
13686W        W85946  33.950  42.025  14.970
13687W        W85947   6.189  42.557   4.203
13688W        W85948  21.461  23.072  13.879
13689W        W85949  10.361  14.681   2.597
13690W        W85950   3.518  24.679  13.800
13691W        W85951  12.046  34.538   4.137
13692W        W85952  20.595   2.867   1.181
13693W        W85953  27.963  31.081  14.454
13694W        W85954  39.290   8.102   1.996
13695W        W85955  27.420  34.175   3.320
13696W        W85956  30.180  11.159  14.479
13697W        W85957   5.291  38.907   2.426
13698W        W85958  28.590   4.498   1.420
13699W        W85959  19.504   2.980   3.343
13700W        W85960   0.220  19.239  12.105
13701W        W85961  31.104  32.888   1.086
13702W        W85962  15.086  37.461   0.964
13703W        W85963  32.814   3.450   3.344
13704W        W85964   7.729  38.783   1.302
13705W        W85965   9.269   3.888   4.319
13706W        W85966   0.040  36.063   2.339
13707W        W85967  42.890  14.838   1.675
13708W        W85968  36.054  43.430  11.131
13709W        W85969  42.794  15.289  13.474
13710W        W85970  23.478   8.657   4.266
13711W        W85971  17.186  18.079  13.477
13712W        W85972  40.210  15.566  12.879
13713W        W85973  21.144  40.971   2.251
13714W        W85974  36.931  23.761   0.885
13715W        W85975  15.839  23.744  11.151
13716W        W85976  44.174  23.454   0.073
13717W        W85977  11.095   0.776   3.626
13718W        W85978  36.956   1.765  13.810
13719W        W85979  18.585  15.650  13.858
13720W        W85980  20.633   2.398  14.884
13721W        W85981  14.590  34.599  13.381
13722W        W85982  26.690  10.406  14.473
13723W        W85983  19.766   6.742  11.037
13724W        W85984  44.589  34.481   3.182
13725W        W85985  42.527  44.767  13.614
13726W        W85986  14.540  11.132  13.470
13727W        W85987  21.943   7.819  11.854
13728W        W85988  36.465  30.079  12.601
13729W        W85989  27.659  12.069   0.266
13730W        W85990  14.014   1.699   4.719
13731W        W85991  40.283   3.779   4.526
13732W        W85992  34.516  22.618   4.961
13733W        W85993  33.403  38.038   0.914
13734W        W85994  32.482  19.132  12.681
13735W        W85995   6.460  32.169  14.538
13736W        W85996  32.431  15.918   2.764
13737W        W85997   9.837   4.440  10.725
13738W        W85998  21.473  20.484   3.428
13739W        W85999   4.774  15.571  12.466
13740W        W86000   7.688   6.192  12.862
13741W        W86001   8.690  23.244   3.864
13742W        W86002  10.340  18.664   2.153
13743W        W86003  36.015  17.153  11.984
13744W        W86004  24.468  19.042   1.813
13745W        W86005  43.962  14.478  10.692
13746W        W86006  10.982  29.511  14.629
13747W        W86007  41.786  39.586  12.090
13748W        W86008  36.927   4.681   3.689
13749W        W86009  32.419  28.756  12.608
13750W        W86010  27.468  13.923   2.742
13751W        W86011  28.523  30.423   5.372
13752W        W86012  25.122  30.477  14.423
13753W        W86013  15.986  17.108  11.033
13754W        W86014  42.755   3.721   4.069
13755W        W86015  15.536  35.136  12.426
13756W        W86016  44.874  11.752  14.395
13757W        W86017   7.041   0.501   1.922
13758W        W86018  39.637  31.806  13.048
13759W        W86019  42.893  42.204  13.944
13760W        W86020   1.305  10.042  11.675
13761W        W86021   7.630  28.773  12.545
13762W        W86022  27.123  39.985   2.296
13763W        W86023  43.733  39.640  12.051
13764W        W86024  25.507   3.745   1.793
13765W        W86025  25.169  28.133  13.366
13766W        W86026  37.580  10.732   4.714
13767W        W86027  22.183  27.495   4.983
13768W        W86028   2.207  43.595   1.030
13769W        W86029   2.826  33.597  14.720
13770W        W86030   7.847  41.288  10.323
13771W        W86031  23.726  42.427  10.673
13772W        W86032  29.917  11.499   0.294
13773W        W86033  10.424  25.533   2.674
13774W        W86034  26.467   1.356  12.800
13775W        W86035  16.955  24.167   1.571
13776W        W86036   5.759  15.729   1.319
13777W        W86037   3.364  41.539   0.640
13778W        W86038  42.492  39.807   4.142
13779W        W86039   3.704   0.451  13.830
13780W        W86040   2.818  34.171   1.857
13781W        W86041   7.824  23.738   0.416
13782W        W86042   8.766  23.358  13.835
13783W        W86043  28.005  18.877   5.004
13784W        W86044  19.001   3.284   0.026
13785W        W86045  43.800  23.984   2.285
13786W        W86046  17.299  43.375  10.875
13787W        W86047  16.631  34.379  12.922
13788W        W86048  11.033  41.561   0.517
13789W        W86049  27.187  28.425  10.969
13790W        W86050  15.669  10.556   0.316
13791W        W86051  17.206  13.929   2.728
13792W        W86052  17.914  20.675   2.288
13793W        W86053  31.139  33.562  14.279
13794W        W86054  29.930  44.928  10.512
13795W        W86055  37.672  34.886  11.293
13796W        W86056  37.700   9.599   2.569
13797W        W86057  38.827  20.605  12.552
13798W        W86058  12.046  28.525  12.361
13799W        W86059  20.930  11.482  14.462
13800W        W86060   2.866  36.906   0.432
13801W        W86061  30.733   1.254  14.803
13802W        W86062  15.234  32.168   9.902
13803W        W86063   2.966   2.965   0.785
13804W        W86064   4.825  21.778  12.061
13805W        W86065   0.036  35.435  12.897
13806W        W86066  25.064  26.967   4.720
13807W        W86067   6.269  15.219   2.790
13808W        W86068   1.450   0.993  14.520
13809W        W86069  42.552  28.626   2.633
13810W        W86070  43.099  13.569   1.819
13811W        W86071  40.004  12.955   0.926
13812W        W86072  34.802  15.579  12.435
13813W        W86073   2.947   1.830   4.438
13814W        W86074  34.574   6.490   1.985
13815W        W86075  10.826  28.013  10.764
13816W        W86076  19.733   5.908   3.824
13817W        W86077  43.368  18.922   0.436
13818W        W86078  24.645  23.209  14.924
13819W        W86079  29.535  12.826  13.401
13820W        W86080  30.522   6.782   4.529
13821W        W86081  37.874  29.454  14.412
13822W        W86082  14.232  30.736   1.663
13823W        W86083  30.550  19.610  13.452
13824W        W86084   2.967  10.903   3.274
13825W        W86085  27.766  22.589  13.915
13826W        W86086  25.478   5.800   0.434
13827W        W86087  21.682   1.465   4.553
13828W        W86088  35.040  17.333   0.525
13829W        W86089  11.729   1.343   4.204
13830W        W86090   0.846  42.927  12.866
13831W        W86091  37.860  39.510  14.913
13832W        W86092  17.652   4.546  11.039
13833W        W86093  32.615  33.144   4.549
13834W        W86094  27.996  44.707  11.529
13835W        W86095  31.519  19.076  10.755
13836W        W86096  24.011   8.778  10.554
13837W        W86097  36.562  13.138  14.533
13838W        W86098   2.806  30.439  14.390
13839W        W86099  21.513  17.206   0.338
13840W        W86100  39.795  18.750   3.801
13841W        W86101   0.339  44.023  14.261
13842W        W86102   5.335   5.462   1.323
13843W        W86103  23.785   9.043   5.175
13844W        W86104  25.140  29.037  12.967
13845W        W86105  33.452  34.371   1.724
13846W        W86106   1.881   3.218   2.825
13847W        W86107  24.685  13.750   2.904
13848W        W86108  37.630   7.644  11.930
13849W        W86109  27.061  26.584   3.279
13850W        W86110   5.978  42.824  14.888
13851W        W86111  40.415  39.861   2.464
13852W        W86112  40.349  39.993   1.950
13853W        W86113  11.243  16.949   1.859
13854W        W86114  34.226  36.131   2.170
13855W        W86115  22.088  38.434  11.638
13856W        W86116  13.175   3.812   3.548
13857W        W86117   2.367  25.194  11.115
13858W        W86118  44.193  10.230  10.816
13859W        W86119  38.401  18.242   4.918
13860W        W86120  15.579  31.893   3.953
13861W        W86121  28.039  16.496  14.090
13862W        W86122  40.537  23.725   4.099
13863W        W86123  43.459  20.039  14.357
13864W        W86124  26.705  39.807  11.989
13865W        W86125  34.442  42.526   4.843
13866W        W86126   4.471  43.256   4.193
13867W        W86127  10.929  27.398  11.559
13868W        W86128   3.290   7.961  13.194
13869W        W86129  32.532   8.909  13.328
13870W        W86130  18.005  10.373   1.426
13871W        W86131  37.819  12.810  13.540
13872W        W86132  28.925  38.720   0.898
13873W        W86133  32.073   0.238   1.331
13874W        W86134  41.466  44.945  14.984
13875W        W86135  43.756  35.487   2.072
13876W        W86136  25.462  17.019   9.986
13877W        W86137  31.106  17.429  11.045
13878W        W86138   3.232  19.200  12.938
13879W        W86139  20.083  21.291   1.846
13880W        W86140   6.948  41.812   2.670
13881W        W86141   3.958   5.567   3.628
13882W        W86142  43.033  37.366   3.300
13883W        W86143  26.147  29.491   2.825
13884W        W86144  10.088  36.141  10.813
13885W        W86145   1.722  11.183  11.705
13886W        W86146  26.713  19.568  10.641
13887W        W86147  31.922  16.182  13.381
13888W        W86148  37.649  27.124   2.299
13889W        W86149  32.407  23.954  11.455
13890W        W86150  31.670   3.667   1.396
13891W        W86151  18.225  17.871   0.883
13892W        W86152  15.499  31.456   4.324
13893W        W86153  32.094  24.336   3.166
13894W        W86154  16.046  38.942  14.511
13895W        W86155  24.067   3.009   3.143
13896W        W86156  17.837  28.762   0.968
13897W        W86157  39.307   6.305  11.395
13898W        W86158   0.863  24.767   1.631
13899W        W86159  13.515  39.490   3.667
13900W        W86160  24.596   1.805  14.733
13901W        W86161   8.282  19.268   4.910
13902W        W86162  36.627  38.545  11.414
13903W        W86163  11.867  14.758  12.960
13904W        W86164  11.210  42.658   1.535
13905W        W86165  24.660  32.644   4.143
13906W        W86166  19.321  27.101   3.666
13907W        W86167  23.452  28.906   2.770
13908W        W86168  11.700   2.856  12.543
13909W        W86169  12.105   1.231  14.830
13910W        W86170  34.360   5.780  11.268
13911W        W86171  36.703  27.781   2.634
13912W        W86172  43.474  31.574  10.606
13913W        W86173  43.427  20.040  11.602
13914W        W86174  26.370  14.159   1.385
13915W        W86175  29.089  42.419   1.823
13916W        W86176  22.134  28.642  10.974
13917W        W86177  42.228   4.525   3.276
13918W        W86178  12.726  12.055   1.937
13919W        W86179   7.408  10.287   0.292
13920W        W86180  42.763  34.911  12.441
13921W        W86181  40.078  20.656  11.193
13922W        W86182   7.390   7.343  13.112
13923W        W86183  37.479  25.739  11.760
13924W        W86184  29.541   9.805   0.764
13925W        W86185  22.216   4.697  11.669
13926W        W86186   9.681  35.853   4.448
13927W        W86187  42.113  14.877  11.628
13928W        W86188  22.994  34.795   2.807
13929W        W86189  18.042   2.763   3.105
13930W        W86190  26.127  26.757   0.331
13931W        W86191   2.371   2.222  12.643
13932W        W86192  30.012  19.120   0.996
13933W        W86193  35.881   3.737  12.948
13934W        W86194   9.385  22.061  10.663
13935W        W86195  21.648  24.066  12.430
13936W        W86196  20.518  25.110  11.482
13937W        W86197  31.381  16.171  10.681
13938W        W86198  40.431  24.110  14.293
13939W        W86199  13.788   0.441   1.394
13940W        W86200  17.177  40.407   3.668
13941W        W86201  20.681  32.892  10.939
13942W        W86202   7.693  24.222  11.544
13943W        W86203  24.740  13.635  11.114
13944W        W86204  44.952  30.546  13.335
13945W        W86205  27.179   4.749  12.923
13946W        W86206   3.118  24.141   3.070
13947W        W86207  20.850   5.077   0.773
13948W        W86208  20.965   6.105  10.148
13949W        W86209  27.111  32.496  11.236
13950W        W86210  12.043  40.616  11.122
13951W        W86211  21.115  33.878  14.579
13952W        W86212  33.862  38.310   0.856
13953W        W86213  17.272  15.048   4.174
13954W        W86214   2.010  42.852   4.119
13955W        W86215  29.422  13.770  11.551
13956W        W86216   4.810   9.680   3.407
13957W        W86217  44.349   8.340   1.252
13958W        W86218  15.524  20.826  14.420
13959W        W86219   5.909   0.032  12.515
13960W        W86220  43.938   1.770  12.876
13961W        W86221  37.577  23.997  11.500
13962W        W86222  16.096  26.533  14.877
13963W        W86223  25.037  26.407  12.075
13964W        W86224  41.264  36.043   1.291
13965W        W86225  25.109  41.162  14.698
13966W        W86226  34.413   5.920  14.313
13967W        W86227  26.670  22.463   4.081
13968W        W86228  19.772  21.694   2.041
13969W        W86229   8.474   3.802   4.747
13970W        W86230  36.933  15.799  14.775
13971W        W86231  18.933  24.680  13.047
13972W        W86232  12.850  38.444  13.536
13973W        W86233  10.388  39.844   3.195
13974W        W86234   5.656   8.233   1.312
13975W        W86235  16.388   5.247  14.872
13976W        W86236  33.440  27.624  14.375
13977W        W86237  17.154  16.444   0.889
13978W        W86238  36.816  13.893   2.141
13979W        W86239  26.517   2.751  11.956
13980W        W86240   4.416   8.220   3.810
13981W        W86241  36.320   9.149   5.082
13982W        W86242  32.022  22.742  11.576
13983W        W86243   0.932  43.881   3.179
13984W        W86244  37.854  38.447   1.155
13985W        W86245  31.254  29.868  10.570
13986W        W86246  36.544   5.100   0.915
13987W        W86247  26.341   7.738  12.326
13988W        W86248   5.294  33.488   4.486
13989W        W86249  25.677  37.758  13.974
13990W        W86250  10.165   7.218   1.426
13991W        W86251  22.956   5.907  12.949
13992W        W86252  11.196  22.083  14.197
13993W        W86253  14.787  21.181  11.101
13994W        W86254  32.517  14.800   0.255
13995W        W86255  30.027  35.006   4.116
13996W        W86256   4.402  15.737  13.477
13997W        W86257  19.992  13.063   2.307
13998W        W86258  18.182  15.518  12.012
13999W        W86259  34.867  39.888   0.053
14000W        W86260  16.027  37.059   2.829
14001W        W86261  19.650   2.109   3.529
14002W        W86262   7.661  23.185   3.820
14003W        W86263   6.717  38.471   3.315
14004W        W86264  23.005  37.341  13.992
14005W        W86265  20.203  36.989  14.526
14006W        W86266  32.606  34.099   1.888
14007W        W86267  14.069  43.907  14.070
14008W        W86268  38.344  21.373  10.696
14009W        W86269  37.841   2.868  12.348
14010W        W86270   6.008  30.265  11.119
14011W        W86271  36.929  36.803  12.292
14012W        W86272  22.710   4.314  14.091
14013W        W86273  30.148  11.023   3.287
14014W        W86274  35.680  30.633  13.978
14015W        W86275  43.846  26.354  11.110
14016W        W86276  20.271  31.810   5.043
14017W        W86277  34.597  22.966   1.802
14018W        W86278  41.793  41.873  11.706
14019W        W86279  37.641  28.002  11.080
14020W        W86280   6.746  36.135   2.647
14021W        W86281  24.141  29.159   0.441
14022W        W86282  44.298   7.304   4.588
14023W        W86283  20.570  35.010  14.289
14024W        W86284  34.951  37.305   0.453
14025W        W86285  25.989  38.484  12.170
14026W        W86286  12.278  39.057  14.838
14027W        W86287   9.273  38.853  11.401
14028W        W86288  24.791  24.020   0.770
14029W        W86289  43.396  17.031   0.765
14030W        W86290  16.222  32.544  13.984
14031W        W86291  13.915   7.313  11.007
14032W        W86292  14.121   4.723   4.205
14033W        W86293  11.895  36.876   2.639
14034W        W86294  32.741  37.443   4.641
14035W        W86295  28.958  34.657  12.937
14036W        W86296  37.100   7.728   2.649
14037W        W86297  30.391  20.748   0.294
14038W        W86298  16.822  40.336  12.027
14039W        W86299   2.911  34.910  13.350
14040W        W86300  27.009  33.291   3.559
14041W        W86301  37.511   8.150   4.066
14042W        W86302  34.927   0.694  10.486
14043W        W86303   0.875  40.402  11.476
14044W        W86304   4.879  12.981  13.256
14045W        W86305   1.827   0.975   4.210
14046W        W86306  30.632  25.953  10.711
14047W        W86307  27.562  20.772   3.076
14048W        W86308  32.399  42.517   1.744
14049W        W86309  33.701  11.792   1.378
14050W        W86310  10.370  43.575  14.838
14051W        W86311   0.184  40.831   0.850
14052W        W86312  10.870  31.744  12.478
14053W        W86313   6.233  21.508  12.462
14054W        W86314  26.758   2.382  13.454
14055W        W86315  15.190  34.962  12.844
14056W        W86316  40.788   6.534   3.363
14057W        W86317  34.614   6.628   2.495
14058W        W86318  31.039  41.944   2.269
14059W        W86319   4.890  28.727   1.187
14060W        W86320  26.997  42.275   0.518
14061W        W86321   2.025  17.053   1.378
14062W        W86322  20.251  13.057  12.053
14063W        W86323  39.858  43.138  12.416
14064W        W86324  14.183  32.332  10.661
14065W        W86325  16.032  22.511   1.888
14066W        W86326  25.477   7.319   2.524
14067W        W86327  15.777  43.342  10.768
14068W        W86328  11.778  35.433   0.835
14069W        W86329  37.054  12.494  12.923
14070W        W86330  39.577  19.629  13.266
14071W        W86331  10.680  14.085   4.731
14072W        W86332  26.513   8.462  13.452
14073W        W86333  36.242  39.482  12.753
14074W        W86334   3.067  44.405   1.352
14075W        W86335  27.482  34.105   0.852
14076W        W86336  17.698   6.870  12.483
14077W        W86337  39.368   8.807   3.782
14078W        W86338  33.117  44.097  13.420
14079W        W86339   4.768  21.502   2.212
14080W        W86340  34.570   7.141   0.014
14081W        W86341   5.862  10.604   1.287
14082W        W86342  26.870  40.003  14.914
14083W        W86343  15.725   3.130  14.780
14084W        W86344  32.183  38.937  13.388
14085W        W86345  27.898  20.711  12.422
14086W        W86346  16.072  30.493  14.730
14087W        W86347  28.538  34.593  10.480
14088W        W86348  22.102  21.331  11.016
14089W        W86349  17.058  12.676   3.695
14090W        W86350   3.254   1.564   3.651
14091W        W86351  25.033  40.656   3.728
14092W        W86352  16.338   5.301   4.066
14093W        W86353  29.089  27.123  10.584
14094W        W86354  16.847  30.579  13.336
14095W        W86355   8.948  24.220  12.007
14096W        W86356  39.024  33.358  10.977
14097W        W86357  12.156  38.746  11.514
14098W        W86358  37.574  23.962  13.536
14099W        W86359  19.164   3.331  10.713
14100W        W86360  20.838  18.589   3.805
14101W        W86361   9.102  31.499  13.844
14102W        W86362  28.562  25.106   4.857
14103W        W86363  19.120   9.585   5.042
14104W        W86364  40.117   3.312  11.667
14105W        W86365   3.615  26.369   2.655
14106W        W86366  40.953  41.397   3.858
14107W        W86367  35.279   0.771  13.405
14108W        W86368  29.409  39.937   4.047
14109W        W86369  18.616  23.773   3.718
14110W        W86370  20.350  20.267   4.994
14111W        W86371  32.121  10.259  10.672
14112W        W86372  16.240  27.534   0.163
14113W        W86373  10.376   0.502   1.479
14114W        W86374  39.499  26.470   2.380
14115W        W86375   4.357  15.664   1.743
14116W        W86376  16.827  29.216   2.733
14117W        W86377  10.091  25.054  10.760
14118W        W86378  10.868  30.573   2.675
14119W        W86379  22.794  25.916  10.631
14120W        W86380  26.010  43.289   2.711
14121W        W86381  22.521   2.278   0.295
14122W        W86382   2.347  16.060  10.555
14123W        W86383  32.275  19.008   2.864
14124W        W86384  39.965  27.564  12.422
14125W        W86385  15.951  30.624   4.034
14126W        W86386  14.300  37.598  11.158
14127W        W86387  17.719  14.192  12.106
14128W        W86388   5.372  18.893   1.232
14129W        W86389  17.676  33.474  12.596
14130W        W86390   4.410  43.429   0.187
14131W        W86391  38.664  43.708   1.683
14132W        W86392   1.482   4.745  12.707
14133W        W86393  35.080  22.064   0.121
14134W        W86394   5.860  39.573   3.868
14135W        W86395  37.313  44.858  13.737
14136W        W86396  26.107  42.366   4.760
14137W        W86397   4.701  19.056  11.414
14138W        W86398  13.290  41.870  12.496
14139W        W86399   1.263   5.970  12.577
14140W        W86400   7.214  41.795  13.001
14141W        W86401  30.839  22.484  13.561
14142W        W86402  35.920  39.464   3.290
14143W        W86403  38.361  14.280   3.105
14144W        W86404   2.060   2.004  11.036
14145W        W86405  44.735  23.393   0.222
14146W        W86406  28.730  28.088  12.035
14147W        W86407  14.177  37.462  10.677
14148W        W86408  32.669  26.999  11.413
14149W        W86409   5.755  20.620  10.552
14150W        W86410  30.453  10.735  14.595
14151W        W86411  39.912  39.132  12.873
14152W        W86412  26.960  12.289  11.019
14153W        W86413  22.505  21.605  13.566
14154W        W86414  33.086   5.254  14.581
14155W        W86415  11.402  13.267   2.799
14156W        W86416  38.317  31.624  13.369
14157W        W86417  31.196   3.981  13.474
14158W        W86418   0.431  40.610  13.383
14159W        W86419  27.175  37.520  10.057
14160W        W86420  21.527  40.372   3.698
14161W        W86421  32.450  21.115  11.629
14162W        W86422  19.626  30.179   1.489
14163W        W86423  31.220  42.805  13.996
14164W        W86424   8.660   6.939   2.420
14165W        W86425  30.721  17.504  10.706
14166W        W86426   0.889  22.482  13.404
14167W        W86427  21.452  32.036  13.871
14168W        W86428   2.894  22.155   0.199
14169W        W86429   9.723   1.225  12.981
14170W        W86430  31.671  20.867   0.027
14171W        W86431  41.057  14.266   2.634
14172W        W86432  39.103   6.235  12.436
14173W        W86433  28.365   5.735   4.568
14174W        W86434  13.755   6.733  12.121
14175W        W86435  19.088   4.345  11.045
14176W        W86436  21.722  43.949   1.456
14177W        W86437  36.426   8.777   4.226
14178W        W86438  27.741  40.274   1.865
14179W        W86439  33.942   2.603  11.111
14180W        W86440  20.271  27.534   4.423
14181W        W86441  21.081   4.986   4.482
14182W        W86442   3.470  38.856  10.814
14183W        W86443  41.307  33.669  12.496
14184W        W86444   2.985   5.779  11.903
14185W        W86445  21.018  12.253   2.282
14186W        W86446  40.813  24.392  11.533
14187W        W86447  25.568  36.931   1.321
14188W        W86448  31.417   5.747  10.601
14189W        W86449   4.912  31.884   3.165
14190W        W86450  43.956  42.808   4.128
14191W        W86451  16.598  13.671  13.243
14192W        W86452  43.911  28.501  12.891
14193W        W86453  42.715  12.688  12.402
14194W        W86454   1.491  44.746   3.129
14195W        W86455  43.459  40.856   2.378
14196W        W86456  34.654  32.897   0.844
14197W        W86457   6.771  30.238   2.280
14198W        W86458   0.784  37.135  10.707
14199W        W86459   9.367  42.042  11.133
14200W        W86460  29.662   5.459  10.953
14201W        W86461  38.845  23.617  11.840
14202W        W86462  26.184  41.783  11.168
14203W        W86463  20.096  29.456   3.706
14204W        W86464  19.261  32.415  14.436
14205W        W86465   9.169  31.490   3.402
14206W        W86466  22.795  20.910   5.321
14207W        W86467  38.339  16.640   4.156
14208W        W86468   2.676   3.745  10.553
14209W        W86469  25.555  19.209  12.394
14210W        W86470  33.804  15.125  11.993
14211W        W86471   0.793  44.709   4.679
14212W        W86472  34.793   2.146   1.578
14213W        W86473  29.105  29.042   1.832
14214W        W86474   1.709  16.706  11.188
14215W        W86475  34.173  38.309  12.963
14216W        W86476  24.150   0.996  12.581
14217W        W86477  39.975   2.755   3.890
14218W        W86478  23.777  17.081  14.282
14219W        W86479   2.893   8.022  13.549
14220W        W86480   3.689  40.891   2.144
14221W        W86481  40.988   8.623   1.692
14222W        W86482  39.543  11.652  10.676
14223W        W86483   9.790   6.286  10.397
14224W        W86484  40.245  32.109   2.307
14225W        W86485  20.621   7.378  13.734
14226W        W86486  34.039  33.452   1.355
14227W        W86487  15.305  28.557   0.815
14228W        W86488   4.201  25.107   0.811
14229W        W86489  42.994  42.868   1.633
14230W        W86490  16.907  41.422   1.335
14231W        W86491  34.333  22.068   3.156
14232W        W86492  19.784  19.987  12.077
14233W        W86493  40.471  22.675   0.943
14234W        W86494  10.645  21.350  11.482
14235W        W86495  21.622   7.648   4.623
14236W        W86496  44.770   0.440   1.428
14237W        W86497   5.107   4.698   1.734
14238W        W86498  18.529  37.467   2.328
14239W        W86499  31.074  25.989   3.570
14240W        W86500  36.631  44.625  14.993
14241W        W86501  28.861  41.747  14.023
14242W        W86502   7.003  22.294  13.907
14243W        W86503  42.833  26.133  13.929
14244W        W86504  37.932  16.237  10.214
14245W        W86505  44.290  14.997  13.972
14246W        W86506  26.190  41.261  11.026
14247W        W86507  23.755  37.113  13.050
14248W        W86508   5.214  13.607  14.027
14249W        W86509  34.841  38.739   3.104
14250W        W86510  30.691  22.220   4.155
14251W        W86511  19.234   0.240   0.812
14252W        W86512  33.119  30.566   3.835
14253W        W86513   2.323  24.473  14.465
14254W        W86514  39.007  40.611  13.337
14255W        W86515  36.963   4.633  10.492
14256W        W86516   2.610  42.584  11.973
14257W        W86517   5.282  41.158   2.795
14258W        W86518   5.783  13.746  14.874
14259W        W86519  38.520  30.532   0.321
14260W        W86520   5.238   2.116  10.819
14261W        W86521   2.435   3.655  13.212
14262W        W86522  11.264  28.704   4.561
14263W        W86523  11.139  41.988  11.184
14264W        W86524  22.279  43.339   2.815
14265W        W86525  41.164  27.808  11.842
14266W        W86526  33.370  23.121   3.208
14267W        W86527   3.458  17.374   1.979
14268W        W86528  33.996  43.461  14.036
14269W        W86529  28.244  40.322   1.778
14270W        W86530  34.979   3.792   1.000
14271W        W86531   1.495  11.378   2.183
14272W        W86532  24.921  41.460  13.897
14273W        W86533  17.211   1.889   3.819
14274W        W86534  29.128  39.291   2.633
14275W        W86535  44.278  15.738  12.461
14276W        W86536  42.296  38.003  14.692
14277W        W86537  26.164  42.420  12.871
14278W        W86538  14.760  35.380   2.008
14279W        W86539  42.438  41.395   2.841
14280W        W86540  15.854   5.363  14.898
14281W        W86541  12.556   5.437  11.510
14282W        W86542  23.046  32.457   1.313
14283W        W86543  42.993  36.963  12.019
14284W        W86544  22.317   3.403   4.127
14285W        W86545   3.950   1.883   2.920
14286W        W86546  27.652  22.808  13.398
14287W        W86547  10.796   7.483  14.846
14288W        W86548  27.692  19.033   1.313
14289W        W86549  32.090   0.397  13.540
14290W        W86550   9.435  37.975   2.657
14291W        W86551  36.444  38.131   0.445
14292W        W86552   5.164  36.821   1.436
14293W        W86553  27.620  12.562   0.385
14294W        W86554  22.714  22.815   0.782
14295W        W86555   0.902  21.736  12.486
14296W        W86556  31.678  14.616   2.267
14297W        W86557  26.505  33.325   2.248
14298W        W86558  19.237  40.992   2.694
14299W        W86559  26.163  33.610  12.453
14300W        W86560  44.634  13.001  13.250
14301W        W86561  33.571  26.533  10.584
14302W        W86562  18.542  42.568  13.238
14303W        W86563  16.785  39.357  14.546
14304W        W86564  23.985  18.755   4.746
14305W        W86565  21.873   3.913   2.850
14306W        W86566  28.605  27.708  11.415
14307W        W86567  14.961   1.532   0.242
14308W        W86568  22.311   4.197  14.915
14309W        W86569  27.132  19.183   0.243
14310W        W86570  34.598   2.920   1.272
14311W        W86571  27.871  28.066   0.233
14312W        W86572  10.509  24.186   4.548
14313W        W86573  25.533  42.093   3.705
14314W        W86574  12.454  37.230   0.282
14315W        W86575  15.561   0.472   0.988
14316W        W86576  42.251  43.791  12.570
14317W        W86577   1.219  41.004   4.516
14318W        W86578   4.751  44.198   5.000
14319W        W86579  26.019   4.981   4.805
14320W        W86580   5.175  18.714  14.444
14321W        W86581  14.698  41.060   1.354
14322W        W86582  21.444  27.041  14.045
14323W        W86583  23.623  13.053   3.637
14324W        W86584  32.051  37.883  13.961
14325W        W86585   7.457   5.389  13.767
14326W        W86586  15.180   4.175  12.637
14327W        W86587  32.899  38.545  14.409
14328W        W86588  40.982  40.552  13.466
14329W        W86589  18.285  18.615  14.364
14330W        W86590  35.970  39.605  14.508
14331W        W86591   0.477  30.059  10.740
14332W        W86592   8.650   4.949  14.536
14333W        W86593  23.537  24.929  13.526
14334W        W86594  26.643  43.161  13.939
14335W        W86595  20.084   5.318   3.226
14336W        W86596  39.824  28.195   0.412
14337W        W86597  42.865  27.365  12.817
14338W        W86598  38.826  14.212  13.411
14339W        W86599  24.632  32.130   4.262
14340W        W86600   4.948   8.891   0.427
14341W        W86601  41.809  24.482  12.107
14342W        W86602  13.385  41.006  12.007
14343W        W86603   3.240  32.827   3.687
14344W        W86604  41.659  28.653  10.612
14345W        W86605  43.031  35.491   0.958
14346W        W86606  24.621  41.881   2.752
14347W        W86607   8.146  30.476   4.578
14348W        W86608  44.465  32.476   0.830
14349W        W86609  12.764   7.918  11.622
14350W        W86610  37.904   7.835   4.148
14351W        W86611  13.844   7.729   1.424
14352W        W86612  32.563   1.943  14.723
14353W        W86613  42.290   2.631   0.941
14354W        W86614  29.082  15.091  10.720
14355W        W86615   5.024  27.516  11.234
14356W        W86616   5.212  27.082   5.081
14357W        W86617   5.248   2.331  11.763
14358W        W86618  43.153  24.101   4.131
14359W        W86619  20.232  39.452   2.219
14360W        W86620  11.414  16.595  14.491
14361W        W86621  22.700  36.569  13.792
14362W        W86622   7.173  25.488   2.795
14363W        W86623   8.650   2.398  13.924
14364W        W86624  10.700  12.365  12.038
14365W        W86625  40.529   9.626   3.746
14366W        W86626  21.071  30.643  14.764
14367W        W86627  43.883   3.899   2.393
14368W        W86628  13.296  19.673  10.586
14369W        W86629  36.800  15.685  11.132
14370W        W86630  22.830  27.977  11.647
14371W        W86631  19.500  29.018  10.629
14372W        W86632  32.032  44.353   3.083
14373W        W86633   2.593  14.158  14.880
14374W        W86634  22.519  20.554  10.713
14375W        W86635  14.037  20.228   1.103
14376W        W86636  15.759  27.243   0.827
14377W        W86637  29.689   7.451  11.253
14378W        W86638  36.373  21.617   2.372
14379W        W86639  26.114  11.164   4.653
14380W        W86640   1.800  30.646   1.150
14381W        W86641  35.497  29.056   3.653
14382W        W86642  14.130   5.691   4.612
14383W        W86643   9.620   7.578  14.277
14384W        W86644  15.839   5.365   4.160
14385W        W86645  32.635   0.909  10.593
14386W        W86646  25.535  20.335  14.078
14387W        W86647  14.720  32.302  12.468
14388W        W86648  22.654  35.600   3.362
14389W        W86649   0.799  10.159  11.519
14390W        W86650  17.178  16.793   3.846
14391W        W86651  10.162  22.085  14.150
14392W        W86652  22.486   2.877   4.098
14393W        W86653  32.494  12.248   3.080
14394W        W86654  16.519  13.259  12.954
14395W        W86655  19.337  23.067  11.943
14396W        W86656  10.552  24.614   1.459
14397W        W86657  14.822  42.466   4.634
14398W        W86658  21.690  31.137  14.136
14399W        W86659  23.526  20.250   2.805
14400W        W86660  44.926  10.339   1.729
14401W        W86661   8.229   6.245  10.637
14402W        W86662  20.749  40.809   1.320
14403W        W86663  36.321  10.591   2.702
14404W        W86664  39.049   1.897  11.502
14405W        W86665  13.666  23.161   4.092
14406W        W86666  33.480  18.946  14.216
14407W        W86667   0.064  13.439  11.173
14408W        W86668  24.958  23.963  12.918
14409W        W86669  19.935   5.138  10.301
14410W        W86670  14.566  38.066  12.616
14411W        W86671  15.636   8.641  10.577
14412W        W86672  13.753  39.259   2.216
14413W        W86673  22.004  13.626   0.163
14414W        W86674  23.971  10.683   2.443
14415W        W86675   8.155  40.753  14.762
14416W        W86676  23.098  12.607  13.978
14417W        W86677   0.257  37.071   4.210
14418W        W86678  31.532  32.964  10.523
14419W        W86679  21.540   7.937   3.315
14420W        W86680  15.081  40.473  11.743
14421W        W86681  21.718  17.589  11.070
14422W        W86682   3.767  35.358  12.068
14423W        W86683  32.024  28.542   4.404
14424W        W86684  32.581   7.332  13.521
14425W        W86685  41.025   4.214   4.281
14426W        W86686  12.772  16.986   5.526
14427W        W86687  35.523  26.451   3.119
14428W        W86688  38.788  18.595  13.842
14429W        W86689  29.482  44.899  12.189
14430W        W86690  27.114  35.439  14.623
14431W        W86691   0.381   5.353   2.747
14432W        W86692  27.406  12.724   3.618
14433W        W86693  14.986  33.521  13.077
14434W        W86694   0.508  28.405  13.900
14435W        W86695  38.895  12.414   3.177
14436W        W86696  37.847  38.950   2.601
14437W        W86697   0.974   8.344  13.589
14438W        W86698  29.488  11.805   1.502
14439W        W86699  44.474  30.068   4.272
14440W        W86700  43.327  16.990   2.357
14441W        W86701  41.264  19.252   0.275
14442W        W86702  17.245   8.882  13.386
14443W        W86703  14.247  41.592   0.680
14444W        W86704   4.806  40.100  12.806
14445W        W86705  36.920  20.066   3.147
14446W        W86706   4.460  18.105  12.110
14447W        W86707  17.798  39.067   3.352
14448W        W86708  13.162  17.007   0.929
14449W        W86709  26.806  15.257   4.591
14450W        W86710  24.021  30.714  13.721
14451W        W86711  37.467   7.451   9.815
14452W        W86712  33.906  44.882   2.754
14453W        W86713  18.714  19.591   4.147
14454W        W86714  12.046   0.327  10.907
14455W        W86715  41.993  28.524   4.390
14456W        W86716  31.088  25.293   5.217
14457W        W86717   9.854  20.814   0.119
14458W        W86718  37.122  12.793  14.758
14459W        W86719  35.304  23.547  14.560
14460W        W86720  40.178  32.596   1.135
14461W        W86721  39.375   3.309   4.609
14462W        W86722  30.615  41.025  14.337
14463W        W86723  43.823  34.490  14.118
14464W        W86724  11.408  11.647  12.006
14465W        W86725  44.910   0.466  10.624
14466W        W86726  16.084   5.770   3.900
14467W        W86727   5.950  12.042  11.169
14468W        W86728  23.219  41.011   3.635
14469W        W86729   2.966  14.408  11.138
14470W        W86730   0.929  36.971   0.717
14471W        W86731  36.750  40.912  11.757
14472W        W86732   8.423  22.686  11.602
14473W        W86733  39.399  41.099   0.934
14474W        W86734  37.247   2.180   2.807
14475W        W86735   6.421  40.084  11.810
14476W        W86736  10.273   1.788  12.448
14477W        W86737  13.203   5.426   1.635
14478W        W86738  43.877  44.430   1.707
14479W        W86739  20.962   4.920  12.579
14480W        W86740  35.917   6.435   2.782
14481W        W86741  13.675   5.282   1.842
14482W        W86742  13.066  17.653   4.453
14483W        W86743  28.396  11.706   2.853
14484W        W86744  40.257   9.913   0.309
14485W        W86745   7.875  30.204  11.602
14486W        W86746  32.119   3.553   9.847
14487W        W86747  28.078  33.469   3.866
14488W        W86748  12.895  17.720   2.190
14489W        W86749  24.275  27.726   0.322
14490W        W86750  32.026  29.931   1.504
14491W        W86751   1.781  44.425   1.722
14492W        W86752  10.711  43.971  14.754
14493W        W86753   6.870  15.056   1.318
14494W        W86754   1.481   8.801  11.991
14495W        W86755  35.587   3.696  13.383
14496W        W86756   8.380  40.503  10.841
14497W        W86757  18.289  38.598  12.336
14498W        W86758  10.067  18.553   4.373
14499W        W86759  11.690  15.473   5.175
14500W        W86760  27.457  36.497   1.897
14501W        W86761  37.223  26.644  11.256
14502W        W86762  36.994  20.084   9.788
14503W        W86763  10.091  29.154  12.030
14504W        W86764  34.077  33.472   4.517
14505W        W86765   5.961  31.093  14.655
14506W        W86766  35.417  10.203  12.645
14507W        W86767  20.651  36.736   1.289
14508W        W86768  23.503  20.019  12.854
14509W        W86769  22.610  44.318  13.841
14510W        W86770  40.087  15.521   4.085
14511W        W86771  17.774   8.660   2.132
14512W        W86772  30.549  33.710  14.021
14513W        W86773  22.067  28.116  11.997
14514W        W86774   3.251  15.343  13.517
14515W        W86775  23.664  42.838   0.546
14516W        W86776  20.714   7.095  11.614
14517W        W86777  30.106  43.677  10.721
14518W        W86778  23.484  19.320   2.617
14519W        W86779  32.479  14.564   2.935
14520W        W86780  28.372  12.594  12.013
14521W        W86781  27.046  44.015  11.031
14522W        W86782  41.363  41.868   2.805
14523W        W86783  40.589  44.013   4.975
14524W        W86784  15.234   1.729   0.729
14525W        W86785  38.940  11.602   1.481
14526W        W86786  25.101  40.505   4.611
14527W        W86787   6.231  26.532   4.657
14528W        W86788  26.112  43.758  10.967
14529W        W86789  37.914  37.367  13.981
14530W        W86790  24.938  18.505   2.273
14531W        W86791  22.233  24.356  11.672
14532W        W86792  41.302  38.994  14.740
14533W        W86793  21.518  12.691  13.947
14534W        W86794  44.686  27.598   2.218
14535W        W86795  43.964  20.798  11.635
14536W        W86796   5.766  43.995   0.714
14537W        W86797  18.619  38.846  13.045
14538W        W86798  33.189  42.727   4.181
14539W        W86799   4.200  37.288   4.947
14540W        W86800  31.887  10.103  11.573
14541W        W86801   8.756  19.803  11.168
14542W        W86802  15.824  41.771  10.723
14543W        W86803   2.709  43.742   3.133
14544W        W86804  40.994  27.052   4.815
14545W        W86805  41.886  28.045   1.306
14546W        W86806  19.141  39.928  14.946
14547W        W86807  15.590  11.158   1.941
14548W        W86808   4.549  24.783   1.570
14549W        W86809  24.721   8.327  13.328
14550W        W86810  43.330  20.514   3.183
14551W        W86811  12.911  18.700  14.371
14552W        W86812  40.996   4.132  13.890
14553W        W86813  28.205  32.126   4.604
14554W        W86814  38.521  34.360  12.072
14555W        W86815  27.626  41.783   1.844
14556W        W86816   0.784  19.397  12.244
14557W        W86817  10.319  15.878   0.353
14558W        W86818  20.538  27.491  10.710
14559W        W86819   4.493  34.080   4.133
14560W        W86820  20.995  26.210   1.893
14561W        W86821   7.596  42.568  13.323
14562W        W86822  38.884  32.573   2.096
14563W        W86823  32.093  34.842   2.405
14564W        W86824  40.385  17.141  13.132
14565W        W86825  44.339   0.200  14.733
14566W        W86826  17.197  38.641  13.546
14567W        W86827  27.971  15.037   2.509
14568W        W86828  39.438  33.306  14.435
14569W        W86829  14.186  23.841   4.473
14570W        W86830  24.244  43.754  11.847
14571W        W86831  29.832  26.960  12.075
14572W        W86832  37.653  30.949  13.389
14573W        W86833   3.355   8.304   4.918
14574W        W86834  33.461  32.110   2.730
14575W        W86835  42.842  42.129  12.049
14576W        W86836   5.575  39.375  13.565
14577W        W86837  28.648  11.429   1.405
14578W        W86838  33.774   3.389  10.698
14579W        W86839  43.591   8.183  10.383
14580W        W86840   3.975  31.997  12.123
14581W        W86841   7.224  32.766   0.954
14582W        W86842  19.560  10.162  12.085
14583W        W86843  25.552  15.324  12.937
14584W        W86844  16.218   8.870  14.721
14585W        W86845  15.163  41.979  14.431
14586W        W86846   3.195   3.038  14.992
14587W        W86847  23.156  12.054  12.355
14588W        W86848  41.977  40.108  11.213
14589W        W86849  38.417  44.486   1.517
14590W        W86850  28.374   2.870  12.731
14591W        W86851  29.284  18.763  10.553
14592W        W86852  23.791  15.532  14.501
14593W        W86853   6.535  43.351  12.931
14594W        W86854  22.222  44.250   4.133
14595W        W86855  39.421  34.230   0.328
14596W        W86856  12.278  18.731  12.451
14597W        W86857  27.995  41.813  13.410
14598W        W86858  22.077   3.154   1.425
14599W        W86859  27.586  18.563  12.143
14600W        W86860  36.462  33.943  12.864
14601W        W86861  25.345  32.495   0.966
14602W        W86862  41.618  31.090   4.605
14603W        W86863  30.464  39.831  11.089
14604W        W86864  42.390  36.201  14.710
14605W        W86865  36.017  30.652  10.598
14606W        W86866   4.065  33.505   0.115
14607W        W86867   8.609  36.633   4.462
14608W        W86868   6.605  38.864   3.631
14609W        W86869  19.144  24.159   3.127
14610W        W86870  42.532  25.159  10.541
14611W        W86871  10.309  16.808   0.400
14612W        W86872  21.619  15.214  13.754
14613W        W86873   4.224  38.929   1.399
14614W        W86874  10.309  23.422   4.358
14615W        W86875  36.501  11.454  11.908
14616W        W86876   9.572  31.004   0.330
14617W        W86877  39.327  43.889   0.478
14618W        W86878  11.229  10.129   2.334
14619W        W86879   3.579   8.949   1.834
14620W        W86880  44.168  27.471  13.939
14621W        W86881  28.543  11.303   3.658
14622W        W86882  18.673  24.509   1.441
14623W        W86883  34.303  41.801  12.818
14624W        W86884  28.139   6.864   1.867
14625W        W86885  40.371  17.144  12.267
14626W        W86886   1.468  14.585  12.068
14627W        W86887  39.308   6.261  14.330
14628W        W86888  11.603   2.255  13.933
14629W        W86889   1.437  22.806   2.222
14630W        W86890  27.854  42.839  10.970
14631W        W86891  33.636  42.550   1.807
14632W        W86892  11.424   6.862   0.348
14633W        W86893  32.979  38.048  10.877
14634W        W86894  14.171  12.930   3.668
14635W        W86895   4.737   3.504   0.147
14636W        W86896  22.269   5.210  13.280
14637W        W86897  17.017  18.691   1.795
14638W        W86898  12.560  31.142   4.144
14639W        W86899   1.813  38.448   4.492
14640W        W86900  14.542   6.882  13.577
14641W        W86901  17.817  31.488  14.308
14642W        W86902  35.539  39.758   1.906
14643W        W86903  21.190  24.520   4.180
14644W        W86904   0.734  40.319   2.175
14645W        W86905   2.584  43.470  13.230
14646W        W86906  43.188   4.246  13.772
14647W        W86907  34.847  35.110   2.794
14648W        W86908  21.325  32.941  10.859
14649W        W86909  24.356   7.522   4.080
14650W        W86910  12.256   8.188  11.543
14651W        W86911  35.499  12.924  11.644
14652W        W86912  36.811  19.691   4.632
14653W        W86913  27.160  38.781  13.449
14654W        W86914  40.800  25.829  10.774
14655W        W86915  20.546  15.888  12.294
14656W        W86916  23.004  13.288  12.979
14657W        W86917  17.918  30.576   5.097
14658W        W86918  37.571   9.458   0.943
14659W        W86919   9.703  18.195   3.739
14660W        W86920  27.945  29.469  14.487
14661W        W86921  33.052  13.324   0.872
14662W        W86922  21.007  12.340  14.426
14663W        W86923  41.643  25.645   2.177
14664W        W86924  14.031   1.436   0.793
14665W        W86925  31.252  16.629  11.627
14666W        W86926  37.814  41.029  11.609
14667W        W86927  21.148  20.983  13.523
14668W        W86928  27.306   0.999   3.225
14669W        W86929  17.024  22.901  12.936
14670W        W86930  14.103  14.172  11.503
14671W        W86931  35.300  40.462   1.184
14672W        W86932  18.585   9.972   1.113
14673W        W86933  32.860  15.411  14.873
14674W        W86934  22.247  31.965  12.789
14675W        W86935   7.629  43.446  14.453
14676W        W86936  12.727  15.810  10.225
14677W        W86937  39.201  14.042   2.354
14678W        W86938   6.678  14.823   3.148
14679W        W86939   2.888  22.743  12.533
14680W        W86940  13.773  35.054  12.766
14681W        W86941   1.421  14.869   4.669
14682W        W86942  15.241  13.789   1.397
14683W        W86943  43.683  27.561   1.261
14684W        W86944  21.123  15.793  14.590
14685W        W86945   6.722  29.493   4.667
14686W        W86946  27.735  10.250  12.462
14687W        W86947  36.543  43.359  10.534
14688W        W86948  21.573  34.352   4.008
14689W        W86949   4.519  36.853  14.056
14690W        W86950  23.051  34.110   4.914
14691W        W86951  25.751  21.189  14.499
14692W        W86952   6.560  32.129  12.843
14693W        W86953  16.374  14.674  14.906
14694W        W86954   4.202  36.016  12.837
14695W        W86955  12.167  39.955   0.202
14696W        W86956  12.800  24.941  11.941
14697W        W86957  11.211  21.523  10.857
14698W        W86958  13.681  15.799  11.270
14699W        W86959   2.129  42.674  14.617
14700W        W86960  17.581  32.311  13.963
14701W        W86961  18.795  41.370  14.556
14702W        W86962   8.514   4.328   4.032
14703W        W86963  33.478  23.481   3.703
14704W        W86964  32.869  18.071  11.168
14705W        W86965   0.840   5.693  12.637
14706W        W86966  13.437  43.744   0.167
14707W        W86967  33.352  44.982  11.146
14708W        W86968  13.536  27.544   3.774
14709W        W86969  35.949  42.334  11.716
14710W        W86970   2.382  22.438   1.948
14711W        W86971  17.375  35.679  10.295
14712W        W86972  19.391  41.400   4.281
14713W        W86973  17.739  44.859  10.739
14714W        W86974   6.408  28.945   5.064
14715W        W86975   7.026  42.255   2.931
14716W        W86976  27.866   3.840   3.398
14717W        W86977  26.096   4.455  11.551
14718W        W86978   1.317   8.582   4.987
14719W        W86979  21.513  44.856   0.969
14720W        W86980  14.714  42.064   2.285
14721W        W86981  27.953   2.980  12.416
14722W        W86982  37.871  21.230  13.350
14723W        W86983   7.851  18.215   0.961
14724W        W86984   4.346   8.343  13.061
14725W        W86985  40.567  43.478   1.200
14726W        W86986  27.394  34.611  11.978
14727W        W86987   0.376  42.177   3.180
14728W        W86988  16.064  36.436  13.521
14729W        W86989  31.019  33.811  13.799
14730W        W86990  32.292  38.761   0.854
14731W        W86991  42.998   6.996  11.468
14732W        W86992  13.684  20.633  14.452
14733W        W86993  10.292  30.103   4.783
14734W        W86994  11.131  10.311   3.187
14735W        W86995  22.006  27.065   4.640
14736W        W86996  39.416   4.714  14.878
14737W        W86997   7.521   2.264  12.014
14738W        W86998  10.512  16.266   0.925
14739W        W86999  35.639  43.462   0.025
14740W        W87000   7.918   8.493   4.082
14741W        W87001   1.319  12.420  12.646
14742W        W87002  10.693  17.188   0.234
14743W        W87003  29.857   3.275  10.697
14744W        W87004  13.122  13.326   4.406
14745W        W87005  44.194  12.212  10.826
14746W        W87006  37.099  34.175   0.794
14747W        W87007   8.028   9.796   0.494
14748W        W87008   3.841  35.886   5.223
14749W        W87009  18.413  22.790   5.182
14750W        W87010  17.976  30.675  14.861
14751W        W87011  34.426  29.668  13.877
14752W        W87012  23.958   5.300  14.835
14753W        W87013  38.578  25.241  12.990
14754W        W87014  21.355  28.958   0.357
14755W        W87015   9.639  38.248  14.503
14756W        W87016  12.626  27.703   3.922
14757W        W87017   2.755   0.022  11.459
14758W        W87018   0.574  38.505   4.028
14759W        W87019  37.827   4.136   0.441
14760W        W87020   9.430  35.643   2.733
14761W        W87021  18.549  43.979  10.923
14762W        W87022  13.065   7.874   0.750
14763W        W87023  33.189  18.161  14.378
14764W        W87024  44.079  34.355  13.057
14765W        W87025  23.392  30.100  11.000
14766W        W87026  15.155   4.935  13.292
14767W        W87027  21.807  10.812  11.586
14768W        W87028  23.616  36.065   3.279
14769W        W87029  11.562  24.279  14.516
14770W        W87030  37.878  23.570   2.875
14771W        W87031   8.681  16.681   3.763
14772W        W87032  29.937   3.900  14.016
14773W        W87033  16.556  31.820   0.289
14774W        W87034  42.559  10.884   4.388
14775W        W87035  17.992  22.622   4.922
14776W        W87036  38.018  42.969  12.426
14777W        W87037  42.856  15.301   2.924
14778W        W87038   7.131  41.381  12.353
14779W        W87039  34.449  16.647  12.967
14780W        W87040  25.974  11.106  12.431
14781W        W87041  34.883   3.184  12.879
14782W        W87042  32.832  40.312  12.943
14783W        W87043  20.578   9.309   3.703
14784W        W87044  44.853  14.937  13.619
14785W        W87045   7.694  41.914   4.632
14786W        W87046  39.857  22.440   1.119
14787W        W87047  20.506  23.765  13.454
14788W        W87048  12.244   8.691  14.846
14789W        W87049  12.711  37.498   1.622
14790W        W87050  30.042  27.918   3.663
14791W        W87051  25.790  42.414  12.498
14792W        W87052  16.321  37.412   4.858
14793W        W87053  17.166  28.597   0.446
14794W        W87054  22.614  25.399  14.514
14795W        W87055  37.076  29.485  10.732
14796W        W87056  32.620  37.884   0.286
14797W        W87057  16.049  29.319  10.684
14798W        W87058   4.407  29.182   0.413
14799W        W87059  31.377  32.223  12.962
14800W        W87060  44.859  30.351   5.030
14801W        W87061  25.911  24.698  13.396
14802W        W87062  21.119  24.964  12.639
14803W        W87063  33.318  31.896   4.450
14804W        W87064  27.459  38.451   3.202
14805W        W87065  18.127   1.241  13.359
14806W        W87066  39.935  15.810  11.588
14807W        W87067  18.919  36.985  10.665
14808W        W87068  38.809   4.372   3.848
14809W        W87069  24.468   8.688   3.332
14810W        W87070  27.106  43.013  13.067
14811W        W87071  39.751   7.179   1.421
14812W        W87072  31.293  37.093  11.190
14813W        W87073  10.605  17.473  12.030
14814W        W87074  13.541  28.487  13.578
14815W        W87075  40.538  31.720  11.114
14816W        W87076  24.654   0.402  10.659
14817W        W87077   5.112  26.088  10.271
14818W        W87078  19.338   0.238   3.255
14819W        W87079  11.960  29.598   3.696
14820W        W87080  29.814  29.846   5.463
14821W        W87081  24.157  41.256   0.111
14822W        W87082   3.292  23.174   0.359
14823W        W87083   0.699  20.330   2.367
14824W        W87084  22.329  29.936  14.042
14825W        W87085  43.032  34.958  10.903
14826W        W87086   8.409  33.416   4.010
14827W        W87087  20.293   5.991   1.463
14828W        W87088  11.150  19.683   2.711
14829W        W87089  34.619  10.774   2.770
14830W        W87090   1.064  26.131  13.237
14831W        W87091  19.727   7.987   0.647
14832W        W87092  33.713  25.133  11.883
14833W        W87093  33.093  27.117  12.095
14834W        W87094  42.939  14.335   0.778
14835W        W87095  14.527  28.946   1.939
14836W        W87096  20.285  32.560   2.710
14837W        W87097  33.217  16.575   4.163
14838W        W87098   1.673  33.761  11.644
14839W        W87099  27.677   4.439  12.969
14840W        W87100  31.404  10.057  14.366
14841W        W87101  12.279  28.585  13.386
14842W        W87102  36.979  19.270  10.128
14843W        W87103  34.839   6.537  10.741
14844W        W87104  41.941  17.835   3.789
14845W        W87105   9.803  21.302   1.685
14846W        W87106  42.980  12.388   1.507
14847W        W87107  37.435  25.800   3.218
14848W        W87108   5.201  17.704   0.358
14849W        W87109  33.780   8.398  12.469
14850W        W87110  23.036  19.087  10.224
14851W        W87111  23.688  19.064  14.390
14852W        W87112  41.414  15.531   3.432
14853W        W87113  23.030  33.533  11.966
14854W        W87114  44.291   0.305   2.319
14855W        W87115  27.067   7.116  11.712
14856W        W87116  30.948  27.066  14.370
14857W        W87117  32.156  34.997  12.046
14858W        W87118  41.061  20.042  14.540
14859W        W87119   5.408  19.174  14.306
14860W        W87120  37.475  33.533  10.956
14861W        W87121  29.244  20.811  12.027
14862W        W87122  40.304  27.996   3.717
14863W        W87123  40.907  40.330   0.825
14864W        W87124  26.572  25.122   1.771
14865W        W87125  20.517  35.525   4.749
14866W        W87126  24.491  24.520  12.545
14867W        W87127  21.690  37.948   4.176
14868W        W87128  27.943  33.899   2.376
14869W        W87129  23.893  37.053   2.293
14870W        W87130  14.185  23.260  13.001
14871W        W87131  34.021  35.642  12.425
14872W        W87132  37.839  27.998   3.109
14873W        W87133   9.726  43.749   1.259
14874W        W87134  34.170  27.410   2.724
14875W        W87135  25.575   1.924   4.117
14876W        W87136  28.883  18.570   0.882
14877W        W87137  38.455   9.808  13.439
14878W        W87138   7.564  27.270   2.381
14879W        W87139  11.404  23.219  13.662
14880W        W87140   5.962  14.269   3.102
14881W        W87141   2.211  17.313   4.142
14882W        W87142   7.125  29.442  11.211
14883W        W87143  12.072  28.622   4.994
14884W        W87144  17.993  27.971  14.045
14885W        W87145  24.572  13.542   4.190
14886W        W87146  10.183  31.078  11.613
14887W        W87147  40.874   8.532   2.898
14888W        W87148  36.710  39.186   1.876
14889W        W87149   4.225   2.620   2.393
14890W        W87150  44.398  17.889   3.147
14891W        W87151  17.479   8.654   2.819
14892W        W87152  28.770  13.419  14.807
14893W        W87153  15.115  37.816   2.807
14894W        W87154  23.655  30.395  12.079
14895W        W87155  16.855  32.744   3.388
14896W        W87156  30.960  24.677  13.993
14897W        W87157   7.136  26.523   1.843
14898W        W87158  21.037  22.602  11.041
14899W        W87159  17.250  16.073   5.119
14900W        W87160  44.099  17.633  12.370
14901W        W87161  11.767   1.209  12.996
14902W        W87162  10.261  11.769   3.254
14903W        W87163   5.020  30.900   3.600
14904W        W87164   2.377  38.540   0.286
14905W        W87165   9.313  23.869  11.960
14906W        W87166  14.630  18.704  11.673
14907W        W87167   4.943   2.645  12.622
14908W        W87168   4.396   1.264   0.453
14909W        W87169  39.277  22.291  12.479
14910W        W87170  31.852  12.870   2.125
14911W        W87171  15.520  27.846  13.136
14912W        W87172  25.168  24.075  13.576
14913W        W87173  36.143  11.077   4.547
14914W        W87174  18.016  26.713  13.081
14915W        W87175  37.980  15.510  12.158
14916W        W87176  21.026   3.818  10.455
14917W        W87177  27.514   6.375  11.759
14918W        W87178  36.602  42.538  14.501
14919W        W87179  21.698  14.392   0.330
14920W        W87180  18.633  28.739  14.376
14921W        W87181   2.381  10.720  10.647
14922W        W87182  20.835  27.103   3.674
14923W        W87183  24.495  28.154   4.571
14924W        W87184  22.736  20.755  10.305
14925W        W87185  39.721  40.343   3.373
14926W        W87186  23.991  35.757   0.363
14927W        W87187  15.776   6.183  12.411
14928W        W87188  11.755  36.063  14.915
14929W        W87189  21.815  20.962   0.772
14930W        W87190  11.946  10.308  11.206
14931W        W87191  20.276  18.854  13.423
14932W        W87192  34.330  34.306   3.573
14933W        W87193   1.281  29.959   0.779
14934W        W87194  35.831   7.828  11.581
14935W        W87195   3.170  40.985   4.035
14936W        W87196  28.208  41.461   2.309
14937W        W87197  41.742  12.560  12.502
14938W        W87198  14.277   2.266  12.221
14939W        W87199  35.728  18.270  12.996
14940W        W87200   3.024  22.242   2.741
14941W        W87201  40.855  17.998   3.977
14942W        W87202  14.070  30.684   2.628
14943W        W87203  35.394  37.410   0.201
14944W        W87204  32.008   5.116  14.442
14945W        W87205  33.463  22.198   3.197
14946W        W87206  34.033  42.216  10.718
14947W        W87207  27.563   1.851  14.073
14948W        W87208  35.407   7.273  12.403
14949W        W87209  13.747  36.532   0.343
14950W        W87210  13.214   5.926   0.281
14951W        W87211  29.644  27.925   3.205
14952W        W87212  27.167   1.784  14.424
14953W        W87213  39.410  10.704  14.692
14954W        W87214  29.434  24.986  10.564
14955W        W87215  28.881  17.783   2.316
14956W        W87216  13.221   1.451  11.592
14957W        W87217   1.918  39.138   1.848
14958W        W87218  15.122  17.409   5.024
14959W        W87219  28.884   4.105   1.621
14960W        W87220   6.897  43.170  13.963
14961W        W87221  32.514  29.450   2.845
14962W        W87222  44.759  28.690   3.114
14963W        W87223  15.658  25.006   3.370
14964W        W87224  25.429  27.545  14.013
14965W        W87225  40.099  22.600  11.875
14966W        W87226  28.168  41.220   4.620
14967W        W87227  10.770   5.868   4.374
14968W        W87228  15.351  44.644  12.878
14969W        W87229  32.092  36.880  14.956
14970W        W87230  21.239  17.720   1.932
14971W        W87231  29.877  26.953   3.690
14972W        W87232  15.896  24.500   3.617
14973W        W87233   7.850  21.820   0.035
14974W        W87234  33.559  14.389   1.340
14975W        W87235  14.301  25.692  12.735
14976W        W87236  35.141  16.113  14.782
14977W        W87237  34.037  28.418  10.758
14978W        W87238  15.651  14.763   4.583
14979W        W87239  14.619  31.797  12.620
14980W        W87240   2.185  31.928  11.451
14981W        W87241  18.627  37.069   3.629
14982W        W87242  10.241   4.488  13.914
14983W        W87243  27.094   3.462  14.893
14984W        W87244  23.695   6.240   2.058
14985W        W87245  32.539  10.595   4.738
14986W        W87246  24.800  27.984   5.067
14987W        W87247  30.424  26.113  13.447
14988W        W87248  18.561   6.342   2.603
14989W        W87249  34.714   3.235  10.335
14990W        W87250   3.161  30.463   1.661
14991W        W87251   4.325  35.924   2.948
14992W        W87252  36.598   6.789  10.651
14993W        W87253  34.811  44.880  13.737
14994W        W87254  18.046   1.767   3.241
14995W        W87255  29.107  22.813   2.502
14996W        W87256  43.928  42.907  13.381
14997W        W87257  22.913  42.360  12.577
14998W        W87258  30.111   3.563   2.426
14999W        W87259   7.781   6.313   1.793
15000W        W87260  37.286  34.005  13.884
15001W        W87261  10.891  35.303  13.438
15002W        W87262   0.454  13.783   3.908
15003W        W87263  36.531  11.773  11.509
15004W        W87264  16.970   9.343  12.182
15005W        W87265   6.116  24.712  14.037
15006W        W87266  35.863   9.297  12.422
15007W        W87267  41.631  23.154  12.643
15008W        W87268  30.427  38.301   3.541
15009W        W87269  42.738  21.486   0.902
15010W        W87270   8.354  15.179  13.408
15011W        W87271  28.884  30.252  10.248
15012W        W87272  14.337  25.931   4.755
15013W        W87273  12.807   2.419  13.843
15014W        W87274  22.153   0.954  14.003
15015W        W87275  32.339  19.556   4.388
15016W        W87276  38.114  25.025  12.732
15017W        W87277  27.403  30.983  12.930
15018W        W87278  16.569  32.072  12.524
15019W        W87279  32.965  16.324   4.547
15020W        W87280  38.879  38.411  10.704
15021W        W87281  15.186  23.553   3.771
15022W        W87282  14.204   0.644  12.921
15023W        W87283  24.245   0.846  14.019
15024W        W87284   5.398  27.924   1.308
15025W        W87285  33.138  17.345   0.996
15026W        W87286  14.014  32.650  12.849
15027W        W87287  16.567  25.131  13.038
15028W        W87288  19.073  25.468   1.753
15029W        W87289   1.703  44.272  10.625
15030W        W87290   7.835   8.272   0.891
15031W        W87291  38.799   8.436  11.074
15032W        W87292  39.390  17.575   1.735
15033W        W87293   1.308  13.866   0.999
15034W        W87294  24.686  27.404  14.389
15035W        W87295  10.176  19.060   1.281
15036W        W87296  40.512  21.028  10.653
15037W        W87297  17.101  12.214   0.447
15038W        W87298  18.548  11.685  10.297
15039W        W87299  34.323   6.497  13.103
15040W        W87300   4.311  20.258   2.723
15041W        W87301  44.298   1.950  14.391
15042W        W87302  12.183   0.211   1.862
15043W        W87303  36.499  43.194   4.881
15044W        W87304   6.947  37.613  14.473
15045W        W87305  32.187   6.713   1.185
15046W        W87306  24.537  28.091   2.325
15047W        W87307   9.871  11.688  14.847
15048W        W87308  40.380   5.602  10.768
15049W        W87309  29.727   1.213   4.245
15050W        W87310  10.928   1.301  14.518
15051W        W87311  43.549  16.704  10.698
15052W        W87312  10.890   3.726  12.435
15053W        W87313  27.000  29.158   1.416
15054W        W87314  37.772  44.550   4.677
15055W        W87315   1.411  14.590  13.112
15056W        W87316  23.572  40.870   4.602
15057W        W87317  18.819   5.869  12.201
15058W        W87318  18.743  22.249   1.459
15059W        W87319  21.651  22.591  10.322
15060W        W87320  44.753  29.645  13.147
15061W        W87321  17.538  16.657   2.576
15062W        W87322  26.442  11.328  12.474
15063W        W87323   6.790  11.724   2.663
15064W        W87324  27.096  11.574   4.902
15065W        W87325  23.824  23.831   2.803
15066W        W87326  32.334  32.289   0.238
15067W        W87327  31.155  19.941   1.139
15068W        W87328  16.794  12.325  10.564
15069W        W87329  40.312  41.413   0.832
15070W        W87330   5.476  37.394  12.567
15071W        W87331   0.414  35.511  13.768
15072W        W87332  42.451  36.531  12.593
15073W        W87333   1.163  38.794   0.787
15074W        W87334  36.572  33.095  14.287
15075W        W87335  22.674   3.331   2.121
15076W        W87336  22.434  34.939  10.524
15077W        W87337  27.696  12.686  10.444
15078W        W87338  33.936  30.006   1.293
15079W        W87339  15.799   3.969   0.875
15080W        W87340  43.000  31.582   2.653
15081W        W87341  20.769  32.889  12.846
15082W        W87342  26.405  15.833  12.454
15083W        W87343  20.698  27.618  13.778
15084W        W87344  21.049  43.992  13.102
15085W        W87345  23.616  38.192  14.641
15086W        W87346   8.682  26.218   4.999
15087W        W87347  25.029  25.973   2.822
15088W        W87348   4.685   3.944  13.957
15089W        W87349  11.591  15.672  12.013
15090W        W87350  27.606  10.908   0.888
15091W        W87351  34.497  12.617   2.775
15092W        W87352  30.695  14.240  11.945
15093W        W87353  39.432   0.514  10.592
15094W        W87354  29.959  29.912   3.861
15095W        W87355   6.819  12.493  12.976
15096W        W87356  19.519  12.783  12.623
15097W        W87357  24.469   2.262   3.730
15098W        W87358  10.870  36.125  11.804
15099W        W87359  32.861  15.862   1.948
15100W        W87360  18.500   5.127   4.605
15101W        W87361   4.797   0.353   3.954
15102W        W87362  34.788  31.953   1.807
15103W        W87363  37.772  28.098   0.796
15104W        W87364  35.814   4.974   4.140
15105W        W87365   6.135  13.511  11.914
15106W        W87366  13.930  35.378  11.985
15107W        W87367  30.201   9.806   1.915
15108W        W87368  21.562  27.463  13.119
15109W        W87369  40.173   9.855   4.941
15110W        W87370   1.770  22.751   1.744
15111W        W87371  19.796  24.642  13.545
15112W        W87372  11.123  34.875   1.696
15113W        W87373  11.149  24.928  11.105
15114W        W87374  31.142   4.689   0.922
15115W        W87375  28.855  33.107  12.154
15116W        W87376  28.653   3.903   4.809
15117W        W87377  10.272  40.731   3.213
15118W        W87378  44.715  16.312  12.063
15119W        W87379   2.412  24.721  11.330
15120W        W87380  22.484  35.600  10.977
15121W        W87381   2.347  20.639   2.446
15122W        W87382  14.093  21.169   2.757
15123W        W87383  17.323  19.553   4.000
15124W        W87384  26.413  21.033   0.251
15125W        W87385  32.796   5.938  13.642
15126W        W87386  14.593  30.604  14.862
15127W        W87387  36.403  30.819   4.212
15128W        W87388   6.963  35.576  13.053
15129W        W87389  22.729  31.724   2.235
15130W        W87390   3.913  21.680  11.623
15131W        W87391   8.351  14.531  12.819
15132W        W87392  25.743  42.904   2.980
15133W        W87393  39.090  35.641   1.469
15134W        W87394  24.488   7.194  13.087
15135W        W87395  29.681   1.705  12.943
15136W        W87396  17.667  12.673   2.312
15137W        W87397  18.846  18.156   0.231
15138W        W87398  34.774  17.281  12.533
15139W        W87399  27.762  12.930   2.642
15140W        W87400   4.221  35.997  10.709
15141W        W87401   0.962  22.235   1.913
15142W        W87402   0.015   8.124  14.967
15143W        W87403  15.730  12.313  12.961
15144W        W87404   1.818  10.165  13.258
15145W        W87405  30.108  17.896  11.416
15146W        W87406  37.786  20.942   1.211
15147W        W87407  41.869  31.261  11.840
15148W        W87408  21.721   9.360  14.380
15149W        W87409  16.955  10.648   3.752
15150W        W87410  19.182  26.714  12.566
15151W        W87411  22.524  15.499  10.206
15152W        W87412  39.153  10.185   0.630
15153W        W87413  17.694   1.379  12.504
15154W        W87414  41.047   0.876   3.822
15155W        W87415  30.173  25.955  11.589
15156W        W87416   7.208  17.995   4.148
15157W        W87417  31.411  34.941   3.621
15158W        W87418  15.882   0.875  13.353
15159W        W87419  35.873  11.654  14.303
15160W        W87420  12.048  16.279  13.883
15161W        W87421   9.300  28.060   4.874
15162W        W87422   7.837  27.751  12.862
15163W        W87423  18.536  24.646   0.451
15164W        W87424   6.479  34.058  12.400
15165W        W87425   5.018   7.204  14.619
15166W        W87426   8.828  42.289   4.816
15167W        W87427   7.052  18.555   1.027
15168W        W87428  29.333  11.913  11.057
15169W        W87429   7.845  10.307   2.793
15170W        W87430  31.080   4.121   0.959
15171W        W87431  32.461   1.247   3.302
15172W        W87432   9.248  15.665  11.400
15173W        W87433  30.589  27.419   2.191
15174W        W87434   2.233  25.591  13.408
15175W        W87435  25.525  11.412  10.325
15176W        W87436   0.338   3.970  13.486
15177W        W87437   7.324  40.535   2.276
15178W        W87438  35.548  25.739  13.473
15179W        W87439   3.316  22.206  12.882
15180W        W87440  24.021  12.731   3.669
15181W        W87441   9.369   4.847   3.810
15182W        W87442  36.935  26.062   3.282
15183W        W87443  14.643   2.780   3.277
15184W        W87444  13.910  20.009   4.873
15185W        W87445  31.521  26.493  10.424
15186W        W87446  40.529  34.843  14.972
15187W        W87447   0.694  10.716  13.338
15188W        W87448  32.599  27.123  11.900
15189W        W87449  39.946  34.474   2.668
15190W        W87450  42.425   2.968   4.197
15191W        W87451   7.957   7.432   2.197
15192W        W87452  20.497  11.345  12.509
15193W        W87453  33.450  12.058   3.704
15194W        W87454  23.104  27.553  10.285
15195W        W87455  35.574  44.247  10.562
15196W        W87456  33.892  11.967  12.465
15197W        W87457  33.869   5.710  12.598
15198W        W87458  25.811   6.411  11.361
15199W        W87459   3.683  30.972   4.161
15200W        W87460  22.475   9.826   2.677
15201W        W87461  15.518   4.824   2.765
15202W        W87462  28.704   2.764  12.313
15203W        W87463  14.103  18.642  11.922
15204W        W87464   6.808  25.263   0.342
15205W        W87465  23.040  22.180  13.870
15206W        W87466   0.816  37.916  14.827
15207W        W87467  23.862   5.685   1.093
15208W        W87468  15.771   8.154  10.466
15209W        W87469  14.774  34.112   1.769
15210W        W87470   9.766   3.085  12.590
15211W        W87471  29.143  31.430   3.218
15212W        W87472  41.715  20.780  14.001
15213W        W87473  43.025  38.120   2.330
15214W        W87474  43.507  13.300  12.418
15215W        W87475  34.068   8.084  12.129
15216W        W87476  32.934   2.388  14.630
15217W        W87477  39.524   0.424  12.371
15218W        W87478  33.605  10.309  10.718
15219W        W87479   9.222   6.665  14.906
15220W        W87480  34.086   8.719   4.130
15221W        W87481  33.872  31.553  12.823
15222W        W87482  33.644   9.780  13.968
15223W        W87483   3.381  12.014   4.953
15224W        W87484   1.776  17.012   5.151
15225W        W87485  43.648   3.517  14.955
15226W        W87486  29.983  28.506  11.005
15227W        W87487   7.728  12.099  14.730
15228W        W87488   2.209  18.057  10.657
15229W        W87489  41.142   2.517   0.556
15230W        W87490  18.532  18.611   1.451
15231W        W87491  10.336   9.125  10.071
15232W        W87492  39.497  20.971  13.421
15233W        W87493  41.826  25.635  13.985
15234W        W87494  30.527  16.862  13.099
15235W        W87495  42.434   6.457  11.042
15236W        W87496   1.324  27.942   3.240
15237W        W87497  39.138  10.357  10.533
15238W        W87498  16.788  40.073  13.348
15239W        W87499   0.299  21.536  13.073
15240W        W87500  24.961  40.112  12.571
15241W        W87501  28.908  29.857   9.708
15242W        W87502  34.355  31.660  14.913
15243W        W87503  41.318   6.438   4.642
15244W        W87504  44.016  21.028  10.258
15245W        W87505  35.461   4.984  10.965
15246W        W87506  33.402  39.075   0.942
15247W        W87507  22.491  34.472   2.265
15248W        W87508  19.560   3.999   3.091
15249W        W87509  28.278  40.873  14.103
15250W        W87510  41.755  42.840  10.110
15251W        W87511  23.480  10.736  13.874
15252W        W87512  15.622   3.808  11.157
15253W        W87513  40.599  12.650   0.542
15254W        W87514  30.099   9.874  12.908
15255W        W87515  34.298  33.864  11.436
15256W        W87516  35.414  12.596  13.439
15257W        W87517   8.139  10.677  10.731
15258W        W87518  22.641  31.190  11.173
15259W        W87519  28.890   2.349  14.659
15260W        W87520  14.110  21.776  14.214
15261W        W87521  44.346   4.008  13.841
15262W        W87522  39.001   8.404  14.406
15263W        W87523  36.847  42.950   2.345
15264W        W87524  29.473  29.919   2.272
15265W        W87525  20.762  28.744  12.460
15266W        W87526  24.259  17.139   2.336
15267W        W87527  36.036  35.045  14.896
15268W        W87528   9.432  37.885  12.851
15269W        W87529   7.358  13.164  10.630
15270W        W87530  34.606  17.437  13.059
15271W        W87531  33.563  34.494   3.164
15272W        W87532  23.071  40.410   1.280
15273W        W87533  30.820  19.595   4.743
15274W        W87534   0.094  13.105   3.262
15275W        W87535  43.982  27.480   2.628
15276W        W87536  11.726   3.767  12.955
15277W        W87537  13.311   8.838   1.722
15278W        W87538  10.133  31.060  12.582
15279W        W87539  20.000  14.859   4.328
15280W        W87540   6.998  20.105  13.521
15281W        W87541  41.027  33.670  11.426
15282W        W87542   1.391  28.926  12.615
15283W        W87543  31.357   0.141  14.879
15284W        W87544  34.157  42.751   0.741
15285W        W87545  17.121  31.507  13.808
15286W        W87546  32.484   3.463  10.420
15287W        W87547  29.612  32.623  14.286
15288W        W87548  37.297  22.195   3.131
15289W        W87549  10.672  33.591  13.885
15290W        W87550  12.220   5.408  11.927
15291W        W87551  19.093  36.667  12.254
15292W        W87552  42.830  27.185   1.282
15293W        W87553  33.633  40.889   3.826
15294W        W87554   1.133   7.668  14.294
15295W        W87555   4.667   3.445   2.602
15296W        W87556  32.689  22.502   2.183
15297W        W87557  29.140  27.991   4.828
15298W        W87558  12.150  13.744  13.387
15299W        W87559   3.662   4.848   0.278
15300W        W87560  19.626  10.180   1.132
15301W        W87561  10.621  37.546   3.352
15302W        W87562   2.218   4.495   2.252
15303W        W87563  25.392  38.065   0.014
15304W        W87564  44.537  31.274  10.267
15305W        W87565  31.092  32.001   4.084
15306W        W87566  37.323  12.042  11.126
15307W        W87567   6.484   3.098   1.249
15308W        W87568  44.719  34.092   1.271
15309W        W87569   1.674  44.820   2.080
15310W        W87570   1.873  22.013  10.577
15311W        W87571  20.510   7.056  10.305
15312W        W87572  34.161   9.259   0.417
15313W        W87573   7.114  23.771  12.059
15314W        W87574  29.195  13.875  12.481
15315W        W87575  42.909  27.388  11.060
15316W        W87576  11.116  35.533   4.245
15317W        W87577  34.906  39.415  13.378
15318W        W87578  24.558  43.240  11.114
15319W        W87579  28.810   8.429   2.990
15320W        W87580  16.330  32.991   0.725
15321W        W87581  36.282   8.454  11.188
15322W        W87582   3.769   9.640  11.971
15323W        W87583  43.654   7.818   1.097
15324W        W87584   2.677  17.135  14.596
15325W        W87585  32.629  38.066  12.058
15326W        W87586  18.217   3.255   3.157
15327W        W87587  44.894  43.799  13.021
15328W        W87588  35.807  42.862   4.580
15329W        W87589  18.981  29.024  14.908
15330W        W87590  21.562  17.294  11.660
15331W        W87591  15.203  31.639  10.990
15332W        W87592   2.229  43.728  14.345
15333W        W87593  38.494  11.836  13.764
15334W        W87594  44.256  17.388   0.911
15335W        W87595  12.164  35.662   4.863
15336W        W87596  35.390  10.394   2.276
15337W        W87597   5.725  10.076  12.858
15338W        W87598  28.898  33.812   2.120
15339W        W87599   8.002  44.892  11.622
15340W        W87600   3.457  40.498  11.604
15341W        W87601  43.660   4.302   2.601
15342W        W87602  12.025  28.374   1.873
15343W        W87603  44.836   6.641  14.881
15344W        W87604  21.162  28.188   2.851
15345W        W87605  28.412  44.282  10.200
15346W        W87606  20.663  22.397  14.367
15347W        W87607  40.109  23.753  14.111
15348W        W87608   0.019  20.263  13.051
15349W        W87609   9.546   6.793  10.307
15350W        W87610  13.695  23.981   3.023
15351W        W87611  23.743   7.653   1.513
15352W        W87612  18.068  34.029  14.127
15353W        W87613  39.741  28.994   2.349
15354W        W87614  18.533  39.017  12.565
15355W        W87615   0.541  24.658  12.617
15356W        W87616  41.931  38.491   2.727
15357W        W87617  36.264  37.378   9.657
15358W        W87618  20.959  43.803  12.118
15359W        W87619  29.976  39.053  12.138
15360W        W87620  19.236   6.319   2.006
15361W        W87621  41.092  22.127   0.829
15362W        W87622  23.968  14.026  14.854
15363W        W87623  31.037  42.762  12.073
15364W        W87624  44.335  22.632   1.376
15365W        W87625  37.847  19.044  14.057
15366W        W87626  42.792  18.527   0.945
15367W        W87627  42.106  24.596  11.288
15368W        W87628  17.056  30.580  12.467
15369W        W87629  22.558  41.547  14.872
15370W        W87630  13.233  23.743   1.701
15371W        W87631   7.743  41.902   3.648
15372W        W87632  17.617   1.682   3.542
15373W        W87633  22.589  19.660   4.555
15374W        W87634  18.775  32.135   4.857
15375W        W87635  18.317  13.219  14.293
15376W        W87636  19.189  28.665   0.815
15377W        W87637  19.258   6.755   1.725
15378W        W87638  36.390  23.171   0.665
15379W        W87639  28.803  16.217   2.237
15380W        W87640  36.402  22.987   4.624
15381W        W87641  23.201  17.893   2.628
15382W        W87642  10.269  13.278   2.084
15383W        W87643   0.440  15.557  13.037
15384W        W87644  37.147  35.597  14.612
15385W        W87645  29.060  13.837  14.893
15386W        W87646  39.409  26.685  11.872
15387W        W87647  10.389  17.964  14.845
15388W        W87648  28.634  30.905   3.584
15389W        W87649   7.922  38.616   2.825
15390W        W87650  39.382   1.209   4.262
15391W        W87651   6.945  11.128   0.544
15392W        W87652  25.520  11.847  14.209
15393W        W87653  13.395  28.510  11.608
15394W        W87654   1.338   4.244   4.484
15395W        W87655  20.778   7.078   2.947
15396W        W87656  43.939  14.666  13.370
15397W        W87657   3.136  23.480   2.271
15398W        W87658  32.628  41.642   4.510
15399W        W87659  15.693   9.161   1.677
15400W        W87660  14.042  16.714  12.653
15401W        W87661  31.158  27.562   4.562
15402W        W87662  41.547  35.358   2.941
15403W        W87663  43.148  32.095  13.866
15404W        W87664  15.241  22.339   1.005
15405W        W87665   9.916  27.190   1.312
15406W        W87666   2.475  40.878  11.173
15407W        W87667  17.178  20.049  13.378
15408W        W87668  24.140  27.384   1.276
15409W        W87669  23.966  37.302  10.230
15410W        W87670  44.199  37.065   2.395
15411W        W87671  29.063  38.099   4.519
15412W        W87672  13.435  32.959  11.470
15413W        W87673  26.456   1.547   3.244
15414W        W87674  42.315  32.915  10.644
15415W        W87675  14.861  36.081  13.783
15416W        W87676  10.823  25.713   2.240
15417W        W87677  31.507  21.694   2.766
15418W        W87678  15.894  44.288  10.617
15419W        W87679  25.022   5.318   4.287
15420W        W87680  18.674  19.620   3.607
15421W        W87681  11.145  34.828  10.888
15422W        W87682  36.619  33.119   0.263
15423W        W87683  12.922  33.697  13.027
15424W        W87684  12.939  24.932  13.511
15425W        W87685  16.118  17.791  14.173
15426W        W87686   1.279   1.434   2.277
15427W        W87687   7.193  35.565   2.264
15428W        W87688   1.471  12.773  13.498
15429W        W87689  30.957  33.744  10.352
15430W        W87690  10.706  13.126  11.156
15431W        W87691   1.939  20.572   0.836
15432W        W87692  13.752  29.694   2.408
15433W        W87693  10.063   3.868   0.849
15434W        W87694  39.566  14.258  13.778
15435W        W87695  34.207  41.471   3.410
15436W        W87696  31.622   5.720   3.231
15437W        W87697  28.071  36.267  13.810
15438W        W87698  29.696  29.532  14.343
15439W        W87699  22.051  35.356  11.156
15440W        W87700  26.117  17.229   1.711
15441W        W87701   2.739  10.283   0.532
15442W        W87702  22.524  38.490  14.562
15443W        W87703   2.630  23.559   2.303
15444W        W87704   8.328   8.089  10.683
15445W        W87705   2.414  18.666  14.941
15446W        W87706  22.634  20.792   3.747
15447W        W87707  10.653  32.500  13.879
15448W        W87708   0.345  11.109  11.607
15449W        W87709  24.552  36.782  14.901
15450W        W87710  21.248  21.682   0.385
15451W        W87711   0.388  19.948   2.222
15452W        W87712  17.920  24.792  10.782
15453W        W87713  42.866  35.511   4.242
15454W        W87714  30.783  32.211  13.908
15455W        W87715   4.309  42.095   0.023
15456W        W87716   4.357  30.720  10.969
15457W        W87717  23.743   9.336   2.168
15458W        W87718  27.200  31.707  12.009
15459W        W87719  33.369  25.444  10.148
15460W        W87720   8.786  44.762  10.669
15461W        W87721  26.976   4.349  11.665
15462W        W87722  25.720  25.131  14.858
15463W        W87723   4.706  37.747  14.545
15464W        W87724  32.089  43.646   0.164
15465W        W87725  34.299  18.115   1.115
15466W        W87726  12.893  33.748  11.333
15467W        W87727  36.667  35.630  13.786
15468W        W87728  35.063  18.555   1.703
15469W        W87729   2.414  12.456   2.774
15470W        W87730   3.324   8.320  12.086
15471W        W87731  10.353   4.654   4.109
15472W        W87732  28.872  32.898  13.168
15473W        W87733  33.255  33.996   4.574
15474W        W87734  34.558   5.516  13.980
15475W        W87735  16.736  17.258   1.380
15476W        W87736  44.392  10.081  11.265
15477W        W87737  20.037  33.812   1.990
15478W        W87738  31.708  27.117  11.103
15479W        W87739  32.138  23.152   1.759
15480W        W87740   3.395  15.742  14.414
15481W        W87741  28.564   2.279   3.797
15482W        W87742  31.819  36.253   2.353
15483W        W87743  22.506   9.911   3.776
15484W        W87744   9.692  18.349   2.706
15485W        W87745  33.019   4.888  13.604
15486W        W87746  19.909  33.678   0.268
15487W        W87747  35.854   3.704  13.844
15488W        W87748  30.511  37.326  14.374
15489W        W87749  39.603  20.670   4.823
15490W        W87750  26.377   1.691   0.431
15491W        W87751  17.466  37.392   0.180
15492W        W87752  37.573  10.761  14.611
15493W        W87753  43.903  35.951   4.627
15494W        W87754  31.007  22.719   1.478
15495W        W87755   3.454  34.816  12.496
15496W        W87756  42.004  32.641  13.464
15497W        W87757  22.303  34.686   1.818
15498W        W87758  15.295  33.638   1.196
15499W        W87759   9.886  32.094   3.860
15500W        W87760  17.241   3.652   2.483
15501W        W87761  10.274  34.585  13.862
15502W        W87762   2.425   7.381   0.789
15503W        W87763  27.461  24.143   3.217
15504W        W87764  10.706  44.260   3.351
15505W        W87765  43.960  35.503   4.342
15506W        W87766   8.755  27.059   4.587
15507W        W87767  29.027   6.902  13.738
15508W        W87768  19.689  31.850  11.983
15509W        W87769  18.327  33.635   3.215
15510W        W87770  38.835   5.990   3.430
15511W        W87771  36.886   9.642  13.879
15512W        W87772  19.042  41.881   3.744
15513W        W87773   7.827   7.213  13.915
15514W        W87774  15.139  15.196  10.648
15515W        W87775  42.228  20.528  13.830
15516W        W87776  35.537  15.268  10.865
15517W        W87777   2.892  15.740   0.531
15518W        W87778  31.453  24.515  13.887
15519W        W87779  43.452  34.379  13.447
15520W        W87780  39.843  44.938  11.948
15521W        W87781  39.548  15.039  10.740
15522W        W87782  14.293   9.348  11.693
15523W        W87783  27.100  29.561   4.659
15524W        W87784  14.178  14.346   3.341
15525W        W87785  42.769  16.197  12.368
15526W        W87786  29.841  40.057   0.715
15527W        W87787  24.439  42.401  12.775
15528W        W87788  12.148  41.802   4.334
15529W        W87789   6.783  29.020  12.842
15530W        W87790  40.672  14.635   3.197
15531W        W87791  23.618   8.115  14.475
15532W        W87792  28.541  14.859   1.641
15533W        W87793  11.054  36.547   4.131
15534W        W87794  29.414  30.263   1.014
15535W        W87795   6.958  18.294  11.529
15536W        W87796  22.218  33.145  14.787
15537W        W87797  39.357  37.562  11.524
15538W        W87798  19.369  28.333   2.253
15539W        W87799   6.287  20.448  14.674
15540W        W87800  33.368   2.371   1.011
15541W        W87801  18.361   9.134  11.193
15542W        W87802  31.589  29.411  10.626
15543W        W87803   2.358  22.348   3.952
15544W        W87804  27.582  18.550  10.663
15545W        W87805  36.289   4.797   4.888
15546W        W87806  20.014   6.941  14.361
15547W        W87807   7.177  18.377   3.231
15548W        W87808   4.833  11.582  13.127
15549W        W87809  24.483  23.080   3.708
15550W        W87810  23.533   5.041  11.505
15551W        W87811  14.392   0.218   2.140
15552W        W87812   4.688  15.792  10.501
15553W        W87813  42.892   2.929  13.885
15554W        W87814  32.185  43.202   4.338
15555W        W87815  28.172  18.964   2.621
15556W        W87816  33.591  18.024   3.335
15557W        W87817  24.085  40.682  13.155
15558W        W87818   9.418  42.528  13.555
15559W        W87819  25.635  28.312  10.395
15560W        W87820  10.888  35.517  11.999
15561W        W87821  18.990  34.889  12.083
15562W        W87822  29.048  12.179  12.434
15563W        W87823  10.622   2.740   2.867
15564W        W87824  43.429  41.088   1.081
15565W        W87825  33.813  17.835  12.852
15566W        W87826  10.685   3.638   2.763
15567W        W87827  35.517  12.257   0.465
15568W        W87828  32.007  35.955   4.251
15569W        W87829  38.528   7.820   4.865
15570W        W87830  18.600  16.065  13.490
15571W        W87831  38.524  15.722   0.862
15572W        W87832   1.773  43.087   4.515
15573W        W87833  43.924  29.637   2.132
15574W        W87834   7.180  26.974   2.196
15575W        W87835  28.092  28.183   4.903
15576W        W87836   0.517  22.258  11.951
15577W        W87837  14.351   0.519   4.307
15578W        W87838   3.722  15.138  13.615
15579W        W87839  15.028   9.878  12.433
15580W        W87840  15.877   9.709  10.959
15581W        W87841  38.365  27.277   2.811
15582W        W87842  37.347  15.232  12.989
15583W        W87843  43.342   5.902  11.071
15584W        W87844  41.541   8.687  12.455
15585W        W87845   5.593  14.847   1.770
15586W        W87846   5.701  29.554  14.447
15587W        W87847   3.413  17.168   3.783
15588W        W87848  31.423  38.340  13.358
15589W        W87849  27.905  40.002  10.556
15590W        W87850  27.171   3.882   4.531
15591W        W87851  12.267   7.863  11.943
15592W        W87852  14.545  35.449   3.691
15593W        W87853  15.326  19.617   3.066
15594W        W87854  25.976   2.157   3.893
15595W        W87855  26.211   9.336  11.247
15596W        W87856  41.034  41.762   3.176
15597W        W87857   1.486  15.351   1.966
15598W        W87858  37.205   3.789   1.717
15599W        W87859   8.133  35.327   1.867
15600W        W87860  32.784  42.671   0.834
15601W        W87861  43.476   4.429   3.973
15602W        W87862  26.326  28.325   3.320
15603W        W87863  12.192   8.196  12.525
15604W        W87864   7.433  40.087  14.413
15605W        W87865  16.823  19.590  10.728
15606W        W87866  42.315  40.345  13.844
15607W        W87867  30.357  23.182   1.136
15608W        W87868  36.562  34.659  11.588
15609W        W87869  13.651  31.874   3.527
15610W        W87870  34.484  39.033   2.846
15611W        W87871  41.493  33.953   3.302
15612W        W87872  20.531  34.172   3.998
15613W        W87873  18.779  20.835  12.389
15614W        W87874  13.767  12.647   0.469
15615W        W87875  16.349  15.895  11.702
15616W        W87876  26.535  30.402   1.382
15617W        W87877  21.303  41.217   1.838
15618W        W87878  32.997  17.894  11.634
15619W        W87879   2.305  41.346   4.837
15620W        W87880   9.732  41.971   0.855
15621W        W87881  12.869   6.677   2.658
15622W        W87882  39.378  43.886   1.499
15623W        W87883  10.939  42.510  14.371
15624W        W87884  25.582   6.841   2.816
15625W        W87885  42.399  37.492   1.227
15626W        W87886  17.096  41.676   2.545
15627W        W87887  11.039  11.752   4.450
15628W        W87888  13.252  29.150  12.120
15629W        W87889   9.237  24.537   1.721
15630W        W87890  20.218  16.254  10.370
15631W        W87891  43.733  10.368  11.818
15632W        W87892  20.206  30.042   2.169
15633W        W87893  26.005  37.366  14.731
15634W        W87894  12.568   6.970  14.328
15635W        W87895  44.844  12.799  14.331
15636W        W87896  21.076   1.406  14.809
15637W        W87897  37.136  27.121   2.272
15638W        W87898  15.243  36.619  12.930
15639W        W87899  17.972   7.643   4.938
15640W        W87900  44.308   8.810  10.088
15641W        W87901  34.022  10.363  13.379
15642W        W87902  26.016  36.109   0.915
15643W        W87903   2.932  21.393  14.217
15644W        W87904   3.546  30.053  10.764
15645W        W87905  29.014  32.399   4.308
15646W        W87906  19.517  34.010   3.208
15647W        W87907  12.277  18.049  10.698
15648W        W87908  25.053  24.682   3.237
15649W        W87909  39.572  18.334  13.954
15650W        W87910  16.808  33.367  11.672
15651W        W87911  29.379  20.633   2.632
15652W        W87912  21.324  36.021  12.951
15653W        W87913   1.819   7.411   2.938
15654W        W87914  21.497   7.916  14.771
15655W        W87915   0.826   9.984  14.406
15656W        W87916  42.245  35.001  14.528
15657W        W87917  21.776   2.380  14.252
15658W        W87918  27.683  27.416  10.950
15659W        W87919  28.429   9.134   4.116
15660W        W87920  40.780  28.477   1.657
15661W        W87921  21.551  19.352   1.639
15662W        W87922  37.815  29.366   3.216
15663W        W87923   4.466  12.121   2.518
15664W        W87924  22.610  21.160  12.080
15665W        W87925   9.232  36.451  11.991
15666W        W87926  17.766  21.151   1.516
15667W        W87927   0.215  11.679   3.409
15668W        W87928  33.481   9.281  13.924
15669W        W87929  41.445   7.880  10.724
15670W        W87930   6.642  21.067  13.514
15671W        W87931  22.663  24.621  11.586
15672W        W87932   1.253   6.241   3.833
15673W        W87933  39.862  35.866   4.437
15674W        W87934   2.229  12.254  11.701
15675W        W87935  39.885  25.703  12.033
15676W        W87936  37.395  21.966  12.592
15677W        W87937  28.968  27.678   4.450
15678W        W87938   8.911  41.833  14.453
15679W        W87939   6.518  28.679   0.430
15680W        W87940  31.434   2.412  13.942
15681W        W87941   1.969   0.488  12.561
15682W        W87942  19.479  36.313  11.451
15683W        W87943  13.418  18.656  14.326
15684W        W87944  11.470  30.035   0.822
15685W        W87945  13.194  16.596   0.183
15686W        W87946  10.663  13.224  13.709
15687W        W87947   8.496  28.503  11.533
15688W        W87948  44.619  31.130   3.284
15689W        W87949  23.157  14.191  11.636
15690W        W87950  22.157  41.191  11.987
15691W        W87951  28.048  37.627   4.137
15692W        W87952  31.985  22.641   1.663
15693W        W87953  13.195   6.361   3.381
15694W        W87954  27.391  39.577   1.329
15695W        W87955   9.920   9.562   0.293
15696W        W87956  24.083   8.393  13.990
15697W        W87957  44.504   5.857  12.972
15698W        W87958   4.454  43.941   3.436
15699W        W87959  33.577  11.438  14.051
15700W        W87960  37.358   0.797   1.165
15701W        W87961  36.032  40.030   4.319
15702W        W87962  40.797  24.434  14.527
15703W        W87963  12.397  44.535  12.477
15704W        W87964  36.892  22.102  11.410
15705W        W87965  44.938  44.384  10.301
15706W        W87966   9.386  42.995  11.675
15707W        W87967  42.479  23.728   0.423
15708W        W87968  27.393  28.133  14.493
15709W        W87969  36.158  38.795  13.435
15710W        W87970  40.699  19.552   2.849
15711W        W87971   3.531   5.326  11.616
15712W        W87972  30.145  15.903  13.264
15713W        W87973  11.344  15.698  10.965
15714W        W87974  27.272  24.693  11.088
15715W        W87975  29.696  36.028   0.242
15716W        W87976   2.210  27.833   3.193
15717W        W87977  14.226  20.575   1.450
15718W        W87978  44.757   3.164   3.610
15719W        W87979  32.121   6.608  13.508
15720W        W87980   4.315  35.924  14.278
15721W        W87981   7.850  18.181  10.270
15722W        W87982  32.615  36.963   2.779
15723W        W87983  32.164  39.472   1.660
15724W        W87984   8.777   6.265  14.808
15725W        W87985   5.881  12.227   2.212
15726W        W87986  21.849  24.679   2.388
15727W        W87987  29.704  27.744   0.230
15728W        W87988  43.126  20.629   0.237
15729W        W87989  24.144  23.705   2.404
15730W        W87990  35.593  43.041   0.848
15731W        W87991  18.726  12.889   0.439
15732W        W87992  20.782  26.121   3.624
15733W        W87993  30.735   1.887   0.569
15734W        W87994  29.145  14.225  14.228
15735W        W87995  13.769  30.408   3.839
15736W        W87996  17.459  44.029  13.454
15737W        W87997   2.717  22.022  11.227
15738W        W87998  42.404  36.791   1.841
15739W        W87999  39.241   0.563  14.295
15740W        W88000  10.475  10.192  10.034
15741W        W88001  44.393   5.640   1.523
15742W        W88002  23.859  32.411  13.347
15743W        W88003   4.827  20.934  13.055
15744W        W88004  39.376  33.075   0.280
15745W        W88005   0.449   3.009  14.813
15746W        W88006   9.614   8.388  13.048
15747W        W88007   6.690  40.426  11.425
15748W        W88008  18.262   1.717  11.430
15749W        W88009   1.173   5.851   1.754
15750W        W88010  25.725  12.736   1.927
15751W        W88011  12.217  20.574  12.160
15752W        W88012  16.607  44.141  13.420
15753W        W88013  21.620  39.025   0.459
15754W        W88014  24.711  35.330   1.352
15755W        W88015  37.916  20.021   2.772
15756W        W88016   7.944   1.888  11.176
15757W        W88017  33.142  39.081   2.265
15758W        W88018  32.539   2.220   4.229
15759W        W88019  11.960  13.765   1.503
15760W        W88020  35.133  44.591   0.219
15761W        W88021  26.605  34.953   0.785
15762W        W88022  44.111   3.833  10.313
15763W        W88023  39.255  27.125  11.601
15764W        W88024  36.515  26.568   4.617
15765W        W88025  31.045  23.585   4.524
15766W        W88026  43.962  44.823   1.359
15767W        W88027  42.566  44.021   3.745
15768W        W88028  16.852  35.842   2.334
15769W        W88029  38.251  24.927   1.917
15770W        W88030  29.803   8.355   1.383
15771W        W88031  39.880  19.731   0.045
15772W        W88032  29.037  32.385  13.855
15773W        W88033  44.545  14.672   1.175
15774W        W88034  41.280  16.652   1.424
15775W        W88035  28.428  28.169  12.638
15776W        W88036  27.979   9.289  10.347
15777W        W88037   1.797  24.692   1.215
15778W        W88038   1.811  26.462   2.738
15779W        W88039  26.982  20.159   5.037
15780W        W88040  17.696  23.765   3.665
15781W        W88041  19.219  29.690  14.227
15782W        W88042  27.353  37.214   0.938
15783W        W88043  43.051  41.213  13.874
15784W        W88044  10.565  11.873   4.638
15785W        W88045  19.044  22.681  11.012
15786W        W88046  25.189  42.654  11.639
15787W        W88047  35.121   0.949   3.369
15788W        W88048  28.150  41.888   4.079
15789W        W88049   5.896   5.526  10.617
15790W        W88050  41.128  13.071  10.664
15791W        W88051  32.245  35.999   4.710
15792W        W88052   2.675  38.984   1.170
15793W        W88053  34.512  44.495  12.432
15794W        W88054  38.363  16.851  12.858
15795W        W88055  24.550  27.024   0.619
15796W        W88056  41.457  16.105  12.872
15797W        W88057  30.928  10.201   3.260
15798W        W88058  17.121  12.171   3.872
15799W        W88059  18.238  39.554  11.678
15800W        W88060  28.589  37.230   2.182
15801W        W88061   3.900  17.072  14.902
15802W        W88062   2.673  15.235  14.271
15803W        W88063  37.875   6.731   0.628
15804W        W88064   6.947  11.091  11.224
15805W        W88065  25.680  44.045   4.701
15806W        W88066  20.482   0.762   0.919
15807W        W88067  43.119  17.420  13.973
15808W        W88068  30.080  23.799   2.341
15809W        W88069  20.209  19.168   5.108
15810W        W88070  27.955  27.992   0.764
15811W        W88071  19.084  10.901  10.869
15812W        W88072  25.415  23.922  13.148
15813W        W88073  26.213  13.774   3.725
15814W        W88074  22.608  10.219   2.322
15815W        W88075  40.318  20.992   3.212
15816W        W88076  32.814   4.346  12.361
15817W        W88077  19.683  19.757   4.549
15818W        W88078   0.703  29.062  13.902
15819W        W88079  28.454  42.960  13.149
15820W        W88080   4.552  22.774  11.921
15821W        W88081  26.938  13.353   3.145
15822W        W88082   9.306  20.474   3.082
15823W        W88083  35.060  14.693  14.224
15824W        W88084  26.774  42.773   4.432
15825W        W88085   9.813  29.135  10.668
15826W        W88086   0.796  31.166  11.402
15827W        W88087  10.455  35.019  14.110
15828W        W88088  44.443  10.549   1.902
15829W        W88089  26.877  17.020  11.193
15830W        W88090  40.425  39.500   1.812
15831W        W88091   7.880  21.727  14.127
15832W        W88092  42.372  34.026  14.285
15833W        W88093   4.559  22.947   4.168
15834W        W88094  10.964  14.546   4.575
15835W        W88095  25.975  35.073   2.876
15836W        W88096  11.788  17.503   4.729
15837W        W88097  28.631  17.101  12.957
15838W        W88098  12.653   2.963  14.570
15839W        W88099  35.747  22.732  13.080
15840W        W88100  30.232  34.353  10.795
15841W        W88101  42.286  30.468  10.945
15842W        W88102  25.322  39.842  13.806
15843W        W88103  22.614   8.182  13.994
15844W        W88104  10.046  34.428   4.284
15845W        W88105  32.612  11.125   2.579
15846W        W88106   3.721  15.149   0.069
15847W        W88107  32.679  14.822  12.488
15848W        W88108   6.678   1.326  11.382
15849W        W88109  38.058  14.793  13.321
15850W        W88110  35.561  44.867  12.028
15851W        W88111  20.728  37.592  13.093
15852W        W88112  31.622  31.777   0.781
15853W        W88113  13.322   3.717  13.879
15854W        W88114  23.044  41.031   3.115
15855W        W88115   7.323   1.260   3.357
15856W        W88116  27.619  18.066   4.552
15857W        W88117  24.863  23.467   4.585
15858W        W88118  26.163  13.319  12.851
15859W        W88119  11.104  27.915   1.862
15860W        W88120  10.313   7.467   2.244
15861W        W88121  27.860  11.795  14.395
15862W        W88122  37.693  20.582   3.510
15863W        W88123   4.826  18.624   1.895
15864W        W88124   6.402  38.127   1.277
15865W        W88125  20.019  19.937   5.475
15866W        W88126  28.403  28.721   1.244
15867W        W88127   5.833   6.900  13.480
15868W        W88128   7.786  11.754  14.274
15869W        W88129  12.405  19.516  13.983
15870W        W88130  26.701  30.629   3.085
15871W        W88131  21.890  41.603  11.875
15872W        W88132  31.786  39.247  12.473
15873W        W88133  29.084  27.538   0.992
15874W        W88134  32.627  29.870   4.190
15875W        W88135  27.650  20.104  14.541
15876W        W88136  33.328  18.326   1.128
15877W        W88137  30.092   5.754   0.279
15878W        W88138  29.659  21.438   0.977
15879W        W88139  42.520  27.722   1.797
15880W        W88140  43.998  31.132  13.294
15881W        W88141  38.991  29.354   0.509
15882W        W88142  29.677  31.989   1.319
15883W        W88143  43.993  15.262   0.318
15884W        W88144  23.578  22.775   3.572
15885W        W88145  36.787  12.115  11.178
15886W        W88146  41.983  10.311   3.423
15887W        W88147  42.860  13.088  12.047
15888W        W88148  20.852  34.218   4.429
15889W        W88149   8.322   0.237  13.621
15890W        W88150  36.009  19.632   5.107
15891W        W88151  15.356  30.222  14.429
15892W        W88152   5.861   7.885   0.711
15893W        W88153   2.040   7.718   0.857
15894W        W88154   6.186   6.406  12.351
15895W        W88155  34.858  10.424  14.917
15896W        W88156  25.917  23.629   0.531
15897W        W88157  41.645   3.334   4.660
15898W        W88158  13.214  42.464  10.939
15899W        W88159   8.836  12.538  11.148
15900W        W88160  20.064   6.282   0.373
15901W        W88161   8.342  33.900   3.882
15902W        W88162  34.980  34.863   1.230
15903W        W88163  15.220  11.876  14.416
15904W        W88164  12.825  29.718  13.827
15905W        W88165   9.145  17.572  10.695
15906W        W88166   8.602  41.053  10.324
15907W        W88167  20.092   8.821  12.862
15908W        W88168  19.139  28.590   4.062
15909W        W88169  40.254   0.824  13.903
15910W        W88170  13.777  21.731  11.484
15911W        W88171  24.199   2.276  12.097
15912W        W88172  25.327   9.239   4.407
15913W        W88173  36.297  11.902  13.395
15914W        W88174  22.778  37.854   3.635
15915W        W88175  29.063  39.531  12.173
15916W        W88176  37.879  15.530   1.649
15917W        W88177  21.325   4.720  12.273
15918W        W88178   7.658   3.104   4.684
15919W        W88179  43.570   8.248   0.821
15920W        W88180   0.593  31.644  11.303
15921W        W88181  11.989  24.781   1.789
15922W        W88182  32.935  39.317   2.707
15923W        W88183  21.181  30.083  12.506
15924W        W88184  26.291   3.742  12.453
15925W        W88185   8.178  40.581  10.373
15926W        W88186  33.382  13.203  14.374
15927W        W88187   2.453   4.741  11.136
15928W        W88188  20.497  17.668  13.708
15929W        W88189  35.841   9.774   3.262
15930W        W88190   2.875   2.982   1.705
15931W        W88191  22.138  33.456  13.338
15932W        W88192  12.711  25.110   3.725
15933W        W88193  36.093   0.917  10.995
15934W        W88194  39.510  20.519  13.159
15935W        W88195   7.571  13.668  11.508
15936W        W88196   3.814  39.069  13.089
15937W        W88197  43.798  36.824   4.635
15938W        W88198  20.071  34.698   4.587
15939W        W88199   0.256  31.843  13.876
15940W        W88200  27.095   5.859   2.658
15941W        W88201  12.088  33.610   1.949
15942W        W88202  37.013  30.375   3.658
15943W        W88203  27.598  33.848  11.002
15944W        W88204   0.272  33.168  14.498
15945W        W88205  42.280  33.162   2.745
15946W        W88206  12.802  41.809   1.667
15947W        W88207   4.526   9.865  11.549
15948W        W88208  33.330   5.550  12.474
15949W        W88209  44.803  21.218  12.710
15950W        W88210  13.772  10.826  13.785
15951W        W88211  38.305  23.712  11.073
15952W        W88212   2.687   9.255  10.740
15953W        W88213  37.447  10.331  13.825
15954W        W88214  24.098  29.403   2.958
15955W        W88215  17.855   3.257  14.334
15956W        W88216  33.571  25.710   2.021
15957W        W88217   5.834  32.990   1.348
15958W        W88218  19.157   0.053  10.746
15959W        W88219  11.877  24.746   2.296
15960W        W88220  14.783  16.381  13.883
15961W        W88221  11.281   9.546   0.496
15962W        W88222  31.088  28.088   4.657
15963W        W88223  26.031  37.312   2.125
15964W        W88224  36.613  24.451  11.524
15965W        W88225  32.998  28.247  11.466
15966W        W88226  43.973  31.627  10.969
15967W        W88227  21.141  31.909  14.355
15968W        W88228  19.470  32.526   0.031
15969W        W88229  29.961  12.402   4.150
15970W        W88230  35.399  31.312  12.355
15971W        W88231  10.748  25.658   3.157
15972W        W88232  15.174  33.588  12.010
15973W        W88233   6.934   1.539   0.247
15974W        W88234  42.967  13.035   0.919
15975W        W88235  13.237  44.535  13.023
15976W        W88236  42.671  27.644  11.473
15977W        W88237  40.800   9.224   0.934
15978W        W88238  44.380  25.421  13.994
15979W        W88239  37.331   1.946   1.017
15980W        W88240  33.944  28.699   4.201
15981W        W88241  17.253   0.216  12.358
15982W        W88242   3.878  36.589   3.185
15983W        W88243   5.794  41.537   2.818
15984W        W88244   7.787  35.372   1.482
15985W        W88245  36.860  44.300   2.724
15986W        W88246  13.126   8.677  12.505
15987W        W88247  13.802   8.710   2.302
15988W        W88248  21.380  26.448   0.656
15989W        W88249  15.398  14.519  11.082
15990W        W88250  34.985  15.837  13.427
15991W        W88251   6.079  24.114  14.496
15992W        W88252  24.984   9.626   0.715
15993W        W88253  11.089  43.225   0.883
15994W        W88254  11.304  24.785  12.420
15995W        W88255  41.498   0.276   1.903
15996W        W88256  29.099  40.392  11.590
15997W        W88257  41.580  17.406  11.863
15998W        W88258  22.207   6.866   0.184
15999W        W88259  23.411  13.262   4.051
16000W        W88260  24.720  16.464  13.212
16001W        W88261   1.429  44.508  14.362
16002W        W88262  42.242  16.352   0.183
16003W        W88263   9.850  18.286  10.710
16004W        W88264   8.635  11.240  11.728
16005W        W88265  12.197  36.824   4.647
16006W        W88266  19.821  29.578  12.517
16007W        W88267   7.890   1.994   3.797
16008W        W88268   3.812  14.800   3.891
16009W        W88269   2.780  11.324   0.338
16010W        W88270  34.927  35.567  14.536
16011W        W88271   2.384  25.062  12.060
16012W        W88272  23.965  24.641  11.602
16013W        W88273  35.015  32.541   2.633
16014W        W88274  10.577  12.585   2.877
16015W        W88275  43.798  21.341   4.093
16016W        W88276  23.520  20.146  10.723
16017W        W88277  16.277  24.255  12.016
16018W        W88278   3.500   6.777   4.357
16019W        W88279  43.672  26.191   3.790
16020W        W88280  12.892  39.081  11.502
16021W        W88281  18.499  41.589  11.199
16022W        W88282   4.232   2.280   0.444
16023W        W88283   7.036   2.919   0.430
16024W        W88284  35.440   1.699  13.555
16025W        W88285  35.280  37.107   0.814
16026W        W88286  30.462  19.293  11.959
16027W        W88287  26.560  20.217  13.954
16028W        W88288   5.258   9.136  13.583
16029W        W88289   8.452  26.670   3.975
16030W        W88290  26.669  28.029   2.425
16031W        W88291  21.265  41.766  14.670
16032W        W88292   7.982  35.323  10.929
16033W        W88293  28.070  32.304  10.840
16034W        W88294  27.095  21.995  13.873
16035W        W88295  42.352  44.902  12.595
16036W        W88296  10.219  44.280   5.119
16037W        W88297  16.235  17.975  12.333
16038W        W88298   9.239  17.539  11.608
16039W        W88299  10.908  43.943  13.449
16040W        W88300  29.041  30.146   3.522
16041W        W88301  40.361   1.365   4.357
16042W        W88302  33.496  38.378  14.986
16043W        W88303   9.179  23.190   2.428
16044W        W88304   1.965  33.425  12.534
16045W        W88305  10.270   6.607   1.728
16046W        W88306  21.114  15.184   3.250
16047W        W88307  40.971  14.320  11.878
16048W        W88308  34.901  33.888  13.806
16049W        W88309   9.692  37.004  12.332
16050W        W88310   4.283  11.583   0.471
16051W        W88311  12.113  41.583  11.974
16052W        W88312  29.978  32.992  11.003
16053W        W88313  11.584   7.591   0.931
16054W        W88314   9.284  30.606   2.908
16055W        W88315  44.536  30.534  14.771
16056W        W88316  26.117  28.931  12.025
16057W        W88317  35.475  33.156  13.389
16058W        W88318  21.638  19.439   0.395
16059W        W88319  20.100  20.631   1.381
16060W        W88320  35.186  39.000   4.115
16061W        W88321  17.059  32.123  11.095
16062W        W88322  29.194   9.329   0.688
16063W        W88323   1.253  36.768  14.481
16064W        W88324  22.159  24.143   4.086
16065W        W88325  10.824  12.588   3.722
16066W        W88326   9.205  31.723  12.058
16067W        W88327  34.484   8.626  11.201
16068W        W88328  35.280   3.840   4.733
16069W        W88329  28.436  36.636   3.033
16070W        W88330  28.176  13.599  12.611
16071W        W88331  15.566  16.290  11.453
16072W        W88332  32.375   8.290   2.759
16073W        W88333  34.472  15.152  10.632
16074W        W88334  16.643  34.557  14.449
16075W        W88335  16.078  33.930   4.601
16076W        W88336  32.107  10.189  12.982
16077W        W88337   6.194  20.010   3.157
16078W        W88338  29.980  44.892  11.995
16079W        W88339  29.470  34.938   0.604
16080W        W88340  21.215  27.219   2.730
16081W        W88341  17.140  34.296   0.309
16082W        W88342  12.445  41.083   1.787
16083W        W88343   9.980  13.409  14.948
16084W        W88344   2.051  15.830  13.085
16085W        W88345  24.570  27.865  10.500
16086W        W88346  13.567  32.005   4.578
16087W        W88347  28.633  37.153   4.587
16088W        W88348  26.801  28.109   4.192
16089W        W88349  25.738  24.273   3.647
16090W        W88350  38.430  31.342  10.614
16091W        W88351  23.532  20.822   2.024
16092W        W88352   6.452  25.152   3.743
16093W        W88353  20.985  10.349   0.474
16094W        W88354  32.427  12.355  12.600
16095W        W88355  17.732   4.317   2.314
16096W        W88356   5.311  35.351  14.981
16097W        W88357  16.203   4.457   0.296
16098W        W88358  36.597  29.436   2.623
16099W        W88359  10.587  39.004  13.723
16100W        W88360  27.586  44.815   0.392
16101W        W88361   6.708  32.162  11.194
16102W        W88362  21.052  12.766   1.748
16103W        W88363   4.256   1.516   1.809
16104W        W88364  25.123  43.925  14.030
16105W        W88365  39.304  14.635   2.703
16106W        W88366   3.677  37.583   3.651
16107W        W88367  15.551  41.965  11.114
16108W        W88368  21.259   1.723   0.184
16109W        W88369  23.292  11.880  13.639
16110W        W88370   9.048  15.698  14.913
16111W        W88371  14.363  37.754  13.059
16112W        W88372   4.646  37.927   2.351
16113W        W88373   7.259  41.817  12.034
16114W        W88374  27.585  14.155   3.664
16115W        W88375  23.231  35.521   0.773
16116W        W88376  18.025  26.945   1.693
16117W        W88377  25.388  18.867  13.005
16118W        W88378   9.970  30.023  13.083
16119W        W88379  27.996  39.091  14.005
16120W        W88380  15.672  10.193  13.488
16121W        W88381  21.199  43.828  14.027
16122W        W88382   1.799   5.160  12.455
16123W        W88383  30.729  29.551  10.936
16124W        W88384  38.560  21.998  13.259
16125W        W88385  43.745  35.975   3.007
16126W        W88386  11.334  33.086   1.796
16127W        W88387   4.282  23.538   0.374
16128W        W88388   9.863  34.400  10.609
16129W        W88389  43.787  11.157  13.833
16130W        W88390  10.153  13.309   1.078
16131W        W88391   4.221  23.011  11.120
16132W        W88392  35.917  28.583  12.993
16133W        W88393  10.277   0.927  10.689
16134W        W88394  29.260  30.643  12.989
16135W        W88395  19.537  16.211   3.690
16136W        W88396   3.920  16.221   1.271
16137W        W88397  26.122  43.511  13.050
16138W        W88398  27.223  27.103   2.899
16139W        W88399  42.246  11.214   3.251
16140W        W88400  42.388  35.746   1.667
16141W        W88401  37.126   8.946  13.410
16142W        W88402   7.706  36.136  14.946
16143W        W88403  39.068  36.533   0.341
16144W        W88404  34.985  32.975   1.906
16145W        W88405   9.841   3.882  13.120
16146W        W88406  43.444   5.617  10.657
16147W        W88407  42.358   2.419  11.845
16148W        W88408  17.592  25.590   3.969
16149W        W88409  35.760  31.416  12.700
16150W        W88410  39.582  24.025   3.075
16151W        W88411  42.837   0.973  13.347
16152W        W88412   1.002  16.390   3.901
16153W        W88413   5.249  24.780   1.003
16154W        W88414  43.387  42.370   0.452
16155W        W88415  30.643   3.199  13.081
16156W        W88416   8.203  27.335   9.862
16157W        W88417  15.035  19.634   2.652
16158W        W88418  31.548  25.280   3.818
16159W        W88419  33.849  18.804   2.988
16160W        W88420   5.394   0.435   2.674
16161W        W88421   7.752  17.141   1.947
16162W        W88422  40.106   7.556   1.302
16163W        W88423   5.160  34.913  14.757
16164W        W88424  38.493  25.469  13.465
16165W        W88425  31.041  24.714   2.713
16166W        W88426   2.151  44.249   1.367
16167W        W88427  12.211   3.207  14.541
16168W        W88428  10.866  36.691   4.948
16169W        W88429  14.007  18.223  14.832
16170W        W88430  28.764   6.554   3.227
16171W        W88431  36.038  12.603   0.652
16172W        W88432  43.191  18.627  13.456
16173W        W88433   5.919  13.168   2.371
16174W        W88434   1.376  38.763   1.262
16175W        W88435  14.343  35.860  13.421
16176W        W88436   9.441  12.102  12.449
16177W        W88437  17.993  28.617   2.637
16178W        W88438  15.717  28.058  14.675
16179W        W88439   9.902  10.827   4.067
16180W        W88440  16.009  21.597  14.488
16181W        W88441  25.749   7.099   4.179
16182W        W88442  24.160  35.894  11.336
16183W        W88443   4.390  27.682   0.784
16184W        W88444  16.355   3.500  12.396
16185W        W88445  17.045  15.591  12.892
16186W        W88446  20.142  30.108   0.745
16187W        W88447  29.953  35.520   2.776
16188W        W88448  28.325  34.544  12.032
16189W        W88449  43.898   2.722  11.346
16190W        W88450   3.437  40.249  13.014
16191W        W88451   9.759  38.967  11.479
16192W        W88452  15.553  16.553   2.375
16193W        W88453   0.752  15.585  11.435
16194W        W88454  36.066  13.536   0.829
16195W        W88455  28.004   0.812   1.443
16196W        W88456  26.033   2.239   0.385
16197W        W88457  21.190  26.347   5.388
16198W        W88458  38.007   7.184  11.065
16199W        W88459  23.754  29.844  13.709
16200W        W88460  37.581  16.065   0.800
16201W        W88461   1.024  14.347  10.972
16202W        W88462  12.156  12.860  10.470
16203W        W88463  15.169  17.345   3.845
16204W        W88464  44.279  19.581  12.106
16205W        W88465  29.580  28.259   4.116
16206W        W88466   7.666   1.746  11.907
16207W        W88467  20.692  13.256   4.112
16208W        W88468  11.192  25.079   4.963
16209W        W88469  21.946  36.711  13.400
16210W        W88470  40.843  33.431   2.278
16211W        W88471  12.301  12.284  14.869
16212W        W88472   4.472   6.666   0.287
16213W        W88473  26.462   1.708  11.893
16214W        W88474  31.676  24.661  12.421
16215W        W88475   6.487  34.140   2.789
16216W        W88476   8.990  16.141  14.167
16217W        W88477  15.661  16.611  11.867
16218W        W88478  19.532   3.992  13.017
16219W        W88479   5.351  29.199  13.827
16220W        W88480  42.297   6.967   1.384
16221W        W88481  15.883   2.567   0.870
16222W        W88482  23.919  20.592   1.765
16223W        W88483  43.900  27.209   4.072
16224W        W88484  27.993  26.932  11.406
16225W        W88485  25.106  41.428   4.817
16226W        W88486  38.949  33.434   2.252
16227W        W88487   2.462  26.572  13.435
16228W        W88488   0.812  27.170   1.656
16229W        W88489   2.821   0.681  12.452
16230W        W88490  24.635  16.258  11.430
16231W        W88491  41.855  43.551  13.926
16232W        W88492  44.538  24.285  13.240
16233W        W88493   2.785  31.138   4.575
16234W        W88494  29.165   0.165  14.909
16235W        W88495  35.522  41.593   3.249
16236W        W88496  18.479  35.433   0.926
16237W        W88497  18.146  26.223  10.354
16238W        W88498   1.643  40.528   4.715
16239W        W88499   5.141  41.031  13.289
16240W        W88500  15.379  20.784  13.518
16241W        W88501  41.521   6.157   0.456
16242W        W88502  35.601   4.950   1.160
16243W        W88503  10.800  12.871  13.358
16244W        W88504  38.909  39.598  14.723
16245W        W88505   3.132  23.670  13.497
16246W        W88506   3.866  25.879  12.053
16247W        W88507  18.103   1.005  10.640
16248W        W88508  28.572   8.111  11.437
16249W        W88509  29.582  33.026  12.420
16250W        W88510  11.486  33.099  11.963
16251W        W88511   2.620  44.665   4.250
16252W        W88512  27.661  20.736   4.092
16253W        W88513   2.992  42.498  10.726
16254W        W88514  43.802  10.527  10.961
16255W        W88515  24.407  16.648   2.249
16256W        W88516  37.760  13.517  12.637
16257W        W88517  34.125  16.034   2.288
16258W        W88518  25.818   5.779  12.020
16259W        W88519  12.743  30.193  14.810
16260W        W88520  15.202  25.854   2.700
16261W        W88521  34.314   9.239   2.884
16262W        W88522   3.114  16.586   0.383
16263W        W88523  18.585  37.111   1.941
16264W        W88524  13.272   6.668  10.981
16265W        W88525   8.312   6.368   1.692
16266W        W88526  36.312  11.331  14.403
16267W        W88527  18.975  20.366   1.211
16268W        W88528  20.175  23.194   3.781
16269W        W88529  41.891  30.654   2.663
16270W        W88530  10.204  20.694   3.662
16271W        W88531  20.396   4.341   4.897
16272W        W88532  30.693  12.485   3.668
16273W        W88533  41.574  36.805   3.367
16274W        W88534  34.466  14.259   2.688
16275W        W88535  40.425  16.510   1.912
16276W        W88536  18.288  27.390   1.703
16277W        W88537  15.098  10.448   1.149
16278W        W88538   8.111  35.033  11.322
16279W        W88539   4.906   1.738  10.611
16280W        W88540  35.008  17.885  10.808
16281W        W88541  12.804  13.903  12.386
16282W        W88542  16.799  10.060   0.732
16283W        W88543  15.965  17.333   5.061
16284W        W88544  41.563  15.199  14.314
16285W        W88545  11.361  23.014   3.586
16286W        W88546  18.708  28.136   5.169
16287W        W88547  44.130  27.157  12.803
16288W        W88548  16.142  39.169  12.496
16289W        W88549  27.732   1.728  12.167
16290W        W88550  11.756  20.211  11.020
16291W        W88551  11.187  16.383   1.902
16292W        W88552  29.666  27.769  11.754
16293W        W88553  23.508  11.705  14.924
16294W        W88554   2.509  19.032  11.913
16295W        W88555  27.387   1.353  13.083
16296W        W88556  27.082  15.113   2.774
16297W        W88557  43.849  32.827  12.394
16298W        W88558   9.706   8.682   3.858
16299W        W88559  42.180  32.206  14.945
16300W        W88560  18.766   5.881  10.255
16301W        W88561  31.134  40.217   1.320
16302W        W88562   3.805  18.658   0.407
16303W        W88563  39.310  18.172  14.398
16304W        W88564  18.046   8.142   5.002
16305W        W88565   3.351  21.498   4.808
16306W        W88566  13.207  31.476  13.740
16307W        W88567  36.317  13.185   0.051
16308W        W88568   2.192  31.465  13.052
16309W        W88569  22.539  11.696   1.202
16310W        W88570  27.078   5.675  11.627
16311W        W88571   9.473  14.622   2.759
16312W        W88572  40.750  38.753  13.758
16313W        W88573  21.244  37.081  13.872
16314W        W88574  35.521  33.359   2.610
16315W        W88575  21.767  22.939  13.180
16316W        W88576   8.267  14.146  14.472
16317W        W88577  28.579  43.988  13.779
16318W        W88578  35.109  35.279   1.903
16319W        W88579  28.764   1.481   0.305
16320W        W88580  38.858   0.921  10.670
16321W        W88581  39.086  20.718   4.760
16322W        W88582  42.072  13.303   1.728
16323W        W88583   8.672  44.618  13.947
16324W        W88584  19.597  22.137  11.893
16325W        W88585  32.421  16.765  12.679
16326W        W88586  21.634  15.033  14.770
16327W        W88587   3.261  23.547  11.978
16328W        W88588  35.619   3.892  12.516
16329W        W88589  32.762  13.636  11.502
16330W        W88590   5.335  43.840   0.964
16331W        W88591  22.048  27.557  14.228
16332W        W88592  11.407  44.370   2.772
16333W        W88593  11.412  14.106   2.296
16334W        W88594  36.195  10.141   4.198
16335W        W88595  25.539  15.216  12.026
16336W        W88596  10.776  17.307   2.915
16337W        W88597  11.715  41.262   1.258
16338W        W88598  21.232   3.279   1.915
16339W        W88599  22.816  38.887   1.914
16340W        W88600  27.311   5.877  12.973
16341W        W88601  34.466  17.317  13.840
16342W        W88602   6.838  27.832  12.900
16343W        W88603   4.948  28.951  10.734
16344W        W88604   8.170  23.198   3.597
16345W        W88605  15.173  33.963  12.653
16346W        W88606   5.972  39.392   4.346
16347W        W88607  39.770  18.841  13.982
16348W        W88608  32.323   6.209  11.602
16349W        W88609  38.958   1.805   4.066
16350W        W88610  26.927  26.159   4.586
16351W        W88611  10.562  36.929   2.116
16352W        W88612  44.003  36.416  11.499
16353W        W88613  43.117   9.902  12.009
16354W        W88614  13.729  19.606   4.600
16355W        W88615  11.707  16.259  14.793
16356W        W88616  16.754   8.637  13.333
16357W        W88617  28.295   4.869   1.722
16358W        W88618  36.650  26.658  11.484
16359W        W88619   6.372  12.336  11.130
16360W        W88620  28.889   0.342   2.263
16361W        W88621   6.328   7.523  12.057
16362W        W88622  11.868   5.288   1.883
16363W        W88623  26.720  32.904  13.470
16364W        W88624  26.568  12.776   4.639
16365W        W88625   4.810  17.454   2.784
16366W        W88626  43.422  42.762   2.365
16367W        W88627   4.158   2.320   3.202
16368W        W88628  31.345  22.628   3.809
16369W        W88629  26.019  12.291   1.439
16370W        W88630  35.453  28.016  12.904
16371W        W88631   2.248   8.144   2.081
16372W        W88632   8.722  27.284   4.118
16373W        W88633  25.704  42.991  11.191
16374W        W88634  39.061  42.499  11.504
16375W        W88635  35.327  33.447   3.128
16376W        W88636  20.627  17.269   2.474
16377W        W88637  16.725  25.590   3.179
16378W        W88638  39.794  40.274  12.080
16379W        W88639  40.896  28.086  13.190
16380W        W88640   2.518  35.402   1.676
16381W        W88641   0.204  39.898   2.641
16382W        W88642   8.191  10.355  13.390
16383W        W88643  27.481  37.325   4.073
16384W        W88644  43.847  28.498  12.345
16385W        W88645  44.800   8.943  10.622
16386W        W88646   9.447  42.046  13.389
16387W        W88647  36.887  24.731   2.573
16388W        W88648  43.627  30.047   4.069
16389W        W88649  11.226  36.229  13.595
16390W        W88650  37.372   1.880  14.615
16391W        W88651  24.755  14.481   1.879
16392W        W88652  44.500   2.643  12.493
16393W        W88653  31.073  10.251  13.223
16394W        W88654  26.137  32.545   1.715
16395W        W88655  31.360  39.821  13.053
16396W        W88656   7.791   5.643   2.284
16397W        W88657  22.544  21.527   3.083
16398W        W88658  42.034  28.586   2.487
16399W        W88659  35.461  30.433  14.408
16400W        W88660   4.801  34.894   4.970
16401W        W88661  15.601  42.268  10.705
16402W        W88662  29.680   5.905   2.301
16403W        W88663   0.960  26.431  12.525
16404W        W88664   5.300  23.928   3.597
16405W        W88665  34.923  23.319  13.327
16406W        W88666  13.722  30.602   3.343
16407W        W88667  14.307  35.776   4.020
16408W        W88668  21.787  13.392  11.176
16409W        W88669   8.608  35.305  14.478
16410W        W88670  42.180   2.560  10.574
16411W        W88671  27.369  19.235  14.367
16412W        W88672  29.374   3.829  13.150
16413W        W88673  19.074  21.565   4.506
16414W        W88674   5.832   7.609   1.755
16415W        W88675   8.239  20.616  10.752
16416W        W88676   3.754   9.744   0.985
16417W        W88677  20.106  27.093   4.110
16418W        W88678  13.505  33.514  13.307
16419W        W88679   7.209  38.884   1.256
16420W        W88680  10.000  33.722   0.628
16421W        W88681   4.419   0.314  14.405
16422W        W88682  10.845  39.857  11.560
16423W        W88683  33.449  10.929   1.801
16424W        W88684   2.317   3.888   4.369
16425W        W88685  44.330  18.466  13.102
16426W        W88686  22.736  19.526  12.644
16427W        W88687  24.579   6.573  11.910
16428W        W88688   7.957  39.309   1.369
16429W        W88689  43.817  38.436  13.487
16430W        W88690  32.426  28.252  12.696
16431W        W88691  37.079  23.467   4.110
16432W        W88692  43.993  20.901   0.762
16433W        W88693  39.111  30.806  12.564
16434W        W88694  39.528  29.050  14.996
16435W        W88695  13.951   7.206  12.766
16436W        W88696  37.740  42.859  13.983
16437W        W88697  35.903  25.726   4.694
16438W        W88698   4.274  42.104  10.951
16439W        W88699  10.880   2.896  12.459
16440W        W88700  34.550  38.299   1.359
16441W        W88701  21.965  15.150   1.419
16442W        W88702  21.495  39.842   4.643
16443W        W88703  11.882  25.659   0.816
16444W        W88704   7.764  22.401  12.860
16445W        W88705  25.957  40.289   0.376
16446W        W88706   6.467  22.255  12.052
16447W        W88707  31.534   3.286   4.141
16448W        W88708  22.768  41.217  11.190
16449W        W88709  44.703  21.592   4.916
16450W        W88710   1.197  28.483   1.811
16451W        W88711  13.321  13.121  10.592
16452W        W88712  14.812  37.804   3.245
16453W        W88713   7.406   9.823   0.517
16454W        W88714  30.678  27.253   3.737
16455W        W88715  15.451  40.680  14.890
16456W        W88716  38.174   2.279   1.872
16457W        W88717  33.453  10.192  12.563
16458W        W88718  32.021   3.786   4.442
16459W        W88719  32.595   7.414   0.806
16460W        W88720   6.922  22.283   3.399
16461W        W88721  42.146  16.258  11.455
16462W        W88722   8.297  44.932  10.709
16463W        W88723   4.404   8.168  14.939
16464W        W88724  39.884  43.756   0.469
16465W        W88725  12.706  33.466  14.406
16466W        W88726  29.430  44.166  12.736
16467W        W88727  15.352  16.084   2.415
16468W        W88728  17.526  32.421   1.281
16469W        W88729  18.162   3.543  10.683
16470W        W88730  15.408  33.129  13.102
16471W        W88731  16.657   7.887  10.264
16472W        W88732   0.867  32.077  11.430
16473W        W88733  40.760   4.423   1.923
16474W        W88734  23.145  18.045   1.327
16475W        W88735  42.992  34.460  13.219
16476W        W88736   1.364  33.317   0.850
16477W        W88737  14.840  11.652   2.480
16478W        W88738   4.230   1.954   3.977
16479W        W88739  18.185  12.394  14.951
16480W        W88740  13.828  29.597   3.326
16481W        W88741  21.906  21.652  13.571
16482W        W88742  11.652  26.214   4.119
16483W        W88743   5.303  40.920   3.261
16484W        W88744  27.047   6.389   2.604
16485W        W88745  15.748  24.866  13.332
16486W        W88746  36.983  15.565   1.295
16487W        W88747  33.107  14.130   1.289
16488W        W88748  29.295  33.190  11.409
16489W        W88749   7.391  29.285  14.196
16490W        W88750   8.808   3.364   4.844
16491W        W88751  42.735   6.861  10.622
16492W        W88752  34.161   9.275   3.936
16493W        W88753  18.503   5.845  13.357
16494W        W88754  15.538  36.905   2.812
16495W        W88755   5.487   8.276   3.655
16496W        W88756  14.978  12.324  14.431
16497W        W88757  43.500  29.292   2.896
16498W        W88758   9.626  18.811   1.771
16499W        W88759  36.435  28.940   2.697
16500W        W88760  26.346  14.756   3.785
16501W        W88761  31.026  14.729  13.755
16502W        W88762  15.199  28.672  13.584
16503W        W88763  41.922  16.265  10.743
16504W        W88764  34.392  12.137   1.980
16505W        W88765  10.164  21.022   4.238
16506W        W88766   4.287  11.588   3.614
16507W        W88767  40.713   2.459   4.263
16508W        W88768  33.194  25.820   1.546
16509W        W88769  43.684  16.630   3.711
16510W        W88770  20.190  37.288  12.394
16511W        W88771   2.100  36.414  10.683
16512W        W88772  27.664   5.412  11.682
16513W        W88773  13.790  44.535   2.395
16514W        W88774   1.153  22.012   3.744
16515W        W88775  38.840   4.770   5.067
16516W        W88776   6.616  14.883  10.758
16517W        W88777   1.440  38.705  11.002
16518W        W88778   8.695  37.858   4.154
16519W        W88779  13.164   8.768  10.429
16520W        W88780  28.635  30.656   1.318
16521W        W88781   6.736  11.574  13.268
16522W        W88782  38.556  44.454   2.814
16523W        W88783  22.085  27.075  10.698
16524W        W88784  28.081  35.207  13.731
16525W        W88785  21.991  44.478  13.957
16526W        W88786  37.977  29.089   0.344
16527W        W88787   8.254  42.087   2.131
16528W        W88788  40.805  42.642   1.484
16529W        W88789  21.280  17.824  11.245
16530W        W88790  16.564  32.415   3.675
16531W        W88791  11.469  34.844  11.283
16532W        W88792   2.718  34.077   2.803
16533W        W88793   2.438   2.288   2.348
16534W        W88794  21.860  26.947  12.871
16535W        W88795  18.823   7.753   2.426
16536W        W88796  13.270  17.815  12.445
16537W        W88797  35.475  32.458  10.912
16538W        W88798  11.150  17.376   3.321
16539W        W88799   5.302  31.636  10.632
16540W        W88800   4.516  27.053  14.249
16541W        W88801  20.034  40.978   4.709
16542W        W88802  18.233   6.721  11.043
16543W        W88803   0.813   1.159  13.915
16544W        W88804  21.529  15.115  11.100
16545W        W88805  40.786  13.264   3.242
16546W        W88806  39.946  17.009   2.319
16547W        W88807  15.713  20.727  12.953
16548W        W88808   7.388  22.140   1.044
16549W        W88809   3.351  24.128  13.756
16550W        W88810  14.083  18.432  12.583
16551W        W88811  23.133   5.960   2.318
16552W        W88812  11.673  21.662   3.690
16553W        W88813  18.492  36.160  12.664
16554W        W88814   1.242  40.292  13.712
16555W        W88815  11.786  13.716  10.422
16556W        W88816  28.687  36.194   3.091
16557W        W88817  35.526  15.146  11.353
16558W        W88818  21.177  44.395   1.787
16559W        W88819  16.130  40.769  10.722
16560W        W88820  15.734  37.979  12.667
16561W        W88821  26.661   8.092   2.693
16562W        W88822   3.094  36.928   2.241
16563W        W88823  34.846   0.697   4.176
16564W        W88824  34.079   0.348   1.380
16565W        W88825  39.582  11.808   3.431
16566W        W88826  44.888  14.056  12.375
16567W        W88827  30.375   3.849   0.239
16568W        W88828  35.917  29.109  10.820
16569W        W88829  11.152  43.334   1.819
16570W        W88830  29.287  25.966  10.450
16571W        W88831  39.632   0.742   0.282
16572W        W88832  21.175  33.865  10.656
16573W        W88833  10.533  44.958  12.276
16574W        W88834  18.227   1.279   4.107
16575W        W88835  25.932  17.322  10.766
16576W        W88836  27.290  23.308  11.002
16577W        W88837  41.040  42.476   4.057
16578W        W88838   0.687   1.193  12.451
16579W        W88839  25.286  30.684  13.961
16580W        W88840  39.904   8.606  11.575
16581W        W88841  11.657  16.344  10.798
16582W        W88842  40.540  18.516  12.864
16583W        W88843  20.305  23.440   4.203
16584W        W88844  14.333  18.246  12.979
16585W        W88845  16.021   6.415   3.859
16586W        W88846  13.128  38.491   0.401
16587W        W88847   8.354   1.862  14.313
16588W        W88848  10.666  31.857   0.309
16589W        W88849  18.446   9.886  11.516
16590W        W88850  29.903  32.623  11.534
16591W        W88851  40.353  22.647  14.558
16592W        W88852  16.399  22.107   1.965
16593W        W88853  20.791  13.800  13.399
16594W        W88854  19.259  38.057  13.839
16595W        W88855  20.784  21.029  12.308
16596W        W88856   6.706  19.307   4.723
16597W        W88857  20.637  16.031  10.628
16598W        W88858  20.722   7.856  12.406
16599W        W88859   6.878  25.862   1.427
16600W        W88860  14.085  17.218  11.705
16601W        W88861  24.376  34.544   0.350
16602W        W88862  19.242  22.470  13.979
16603W        W88863  22.390  39.872  11.448
16604W        W88864  10.110   0.477  12.875
16605W        W88865  42.931  32.903  11.426
16606W        W88866   9.119  12.982  11.140
16607W        W88867  26.591  21.668  13.446
16608W        W88868   5.781  39.922  12.486
16609W        W88869  21.820  38.549   0.370
16610W        W88870  15.782  10.785   4.587
16611W        W88871  27.009  41.035  10.486
16612W        W88872  11.432  43.927  11.842
16613W        W88873  30.154  43.332   1.246
16614W        W88874  24.981  15.150  12.008
16615W        W88875  14.568   0.882  14.507
16616W        W88876   9.375   1.462   2.199
16617W        W88877  43.079  18.705   5.416
16618W        W88878  39.497  23.680   1.887
16619W        W88879  33.225   4.929  14.988
16620W        W88880  12.280  38.619   3.272
16621W        W88881  40.578  31.022   4.591
16622W        W88882  39.319  42.960   5.169
16623W        W88883   7.792  37.407  13.989
16624W        W88884  36.404  36.196   3.253
16625W        W88885  33.149   2.256   2.859
16626W        W88886   8.163   4.677   3.281
16627W        W88887  43.495  42.767  14.496
16628W        W88888  22.048  40.718  10.646
16629W        W88889  26.368   8.232   3.604
16630W        W88890  26.378  31.573  11.418
16631W        W88891  11.608  13.375  13.490
16632W        W88892  22.540  23.304  13.113
16633W        W88893  36.461  11.636   3.639
16634W        W88894   9.810  18.544  14.946
16635W        W88895  36.516  17.530   3.718
16636W        W88896   2.738   9.019  11.192
16637W        W88897   4.604  18.826   0.863
16638W        W88898  10.161  31.587   1.860
16639W        W88899  38.473  42.358  14.003
16640W        W88900  20.278  22.516  10.691
16641W        W88901   8.499  11.651  13.148
16642W        W88902   5.797  14.282  12.721
16643W        W88903   6.620   8.414   2.191
16644W        W88904  29.547   3.068  11.618
16645W        W88905  18.152  32.828   1.399
16646W        W88906  16.056  12.228   0.369
16647W        W88907  20.198   8.762   2.634
16648W        W88908  35.514  15.620   1.799
16649W        W88909   0.284  11.187   1.753
16650W        W88910  33.947   3.485  11.508
16651W        W88911  27.758  19.884  13.820
16652W        W88912  21.806  14.983  13.318
16653W        W88913   0.242  17.271  14.775
16654W        W88914  10.623  12.593   1.637
16655W        W88915  23.043  16.669  11.850
16656W        W88916  28.221  35.147   0.264
16657W        W88917  32.565  43.445  13.902
16658W        W88918  32.340  35.779  12.096
16659W        W88919  36.390  25.599   4.549
16660W        W88920  44.059  16.383   1.041
16661W        W88921  29.528  21.548  12.993
16662W        W88922  20.631  23.342  13.076
16663W        W88923  33.916  36.820   0.321
16664W        W88924  36.951  10.946  12.536
16665W        W88925  17.134  28.087   1.905
16666W        W88926  39.035  37.869   1.013
16667W        W88927  37.025  21.245  11.970
16668W        W88928  27.193  26.781   4.226
16669W        W88929  22.156  12.495  13.350
16670W        W88930  44.515  26.229   0.343
16671W        W88931  35.655  21.384  12.018
16672W        W88932  15.012   9.659  11.110
16673W        W88933  32.818  32.134   0.434
16674W        W88934   3.169  12.786  11.635
16675W        W88935  36.632  22.770   3.786
16676W        W88936  17.138  26.732  13.361
16677W        W88937  43.297  44.820  11.019
16678W        W88938  34.973  12.054   4.906
16679W        W88939  36.701   7.859   5.422
16680W        W88940  30.656  14.126  14.912
16681W        W88941   9.220   9.570   2.791
16682W        W88942  21.820  11.832   2.212
16683W        W88943  18.400  24.140   0.216
16684W        W88944  21.563  20.795  11.510
16685W        W88945  17.974   5.378   3.753
16686W        W88946  37.895   4.835   2.923
16687W        W88947  42.079  38.474  13.156
16688W        W88948  11.298  16.127  12.072
16689W        W88949  16.692   5.539   3.150
16690W        W88950   4.950  40.622   3.644
16691W        W88951  32.168  28.252   3.200
16692W        W88952  17.742  17.115   2.721
16693W        W88953  39.332   7.600  10.219
16694W        W88954   9.708  10.448   0.249
16695W        W88955  39.084  22.383   0.635
16696W        W88956  18.033  18.257  10.941
16697W        W88957  21.202  11.947  11.050
16698W        W88958  12.179  21.489  14.956
16699W        W88959   0.308  31.900   2.747
16700W        W88960  32.872   2.399   2.444
16701W        W88961  41.954  24.117  11.172
16702W        W88962   8.331  21.708   4.641
16703W        W88963   2.974  15.836   0.019
16704W        W88964  36.083   2.996   3.082
16705W        W88965  43.326  28.067  13.397
16706W        W88966  36.370  42.896   3.621
16707W        W88967   7.415  12.123   2.715
16708W        W88968  17.997  10.575   3.767
16709W        W88969  28.258  42.285   2.099
16710W        W88970  43.005   8.433  13.068
16711W        W88971  33.687  31.053  12.806
16712W        W88972  16.779  33.895   0.207
16713W        W88973  41.783  44.062   1.329
16714W        W88974  23.002  17.165   3.892
16715W        W88975   7.345  20.737  10.813
16716W        W88976  20.022   1.359   1.360
16717W        W88977  40.606   1.829  11.819
16718W        W88978  21.117   3.550   2.370
16719W        W88979  16.920  43.062  10.727
16720W        W88980  29.484  38.119   2.289
16721W        W88981  19.530  41.555  10.389
16722W        W88982  30.831  37.783  12.350
16723W        W88983  38.935  27.540   3.657
16724W        W88984  44.682   0.680   1.890
16725W        W88985  39.304  38.487  12.803
16726W        W88986  13.229   1.633   1.858
16727W        W88987   5.911  28.065   4.608
16728W        W88988  35.132   0.057   3.237
16729W        W88989  35.271  15.151  14.409
16730W        W88990  15.828  43.012  11.166
16731W        W88991  15.083   3.840  13.911
16732W        W88992  25.423   4.187  14.209
16733W        W88993  22.640   2.245  13.906
16734W        W88994  35.536  41.907   1.378
16735W        W88995  25.777  14.123   3.179
16736W        W88996  32.335  33.448  13.353
16737W        W88997  16.836   1.279   4.197
16738W        W88998  29.667  23.496   1.883
16739W        W88999  21.570  19.490  13.565
16740W        W89000   8.525  10.588  13.046
16741W        W89001  37.374  31.883  13.568
16742W        W89002  43.849   1.738  11.601
16743W        W89003  28.091  41.407   5.097
16744W        W89004  19.790   7.779  13.317
16745W        W89005  14.083   7.607  12.433
16746W        W89006  26.112  30.678   1.240
16747W        W89007  33.461  17.463   1.392
16748W        W89008  28.201  20.707   3.371
16749W        W89009   4.899  32.374  13.432
16750W        W89010  28.607  39.565   4.933
16751W        W89011  18.675  30.522  10.702
16752W        W89012  41.064  27.390  13.844
16753W        W89013  38.958  42.873  10.272
16754W        W89014   7.476  26.112   3.652
16755W        W89015  10.387   4.206  12.994
16756W        W89016  36.111  13.340  12.429
16757W        W89017  13.344  11.142  14.908
16758W        W89018  19.294  17.784   2.872
16759W        W89019   8.873  35.478  12.143
16760W        W89020  20.615  10.873  12.298
16761W        W89021  14.421  44.446  10.536
16762W        W89022  14.060   7.608  11.917
16763W        W89023  30.575  16.197   2.203
16764W        W89024  34.592  21.498  11.190
16765W        W89025  15.724  26.475  11.636
16766W        W89026   9.935  22.571   2.159
16767W        W89027  15.311  19.566  14.852
16768W        W89028  29.870  38.607  11.043
16769W        W89029  21.947   0.240  11.884
16770W        W89030  21.025   7.904  11.683
16771W        W89031   2.372  41.349  12.185
16772W        W89032  39.047  41.533  14.028
16773W        W89033  42.355  25.518   0.722
16774W        W89034  10.797  38.810   2.091
16775W        W89035  16.509   1.821   0.859
16776W        W89036  42.347  34.405   2.405
16777W        W89037  24.029  25.386   0.027
16778W        W89038  28.560   9.038   1.390
16779W        W89039  37.423  14.290   0.317
16780W        W89040  26.471  28.205  10.693
16781W        W89041   0.954  43.765  11.886
16782W        W89042  12.818  34.039  12.626
16783W        W89043  28.576  14.273  12.961
16784W        W89044  26.888  30.666  11.553
16785W        W89045  21.567  38.449  13.542
16786W        W89046  25.981  32.830  13.932
16787W        W89047  30.110  42.251   4.590
16788W        W89048   5.183   5.839  10.422
16789W        W89049  10.576  43.341   4.598
16790W        W89050  29.593  31.140   3.273
16791W        W89051  41.478   7.986   4.689
16792W        W89052  24.045   3.368   2.755
16793W        W89053  23.058  29.231   2.625
16794W        W89054  34.753  38.057  14.451
16795W        W89055  13.492  10.415   0.445
16796W        W89056  21.202  10.639   1.040
16797W        W89057   5.786  24.094   3.726
16798W        W89058  31.874  21.958   4.978
16799W        W89059  22.992  16.284   3.769
16800W        W89060  23.632  40.015   2.203
16801W        W89061   6.896  22.471   4.736
16802W        W89062  37.266   2.209  12.100
16803W        W89063   2.383  23.490  13.094
16804W        W89064  37.731   3.389  12.040
16805W        W89065  12.318   4.229   1.097
16806W        W89066   5.397  23.797  11.599
16807W        W89067  34.392  17.982   0.318
16808W        W89068  32.374  34.636   3.627
16809W        W89069   9.197  14.513   0.960
16810W        W89070  14.923   8.782   1.659
16811W        W89071  31.542  14.868   3.254
16812W        W89072  30.722  37.827   0.196
16813W        W89073  29.665   9.659  13.153
16814W        W89074   4.778  31.362   3.139
16815W        W89075  19.366  34.992   3.521
16816W        W89076  26.447  37.174  14.963
16817W        W89077  18.318  24.606   4.703
16818W        W89078  41.903   2.916   4.976
16819W        W89079  15.053  14.174   1.060
16820W        W89080  39.532   9.427   1.315
16821W        W89081  30.967  23.632   4.027
16822W        W89082  30.733  22.871   1.896
16823W        W89083   2.821  13.046  13.024
16824W        W89084  27.714  33.408  12.538
16825W        W89085  10.707  11.905   2.266
16826W        W89086  13.929  21.823   3.721
16827W        W89087  21.562  26.228  13.540
16828W        W89088  16.001  17.000   3.301
16829W        W89089  43.962  40.452  14.329
16830W        W89090  40.384  13.275   3.601
16831W        W89091  19.644  26.670   9.881
16832W        W89092  44.526  42.398   2.498
16833W        W89093  32.091  23.813  12.183
16834W        W89094  40.795  13.647   2.823
16835W        W89095  13.711  27.637   1.269
16836W        W89096   8.278  34.669   2.874
16837W        W89097  28.379   8.660   4.364
16838W        W89098  17.561  12.104  13.349
16839W        W89099  11.142  26.502  11.839
16840W        W89100  36.000  37.367  11.155
16841W        W89101  15.336  30.032  12.851
16842W        W89102  41.281  42.208  13.891
16843W        W89103  35.962  38.602  12.565
16844W        W89104   2.511  43.334   0.085
16845W        W89105  32.627  28.057  10.232
16846W        W89106   1.788  31.993   2.790
16847W        W89107  42.099  40.480   4.067
16848W        W89108  17.802  31.354   3.259
16849W        W89109  31.028  40.921  10.814
16850W        W89110   1.437  17.707   0.974
16851W        W89111  17.315  27.209  14.854
16852W        W89112  26.504   3.254  13.997
16853W        W89113  20.581  14.905   4.558
16854W        W89114  32.431  42.679   0.430
16855W        W89115  40.712  43.403  10.669
16856W        W89116  32.026  38.675  14.409
16857W        W89117   9.353  34.221  12.572
16858W        W89118  23.195  22.573   1.801
16859W        W89119  41.267  35.964   4.674
16860W        W89120  28.727  27.650   3.664
16861W        W89121   4.442  12.777  14.875
16862W        W89122   0.703  40.924  13.078
16863W        W89123  21.719  18.890   5.373
16864W        W89124  22.468   1.988   3.789
16865W        W89125   0.462  34.684   1.259
16866W        W89126  36.895  38.043   3.204
16867W        W89127  23.913  25.980  11.902
16868W        W89128  41.735   6.916  10.711
16869W        W89129  17.204  21.194  10.524
16870W        W89130  40.614  31.301   4.131
16871W        W89131  13.154  15.591   0.005
16872W        W89132  27.954  16.272  13.613
16873W        W89133   4.856  32.152   1.902
16874W        W89134  41.430  26.429   0.768
16875W        W89135   5.715   4.036   1.840
16876W        W89136  27.158  29.685  14.873
16877W        W89137  28.454   9.872  14.516
16878W        W89138  15.192  30.867  10.560
16879W        W89139  21.300  23.166  12.872
16880W        W89140  17.453  27.953   3.119
16881W        W89141  13.054   5.306   1.153
16882W        W89142  33.845  32.454  12.833
16883W        W89143   0.948  44.085   0.837
16884W        W89144   6.257  23.198   2.640
16885W        W89145  26.199  26.626   4.055
16886W        W89146  42.967  33.944   4.604
16887W        W89147   6.740   2.251  10.725
16888W        W89148  25.158  37.670   4.573
16889W        W89149  40.294  23.484   2.304
16890W        W89150  43.489  35.159   0.929
16891W        W89151   5.810  44.054  12.963
16892W        W89152  29.161  18.618   0.455
16893W        W89153  11.233  10.840  13.895
16894W        W89154  26.044  23.863  12.009
16895W        W89155  31.154   0.274  13.450
16896W        W89156  18.250  21.696  14.848
16897W        W89157  23.070  23.537  14.314
16898W        W89158  22.444   0.934   1.532
16899W        W89159  10.860   7.394  10.770
16900W        W89160  24.144  10.705   0.510
16901W        W89161  34.478  20.340   3.153
16902W        W89162   8.379  10.898   2.217
16903W        W89163  15.327  39.721   1.275
16904W        W89164   6.153  32.901  14.044
16905W        W89165  28.488  32.229   4.147
16906W        W89166  10.674  30.725  13.106
16907W        W89167  37.618  21.159  11.187
16908W        W89168  32.109  10.355   4.630
16909W        W89169  16.275  11.168   0.831
16910W        W89170  27.918   9.593   4.699
16911W        W89171   8.230  23.882   0.845
16912W        W89172  12.147  24.545  14.126
16913W        W89173   1.476  36.559  14.045
16914W        W89174  21.976   9.699   2.689
16915W        W89175  43.861  21.946   2.446
16916W        W89176   6.505   5.335  13.896
16917W        W89177  21.157  28.255  11.935
16918W        W89178  31.931  41.302  11.148
16919W        W89179  25.166  43.318   2.202
16920W        W89180  25.432  34.624   0.197
16921W        W89181  20.170   3.276  11.883
16922W        W89182  16.022  13.224  12.834
16923W        W89183  28.618  42.299   3.825
16924W        W89184   4.396  44.892  14.052
16925W        W89185  32.965  10.328   1.412
16926W        W89186  36.171  34.077   1.763
16927W        W89187   8.834   5.282  13.607
16928W        W89188  35.636  22.889  13.796
16929W        W89189   0.080  15.684   4.193
16930W        W89190  31.926  35.468  12.053
16931W        W89191  35.513  12.338  10.766
16932W        W89192  25.229  26.271   4.245
16933W        W89193  21.911  42.761   2.085
16934W        W89194  18.598  16.736   4.660
16935W        W89195  40.471   6.270   0.866
16936W        W89196   4.646  29.596  12.830
16937W        W89197  39.864   1.391  11.238
16938W        W89198  30.998  34.788   9.764
16939W        W89199  25.216  27.147   4.206
16940W        W89200   7.288  14.157   4.715
16941W        W89201  32.466  35.448  12.918
16942W        W89202  24.199  43.324  13.298
16943W        W89203  44.354  11.665   3.764
16944W        W89204  38.439  34.626   1.355
16945W        W89205  32.773  35.314   3.803
16946W        W89206  28.037   3.805  14.575
16947W        W89207  40.349  35.524  12.554
16948W        W89208  24.878  41.921   0.730
16949W        W89209   8.938  29.877  13.041
16950W        W89210  15.057  42.763  13.091
16951W        W89211  16.520  39.908  12.911
16952W        W89212   6.259   1.787   1.758
16953W        W89213  26.961  10.416   1.343
16954W        W89214  14.347  22.024   3.959
16955W        W89215   1.369   6.358   1.829
16956W        W89216  24.165  32.567  12.378
16957W        W89217  26.412  23.765   1.290
16958W        W89218  29.971  22.201   4.520
16959W        W89219  12.748  12.962   0.441
16960W        W89220  18.577  13.784  14.447
16961W        W89221  18.880   1.433   2.203
16962W        W89222  17.514   8.017   5.041
16963W        W89223  29.229  16.850  13.836
16964W        W89224  39.934  24.673   4.733
16965W        W89225  18.285   5.296   0.977
16966W        W89226   6.731  24.237   2.664
16967W        W89227  29.154  13.627   1.389
16968W        W89228   0.892  37.539  11.670
16969W        W89229  24.161   8.887   2.960
16970W        W89230   1.801  43.448   3.193
16971W        W89231  33.594   6.604   0.850
16972W        W89232  38.351  29.616  12.145
16973W        W89233   1.582   0.079   0.381
16974W        W89234  26.885   4.876   9.910
16975W        W89235  39.486   9.393  12.530
16976W        W89236  17.538  35.611   3.988
16977W        W89237  28.729  29.451  11.298
16978W        W89238   0.371  28.667  12.868
16979W        W89239  40.874  14.291  10.667
16980W        W89240  34.631   7.661   2.397
16981W        W89241   4.627   6.364   1.579
16982W        W89242  17.487  27.096  12.584
16983W        W89243  23.704  13.993   2.535
16984W        W89244  20.733  22.452  12.620
16985W        W89245  39.700  10.141   2.277
16986W        W89246   1.587   6.792   2.246
16987W        W89247  20.809  42.610   1.746
16988W        W89248  42.059  16.102   2.313
16989W        W89249  20.276  20.314   2.223
16990W        W89250   1.272  36.097   0.145
16991W        W89251  37.952   0.500  12.056
16992W        W89252  40.308  29.566  11.540
16993W        W89253  19.221  36.479  14.306
16994W        W89254  28.690  36.397  14.259
16995W        W89255  16.299  40.063  12.456
16996W        W89256  43.716   4.280  13.055
16997W        W89257  31.009   3.948   2.088
16998W        W89258  26.389  44.441   0.427
16999W        W89259  42.221  41.126  14.316
17000W        W89260  24.596  43.510   0.842
17001W        W89261  32.229  44.709  12.287
17002W        W89262  14.177  40.032   3.088
17003W        W89263  27.075  38.258   1.388
17004W        W89264   6.680  26.386   1.224
17005W        W89265   6.234  43.713  11.126
17006W        W89266   6.163  20.005   4.220
17007W        W89267  17.831  41.321  11.855
17008W        W89268  19.301  25.137  14.760
17009W        W89269  33.691  18.574  11.537
17010W        W89270   5.772  27.699  14.387
17011W        W89271  23.409  34.392  13.755
17012W        W89272   2.373  15.318   4.237
17013W        W89273  26.563   7.965   3.193
17014W        W89274  39.469  25.390   4.574
17015W        W89275   8.222   8.343   4.542
17016W        W89276  32.958  30.652  10.769
17017W        W89277  37.520  38.117  14.462
17018W        W89278  44.068  19.123   0.779
17019W        W89279  31.805  11.097   1.249
17020W        W89280  19.930  15.544   2.780
17021W        W89281  20.024  30.413   1.814
17022W        W89282  37.567  29.010  13.507
17023W        W89283  39.742  39.689   4.193
17024W        W89284  19.605  16.096   4.628
17025W        W89285  27.427  13.612  12.985
17026W        W89286  31.108  26.015   4.111
17027W        W89287   9.280  43.938   1.004
17028W        W89288  44.745  10.888  10.428
17029W        W89289  15.341  27.184   0.037
17030W        W89290  40.251  33.416   3.872
17031W        W89291  13.798  42.589   4.133
17032W        W89292   0.335  16.379   2.558
17033W        W89293  30.072  14.683  10.945
17034W        W89294  44.654  21.291  12.235
17035W        W89295   0.027  41.238  12.015
17036W        W89296  35.968  42.204   2.831
17037W        W89297  44.914  18.084  12.611
17038W        W89298   5.064   4.655  12.351
17039W        W89299  41.789  31.364   0.780
17040W        W89300  16.332  42.760   4.705
17041W        W89301  30.405  12.328  11.112
17042W        W89302  23.798  44.011   2.403
17043W        W89303   1.866   3.108  13.150
17044W        W89304   1.725  21.645  11.551
17045W        W89305  25.051  20.542  14.053
17046W        W89306  43.161   7.928   0.944
17047W        W89307  32.347  11.241   4.184
17048W        W89308  38.033  24.243  11.547
17049W        W89309  18.136  29.045  10.960
17050W        W89310   6.446  39.942   1.939
17051W        W89311  17.166  30.690   4.351
17052W        W89312   6.172  33.487   3.634
17053W        W89313  44.702  23.076   1.315
17054W        W89314  13.273   2.411   0.252
17055W        W89315  38.406  35.108   1.581
17056W        W89316  17.456  32.600   2.164
17057W        W89317   9.957   7.248   3.674
17058W        W89318  26.956  42.101   2.415
17059W        W89319  14.122  12.945  11.902
17060W        W89320  12.265  11.843  10.973
17061W        W89321  40.424  18.361   1.182
17062W        W89322  34.485  17.047   0.674
17063W        W89323  23.211  17.867  12.763
17064W        W89324  15.088  41.756  13.229
17065W        W89325   2.655  22.241  14.258
17066W        W89326  40.558  30.842   1.705
17067W        W89327  36.340  39.002   1.472
17068W        W89328   4.385  37.036   3.623
17069W        W89329  22.085  35.739   0.523
17070W        W89330  44.056  20.663  12.573
17071W        W89331  35.509  35.950  14.359
17072W        W89332  18.085   6.017  12.592
17073W        W89333  22.581  20.471   9.906
17074W        W89334   4.422  43.569   3.790
17075W        W89335  35.020  15.621  11.564
17076W        W89336  26.578  20.068   0.241
17077W        W89337  43.613  15.131   2.456
17078W        W89338  10.601  22.924   4.111
17079W        W89339  44.544  36.884  13.215
17080W        W89340  42.083  28.298  12.347
17081W        W89341   5.399  31.911   2.803
17082W        W89342  15.645  33.156   4.714
17083W        W89343  26.582   7.273  14.978
17084W        W89344   4.015  35.804  12.002
17085W        W89345  17.179  44.411   1.389
17086W        W89346  26.478  44.065   4.191
17087W        W89347  19.175  22.316   1.169
17088W        W89348   8.325   5.266  14.283
17089W        W89349  18.138   3.817  12.069
17090W        W89350  33.692  30.215  14.462
17091W        W89351  22.985   0.693   4.608
17092W        W89352  12.693   4.761   2.180
17093W        W89353  37.957  38.850  14.354
17094W        W89354  12.280  14.797  11.211
17095W        W89355  36.264  16.137   1.726
17096W        W89356   2.497  12.216   2.326
17097W        W89357  24.398  40.914   3.289
17098W        W89358  37.026  14.827  12.800
17099W        W89359  42.442  18.156   0.945
17100W        W89360  39.370  42.978   0.400
17101W        W89361  38.344  41.894   0.371
17102W        W89362   6.264  10.808  14.986
17103W        W89363  43.875  19.696  14.377
17104W        W89364  10.257  43.498  13.893
17105W        W89365  18.863  28.007  12.602
17106W        W89366   5.949   2.866   0.825
17107W        W89367  15.735   6.328  11.548
17108W        W89368  10.177  42.214  13.158
17109W        W89369  33.397   1.487  13.329
17110W        W89370  21.367  29.007  14.047
17111W        W89371  24.461  23.831   4.685
17112W        W89372  40.386  38.064  14.967
17113W        W89373  11.172  23.070  12.171
17114W        W89374  33.058   2.507  11.153
17115W        W89375  36.066  25.982  10.546
17116W        W89376  24.277   7.160   1.042
17117W        W89377  13.242   2.679   0.758
17118W        W89378  10.854  31.674  14.287
17119W        W89379  24.719  15.194   0.759
17120W        W89380  20.074  10.457   3.255
17121W        W89381   5.363  36.421   2.318
17122W        W89382  39.600  26.562   1.255
17123W        W89383  11.799  34.018  13.476
17124W        W89384  41.394  21.744  12.048
17125W        W89385   1.331  15.925   1.170
17126W        W89386  20.164  43.696  12.468
17127W        W89387  28.441  44.385  12.024
17128W        W89388  22.167  42.357  14.389
17129W        W89389   9.768  25.229  11.121
17130W        W89390   3.255  34.324   4.563
17131W        W89391  16.576  24.565   3.061
17132W        W89392  27.811  23.783   4.642
17133W        W89393  20.064  18.638   4.281
17134W        W89394  23.723  26.105   5.520
17135W        W89395  37.025   2.812   4.629
17136W        W89396  12.245  26.477   3.765
17137W        W89397   3.022  22.747   0.515
17138W        W89398   5.820  23.023  13.056
17139W        W89399  41.294  20.933   0.310
17140W        W89400  44.777  17.712   4.849
17141W        W89401  35.456  40.275   1.900
17142W        W89402   7.335  25.895  13.820
17143W        W89403  41.045  26.260  10.897
17144W        W89404   9.675  25.625  12.930
17145W        W89405  42.197  36.604   4.003
17146W        W89406   1.455  19.583  11.106
17147W        W89407   4.355  44.981  13.539
17148W        W89408   4.498  34.881   1.674
17149W        W89409  19.672  33.277   0.487
17150W        W89410  39.987  12.332  11.072
17151W        W89411  19.751  15.418  12.852
17152W        W89412  18.226  44.867   1.408
17153W        W89413  29.578  38.911   2.665
17154W        W89414   8.908   8.755   0.388
17155W        W89415   7.050  43.886  13.502
17156W        W89416  23.703   3.515   4.223
17157W        W89417  18.723  26.147   0.211
17158W        W89418  13.331  27.977  11.498
17159W        W89419   5.930  38.383   4.627
17160W        W89420  37.426  41.965   3.682
17161W        W89421   5.549  18.027  12.109
17162W        W89422  17.209  36.970   4.526
17163W        W89423   3.247   2.274  12.092
17164W        W89424  24.563  37.914   4.362
17165W        W89425  14.106  21.243   4.675
17166W        W89426  30.727  42.364   2.391
17167W        W89427  23.353  18.243  13.699
17168W        W89428  23.571  23.643   5.026
17169W        W89429  37.402  10.694  12.575
17170W        W89430  40.060  26.711  12.625
17171W        W89431   6.116  10.805   1.729
17172W        W89432  41.860   7.144   2.048
17173W        W89433  31.418  40.290   4.044
17174W        W89434  30.467  36.450   2.911
17175W        W89435  11.759  25.676  13.419
17176W        W89436   5.687   3.675  14.277
17177W        W89437  16.927  30.009   0.893
17178W        W89438  29.453  32.502   1.310
17179W        W89439  40.515  40.359   2.349
17180W        W89440  38.688  42.626   4.191
17181W        W89441  15.126  16.501  14.803
17182W        W89442  17.560  27.371  11.433
17183W        W89443   8.348  18.891   0.398
17184W        W89444  20.874   6.867  13.661
17185W        W89445  27.390  42.942   3.329
17186W        W89446   1.977   3.461  14.428
17187W        W89447   7.665  36.552   2.982
17188W        W89448   9.795  27.945  11.940
17189W        W89449  19.000   9.070  12.875
17190W        W89450  42.523  42.769   4.534
17191W        W89451   3.636  25.173   3.659
17192W        W89452  27.101  35.377   1.377
17193W        W89453  37.563   7.727   2.427
17194W        W89454   5.382  32.596   1.126
17195W        W89455  19.157   1.531  12.010
17196W        W89456  34.786   8.638   3.304
17197W        W89457  17.559  27.077   1.891
17198W        W89458   2.478  23.806  14.997
17199W        W89459   5.747  44.061  11.506
17200W        W89460  33.598  44.016  11.545
17201W        W89461  32.005  25.261  10.818
17202W        W89462  28.156  30.426  12.007
17203W        W89463  15.993  36.883  11.284
17204W        W89464   0.004  27.858   1.882
17205W        W89465   6.928  25.331   1.556
17206W        W89466  24.123  42.552   3.181
17207W        W89467  30.181  37.527   1.845
17208W        W89468  24.389  37.100   3.631
17209W        W89469  28.928  31.902  13.403
17210W        W89470  37.465  27.615   1.403
17211W        W89471  17.623  24.426   2.939
17212W        W89472  13.940  38.525   1.381
17213W        W89473  37.012  41.211   4.558
17214W        W89474  39.089  27.168   4.909
17215W        W89475  21.746  23.640  12.057
17216W        W89476  28.716  39.534   2.889
17217W        W89477   8.760  17.730  11.568
17218W        W89478  11.230  24.389  11.101
17219W        W89479  42.479  28.308   0.745
17220W        W89480   7.705   6.554  14.099
17221W        W89481   1.451  33.662  14.913
17222W        W89482  42.874   6.803   5.256
17223W        W89483  31.883  16.309   4.435
17224W        W89484  26.972  19.043   1.776
17225W        W89485  40.528  41.821   4.861
17226W        W89486   0.750  17.985  14.425
17227W        W89487  33.733   5.261   3.549
17228W        W89488  38.589   4.938  11.592
17229W        W89489   2.526   9.735   1.350
17230W        W89490   9.655   8.797  13.455
17231W        W89491  33.547  13.366   2.215
17232W        W89492  34.010  33.702  12.396
17233W        W89493  26.677   7.108  10.641
17234W        W89494  34.776  14.426   0.771
17235W        W89495  30.013  44.259   1.684
17236W        W89496  11.993  34.341  11.577
17237W        W89497  33.045  27.947   3.231
17238W        W89498  43.144  17.959   1.837
17239W        W89499  15.207  41.558  11.075
17240W        W89500  15.194  36.129  10.354
17241W        W89501  17.562  25.828  11.399
17242W        W89502  14.028  44.736  13.103
17243W        W89503  32.874  38.998  10.460
17244W        W89504  28.927  15.431  11.084
17245W        W89505  31.576  44.729  11.564
17246W        W89506  28.024  32.173  14.396
17247W        W89507  26.249   7.042  11.869
17248W        W89508  10.670  19.148   1.202
17249W        W89509  31.771   1.544   2.310
17250W        W89510   4.908  27.944  13.894
17251W        W89511   0.878  21.680   3.440
17252W        W89512   5.120  41.726  10.771
17253W        W89513  10.399   4.992  13.829
17254W        W89514   5.971  12.302  11.623
17255W        W89515  29.398   8.896   4.130
17256W        W89516  31.717  26.017  11.551
17257W        W89517  36.498  38.390  13.335
17258W        W89518  18.025  31.638   4.324
17259W        W89519  19.294  36.045   1.954
17260W        W89520   7.487  10.638   4.490
17261W        W89521  14.318  26.488  11.077
17262W        W89522  26.608   6.630   2.802
17263W        W89523   8.099  44.249  12.305
17264W        W89524  12.218  30.108   4.611
17265W        W89525  28.942  44.278   0.887
17266W        W89526  35.497  36.961   2.863
17267W        W89527   5.372  38.010  14.460
17268W        W89528   3.705   6.267   3.218
17269W        W89529  19.003  28.184  11.757
17270W        W89530  21.745   2.362   3.201
17271W        W89531  20.232  11.316  13.914
17272W        W89532  20.257  28.021   1.190
17273W        W89533  12.195  13.152  11.419
17274W        W89534  13.210  11.766   0.308
17275W        W89535  23.978   5.418   2.459
17276W        W89536  22.048  15.692   1.275
17277W        W89537  11.769  28.904   1.412
17278W        W89538   1.654  35.172   3.175
17279W        W89539  13.604  41.359   2.122
17280W        W89540  39.500  41.646   4.860
17281W        W89541  10.823   5.915   1.233
17282W        W89542  40.954  41.622   0.219
17283W        W89543  17.756  23.744   4.723
17284W        W89544  16.180  12.565   2.308
17285W        W89545  16.617   9.887   3.187
17286W        W89546   7.170  23.509   1.349
17287W        W89547  38.411  27.373   0.023
17288W        W89548  14.070  34.831   1.838
17289W        W89549  20.968  36.490  11.573
17290W        W89550  33.683  37.514  12.651
17291W        W89551  15.612   6.840   3.080
17292W        W89552   8.295  22.525  13.863
17293W        W89553  27.383   9.154   0.416
17294W        W89554   4.411  41.286   0.475
17295W        W89555  17.082  20.743   1.628
17296W        W89556   3.152  26.627   2.648
17297W        W89557   8.843  19.952   1.204
17298W        W89558  15.795   3.987  14.964
17299W        W89559  24.581  20.786  13.884
17300W        W89560  25.147  34.985  12.681
17301W        W89561  22.235  11.721  14.316
17302W        W89562  17.262  31.907  10.646
17303W        W89563  17.987  20.303   4.560
17304W        W89564  40.543  19.655   4.028
17305W        W89565  24.999   2.149  14.711
17306W        W89566  32.838   2.749  14.992
17307W        W89567  17.294  12.238   1.421
17308W        W89568   3.275  26.552   3.558
17309W        W89569   5.000  41.309   2.387
17310W        W89570  25.758  38.228  13.075
17311W        W89571  32.897  31.327  14.906
17312W        W89572  29.112  38.810   2.881
17313W        W89573  29.497  39.992   4.567
17314W        W89574  16.326  18.683  11.085
17315W        W89575  27.631  13.190  11.220
17316W        W89576  29.140  38.643   4.545
17317W        W89577  35.993  20.388  14.559
17318W        W89578  18.703  42.950   0.169
17319W        W89579  14.121   1.907  11.421
17320W        W89580   1.842   9.121  11.178
17321W        W89581  28.029  21.221  13.120
17322W        W89582  21.069  41.919   0.812
17323W        W89583  21.233  33.032  14.864
17324W        W89584   1.815  25.184  13.055
17325W        W89585  16.069   6.318  11.124
17326W        W89586  14.825  34.403  14.316
17327W        W89587  32.497  43.946  13.801
17328W        W89588  38.988  22.626  11.570
17329W        W89589  25.784  16.772   0.162
17330W        W89590  28.252  21.783   2.110
17331W        W89591  12.259  39.323   1.868
17332W        W89592   6.889   3.707   3.794
17333W        W89593  25.029  33.978  14.436
17334W        W89594  24.536  27.508  10.118
17335W        W89595  13.726  41.976  11.578
17336W        W89596  27.174  22.992   0.318
17337W        W89597  28.017  30.637  14.976
17338W        W89598   2.950  32.484  12.467
17339W        W89599  11.183  21.272   1.875
17340W        W89600  22.832  36.017   4.925
17341W        W89601  34.394  11.265   2.603
17342W        W89602   3.858   6.478   3.653
17343W        W89603  17.486  34.537  10.606
17344W        W89604  29.145   1.296  13.506
17345W        W89605   7.915  36.571  14.599
17346W        W89606  21.745  24.471   1.290
17347W        W89607  19.646   0.011  11.449
17348W        W89608  24.225  34.601   3.508
17349W        W89609   9.752  15.549  12.953
17350W        W89610  37.674  42.071   1.458
17351W        W89611  18.973   6.109   1.207
17352W        W89612  26.347  39.249  13.015
17353W        W89613  41.371  35.745  11.829
17354W        W89614  20.123  43.911   2.217
17355W        W89615  41.573   4.854   3.779
17356W        W89616  32.077  13.004   4.038
17357W        W89617  34.365  31.807  11.045
17358W        W89618  34.480  31.151   2.820
17359W        W89619   1.953  16.268   1.936
17360W        W89620  23.457  38.467  12.447
17361W        W89621  33.396  19.867  12.014
17362W        W89622   2.552  28.508   1.538
17363W        W89623   9.392  30.379   4.169
17364W        W89624  17.115  27.037   4.172
17365W        W89625  31.139  25.061  12.047
17366W        W89626  40.392  10.841   4.176
17367W        W89627  10.931  44.930   2.260
17368W        W89628   5.144  35.474  10.527
17369W        W89629   0.384  16.112   1.210
17370W        W89630  23.680   8.987  12.334
17371W        W89631  10.110  42.281   3.135
17372W        W89632  26.322  30.709  14.899
17373W        W89633  25.229  23.099  13.422
17374W        W89634   8.402  34.880  12.812
17375W        W89635  33.756  20.129  14.998
17376W        W89636  32.447  13.278  12.050
17377W        W89637  22.662   7.359   3.151
17378W        W89638   9.910  41.911  12.850
17379W        W89639   5.842   2.992   1.701
17380W        W89640   1.315  36.942  13.015
17381W        W89641  35.617  39.883  14.816
17382W        W89642  39.116  42.395  13.681
17383W        W89643   6.173  40.563   4.208
17384W        W89644  10.603   8.337  12.867
17385W        W89645  44.094  28.596   5.157
17386W        W89646  24.541  13.044  10.503
17387W        W89647  24.633  24.767  12.010
17388W        W89648  43.238  24.983  13.430
17389W        W89649  26.178   3.377   4.535
17390W        W89650   0.146  30.039   0.817
17391W        W89651  38.046  15.679   2.132
17392W        W89652   1.050  31.608  11.642
17393W        W89653   8.966  42.795   2.416
17394W        W89654  25.165  43.403   1.664
17395W        W89655   3.732  10.289   0.201
17396W        W89656  30.185  38.069   1.946
17397W        W89657  39.664  25.432   0.932
17398W        W89658  21.294  42.381   4.163
17399W        W89659  42.423  17.959  12.011
17400W        W89660  31.195  43.322   0.232
17401W        W89661  30.054  40.522  14.817
17402W        W89662  38.381  33.042   1.019
17403W        W89663  20.094  39.427   2.757
17404W        W89664  20.494  16.415  11.546
17405W        W89665  14.139   3.867   4.496
17406W        W89666  17.280  14.221   4.005
17407W        W89667  25.172   0.461   2.519
17408W        W89668  21.232  41.180  10.709
17409W        W89669   7.652  10.110   3.254
17410W        W89670  40.293  36.082  11.063
17411W        W89671  33.668  38.118   0.408
17412W        W89672  43.284  25.618  10.842
17413W        W89673   3.014   1.811  12.103
17414W        W89674  26.130  44.197   0.000
17415W        W89675  44.364  37.379   0.212
17416W        W89676  12.912  31.745  11.272
17417W        W89677  13.187   3.593  10.272
17418W        W89678  32.453  40.787  10.822
17419W        W89679  28.920   1.895   3.729
17420W        W89680  21.726  15.597  10.986
17421W        W89681  20.321  20.769   5.067
17422W        W89682  40.916   6.752  10.677
17423W        W89683  14.730   1.968   3.664
17424W        W89684  11.720  14.902  14.945
17425W        W89685  23.630  14.652  12.993
17426W        W89686  24.193   2.234   1.921
17427W        W89687   1.723  22.971   1.251
17428W        W89688  26.658  24.431   4.358
17429W        W89689  43.892  41.049   1.353
17430W        W89690  25.027   5.232   4.793
17431W        W89691  38.996  28.033   2.278
17432W        W89692  37.432  43.953   0.365
17433W        W89693  37.567  10.683   1.997
17434W        W89694  29.479  31.533   1.471
17435W        W89695  18.240  39.212  13.042
17436W        W89696  22.180  30.544  10.747
17437W        W89697   4.155   6.859  14.293
17438W        W89698  18.259  11.761  11.504
17439W        W89699  42.994   0.747   2.614
17440W        W89700  24.130   1.276  11.656
17441W        W89701  28.255  27.184  10.259
17442W        W89702  15.569  35.525   2.637
17443W        W89703   2.463  41.313   0.705
17444W        W89704  41.876  13.052   0.959
17445W        W89705  31.661  22.041   0.335
17446W        W89706   7.307  19.315   1.645
17447W        W89707  14.185   7.781   4.938
17448W        W89708  44.699  18.328   0.140
17449W        W89709   4.363  19.065  14.337
17450W        W89710  34.365   2.519   0.776
17451W        W89711  21.751  14.235  10.992
17452W        W89712   6.415  43.964  14.304
17453W        W89713  19.147  36.178  10.988
17454W        W89714  24.725  10.277  13.618
17455W        W89715  24.344  23.700   2.883
17456W        W89716  43.359  14.074   2.716
17457W        W89717  16.690  11.060  14.990
17458W        W89718  27.059  10.916   0.428
17459W        W89719   5.974  11.135  14.314
17460W        W89720   2.821   9.337   1.201
17461W        W89721  10.936   9.598   3.229
17462W        W89722   6.961  39.325  10.831
17463W        W89723   9.809   5.985  10.828
17464W        W89724   7.249  19.050  10.510
17465W        W89725   4.804  29.824  12.406
17466W        W89726  13.854  16.165  13.030
17467W        W89727  43.520  29.926  14.509
17468W        W89728  10.247  28.141   0.948
17469W        W89729  15.284  32.401  13.862
17470W        W89730  24.468   4.742   2.827
17471W        W89731  40.537  37.531   4.653
17472W        W89732  34.650  23.263  11.594
17473W        W89733   2.680  10.363   1.048
17474W        W89734  38.617   8.478   3.197
17475W        W89735  19.117   9.242  11.517
17476W        W89736  17.561  35.364   2.559
17477W        W89737  11.652  14.267  13.937
17478W        W89738  11.482  44.595  11.593
17479W        W89739  13.175  25.233   0.084
17480W        W89740  21.545  28.507   0.643
17481W        W89741  33.027  34.454   4.634
17482W        W89742  27.938  31.711   1.200
17483W        W89743   7.110   1.519  11.196
17484W        W89744  21.358  24.448   3.316
17485W        W89745  40.324  17.013  11.782
17486W        W89746  10.398  38.397  14.805
17487W        W89747  30.962  28.897   2.940
17488W        W89748  14.361  40.222   4.093
17489W        W89749  12.733   5.003  11.132
17490W        W89750  42.003  34.879   3.113
17491W        W89751  41.885  43.964   1.863
17492W        W89752  34.210   7.819  14.316
17493W        W89753  35.842  42.432  13.146
17494W        W89754   1.708   8.728  13.515
17495W        W89755  33.993  12.804   2.739
17496W        W89756  16.594  26.588   1.243
17497W        W89757  31.031  32.936   1.598
17498W        W89758  33.145  29.189   3.474
17499W        W89759   7.395   2.470  12.925
17500W        W89760  24.590  23.683   0.235
17501W        W89761  20.231   1.335  13.412
17502W        W89762  26.799  42.717  11.260
17503W        W89763  31.495  14.437  10.454
17504W        W89764   3.399  18.534   2.814
17505W        W89765  15.298  11.839  11.575
17506W        W89766  15.600  26.723   4.100
17507W        W89767  27.040   7.214   4.926
17508W        W89768  32.501   7.674   3.852
17509W        W89769  22.789  38.905   4.573
17510W        W89770  14.225  21.514   1.508
17511W        W89771   3.255  10.107  12.435
17512W        W89772  34.412  12.297   1.435
17513W        W89773  11.904  21.254   0.918
17514W        W89774  25.611   7.637   1.236
17515W        W89775  31.584  21.054  11.366
17516W        W89776  29.977  37.593   4.731
17517W        W89777  11.744  18.779   3.889
17518W        W89778  35.242   5.189   0.885
17519W        W89779  40.494   9.542  15.000
17520W        W89780  41.788  25.486   0.782
17521W        W89781   2.301  37.520  12.087
17522W        W89782  28.212   1.712  11.566
17523W        W89783  38.389   4.454  13.343
17524W        W89784  10.582  34.439   4.250
17525W        W89785  15.799  42.369  13.178
17526W        W89786  23.719  38.482  11.996
17527W        W89787  26.906  44.806  13.876
17528W        W89788  34.056   0.264   1.923
17529W        W89789  11.580   6.919   3.291
17530W        W89790   1.240  33.523  11.467
17531W        W89791  44.635  27.451  10.275
17532W        W89792   4.012   6.370  13.172
17533W        W89793  12.452   0.417   1.466
17534W        W89794   3.875  40.722  11.404
17535W        W89795  36.112  24.981  14.107
17536W        W89796  39.090  27.828   1.799
17537W        W89797   2.386  13.313   0.987
17538W        W89798  34.666   3.623   1.765
17539W        W89799  34.381  43.085   1.803
17540W        W89800  34.954  42.581   1.371
17541W        W89801  41.784  27.996  12.659
17542W        W89802  38.405  39.637  14.549
17543W        W89803  25.029  13.217   1.444
17544W        W89804  36.040  12.546  11.742
17545W        W89805  24.167  32.444  14.800
17546W        W89806  25.904  41.490   0.742
17547W        W89807  34.204  17.971  10.293
17548W        W89808   1.437  19.876   4.575
17549W        W89809  44.862  34.995  11.142
17550W        W89810  11.642  44.759   5.000
17551W        W89811  21.206  23.780  13.975
17552W        W89812   2.289   1.500  14.723
17553W        W89813  29.527   4.250   2.796
17554W        W89814   2.158  14.735   3.630
17555W        W89815   0.361  33.368  11.453
17556W        W89816  27.090  37.108   1.372
17557W        W89817  23.183   8.368   3.458
17558W        W89818  25.141  10.744   1.474
17559W        W89819  15.661  17.223  12.406
17560W        W89820  24.432  15.827  11.649
17561W        W89821   9.311  23.771  12.863
17562W        W89822   5.216  23.675   0.955
17563W        W89823  36.632  24.518   0.367
17564W        W89824   8.988  15.808  10.631
17565W        W89825  21.079  23.014   0.077
17566W        W89826   1.867  44.007  13.334
17567W        W89827  40.332  30.494   3.639
17568W        W89828  34.964  28.083   0.810
17569W        W89829  38.889   5.204   1.193
17570W        W89830   5.373   8.692   1.325
17571W        W89831  11.636  22.612   0.660
17572W        W89832  29.648   6.253   2.771
17573W        W89833   9.717  26.107  11.875
17574W        W89834  27.596  17.245   0.474
17575W        W89835  20.558  18.788   3.401
17576W        W89836  15.709   2.754  13.571
17577W        W89837  27.063   4.028   1.721
17578W        W89838   2.955  39.500  13.515
17579W        W89839  32.588   8.331  14.023
17580W        W89840  20.601  40.755   3.442
17581W        W89841  25.158  17.718  13.051
17582W        W89842  40.488   9.408   3.290
17583W        W89843  24.974  21.627   2.724
17584W        W89844   7.251  10.386  12.541
17585W        W89845  41.705   2.530   0.635
17586W        W89846  33.088  37.771   2.801
17587W        W89847  12.414   3.383   5.068
17588W        W89848  23.762  20.636  12.037
17589W        W89849  13.811  42.837   1.845
17590W        W89850  11.818   8.154   1.311
17591W        W89851  22.899  32.717   2.801
17592W        W89852   3.408   0.437   0.763
17593W        W89853  18.854  36.142  14.445
17594W        W89854  38.415  11.077   2.322
17595W        W89855  29.112  32.176  14.869
17596W        W89856  39.903  43.634  12.426
17597W        W89857  35.405  23.055  13.328
17598W        W89858   2.808  30.059  14.035
17599W        W89859  39.017  14.284  10.566
17600W        W89860  31.593   3.816   0.853
17601W        W89861  41.655  32.014   4.685
17602W        W89862  22.562   3.163   1.123
17603W        W89863   6.789   1.376   4.171
17604W        W89864  35.032  23.917   1.817
17605W        W89865  35.919  13.417   0.288
17606W        W89866  19.334  28.640  14.926
17607W        W89867  16.181  43.253  13.510
17608W        W89868  44.946  26.974  13.831
17609W        W89869  41.938  21.258   2.878
17610W        W89870  28.422  20.119   2.215
17611W        W89871  32.069  37.173  11.680
17612W        W89872   4.522   5.209  10.628
17613W        W89873  18.545   2.122  14.333
17614W        W89874  31.863  43.464   3.309
17615W        W89875   0.846  21.043   3.172
17616W        W89876  42.477  39.609  14.468
17617W        W89877  12.459  28.098   5.640
17618W        W89878   4.708  25.368  14.770
17619W        W89879   2.479   6.040  10.176
17620W        W89880  31.423  25.019  11.622
17621W        W89881  30.419  22.575  13.812
17622W        W89882  44.963  36.078   4.526
17623W        W89883  42.041  12.134   3.300
17624W        W89884  17.250  29.556   2.905
17625W        W89885  34.042  26.442   0.860
17626W        W89886   4.545  40.696   1.068
17627W        W89887  12.833  42.319  13.081
17628W        W89888  29.122  31.984   3.299
17629W        W89889  40.778  28.896  10.696
17630W        W89890  29.813  12.753  13.906
17631W        W89891   9.413  11.676   0.051
17632W        W89892   7.227  44.333  14.742
17633W        W89893  35.067  20.575   0.490
17634W        W89894  41.469  13.808  10.990
17635W        W89895  26.255  13.807   4.666
17636W        W89896  22.039   3.829  14.385
17637W        W89897   8.144   8.038  14.977
17638W        W89898  26.404  43.618  11.651
17639W        W89899  21.221   7.458  12.956
17640W        W89900  28.292  12.210   3.671
17641W        W89901  32.445  13.686   2.919
17642W        W89902  26.905  19.479  14.252
17643W        W89903  26.500  13.955  14.726
17644W        W89904  29.069   3.365  13.075
17645W        W89905  13.892  10.729  13.290
17646W        W89906  35.893  38.503   4.577
17647W        W89907  29.045  34.153  12.868
17648W        W89908   0.232  14.568  11.148
17649W        W89909  18.140  38.126  12.061
17650W        W89910  31.100  19.053  13.278
17651W        W89911  33.318  24.008  14.245
17652W        W89912   4.210   5.795  14.853
17653W        W89913  12.749  33.788  13.512
17654W        W89914  23.661  18.033   2.838
17655W        W89915   9.597   1.600  14.405
17656W        W89916  28.184  29.987  10.640
17657W        W89917  23.737   3.026   1.875
17658W        W89918   4.614  38.445   0.774
17659W        W89919  33.075  43.254   1.889
17660W        W89920  22.082   4.793  14.572
17661W        W89921  33.126  28.645   0.806
17662W        W89922  43.756   0.777  14.338
17663W        W89923  20.999  26.411   1.413
17664W        W89924  20.327  38.355  12.997
17665W        W89925  38.883   1.945  10.305
17666W        W89926  15.698  23.459   3.668
17667W        W89927  28.684  18.628  12.527
17668W        W89928   4.264   8.366  11.994
17669W        W89929  35.897  34.915   3.219
17670W        W89930  11.778  14.067   2.735
17671W        W89931  37.037  13.500  11.072
17672W        W89932  17.514  13.587  12.695
17673W        W89933  32.565  27.418  13.022
17674W        W89934  19.038  18.777  11.759
17675W        W89935  23.002  28.226   2.373
17676W        W89936  12.633   8.391  14.238
17677W        W89937  21.272  20.473  14.494
17678W        W89938  14.519   4.894  12.207
17679W        W89939  34.124  26.854   2.621
17680W        W89940  33.572   0.354  14.852
17681W        W89941  18.302  30.599  14.461
17682W        W89942  10.698  40.726  14.840
17683W        W89943  34.793  17.364   1.420
17684W        W89944  13.583   6.238  14.019
17685W        W89945   6.172   1.364  11.359
17686W        W89946  33.192  44.327  11.465
17687W        W89947  10.222  23.494  10.769
17688W        W89948  17.509   4.371  14.793
17689W        W89949  13.309  14.660   0.422
17690W        W89950  44.040  24.681  11.597
17691W        W89951  27.129  16.179  10.596
17692W        W89952  32.576  34.076   0.839
17693W        W89953  34.630  32.698   0.359
17694W        W89954  26.634   4.202  13.951
17695W        W89955   6.341  25.934   0.249
17696W        W89956  12.343  21.008  14.214
17697W        W89957  40.417  34.026  12.078
17698W        W89958   9.448  23.150  13.051
17699W        W89959  33.910  38.766  10.613
17700W        W89960  23.071  30.674   4.689
17701W        W89961  27.557  14.263   4.172
17702W        W89962  28.202  16.944  13.900
17703W        W89963  22.206  17.025   2.182
17704W        W89964  23.110   8.784   4.729
17705W        W89965  23.100  41.472  14.717
17706W        W89966  16.766  39.397   4.202
17707W        W89967   7.717  24.855  13.107
17708W        W89968  29.209   7.330  13.531
17709W        W89969  28.067  21.858   4.595
17710W        W89970   9.334   3.173  14.589
17711W        W89971  44.824   1.723  14.713
17712W        W89972  25.102  19.519  14.033
17713W        W89973  11.658  32.076   4.169
17714W        W89974  37.738  43.553   0.584
17715W        W89975  33.931  38.527   3.935
17716W        W89976  26.779  42.557   3.837
17717W        W89977   4.724  16.592   1.250
17718W        W89978  36.195  36.969  10.853
17719W        W89979   9.783  24.475  14.900
17720W        W89980  13.858  29.439  13.461
17721W        W89981  11.060  26.291  11.091
17722W        W89982  19.768  35.766  14.452
17723W        W89983  30.653  36.967   4.310
17724W        W89984  22.687  12.396  13.077
17725W        W89985  23.161  24.071   1.798
17726W        W89986  36.832   8.267  14.862
17727W        W89987  26.048  38.711   0.379
17728W        W89988  29.235  22.101   2.677
17729W        W89989   7.274  19.965   2.230
17730W        W89990  29.731   1.512   3.816
17731W        W89991  33.822  41.371  10.563
17732W        W89992  20.736  32.531  14.512
17733W        W89993  12.172  16.360   2.692
17734W        W89994  20.762  20.555  14.551
17735W        W89995  42.272  15.232  13.503
17736W        W89996  10.567  17.559   1.240
17737W        W89997   8.764  16.137  14.956
17738W        W89998  34.300  18.445   0.066
17739W        W89999  40.510  24.037   0.836
17740W        W90000  39.874  43.982   1.410
17741W        W90001  41.861   8.627   4.263
17742W        W90002  19.061  34.516   2.500
17743W        W90003  22.104  36.018  12.393
17744W        W90004  42.916  16.621   2.261
17745W        W90005   1.588  17.232  12.874
17746W        W90006  21.054   5.669  11.477
17747W        W90007  25.581  31.747   3.100
17748W        W90008  26.319   8.498  11.920
17749W        W90009   9.974  16.337  12.666
17750W        W90010  14.378  44.704  14.066
17751W        W90011  40.357  40.669   3.686
17752W        W90012  32.413  41.251   0.835
17753W        W90013  37.901  23.839   2.406
17754W        W90014  23.910  40.239  14.353
17755W        W90015   7.331  10.140   3.701
17756W        W90016  21.421   3.180  11.171
17757W        W90017  24.600  15.739  13.819
17758W        W90018  33.909   8.856  11.512
17759W        W90019  14.272  38.033  11.409
17760W        W90020   5.235   1.898   3.544
17761W        W90021  13.988   3.412   3.158
17762W        W90022  24.259   7.510   1.426
17763W        W90023  32.897  38.555   4.022
17764W        W90024  16.753   2.416  14.913
17765W        W90025   3.389  14.562   3.716
17766W        W90026   6.817  41.669  13.858
17767W        W90027  36.123  33.629   3.839
17768W        W90028  42.506   5.288  11.391
17769W        W90029  37.293   2.458  14.823
17770W        W90030  23.061   3.600   1.882
17771W        W90031  41.587  10.145  12.534
17772W        W90032   6.429  15.631   3.544
17773W        W90033  38.648  31.512  14.363
17774W        W90034  39.658  35.239  14.381
17775W        W90035  22.775   0.267  13.353
17776W        W90036  31.144   2.905   4.277
17777W        W90037  30.503   6.680   3.715
17778W        W90038  40.922  20.502   1.868
17779W        W90039   0.395  33.411  12.610
17780W        W90040   7.997   1.894  10.642
17781W        W90041  23.971  31.995  14.040
17782W        W90042  23.080  26.376   0.459
17783W        W90043  44.738  16.176  14.975
17784W        W90044  22.011   2.902  12.586
17785W        W90045  24.006  32.557  10.488
17786W        W90046   3.370  10.552   0.467
17787W        W90047  41.538  22.251  14.875
17788W        W90048   5.264  34.907   1.163
17789W        W90049  17.279  18.286   3.707
17790W        W90050  14.581   3.985   3.754
17791W        W90051   9.684   8.997   4.884
17792W        W90052   1.258  21.198  14.481
17793W        W90053   7.284   5.050   3.195
17794W        W90054  23.014  34.425   3.166
17795W        W90055   6.181   4.089   4.209
17796W        W90056  30.108  44.335  12.981
17797W        W90057  42.519  44.374  13.939
17798W        W90058  23.264  37.874   3.827
17799W        W90059  42.436  13.235  10.753
17800W        W90060  27.086  31.371  11.170
17801W        W90061  36.476  36.646   4.821
17802W        W90062  44.767  24.239  12.374
17803W        W90063  30.542  10.452   0.025
17804W        W90064   5.594  28.203   4.202
17805W        W90065   5.122   7.190   1.581
17806W        W90066  24.611  28.542   0.365
17807W        W90067  35.334  23.973   1.404
17808W        W90068  44.910  40.029  14.789
17809W        W90069  21.309  39.914   3.854
17810W        W90070   5.014   4.425  11.133
17811W        W90071  38.805   9.591   4.558
17812W        W90072   8.460  37.767   2.727
17813W        W90073  15.818  35.437   1.306
17814W        W90074  40.827  13.723  12.644
17815W        W90075  17.939  39.557   3.350
17816W        W90076  11.377  43.412  14.513
17817W        W90077  43.700  16.017  13.247
17818W        W90078  16.484  20.588   1.213
17819W        W90079  10.428  36.292   1.318
17820W        W90080  14.260  39.414  11.448
17821W        W90081  27.845   8.365   3.270
17822W        W90082  39.105  38.864   5.063
17823W        W90083   5.120  39.304  12.450
17824W        W90084  41.480  33.899   4.567
17825W        W90085  22.800  43.297  13.790
17826W        W90086   0.573  14.230   1.726
17827W        W90087  25.196  18.735  12.473
17828W        W90088  21.923  39.880  12.413
17829W        W90089  36.145  26.064   3.696
17830W        W90090  39.707  23.119   2.837
17831W        W90091   3.834  34.624  11.364
17832W        W90092  32.866  31.946  11.089
17833W        W90093  18.582   9.839  10.211
17834W        W90094  21.170  36.689   3.742
17835W        W90095  16.123   5.446  11.097
17836W        W90096  25.202  40.876   1.824
17837W        W90097  41.600  17.796  10.582
17838W        W90098  14.247  28.351  13.250
17839W        W90099  16.087  11.416  10.605
17840W        W90100  32.361  14.992   2.654
17841W        W90101   7.190  43.990   2.584
17842W        W90102  20.739  20.331  13.125
17843W        W90103  17.132   1.005   1.893
17844W        W90104  17.503  39.830  14.104
17845W        W90105  12.811  38.854   2.276
17846W        W90106  37.704  10.062   4.184
17847W        W90107  12.271  31.134  13.853
17848W        W90108  19.169  44.346   1.981
17849W        W90109  25.618  19.726  13.284
17850W        W90110  18.266  37.721   4.093
17851W        W90111  12.151  23.716   4.968
17852W        W90112  44.368  38.486   0.350
17853W        W90113  39.097  40.068   4.548
17854W        W90114  30.420  20.522  11.525
17855W        W90115  44.299   3.779   1.134
17856W        W90116  17.156  41.606  11.586
17857W        W90117  32.883  39.998  10.755
17858W        W90118  33.940   7.279   1.045
17859W        W90119  21.026   3.339  13.911
17860W        W90120  21.267  28.870   1.235
17861W        W90121   7.599  16.257  12.490
17862W        W90122  20.541   7.860   0.680
17863W        W90123  41.459  12.578  12.942
17864W        W90124  28.465  13.745  13.008
17865W        W90125  30.759  37.610   3.158
17866W        W90126  34.444  19.944   4.934
17867W        W90127   4.422  28.654   0.315
17868W        W90128  44.823  14.279   4.933
17869W        W90129  12.419  35.912   4.156
17870W        W90130  32.537  27.892   3.098
17871W        W90131  25.027  21.053  14.032
17872W        W90132  13.167  29.659   0.422
17873W        W90133  33.174  21.661   0.278
17874W        W90134   5.750  22.982   1.792
17875W        W90135  12.594  22.834  14.817
17876W        W90136  35.312  26.952   1.382
17877W        W90137  43.746  28.589  10.565
17878W        W90138  16.836  11.623   1.736
17879W        W90139   8.337  14.219  10.692
17880W        W90140  13.378  31.382  13.243
17881W        W90141  27.435  36.191   3.926
17882W        W90142  32.901  30.069  13.333
17883W        W90143   1.278  11.091  13.907
17884W        W90144  38.006  31.483   2.476
17885W        W90145  37.259  11.686   4.069
17886W        W90146  17.142   7.736   5.333
17887W        W90147  23.706  32.735  12.537
17888W        W90148   1.785  43.341   4.047
17889W        W90149   9.834   5.462  14.889
17890W        W90150   6.166  34.519  12.532
17891W        W90151  21.702  34.574  11.995
17892W        W90152  24.989  37.608   1.305
17893W        W90153  17.641  27.529  11.934
17894W        W90154   6.250  27.474   0.435
17895W        W90155  34.339  34.008  12.797
17896W        W90156   5.693   9.365   2.114
17897W        W90157  43.294  31.391   3.038
17898W        W90158  35.088  20.263  11.031
17899W        W90159   6.243  30.967   1.507
17900W        W90160  43.069  30.846   1.389
17901W        W90161   0.978  34.160  10.708
17902W        W90162  14.077  43.557   0.949
17903W        W90163  26.283  22.430  13.663
17904W        W90164  16.131  30.430   4.517
17905W        W90165  31.182  12.372   2.970
17906W        W90166  19.150  26.144   4.202
17907W        W90167  17.010  38.016   1.828
17908W        W90168  33.224  42.843   3.312
17909W        W90169  41.950   5.969  12.513
17910W        W90170  21.242  22.595   0.781
17911W        W90171   7.700   9.633   1.824
17912W        W90172  38.997  37.920  14.988
17913W        W90173   5.408   3.983   2.258
17914W        W90174  24.231   3.203  12.206
17915W        W90175  39.051   6.361  13.336
17916W        W90176  33.667   7.872  10.889
17917W        W90177  30.189  13.673  14.112
17918W        W90178  27.636  24.148  14.510
17919W        W90179  34.334  27.731   1.801
17920W        W90180   5.405  36.286  11.144
17921W        W90181  40.541  38.025  11.221
17922W        W90182  35.491  28.908   1.671
17923W        W90183   0.801  26.651   3.930
17924W        W90184   3.704  11.305  10.771
17925W        W90185  39.953   4.957   0.778
17926W        W90186  43.307  44.775  13.415
17927W        W90187  42.558  24.930  12.041
17928W        W90188  17.925   8.372  12.429
17929W        W90189  31.923  43.451  13.453
17930W        W90190  12.920  22.008   3.780
17931W        W90191  34.412  30.522  12.405
17932W        W90192   6.812  40.364   0.252
17933W        W90193  15.398  40.997   4.521
17934W        W90194   0.771  44.747   2.303
17935W        W90195  26.138  40.978   9.792
17936W        W90196   2.020  42.179  12.972
17937W        W90197  21.329   1.414  14.353
17938W        W90198  41.906  10.108   4.394
17939W        W90199  32.399  20.774  13.901
17940W        W90200   1.334  13.771  10.734
17941W        W90201  19.766  13.627  11.652
17942W        W90202  36.987  31.574  13.000
17943W        W90203  40.261  28.303   1.785
17944W        W90204  17.410  26.407   2.299
17945W        W90205  24.083  17.734   4.728
17946W        W90206  34.840  39.371  14.875
17947W        W90207  35.846  28.862   2.535
17948W        W90208  37.809  16.128  12.946
17949W        W90209   9.196  17.996  13.861
17950W        W90210   3.452  37.761   4.167
17951W        W90211  20.410  40.496  12.148
17952W        W90212  24.920  40.784   0.025
17953W        W90213  21.996  18.047   1.372
17954W        W90214  38.752  22.295  11.960
17955W        W90215   2.710  32.552  10.968
17956W        W90216  39.791  39.352  10.980
17957W        W90217   3.279  15.319   4.467
17958W        W90218  28.793  33.557   4.720
17959W        W90219  25.817  18.254   2.270
17960W        W90220   6.928   7.445   3.172
17961W        W90221  16.612  11.149   1.761
17962W        W90222  30.979   5.359   2.111
17963W        W90223  30.422  21.375   5.020
17964W        W90224  17.219  16.367   4.681
17965W        W90225  27.587  36.644  12.123
17966W        W90226  31.627   1.916   3.688
17967W        W90227  24.006   8.417   2.134
17968W        W90228  39.865  15.418   2.123
17969W        W90229  21.601  10.133   4.380
17970W        W90230  12.975   3.027  13.114
17971W        W90231   9.732  42.402   3.802
17972W        W90232  31.951  20.839  11.076
17973W        W90233  26.937  33.503  14.899
17974W        W90234  21.182  16.065  13.814
17975W        W90235  34.182  34.091   0.563
17976W        W90236  31.747  19.205  11.201
17977W        W90237  37.800  41.684   4.621
17978W        W90238  35.899  19.403  11.880
17979W        W90239  30.649  14.868  14.645
17980W        W90240  24.028  16.558   1.859
17981W        W90241  29.681  31.122  10.203
17982W        W90242   2.162  35.317  14.809
17983W        W90243  39.771  27.005  11.614
17984W        W90244  21.129   1.945  14.281
17985W        W90245   5.140   7.378   0.602
17986W        W90246  17.523   3.286  13.010
17987W        W90247   1.929   3.427  11.601
17988W        W90248  34.153  21.675   1.325
17989W        W90249  28.672   5.218   3.320
17990W        W90250  29.910   5.311   2.811
17991W        W90251  35.107  15.130  11.639
17992W        W90252  10.671  39.780  14.159
17993W        W90253   3.523   3.661  12.586
17994W        W90254  12.843  37.844   2.400
17995W        W90255  12.547  23.824  13.807
17996W        W90256  26.601  33.903  14.677
17997W        W90257  43.872  11.638  12.205
17998W        W90258   3.900  36.421   2.254
17999W        W90259   3.938   6.192  11.034
18000W        W90260   5.996  34.478  14.662
18001W        W90261   1.972  36.043  13.343
18002W        W90262  25.879  25.087   4.525
18003W        W90263  21.132  33.640  13.219
18004W        W90264  12.726   7.088   4.622
18005W        W90265   6.384  26.602  13.594
18006W        W90266  32.307  38.996   4.119
18007W        W90267  30.144   7.645  14.836
18008W        W90268  30.858  11.744   5.098
18009W        W90269  13.689  43.532   4.095
18010W        W90270  19.104  10.363  13.405
18011W        W90271  28.896  39.052  14.870
18012W        W90272  24.618  32.438   3.677
18013W        W90273  23.556  32.871  11.662
18014W        W90274  38.912   2.191   5.003
18015W        W90275  42.452  12.866   1.740
18016W        W90276   5.602  35.785  14.840
18017W        W90277  18.108  13.127   4.811
18018W        W90278   4.918   1.406   2.433
18019W        W90279   3.898  44.981   2.443
18020W        W90280   5.153  27.532   2.868
18021W        W90281  29.635  26.664   2.838
18022W        W90282  10.821  10.803  12.455
18023W        W90283  37.095  44.767   2.616
18024W        W90284  34.535   1.482  12.770
18025W        W90285   6.675  17.657   2.835
18026W        W90286  15.847  19.285   1.960
18027W        W90287  25.069  44.714   4.256
18028W        W90288  43.247  38.440  13.918
18029W        W90289  44.552   8.402  14.904
18030W        W90290  38.336  37.593   3.620
18031W        W90291  22.495  44.055   1.842
18032W        W90292  19.842  12.233  12.182
18033W        W90293  43.881  41.903  13.370
18034W        W90294  12.574  15.272  12.957
18035W        W90295  11.717  31.134   2.818
18036W        W90296  21.983  34.588   1.414
18037W        W90297   0.781  29.945   2.780
18038W        W90298  39.329  24.687  11.494
18039W        W90299  32.525   3.043  10.824
18040W        W90300   8.375  10.780   1.214
18041W        W90301  39.261   0.968   1.211
18042W        W90302  43.015  43.354   2.452
18043W        W90303  28.887  15.269   4.163
18044W        W90304  25.552  32.451   2.429
18045W        W90305   2.411   3.313  10.650
18046W        W90306  24.558  29.018   2.300
18047W        W90307   4.238  22.135  12.097
18048W        W90308   4.307  34.539  12.352
18049W        W90309   2.430  13.534   0.492
18050W        W90310   5.688  14.040   0.288
18051W        W90311   9.233  31.853   0.319
18052W        W90312  13.709  16.047   2.873
18053W        W90313  40.499  43.862   4.423
18054W        W90314  24.135   8.375   3.106
18055W        W90315  31.451   4.426  11.852
18056W        W90316   7.393   8.731  13.345
18057W        W90317  33.994   2.540  12.932
18058W        W90318  25.728  43.864  12.366
18059W        W90319  26.273  29.078  13.759
18060W        W90320  33.952   9.841   4.920
18061W        W90321  14.236  13.844   1.160
18062W        W90322  17.623  20.281  13.077
18063W        W90323   3.252  23.133   2.635
18064W        W90324  44.523  19.731   2.389
18065W        W90325  18.187   5.674  12.976
18066W        W90326   9.489  37.309   4.085
18067W        W90327  37.345  26.176  11.501
18068W        W90328  28.070  37.406   1.360
18069W        W90329  20.579  34.490   2.923
18070W        W90330  29.928   3.663  11.015
18071W        W90331  30.276  26.413   3.642
18072W        W90332  31.975   7.880  12.187
18073W        W90333  25.569  25.916   1.156
18074W        W90334  30.516   5.953   1.770
18075W        W90335  22.981  29.199  10.251
18076W        W90336   8.234  14.166   2.790
18077W        W90337  13.635  38.075  10.577
18078W        W90338  35.087  19.115  10.035
18079W        W90339  31.947   2.869  13.528
18080W        W90340  38.636  11.103   0.701
18081W        W90341  24.257  29.061  10.540
18082W        W90342  40.666  15.656  14.923
18083W        W90343  33.517   8.339  11.051
18084W        W90344  23.116  37.334   4.651
18085W        W90345  39.607  36.284   3.159
18086W        W90346  22.455  25.209  12.128
18087W        W90347  16.258  11.096  12.038
18088W        W90348  20.741  21.130   4.602
18089W        W90349  31.847  38.869   3.775
18090W        W90350  16.339  44.499   1.659
18091W        W90351  19.304  34.965  14.865
18092W        W90352  27.916   8.218  12.624
18093W        W90353  26.257  36.091  13.390
18094W        W90354  26.152  21.565  10.667
18095W        W90355  42.074   8.369  11.954
18096W        W90356  28.374   5.669  12.907
18097W        W90357   0.941   7.057  14.442
18098W        W90358   8.085  43.270   3.341
18099W        W90359  34.821  42.980  13.947
18100W        W90360  17.099  29.693   4.176
18101W        W90361  26.572  42.420   1.256
18102W        W90362   3.910  40.055   2.295
18103W        W90363  29.105   8.888  12.591
18104W        W90364  15.447  42.636  13.457
18105W        W90365  16.014  41.945  13.352
18106W        W90366  26.659  33.117   2.873
18107W        W90367  26.828   5.651  12.122
18108W        W90368  28.780  29.461   0.823
18109W        W90369  31.002  33.229  12.924
18110W        W90370  21.936  11.264  14.471
18111W        W90371   0.944  26.638  14.896
18112W        W90372   4.802  23.068   4.616
18113W        W90373  19.732  12.987   1.276
18114W        W90374  20.150  32.125   3.589
18115W        W90375  29.553  40.920  13.435
18116W        W90376  36.308  40.388   1.050
18117W        W90377  27.125   9.318  12.361
18118W        W90378  25.100   3.729   3.183
18119W        W90379  27.136  32.783  14.511
18120W        W90380  16.645  15.677   2.515
18121W        W90381  21.780  17.004   2.827
18122W        W90382  15.356  28.032   0.083
18123W        W90383   5.057  28.715  11.646
18124W        W90384  14.491  36.907   4.013
18125W        W90385   2.416  33.167   0.513
18126W        W90386   0.118  11.586   1.408
18127W        W90387  42.848  17.724  14.291
18128W        W90388  29.515  23.405   3.203
18129W        W90389  44.325  25.853  13.059
18130W        W90390  44.004  24.946  13.005
18131W        W90391  25.211   1.868   2.832
18132W        W90392  14.795  32.587  11.590
18133W        W90393  39.495   4.682   3.700
18134W        W90394  27.164   8.779  14.199
18135W        W90395   0.273  12.819  11.131
18136W        W90396  44.124   2.807   0.284
18137W        W90397  33.372   7.416  13.025
18138W        W90398  10.058  21.061   2.912
18139W        W90399  30.037  43.418  11.154
18140W        W90400  32.793  34.027  10.310
18141W        W90401  10.696  28.074   3.738
18142W        W90402   8.803   5.690   2.121
18143W        W90403  16.349  33.442  11.474
18144W        W90404   0.450   9.149  11.093
18145W        W90405   3.047  39.205   5.195
18146W        W90406  16.641  40.951   3.150
18147W        W90407  31.105   6.180   4.078
18148W        W90408  21.122  29.042   2.264
18149W        W90409  33.626  43.074   4.792
18150W        W90410  33.954  12.941  11.138
18151W        W90411  16.945  41.076  10.442
18152W        W90412   6.962  34.049  12.180
18153W        W90413   3.201  14.177   0.965
18154W        W90414  14.567  26.159  14.751
18155W        W90415   3.336   5.218   3.697
18156W        W90416   1.802  25.670   4.147
18157W        W90417   1.714   5.553  13.819
18158W        W90418  12.315  40.930  12.807
18159W        W90419  43.358  38.030  12.447
18160W        W90420  18.704   9.137  13.979
18161W        W90421  34.952  12.368   2.766
18162W        W90422  12.488  42.159   4.131
18163W        W90423   9.602  12.419  13.730
18164W        W90424  37.760   3.054   0.332
18165W        W90425   8.682  26.381  13.551
18166W        W90426  36.793  17.704  11.524
18167W        W90427  12.889  24.959   0.411
18168W        W90428  12.611  19.284  10.748
18169W        W90429  10.688  24.177   3.231
18170W        W90430  26.653  31.886   0.874
18171W        W90431  44.821  31.823   1.409
18172W        W90432  22.520  37.001   1.898
18173W        W90433  39.895  43.269   3.350
18174W        W90434  16.003   5.286   3.663
18175W        W90435  21.524  14.273   3.896
18176W        W90436  27.739  21.771  14.943
18177W        W90437  18.197   6.955  12.369
18178W        W90438  36.431  23.025   2.352
18179W        W90439  34.501   1.557   0.905
18180W        W90440  41.901  29.108   0.438
18181W        W90441   6.677  14.742   0.933
18182W        W90442   2.607  42.426   1.591
18183W        W90443  20.530  41.650   1.426
18184W        W90444  24.719  13.567   1.713
18185W        W90445  13.842   9.829   1.617
18186W        W90446  41.534  36.567  10.767
18187W        W90447   8.894  41.349  13.429
18188W        W90448  42.898  15.724   3.202
18189W        W90449  28.125  15.683   1.470
18190W        W90450  15.367   6.272   2.428
18191W        W90451   4.176  10.887   1.807
18192W        W90452  11.187  17.234   4.624
18193W        W90453  37.341   8.113  11.998
18194W        W90454  30.193  19.971   3.294
18195W        W90455   9.644  30.470  13.678
18196W        W90456   0.266   1.317   0.704
18197W        W90457  23.958  44.407  10.577
18198W        W90458  34.723  18.363   1.350
18199W        W90459   8.708  34.385   3.253
18200W        W90460   4.477  13.834  13.041
18201W        W90461  28.929   7.221   4.382
18202W        W90462  24.107  19.015  11.874
18203W        W90463  26.067  17.825   2.412
18204W        W90464  37.389   0.365  12.057
18205W        W90465   3.326  22.874  10.902
18206W        W90466  32.916  29.435   4.732
18207W        W90467  27.257  41.539  12.904
18208W        W90468  18.309  44.019  12.886
18209W        W90469  33.723  24.433   0.375
18210W        W90470  35.596  31.995   2.266
18211W        W90471  23.747   3.359  12.289
18212W        W90472  41.553   7.401   2.408
18213W        W90473  13.736  22.072   4.716
18214W        W90474  34.905   4.720  14.508
18215W        W90475   9.310   5.937   1.341
18216W        W90476  14.397  39.977  13.691
18217W        W90477  43.180  19.643  12.433
18218W        W90478  37.395  17.095   0.832
18219W        W90479   8.399  38.802   2.781
18220W        W90480  44.227  10.617  14.439
18221W        W90481  40.842  13.322   1.365
18222W        W90482  11.527  43.533   4.579
18223W        W90483  27.953  16.263   2.826
18224W        W90484  13.315  12.058   3.139
18225W        W90485  17.538  14.341  11.657
18226W        W90486  18.030   2.947   1.688
18227W        W90487  31.632   0.970  14.382
18228W        W90488  15.635  40.730  11.555
18229W        W90489  38.649  24.934   2.561
18230W        W90490  23.667  13.333  12.661
18231W        W90491  36.249  21.454   0.451
18232W        W90492  33.339  41.734  12.036
18233W        W90493  10.638  42.387  14.793
18234W        W90494   8.600   6.254   5.141
18235W        W90495  43.657  21.882  13.967
18236W        W90496  37.993  11.388   3.654
18237W        W90497  33.486  15.413   1.313
18238W        W90498  24.195  32.914  14.491
18239W        W90499  11.858  37.475   1.433
18240W        W90500  31.720  10.807  13.431
18241W        W90501  39.805  20.607  13.613
18242W        W90502  38.191  11.153   0.443
18243W        W90503  18.583   6.477  11.533
18244W        W90504   0.953   3.422  12.978
18245W        W90505   9.905  40.791   0.260
18246W        W90506  30.003  43.162  10.717
18247W        W90507   5.599  25.187   1.189
18248W        W90508  24.953   8.310   0.023
18249W        W90509   0.492  33.297   2.724
18250W        W90510  22.263  18.806   5.432
18251W        W90511  39.007  32.961   4.237
18252W        W90512  10.884  17.600   3.732
18253W        W90513  44.460  24.824  13.187
18254W        W90514  33.913  22.198  12.916
18255W        W90515  42.088  37.388   3.356
18256W        W90516  42.287  21.143   0.389
18257W        W90517  32.586  37.037  10.636
18258W        W90518   2.383  38.295  14.801
18259W        W90519   6.492  27.113  10.124
18260W        W90520  23.757   1.818   3.920
18261W        W90521  13.720  30.105  10.682
18262W        W90522   8.926  32.949  12.099
18263W        W90523  33.330  12.709   1.939
18264W        W90524  34.310  34.586  11.157
18265W        W90525   0.793  44.233   2.250
18266W        W90526  23.580  21.582   0.061
18267W        W90527  44.016  11.985  14.876
18268W        W90528  27.415   8.305   1.415
18269W        W90529  28.958  44.259   1.410
18270W        W90530   1.458  30.086  10.579
18271W        W90531  32.758   4.728  13.162
18272W        W90532  28.425  14.869   0.750
18273W        W90533  29.334  17.179   1.518
18274W        W90534  32.940  15.076   3.388
18275W        W90535  21.299  10.692  13.417
18276W        W90536  26.711  38.617   4.046
18277W        W90537   1.397   9.666  12.463
18278W        W90538  13.349  39.428  12.363
18279W        W90539  43.466  29.172   3.397
18280W        W90540  42.441  29.029  13.851
18281W        W90541   1.181  20.578   0.261
18282W        W90542   5.282  16.598   2.369
18283W        W90543   0.055  19.193   0.587
18284W        W90544  13.839  20.101  13.459
18285W        W90545   9.750  30.993  10.784
18286W        W90546  34.905  12.360  11.202
18287W        W90547  34.184   3.311  13.458
18288W        W90548  44.903  41.353   0.432
18289W        W90549  44.974   0.554   0.981
18290W        W90550   6.981   0.917  11.381
18291W        W90551  28.407  19.060  12.686
18292W        W90552  33.966  29.212   4.350
18293W        W90553  36.936  29.768  11.136
18294W        W90554   4.524  35.393   2.804
18295W        W90555  37.476  39.652   4.604
18296W        W90556   7.740  22.292   0.212
18297W        W90557  12.375  42.497  13.332
18298W        W90558  33.199   9.333  14.498
18299W        W90559  16.313  43.951   2.295
18300W        W90560   1.215   6.890   1.895
18301W        W90561   9.007   0.838   2.621
18302W        W90562  36.109  27.501   1.825
18303W        W90563  27.501  18.623  11.650
18304W        W90564  35.951  28.108  12.525
18305W        W90565   9.243  34.519   2.573
18306W        W90566  18.293  37.403   0.695
18307W        W90567  14.028  36.002  14.444
18308W        W90568  12.207  10.766  11.435
18309W        W90569   6.984  24.190  14.697
18310W        W90570  24.695  36.991   0.426
18311W        W90571  31.797   5.412  14.000
18312W        W90572  11.678  10.871   0.344
18313W        W90573  29.454  30.443  12.510
18314W        W90574  24.052  44.425   0.216
18315W        W90575  23.802  33.785  11.548
18316W        W90576  19.282  16.555   1.508
18317W        W90577  15.338  24.830   2.739
18318W        W90578   3.222   5.671   1.976
18319W        W90579   4.711  26.274  14.663
18320W        W90580   7.806  20.611   0.232
18321W        W90581  28.047  32.981   2.630
18322W        W90582   0.303  22.626   0.520
18323W        W90583  13.111  36.241  12.998
18324W        W90584  23.135  29.676   1.902
18325W        W90585  15.142  42.937  12.601
18326W        W90586   7.880  23.243  14.091
18327W        W90587   2.354   5.464  14.956
18328W        W90588   5.491  20.186   3.625
18329W        W90589  29.351   3.853  14.021
18330W        W90590  40.705  37.905  11.679
18331W        W90591  44.745  24.320  10.190
18332W        W90592  26.434  17.046   2.465
18333W        W90593  39.800  10.103  12.987
18334W        W90594  37.241   1.357  10.664
18335W        W90595   3.078  34.315   0.086
18336W        W90596   2.042  23.584  14.787
18337W        W90597  28.854   0.820  12.392
18338W        W90598  44.301  37.133   5.310
18339W        W90599   0.513  19.586  13.072
18340W        W90600  24.101  28.465  11.177
18341W        W90601  39.476  11.839   3.943
18342W        W90602  18.776  35.621  14.437
18343W        W90603  18.916   7.658  12.000
18344W        W90604  34.884  18.551   0.761
18345W        W90605  13.260   7.199   0.717
18346W        W90606  24.989  41.018   2.772
18347W        W90607  25.623  30.335  10.151
18348W        W90608   8.890  13.349  13.378
18349W        W90609  39.559  21.934  10.866
18350W        W90610   8.224   7.126   3.234
18351W        W90611  17.079  10.704  11.835
18352W        W90612  31.123  30.406  13.812
18353W        W90613  44.941  40.301   4.446
18354W        W90614   9.841   0.701   1.450
18355W        W90615  18.804  43.940   1.224
18356W        W90616  21.475  26.829   4.202
18357W        W90617  34.944  24.591   1.009
18358W        W90618  41.186  39.326   2.835
18359W        W90619  40.296   9.600   2.867
18360W        W90620  13.673  21.568   1.472
18361W        W90621  35.324  18.530   3.446
18362W        W90622  22.133  16.585   0.911
18363W        W90623  29.082   4.735   1.435
18364W        W90624  20.128  19.740  11.461
18365W        W90625  38.606   4.215  10.635
18366W        W90626  26.978  40.486  10.580
18367W        W90627  29.088  11.422  11.848
18368W        W90628  19.195  44.791  13.513
18369W        W90629   1.912   8.908  14.398
18370W        W90630  26.306   5.724  12.115
18371W        W90631  37.166  35.148   2.337
18372W        W90632   2.237  41.938  11.541
18373W        W90633  25.332  11.215  13.282
18374W        W90634   4.176  19.739  12.473
18375W        W90635  11.145  25.074  14.950
18376W        W90636   0.814  39.990  11.158
18377W        W90637  15.752  24.369   2.660
18378W        W90638  14.463   2.855  14.598
18379W        W90639  42.809  42.839   4.965
18380W        W90640  26.947  20.587  13.859
18381W        W90641  11.451  18.150   2.899
18382W        W90642  28.653  30.882  12.519
18383W        W90643  29.918  43.238   3.398
18384W        W90644   4.700  36.959  10.750
18385W        W90645  14.605  28.673   4.689
18386W        W90646  40.059  17.791   2.844
18387W        W90647   2.389   4.671   1.791
18388W        W90648   0.061  35.554   2.267
18389W        W90649  28.603   3.191  10.452
18390W        W90650  39.831   0.327   3.132
18391W        W90651  24.554  37.565   2.696
18392W        W90652  18.190  17.084   4.603
18393W        W90653  20.243  20.424  12.472
18394W        W90654  16.840  39.790  14.256
18395W        W90655  38.080  44.959   2.061
18396W        W90656  33.941  25.993  11.490
18397W        W90657   0.236  39.273  14.947
18398W        W90658  39.737   4.896   2.667
18399W        W90659   4.923   4.338  11.664
18400W        W90660  19.401  29.908  11.243
18401W        W90661   7.685  29.091   4.582
18402W        W90662  26.712   9.132   0.927
18403W        W90663  38.289  11.264   4.752
18404W        W90664  18.789  15.759   3.766
18405W        W90665  20.020  22.907  12.437
18406W        W90666  19.127   6.148  13.573
18407W        W90667  44.699  43.783   0.505
18408W        W90668  21.063  11.556   2.692
18409W        W90669  34.095  40.855  11.533
18410W        W90670  23.575  39.812   3.115
18411W        W90671  17.609  22.702  14.906
18412W        W90672   0.204   8.016  13.341
18413W        W90673  15.161  11.763  11.061
18414W        W90674   7.577  35.313   2.525
18415W        W90675  17.266  20.829  12.306
18416W        W90676  19.602   3.451  12.078
18417W        W90677  39.037  29.151   0.046
18418W        W90678  25.094  18.337   0.790
18419W        W90679  21.108  22.303  14.984
18420W        W90680  23.532  19.241  13.452
18421W        W90681  15.300  29.183   1.466
18422W        W90682   6.185  30.678   5.076
18423W        W90683   9.868   1.005   0.460
18424W        W90684   2.025   5.737   4.140
18425W        W90685  27.489  23.726  13.019
18426W        W90686  16.903  31.292  12.886
18427W        W90687  39.566   3.925  10.964
18428W        W90688  29.474  18.870   4.027
18429W        W90689  10.552   6.817  11.374
18430W        W90690  35.870  43.003   5.072
18431W        W90691   3.683  13.680  14.068
18432W        W90692  10.475  44.542  14.215
18433W        W90693   4.229  37.042   1.411
18434W        W90694  44.902   4.420   1.458
18435W        W90695  29.645  30.670   3.065
18436W        W90696  23.532  42.108  11.646
18437W        W90697  12.797  13.772  10.692
18438W        W90698  13.532  25.671  11.570
18439W        W90699  27.046   2.032   3.679
18440W        W90700  37.444  19.135   1.922
18441W        W90701  27.440   0.272   4.200
18442W        W90702  13.172  34.784  11.543
18443W        W90703  38.742   7.269   4.118
18444W        W90704  18.216  22.958  12.184
18445W        W90705  27.707  16.778  13.846
18446W        W90706  22.317  37.539   0.924
18447W        W90707  36.565  14.271   5.043
18448W        W90708  38.415  40.528   4.080
18449W        W90709   2.913  18.066  13.849
18450W        W90710  30.408   3.705  13.013
18451W        W90711  20.117  18.582  12.946
18452W        W90712  34.610  38.789  12.161
18453W        W90713   4.908  10.797   0.341
18454W        W90714  22.057   5.643   0.196
18455W        W90715   9.107  44.420   3.687
18456W        W90716  36.667   5.105  11.392
18457W        W90717  21.060  18.356  10.696
18458W        W90718  30.868  16.782   3.716
18459W        W90719  23.350  36.598  14.601
18460W        W90720  34.043   3.922   3.718
18461W        W90721  39.600  37.373   1.372
18462W        W90722  11.036  28.407  13.004
18463W        W90723   7.403  27.203  12.066
18464W        W90724  27.033   2.430   2.293
18465W        W90725   8.798  20.013  14.758
18466W        W90726  17.464  20.627   1.283
18467W        W90727   2.443  39.278   0.782
18468W        W90728  34.155  38.026  11.136
18469W        W90729  23.052  25.738  10.218
18470W        W90730  29.244   3.387  14.227
18471W        W90731  19.342  15.191   4.166
18472W        W90732   0.226  38.568   3.188
18473W        W90733   0.065  12.120   4.094
18474W        W90734   9.862  35.336  10.724
18475W        W90735  21.012   3.825   0.382
18476W        W90736  37.897  42.698   3.671
18477W        W90737  22.797  40.706  11.170
18478W        W90738  32.119  34.586  13.993
18479W        W90739  22.515  24.929   2.684
18480W        W90740  44.744  28.166   3.222
18481W        W90741   7.944  18.781   1.369
18482W        W90742  13.588  21.187   4.212
18483W        W90743  44.807  32.401  12.353
18484W        W90744  37.465  10.063  10.270
18485W        W90745  27.435   4.002   4.112
18486W        W90746  23.137  27.535   3.378
18487W        W90747   5.374   3.418  12.034
18488W        W90748  13.167  15.860  13.449
18489W        W90749  37.982  29.037  12.582
18490W        W90750  41.785  33.377   4.646
18491W        W90751   3.374  11.811   2.612
18492W        W90752  11.397  30.396  14.971
18493W        W90753  11.865  12.614  14.472
18494W        W90754   3.815  30.456  10.561
18495W        W90755  35.391  26.481   2.234
18496W        W90756   1.085   6.438  11.472
18497W        W90757  44.954  38.134  11.180
18498W        W90758  26.549   8.298  14.762
18499W        W90759   7.109  35.926   0.849
18500W        W90760   8.675  35.076  12.411
18501W        W90761  10.651  17.073   2.447
18502W        W90762  23.504  10.108  11.821
18503W        W90763  24.375  25.036   5.051
18504W        W90764  11.788   1.519   2.261
18505W        W90765  21.548  44.839  13.586
18506W        W90766  23.308  34.470   1.913
18507W        W90767  35.280  25.598   3.657
18508W        W90768  30.834  39.487   3.233
18509W        W90769  17.327  21.033   3.576
18510W        W90770  39.283  30.956   0.713
18511W        W90771  11.811   2.847   1.888
18512W        W90772   3.265  13.253  12.882
18513W        W90773  23.953  22.161  13.783
18514W        W90774   2.505   3.449   4.579
18515W        W90775   7.026  28.969   3.422
18516W        W90776  36.556  10.423   0.803
18517W        W90777  20.808   9.283   4.166
18518W        W90778  20.723  33.683  10.995
18519W        W90779  15.596  41.829   1.251
18520W        W90780  40.424  20.702  12.978
18521W        W90781  20.832  38.046   3.710
18522W        W90782  32.072   1.448   4.340
18523W        W90783  17.192   4.733   3.149
18524W        W90784  43.937  22.727  13.566
18525W        W90785  13.053  34.553  10.754
18526W        W90786  33.433  30.233  10.015
18527W        W90787  33.402   9.819  12.120
18528W        W90788   8.249  39.736  14.749
18529W        W90789  33.286  31.042   4.956
18530W        W90790  15.239  38.021  12.840
18531W        W90791  11.265   3.099   3.948
18532W        W90792   1.241  11.280  11.512
18533W        W90793  31.728  33.388  10.787
18534W        W90794  39.978  14.572  13.402
18535W        W90795  42.571  29.110  14.945
18536W        W90796  36.983  43.228   1.928
18537W        W90797  10.856  37.264  13.453
18538W        W90798  38.925  20.724   1.382
18539W        W90799  37.599  23.444  10.387
18540W        W90800  43.410  43.783  14.331
18541W        W90801   0.761   1.475  11.555
18542W        W90802  10.904  11.915  13.867
18543W        W90803  13.377  26.118  12.434
18544W        W90804  36.073   3.026   0.492
18545W        W90805  12.188  44.832  13.450
18546W        W90806   9.079  29.961  10.401
18547W        W90807  20.195  32.061   2.453
18548W        W90808   3.280  17.346  11.511
18549W        W90809  11.210  40.795   4.982
18550W        W90810  17.554   2.247   3.666
18551W        W90811   4.329  15.009  10.493
18552W        W90812  43.216  35.543   3.461
18553W        W90813   0.487  22.161  10.418
18554W        W90814  24.825  32.405   0.886
18555W        W90815  30.678  30.480  14.065
18556W        W90816  40.649   0.577   2.345
18557W        W90817  34.389   1.383   1.402
18558W        W90818  25.701  21.276  10.589
18559W        W90819   9.649  41.351  11.631
18560W        W90820  17.282  32.390  13.509
18561W        W90821  23.791  41.103  14.471
18562W        W90822  15.664  25.939   4.574
18563W        W90823  21.568  25.437  12.936
18564W        W90824   5.495  20.691   4.489
18565W        W90825  42.099  41.015  14.870
18566W        W90826  30.846  19.500  13.886
18567W        W90827  31.073  18.445   4.238
18568W        W90828  15.388  40.781  12.023
18569W        W90829  21.370  16.065  11.524
18570W        W90830  31.050  39.423   3.709
18571W        W90831   9.123   5.460   0.357
18572W        W90832  18.236  30.156   4.157
18573W        W90833  23.071  27.705  11.231
18574W        W90834  44.210  26.459   3.640
18575W        W90835   1.727  41.444  11.417
18576W        W90836   8.163  31.924   4.127
18577W        W90837  41.197  29.417  11.900
18578W        W90838  17.798  18.175  11.482
18579W        W90839  23.539  30.625   4.127
18580W        W90840  27.428  15.261   4.396
18581W        W90841  44.482  10.491  14.875
18582W        W90842   1.515  10.977   1.862
18583W        W90843  32.299  39.917   1.347
18584W        W90844  20.950  42.865   0.498
18585W        W90845  23.696  37.313   0.227
18586W        W90846  29.144  30.560   1.358
18587W        W90847  20.252   5.368  14.377
18588W        W90848  25.465  14.702  11.500
18589W        W90849  37.804   0.752   4.628
18590W        W90850  16.609  43.007   1.932
18591W        W90851  27.962  31.141   3.680
18592W        W90852  24.680   8.731   4.695
18593W        W90853  14.264  37.290   2.570
18594W        W90854  17.655  15.262  10.707
18595W        W90855   4.385  43.885   1.321
18596W        W90856   9.209  16.145  11.582
18597W        W90857   5.615   5.733   3.296
18598W        W90858  41.403  25.553   2.666
18599W        W90859  40.970  19.136   1.293
18600W        W90860  12.204  12.199   2.620
18601W        W90861  10.332   5.997  14.115
18602W        W90862  30.625  10.223   3.698
18603W        W90863  18.205  24.824  14.388
18604W        W90864  26.454  43.255   0.776
18605W        W90865  24.909  27.153   2.800
18606W        W90866   3.541  25.395  11.600
18607W        W90867  44.905  16.998  14.456
18608W        W90868  24.110  25.134  10.917
18609W        W90869  26.578  19.582   1.294
18610W        W90870  28.192  20.264   0.726
18611W        W90871   6.644  10.797  10.926
18612W        W90872   6.223  32.755  11.145
18613W        W90873  22.235   2.485  13.509
18614W        W90874  26.631  32.405  13.387
18615W        W90875   1.978  42.002   2.672
18616W        W90876  20.582   4.446   3.614
18617W        W90877   6.607  28.075   5.501
18618W        W90878  30.435  26.499  11.492
18619W        W90879  10.709  12.244  14.844
18620W        W90880  19.643   0.649   0.902
18621W        W90881  36.608  40.041   0.805
18622W        W90882  20.813  43.424  13.566
18623W        W90883  38.515  42.867   0.833
18624W        W90884   2.235  18.200  11.567
18625W        W90885  37.369  17.658  10.659
18626W        W90886  43.974  15.623  14.466
18627W        W90887   7.790   3.303   3.698
18628W        W90888   1.479  22.508  12.874
18629W        W90889  10.646  40.405   3.349
18630W        W90890  22.349  25.958  14.896
18631W        W90891  31.585  12.211  11.938
18632W        W90892  22.480  33.591  11.001
18633W        W90893  20.213  21.544   4.301
18634W        W90894  18.929  13.768  13.434
18635W        W90895   2.200  16.279  13.635
18636W        W90896  18.545  20.591  14.413
18637W        W90897  13.529   6.315   2.748
18638W        W90898  10.395  44.966  11.627
18639W        W90899   4.667  25.173  10.596
18640W        W90900  35.596  17.671   4.974
18641W        W90901  36.193   6.567   0.794
18642W        W90902  43.413  40.290   2.409
18643W        W90903   8.570   4.783   0.405
18644W        W90904  19.896  12.973   3.748
18645W        W90905  39.957  23.275   0.519
18646W        W90906  28.457  38.998   0.968
18647W        W90907  26.949  36.522  13.884
18648W        W90908  24.194  14.578   0.985
18649W        W90909  15.787  24.481  12.991
18650W        W90910   8.248  23.875   3.104
18651W        W90911  25.639  31.210  14.967
18652W        W90912  25.383  21.316  14.965
18653W        W90913  30.542  17.960   3.780
18654W        W90914  13.400  39.082  13.049
18655W        W90915   2.903  34.941   0.701
18656W        W90916  27.725   6.979   4.988
18657W        W90917  29.521   5.246   1.678
18658W        W90918  24.628  21.209  12.962
18659W        W90919  18.113  42.617   4.648
18660W        W90920   4.153  11.723  11.653
18661W        W90921   7.817   0.517   3.289
18662W        W90922   1.095  38.151  14.459
18663W        W90923  27.485   0.982  12.586
18664W        W90924  20.047   5.370  11.030
18665W        W90925  44.122  15.179   3.229
18666W        W90926  31.663  13.132   2.565
18667W        W90927  22.773   1.379   1.830
18668W        W90928  15.818  21.060   2.731
18669W        W90929   9.677   5.207   2.402
18670W        W90930  36.191  15.914   3.178
18671W        W90931  21.346  31.947  14.967
18672W        W90932  37.851  12.127   0.071
18673W        W90933  39.732  36.771  13.943
18674W        W90934  11.815   5.865  13.454
18675W        W90935  18.137  37.391   4.491
18676W        W90936  19.569   1.675   4.343
18677W        W90937  13.248  14.207   0.905
18678W        W90938  35.503   5.859  10.488
18679W        W90939   9.178   9.881   0.686
18680W        W90940  19.127  42.265  11.554
18681W        W90941  26.554   4.348   4.542
18682W        W90942   3.245  32.910  12.626
18683W        W90943  19.575   7.232   1.749
18684W        W90944   1.343   8.413  12.946
18685W        W90945  29.453  38.412  14.412
18686W        W90946   8.387   6.889   0.907
18687W        W90947  23.221  24.464   4.688
18688W        W90948  26.239  17.292   0.787
18689W        W90949  41.138  36.034   1.850
18690W        W90950  14.810   8.852  13.290
18691W        W90951   7.925  25.315   2.587
18692W        W90952  14.722  20.433   2.958
18693W        W90953  44.984  17.806  12.155
18694W        W90954  20.019  29.530   2.835
18695W        W90955  35.482   6.907  13.346
18696W        W90956  20.535   3.422  14.846
18697W        W90957  28.147  39.893  11.035
18698W        W90958  19.838   6.428   0.805
18699W        W90959  14.231  33.526   3.753
18700W        W90960  21.471  28.014   5.157
18701W        W90961   0.186  20.934   1.146
18702W        W90962  34.367  23.420   1.519
18703W        W90963  29.468  12.733   1.307
18704W        W90964  13.899  14.988  14.027
18705W        W90965  27.967  28.736   5.090
18706W        W90966  23.797  15.994  13.482
18707W        W90967   9.462   3.908  12.752
18708W        W90968   8.896  14.867  11.893
18709W        W90969  39.629  28.134   1.117
18710W        W90970  18.750  27.583   2.475
18711W        W90971  35.091  23.187   4.395
18712W        W90972   4.697  17.028  11.493
18713W        W90973   4.585  41.098  13.912
18714W        W90974  15.098  40.777  13.520
18715W        W90975  18.067  33.420   3.629
18716W        W90976  25.425  22.899   0.043
18717W        W90977   0.442  14.756   3.772
18718W        W90978  36.410  17.305  13.401
18719W        W90979  33.519  38.864   5.417
18720W        W90980   7.818  28.959   2.016
18721W        W90981  13.676  17.834  11.174
18722W        W90982  36.652  26.794   1.166
18723W        W90983   1.529   2.159  13.213
18724W        W90984  42.323  39.859  11.507
18725W        W90985  20.195  29.651   4.692
18726W        W90986  10.812   2.192   0.031
18727W        W90987  31.603  20.717   3.677
18728W        W90988  11.733  14.140   4.566
18729W        W90989  40.589  39.890  10.858
18730W        W90990   1.526  26.472   3.447
18731W        W90991  32.493  36.995  13.438
18732W        W90992  42.840  39.761   4.693
18733W        W90993   2.460   3.489   0.567
18734W        W90994   7.313  43.254   3.096
18735W        W90995   1.452  43.738   0.973
18736W        W90996  31.874  11.101  13.812
18737W        W90997  26.381  19.678  10.188
18738W        W90998   0.454  14.334  12.473
18739W        W90999   9.945  32.384  14.943
18740W        W91000  12.811  40.265  11.932
18741W        W91001  14.632  33.092  10.414
18742W        W91002   3.908   7.901   0.714
18743W        W91003  22.585  16.168  10.804
18744W        W91004   3.358  10.680   3.556
18745W        W91005  15.967   6.822  14.361
18746W        W91006  22.990  16.622   0.776
18747W        W91007  12.767  19.159  13.337
18748W        W91008  37.902  41.248  10.274
18749W        W91009  27.432   9.806   4.806
18750W        W91010  24.477  21.705   1.459
18751W        W91011  41.732  34.446   3.285
18752W        W91012  14.235   6.616  11.961
18753W        W91013  12.126  35.583   1.362
18754W        W91014  10.170  36.056   3.741
18755W        W91015  17.677   6.359  10.831
18756W        W91016  25.784  33.165   4.218
18757W        W91017   5.738   4.174   2.672
18758W        W91018  35.303  32.914   4.738
18759W        W91019   8.125  15.391  12.264
18760W        W91020  39.142  11.529   4.217
18761W        W91021   4.353   1.581   2.677
18762W        W91022  18.664  29.894   3.295
18763W        W91023  39.384  17.327   1.277
18764W        W91024  14.460  38.914   4.917
18765W        W91025  41.550  26.038   2.847
18766W        W91026  13.223  32.201   4.196
18767W        W91027  23.183   2.158  13.390
18768W        W91028  26.814  15.693   1.793
18769W        W91029  22.263  44.365  11.005
18770W        W91030  22.526  12.714   2.707
18771W        W91031  32.912  12.700  12.638
18772W        W91032  34.616  43.588   0.884
18773W        W91033  26.043  18.564  10.667
18774W        W91034  26.463  19.011   4.004
18775W        W91035  41.465  15.188   0.264
18776W        W91036   3.228  40.718  13.912
18777W        W91037  19.136   5.358  14.353
18778W        W91038   1.414  26.541  13.319
18779W        W91039   1.248   6.890  14.052
18780W        W91040  26.545  29.504  13.597
18781W        W91041  30.565  12.432   4.634
18782W        W91042  24.928   3.772   3.663
18783W        W91043  12.742  26.471  13.479
18784W        W91044  44.337  24.924   1.700
18785W        W91045  30.653  25.453  10.781
18786W        W91046  22.266  19.870  11.153
18787W        W91047  30.113  16.714   1.019
18788W        W91048  27.446  36.657   0.986
18789W        W91049   1.205  12.291   1.826
18790W        W91050   7.194   7.726  13.415
18791W        W91051  43.909  13.382  10.733
18792W        W91052  27.975   9.903  14.229
18793W        W91053  26.237  14.348  10.770
18794W        W91054  41.858  39.067   1.870
18795W        W91055   8.252  44.670  11.152
18796W        W91056  24.125  34.829   0.934
18797W        W91057  34.962   5.089   5.119
18798W        W91058  22.644  11.753   3.638
18799W        W91059  21.316  19.004   9.835
18800W        W91060   5.887   4.286  14.772
18801W        W91061  30.474  18.699   2.900
18802W        W91062  13.738  15.400  12.516
18803W        W91063  20.257  41.489   3.705
18804W        W91064  31.612  44.693   3.715
18805W        W91065  43.503  27.938  11.744
18806W        W91066  18.349   4.112   2.880
18807W        W91067  15.022   6.194  14.624
18808W        W91068  14.256   2.444   2.543
18809W        W91069  14.215  30.447   5.447
18810W        W91070   8.837  36.481   3.492
18811W        W91071   4.004  34.543  11.851
18812W        W91072  24.468  11.231  10.745
18813W        W91073  24.223  23.328   0.194
18814W        W91074  41.979  36.009   1.833
18815W        W91075  40.752   4.732  11.521
18816W        W91076   8.963  44.985  13.081
18817W        W91077   3.867  42.192  11.211
18818W        W91078  26.957  16.373   2.086
18819W        W91079  10.756  24.922  13.614
18820W        W91080  31.193  16.306   3.141
18821W        W91081  20.737  25.505  12.152
18822W        W91082   9.605  30.131   0.415
18823W        W91083  31.105  27.446   3.214
18824W        W91084  27.654  18.746   0.369
18825W        W91085  25.404   0.772  14.284
18826W        W91086  24.105  28.443   1.201
18827W        W91087  35.203   5.641   0.641
18828W        W91088  33.834  10.379  11.165
18829W        W91089   9.440   8.289   0.776
18830W        W91090   6.971   6.293   2.273
18831W        W91091  36.829  21.510   2.782
18832W        W91092   9.661   0.846   4.141
18833W        W91093  14.259  14.573  14.058
18834W        W91094  41.154  21.552  13.353
18835W        W91095  27.620   8.787  13.469
18836W        W91096  42.350   0.107   0.057
18837W        W91097  22.665  14.380  14.348
18838W        W91098  16.300  32.733  11.946
18839W        W91099  25.596  37.504  12.384
18840W        W91100   1.416  32.444  10.718
18841W        W91101  23.424  28.604   0.429
18842W        W91102  15.175  36.790   0.111
18843W        W91103  26.096  33.434   3.064
18844W        W91104  26.099  40.067   0.826
18845W        W91105  44.354  33.886  13.176
18846W        W91106  24.084   5.164  13.012
18847W        W91107  24.867  40.326   3.362
18848W        W91108  33.505  39.283  12.432
18849W        W91109  13.645  25.461  12.983
18850W        W91110  16.709  27.964   4.340
18851W        W91111  42.407  36.227   3.189
18852W        W91112   0.438  15.620  14.516
18853W        W91113  10.564  23.294  14.719
18854W        W91114  16.315   4.556  11.563
18855W        W91115  32.709  33.118  13.457
18856W        W91116  23.217  32.462  12.530
18857W        W91117   7.656  43.482  13.503
18858W        W91118  24.916  11.707   1.627
18859W        W91119  38.832  34.594   1.739
18860W        W91120  10.857  27.032   4.667
18861W        W91121  36.378  40.381   5.096
18862W        W91122   4.241  40.609  14.747
18863W        W91123   3.501  27.734  14.061
18864W        W91124   3.740   9.374   0.555
18865W        W91125  19.729  17.614  14.929
18866W        W91126  12.261   4.854   2.911
18867W        W91127  16.702  15.677   3.048
18868W        W91128  36.573  13.279   4.647
18869W        W91129  32.559  21.197   2.372
18870W        W91130  37.808  31.638  14.334
18871W        W91131  39.374  16.152  10.654
18872W        W91132   9.239  19.256   2.404
18873W        W91133  13.421  35.630   4.288
18874W        W91134  17.912  11.788   2.623
18875W        W91135  43.490  29.391  14.469
18876W        W91136   1.731  17.181   0.117
18877W        W91137   1.429  30.926   0.310
18878W        W91138  21.623  20.030   0.171
18879W        W91139  25.594   2.981  11.486
18880W        W91140   3.467  18.976  11.052
18881W        W91141   0.787  26.977  13.740
18882W        W91142  13.846   9.979  13.775
18883W        W91143  23.615   7.641   2.061
18884W        W91144  23.716   0.040   3.165
18885W        W91145  36.895  42.854  10.803
18886W        W91146   5.498  23.794  14.564
18887W        W91147  18.090  33.254   4.710
18888W        W91148  23.536  22.174   1.723
18889W        W91149  33.715  23.721  10.192
18890W        W91150   2.361  43.884  13.441
18891W        W91151  28.157  43.017   0.331
18892W        W91152  30.068  16.501   2.987
18893W        W91153   0.424  12.264  11.122
18894W        W91154  29.108  44.477  12.426
18895W        W91155   0.267  16.153  12.391
18896W        W91156  20.946  42.836   1.044
18897W        W91157   2.394  18.962   1.313
18898W        W91158  12.297   0.256   0.999
18899W        W91159  43.423  40.715  13.370
18900W        W91160  10.073  25.671   1.309
18901W        W91161  39.928  38.302   0.006
18902W        W91162   5.836  44.979   4.628
18903W        W91163  36.893  19.105   0.255
18904W        W91164  11.837  40.869   3.197
18905W        W91165   6.753  32.967   0.778
18906W        W91166  23.646  23.394   2.509
18907W        W91167  20.243   7.834   5.022
18908W        W91168   5.419   0.366   0.020
18909W        W91169   1.957  17.584  10.392
18910W        W91170  36.816   0.510   4.699
18911W        W91171   7.866  12.078  11.589
18912W        W91172  41.260  16.595  12.941
18913W        W91173  19.691  31.659  14.263
18914W        W91174   6.523  18.027   0.323
18915W        W91175  30.754  42.408   2.913
18916W        W91176  17.197  44.487   4.359
18917W        W91177  37.149  10.232   2.806
18918W        W91178  12.394  25.075   1.288
18919W        W91179  33.058   5.773  14.935
18920W        W91180   8.537  13.756  13.439
18921W        W91181  26.159  40.038   3.584
18922W        W91182  22.248  28.232  12.583
18923W        W91183  28.982  12.246  10.296
18924W        W91184  10.886  26.554   3.047
18925W        W91185   7.219  31.633   0.363
18926W        W91186   1.837  37.888   3.280
18927W        W91187  10.483  42.867   4.022
18928W        W91188  20.085  11.817  13.823
18929W        W91189  33.632  21.658  11.186
18930W        W91190  27.516   3.925  12.908
18931W        W91191  14.746   1.950   4.562
18932W        W91192  15.784   3.609  14.607
18933W        W91193  27.133  25.045  10.714
18934W        W91194  31.223   2.861  12.727
18935W        W91195  36.390  22.464   4.756
18936W        W91196  14.346  13.073   4.971
18937W        W91197  33.522  37.856  14.906
18938W        W91198   2.056   0.852   0.764
18939W        W91199  31.528   5.391  14.431
18940W        W91200  42.997  33.505   1.159
18941W        W91201  25.107  32.743  14.219
18942W        W91202  32.650  18.615  12.203
18943W        W91203  26.756   5.209   4.549
18944W        W91204  22.688  17.103   2.747
18945W        W91205  14.010  14.554   4.658
18946W        W91206   3.855  27.048  10.347
18947W        W91207  30.872  14.483  13.335
18948W        W91208   5.434  17.735  14.897
18949W        W91209  21.992  13.770  14.673
18950W        W91210  36.242   4.686   5.466
18951W        W91211  26.956  42.154   3.303
18952W        W91212  38.005  33.151  14.224
18953W        W91213  21.580   2.216  14.867
18954W        W91214  14.617  22.411  12.429
18955W        W91215  27.465  27.097   2.444
18956W        W91216  14.823  24.523  12.032
18957W        W91217  35.154   6.913   2.584
18958W        W91218  42.055  23.364   2.374
18959W        W91219  30.824  43.933  13.857
18960W        W91220  22.992  18.778   0.884
18961W        W91221  15.283  34.118   1.422
18962W        W91222  16.344  24.126  10.681
18963W        W91223  12.336  16.371   1.396
18964W        W91224   9.671  30.263  11.749
18965W        W91225  20.285   3.152   1.943
18966W        W91226  33.976  30.880   2.896
18967W        W91227  16.720  26.727   1.738
18968W        W91228  37.365  38.867  10.969
18969W        W91229  19.524  13.658   3.658
18970W        W91230  38.288   8.757   4.766
18971W        W91231  38.268   2.271   2.713
18972W        W91232  38.495  38.663   2.223
18973W        W91233  17.804  20.474  10.730
18974W        W91234  21.677   5.993   0.030
18975W        W91235  10.875  43.398  12.058
18976W        W91236  25.171  37.839  10.706
18977W        W91237  13.630  18.291   1.001
18978W        W91238   4.530  34.382   1.398
18979W        W91239  30.394   1.185  12.970
18980W        W91240  35.518  22.681   0.382
18981W        W91241  21.880  23.432  10.766
18982W        W91242   0.996  22.600   4.498
18983W        W91243   7.288  44.339   2.225
18984W        W91244  43.448  17.530   4.116
18985W        W91245  29.131  29.474   1.477
18986W        W91246   7.699  18.148   4.166
18987W        W91247  11.385  24.099  13.843
18988W        W91248  24.599  20.531   0.416
18989W        W91249  10.264  12.144   2.884
18990W        W91250  13.766   0.403   3.166
18991W        W91251   4.379  41.366  12.704
18992W        W91252  27.289  41.134   9.675
18993W        W91253  42.006  33.144   3.182
18994W        W91254  17.559  16.571  14.903
18995W        W91255   4.768  26.773  11.595
18996W        W91256  38.537  16.881  11.073
18997W        W91257   8.377  32.722   4.586
18998W        W91258  17.189  22.685  13.383
18999W        W91259  36.531   4.369  11.729
19000W        W91260  14.813   0.072   0.425
19001W        W91261   9.271  13.396  13.741
19002W        W91262  23.000  15.779   4.685
19003W        W91263  28.910  18.457  11.646
19004W        W91264  13.082   5.138  14.865
19005W        W91265  27.430  25.689   3.769
19006W        W91266   7.214  34.603   2.484
19007W        W91267  43.924  32.534   1.531
19008W        W91268  31.213  44.521  11.025
19009W        W91269  17.340  41.968   3.142
19010W        W91270  19.838  23.002  11.957
19011W        W91271   9.730  34.865  12.562
19012W        W91272   2.707  32.154  13.010
19013W        W91273  11.908   3.809   0.533
19014W        W91274  41.430   9.876   3.244
19015W        W91275  34.215  24.209   0.500
19016W        W91276   4.160  40.000  14.347
19017W        W91277  24.497  38.147  10.970
19018W        W91278  36.350  44.989  14.766
19019W        W91279  29.478   2.381   2.309
19020W        W91280   9.622  29.617   1.326
19021W        W91281   3.846  11.019  11.183
19022W        W91282   4.241  31.622  13.689
19023W        W91283  21.205  19.271  13.296
19024W        W91284  19.490   6.181   1.088
19025W        W91285   9.354   5.362   3.724
19026W        W91286   0.818  10.739   2.146
19027W        W91287   2.822  33.650   5.039
19028W        W91288  12.516  39.538   2.891
19029W        W91289  33.830  19.154   5.192
19030W        W91290  36.554   9.849   3.963
19031W        W91291  38.417  23.609   3.593
19032W        W91292  36.561   1.156   0.787
19033W        W91293  36.457  21.099   0.757
19034W        W91294  37.961   4.339  12.561
19035W        W91295  10.218  14.814  14.431
19036W        W91296   3.496   9.343   3.614
19037W        W91297  32.636  13.089  11.604
19038W        W91298  12.809  18.041   3.342
19039W        W91299  19.202   1.581   2.607
19040W        W91300  33.573  41.582  13.943
19041W        W91301  20.715  14.587   1.525
19042W        W91302  17.276  11.561  11.444
19043W        W91303  39.916  24.403   2.641
19044W        W91304  40.729   7.392   3.122
19045W        W91305  26.721  28.706   0.577
19046W        W91306  38.837  13.057  10.668
19047W        W91307   2.856  32.989  11.180
19048W        W91308   1.156  41.286  14.710
19049W        W91309  39.507   1.715   1.692
19050W        W91310  26.756  21.065  13.802
19051W        W91311  30.738  35.120   0.446
19052W        W91312   2.398  28.141   2.331
19053W        W91313  29.875  40.433   2.382
19054W        W91314  43.731   4.012  11.621
19055W        W91315  27.605  17.978   1.201
19056W        W91316   2.835  32.046   4.387
19057W        W91317  23.040  19.410  14.897
19058W        W91318  22.318  43.271   4.513
19059W        W91319   1.811  13.181   1.597
19060W        W91320   9.692  10.573  11.122
19061W        W91321   0.417  32.238  13.542
19062W        W91322  30.643  39.085   2.143
19063W        W91323  20.835   6.629  11.819
19064W        W91324   2.977  40.057  10.787
19065W        W91325  19.919   5.108  14.104
19066W        W91326  41.884  43.054  13.960
19067W        W91327   2.255  36.809   4.152
19068W        W91328  39.508  32.282   4.035
19069W        W91329  11.163  30.480  13.979
19070W        W91330  26.930  35.864   2.718
19071W        W91331   1.764  33.256  10.383
19072W        W91332  22.974  20.796   2.811
19073W        W91333   1.621   5.772   0.870
19074W        W91334  19.201  20.993   3.681
19075W        W91335  17.704  25.596  13.314
19076W        W91336  20.266   3.340  14.430
19077W        W91337  11.206  16.743   4.792
19078W        W91338  20.935  43.798  11.247
19079W        W91339  18.582  23.029   3.249
19080W        W91340   8.413  20.461   2.361
19081W        W91341  38.072  26.694   3.644
19082W        W91342  30.023  44.746   4.337
19083W        W91343  30.900  31.510   5.369
19084W        W91344  19.469  25.148  14.244
19085W        W91345   4.093  12.292   2.208
19086W        W91346  24.266  43.218   1.131
19087W        W91347  26.411  24.460  11.994
19088W        W91348  38.544  39.845  11.907
19089W        W91349  21.340  43.036  14.403
19090W        W91350   5.775  26.532   3.334
19091W        W91351  29.335  31.404   4.569
19092W        W91352  11.757  37.964   3.688
19093W        W91353  36.306  20.304   1.404
19094W        W91354   9.817  32.536   3.133
19095W        W91355   2.076  13.036  10.771
19096W        W91356  43.598   7.498   2.359
19097W        W91357   6.902  38.663   2.641
19098W        W91358   4.236  10.117  14.721
19099W        W91359  32.797   7.709  11.057
19100W        W91360  11.885  38.281   1.928
19101W        W91361  42.508   4.009  14.633
19102W        W91362  10.042  14.405   3.883
19103W        W91363  41.802  17.262  13.121
19104W        W91364   7.704  39.957   4.617
19105W        W91365  27.689  29.089   0.307
19106W        W91366  32.191  22.614   1.193
19107W        W91367  32.540  36.921   4.573
19108W        W91368   2.897  20.856  14.909
19109W        W91369   0.429  25.312  14.949
19110W        W91370  24.283  17.772  14.431
19111W        W91371  42.005  20.565  11.627
19112W        W91372   2.444  16.585   0.044
19113W        W91373   9.208  16.256   2.160
19114W        W91374   7.434  32.483  12.113
19115W        W91375   4.650  38.021   3.689
19116W        W91376  44.523  11.314  13.725
19117W        W91377  42.797   2.212  14.398
19118W        W91378  18.679  29.892   4.170
19119W        W91379  23.477   7.781  12.052
19120W        W91380   6.016   5.623  11.943
19121W        W91381  32.636  10.440  13.435
19122W        W91382  31.032  28.973   2.430
19123W        W91383  37.470   0.179   3.302
19124W        W91384  23.997  30.584  11.007
19125W        W91385   0.867   5.339   1.280
19126W        W91386  30.929   0.304   2.008
19127W        W91387   2.918  32.993   1.784
19128W        W91388  26.717  43.389   3.696
19129W        W91389  28.858  34.540  12.096
19130W        W91390  18.526  40.267   3.101
19131W        W91391  14.814  23.105   1.702
19132W        W91392  28.548   4.800   2.612
19133W        W91393  37.756  38.971   1.366
19134W        W91394  13.615  27.608  13.249
19135W        W91395  14.276  43.082   0.889
19136W        W91396  20.571  41.255   1.089
19137W        W91397   3.464   5.320  13.838
19138W        W91398  27.619   4.243  10.611
19139W        W91399  20.748  18.956  11.704
19140W        W91400  36.498   3.220  11.691
19141W        W91401  13.517  29.092  11.218
19142W        W91402  37.430   8.634   4.303
19143W        W91403  29.717  33.627  14.528
19144W        W91404   1.076   8.676  11.717
19145W        W91405  29.105  29.694  11.558
19146W        W91406  12.812  37.975   1.877
19147W        W91407   3.877  34.979   0.355
19148W        W91408  42.984   5.414  10.411
19149W        W91409  32.587  17.255  12.675
19150W        W91410   2.876  11.374  11.029
19151W        W91411  27.107  16.571   1.614
19152W        W91412   7.642  34.577  12.549
19153W        W91413  12.904   7.672   2.158
19154W        W91414   9.743  19.958  11.209
19155W        W91415  15.746   1.404   1.235
19156W        W91416   0.906  26.953  12.405
19157W        W91417   7.734   7.491   1.014
19158W        W91418  20.107  35.688  13.586
19159W        W91419  18.901  18.450   2.318
19160W        W91420  18.298  40.557   1.723
19161W        W91421  18.704  30.968   3.282
19162W        W91422  10.080   0.893  14.165
19163W        W91423   5.937   8.742  13.782
19164W        W91424  34.992   3.347  14.752
19165W        W91425  26.183  10.110  14.959
19166W        W91426  44.941  39.379  13.333
19167W        W91427  17.700  23.987  12.823
19168W        W91428  36.510  18.121  14.654
19169W        W91429   7.449  38.083   2.745
19170W        W91430   9.842   5.471   3.648
19171W        W91431  21.179  18.504  12.913
19172W        W91432  23.556  38.077   0.144
19173W        W91433  10.711  10.626  11.275
19174W        W91434  23.975  30.638  14.254
19175W        W91435  36.743  21.554   3.698
19176W        W91436  44.668   5.481   2.024
19177W        W91437  15.583  39.235  13.245
19178W        W91438  33.036   8.924   4.645
19179W        W91439   4.129  29.130  14.933
19180W        W91440   0.210  14.853  11.572
19181W        W91441   6.725  43.862  10.672
19182W        W91442  15.117  35.775  14.554
19183W        W91443   8.353  39.558   3.301
19184W        W91444  15.287  42.939   0.777
19185W        W91445  15.367  19.070  13.101
19186W        W91446  11.692  12.371   3.304
19187W        W91447  27.576   8.672   0.488
19188W        W91448  26.759   4.514  12.641
19189W        W91449  26.685   0.015  11.472
19190W        W91450   3.364  31.965   3.621
19191W        W91451  22.115  32.044   4.965
19192W        W91452  19.001  35.527   2.280
19193W        W91453  39.710   8.478  12.406
19194W        W91454  37.668   3.748   1.932
19195W        W91455  36.763  20.796  12.109
19196W        W91456  16.240  42.248   4.679
19197W        W91457  37.530  16.065  11.617
19198W        W91458  29.628  14.796  13.638
19199W        W91459  18.607  31.623   1.802
19200W        W91460  13.747  42.307   4.594
19201W        W91461   4.324  14.219   1.832
19202W        W91462  30.715   3.455  14.005
19203W        W91463  18.103  15.197  13.780
19204W        W91464   4.710   1.850  13.922
19205W        W91465  22.083  25.808   0.341
19206W        W91466  18.792   5.623   0.526
19207W        W91467  32.782  10.935  13.384
19208W        W91468  26.699  39.013  13.297
19209W        W91469   8.911  21.912   3.986
19210W        W91470  37.759  27.511  11.520
19211W        W91471   7.681  27.644  11.967
19212W        W91472  13.834  44.439  11.888
19213W        W91473  42.007  37.454  10.741
19214W        W91474  37.500  29.183  12.407
19215W        W91475  29.800  19.710   0.777
19216W        W91476   3.330  42.462   4.314
19217W        W91477  39.879   9.273   4.941
19218W        W91478  41.439  17.883  11.067
19219W        W91479  32.668  27.692   2.300
19220W        W91480  26.154  27.783  13.658
19221W        W91481  27.007  40.407   0.301
19222W        W91482   4.836  26.569  10.227
19223W        W91483   2.158   6.279   1.412
19224W        W91484   9.840  32.027   3.349
19225W        W91485  20.262  41.854  11.189
19226W        W91486  13.004  20.615   0.764
19227W        W91487   0.946   4.842   3.766
19228W        W91488  39.072  28.080   4.129
19229W        W91489  25.320  10.436   5.012
19230W        W91490  25.585  12.824  12.448
19231W        W91491   7.239  30.392   2.474
19232W        W91492  29.346  26.188   0.196
19233W        W91493  15.806   6.749   1.194
19234W        W91494   6.762  38.058  13.338
19235W        W91495  17.966  12.780  10.935
19236W        W91496   9.200   9.677  13.326
19237W        W91497   7.684  19.018   0.624
19238W        W91498   6.278  26.393  14.591
19239W        W91499  16.554  28.079   3.819
19240W        W91500  26.146  14.100   0.927
19241W        W91501  40.389  37.580  14.790
19242W        W91502  17.849   0.456  11.172
19243W        W91503  19.404  25.410   4.105
19244W        W91504   6.747   6.318  12.336
19245W        W91505  21.094  23.214   4.565
19246W        W91506   9.182  33.681   5.113
19247W        W91507  41.575  24.123  10.822
19248W        W91508  10.658  10.285  14.005
19249W        W91509  15.393  43.513  11.081
19250W        W91510  14.822  17.734   2.699
19251W        W91511   3.462   0.604  11.979
19252W        W91512  10.219  32.684   2.827
19253W        W91513   7.500   5.496   3.297
19254W        W91514   2.872  10.440   2.408
19255W        W91515  39.004  23.671  12.314
19256W        W91516  28.937  41.406  10.696
19257W        W91517  30.158  32.119   2.302
19258W        W91518  39.018  36.929  14.747
19259W        W91519  20.778  42.081  11.594
19260W        W91520  29.399  18.744   0.917
19261W        W91521  26.874  44.875   4.335
19262W        W91522  36.573  22.281   0.171
19263W        W91523  28.763  22.604  12.023
19264W        W91524  40.488  22.042  13.261
19265W        W91525  34.360   0.303   2.354
19266W        W91526  40.069  30.061   4.533
19267W        W91527  29.628  42.416   0.488
19268W        W91528  24.705  15.182  13.363
19269W        W91529   0.013  22.425  12.060
19270W        W91530   9.565   2.940   3.727
19271W        W91531  32.183  36.369   0.989
19272W        W91532  38.901  18.322   3.660
19273W        W91533  11.949   3.478   1.361
19274W        W91534  28.917  14.358  13.796
19275W        W91535   0.858  29.542   1.796
19276W        W91536   1.563   6.229   0.440
19277W        W91537  24.174   3.405   0.499
19278W        W91538   0.754  35.871   1.803
19279W        W91539  15.627  16.695  10.509
19280W        W91540  10.346  23.681  10.298
19281W        W91541  11.361  33.407  14.947
19282W        W91542  21.081  34.470   2.653
19283W        W91543  22.273  25.625   5.055
19284W        W91544   7.451  24.201  14.981
19285W        W91545  20.792  15.245   1.788
19286W        W91546   3.791  19.819  14.226
19287W        W91547   1.343  12.531  13.976
19288W        W91548  39.873  22.492   1.695
19289W        W91549  20.410  30.918   4.102
19290W        W91550  43.969  21.302  11.559
19291W        W91551  17.181   2.936  11.437
19292W        W91552  14.645   7.354   2.676
19293W        W91553  10.574   1.564  12.025
19294W        W91554   5.202  12.672  14.110
19295W        W91555  38.920  31.589  13.023
19296W        W91556  24.550  36.432   2.158
19297W        W91557  18.436  13.840  13.568
19298W        W91558   0.715  21.770  11.608
19299W        W91559  10.087  35.683   4.162
19300W        W91560   3.835  15.236  11.363
19301W        W91561   4.885  40.386   4.749
19302W        W91562  10.713  32.402   4.656
19303W        W91563  31.741  18.347  10.379
19304W        W91564  28.151  19.702   4.067
19305W        W91565  21.125  19.747  10.716
19306W        W91566  18.243  35.681  12.710
19307W        W91567  44.167  29.101  12.073
19308W        W91568  34.297  11.784   2.640
19309W        W91569  36.094  39.382   1.207
19310W        W91570  29.596   4.446  11.938
19311W        W91571  27.774  28.078   3.233
19312W        W91572  32.834  16.782   2.376
19313W        W91573  17.297  36.827   2.206
19314W        W91574  31.426   3.903  14.812
19315W        W91575  15.968  14.127  13.513
19316W        W91576  12.325   4.878  10.841
19317W        W91577  17.802  31.079  12.524
19318W        W91578  27.181  10.669  14.463
19319W        W91579  27.051  21.768  11.070
19320W        W91580  25.486  42.606   4.626
19321W        W91581  17.577   1.217  13.900
19322W        W91582  40.366   1.841  13.997
19323W        W91583  38.333  30.512   0.825
19324W        W91584  20.129  30.029   2.681
19325W        W91585  34.066  32.934  12.845
19326W        W91586  40.030  26.219   1.366
19327W        W91587   3.708  35.098   2.698
19328W        W91588  32.480  27.704   4.547
19329W        W91589  27.123  26.962  12.284
19330W        W91590  19.530   1.743  11.089
19331W        W91591  22.207  23.027  10.926
19332W        W91592  15.151  37.921  13.343
19333W        W91593  29.020   2.951  14.052
19334W        W91594   0.468  35.934   4.511
19335W        W91595  40.683  34.084   2.826
19336W        W91596  26.728   9.914   4.058
19337W        W91597   6.885   3.038   0.919
19338W        W91598  26.863  27.875  13.718
19339W        W91599  36.477  43.787   4.180
19340W        W91600   2.481  17.173  13.302
19341W        W91601  16.246   2.472  14.840
19342W        W91602  27.395   8.173  12.829
19343W        W91603   3.449  36.441  13.181
19344W        W91604  20.323  43.370  12.051
19345W        W91605  35.041  25.900   0.203
19346W        W91606   8.133  16.366   2.656
19347W        W91607   8.718  23.279  11.622
19348W        W91608  43.755  29.180   3.939
19349W        W91609   4.503  28.573   3.190
19350W        W91610  43.383  16.188   3.849
19351W        W91611   7.830  21.676  13.633
19352W        W91612  19.876  10.122  12.497
19353W        W91613   7.363  36.362   4.697
19354W        W91614  31.397  21.571  13.527
19355W        W91615  10.861  41.071  11.606
19356W        W91616  10.075   1.299  13.805
19357W        W91617  43.912  11.551   4.569
19358W        W91618  25.842  39.427  10.811
19359W        W91619  18.641  37.956  12.047
19360W        W91620  17.360   1.776   1.240
19361W        W91621  29.938  16.194  12.902
19362W        W91622  24.980  29.422   0.263
19363W        W91623   2.755  14.002   4.088
19364W        W91624  30.038  29.381   1.492
19365W        W91625  44.961  41.709   2.685
19366W        W91626  24.600   0.859  13.636
19367W        W91627  22.471   0.266   2.448
19368W        W91628  41.478  34.880   3.154
19369W        W91629  40.500  27.491   0.227
19370W        W91630  29.188  20.179  14.035
19371W        W91631  38.418  32.926  10.741
19372W        W91632  26.471  22.304  11.532
19373W        W91633  22.590  36.531  11.191
19374W        W91634  24.875  27.638  10.911
19375W        W91635  38.372  14.077   3.579
19376W        W91636  20.990  39.601   0.399
19377W        W91637  41.986  14.814   0.780
19378W        W91638   3.704   1.424   2.866
19379W        W91639   3.719  19.318  11.666
19380W        W91640  29.685  30.517  10.235
19381W        W91641  35.530   7.516  13.893
19382W        W91642  42.856  15.591  10.690
19383W        W91643  12.848  11.567   2.024
19384W        W91644  13.839  38.765   2.359
19385W        W91645  44.750  18.699   1.954
19386W        W91646  14.697  33.330   3.871
19387W        W91647  35.496  18.722   1.954
19388W        W91648  25.554  10.456   4.506
19389W        W91649  19.458   0.291   1.845
19390W        W91650  19.209   0.804  11.191
19391W        W91651  25.637   6.888  12.467
19392W        W91652   1.824   8.520   0.395
19393W        W91653  19.716  34.623  12.865
19394W        W91654  35.064  32.458   4.525
19395W        W91655  43.976   0.999  10.871
19396W        W91656  22.005  28.674   3.144
19397W        W91657  22.362  30.617  13.107
19398W        W91658  21.308  12.111  12.087
19399W        W91659   4.279   7.400   0.654
19400W        W91660  41.114  27.603  13.108
19401W        W91661  40.558  26.674   1.658
19402W        W91662   5.005  37.307   1.302
19403W        W91663  13.176  33.975   1.671
19404W        W91664  10.156  31.915   0.351
19405W        W91665  23.181   2.520  13.042
19406W        W91666  25.644  26.564   0.365
19407W        W91667  11.082  25.090  10.630
19408W        W91668  32.908  26.863   2.267
19409W        W91669  38.861  39.686   1.319
19410W        W91670  41.293  13.729  12.442
19411W        W91671   3.479   5.811  12.088
19412W        W91672   9.462  21.443  14.444
19413W        W91673  43.323  39.497   3.340
19414W        W91674   5.912  26.819   2.921
19415W        W91675  39.829  44.452  11.129
19416W        W91676  16.260  44.841   0.476
19417W        W91677   8.436   5.586   3.777
19418W        W91678  12.105  27.655   4.693
19419W        W91679  14.156  17.797   2.374
19420W        W91680  29.057   1.232   0.674
19421W        W91681  12.327   7.297  11.881
19422W        W91682  28.562   8.717   0.486
19423W        W91683   4.340  15.855   0.689
19424W        W91684  21.005  26.519   4.269
19425W        W91685  31.156  44.331  13.010
19426W        W91686  36.510  19.022   9.793
19427W        W91687  21.668  33.035   2.793
19428W        W91688  25.588   4.575   3.264
19429W        W91689   4.099  19.644  11.092
19430W        W91690   9.318  18.331  11.973
19431W        W91691   0.937   0.998  11.738
19432W        W91692  19.603  25.190  13.400
19433W        W91693  32.998  39.307   3.637
19434W        W91694  36.920  13.703   4.564
19435W        W91695  40.793  31.950   0.531
19436W        W91696  14.858   6.350   2.460
19437W        W91697  10.829  24.233  12.397
19438W        W91698  21.740  32.456   0.972
19439W        W91699  41.063  30.135   3.210
19440W        W91700  43.919   1.295   4.145
19441W        W91701  39.876  13.927   4.583
19442W        W91702  39.906   3.212   1.452
19443W        W91703  40.035  34.664   2.168
19444W        W91704  41.548  33.413  12.886
19445W        W91705  15.495   4.001   4.266
19446W        W91706   6.355  29.531   1.750
19447W        W91707  11.645  13.206   2.308
19448W        W91708  31.950  28.042   0.846
19449W        W91709  25.315  43.361   0.311
19450W        W91710   7.431  16.605  10.898
19451W        W91711  11.594  37.793   1.863
19452W        W91712  28.669  20.939  14.900
19453W        W91713   5.953  14.038   2.211
19454W        W91714  13.684  42.394   1.520
19455W        W91715  28.628  32.469  12.608
19456W        W91716  14.411  15.254   3.645
19457W        W91717  29.505  17.319   3.708
19458W        W91718  23.042  34.016   2.357
19459W        W91719  13.640  34.870  14.978
19460W        W91720   3.456   9.652   1.432
19461W        W91721  24.053  40.655  10.253
19462W        W91722   4.415  41.086  11.611
19463W        W91723  39.950   9.257  10.150
19464W        W91724  20.364  19.189  12.488
19465W        W91725  10.309  12.300   3.388
19466W        W91726  16.584   3.613  11.630
19467W        W91727  17.959  40.604   1.327
19468W        W91728   5.449  38.073   1.964
19469W        W91729  22.507  24.473   3.815
19470W        W91730  20.111  21.631   1.160
19471W        W91731  25.184  29.398  13.840
19472W        W91732  23.304   9.120   2.324
19473W        W91733  21.979  18.118   0.484
19474W        W91734  12.696  42.308   1.494
19475W        W91735  41.542  16.377  13.320
19476W        W91736  36.123  31.552  10.757
19477W        W91737  39.242   5.658   1.963
19478W        W91738  13.794   2.028  14.440
19479W        W91739  44.149  26.763   2.231
19480W        W91740   5.230   7.950   4.631
19481W        W91741   7.224  27.177   4.056
19482W        W91742  13.796  36.993  14.446
19483W        W91743  44.797  39.529  14.797
19484W        W91744   8.807   0.503   0.889
19485W        W91745  36.838  14.813  14.810
19486W        W91746  34.383   9.520  13.373
19487W        W91747  33.913  32.176   1.934
19488W        W91748  40.606   1.153   3.948
19489W        W91749  12.573  34.340  10.724
19490W        W91750  31.333  23.986  10.646
19491W        W91751  34.163  44.044  12.789
19492W        W91752  15.432  43.271   1.422
19493W        W91753   3.778   2.522   0.316
19494W        W91754  31.609  35.600   2.981
19495W        W91755   6.782  19.523   1.826
19496W        W91756  31.508  35.640   1.078
19497W        W91757  34.615  23.287  10.751
19498W        W91758  39.279   8.630  10.268
19499W        W91759  27.192  41.348  13.396
19500W        W91760  31.150  10.843   4.142
19501W        W91761  23.761  12.236   1.419
19502W        W91762  15.580  27.599  14.448
19503W        W91763  18.591  40.431  12.357
19504W        W91764  24.396   6.404   1.164
19505W        W91765  32.381  10.806   3.824
19506W        W91766  32.725  36.521  10.686
19507W        W91767  11.789  20.084  14.343
19508W        W91768  41.055  38.832   2.907
19509W        W91769  24.011  26.446  14.914
19510W        W91770  42.523   7.199  11.548
19511W        W91771  21.984  35.101   1.795
19512W        W91772  44.223  35.514   1.871
19513W        W91773   0.873  36.146  10.722
19514W        W91774  13.357  44.566  14.041
19515W        W91775  23.737  17.279   1.642
19516W        W91776  30.494  16.697  14.097
19517W        W91777   8.280  24.632   3.596
19518W        W91778   9.182  29.970  12.569
19519W        W91779   4.832  29.669  14.780
19520W        W91780   4.918  43.012   2.165
19521W        W91781  42.952  16.054  10.491
19522W        W91782  22.462  33.417  13.762
19523W        W91783  12.133  40.365  14.043
19524W        W91784   7.116  28.438  10.916
19525W        W91785  42.458  31.889   3.034
19526W        W91786  10.770   2.202  13.556
19527W        W91787  24.617  32.628   3.092
19528W        W91788   8.981  20.116  14.223
19529W        W91789  26.475  42.760   0.872
19530W        W91790  29.389  34.912  12.490
19531W        W91791  27.689  24.550  12.893
19532W        W91792  19.327  22.575   3.713
19533W        W91793  20.017  20.663   4.675
19534W        W91794  30.116  36.520  12.443
19535W        W91795  12.327  10.383   3.759
19536W        W91796   7.444  39.046  13.341
19537W        W91797  37.473  33.532  10.450
19538W        W91798  21.301  12.380   3.726
19539W        W91799  30.380  39.267   3.356
19540W        W91800  36.891   1.883  10.735
19541W        W91801  26.223   3.970  14.777
19542W        W91802  30.083  25.256  13.001
19543W        W91803   3.340  28.691  11.473
19544W        W91804  11.671  28.197  10.732
19545W        W91805  18.731  30.545   0.451
19546W        W91806  42.395   3.143   2.247
19547W        W91807  40.029  14.125   1.715
19548W        W91808  15.171  29.583  10.142
19549W        W91809   8.329   5.059   1.264
19550W        W91810   7.266  31.593   3.207
19551W        W91811   4.277  41.526  13.656
19552W        W91812  20.391  30.494   4.408
19553W        W91813  11.622  22.230  11.996
19554W        W91814  12.623  26.956  13.599
19555W        W91815   1.200  19.267  10.748
19556W        W91816   4.343  44.395   3.180
19557W        W91817  17.378  29.766   3.732
19558W        W91818   2.968  26.062  13.531
19559W        W91819  28.683  31.839  10.256
19560W        W91820  15.407  40.282   3.270
19561W        W91821  44.145  18.060   1.874
19562W        W91822  31.435  18.550  11.615
19563W        W91823  31.876  23.564   1.284
19564W        W91824  44.038  21.977   0.310
19565W        W91825   6.151  44.573   1.324
19566W        W91826  40.318  32.421  13.398
19567W        W91827  28.410  30.656   4.925
19568W        W91828  28.632  31.169  11.123
19569W        W91829  40.832  17.353   4.686
19570W        W91830   0.592  13.226  11.141
19571W        W91831  27.995   1.166   1.825
19572W        W91832  27.070  24.622   0.453
19573W        W91833  31.848  34.159  14.455
19574W        W91834  38.883  37.890   4.616
19575W        W91835  19.488   1.815   1.675
19576W        W91836  14.675   3.617  11.536
19577W        W91837  32.521   7.856  12.783
19578W        W91838  34.037  43.007  14.891
19579W        W91839   8.418  19.794   0.057
19580W        W91840  34.954  25.943   2.622
19581W        W91841   6.364  30.640   3.326
19582W        W91842  33.114  38.307  13.996
19583W        W91843   0.254  33.687  14.431
19584W        W91844  29.625   0.383  14.845
19585W        W91845   8.168   1.535  13.882
19586W        W91846  37.485  29.094   9.892
19587W        W91847  18.893  43.284   2.511
19588W        W91848   4.875  22.925  13.064
19589W        W91849  23.962  13.575   2.394
19590W        W91850  30.503  27.688   1.662
19591W        W91851  10.984  40.375   2.539
19592W        W91852  15.318  23.552  12.009
19593W        W91853  15.238  24.717  13.397
19594W        W91854  43.512  10.209  13.591
19595W        W91855  21.689  30.899  11.581
19596W        W91856  44.583   7.940  11.574
19597W        W91857   6.413  39.452   0.342
19598W        W91858  41.920  10.242  12.931
19599W        W91859  30.807   7.010   2.577
19600W        W91860   3.353  11.966  14.940
19601W        W91861  40.348  17.893   5.218
19602W        W91862  41.975  38.402  14.718
19603W        W91863  32.411  33.688  10.472
19604W        W91864  22.740   5.381  14.363
19605W        W91865  25.436   1.555  13.933
19606W        W91866  43.955  38.594   2.292
19607W        W91867  20.603  29.553  13.965
19608W        W91868  38.017   1.236   3.787
19609W        W91869  14.764  42.807   0.804
19610W        W91870   2.238  12.839  12.493
19611W        W91871  21.012  34.411   9.836
19612W        W91872  21.211  13.138   4.075
19613W        W91873  37.486  42.273  12.051
19614W        W91874  18.988   7.114   2.656
19615W        W91875  26.396  11.294  14.254
19616W        W91876  16.028  38.364   0.342
19617W        W91877   6.109   8.928   1.694
19618W        W91878  17.723  26.561   4.062
19619W        W91879  23.973   4.946   2.682
19620W        W91880  26.725  26.028  14.267
19621W        W91881  19.001  11.704   2.854
19622W        W91882  44.298   2.924   3.709
19623W        W91883  32.358  14.601  10.708
19624W        W91884  42.337  18.334  14.064
19625W        W91885  11.097  36.586  11.683
19626W        W91886  25.456  25.419  14.443
19627W        W91887  34.663  21.942  13.325
19628W        W91888   0.868   9.539  12.330
19629W        W91889  40.857  34.775   1.283
19630W        W91890   4.322  18.478  13.469
19631W        W91891  29.820  19.034   3.294
19632W        W91892  27.431  17.135  11.397
19633W        W91893   0.006   2.680   0.851
19634W        W91894   5.558   4.938  10.604
19635W        W91895  27.110  25.060   1.378
19636W        W91896  32.869  16.157  13.426
19637W        W91897  19.280  19.091  14.786
19638W        W91898   5.947   0.351   2.808
19639W        W91899  39.923   1.981   1.793
19640W        W91900   8.932   6.742  11.831
19641W        W91901  16.043  37.708  11.541
19642W        W91902  36.997   0.934  14.437
19643W        W91903  35.219  27.775  13.486
19644W        W91904  36.342  29.319   3.080
19645W        W91905  44.428  33.520   4.245
19646W        W91906   5.635  25.583  13.621
19647W        W91907  22.069  10.876   4.536
19648W        W91908  13.620  15.933  14.405
19649W        W91909  29.483  39.356  13.805
19650W        W91910  28.900  34.475   3.689
19651W        W91911  12.286  44.438  10.886
19652W        W91912   6.754  32.982  12.580
19653W        W91913  11.427  32.552   4.186
19654W        W91914   9.200  22.179  13.959
19655W        W91915  11.562   1.749  14.095
19656W        W91916  29.990  35.111  11.066
19657W        W91917  36.121  25.338  14.479
19658W        W91918   4.332  23.594  13.231
19659W        W91919  36.171   4.512  12.660
19660W        W91920  17.056  14.123  10.558
19661W        W91921  39.349  25.052   0.623
19662W        W91922  41.000  29.629  14.287
19663W        W91923   4.442  17.565   1.010
19664W        W91924  42.613   2.299   2.335
19665W        W91925   5.999  19.619  12.127
19666W        W91926  25.118  17.670   4.693
19667W        W91927   6.758  10.335   1.396
19668W        W91928  34.389   8.779   0.293
19669W        W91929  35.977  23.309  12.039
19670W        W91930  27.050  22.329  12.475
19671W        W91931  37.463  36.374  12.915
19672W        W91932  15.599  14.684  13.090
19673W        W91933   1.202  13.871   3.149
19674W        W91934  22.694   8.330   2.677
19675W        W91935  27.038  13.303   2.236
19676W        W91936  17.066  25.376   4.563
19677W        W91937  30.424  10.897  13.823
19678W        W91938  21.760  34.068   1.839
19679W        W91939  16.125  42.798  13.795
19680W        W91940  17.604   9.149   1.946
19681W        W91941  44.857  44.872   4.530
19682W        W91942  34.263   3.281  11.870
19683W        W91943  25.665  29.609  10.364
19684W        W91944   3.369   7.779  14.031
19685W        W91945  29.207  31.174  10.435
19686W        W91946   2.166  43.973   0.192
19687W        W91947  15.892  19.733  12.896
19688W        W91948  43.320   7.798  14.630
19689W        W91949  37.459  24.148  14.009
19690W        W91950   4.598  41.314   4.799
19691W        W91951  19.587  32.219  11.085
19692W        W91952  39.976  39.708   3.723
19693W        W91953  43.586  18.731   2.760
19694W        W91954  33.544  14.251  11.955
19695W        W91955  32.991  25.889   4.617
19696W        W91956  36.406  39.505  14.939
19697W        W91957  11.608   0.778   4.550
19698W        W91958  31.847  11.319   4.444
19699W        W91959  22.965  44.907  14.424
19700W        W91960  33.790  36.354  14.398
19701W        W91961  28.952  22.691  13.352
19702W        W91962  28.423  31.045   1.616
19703W        W91963  29.892   1.318  14.445
19704W        W91964  30.610  10.703   1.862
19705W        W91965  44.940  11.273   3.568
19706W        W91966  42.888  26.974   2.220
19707W        W91967  32.667  16.855  13.534
19708W        W91968   8.906  14.316  12.003
19709W        W91969  25.109  30.926  12.608
19710W        W91970  30.317  31.709   2.624
19711W        W91971  23.114   2.870   0.750
19712W        W91972   7.023  15.157  12.970
19713W        W91973  27.113  21.774   1.680
19714W        W91974  25.626  38.105   2.870
19715W        W91975   1.798  25.209   1.382
19716W        W91976  37.951  31.178  13.837
19717W        W91977   7.505  26.102   4.550
19718W        W91978  31.137  38.400   2.760
19719W        W91979  37.271  32.677  11.121
19720W        W91980  14.684  42.525   0.207
19721W        W91981  35.626   6.901   4.875
19722W        W91982  25.735  11.060  13.008
19723W        W91983  22.495   6.146  13.085
19724W        W91984  20.186  41.295   3.236
19725W        W91985  41.231  33.113  12.592
19726W        W91986   3.933  31.100   0.955
19727W        W91987   8.885  29.092  13.814
19728W        W91988  29.441  22.118  12.111
19729W        W91989   6.280  39.546  11.911
19730W        W91990  27.910  41.806   3.249
19731W        W91991   8.194  36.340  14.978
19732W        W91992  21.662  38.562  11.397
19733W        W91993  17.449   7.403   4.071
19734W        W91994  12.489  41.325   4.709
19735W        W91995  24.138  14.036   2.233
19736W        W91996  27.898  15.755  13.484
19737W        W91997  20.208   4.748   4.236
19738W        W91998  41.732  26.628  11.514
19739W        W91999  37.668  26.718   1.172
19740W        W92000  19.998  12.117  14.358
19741W        W92001   1.469   5.600  11.567
19742W        W92002   2.738  43.316   1.435
19743W        W92003   1.302   4.062  13.831
19744W        W92004  42.890   0.529   3.671
19745W        W92005  36.942  44.502  11.173
19746W        W92006  30.503  13.045  10.645
19747W        W92007   1.427  18.156   1.320
19748W        W92008   9.790  24.134   1.383
19749W        W92009   7.766   0.588  13.886
19750W        W92010  27.509  27.481  11.846
19751W        W92011  41.917  20.911   1.417
19752W        W92012  25.097   6.724  14.082
19753W        W92013  43.874   9.907   2.860
19754W        W92014   5.397   6.345   1.391
19755W        W92015  22.990  29.311   5.138
19756W        W92016  24.020  37.918   1.441
19757W        W92017   3.171  36.308   0.945
19758W        W92018  37.219  23.150  13.946
19759W        W92019  36.128   3.046   4.045
19760W        W92020  30.900  22.318   1.122
19761W        W92021  11.640   2.833  11.567
19762W        W92022  19.272   0.943  12.915
19763W        W92023  35.560  18.846  10.984
19764W        W92024   8.338  13.357   0.353
19765W        W92025   6.396   6.862   4.006
19766W        W92026   5.260  15.369  11.184
19767W        W92027  21.633  18.992  13.424
19768W        W92028  26.209  28.089  11.905
19769W        W92029  26.237   6.785  12.864
19770W        W92030   4.794  22.979  11.480
19771W        W92031  22.954  36.027   3.370
19772W        W92032  43.174   5.260  12.572
19773W        W92033  15.105  23.574  12.460
19774W        W92034  25.994   1.371   3.356
19775W        W92035  36.919  39.794   4.138
19776W        W92036  17.020  32.960  10.861
19777W        W92037  44.706  21.108   4.226
19778W        W92038  31.640  23.141  10.640
19779W        W92039  16.003  23.792  10.216
19780W        W92040  10.038  20.556   2.066
19781W        W92041  13.617  37.782   0.928
19782W        W92042  28.519  22.422  14.840
19783W        W92043  39.437  32.904   0.800
19784W        W92044  15.346  42.894  10.285
19785W        W92045  22.334  17.240   0.684
19786W        W92046   9.703  34.541  14.315
19787W        W92047  29.490   4.443   1.267
19788W        W92048  16.347  44.065  11.637
19789W        W92049  31.159   6.163  13.127
19790W        W92050  32.928  39.865   4.958
19791W        W92051  11.863  25.038   1.320
19792W        W92052  31.476  19.684   1.442
19793W        W92053  37.292   1.482   1.981
19794W        W92054  36.381  21.903   3.423
19795W        W92055  43.831  35.585   0.063
19796W        W92056  28.105  41.627  12.952
19797W        W92057  27.604  41.551   9.762
19798W        W92058   3.948  37.927  11.211
19799W        W92059  28.617  35.944   2.238
19800W        W92060  22.610  22.064  11.567
19801W        W92061  40.827   9.694   1.146
19802W        W92062  37.077  35.357   0.072
19803W        W92063  32.192  29.508   1.769
19804W        W92064  23.777  40.944  13.552
19805W        W92065   5.307  39.192  10.486
19806W        W92066  27.704   5.982  12.076
19807W        W92067   0.751   5.846   1.363
19808W        W92068   6.388   0.194  14.885
19809W        W92069   6.712   3.006  12.993
19810W        W92070   1.220  21.055  13.916
19811W        W92071  42.205  33.984   2.657
19812W        W92072  25.549  36.057  13.335
19813W        W92073  34.023  26.231  13.997
19814W        W92074   1.229  23.249  13.570
19815W        W92075  28.876  13.567  11.540
19816W        W92076  13.168  37.832  10.599
19817W        W92077  28.996   4.682  12.479
19818W        W92078  13.337   4.887  11.463
19819W        W92079  13.128  28.168   4.486
19820W        W92080  20.556   7.822  11.903
19821W        W92081  19.008  11.357   3.294
19822W        W92082   2.275  28.114  11.202
19823W        W92083  40.320  18.588  12.399
19824W        W92084  15.756  16.639   1.917
19825W        W92085  37.604  37.563  11.072
19826W        W92086  36.939  44.260  14.787
19827W        W92087  15.307  30.569  14.043
19828W        W92088  43.277  27.250   0.367
19829W        W92089  26.472  40.273  11.972
19830W        W92090   8.072   4.651   0.315
19831W        W92091   7.216  40.798   0.919
19832W        W92092  37.458  27.101  11.459
19833W        W92093  38.566   6.436   3.519
19834W        W92094  34.840  12.634   0.459
19835W        W92095  34.539  26.012   0.113
19836W        W92096  32.521  27.508  11.537
19837W        W92097  34.563  40.774  13.562
19838W        W92098  38.887   1.902   3.559
19839W        W92099  26.079  32.878   0.536
19840W        W92100  44.654  15.278   3.514
19841W        W92101   8.785  36.966  11.825
19842W        W92102  17.006  27.165   1.895
19843W        W92103   6.209  11.562  10.734
19844W        W92104   6.268  26.413   0.408
19845W        W92105  27.299  34.667  14.574
19846W        W92106  20.113  41.345   1.879
19847W        W92107  19.096  24.246   1.243
19848W        W92108  26.164  11.032   0.712
19849W        W92109  44.132  20.559   4.516
19850W        W92110  16.593   5.583   2.246
19851W        W92111  43.349  40.438  12.770
19852W        W92112   5.112  38.483  14.475
19853W        W92113   0.422  39.799   4.934
19854W        W92114   6.464   4.985  11.059
19855W        W92115  26.553   2.272   2.621
19856W        W92116  23.800   7.112   0.843
19857W        W92117  12.390   0.276  13.563
19858W        W92118  17.473  10.315   4.325
19859W        W92119   8.140  32.542   3.165
19860W        W92120  37.858   0.234  13.092
19861W        W92121   2.858   2.363  14.405
19862W        W92122   4.372  44.545  12.910
19863W        W92123  41.792  28.617   2.925
19864W        W92124  28.889  43.777   4.279
19865W        W92125  21.220  37.873  11.522
19866W        W92126  42.899  39.799  10.444
19867W        W92127  26.523  10.212  13.104
19868W        W92128  28.187  10.373   5.027
19869W        W92129  39.489   3.370  14.365
19870W        W92130   4.576   7.526   1.479
19871W        W92131  11.051  16.833   2.721
19872W        W92132   1.828   8.797   4.581
19873W        W92133  36.583   9.770  10.070
19874W        W92134   6.074   2.726   1.301
19875W        W92135   3.789  25.445   0.861
19876W        W92136   7.404  27.148   4.550
19877W        W92137   2.748  18.195   1.849
19878W        W92138  27.146   9.873  10.066
19879W        W92139  22.726  12.619   1.189
19880W        W92140  31.334  24.593  14.890
19881W        W92141  19.463  10.766   2.771
19882W        W92142  25.111  27.120  13.417
19883W        W92143   2.358  24.160  13.643
19884W        W92144  19.253  41.568   4.773
19885W        W92145  33.639  19.622  12.406
19886W        W92146  35.434  12.182   4.536
19887W        W92147   7.287  21.495  13.026
19888W        W92148   8.456  32.010   1.936
19889W        W92149  19.709  36.525  13.069
19890W        W92150  30.628  29.820  11.504
19891W        W92151  33.898  19.785  10.994
19892W        W92152   1.491  16.149   2.188
19893W        W92153   8.407  29.873  11.935
19894W        W92154  20.824  14.210   4.658
19895W        W92155  37.655   2.275  13.586
19896W        W92156   5.164  41.613  13.502
19897W        W92157  15.151  23.777   1.734
19898W        W92158  33.684   6.758  11.975
19899W        W92159  18.114  11.660   2.174
19900W        W92160  21.617   2.947  10.740
19901W        W92161  22.651  30.114   1.971
19902W        W92162  10.257  19.479  14.919
19903W        W92163  24.970  30.572   1.820
19904W        W92164  20.609   5.103   1.941
19905W        W92165   1.831   1.490   1.515
19906W        W92166  43.043  23.667   3.330
19907W        W92167  13.613  11.207   1.834
19908W        W92168  10.745   3.846  14.812
19909W        W92169  29.953  33.133  12.900
19910W        W92170   0.424  41.629  13.607
19911W        W92171  22.947   4.549  11.082
19912W        W92172  43.066   0.896   3.103
19913W        W92173   1.629   7.809   4.688
19914W        W92174  42.745   9.118   4.509
19915W        W92175  44.324  32.066   2.791
19916W        W92176  26.537   6.257   1.699
19917W        W92177  12.091   4.051   4.425
19918W        W92178   6.886  23.390   2.691
19919W        W92179  33.628   6.786   4.329
19920W        W92180  15.756  34.539   3.671
19921W        W92181  15.639  25.383   3.844
19922W        W92182   4.317  28.701   2.705
19923W        W92183   6.157  42.262   2.276
19924W        W92184  16.190  33.808   1.072
19925W        W92185  34.813  11.073  11.585
19926W        W92186  15.748  29.252  13.163
19927W        W92187  12.698   4.930   2.679
19928W        W92188  28.698  44.389  14.539
19929W        W92189  29.173  34.122   3.376
19930W        W92190  36.287  19.501  12.254
19931W        W92191  35.575  12.822   2.834
19932W        W92192  13.694   0.909  12.157
19933W        W92193  16.780   1.264  13.775
19934W        W92194  43.595  13.720  11.025
19935W        W92195  27.594  35.055   1.731
19936W        W92196   3.220  44.529  14.034
19937W        W92197  21.231  30.403  13.942
19938W        W92198  12.267  24.644  12.869
19939W        W92199  31.599  27.588  12.558
19940W        W92200  34.624  16.126   3.250
19941W        W92201  13.815  15.474   3.601
19942W        W92202  42.558  26.272   2.845
19943W        W92203  34.045  30.148  12.402
19944W        W92204  10.329  10.701   1.100
19945W        W92205  15.802  33.861  13.244
19946W        W92206  30.257  17.054   2.212
19947W        W92207  15.206  39.831  13.931
19948W        W92208  12.234   3.855  12.899
19949W        W92209  26.493   9.766  10.875
19950W        W92210  11.587  17.814  13.944
19951W        W92211   3.503  26.810  13.458
19952W        W92212  12.721  24.690  14.961
19953W        W92213  38.256   9.615  14.269
19954W        W92214  20.896  19.798   5.057
19955W        W92215  35.979  43.793   2.751
19956W        W92216   3.191  16.316   0.860
19957W        W92217   4.173   6.176  11.737
19958W        W92218  10.676  26.252  14.036
19959W        W92219  33.036  25.803  14.380
19960W        W92220  17.988  18.685   2.139
19961W        W92221  14.674  34.575   0.231
19962W        W92222   9.410  35.398  10.481
19963W        W92223  38.924  29.864  12.356
19964W        W92224  25.214   3.218  11.990
19965W        W92225  27.103   2.850   4.697
19966W        W92226  30.404  24.449  10.728
19967W        W92227   2.183  43.320   1.466
19968W        W92228  42.673  11.765  13.478
19969W        W92229  30.654  15.625   3.764
19970W        W92230   7.694  30.535   4.056
19971W        W92231  42.549  17.869   1.378
19972W        W92232  20.303  30.568   2.257
19973W        W92233   7.676  41.937  10.942
19974W        W92234  18.226  30.159  12.516
19975W        W92235  30.704   0.042  13.530
19976W        W92236  29.985  16.285   4.008
19977W        W92237   5.546  39.991   4.094
19978W        W92238  39.958  31.619   3.712
19979W        W92239  41.495  41.088   3.190
19980W        W92240  14.569  26.213  13.858
19981W        W92241  19.733  24.415   2.865
19982W        W92242  19.536   8.303  13.520
19983W        W92243  17.257  35.359   0.400
19984W        W92244   3.575   0.971  12.335
19985W        W92245  24.990  42.742   4.607
19986W        W92246  21.149   6.207   1.466
19987W        W92247  17.283  26.611  10.645
19988W        W92248   2.685  18.590  11.161
19989W        W92249  31.408  44.713   0.315
19990W        W92250  10.790  16.933   4.221
19991W        W92251  37.059  36.937   1.750
19992W        W92252  27.199  41.079   0.996
19993W        W92253  39.766  30.058   1.845
19994W        W92254  34.427  44.561   4.430
19995W        W92255  39.792  25.159  10.706
19996W        W92256  30.595  43.427  14.420
19997W        W92257  14.344  19.109   2.797
19998W        W92258  34.186  12.307   2.515
19999W        W92259  44.321  34.126   2.896
20000W        W92260   1.006  24.019   3.316
20001W        W92261  14.804   9.855   4.549
20002W        W92262   2.859  21.034  11.452
20003W        W92263  33.000  34.947   2.433
20004W        W92264  36.887  31.050   0.269
20005W        W92265  39.115  41.765   4.343
20006W        W92266  38.059   9.160  14.429
20007W        W92267  12.787  15.652   4.531
20008W        W92268  37.016  30.639   1.359
20009W        W92269  10.740  25.963   2.697
20010W        W92270   6.391  39.755   2.418
20011W        W92271  28.784  32.364  10.180
20012W        W92272  30.911   1.307  14.326
20013W        W92273  13.599  21.270   2.926
20014W        W92274  19.735  41.209   2.630
20015W        W92275  10.739   4.880   1.370
20016W        W92276  35.401  11.608  11.437
20017W        W92277   6.201  32.339  10.250
20018W        W92278  33.543   2.444  11.931
20019W        W92279   9.292  20.055  14.927
20020W        W92280  17.940  15.717   0.863
20021W        W92281   5.649   4.571   1.799
20022W        W92282  26.488  28.682   2.652
20023W        W92283   8.230  43.777   4.087
20024W        W92284   6.130  44.836   2.850
20025W        W92285  38.857  43.008   2.451
20026W        W92286  14.372   4.846  11.506
20027W        W92287  11.714  44.728   1.620
20028W        W92288  34.606  34.085  11.770
20029W        W92289  28.501  37.950  11.088
20030W        W92290  38.369   1.378  13.228
20031W        W92291  23.232  31.463   4.167
20032W        W92292  36.034  24.676   2.137
20033W        W92293  40.003  11.099   4.442
20034W        W92294   2.730   6.973  11.919
20035W        W92295  20.220  25.377  12.297
20036W        W92296   5.250   1.756  13.977
20037W        W92297  20.478  15.657   1.838
20038W        W92298   9.327  27.220   1.866
20039W        W92299  23.597  43.959   1.790
20040W        W92300  37.296  34.728   5.047
20041W        W92301  32.880  14.798  14.010
20042W        W92302  22.040  29.112   0.905
20043W        W92303  25.078   6.403  11.140
20044W        W92304  14.895   5.383   2.619
20045W        W92305   0.017  34.131   3.149
20046W        W92306  30.899  18.326   5.077
20047W        W92307  14.609  17.045   3.160
20048W        W92308  34.079  44.328   2.100
20049W        W92309  22.956  15.877   5.246
20050W        W92310  32.707  32.295  13.811
20051W        W92311  43.981  43.480  12.663
20052W        W92312  35.388  21.035   2.135
20053W        W92313   3.155  29.637   1.507
20054W        W92314   7.331  22.617   3.498
20055W        W92315  20.943  43.743   5.082
20056W        W92316  25.466  35.500   3.437
20057W        W92317  23.115  31.693  11.947
20058W        W92318  33.630   0.821   3.888
20059W        W92319  23.479  44.544   3.093
20060W        W92320  42.913   3.695  12.944
20061W        W92321  44.054  14.245   4.742
20062W        W92322  18.177   7.874   3.673
20063W        W92323   6.656  43.007  12.538
20064W        W92324  29.277  39.919  11.524
20065W        W92325   6.436   9.297  14.422
20066W        W92326  13.777   6.912   1.819
20067W        W92327  12.403  39.122   3.155
20068W        W92328   0.966   1.017   3.162
20069W        W92329  29.362   1.309  13.046
20070W        W92330  15.180  20.924  13.977
20071W        W92331  22.880  13.817   0.188
20072W        W92332  15.181  10.218  13.678
20073W        W92333   5.535   8.040   3.171
20074W        W92334  35.380  22.121   4.247
20075W        W92335  21.356  43.026   0.807
20076W        W92336  21.483  16.580   4.511
20077W        W92337  37.060  26.972  11.963
20078W        W92338  40.298  23.700  11.710
20079W        W92339  27.571   3.722  10.429
20080W        W92340  32.865   8.335   0.868
20081W        W92341  40.552  20.763  14.356
20082W        W92342  27.682  17.750   0.310
20083W        W92343  31.391  15.871   3.293
20084W        W92344   0.222  28.764  10.455
20085W        W92345  30.938   4.809  10.416
20086W        W92346   6.516  43.292  11.998
20087W        W92347  17.699  12.826   4.569
20088W        W92348  37.404  40.748   2.070
20089W        W92349   8.691  40.316   2.347
20090W        W92350   1.241  11.488   0.763
20091W        W92351  35.251  13.289  14.672
20092W        W92352  15.610  39.332   0.481
20093W        W92353  40.605  39.109   3.762
20094W        W92354   5.483  12.872   4.091
20095W        W92355  14.702  35.275   2.502
20096W        W92356  20.625  35.398  10.685
20097W        W92357  40.046   7.403   4.760
20098W        W92358  15.563   2.734  12.712
20099W        W92359  32.464  23.503  13.732
20100W        W92360  18.176  24.340  10.742
20101W        W92361  29.540  27.899   3.739
20102W        W92362   1.414  10.275   4.038
20103W        W92363  18.685  17.569   2.256
20104W        W92364  30.931  12.129   0.808
20105W        W92365  12.515  15.286  11.223
20106W        W92366  41.115   0.331   4.658
20107W        W92367  23.002  22.076   1.795
20108W        W92368  44.314  28.555   0.431
20109W        W92369  36.772  23.991   2.367
20110W        W92370  23.684   5.849  14.334
20111W        W92371   8.964  33.482   0.267
20112W        W92372  16.576  28.789  10.429
20113W        W92373  28.237  28.165  14.861
20114W        W92374  16.518   7.699   4.686
20115W        W92375  34.930  38.216  11.949
20116W        W92376   2.955  20.338  14.983
20117W        W92377  12.893  37.061  14.311
20118W        W92378  21.065  29.170   0.764
20119W        W92379  25.685   5.551   2.399
20120W        W92380   6.594  32.613  13.921
20121W        W92381   1.427   2.822  11.151
20122W        W92382  13.240  36.605  11.106
20123W        W92383  26.925  37.812   2.735
20124W        W92384   9.726  29.066  11.162
20125W        W92385   2.017  37.817   4.169
20126W        W92386   4.042  42.674   2.428
20127W        W92387  40.951  23.076   2.346
20128W        W92388  28.155  39.562  10.651
20129W        W92389  19.702  42.590  13.725
20130W        W92390   6.160  31.613   2.321
20131W        W92391  17.628  22.215  11.125
20132W        W92392   8.266   8.397  11.468
20133W        W92393  31.717  43.807   1.867
20134W        W92394  31.377  23.986  12.938
20135W        W92395  12.800  23.753  12.917
20136W        W92396   0.888  32.562   4.190
20137W        W92397   0.373  25.227  10.454
20138W        W92398  18.244  27.532  10.864
20139W        W92399   7.335  16.232   0.704
20140W        W92400  33.879  26.046   4.452
20141W        W92401  35.569  40.423  14.456
20142W        W92402  23.948  44.458   3.318
20143W        W92403  31.636  19.725   0.942
20144W        W92404  44.795  39.937  11.162
20145W        W92405  20.061  12.299  11.577
20146W        W92406  27.706  20.303   2.913
20147W        W92407  30.798  19.254  11.126
20148W        W92408  24.475  34.252  14.946
20149W        W92409  37.407  10.850   0.965
20150W        W92410   4.781  28.037  12.805
20151W        W92411  19.837   9.143   2.223
20152W        W92412   4.514  18.095   1.364
20153W        W92413  25.311  38.247  14.528
20154W        W92414  37.505  39.766   0.797
20155W        W92415  41.333   1.413   4.686
20156W        W92416  42.862   4.351   3.192
20157W        W92417  36.353  40.100   0.355
20158W        W92418  28.524  37.421   4.148
20159W        W92419  20.613  18.089  11.988
20160W        W92420  36.579  32.052   1.323
20161W        W92421   4.986  43.431  11.925
20162W        W92422   8.874  18.681   3.344
20163W        W92423  28.934  29.689   0.370
20164W        W92424  41.525  35.057   0.955
20165W        W92425   3.201   8.701   0.555
20166W        W92426  30.602  36.902   2.622
20167W        W92427  10.947  30.109   4.334
20168W        W92428   6.759  26.198   0.464
20169W        W92429  13.079  19.666   2.608
20170W        W92430  38.587  12.258  11.456
20171W        W92431   3.028  26.738  10.950
20172W        W92432   5.792  27.533  10.742
20173W        W92433  10.411  29.313   4.147
20174W        W92434  14.064  29.380  10.695
20175W        W92435  15.057   2.917  12.927
20176W        W92436  25.110   8.263   3.425
20177W        W92437  38.324  37.052  14.192
20178W        W92438  43.362  13.565  11.452
20179W        W92439  32.916  29.543   0.536
20180W        W92440   4.668   1.898  12.783
20181W        W92441  25.965  44.309  12.470
20182W        W92442  20.391  24.468  14.095
20183W        W92443   0.957  12.635  10.175
20184W        W92444  12.574  22.988   1.509
20185W        W92445   6.714  33.134   3.122
20186W        W92446   1.638  32.183  12.827
20187W        W92447  33.474   6.250  13.450
20188W        W92448  33.597  15.268  12.857
20189W        W92449  36.877  14.334  12.902
20190W        W92450   0.471   2.792  13.394
20191W        W92451   1.561   2.755  13.998
20192W        W92452  41.652  32.487  11.083
20193W        W92453  12.326   8.858   4.511
20194W        W92454  23.595  32.394  12.888
20195W        W92455  33.582  13.803  11.105
20196W        W92456  31.114  21.135  13.524
20197W        W92457   4.399   6.356   0.739
20198W        W92458  41.005  18.099  13.747
20199W        W92459  13.252  34.705  14.248
20200W        W92460  38.595   3.257  14.412
20201W        W92461  23.529  39.297  13.130
20202W        W92462  22.802  38.603   3.241
20203W        W92463  15.712  16.578   5.091
20204W        W92464  20.306  39.946  11.540
20205W        W92465  19.527  26.712  11.208
20206W        W92466  32.666  10.521  14.708
20207W        W92467  42.294   6.248  10.600
20208W        W92468   1.822  43.731   3.630
20209W        W92469  21.641   9.357  12.482
20210W        W92470  24.243  34.175   3.788
20211W        W92471  27.130  17.391   4.156
20212W        W92472  41.929  31.907  13.084
20213W        W92473  40.515  13.274   1.799
20214W        W92474  28.678  16.870  11.137
20215W        W92475  35.090  27.983   0.291
20216W        W92476  17.615   6.147   4.633
20217W        W92477  26.713   5.735   4.593
20218W        W92478  12.387  31.848  11.216
20219W        W92479  12.209  31.883  14.251
20220W        W92480  33.867  20.034   1.850
20221W        W92481  26.714   0.310  13.766
20222W        W92482  25.171   4.498   1.751
20223W        W92483  32.640  15.916   4.530
20224W        W92484  18.566   8.287  13.029
20225W        W92485  14.125  37.172   3.077
20226W        W92486  23.695   2.004   2.016
20227W        W92487  32.544  38.329  12.492
20228W        W92488   8.238  27.168   4.264
20229W        W92489  39.278  38.766   1.436
20230W        W92490  20.621  32.026   3.824
20231W        W92491   6.817  15.725   0.692
20232W        W92492  28.334  41.284  12.658
20233W        W92493  29.460  37.451   2.635
20234W        W92494  17.598   2.774  12.288
20235W        W92495   5.858  33.381  11.947
20236W        W92496  25.233  29.897  13.527
20237W        W92497  38.442  16.200   4.421
20238W        W92498  29.078   6.449   1.742
20239W        W92499   6.954   8.336   3.987
20240W        W92500   5.454  28.410  12.535
20241W        W92501   5.838  44.099   1.222
20242W        W92502   3.688  16.173   0.795
20243W        W92503  38.515  17.101   4.423
20244W        W92504  36.329  26.160  13.021
20245W        W92505  15.656  11.555  11.180
20246W        W92506  11.072  42.723  13.922
20247W        W92507  43.338  20.079   0.271
20248W        W92508  20.330  19.232   1.263
20249W        W92509  44.527  30.802  11.124
20250W        W92510  16.436  15.030  11.578
20251W        W92511  44.957  37.661  11.024
20252W        W92512  39.912   5.354   4.675
20253W        W92513  18.584  13.573  10.685
20254W        W92514  18.642  44.314   2.877
20255W        W92515  14.351  18.265   2.203
20256W        W92516  12.161  32.752   1.181
20257W        W92517  14.246   2.049   4.424
20258W        W92518  31.881  18.666  10.764
20259W        W92519  25.849   6.261  10.346
20260W        W92520  22.641   9.582  11.566
20261W        W92521  36.466  40.927  12.623
20262W        W92522  17.338   2.827   5.060
20263W        W92523   5.392  24.751  12.941
20264W        W92524  24.657  28.239  12.090
20265W        W92525  39.945  41.526   2.768
20266W        W92526   5.157  20.247   4.453
20267W        W92527   3.986   8.682  11.047
20268W        W92528  20.363   2.276  11.419
20269W        W92529   6.165  33.089   2.250
20270W        W92530  23.011  12.601   4.636
20271W        W92531  18.274   8.488   1.468
20272W        W92532  19.973   1.470  12.368
20273W        W92533   9.337   6.742   0.838
20274W        W92534  14.315  21.781   0.076
20275W        W92535  42.319  32.128   0.746
20276W        W92536  37.164   7.566  10.221
20277W        W92537  11.867  33.505  11.220
20278W        W92538   8.621  32.634  10.869
20279W        W92539   8.690  30.333  13.146
20280W        W92540  41.823  24.053   1.397
20281W        W92541  16.757   1.070   1.411
20282W        W92542  12.895  37.559   4.802
20283W        W92543  12.347  38.437  12.791
20284W        W92544  43.832   2.452  10.471
20285W        W92545  17.784  18.076   0.710
20286W        W92546  40.811  12.654   4.083
20287W        W92547  19.558  17.467   3.193
20288W        W92548  29.648  43.804   0.738
20289W        W92549  34.169  16.533  11.469
20290W        W92550  15.431  13.734   5.515
20291W        W92551   1.321  39.193  11.073
20292W        W92552  44.731  30.642   2.259
20293W        W92553  21.690  23.392   3.179
20294W        W92554   1.559   0.837  12.079
20295W        W92555   6.868  14.180  14.679
20296W        W92556  37.502  13.823   3.861
20297W        W92557  20.657  13.682   4.460
20298W        W92558   4.731   3.705   3.368
20299W        W92559   9.254  33.602  13.410
20300W        W92560  42.908  43.540   0.973
20301W        W92561   7.342  20.501  13.792
20302W        W92562  42.465  30.244  13.441
20303W        W92563  33.180  31.907   0.735
20304W        W92564  38.973  44.196  11.507
20305W        W92565   9.456   6.882  11.817
20306W        W92566   8.374   5.686   4.546
20307W        W92567  35.569   0.034   3.989
20308W        W92568  29.466  28.648   1.715
20309W        W92569   6.311   2.563  14.855
20310W        W92570  22.279  21.688   4.823
20311W        W92571  34.743   7.477   1.258
20312W        W92572  19.537  34.531   3.700
20313W        W92573  35.595  26.549  13.105
20314W        W92574  42.456  15.274  13.021
20315W        W92575  35.754  42.122   0.515
20316W        W92576   4.660  39.820   4.609
20317W        W92577  26.347   0.559  14.049
20318W        W92578  28.385   4.907  14.357
20319W        W92579  10.138   8.354  14.322
20320W        W92580  23.646  11.754  11.419
20321W        W92581  10.281  27.005   0.961
20322W        W92582  38.841  30.591  11.160
20323W        W92583  31.047  32.507  12.173
20324W        W92584   4.338   2.829  13.230
20325W        W92585  43.268  31.744  14.737
20326W        W92586  44.283   7.306   1.939
20327W        W92587  13.658  18.803  13.895
20328W        W92588  38.783  24.083   0.271
20329W        W92589   3.011  41.939  11.145
20330W        W92590  28.166  44.232  13.504
20331W        W92591   5.850  31.681   4.110
20332W        W92592  21.733  35.764   4.772
20333W        W92593  34.343  21.811  11.598
20334W        W92594  22.490  15.829   4.584
20335W        W92595  15.825  18.448  13.621
20336W        W92596  22.964  31.611   3.757
20337W        W92597  31.022   4.854   4.958
20338W        W92598  16.515  17.725   4.678
20339W        W92599  10.705  21.835  11.652
20340W        W92600  19.978  33.743   2.544
20341W        W92601  21.349   5.327   0.908
20342W        W92602  32.061  40.301  11.883
20343W        W92603  16.159  14.583   2.587
20344W        W92604  12.058  23.577  12.505
20345W        W92605  35.084  21.328  13.871
20346W        W92606  34.379  30.060  12.004
20347W        W92607  14.197  38.823   0.376
20348W        W92608  28.920  28.127  11.530
20349W        W92609  26.380  42.825   4.790
20350W        W92610   1.903  16.701   0.243
20351W        W92611  36.862  44.077   3.392
20352W        W92612   6.492  10.898  11.419
20353W        W92613  36.494  44.578  11.417
20354W        W92614  30.731  16.767  11.572
20355W        W92615  22.887  19.441  13.996
20356W        W92616  13.773  42.936  13.810
20357W        W92617  17.764  27.180  13.008
20358W        W92618  17.022  28.384   2.320
20359W        W92619  20.092  18.038  12.458
20360W        W92620  30.664  25.377   1.752
20361W        W92621   9.465  36.900  13.769
20362W        W92622   5.902  10.368   1.884
20363W        W92623   5.021  39.456   3.783
20364W        W92624   6.679  23.941  12.261
20365W        W92625  31.240  26.277  13.079
20366W        W92626  34.997  21.425   0.724
20367W        W92627   5.639   0.692   2.241
20368W        W92628  35.130   4.887  13.664
20369W        W92629  23.067  41.339   4.065
20370W        W92630  38.142  43.991   2.454
20371W        W92631  39.459  30.893   0.220
20372W        W92632  27.430  32.522   4.516
20373W        W92633  25.854  20.522  13.708
20374W        W92634  37.894  37.360   3.681
20375W        W92635  35.943  19.944   1.338
20376W        W92636   8.774  19.291   2.671
20377W        W92637  31.558  44.900   0.766
20378W        W92638  14.462   8.894  14.226
20379W        W92639  22.351  38.440   4.511
20380W        W92640  43.258  29.941   2.757
20381W        W92641   6.511  15.221  12.918
20382W        W92642  25.500  17.184  10.508
20383W        W92643  32.713  32.254  10.184
20384W        W92644  20.483  30.554  12.813
20385W        W92645  18.286  26.500   4.062
20386W        W92646  22.092  20.568  13.385
20387W        W92647  28.860  40.810  12.868
20388W        W92648  12.343  15.554  14.851
20389W        W92649  35.973  42.018  14.450
20390W        W92650  17.731   6.179   1.718
20391W        W92651  29.514  19.266   0.887
20392W        W92652  35.945  11.538   4.757
20393W        W92653  12.690  40.258   0.827
20394W        W92654  37.619  40.151  13.502
20395W        W92655  18.179   1.298   1.532
20396W        W92656  38.022   7.864   1.652
20397W        W92657  29.418  11.609  12.929
20398W        W92658  28.664  11.539   2.430
20399W        W92659   7.930   4.231  13.544
20400W        W92660  21.563  35.083  12.836
20401W        W92661  14.784  11.709   1.470
20402W        W92662  33.131  21.164   4.542
20403W        W92663  16.661  37.331  14.552
20404W        W92664  41.062   9.894   4.425
20405W        W92665  11.884  24.291   1.749
20406W        W92666  33.319  15.415   3.486
20407W        W92667  14.159  17.321   3.064
20408W        W92668  30.869  29.550  13.739
20409W        W92669  14.698  31.322   5.740
20410W        W92670  44.427  39.609   4.129
20411W        W92671  19.819   1.776  10.642
20412W        W92672   6.024   2.430   2.714
20413W        W92673  25.341  32.056   4.937
20414W        W92674  43.293   8.380   1.247
20415W        W92675  22.167  21.285   2.461
20416W        W92676  40.575  15.542   0.901
20417W        W92677  34.312  25.614  11.587
20418W        W92678  29.673  19.035  14.352
20419W        W92679  20.240   5.695  13.423
20420W        W92680   7.162  32.960  12.941
20421W        W92681  34.807  20.523   2.288
20422W        W92682   2.349  13.687   1.821
20423W        W92683  30.161  13.575   4.229
20424W        W92684  44.406  23.627   4.695
20425W        W92685  21.717  11.885   4.083
20426W        W92686  12.208  40.531  12.495
20427W        W92687  42.058  40.703  10.040
20428W        W92688  22.542   2.905  13.467
20429W        W92689  38.309  39.774   4.237
20430W        W92690  34.471   9.104  14.894
20431W        W92691   5.442  17.364   3.173
20432W        W92692  32.694   9.705  10.607
20433W        W92693  22.674  11.835  13.009
20434W        W92694   0.758  28.898  13.409
20435W        W92695  16.073  30.342  10.684
20436W        W92696  34.430  23.781   1.894
20437W        W92697  28.157  10.480   1.449
20438W        W92698  14.945  26.926   0.262
20439W        W92699  19.552  36.893   4.903
20440W        W92700  43.955  31.236  12.369
20441W        W92701  12.370  10.291   2.909
20442W        W92702   6.934  13.714   3.850
20443W        W92703  17.192  39.326  12.977
20444W        W92704   7.312  33.047  14.745
20445W        W92705  33.645  12.206   4.451
20446W        W92706   9.258  39.432   2.389
20447W        W92707  22.991  18.119  11.459
20448W        W92708  19.108   1.280  14.949
20449W        W92709   0.821   6.228   1.700
20450W        W92710  33.641  33.960  12.064
20451W        W92711  17.572   5.356   3.429
20452W        W92712  20.530  17.057  10.760
20453W        W92713  27.602  43.261  11.103
20454W        W92714  16.157  22.277  10.940
20455W        W92715  29.043  17.794  12.529
20456W        W92716  20.143   4.684   0.255
20457W        W92717  12.206  23.864   3.875
20458W        W92718  37.431   5.319  11.864
20459W        W92719  10.833   8.191  13.742
20460W        W92720  41.772  44.430   2.125
20461W        W92721  40.707   9.293  13.470
20462W        W92722   5.912   1.824   1.306
20463W        W92723  41.954  29.389   0.015
20464W        W92724  11.945   6.380  12.807
20465W        W92725  32.894  22.773  11.577
20466W        W92726  26.180  35.368  10.741
20467W        W92727  11.695   7.409  14.729
20468W        W92728  17.088  37.095   2.833
20469W        W92729  41.329  23.409   2.973
20470W        W92730  20.877  17.419   1.515
20471W        W92731   7.357  26.898  13.879
20472W        W92732  40.289  20.580  13.479
20473W        W92733  11.947   6.692   1.283
20474W        W92734  44.223  39.823   3.649
20475W        W92735  24.235   2.202  14.230
20476W        W92736   0.473  32.333   1.723
20477W        W92737  10.098  37.644  12.663
20478W        W92738  31.053   1.256  10.952
20479W        W92739  38.402  42.323   0.938
20480W        W92740  15.002  16.522   4.482
20481W        W92741  14.815  26.398   1.350
20482W        W92742  42.875  43.426   0.441
20483W        W92743  10.380  18.679  13.117
20484W        W92744  35.402  24.725   3.846
20485W        W92745  23.093   6.591   0.299
20486W        W92746  17.065   9.117   4.323
20487W        W92747   8.636  28.672   4.369
20488W        W92748  10.075  32.004  11.050
20489W        W92749   8.322  35.396  14.916
20490W        W92750  19.907  20.309  13.301
20491W        W92751  42.866  29.958   4.554
20492W        W92752  33.515   2.468  11.391
20493W        W92753  43.251   2.730  12.075
20494W        W92754  16.072  31.924   4.680
20495W        W92755  20.063  42.930  11.182
20496W        W92756   9.883   0.232   4.634
20497W        W92757  36.869   7.092   4.975
20498W        W92758  33.092  16.989  11.990
20499W        W92759  32.027   9.025  12.509
20500W        W92760   6.723  18.328  14.923
20501W        W92761  17.671  27.866  11.550
20502W        W92762  44.254   6.307   3.687
20503W        W92763  24.841  21.907   2.233
20504W        W92764  33.349   1.928  11.212
20505W        W92765  28.766  43.086   2.724
20506W        W92766   9.973  39.669   1.766
20507W        W92767  15.059  16.628   2.179
20508W        W92768   2.826  41.451  10.750
20509W        W92769   2.625  10.105   3.740
20510W        W92770  44.726  41.755   3.609
20511W        W92771  25.650  17.122  12.481
20512W        W92772  17.383  22.716   3.018
20513W        W92773   2.949  13.869  11.145
20514W        W92774  36.357  43.214  11.516
20515W        W92775  28.200  40.783  12.017
20516W        W92776  22.614  21.165  12.999
20517W        W92777  31.569   4.696  13.975
20518W        W92778  17.779   2.746  13.936
20519W        W92779  29.252   0.102  11.206
20520W        W92780  35.470   5.932  11.861
20521W        W92781  23.679  27.958  10.223
20522W        W92782  10.852  19.997  14.353
20523W        W92783  22.474  42.348  10.792
20524W        W92784  30.747  23.433   1.823
20525W        W92785  22.399  26.523   1.619
20526W        W92786  15.409  25.024  10.765
20527W        W92787  26.621   8.023   4.049
20528W        W92788   8.233  41.462   2.435
20529W        W92789  33.348  12.901   0.365
20530W        W92790   9.462  33.993   2.741
20531W        W92791  25.489   1.757  11.094
20532W        W92792  36.117  40.809   2.367
20533W        W92793  32.382  20.067   0.334
20534W        W92794   7.764  39.909  11.908
20535W        W92795  39.611  31.522  11.598
20536W        W92796   1.909  29.360   3.375
20537W        W92797  44.049   2.397   0.919
20538W        W92798  30.909  16.720   3.214
20539W        W92799  20.345  43.290  13.404
20540W        W92800  23.565  39.333  12.080
20541W        W92801  15.537  12.878   3.835
20542W        W92802  22.351   3.938  12.633
20543W        W92803  13.711  12.366  10.658
20544W        W92804   6.406  12.103   1.819
20545W        W92805   8.149  21.702   1.347
20546W        W92806   7.362  15.734  14.235
20547W        W92807  19.560   1.319  13.146
20548W        W92808  11.056  37.539   2.264
20549W        W92809  37.597  25.660  13.001
20550W        W92810  15.201  32.649  14.345
20551W        W92811   7.823   5.216   1.978
20552W        W92812  26.581  38.532  14.635
20553W        W92813  16.061  27.691   1.211
20554W        W92814  43.486  39.868  10.989
20555W        W92815  37.554  25.455   2.286
20556W        W92816  29.413  21.297  12.147
20557W        W92817   7.548   7.737   4.479
20558W        W92818   7.775  15.555   2.668
20559W        W92819  25.030  27.786  14.314
20560W        W92820  36.092  39.925  10.676
20561W        W92821   3.251  28.318   5.307
20562W        W92822   5.514  34.420  14.825
20563W        W92823  18.783  21.758  11.969
20564W        W92824   9.966  10.333   5.126
20565W        W92825  39.401   4.203   4.542
20566W        W92826   5.911  14.999  13.350
20567W        W92827  25.951   7.854   2.261
20568W        W92828  18.942   0.765  12.521
20569W        W92829  34.150  26.574  10.629
20570W        W92830  32.642  39.515   1.874
20571W        W92831  17.493   7.494   5.016
20572W        W92832  42.413  40.045   3.222
20573W        W92833  32.042  25.005  13.715
20574W        W92834   9.646  38.522  11.678
20575W        W92835   4.944  38.888   0.727
20576W        W92836   2.533  14.950  13.375
20577W        W92837  11.272  32.848  12.363
20578W        W92838  15.910  17.914  12.907
20579W        W92839  13.783   3.603  11.344
20580W        W92840  22.828   3.276  13.233
20581W        W92841  21.300  25.122  11.133
20582W        W92842  18.874  28.096   1.124
20583W        W92843  38.504  24.481  14.703
20584W        W92844  44.576  11.717  12.936
20585W        W92845  41.789   4.408  11.541
20586W        W92846   5.249  34.871  12.629
20587W        W92847  42.529  16.581   4.806
20588W        W92848  28.070  39.442   4.932
20589W        W92849  20.091  25.320   0.377
20590W        W92850  15.165  32.655   2.928
20591W        W92851   1.694  18.617   1.319
20592W        W92852  27.453  35.465   3.406
20593W        W92853   0.209  27.424  13.924
20594W        W92854  13.064  19.319  11.659
20595W        W92855  32.584   9.439  13.390
20596W        W92856  33.627  34.345  11.504
20597W        W92857  13.779  14.866   0.434
20598W        W92858   6.960   4.021  13.908
20599W        W92859   1.352  34.424   2.697
20600W        W92860  31.594  31.595   3.274
20601W        W92861  26.979  12.368   1.310
20602W        W92862  23.355   8.574   5.176
20603W        W92863  31.386   8.171   2.859
20604W        W92864  31.156  38.494  12.950
20605W        W92865  25.060  12.922  13.939
20606W        W92866  18.833  33.635  14.417
20607W        W92867  14.167   6.788  13.990
20608W        W92868  44.313  24.943  14.947
20609W        W92869  20.227  11.722   0.681
20610W        W92870  17.830  31.674  12.984
20611W        W92871  31.691  36.120  11.070
20612W        W92872  30.248   9.673  10.933
20613W        W92873  33.694  35.981   4.569
20614W        W92874  38.631  33.879  12.241
20615W        W92875  26.361  26.979   0.773
20616W        W92876  22.072  41.232  13.545
20617W        W92877  28.243   5.775  14.261
20618W        W92878  19.336  27.127   4.528
20619W        W92879  32.172  29.653   4.205
20620W        W92880   6.838  23.319   3.244
20621W        W92881  12.390  42.579  11.085
20622W        W92882  13.842   1.035  14.169
20623W        W92883  28.873   9.339  13.200
20624W        W92884  23.069   4.854  11.474
20625W        W92885  42.673  44.011   1.159
20626W        W92886  28.601   2.784  10.803
20627W        W92887  13.166  30.470  14.790
20628W        W92888   4.770  16.028  14.563
20629W        W92889   9.204   9.252   4.931
20630W        W92890  26.896  39.937   4.075
20631W        W92891  16.851  39.460  11.999
20632W        W92892  32.109  30.094   3.345
20633W        W92893  39.862  16.276  10.360
20634W        W92894  14.197   5.941   0.236
20635W        W92895  43.514  21.292  12.946
20636W        W92896  21.966  43.346  14.867
20637W        W92897  25.743  11.611   0.387
20638W        W92898  21.205  29.388   1.408
20639W        W92899  32.324  16.228   0.860
20640W        W92900   8.936  38.878  13.478
20641W        W92901  38.832   9.059  14.780
20642W        W92902   6.242  33.640  12.187
20643W        W92903  27.515  38.683  12.917
20644W        W92904  38.978  22.650  14.879
20645W        W92905  36.413  14.418   3.193
20646W        W92906   5.672  12.332  10.826
20647W        W92907  22.620  13.169  10.725
20648W        W92908  25.181   9.802  10.714
20649W        W92909  12.395  32.477  11.459
20650W        W92910   0.965  31.160   0.347
20651W        W92911  10.401  28.432  10.889
20652W        W92912  43.377  27.026   2.383
20653W        W92913  40.281  19.723  14.728
20654W        W92914  37.352  33.170  14.837
20655W        W92915   0.394  28.222  12.596
20656W        W92916  20.631   2.726   4.234
20657W        W92917   6.604   8.669   1.728
20658W        W92918  10.193  42.740  11.987
20659W        W92919  22.658  24.180  11.909
20660W        W92920  34.683  18.111  10.451
20661W        W92921  21.157  20.317   0.229
20662W        W92922   6.231   0.207  11.608
20663W        W92923  26.942  14.329  14.808
20664W        W92924   9.802  13.841  13.130
20665W        W92925  27.693   2.903   0.781
20666W        W92926  32.441  18.195   4.686
20667W        W92927  37.059   8.250   0.388
20668W        W92928  41.571  11.057   1.354
20669W        W92929  17.175   8.368  13.377
20670W        W92930  19.606  19.129  11.142
20671W        W92931  24.019  20.051  14.188
20672W        W92932  44.371  13.619  14.255
20673W        W92933  41.901   7.581   3.347
20674W        W92934  39.059   5.292   0.259
20675W        W92935  29.320  24.979   1.829
20676W        W92936  39.032   8.707   0.719
20677W        W92937  11.958  30.553  11.915
20678W        W92938   6.913  42.473   2.469
20679W        W92939  22.613  24.473  11.099
20680W        W92940  27.239   4.361   2.812
20681W        W92941  31.314   7.266   3.424
20682W        W92942  19.623  34.893  13.964
20683W        W92943   6.400   8.670   1.236
20684W        W92944   9.747  42.545   2.316
20685W        W92945  34.331  11.303   1.244
20686W        W92946  27.242  30.466  12.971
20687W        W92947   4.909  18.536   1.346
20688W        W92948  30.744  41.953  12.510
20689W        W92949  15.767  26.507  11.129
20690W        W92950  41.786  21.146   1.880
20691W        W92951  18.184   9.263   0.754
20692W        W92952  15.714  22.062   9.982
20693W        W92953   1.951  23.342  12.443
20694W        W92954  42.980  21.038   1.050
20695W        W92955  35.917  41.862  11.875
20696W        W92956  21.678  16.473  11.302
20697W        W92957  30.752  29.989  10.636
20698W        W92958  43.516  25.798   0.239
20699W        W92959  35.879   6.727   3.973
20700W        W92960  15.560  37.043  12.996
20701W        W92961  31.119  43.884   3.436
20702W        W92962  22.904  10.160  10.822
20703W        W92963   7.966  14.432   3.596
20704W        W92964  16.984  36.427   3.672
20705W        W92965  26.427  38.386  13.650
20706W        W92966   1.754  28.614   3.648
20707W        W92967   4.176  18.565  12.116
20708W        W92968  19.015  40.535  13.101
20709W        W92969  23.497  36.417   1.414
20710W        W92970  27.440  24.948   1.842
20711W        W92971   4.676  24.752  11.221
20712W        W92972  31.662  16.721  14.785
20713W        W92973  15.322   7.684   0.375
20714W        W92974  37.889  11.187  12.088
20715W        W92975  41.160  41.970  13.392
20716W        W92976  33.209  28.183   0.518
20717W        W92977  14.182  10.359  12.075
20718W        W92978  15.218   9.083   4.545
20719W        W92979  11.151   8.126  14.533
20720W        W92980  18.725  15.701  10.938
20721W        W92981   9.880   0.312  13.327
20722W        W92982  14.543  29.912   1.514
20723W        W92983   7.310   3.673  12.006
20724W        W92984  35.367  20.983   3.240
20725W        W92985  23.301  44.919  12.974
20726W        W92986  13.799  10.859   0.073
20727W        W92987  18.503  20.248   0.227
20728W        W92988  32.859   7.684   3.480
20729W        W92989  35.513  44.363   2.350
20730W        W92990  22.439   7.280  11.070
20731W        W92991  44.830   6.322   3.718
20732W        W92992  42.294  38.138  13.513
20733W        W92993  19.232  29.180   0.852
20734W        W92994  11.282  40.301  10.751
20735W        W92995   5.917  29.734  12.084
20736W        W92996  38.273  30.306  12.888
20737W        W92997   9.563  42.280  13.985
20738W        W92998  13.863  17.372  13.963
20739W        W92999  39.868  25.103   4.396
20740W        W93000   0.400  22.114  13.945
20741W        W93001  29.057  22.064  14.382
20742W        W93002  19.600  27.158  11.868
20743W        W93003  23.796  31.054  10.885
20744W        W93004  19.669  39.370  13.882
20745W        W93005  13.187  18.363  11.597
20746W        W93006  30.720   8.340  14.983
20747W        W93007   2.728  20.636   0.372
20748W        W93008  15.727  36.982  14.251
20749W        W93009  13.132  28.752  13.433
20750W        W93010  12.120   6.004   2.425
20751W        W93011  27.675  26.747   2.767
20752W        W93012  10.149  41.945   4.500
20753W        W93013   6.200   6.412   2.761
20754W        W93014  21.458  28.128  14.293
20755W        W93015  37.625  35.940  10.632
20756W        W93016  25.801  27.433  11.408
20757W        W93017  38.892  34.944  12.675
20758W        W93018   5.200  41.205  10.631
20759W        W93019  17.543  15.526  12.958
20760W        W93020   1.713  37.533  13.384
20761W        W93021  42.439   6.710   1.896
20762W        W93022  32.488   5.262   0.882
20763W        W93023  36.340  19.557  10.523
20764W        W93024   2.369  18.860  14.046
20765W        W93025   4.937  19.035   1.540
20766W        W93026  33.559  14.097  13.902
20767W        W93027  18.213  17.572   4.430
20768W        W93028  39.832  28.586  13.823
20769W        W93029   3.840  20.634   4.508
20770W        W93030  21.061  32.550  14.928
20771W        W93031   2.001  33.510  13.437
20772W        W93032  29.780  41.285   3.300
20773W        W93033  25.195  37.119   0.406
20774W        W93034  17.607  29.410   3.287
20775W        W93035  20.407  16.485   4.511
20776W        W93036  11.761  15.585   1.704
20777W        W93037  38.899  19.354  10.848
20778W        W93038  42.634  25.457   1.202
20779W        W93039   9.921  33.128   4.219
20780W        W93040   6.891  21.356   1.621
20781W        W93041  14.914   9.964  10.111
20782W        W93042  16.275  18.807  12.036
20783W        W93043  43.785   9.318  13.617
20784W        W93044  11.272  16.887  14.906
20785W        W93045   0.428  15.108   1.464
20786W        W93046  38.226  10.217  14.422
20787W        W93047  42.725  19.348  12.487
20788W        W93048  11.421  28.509  11.085
20789W        W93049  19.449  38.911   2.348
20790W        W93050  24.455  18.035  10.561
20791W        W93051   6.232  33.622  11.666
20792W        W93052  15.718   0.958   4.749
20793W        W93053   4.805  20.779  13.547
20794W        W93054  25.958  43.773  11.455
20795W        W93055  18.596  29.426   0.923
20796W        W93056  27.780  33.065  10.679
20797W        W93057   4.482  18.725  11.727
20798W        W93058  10.771  24.732  12.245
20799W        W93059  38.013  26.211   3.860
20800W        W93060  27.573   1.424   4.721
20801W        W93061   3.146  24.093   0.773
20802W        W93062  38.151  16.390   1.299
20803W        W93063  41.238  35.324   1.548
20804W        W93064  39.542   6.896   9.775
20805W        W93065  37.230  14.736   0.549
20806W        W93066  31.807  28.224  14.079
20807W        W93067  20.255  24.286   0.240
20808W        W93068  16.305  19.107  13.107
20809W        W93069  22.178  28.607   3.631
20810W        W93070  39.373  25.560   0.483
20811W        W93071  40.390   9.739  10.412
20812W        W93072  18.412  13.512   5.045
20813W        W93073  32.062  34.647   4.867
20814W        W93074  20.080   9.397   3.818
20815W        W93075   4.153  17.053  10.629
20816W        W93076   9.354  23.186   4.689
20817W        W93077  18.852  42.714   9.984
20818W        W93078  43.355   7.675   4.220
20819W        W93079  26.519  15.487  12.107
20820W        W93080   8.024  23.574   1.732
20821W        W93081  43.264   0.857  14.813
20822W        W93082  15.031  19.690  11.191
20823W        W93083   1.544  28.543   1.412
20824W        W93084  31.822   8.351  14.770
20825W        W93085  11.937  31.662  14.995
20826W        W93086  20.033   9.461   3.297
20827W        W93087  24.123  28.540   4.638
20828W        W93088  19.797   0.936   3.643
20829W        W93089  33.517  16.988   1.180
20830W        W93090  44.843  23.429   4.541
20831W        W93091   0.670  29.042  12.107
20832W        W93092  29.521  29.975  11.525
20833W        W93093   4.323  26.198  12.053
20834W        W93094  11.301  26.692   2.778
20835W        W93095   4.863   9.031  10.443
20836W        W93096  19.182  42.092   4.698
20837W        W93097  15.633  40.461   1.978
20838W        W93098   7.889   4.795   2.867
20839W        W93099  16.182  25.360  14.439
20840W        W93100  36.573  32.351  11.708
20841W        W93101  12.822  10.870  10.538
20842W        W93102   3.294   2.785   1.429
20843W        W93103  22.833   5.830  14.037
20844W        W93104  27.034  34.089   2.133
20845W        W93105  11.733  15.189   1.348
20846W        W93106  38.937  21.342   1.730
20847W        W93107  28.628  12.243   3.218
20848W        W93108  42.943   5.355   4.185
20849W        W93109  23.564  15.152  13.249
20850W        W93110  34.551  34.620   1.396
20851W        W93111  15.952  23.527   5.061
20852W        W93112  18.093   2.896  12.216
20853W        W93113  13.229   4.689   4.112
20854W        W93114  20.820  17.201  13.038
20855W        W93115  40.922   6.023   0.896
20856W        W93116  36.423  34.584   2.378
20857W        W93117   7.878   4.670  14.828
20858W        W93118  24.565  15.138  14.797
20859W        W93119   3.413  16.900   1.710
20860W        W93120  12.843   3.748  11.525
20861W        W93121   5.187   2.384  12.260
20862W        W93122  20.464   7.817  14.741
20863W        W93123  42.432  40.915   0.676
20864W        W93124  14.557  14.320   9.819
20865W        W93125  16.617  17.185   2.803
20866W        W93126  36.800  44.516  12.061
20867W        W93127  12.335  27.716   9.840
20868W        W93128   5.612  28.944   0.688
20869W        W93129  30.984  23.846  11.011
20870W        W93130  22.656  20.695  13.919
20871W        W93131  44.403  21.704  13.208
20872W        W93132  19.543  22.564   0.383
20873W        W93133  33.388  35.641   0.343
20874W        W93134  32.930   1.281  14.733
20875W        W93135  12.289  38.274   1.562
20876W        W93136  16.197  20.791   3.900
20877W        W93137  36.750  35.510  10.670
20878W        W93138  38.848  21.511   0.827
20879W        W93139   1.430  28.817  14.018
20880W        W93140  21.109  27.448  11.527
20881W        W93141   9.921  28.882   3.166
20882W        W93142  16.297  17.054   2.412
20883W        W93143  22.151  25.746   1.805
20884W        W93144   4.349  39.015   2.882
20885W        W93145  26.230  40.339  14.936
20886W        W93146  32.536   9.928   3.302
20887W        W93147   7.311  11.917  14.989
20888W        W93148  11.471  18.994  11.182
20889W        W93149  43.025  44.858  11.958
20890W        W93150  38.596   2.038  10.725
20891W        W93151  11.378   3.465   4.281
20892W        W93152  32.236  20.404  11.150
20893W        W93153  29.236  19.338   4.062
20894W        W93154  41.046   1.499  10.665
20895W        W93155  41.550  31.431  14.382
20896W        W93156  16.786   2.578   2.615
20897W        W93157  35.124  16.595   1.036
20898W        W93158   9.419  44.576  13.506
20899W        W93159  12.684  41.818   1.159
20900W        W93160   4.632   6.992   1.492
20901W        W93161   4.373  43.330   2.905
20902W        W93162  42.439   1.958   4.190
20903W        W93163  22.468  42.037   2.542
20904W        W93164  11.199  24.957  13.375
20905W        W93165  12.022  34.599  14.692
20906W        W93166   4.254  20.248   4.600
20907W        W93167  19.177  25.400  13.868
20908W        W93168  41.499  39.822  14.480
20909W        W93169   7.621  13.913   0.707
20910W        W93170  12.218  15.564   0.931
20911W        W93171   6.442  26.453  11.543
20912W        W93172  15.620  22.531   3.245
20913W        W93173  40.516  37.980  12.145
20914W        W93174  42.952   6.602  12.301
20915W        W93175  40.875   3.031  11.562
20916W        W93176   2.853  27.062   1.850
20917W        W93177  20.179   6.596   4.518
20918W        W93178  36.058  10.454   1.056
20919W        W93179  28.399  27.644   4.615
20920W        W93180  44.005  28.633  11.456
20921W        W93181   0.876  42.340  10.602
20922W        W93182  43.409  43.213   2.142
20923W        W93183  43.718  11.837   3.097
20924W        W93184  34.057  30.883   0.472
20925W        W93185   3.981  10.787  10.745
20926W        W93186   5.309  21.788  10.599
20927W        W93187   9.382  27.579   4.670
20928W        W93188  41.966  11.806  14.039
20929W        W93189  43.883   5.212   3.751
20930W        W93190  22.308   6.570  13.429
20931W        W93191  23.201  42.199   4.163
20932W        W93192  32.007  16.776  12.970
20933W        W93193  43.466   5.940   4.562
20934W        W93194  35.062   0.665  14.769
20935W        W93195  44.268  12.514   5.047
20936W        W93196   2.209   9.059   3.105
20937W        W93197  29.358   8.371   4.171
20938W        W93198  42.205  18.178   2.710
20939W        W93199  24.029  35.554   2.439
20940W        W93200  23.249   1.003   3.279
20941W        W93201   5.872  14.313  14.886
20942W        W93202  29.925  17.795   2.863
20943W        W93203  25.447  14.756   2.327
20944W        W93204  44.513  38.987  10.409
20945W        W93205  37.442  36.576   1.441
20946W        W93206  15.707   6.403   0.781
20947W        W93207  21.334  20.469  10.111
20948W        W93208  38.273  27.895   3.493
20949W        W93209   0.503  39.776  12.139
20950W        W93210   1.922   9.223   0.742
20951W        W93211   2.058  17.519  12.557
20952W        W93212  43.519  31.407  11.083
20953W        W93213   5.927  36.238   4.505
20954W        W93214  21.145  16.841   4.210
20955W        W93215   7.410  25.010   4.700
20956W        W93216   7.425  36.392  14.564
20957W        W93217   6.677  33.565  10.911
20958W        W93218  21.195  18.872   2.779
20959W        W93219  26.423  27.729   3.668
20960W        W93220   7.209  19.809   1.725
20961W        W93221  10.937  33.701  12.579
20962W        W93222  32.380   6.819  12.443
20963W        W93223   7.732  26.915   3.674
20964W        W93224  12.321  27.067  10.535
20965W        W93225  15.648  18.437   4.227
20966W        W93226  14.807  32.577  11.077
20967W        W93227  31.699  31.331  14.456
20968W        W93228  35.483  28.149  14.946
20969W        W93229  29.676   8.692   2.788
20970W        W93230  12.844  25.604  12.354
20971W        W93231  32.070   0.775   0.818
20972W        W93232   8.445  17.271   0.568
20973W        W93233  44.773  10.216   3.624
20974W        W93234  27.733  29.512   2.441
20975W        W93235  36.377  12.758   2.177
20976W        W93236  31.138  24.184  14.159
20977W        W93237  31.432  36.558  12.899
20978W        W93238  43.725  19.958  11.182
20979W        W93239  22.222  14.622   0.273
20980W        W93240  27.013  28.025   0.283
20981W        W93241  25.438   2.801   2.305
20982W        W93242  43.707  33.058   3.394
20983W        W93243  32.918   8.629  12.394
20984W        W93244  32.018  13.316   1.797
20985W        W93245  26.209  32.748  13.455
20986W        W93246  42.939   6.600  12.866
20987W        W93247  42.986  23.490  12.318
20988W        W93248   2.340  39.607  12.974
20989W        W93249  21.160   0.514  11.651
20990W        W93250  23.606  12.737   2.768
20991W        W93251   8.630  31.690   4.039
20992W        W93252  34.368  17.600  12.645
20993W        W93253  22.613  18.444  13.940
20994W        W93254  12.429  16.132   3.135
20995W        W93255  30.477  17.247   0.274
20996W        W93256  25.399  24.672  13.503
20997W        W93257  31.840  34.127   4.635
20998W        W93258  27.231  16.656   2.848
20999W        W93259  40.545  30.906  10.429
21000W        W93260  21.246  21.043   4.621
21001W        W93261  11.566  43.081  12.519
21002W        W93262  14.127  23.620   0.184
21003W        W93263  26.660  27.709  11.574
21004W        W93264  37.366  29.943   0.246
21005W        W93265  44.783  31.075  14.447
21006W        W93266  21.675  18.338  10.181
21007W        W93267  22.922  44.560  12.839
21008W        W93268  10.336  41.377  13.468
21009W        W93269  10.012  44.549  10.757
21010W        W93270  17.953  39.347  10.833
21011W        W93271   0.394   3.894   4.148
21012W        W93272  33.882  26.113  10.610
21013W        W93273  22.310  29.361   4.223
21014W        W93274  22.461  40.426   2.133
21015W        W93275  44.880  19.608   0.852
21016W        W93276  32.360   9.204  10.760
21017W        W93277   9.340  21.552   4.585
21018W        W93278  16.227  30.659   1.934
21019W        W93279  35.840  12.096   1.766
21020W        W93280   6.136  23.229   0.735
21021W        W93281  23.321   0.892   4.263
21022W        W93282  19.554  30.048  14.326
21023W        W93283  13.400   8.421  12.124
21024W        W93284  26.916  17.456  11.982
21025W        W93285  36.355   6.684  13.408
21026W        W93286   9.436  11.490  11.122
21027W        W93287  24.046  16.770   0.987
21028W        W93288  27.483  22.228  14.882
21029W        W93289  31.592  43.767  13.737
21030W        W93290  36.495   3.949  10.982
21031W        W93291  44.335   2.782   2.758
21032W        W93292  30.614  23.262  11.404
21033W        W93293  20.089  41.919   0.820
21034W        W93294  19.558  30.360  12.962
21035W        W93295  12.772   3.711  10.587
21036W        W93296  24.126  25.850   1.151
21037W        W93297  34.718  43.872   1.400
21038W        W93298  28.449  10.883   4.567
21039W        W93299  41.813  29.995   0.655
21040W        W93300  44.443  28.287  11.483
21041W        W93301  32.048   4.749  11.041
21042W        W93302   5.198   3.442   4.024
21043W        W93303   7.933   6.347   3.971
21044W        W93304   7.518   7.903  13.004
21045W        W93305  31.568  42.846  10.464
21046W        W93306  41.014  19.233  13.319
21047W        W93307   4.675  41.379  14.362
21048W        W93308  41.462  30.881  10.770
21049W        W93309  31.309   2.384  12.947
21050W        W93310   9.879   4.392  12.106
21051W        W93311  39.554  43.142  14.422
21052W        W93312   8.402   1.376   0.271
21053W        W93313  15.642  12.295   1.248
21054W        W93314   4.980  43.886   3.371
21055W        W93315  28.537  15.361   2.260
21056W        W93316  31.037  39.091   0.356
21057W        W93317  34.062  37.891  13.956
21058W        W93318  40.144  32.137  11.485
21059W        W93319   4.935  20.120  10.524
21060W        W93320   5.521  41.401   2.394
21061W        W93321  29.196  36.276   3.021
21062W        W93322  26.959  22.472  11.470
21063W        W93323  24.556  22.550   4.903
21064W        W93324  13.052  32.053   1.988
21065W        W93325   3.897  41.553   4.197
21066W        W93326   2.850   2.685  14.823
21067W        W93327  26.658  41.034  11.005
21068W        W93328  35.000  35.877   0.398
21069W        W93329   4.333  16.872   1.022
21070W        W93330  35.954  27.197   0.309
21071W        W93331  37.149   0.349  13.629
21072W        W93332   8.285  28.110   5.194
21073W        W93333  13.761  27.642   2.483
21074W        W93334   9.840  28.704  14.548
21075W        W93335   5.294  38.519   4.065
21076W        W93336   4.462  10.590   2.135
21077W        W93337  29.139  36.470   0.821
21078W        W93338  32.576   4.014   4.957
21079W        W93339   4.331  11.823  11.168
21080W        W93340  23.171  43.189   4.137
21081W        W93341  30.019   3.389   1.273
21082W        W93342  25.722  28.508   0.925
21083W        W93343  31.923  30.833   1.070
21084W        W93344  41.515  19.329  13.466
21085W        W93345   9.631   2.818  11.767
21086W        W93346   1.342  39.516  10.669
21087W        W93347  17.032  15.338  14.451
21088W        W93348  28.907  17.072   2.053
21089W        W93349   5.147  39.918   4.811
21090W        W93350  31.706  24.154  11.936
21091W        W93351  16.620  28.019  13.769
21092W        W93352   0.854  39.889   3.151
21093W        W93353   1.413   4.351   1.467
21094W        W93354  10.241  39.807  10.057
21095W        W93355  17.667  23.490   3.190
21096W        W93356  33.667  28.172   5.099
21097W        W93357  12.708  27.233   4.102
21098W        W93358   5.271  38.451   1.658
21099W        W93359  31.868  10.217  13.895
21100W        W93360  26.578  39.826  13.743
21101W        W93361  32.578   9.200   2.279
21102W        W93362  19.599   9.873   4.158
21103W        W93363  30.637  22.168   0.326
21104W        W93364   9.034  38.612   1.900
21105W        W93365  32.409  32.600  10.437
21106W        W93366  14.330  40.492  12.099
21107W        W93367  17.846  16.819   4.338
21108W        W93368  11.096  12.582  13.051
21109W        W93369  14.866   9.786  10.629
21110W        W93370   4.036  15.226   1.703
21111W        W93371   9.346  10.248  12.059
21112W        W93372  28.024  28.951  11.630
21113W        W93373  23.329   9.146   0.128
21114W        W93374   5.245  11.591   2.697
21115W        W93375   6.408   7.446   4.627
21116W        W93376  23.005  31.391  12.329
21117W        W93377   7.903  33.909   4.156
21118W        W93378  44.385  19.291   3.694
21119W        W93379   3.701  35.139   4.551
21120W        W93380  26.648  36.579   2.010
21121W        W93381  43.581   8.803  14.227
21122W        W93382  38.929  33.668  14.177
21123W        W93383  22.083  19.746   4.441
21124W        W93384  24.193  33.075  13.985
21125W        W93385  30.581  13.546   0.731
21126W        W93386  11.241  13.679  13.777
21127W        W93387   9.947  21.558  12.055
21128W        W93388  39.490  22.672   2.062
21129W        W93389   3.198   4.861  13.754
21130W        W93390  13.238  32.758   0.291
21131W        W93391   5.302  29.961   1.448
21132W        W93392  14.163   3.695  14.386
21133W        W93393   4.807  27.276  11.639
21134W        W93394  10.858  22.155   1.928
21135W        W93395  25.750   8.715   2.122
21136W        W93396  18.981   9.225   9.782
21137W        W93397  11.627   4.784   5.091
21138W        W93398  39.897  30.546  14.267
21139W        W93399  10.910  34.763  11.352
21140W        W93400  27.968  40.572  10.626
21141W        W93401  17.990  28.310  13.318
21142W        W93402  27.099  25.779   1.925
21143W        W93403  22.594  29.712   3.979
21144W        W93404  14.588  43.590  11.576
21145W        W93405   8.857  26.018   2.272
21146W        W93406   8.706   7.423   2.638
21147W        W93407  35.442  37.397   3.227
21148W        W93408   4.992  39.362   1.317
21149W        W93409  19.698  26.686   2.802
21150W        W93410  30.093  20.496   3.271
21151W        W93411  30.528   6.799  14.981
21152W        W93412  16.075  36.070   1.897
21153W        W93413  12.437  28.078   1.896
21154W        W93414  12.143  42.927  14.421
21155W        W93415  40.875  12.104   4.836
21156W        W93416  28.935  26.609  10.666
21157W        W93417  27.550  27.225   4.162
21158W        W93418  38.922   0.853  13.449
21159W        W93419  11.851  14.622   4.349
21160W        W93420  36.090  40.628   1.473
21161W        W93421  34.704   5.473  12.559
21162W        W93422  42.392  42.475  12.630
21163W        W93423  10.750  38.295  14.456
21164W        W93424  25.363  37.618  14.769
21165W        W93425  38.050  35.522   3.262
21166W        W93426  15.118  38.748  12.969
21167W        W93427  37.569  25.534  11.284
21168W        W93428  19.109  43.687   3.345
21169W        W93429  24.643  37.704  10.749
21170W        W93430  42.888  32.515  14.023
21171W        W93431   3.209  42.175  13.241
21172W        W93432   3.275  31.960   3.107
21173W        W93433   2.359  22.761   4.324
21174W        W93434  20.104   8.724   0.724
21175W        W93435  40.328  14.660  14.064
21176W        W93436  38.918  10.080   4.545
21177W        W93437   8.722   4.087  11.717
21178W        W93438   5.289  16.278  14.415
21179W        W93439  40.085   2.520   0.933
21180W        W93440  42.391   3.446  12.039
21181W        W93441  32.417  35.934   1.736
21182W        W93442  18.124  25.081   4.541
21183W        W93443   6.904   0.171  11.134
21184W        W93444  39.793   8.733  10.296
21185W        W93445  11.119   6.355   2.683
21186W        W93446  31.449  31.545  12.685
21187W        W93447  37.858   1.310  13.023
21188W        W93448  24.755  27.119  12.807
21189W        W93449  13.343  42.979   0.935
21190W        W93450   7.486  43.049  14.757
21191W        W93451   8.696  21.290  14.039
21192W        W93452   0.556  17.655  12.408
21193W        W93453  10.829  29.187  12.579
21194W        W93454  13.823  23.751  13.578
21195W        W93455   3.843  29.966  14.341
21196W        W93456  14.181  36.688   2.885
21197W        W93457   5.916  26.526  11.435
21198W        W93458   8.217   7.215  10.416
21199W        W93459  21.061  40.080  11.095
21200W        W93460  37.900  23.254   1.208
21201W        W93461   2.887  10.465  14.235
21202W        W93462   4.863   5.889   4.591
21203W        W93463  20.472  35.024  10.330
21204W        W93464  30.327  39.676  14.848
21205W        W93465  14.608  19.575   3.658
21206W        W93466  23.373  40.017  11.645
21207W        W93467   9.205  24.593  13.548
21208W        W93468   6.441  27.243   4.998
21209W        W93469   2.717  29.957   3.948
21210W        W93470   3.836  25.535   2.208
21211W        W93471   5.456  13.019   1.387
21212W        W93472  24.007  27.132  13.912
21213W        W93473  12.108  41.589   1.251
21214W        W93474  18.886  15.274   0.271
21215W        W93475   6.674  20.233  10.727
21216W        W93476  18.454   5.160  10.029
21217W        W93477  22.599  21.745   1.639
21218W        W93478   9.086  20.531   0.731
21219W        W93479  42.141   5.664  12.107
21220W        W93480   6.377  18.987  11.140
21221W        W93481  26.185   7.689  14.344
21222W        W93482  10.545  42.142   4.140
21223W        W93483  41.412  38.959   2.126
21224W        W93484  34.884  19.341   3.179
21225W        W93485  16.960  40.866   3.627
21226W        W93486  32.493   3.730  12.987
21227W        W93487  43.061  22.362  11.624
21228W        W93488  35.113  12.231   2.292
21229W        W93489   1.223  10.089  12.193
21230W        W93490   7.588   2.625  11.629
21231W        W93491   1.609   3.713   0.666
21232W        W93492   1.251   0.351  13.920
21233W        W93493  39.862  22.261  13.086
21234W        W93494  35.176  25.025   1.839
21235W        W93495  37.426  25.472   0.760
21236W        W93496   2.553  30.384   0.296
21237W        W93497  13.640  26.487  13.037
21238W        W93498  24.664  12.460  13.198
21239W        W93499  14.813  33.857   1.320
21240W        W93500   8.919  23.139  13.107
21241W        W93501  18.654  11.175   1.384
21242W        W93502  27.063   9.853   1.479
21243W        W93503   7.972  19.599  11.488
21244W        W93504  11.868   8.810   4.812
21245W        W93505  20.258  20.253  14.926
21246W        W93506  32.926  43.796   0.502
21247W        W93507  16.242   5.883  12.445
21248W        W93508  37.093  24.197  14.995
21249W        W93509  20.670   7.891   3.596
21250W        W93510  27.200  37.610  11.392
21251W        W93511  30.659  32.839   3.665
21252W        W93512  18.615  29.243  11.069
21253W        W93513  37.235  11.738   2.575
21254W        W93514  13.411   5.332  11.185
21255W        W93515  28.861  31.121   1.323
21256W        W93516  41.436  14.736  14.535
21257W        W93517  35.480  31.627  11.443
21258W        W93518  17.205  35.161  11.142
21259W        W93519  34.285   4.843   4.099
21260W        W93520   2.252  11.794   1.471
21261W        W93521  23.769  31.054  14.024
21262W        W93522  29.012  27.844  11.088
21263W        W93523  18.326  12.096   2.433
21264W        W93524  41.018  16.381   0.963
21265W        W93525  43.300  42.559   1.344
21266W        W93526  34.335   5.424   0.929
21267W        W93527   6.278  21.791   2.031
21268W        W93528  21.553  30.392  10.378
21269W        W93529   4.155  38.955   3.799
21270W        W93530  19.589  30.602   0.044
21271W        W93531   0.013  13.241   1.437
21272W        W93532  44.228  25.584   1.696
21273W        W93533  15.071  29.135  12.961
21274W        W93534  33.072  25.333   1.400
21275W        W93535  39.633  40.078  14.872
21276W        W93536  36.137  20.775  10.008
21277W        W93537  22.260  32.744  11.208
21278W        W93538  11.400  35.990  14.033
21279W        W93539   4.034   0.780  10.634
21280W        W93540  33.557  44.963  14.518
21281W        W93541  42.406  19.787   0.989
21282W        W93542   2.793  41.983  10.689
21283W        W93543  27.111  29.069  14.893
21284W        W93544  44.694  17.492  11.542
21285W        W93545  13.380  21.017  14.295
21286W        W93546  36.839  35.457  12.378
21287W        W93547  34.059  39.567  14.017
21288W        W93548   7.334   6.734  12.261
21289W        W93549  19.751   5.386  14.505
21290W        W93550   4.951  12.657  14.691
21291W        W93551  25.215  11.856   4.525
21292W        W93552   9.778  22.101  11.500
21293W        W93553   4.278  32.835   2.876
21294W        W93554  35.579  38.501   3.304
21295W        W93555   5.022  27.197  14.288
21296W        W93556  39.646  42.437  13.638
21297W        W93557  13.147  14.057  11.615
21298W        W93558  25.118   5.862   4.213
21299W        W93559  14.344  23.981   1.014
21300W        W93560  28.556   2.951  14.300
21301W        W93561  15.143  11.745   4.681
21302W        W93562  24.713  40.036  13.055
21303W        W93563  38.916  15.002   5.048
21304W        W93564  12.275  28.325   4.102
21305W        W93565  33.881   5.286  13.346
21306W        W93566  34.456  40.583   1.882
21307W        W93567  11.763  24.019  13.479
21308W        W93568  40.306  24.905   1.368
21309W        W93569  32.653  39.112  13.871
21310W        W93570  40.611  43.293  12.896
21311W        W93571  31.474  29.938  14.211
21312W        W93572  28.360  43.770   3.359
21313W        W93573  30.237  18.554   4.464
21314W        W93574  21.210  20.474  13.402
21315W        W93575   0.717  17.153  10.282
21316W        W93576  22.690  24.990  11.191
21317W        W93577   8.651  14.238   4.711
21318W        W93578  40.509  13.110  10.806
21319W        W93579  21.644  21.091  12.117
21320W        W93580  22.061  34.435   0.024
21321W        W93581  23.859  44.969  12.164
21322W        W93582  41.681  11.129  11.059
21323W        W93583  39.526  44.869   4.687
21324W        W93584  23.107   4.016   3.291
21325W        W93585  33.094  23.602  14.972
21326W        W93586  31.650   9.291   0.460
21327W        W93587  32.069  11.276  10.314
21328W        W93588  43.427  43.204   3.226
21329W        W93589  20.535  40.199   4.313
21330W        W93590  36.404  32.534   1.351
21331W        W93591  21.156  35.919   1.259
21332W        W93592  38.136  43.617   2.091
21333W        W93593  22.341  43.524  13.661
21334W        W93594  15.963  15.678  10.454
21335W        W93595  10.336   2.878   0.614
21336W        W93596  28.945  29.047   2.714
21337W        W93597  33.444  21.630  11.699
21338W        W93598  31.712   1.403  13.335
21339W        W93599  42.380  26.428   1.207
21340W        W93600  31.188  44.439   2.206
21341W        W93601  44.707  31.052  14.959
21342W        W93602  44.770  10.941   2.792
21343W        W93603  18.742   4.936  12.086
21344W        W93604  16.653  16.098  14.869
21345W        W93605  12.607  31.647  10.377
21346W        W93606   0.014  35.603  11.867
21347W        W93607  21.786  37.318   0.850
21348W        W93608  35.491  20.936   9.886
21349W        W93609  25.515   1.481  11.529
21350W        W93610   3.425  39.286  13.385
21351W        W93611   4.888   4.695   4.827
21352W        W93612   6.926  42.513  14.892
21353W        W93613   6.890  27.479  13.304
21354W        W93614  29.617  17.040  11.549
21355W        W93615  31.125  42.262   4.959
21356W        W93616  24.734  19.010   0.925
21357W        W93617   9.297  36.535  14.543
21358W        W93618   4.304  12.606   0.367
21359W        W93619  30.875   9.264  13.003
21360W        W93620  32.394  40.560   3.229
21361W        W93621  36.977  31.894   5.174
21362W        W93622  19.656  27.007  10.437
21363W        W93623  27.979  22.822  12.278
21364W        W93624  23.048  11.359   3.278
21365W        W93625  38.316  22.029  14.297
21366W        W93626   1.978  23.730   2.881
21367W        W93627  10.348  35.331   1.408
21368W        W93628  35.909  38.895  10.672
21369W        W93629  25.570  29.524  13.464
21370W        W93630  37.552  35.835  12.797
21371W        W93631   4.727   7.779  14.827
21372W        W93632  29.666  10.658  12.445
21373W        W93633   4.951  42.260   3.742
21374W        W93634  13.515  21.579  11.067
21375W        W93635  17.697  26.694  14.428
21376W        W93636  40.783  10.324  11.930
21377W        W93637   3.665  16.973  13.855
21378W        W93638  34.517  29.894  11.515
21379W        W93639   7.788   1.542   4.484
21380W        W93640  17.322  23.363   3.611
21381W        W93641  24.075  12.904  11.585
21382W        W93642   3.658  25.142   1.269
21383W        W93643  10.174   6.406  13.774
21384W        W93644   3.725  29.875  11.850
21385W        W93645  39.355  17.722  14.032
21386W        W93646  44.407  14.413  13.409
21387W        W93647  20.642  13.175  14.570
21388W        W93648  32.485   6.917  12.967
21389W        W93649  27.879  26.593  13.095
21390W        W93650  10.734  21.049   4.244
21391W        W93651  11.349  14.744   4.259
21392W        W93652  19.783  37.532   1.858
21393W        W93653  39.951  24.049   0.740
21394W        W93654   2.353   1.448   4.790
21395W        W93655  34.441  31.587   4.548
21396W        W93656  13.105   4.141  13.002
21397W        W93657  29.641  10.927   3.320
21398W        W93658  28.269  32.168   2.366
21399W        W93659   3.877  31.518  11.916
21400W        W93660  37.376  26.647   2.190
21401W        W93661   5.715  10.778   3.864
21402W        W93662  42.215  18.604  13.236
21403W        W93663  26.695  40.885   3.172
21404W        W93664   0.141  32.880  14.075
21405W        W93665  33.009  39.576   2.259
21406W        W93666  18.757  27.434  13.970
21407W        W93667  33.287  16.216   0.583
21408W        W93668  31.486   4.560   4.154
21409W        W93669  32.704  42.841  13.632
21410W        W93670   3.687  26.882   2.679
21411W        W93671  16.964  12.225   0.989
21412W        W93672  31.191   1.042  14.684
21413W        W93673  16.728   0.877  12.353
21414W        W93674   6.609   4.847  11.722
21415W        W93675   4.754  10.827  13.939
21416W        W93676   8.579  15.203   4.514
21417W        W93677   0.868  30.956   2.652
21418W        W93678  18.269   2.813  14.925
21419W        W93679  35.042  24.794   3.043
21420W        W93680   7.185  34.634  11.240
21421W        W93681  31.539  25.737   3.586
21422W        W93682  30.338  19.562  13.938
21423W        W93683  31.744  41.655  12.964
21424W        W93684  25.768  37.151  12.024
21425W        W93685  22.784   5.471  11.989
21426W        W93686  35.072  33.108  11.996
21427W        W93687  42.597  40.338   4.098
21428W        W93688  15.389   0.779  13.457
21429W        W93689  20.679  35.491   4.253
21430W        W93690   2.725  29.041  11.112
21431W        W93691  26.666  34.076  11.526
21432W        W93692  39.761  19.733  12.032
21433W        W93693  26.661   0.888  13.764
21434W        W93694  38.925  25.529  12.128
21435W        W93695  27.423  27.924  14.964
21436W        W93696  29.100  25.483   0.514
21437W        W93697  13.266   2.815  13.938
21438W        W93698   9.385  13.270   4.446
21439W        W93699  36.122  26.668  14.016
21440W        W93700  16.565  30.288  13.655
21441W        W93701  17.503  44.800  14.707
21442W        W93702  11.627  39.771  11.184
21443W        W93703   6.652  20.157  14.959
21444W        W93704  15.050  10.391  12.484
21445W        W93705  27.965   9.363   4.211
21446W        W93706  40.988  20.594   2.801
21447W        W93707  25.510   8.614  12.870
21448W        W93708  37.865  41.977   2.486
21449W        W93709  38.940   8.179   1.342
21450W        W93710  13.366  26.702  11.214
21451W        W93711  44.408  18.023  12.817
21452W        W93712   3.559  16.071   3.791
21453W        W93713  17.628  41.011  13.104
21454W        W93714   6.715  10.723  11.855
21455W        W93715  38.403  18.051   4.426
21456W        W93716  30.658  32.509  14.350
21457W        W93717  18.537  28.213   1.876
21458W        W93718  43.787   4.618  10.939
21459W        W93719  37.074  31.923   0.235
21460W        W93720  30.664  25.939  14.487
21461W        W93721  36.506   4.461   2.627
21462W        W93722  28.668   7.769   4.606
21463W        W93723  21.378  14.289   4.782
21464W        W93724  16.754   6.761   2.902
21465W        W93725  13.146  11.201   3.010
21466W        W93726  39.900  18.817  12.597
21467W        W93727  26.201  17.296  14.403
21468W        W93728  27.908   0.663   1.927
21469W        W93729  31.912  12.032   0.436
21470W        W93730  36.694  28.386   3.405
21471W        W93731  19.267  27.942   0.287
21472W        W93732  18.134  44.973  12.951
21473W        W93733  39.242  29.527   3.246
21474W        W93734  13.244  42.917  10.688
21475W        W93735  14.675  17.712   5.115
21476W        W93736  14.793   0.993   2.817
21477W        W93737  12.633  36.423  14.058
21478W        W93738  30.382  23.121   1.642
21479W        W93739  18.832  24.549   3.290
21480W        W93740  29.908   7.891  11.537
21481W        W93741   3.989  18.037   1.679
21482W        W93742   1.953  14.717  14.959
21483W        W93743  14.643  34.753  11.454
21484W        W93744  35.855  17.607   2.187
21485W        W93745   5.215   2.154   0.932
21486W        W93746   1.132   9.459   1.850
21487W        W93747  19.382  35.841  11.897
21488W        W93748  20.742  10.233  13.939
21489W        W93749  42.958   2.483   0.323
21490W        W93750  29.639  22.737   0.259
21491W        W93751  37.181  21.716  12.177
21492W        W93752  39.425  44.900   3.696
21493W        W93753   6.260  21.027   0.389
21494W        W93754  14.715  33.104  13.927
21495W        W93755  22.609   5.178   4.006
21496W        W93756  31.460  44.518   1.714
21497W        W93757   6.325  12.369  12.972
21498W        W93758   9.901  26.559  12.033
21499W        W93759  22.667  26.986  11.469
21500W        W93760   0.047  24.708  12.444
21501W        W93761  39.425  13.134   3.577
21502W        W93762  14.278  34.973  12.706
21503W        W93763  42.634   4.663   1.644
21504W        W93764   3.864  16.872   4.611
21505W        W93765  30.601   4.608  11.539
21506W        W93766  12.167  17.749   4.416
21507W        W93767   2.783  14.143  10.739
21508W        W93768  34.085  26.651   4.078
21509W        W93769  26.766  28.685   2.224
21510W        W93770   1.807   9.075  11.679
21511W        W93771  14.084  18.194   3.677
21512W        W93772   1.014  21.975  12.020
21513W        W93773  25.220   5.694   4.680
21514W        W93774  25.483   7.684   2.124
21515W        W93775  14.670  19.973  10.656
21516W        W93776   6.136  39.337  14.317
21517W        W93777  41.332   5.991  13.052
21518W        W93778  13.823   6.777  10.260
21519W        W93779  18.542  22.711  11.818
21520W        W93780  25.011  32.292   3.979
21521W        W93781  38.472  40.211  11.538
21522W        W93782  43.235  37.890   0.047
21523W        W93783   2.254  23.654  11.664
21524W        W93784  11.376  21.821   0.558
21525W        W93785   2.438   9.156  14.311
21526W        W93786  42.935   2.006   4.418
21527W        W93787   1.448  41.552  11.936
21528W        W93788  37.960   1.766   0.228
21529W        W93789  28.233  25.276   3.648
21530W        W93790  25.696  35.803   2.319
21531W        W93791   2.177  34.437   2.324
21532W        W93792  32.354  19.650  12.816
21533W        W93793  17.362  18.682  10.884
21534W        W93794  31.411   7.813   0.268
21535W        W93795   2.264  32.535  10.696
21536W        W93796  35.570  30.800  12.319
21537W        W93797  18.171  36.911   3.775
21538W        W93798  15.595   2.207  12.047
21539W        W93799  25.266  26.975   3.191
21540W        W93800  44.970  11.504  13.932
21541W        W93801  43.773  35.565   3.748
21542W        W93802  34.099  36.766  12.812
21543W        W93803   2.231  35.510  12.881
21544W        W93804  29.490  31.120  13.022
21545W        W93805  34.329  44.793   2.255
21546W        W93806  43.687  20.520   0.951
21547W        W93807   6.642  40.553   5.023
21548W        W93808  37.971  43.343  14.196
21549W        W93809   2.365   3.190  12.953
21550W        W93810  25.874  40.501  14.141
21551W        W93811  42.965  34.032  14.948
21552W        W93812   4.040  24.789   4.474
21553W        W93813  15.607  38.346   4.179
21554W        W93814  40.194   8.860  11.224
21555W        W93815  31.584  28.424  12.147
21556W        W93816  43.312   1.038  14.327
21557W        W93817  42.915   9.975   3.647
21558W        W93818  33.197  34.029  14.405
21559W        W93819  31.097  28.697  12.913
21560W        W93820  24.573  18.614  14.366
21561W        W93821  38.938  12.467  12.265
21562W        W93822   2.561  23.279  10.855
21563W        W93823  30.385   4.401   2.235
21564W        W93824  37.402  15.987   4.750
21565W        W93825   6.196  16.672   4.526
21566W        W93826   2.769  26.993   0.938
21567W        W93827  32.256  25.189   1.764
21568W        W93828   6.466  19.091  13.459
21569W        W93829  27.895  32.051  13.018
21570W        W93830   7.734  11.596  14.821
21571W        W93831  13.738  21.818  13.838
21572W        W93832  16.284  36.981   3.288
21573W        W93833   0.796  29.429   2.830
21574W        W93834  25.289  19.171  13.710
21575W        W93835  43.308  39.432   4.710
21576W        W93836  44.403  40.019   0.488
21577W        W93837  20.547  14.724  14.795
21578W        W93838   7.638  15.219  12.123
21579W        W93839  29.522   9.810  10.720
21580W        W93840  12.108  21.600  10.667
21581W        W93841  18.669  37.742  12.887
21582W        W93842  35.009  20.057   2.152
21583W        W93843  31.659   7.858   1.649
21584W        W93844  38.034  30.946   0.963
21585W        W93845  40.098  43.292  12.894
21586W        W93846  25.724  11.348   2.111
21587W        W93847   0.995   1.221  12.891
21588W        W93848   0.032   5.723   4.367
21589W        W93849  30.565  21.841   3.220
21590W        W93850  17.235   5.467  12.927
21591W        W93851  20.611  41.729   4.348
21592W        W93852  41.097   6.124   1.420
21593W        W93853  24.050  39.502  11.313
21594W        W93854  42.487  17.509   2.283
21595W        W93855  36.386  17.655   0.252
21596W        W93856   0.288  35.030  14.109
21597W        W93857  15.148  20.288  11.998
21598W        W93858  29.767  34.562   4.682
21599W        W93859  11.252  20.981   2.337
21600W        W93860   7.775  43.083   1.145
21601W        W93861  21.525  22.031   0.032
21602W        W93862   2.947  39.380   2.937
21603W        W93863   7.367  42.334  11.093
21604W        W93864  15.440  28.009  12.552
21605W        W93865  23.130   9.929  10.411
21606W        W93866  20.816   1.538  14.343
21607W        W93867  17.815  15.879  12.110
21608W        W93868  22.611  39.901   1.861
21609W        W93869  23.043  15.910  14.788
21610W        W93870   7.671  42.314  10.546
21611W        W93871   5.131  18.059   2.299
21612W        W93872   8.890  27.432  12.605
21613W        W93873  34.338  11.836  10.737
21614W        W93874  24.727  25.443  13.380
21615W        W93875  10.123   5.870  13.680
21616W        W93876  38.444  32.196   2.195
21617W        W93877  23.206  38.305   2.773
21618W        W93878  14.798  37.105  14.922
21619W        W93879   2.779   6.699  14.381
21620W        W93880  32.020  27.931   2.206
21621W        W93881   0.921  32.377   3.018
21622W        W93882  29.896  24.976   4.693
21623W        W93883  37.039  29.164   2.705
21624W        W93884  25.513  21.323  12.564
21625W        W93885  16.182  41.429   3.770
21626W        W93886  20.797  36.161  11.123
21627W        W93887  22.606   0.795   1.061
21628W        W93888  25.121  24.624  12.716
21629W        W93889  41.954  42.100   1.389
21630W        W93890  16.093  24.730   0.394
21631W        W93891  30.360  35.483  12.150
21632W        W93892   9.366   8.548  12.433
21633W        W93893  43.300   1.802   5.052
21634W        W93894   0.824  30.466  10.180
21635W        W93895   3.492  32.097  11.974
21636W        W93896  11.668  35.924   3.034
21637W        W93897  23.240   6.941  14.845
21638W        W93898  38.844  26.081  13.359
21639W        W93899   0.919  17.649   0.987
21640W        W93900   7.246  31.245   4.510
21641W        W93901   4.752  20.905  11.651
21642W        W93902  31.070  26.740  10.555
21643W        W93903  30.511  39.677  12.737
21644W        W93904  32.789  10.921  11.882
21645W        W93905  36.330  41.876   1.670
21646W        W93906  32.173  11.386   3.493
21647W        W93907  22.102  22.635   0.383
21648W        W93908   6.872   5.319  11.720
21649W        W93909  41.787  20.105   0.490
21650W        W93910   9.825  40.964   3.316
21651W        W93911  22.122  30.625  11.709
21652W        W93912  41.902  39.768   2.356
21653W        W93913  18.740  13.836   2.280
21654W        W93914   2.396  41.427  11.671
21655W        W93915  39.955  33.647  12.894
21656W        W93916  13.338  15.684  10.880
21657W        W93917  13.234   9.742  12.626
21658W        W93918  13.219   1.974  12.844
21659W        W93919  17.298  29.598   0.772
21660W        W93920   9.433   3.547  13.110
21661W        W93921  38.912  39.986  13.913
21662W        W93922  40.021  32.114   0.952
21663W        W93923  12.593  20.187  11.730
21664W        W93924   8.301  19.955   2.296
21665W        W93925   6.394  30.953  12.963
21666W        W93926  34.992  24.692  10.598
21667W        W93927  26.516   9.733   3.221
21668W        W93928  11.738  18.014   4.620
21669W        W93929  28.286  13.161   3.304
21670W        W93930  22.182  23.411  11.278
21671W        W93931  43.638  43.423  10.800
21672W        W93932  12.593  29.268  13.110
21673W        W93933  11.991  33.955  11.904
21674W        W93934  17.280  31.831   4.519
21675W        W93935  14.326  29.469   0.766
21676W        W93936   3.947  22.245   1.841
21677W        W93937   3.784  34.871   0.844
21678W        W93938  17.710  41.827   4.364
21679W        W93939  38.121   7.454   4.961
21680W        W93940  24.495  30.727   3.374
21681W        W93941   0.988  11.656   1.243
21682W        W93942   7.820  27.680   2.187
21683W        W93943  27.071  17.657  10.610
21684W        W93944  40.701  40.769  11.307
21685W        W93945  37.340  14.198   3.305
21686W        W93946   4.932  15.165  12.158
21687W        W93947  38.379  20.596   1.349
21688W        W93948  37.940  36.626   4.668
21689W        W93949   4.009  24.309   0.259
21690W        W93950  37.956  29.600   2.683
21691W        W93951  15.365  23.217   0.479
21692W        W93952  42.348   4.865   4.530
21693W        W93953  40.892   0.193   1.689
21694W        W93954   9.340  12.382   4.130
21695W        W93955   8.232  15.663  14.480
21696W        W93956  37.134   7.477  12.587
21697W        W93957  17.026  34.975  12.419
21698W        W93958  38.521  35.352  12.039
21699W        W93959  28.906  34.849   1.360
21700W        W93960  38.945  29.635  14.346
21701W        W93961  35.046  10.440   0.825
21702W        W93962  23.976  39.396  10.308
21703W        W93963  16.377  10.889  12.958
21704W        W93964  28.074  42.388  10.862
21705W        W93965  35.457  10.375   0.503
21706W        W93966  24.957  42.951  14.316
21707W        W93967   8.828   5.644  13.237
21708W        W93968   6.452   8.188  13.597
21709W        W93969   7.837   8.293  12.255
21710W        W93970  20.996  31.435  14.229
21711W        W93971  38.321  29.771  12.985
21712W        W93972   1.963  23.264  13.293
21713W        W93973  36.099  16.233   1.229
21714W        W93974  38.447  16.734  12.357
21715W        W93975  18.315  31.082  12.352
21716W        W93976   6.399  23.554  12.522
21717W        W93977  34.834  12.138   1.171
21718W        W93978  39.827  24.274   3.895
21719W        W93979  12.894  16.871   0.494
21720W        W93980   8.701  14.597   0.829
21721W        W93981   6.939  23.816   0.532
21722W        W93982  14.519  41.955   0.372
21723W        W93983  14.121  44.900  12.625
21724W        W93984  10.432  14.021  11.258
21725W        W93985   0.879  41.907  10.862
21726W        W93986   4.797  42.012   1.265
21727W        W93987   0.174  35.893  13.432
21728W        W93988  14.108   3.920   1.876
21729W        W93989   3.737  44.794  14.750
21730W        W93990  36.406  44.338  10.138
21731W        W93991  19.012  43.380   1.891
21732W        W93992   7.747  20.539   0.746
21733W        W93993  42.888  14.597   3.367
21734W        W93994  37.343  28.004  10.673
21735W        W93995  11.718   2.863   0.729
21736W        W93996  40.099  36.302  12.400
21737W        W93997   7.209  37.540   4.618
21738W        W93998  42.940  29.553   1.942
21739W        W93999  30.459  29.429   0.679
21740W        W94000  36.014  13.532   4.575
21741W        W94001   2.029  42.924   3.195
21742W        W94002  20.583   7.097   0.267
21743W        W94003  17.862  37.872  14.990
21744W        W94004  41.338  27.030   1.443
21745W        W94005  44.844  36.543   1.657
21746W        W94006  34.073  34.425   0.148
21747W        W94007  27.891  43.017  14.463
21748W        W94008   1.343  10.444   0.986
21749W        W94009   0.709  21.323   2.390
21750W        W94010  18.082  38.876   1.884
21751W        W94011  25.663   6.395   3.643
21752W        W94012  31.095  32.331  10.127
21753W        W94013   5.222   8.306   4.250
21754W        W94014  19.304  33.093  11.992
21755W        W94015   6.949  36.645   4.518
21756W        W94016  14.474  37.246   1.692
21757W        W94017  20.350   9.993  10.047
21758W        W94018  22.582  17.352  14.150
21759W        W94019  17.770   3.057   4.797
21760W        W94020  12.759  26.224  10.521
21761W        W94021  23.433  40.015   1.247
21762W        W94022  32.890  43.076  10.804
21763W        W94023  24.566  24.234   1.231
21764W        W94024  15.324  14.217  11.926
21765W        W94025   5.786  10.527  11.045
21766W        W94026  10.220  16.983  10.069
21767W        W94027  31.675  15.756  13.224
21768W        W94028  22.688  26.132   4.590
21769W        W94029  26.457  14.607   3.296
21770W        W94030  28.740  23.611  12.853
21771W        W94031  41.342  39.856  12.086
21772W        W94032   5.733  29.681   1.200
21773W        W94033  19.994   7.204  11.051
21774W        W94034  23.286  12.769  10.609
21775W        W94035  43.175  43.407  10.988
21776W        W94036  19.223  22.888   1.175
21777W        W94037   7.732  16.053  13.392
21778W        W94038   6.756  41.091   3.827
21779W        W94039  12.748  23.906  10.514
21780W        W94040  20.489  35.124  11.962
21781W        W94041  10.321  33.530  10.387
21782W        W94042  24.681   1.914   4.059
21783W        W94043  21.174  19.080  11.979
21784W        W94044  28.617   8.824  14.441
21785W        W94045  32.576  23.036   1.546
21786W        W94046   0.922   4.699   2.323
21787W        W94047  15.374   1.417  13.897
21788W        W94048   9.133  40.168  12.509
21789W        W94049  13.668  18.666   4.299
21790W        W94050  39.076  33.885  14.969
21791W        W94051  37.405  42.476   3.824
21792W        W94052  24.957  32.181  10.729
21793W        W94053  33.947  12.447  13.398
21794W        W94054  25.832  24.941   1.358
21795W        W94055  10.744  28.726   2.094
21796W        W94056  22.995  32.979   1.200
21797W        W94057   2.072  44.694  12.891
21798W        W94058  18.540  28.454  11.727
21799W        W94059  11.772  41.154   3.617
21800W        W94060  44.752  31.402  11.843
21801W        W94061  13.199   8.575  11.668
21802W        W94062  16.709  17.723  12.126
21803W        W94063  35.409  21.739  14.913
21804W        W94064  37.423  21.961  10.602
21805W        W94065  20.207  44.203  14.995
21806W        W94066  30.945  26.540   0.297
21807W        W94067  24.661  26.337  13.921
21808W        W94068  28.695  24.730  14.914
21809W        W94069  27.085   9.775  12.668
21810W        W94070  40.405  28.143  11.918
21811W        W94071  35.626  17.139   1.258
21812W        W94072   0.758  10.682   3.617
21813W        W94073   6.671   6.511  10.681
21814W        W94074  36.165  23.957  12.567
21815W        W94075  22.346  24.328  10.014
21816W        W94076   0.096  30.379  12.453
21817W        W94077  21.217   0.826  12.067
21818W        W94078  33.578   1.379  13.814
21819W        W94079  19.822  25.292  13.854
21820W        W94080  41.765  10.286   1.823
21821W        W94081  30.959   9.353  11.874
21822W        W94082  44.868  27.511   3.766
21823W        W94083  20.112   2.267  13.830
21824W        W94084  23.514  29.511  11.562
21825W        W94085  34.470  35.673  14.779
21826W        W94086  41.531  44.311   1.690
21827W        W94087  13.127  34.430   2.820
21828W        W94088  11.762   5.619  11.099
21829W        W94089  26.051  26.170  12.982
21830W        W94090  21.468  28.001  10.628
21831W        W94091  35.303  15.222   3.131
21832W        W94092  21.778  26.613   4.607
21833W        W94093  30.511  18.822  11.076
21834W        W94094  13.282   6.381   2.303
21835W        W94095   1.663  21.194  12.502
21836W        W94096  20.521  12.182   2.248
21837W        W94097  15.748   0.385  11.043
21838W        W94098  35.998  11.011   2.709
21839W        W94099  38.881  23.282  13.110
21840W        W94100  29.108  21.245   3.286
21841W        W94101  26.670  13.261   4.512
21842W        W94102   0.646  31.501   4.375
21843W        W94103   3.606   3.422  12.028
21844W        W94104  31.030  20.521   1.753
21845W        W94105  12.583   3.870  11.937
21846W        W94106  41.833  40.077   3.650
21847W        W94107  14.692  38.889   0.541
21848W        W94108  39.061  43.131  11.657
21849W        W94109   3.355  33.640   5.079
21850W        W94110  30.657  28.063  13.458
21851W        W94111  38.301  29.574   3.040
21852W        W94112  22.700  42.352   0.466
21853W        W94113   0.265  13.610   3.239
21854W        W94114  26.385   5.351   1.923
21855W        W94115  23.741  39.957   5.045
21856W        W94116  43.309  44.590  14.727
21857W        W94117  36.853   8.484   4.733
21858W        W94118   6.896  23.800   3.048
21859W        W94119   7.416  29.648   0.741
21860W        W94120  30.044  13.363  11.183
21861W        W94121   6.769  24.965  13.044
21862W        W94122   5.430   3.392  14.928
21863W        W94123  26.971  33.040   2.139
21864W        W94124  19.153  33.388   1.700
21865W        W94125  14.692  17.589   3.715
21866W        W94126  28.154  22.675   0.979
21867W        W94127   5.663  10.278   2.343
21868W        W94128  20.267  12.639   2.212
21869W        W94129  28.254  33.444  11.538
21870W        W94130  35.339  34.863   2.855
21871W        W94131  43.935   9.576   1.992
21872W        W94132  26.400  10.888  14.670
21873W        W94133  31.173  40.847   2.437
21874W        W94134   7.062  44.717  14.003
21875W        W94135  18.276  34.116   2.773
21876W        W94136  30.432  29.115   4.093
21877W        W94137  33.024   6.623  14.397
21878W        W94138  41.768  29.443   1.952
21879W        W94139   0.261   1.658  13.986
21880W        W94140  31.050   4.682   3.728
21881W        W94141  33.461  41.440   2.844
21882W        W94142  38.243  19.552   3.248
21883W        W94143  22.036  38.403   1.743
21884W        W94144  18.452  30.126   0.356
21885W        W94145  11.429  34.411  10.711
21886W        W94146  29.372  11.029  11.542
21887W        W94147  40.606  44.886  13.418
21888W        W94148  17.682  22.300   3.795
21889W        W94149  10.082  10.948  12.027
21890W        W94150   2.157   7.661  13.982
21891W        W94151  32.711  16.366  12.562
21892W        W94152   0.460  20.715   3.367
21893W        W94153  39.953  26.699   2.313
21894W        W94154  26.505  35.525   3.426
21895W        W94155  18.953   3.766  14.325
21896W        W94156  23.156  42.559  13.852
21897W        W94157   2.840  22.858  12.003
21898W        W94158  36.919  10.841   3.148
21899W        W94159  17.625   7.828   1.081
21900W        W94160   7.571  30.046   2.703
21901W        W94161  25.820  32.873   2.934
21902W        W94162  37.778  14.164  13.263
21903W        W94163  23.157  12.666   1.964
21904W        W94164  12.734  14.045  12.935
21905W        W94165  31.559   4.891  11.124
21906W        W94166  36.999   8.945   1.636
21907W        W94167  36.322  26.649  12.326
21908W        W94168  31.709  28.018  11.201
21909W        W94169  14.614  35.942  11.250
21910W        W94170  23.734  14.643  12.052
21911W        W94171   4.834  21.982   3.890
21912W        W94172  35.379  17.882   4.558
21913W        W94173   5.058  21.914  12.937
21914W        W94174  17.988   4.177   0.723
21915W        W94175  31.578   2.857  13.129
21916W        W94176  23.776  38.549   1.263
21917W        W94177  29.529   3.404   4.629
21918W        W94178   9.424  28.439  11.652
21919W        W94179  32.814  31.793   4.553
21920W        W94180  20.877  17.038   4.864
21921W        W94181  14.567  22.607   0.841
21922W        W94182   4.447  13.588  11.692
21923W        W94183  26.962  40.654  13.889
21924W        W94184   4.925  37.885  14.994
21925W        W94185  39.423  43.446  11.408
21926W        W94186  31.546  28.142  12.603
21927W        W94187  27.721  37.044   3.683
21928W        W94188  33.959  27.202  14.319
21929W        W94189   9.994   6.844  12.752
21930W        W94190  29.240  33.003   1.312
21931W        W94191  24.590  30.139  12.541
21932W        W94192  40.366   0.975   2.537
21933W        W94193  19.095  23.133   2.405
21934W        W94194  36.921  41.618   0.458
21935W        W94195  38.827  43.493   4.577
21936W        W94196   0.934  28.056  13.875
21937W        W94197   2.685  16.149  13.767
21938W        W94198   5.126  39.011   4.279
21939W        W94199  39.361  12.318   2.319
21940W        W94200  18.693  18.038   4.092
21941W        W94201   5.315  15.059  12.668
21942W        W94202  36.620  34.030  12.142
21943W        W94203  23.427   6.000   4.274
21944W        W94204  22.484   0.753  10.308
21945W        W94205  33.904   6.933  14.554
21946W        W94206  30.505  17.085  10.469
21947W        W94207  23.646   3.651  14.781
21948W        W94208   5.755  33.946  12.920
21949W        W94209  24.679  13.350  12.366
21950W        W94210  29.052   9.655   3.392
21951W        W94211  21.185   7.150   1.460
21952W        W94212  35.434  43.016   3.762
21953W        W94213  21.750  42.965  12.692
21954W        W94214  30.371   4.359  13.372
21955W        W94215  23.030  17.205   3.188
21956W        W94216  42.134   3.174   4.570
21957W        W94217   5.492   5.732   1.816
21958W        W94218  35.170  32.045  13.883
21959W        W94219   2.843  12.368  14.250
21960W        W94220  28.663  22.117   4.232
21961W        W94221  28.654  24.752   4.251
21962W        W94222  36.123  11.668   1.629
21963W        W94223   4.371  39.086  14.475
21964W        W94224  39.985  45.000   1.173
21965W        W94225  40.079  14.768  11.539
21966W        W94226  18.276  26.167  11.748
21967W        W94227  34.112   5.746   1.275
21968W        W94228  29.677   3.432  13.957
21969W        W94229  35.383   1.170   2.214
21970W        W94230   3.874  17.457  13.840
21971W        W94231  30.296  11.367  14.970
21972W        W94232  12.852   8.779   3.774
21973W        W94233  12.923  13.652  11.949
21974W        W94234   2.762  22.441  13.379
21975W        W94235  14.777  35.486   4.134
21976W        W94236  13.138   4.885   2.437
21977W        W94237  44.181   4.125  10.735
21978W        W94238  18.803  20.042  11.988
21979W        W94239  30.912   0.765   2.884
21980W        W94240  41.768  16.549  12.852
21981W        W94241  25.506   4.965   0.862
21982W        W94242  24.113  43.149   4.998
21983W        W94243  17.277  31.402   0.881
21984W        W94244   9.769  22.014   4.547
21985W        W94245  40.786  32.371   4.716
21986W        W94246   8.942  18.171  10.350
21987W        W94247   7.628  41.507   4.292
21988W        W94248  40.583  11.653  12.108
21989W        W94249  40.511  35.379   3.368
21990W        W94250  13.663  35.536   3.248
21991W        W94251   1.334  13.832  11.606
21992W        W94252  40.011   1.822   2.278
21993W        W94253  21.764  21.051   4.646
21994W        W94254   1.899  30.756  11.055
21995W        W94255  14.068  29.051   1.001
21996W        W94256  27.058  10.294  10.385
21997W        W94257   2.016   1.658  13.784
21998W        W94258  18.205  23.675   4.427
21999W        W94259  34.329  12.887   3.181
22000W        W94260  23.545   8.267  12.386
22001W        W94261  38.025   3.909   2.871
22002W        W94262  36.041  13.732  11.205
22003W        W94263   7.762  18.585   1.934
22004W        W94264  31.529  41.640  11.009
22005W        W94265  34.165  21.996   2.677
22006W        W94266  13.903  26.798   1.217
22007W        W94267  40.899  39.575  12.084
22008W        W94268  13.213  34.405  11.891
22009W        W94269  10.314  21.883  12.220
22010W        W94270  23.177  21.552   9.636
22011W        W94271   4.710  27.285   5.006
22012W        W94272  31.124   0.427  11.653
22013W        W94273  20.107  44.762   4.227
22014W        W94274  41.781  39.927  14.891
22015W        W94275   4.923  25.226  10.099
22016W        W94276  37.138  37.083  13.526
22017W        W94277   3.401   0.379  11.241
22018W        W94278  13.843   2.555  12.454
22019W        W94279   7.949  41.073   3.569
22020W        W94280  25.212  15.128  14.263
22021W        W94281  27.964  34.412   2.701
22022W        W94282  15.554   4.438   0.863
22023W        W94283   6.581   8.862   3.266
22024W        W94284  30.375  32.530   3.348
22025W        W94285  17.215  11.718  12.337
22026W        W94286  21.144  29.573  12.659
22027W        W94287   6.158  35.434  12.594
22028W        W94288   0.929  44.459  14.493
22029W        W94289  43.740   3.891  14.345
22030W        W94290  12.643   7.410  12.499
22031W        W94291  35.042  37.562  12.878
22032W        W94292   4.523  21.353  13.868
22033W        W94293  16.926  31.239   0.111
22034W        W94294  27.027  24.334   0.903
22035W        W94295  43.756  31.056   0.767
22036W        W94296   7.934   8.885  12.595
22037W        W94297  14.847   1.413  11.138
22038W        W94298  11.405  30.923  13.966
22039W        W94299   7.429  42.492   2.552
22040W        W94300  11.623  24.175   0.913
22041W        W94301  23.965  32.605  11.895
22042W        W94302  42.060  22.209   4.607
22043W        W94303  16.333   0.271  12.031
22044W        W94304  18.725  21.291   4.796
22045W        W94305   8.163  20.209   4.389
22046W        W94306   2.800  41.927   3.731
22047W        W94307  13.309  33.167   3.224
22048W        W94308  41.996  32.654  11.513
22049W        W94309   2.981  44.868   1.876
22050W        W94310  26.646  39.028  11.604
22051W        W94311  15.529  22.831  13.816
22052W        W94312   8.901  30.677  12.430
22053W        W94313  42.239  30.327  14.358
22054W        W94314  23.445  20.150   4.568
22055W        W94315   5.676  44.860  14.912
22056W        W94316   3.356   5.711   1.488
22057W        W94317  41.500  20.278  13.479
22058W        W94318  36.633  41.559  12.490
22059W        W94319   0.210  28.088  13.417
22060W        W94320  12.160  15.874   3.694
22061W        W94321  31.281  38.032   3.820
22062W        W94322  38.545   1.026  12.424
22063W        W94323  41.413  32.491  12.631
22064W        W94324  11.572  17.792   1.151
22065W        W94325  32.124  37.609   1.883
22066W        W94326  19.671  39.290   3.869
22067W        W94327  13.638  32.559   4.136
22068W        W94328  40.887  29.204   2.813
22069W        W94329  26.514   3.936   3.166
22070W        W94330  39.452   3.306  14.869
22071W        W94331   9.636  43.672   4.064
22072W        W94332  15.771  27.573  13.947
22073W        W94333  24.770   7.548  11.573
22074W        W94334  12.726  43.340   3.200
22075W        W94335  34.360   9.751  12.099
22076W        W94336  21.794  34.582   1.885
22077W        W94337  24.707  24.707   0.312
22078W        W94338  28.670  12.239   1.260
22079W        W94339  19.603  26.720  13.416
22080W        W94340   2.464  42.076  13.822
22081W        W94341  43.123  39.307   4.242
22082W        W94342  38.559  12.626   0.756
22083W        W94343  30.935  37.998   4.799
22084W        W94344   0.739   0.227  13.916
22085W        W94345  31.630  15.837  11.097
22086W        W94346  12.329   1.797  13.424
22087W        W94347  11.395  33.546   4.230
22088W        W94348  37.813  22.532   2.776
22089W        W94349  42.347  42.859  13.820
22090W        W94350   3.255   3.806  13.016
22091W        W94351   9.123  14.263  14.116
22092W        W94352  18.110  24.107  12.504
22093W        W94353   5.950   7.199  14.507
22094W        W94354   5.758  17.878   3.823
22095W        W94355   6.048  15.746  11.347
22096W        W94356  13.747   3.704   3.676
22097W        W94357  16.865  20.316  10.669
22098W        W94358  23.682  33.877   0.209
22099W        W94359  37.566  26.022   3.661
22100W        W94360  44.370  38.645   4.103
22101W        W94361  27.516  29.786  14.503
22102W        W94362  22.228  39.040   2.427
22103W        W94363  18.204   3.159   0.807
22104W        W94364  20.266  34.834   1.516
22105W        W94365  26.405  18.576   0.580
22106W        W94366   8.164   3.174  14.806
22107W        W94367  34.605  38.610   0.389
22108W        W94368  34.639   8.869   4.539
22109W        W94369  16.041  36.868  12.288
22110W        W94370  34.125   2.223  12.502
22111W        W94371  17.762  14.304  13.586
22112W        W94372  22.690  17.497   4.189
22113W        W94373   8.804   6.550   1.547
22114W        W94374  29.888  37.773   9.866
22115W        W94375   7.788  14.223   4.049
22116W        W94376   3.702  41.420  10.973
22117W        W94377   8.699   6.460  12.882
22118W        W94378  18.502  13.473   2.913
22119W        W94379  39.036  16.020   0.589
22120W        W94380  38.591   1.850   2.737
22121W        W94381  19.646   3.626  12.649
22122W        W94382   2.463  40.719  13.558
22123W        W94383  21.447  27.713   2.708
22124W        W94384  15.368  43.849   0.124
22125W        W94385  26.251   8.785  11.497
22126W        W94386  33.914   2.376   1.001
22127W        W94387  37.031   1.407   4.560
22128W        W94388  35.124  29.369   3.822
22129W        W94389  41.110  44.388   2.822
22130W        W94390  37.805   5.802   0.030
22131W        W94391   0.290  10.226  11.376
22132W        W94392  12.712  30.721  14.811
22133W        W94393  20.077  40.989  10.699
22134W        W94394  16.990  24.942   0.345
22135W        W94395  26.247   5.823   3.217
22136W        W94396  41.738  29.380  12.879
22137W        W94397  19.248  14.883  11.598
22138W        W94398   6.288  37.835  14.015
22139W        W94399  10.284  41.938   2.269
22140W        W94400  18.564  22.515   3.213
22141W        W94401  17.410  32.934  13.446
22142W        W94402  43.229  18.897   4.039
22143W        W94403  41.353  35.273   3.474
22144W        W94404   9.374  15.201  11.183
22145W        W94405   9.110  29.537   1.414
22146W        W94406  31.124  40.095   4.398
22147W        W94407  17.731  32.966  11.861
22148W        W94408  13.458  22.563   2.345
22149W        W94409   7.788  43.628  13.979
22150W        W94410   6.469  35.370  11.702
22151W        W94411  42.351  13.220  13.904
22152W        W94412  41.372  18.135   2.614
22153W        W94413  42.964  36.917   3.100
22154W        W94414  33.360  23.442   2.786
22155W        W94415  31.195  37.364  13.625
22156W        W94416  30.005  23.045   0.483
22157W        W94417  30.442  35.722   3.635
22158W        W94418  16.614  42.378   2.675
22159W        W94419  31.536  22.780   2.835
22160W        W94420   4.373  11.732   4.134
22161W        W94421  16.577   9.361  13.855
22162W        W94422  10.095  20.640  13.081
22163W        W94423   7.851   3.820   4.584
22164W        W94424  27.125  20.088  13.218
22165W        W94425  22.730   2.414  13.382
22166W        W94426   7.191  19.283   4.515
22167W        W94427   6.836  31.024   0.959
22168W        W94428  29.931   0.925  11.979
22169W        W94429   5.847  11.120   3.175
22170W        W94430  15.880   1.514  12.396
22171W        W94431  30.420  38.818   3.102
22172W        W94432   7.595  30.866   0.351
22173W        W94433  32.386   0.647   1.200
22174W        W94434   5.177  34.333   0.382
22175W        W94435   4.961   2.305   3.682
22176W        W94436  12.321  42.888   3.127
22177W        W94437  20.635  23.933   0.308
22178W        W94438  15.784  24.684   1.253
22179W        W94439  15.117  33.527  10.940
22180W        W94440  31.685  41.939   4.164
22181W        W94441  14.123   1.736   1.780
22182W        W94442   7.861   3.468  11.725
22183W        W94443  12.987  43.732  11.218
22184W        W94444  18.566  30.967  11.401
22185W        W94445  10.405  36.037   0.795
22186W        W94446  41.940  34.599  11.556
22187W        W94447   8.382  22.524  14.386
22188W        W94448   8.225  25.456  10.547
22189W        W94449  34.398   7.945   2.010
22190W        W94450   5.807  31.180   1.333
22191W        W94451  11.210  22.816   0.914
22192W        W94452  42.574  37.600   3.369
22193W        W94453  44.458   9.292   3.091
22194W        W94454  42.060  24.954   1.747
22195W        W94455  23.636   9.728   4.660
22196W        W94456   7.069   9.340  11.563
22197W        W94457  21.282   2.210  12.903
22198W        W94458  33.493   8.556   5.199
22199W        W94459  15.811  16.369  12.340
22200W        W94460  29.880   6.406  10.737
22201W        W94461  40.851  26.655   2.116
22202W        W94462  15.845  44.837   0.812
22203W        W94463   9.693  28.588   4.096
22204W        W94464   9.250   3.453  11.237
22205W        W94465  15.598  44.874  14.328
22206W        W94466  31.373  27.395   1.728
22207W        W94467   5.919  38.332  12.496
22208W        W94468  38.878  11.100   1.384
22209W        W94469  21.797   3.431  13.438
22210W        W94470  18.611   9.347  14.967
22211W        W94471  28.842  24.662  12.617
22212W        W94472  24.675   4.141   0.553
22213W        W94473  28.737  16.789   0.823
22214W        W94474  41.763  34.081   1.740
22215W        W94475  40.918  10.088  11.470
22216W        W94476  20.615   9.400  11.897
22217W        W94477   2.382  27.732   2.712
22218W        W94478  37.741   9.191  10.235
22219W        W94479  40.925  29.098   2.296
22220W        W94480  16.635  35.356   2.292
22221W        W94481  35.833  14.867   2.345
22222W        W94482  30.858  17.852  12.922
22223W        W94483  35.633  25.205   1.090
22224W        W94484  25.987  34.585  11.221
22225W        W94485  18.564  30.746  12.905
22226W        W94486  19.757   7.688  11.062
22227W        W94487   7.234  27.878   0.405
22228W        W94488  33.158  13.729   3.708
22229W        W94489  38.338  41.316  13.404
22230W        W94490  43.984  36.119   0.254
22231W        W94491  43.014  19.873   4.112
22232W        W94492  18.621  25.495   3.225
22233W        W94493   4.380  33.470  13.026
22234W        W94494   7.547   2.920   2.201
22235W        W94495  37.901  17.664  13.966
22236W        W94496  37.592  40.655  13.410
22237W        W94497  23.169   0.899  10.759
22238W        W94498  26.436  37.039   2.283
22239W        W94499  44.521  31.110   1.434
22240W        W94500  25.502  31.487   2.647
22241W        W94501   9.970  27.045   2.439
22242W        W94502  30.373  36.426  11.991
22243W        W94503  35.930  43.397  13.118
22244W        W94504  25.099   4.242   3.188
22245W        W94505  10.434  18.246   4.157
22246W        W94506  15.318   3.606  13.470
22247W        W94507  22.746  12.813   2.239
22248W        W94508  31.276  39.281  14.800
22249W        W94509  34.922  40.868   3.226
22250W        W94510   2.032  28.428   3.223
22251W        W94511  25.037   1.441  14.685
22252W        W94512  10.066   1.356   0.866
22253W        W94513  34.732  15.061  14.359
22254W        W94514  41.815  17.289   0.973
22255W        W94515   3.983  18.772  10.853
22256W        W94516  21.584   9.214   2.700
22257W        W94517  44.354  41.807   1.402
22258W        W94518  37.573  42.315   2.201
22259W        W94519  20.264  32.556  12.238
22260W        W94520  19.946  20.349   1.818
22261W        W94521  12.545  28.578   1.817
22262W        W94522  44.329   2.103  12.829
22263W        W94523   6.184  44.233  11.278
22264W        W94524   2.006  43.780  13.869
22265W        W94525  30.619   8.681  10.721
22266W        W94526  14.194  10.368   5.133
22267W        W94527  42.042  19.680   0.397
22268W        W94528  27.478  11.594   0.145
22269W        W94529  35.579  21.037   1.181
22270W        W94530  42.567  12.415   3.669
22271W        W94531   3.153   7.710   2.311
22272W        W94532  21.756  12.170   3.553
22273W        W94533   5.767  10.653   3.371
22274W        W94534  22.924  40.589   2.235
22275W        W94535  15.810  11.893   4.083
22276W        W94536   6.485  25.786  10.213
22277W        W94537   2.370  28.123  12.566
22278W        W94538  12.097  30.402  12.592
22279W        W94539  13.989  23.633   1.198
22280W        W94540  41.181  39.221   4.184
22281W        W94541  31.800   0.988   1.830
22282W        W94542  36.615  43.926   1.154
22283W        W94543   5.812  41.466  12.936
22284W        W94544  10.491  29.565  14.786
22285W        W94545  19.867  31.678   3.670
22286W        W94546   1.081  20.269   3.713
22287W        W94547   2.289   0.674  11.171
22288W        W94548  30.737  24.636  12.701
22289W        W94549  23.651   1.791   1.555
22290W        W94550   3.217  33.842  12.458
22291W        W94551   4.834  43.857   3.838
22292W        W94552  16.791  14.909   4.099
22293W        W94553  30.835  25.896  13.085
22294W        W94554  13.756  34.668  13.124
22295W        W94555  20.424   3.345   4.625
22296W        W94556   6.779  36.503   3.230
22297W        W94557  18.736  27.664  13.504
22298W        W94558  14.617  17.838  11.167
22299W        W94559  27.360  35.114  12.149
22300W        W94560  15.053  43.659   1.270
22301W        W94561  28.040   0.069   2.735
22302W        W94562  37.563  17.363   3.919
22303W        W94563  28.250  11.064  12.567
22304W        W94564  35.964  43.269  12.610
22305W        W94565  40.028  10.374  13.377
22306W        W94566   3.250   5.472  14.827
22307W        W94567  39.760  28.505  13.313
22308W        W94568  32.256  38.515  12.993
22309W        W94569  31.555   8.181  13.993
22310W        W94570  38.623  30.955  12.561
22311W        W94571  35.707   2.453   1.907
22312W        W94572  28.884  36.573   2.723
22313W        W94573  28.405  33.635  13.438
22314W        W94574  11.888  38.392  10.267
22315W        W94575  34.953  30.357   0.498
22316W        W94576   0.837  24.994   1.179
22317W        W94577   4.716  21.727  13.256
22318W        W94578  11.754  19.655   3.797
22319W        W94579  17.754  22.906  10.535
22320W        W94580   4.850   0.891  11.932
22321W        W94581  34.060  38.353   4.425
22322W        W94582  20.205   2.250   4.746
22323W        W94583   2.554  19.764   2.361
22324W        W94584  31.107  24.996   9.996
22325W        W94585   6.817  31.143  13.818
22326W        W94586  13.729   3.516   4.518
22327W        W94587   0.984  35.622   2.315
22328W        W94588  14.131  13.375  12.781
22329W        W94589  44.282   7.434  14.865
22330W        W94590  33.724   8.681  10.663
22331W        W94591  20.837   4.258  11.189
22332W        W94592  36.575  44.029  14.363
22333W        W94593  23.365  23.243   4.753
22334W        W94594   5.947  25.130   3.717
22335W        W94595   1.723  42.445   4.275
22336W        W94596  33.488  14.394   3.143
22337W        W94597  22.226   0.485   4.930
22338W        W94598  31.140  25.094  14.818
22339W        W94599  34.848  33.925  12.638
22340W        W94600   8.610   2.818  13.314
22341W        W94601  12.064   6.912  14.037
22342W        W94602  32.536  16.555  13.122
22343W        W94603  24.099  15.562   0.453
22344W        W94604  11.322   2.271   1.219
22345W        W94605  13.064   3.585  13.066
22346W        W94606  15.666  18.001  13.387
22347W        W94607  28.015  10.263   2.784
22348W        W94608   8.306  15.845  12.085
22349W        W94609   0.449  40.259   3.751
22350W        W94610  17.161  42.527   4.651
22351W        W94611   7.847  30.615   2.360
22352W        W94612   5.246   9.846   9.978
22353W        W94613  32.065  43.695   4.292
22354W        W94614   1.119   2.926   2.248
22355W        W94615  12.037   0.274  13.957
22356W        W94616  24.114  18.558  13.555
22357W        W94617   9.822   7.756   0.330
22358W        W94618  10.715  27.961   2.613
22359W        W94619  39.405  36.355  11.726
22360W        W94620  15.501  30.573  12.343
22361W        W94621  29.530  20.629   3.587
22362W        W94622  10.812   3.478   1.178
22363W        W94623  22.161  11.905   0.034
22364W        W94624  36.605  36.599   2.441
22365W        W94625  27.229   1.562   3.812
22366W        W94626  21.641  39.446  11.389
22367W        W94627  32.327  42.049   4.665
22368W        W94628  22.480  38.612  12.211
22369W        W94629  20.267  29.078   1.156
22370W        W94630  33.013  25.048   4.570
22371W        W94631  38.293  37.310   4.067
22372W        W94632  26.455  19.278  11.908
22373W        W94633  26.513   7.955  13.553
22374W        W94634  26.679  16.905   0.040
22375W        W94635   3.019  40.217  11.534
22376W        W94636  38.067  31.355  12.502
22377W        W94637  40.722  13.747   4.319
22378W        W94638   7.781  15.051  13.528
22379W        W94639  35.989   8.196   3.140
22380W        W94640  40.088  15.743   0.795
22381W        W94641  31.684  22.532   4.271
22382W        W94642  38.434   2.136  13.849
22383W        W94643  27.626  21.584   3.675
22384W        W94644  22.621  34.017  14.420
22385W        W94645  41.314   1.750  12.940
22386W        W94646  17.294  13.589   4.277
22387W        W94647  18.866  27.063  13.032
22388W        W94648  11.824  19.271  13.864
22389W        W94649  29.453  22.203  14.716
22390W        W94650  40.991  39.603  13.903
22391W        W94651  15.362   0.416  13.802
22392W        W94652   4.357  21.747  11.315
22393W        W94653  34.485  13.773   4.559
22394W        W94654  25.680  35.389  10.649
22395W        W94655  42.846  33.654   0.278
22396W        W94656   1.999  11.134   4.373
22397W        W94657  30.911   4.890   2.295
22398W        W94658  30.637  24.074   2.953
22399W        W94659  34.020   4.412   1.779
22400W        W94660  15.087  14.125   0.560
22401W        W94661  10.392   0.859  11.581
22402W        W94662  30.887  34.854  11.137
22403W        W94663  15.761  36.750   3.267
22404W        W94664  35.382  21.125  13.468
22405W        W94665  29.147  16.173   3.995
22406W        W94666  35.125   4.993   2.795
22407W        W94667   4.357  24.211   3.709
22408W        W94668  16.830  11.703   0.864
22409W        W94669  31.514  12.168   3.650
22410W        W94670   0.201  38.761   0.817
22411W        W94671  30.333   9.724   1.276
22412W        W94672  29.527   9.684   3.656
22413W        W94673  20.309   6.737   3.622
22414W        W94674  35.525   2.453  13.953
22415W        W94675  15.925  22.512   2.630
22416W        W94676  42.981  27.494   1.699
22417W        W94677  15.724  42.391  14.753
22418W        W94678   3.784  29.607  12.281
22419W        W94679   7.863  40.895  13.461
22420W        W94680  14.592  39.800  11.158
22421W        W94681  28.062   9.188  14.900
22422W        W94682   9.102  44.336  12.597
22423W        W94683  20.510  31.579  14.142
22424W        W94684   5.158  32.994  12.872
22425W        W94685  41.524  26.013   4.841
22426W        W94686  21.472  13.902   5.122
22427W        W94687  30.214  11.454   2.989
22428W        W94688  31.112  33.886  10.814
22429W        W94689  15.085  40.516   3.646
22430W        W94690  22.693   0.430  14.743
22431W        W94691  10.679  20.067  12.932
22432W        W94692  28.342  31.690   4.893
22433W        W94693  36.015  30.993  14.855
22434W        W94694  30.598  34.761   3.340
22435W        W94695  33.006   7.553   1.639
22436W        W94696  33.462  15.122   4.346
22437W        W94697  24.888  30.895  11.210
22438W        W94698  20.126  21.557   2.631
22439W        W94699  42.480  41.330   1.421
22440W        W94700  44.610  25.292   3.162
22441W        W94701   4.801  37.953   0.771
22442W        W94702  24.704  16.027   1.999
22443W        W94703  19.769   4.448  12.146
22444W        W94704  39.420   8.924   3.275
22445W        W94705   0.415  26.080   0.689
22446W        W94706   6.212   4.962   3.713
22447W        W94707   7.201  17.628   2.838
22448W        W94708  37.061  25.449  14.340
22449W        W94709  21.778  13.323  12.664
22450W        W94710  29.934  16.946  11.133
22451W        W94711  26.837   1.668   1.912
22452W        W94712  19.980  25.817  13.828
22453W        W94713  18.834  28.529  14.821
22454W        W94714  41.237   8.181  13.815
22455W        W94715   5.461  42.937  13.999
22456W        W94716   7.778  36.865  13.277
22457W        W94717   8.663  24.179   4.291
22458W        W94718   9.839  39.585  10.371
22459W        W94719  24.496   0.883   1.368
22460W        W94720  24.991  17.159  11.217
22461W        W94721  41.358  40.940  12.546
22462W        W94722   3.673   1.697   1.963
22463W        W94723  31.420  30.397  11.448
22464W        W94724  13.812  23.084   3.139
22465W        W94725  21.983  42.324  14.866
22466W        W94726  42.569   8.487  11.962
22467W        W94727  24.944   8.295  14.497
22468W        W94728  39.261   9.386   1.760
22469W        W94729   5.805  21.922   2.946
22470W        W94730   3.031  22.590  14.432
22471W        W94731  35.507  26.795   2.721
22472W        W94732   4.237   9.378   0.389
22473W        W94733  32.813  20.371  11.240
22474W        W94734  39.670  34.075   2.830
22475W        W94735   3.292  36.724   1.743
22476W        W94736  41.610  19.560  11.756
22477W        W94737   5.627   2.409  12.535
22478W        W94738  16.789  16.680  11.968
22479W        W94739  37.537  18.001  14.129
22480W        W94740  12.140   3.632   2.708
22481W        W94741  41.410  13.205   0.073
22482W        W94742  11.144   1.478  13.867
22483W        W94743  21.120  13.273  12.807
22484W        W94744  20.179  28.916  13.806
22485W        W94745   7.384  37.732   4.147
22486W        W94746  37.358  34.000  10.724
22487W        W94747   8.483  42.971   2.465
22488W        W94748  44.891  17.297  11.026
22489W        W94749   0.798  34.574   1.882
22490W        W94750  44.487  24.007  12.741
22491W        W94751  38.960  35.405  11.092
22492W        W94752  35.669  30.360  12.095
22493W        W94753   4.522   0.400   3.017
22494W        W94754  11.089  26.056  12.888
22495W        W94755  25.529   5.582  11.102
22496W        W94756  22.533  43.523  12.820
22497W        W94757  42.981  22.705   1.784
22498W        W94758  19.553  25.536   3.626
22499W        W94759   6.118  39.919   0.515
22500W        W94760  15.928  39.912  14.717
22501W        W94761  44.278  32.991   0.815
22502W        W94762  39.398  16.508   3.794
22503W        W94763   2.991  37.474   2.122
22504W        W94764  24.026  34.745  12.890
22505W        W94765   9.637  40.109   3.623
22506W        W94766  44.051  15.814  11.134
22507W        W94767  33.720  18.588   2.208
22508W        W94768   2.506  33.244   1.602
22509W        W94769  22.896   0.041   2.662
22510W        W94770  30.432   4.184  12.484
22511W        W94771  18.240  33.358   1.435
22512W        W94772  36.827  35.993   3.443
22513W        W94773  11.671   6.187  12.425
22514W        W94774   6.689  21.942  10.928
22515W        W94775  43.524  22.512   0.955
22516W        W94776  44.532  29.974  11.042
22517W        W94777  37.846  10.307   1.787
22518W        W94778  37.864  36.857   1.389
22519W        W94779  10.291  35.912   2.755
22520W        W94780  35.063  18.153  11.250
22521W        W94781  24.784  11.808   4.146
22522W        W94782  16.036  18.105  11.480
22523W        W94783  44.885  40.474  10.459
22524W        W94784  23.899  27.523   0.836
22525W        W94785  37.077  43.077   0.834
22526W        W94786  28.030  25.682  13.968
22527W        W94787  43.067  39.423  10.753
22528W        W94788  10.584  29.188  12.113
22529W        W94789   3.854   1.159  14.501
22530W        W94790  26.583  10.308  10.661
22531W        W94791  34.809   9.200  13.301
22532W        W94792  29.663  12.446  13.069
22533W        W94793   5.574   7.361  13.385
22534W        W94794  40.700  16.309  12.445
22535W        W94795  13.192  10.490   2.281
22536W        W94796   5.659  23.716   0.411
22537W        W94797  33.118  13.675   2.136
22538W        W94798  10.730  27.219   0.821
22539W        W94799  17.103  39.130  13.446
22540W        W94800  23.233  21.452   4.281
22541W        W94801  12.389  19.014  14.911
22542W        W94802   8.706  10.890  14.912
22543W        W94803  12.443   2.824  11.079
22544W        W94804  31.989  23.064  14.293
22545W        W94805  37.435  27.633   2.943
22546W        W94806  44.107  39.630  13.110
22547W        W94807  40.263  19.356   3.692
22548W        W94808  42.861  31.418   4.560
22549W        W94809  13.797  37.437  11.949
22550W        W94810  12.114  28.907  11.399
22551W        W94811  35.859   3.345   0.844
22552W        W94812  42.827  33.872   4.111
22553W        W94813  18.511  20.509  12.029
22554W        W94814  21.728  44.379   1.766
22555W        W94815   0.738   4.615   1.839
22556W        W94816  10.675  15.537  14.415
22557W        W94817  16.276  16.659  11.691
22558W        W94818   4.813  33.990   3.708
22559W        W94819  18.136  19.278  13.865
22560W        W94820  31.193  36.168  11.081
22561W        W94821  45.000  12.193  12.433
22562W        W94822   5.794  25.739  12.230
22563W        W94823  27.724   4.577   4.143
22564W        W94824  22.290  34.497  14.506
22565W        W94825  43.689  30.511  12.818
22566W        W94826   2.399   5.802  12.915
22567W        W94827  12.809  25.369  10.984
22568W        W94828  30.316  15.075   1.839
22569W        W94829  38.055  25.450   4.265
22570W        W94830  26.523  42.920   3.520
22571W        W94831   3.829   7.774  14.286
22572W        W94832  11.706  14.142  10.729
22573W        W94833  13.702   1.363   3.181
22574W        W94834  38.044  22.245   3.644
22575W        W94835  43.567  11.107  11.611
22576W        W94836  33.076  14.649   4.183
22577W        W94837  34.477  10.683  10.717
22578W        W94838  22.075  14.281  12.847
22579W        W94839   9.220  43.932   3.868
22580W        W94840  36.951  22.263  10.542
22581W        W94841  10.891  16.631  11.590
22582W        W94842  42.693   8.171   4.609
22583W        W94843  30.986   7.955   1.855
22584W        W94844  17.115   7.298   3.665
22585W        W94845  12.004   1.953  13.824
22586W        W94846  38.581  34.042  12.721
22587W        W94847  29.491  32.131   4.235
22588W        W94848  28.802   3.430   4.113
22589W        W94849  12.667  41.521   2.106
22590W        W94850   9.166  33.347  14.292
22591W        W94851  22.894  14.692  14.688
22592W        W94852  14.305  20.335   3.307
22593W        W94853  26.446  32.239   4.829
22594W        W94854   0.869  30.495  10.704
22595W        W94855  36.377  31.618  13.468
22596W        W94856  27.557  13.711   4.348
22597W        W94857  29.942  41.407  10.727
22598W        W94858  23.717  19.195  10.752
22599W        W94859  23.736  33.000   1.930
22600W        W94860  17.707  32.124  10.455
22601W        W94861  42.456   6.373  12.886
22602W        W94862   8.616  38.646   0.997
22603W        W94863  27.709  38.001  13.483
22604W        W94864  26.420  20.722  14.008
22605W        W94865  23.606  12.720   2.232
22606W        W94866  11.511  20.563  14.347
22607W        W94867  15.133   5.933  13.243
22608W        W94868   7.903  30.562  14.793
22609W        W94869  22.472  42.350   0.952
22610W        W94870   6.354  14.369   4.046
22611W        W94871  35.624  25.202   3.740
22612W        W94872  17.688   3.259  10.580
22613W        W94873  41.868  23.959   4.090
22614W        W94874  20.822  20.136  10.611
22615W        W94875  40.719   8.285   4.563
22616W        W94876  26.919  38.311   3.701
22617W        W94877   3.869  20.778  10.665
22618W        W94878   2.008  34.847  14.539
22619W        W94879  15.472  21.655   1.406
22620W        W94880  38.928  32.026   0.837
22621W        W94881  14.304  27.131   1.289
22622W        W94882  39.819  25.420   1.842
22623W        W94883  39.438  26.498  10.492
22624W        W94884  31.548   1.550   4.205
22625W        W94885  44.146  22.064  13.946
22626W        W94886  34.028  20.148  11.929
22627W        W94887  31.398  13.220   0.852
22628W        W94888  34.476   6.960  12.799
22629W        W94889   5.214  39.608   2.709
22630W        W94890  14.583  37.797  12.152
22631W        W94891   3.348  37.047   0.353
22632W        W94892  31.079  15.020   0.855
22633W        W94893   4.440  21.156  13.356
22634W        W94894  29.501  44.275   1.898
22635W        W94895  24.685  11.949  13.168
22636W        W94896  26.099  30.446   1.738
22637W        W94897  41.006   3.324   3.691
22638W        W94898  40.930   9.511   4.086
22639W        W94899  34.137  31.926  11.928
22640W        W94900  13.115  44.107   4.637
22641W        W94901  39.140  12.911  14.995
22642W        W94902  33.699  24.566  10.741
22643W        W94903   3.330  19.157  14.365
22644W        W94904  40.992  32.434   0.532
22645W        W94905   1.678  44.286  11.978
22646W        W94906  39.344  44.870   1.350
22647W        W94907  18.124  42.352   1.713
22648W        W94908   7.674   7.775   1.891
22649W        W94909  40.464  29.001  13.282
22650W        W94910  23.007   1.140  13.497
22651W        W94911   5.261  34.858   2.355
22652W        W94912  25.143  16.637  12.955
22653W        W94913  22.510  34.849   2.662
22654W        W94914  22.546  29.446  14.710
22655W        W94915   9.393  31.424   0.631
22656W        W94916  23.281  28.172   3.294
22657W        W94917  25.420  31.659  14.782
22658W        W94918   9.085   2.859   3.590
22659W        W94919   5.822  24.151  13.786
22660W        W94920  18.746  18.565  12.304
22661W        W94921  12.118  12.311  11.102
22662W        W94922  17.177  33.721  11.529
22663W        W94923  25.817  13.199   3.260
22664W        W94924  32.641  19.788   3.428
22665W        W94925  15.038  26.457  13.932
22666W        W94926   8.189  34.424   3.324
22667W        W94927  12.269  25.132  11.570
22668W        W94928  14.519   1.976  12.619
22669W        W94929  15.816  32.867  12.119
22670W        W94930   6.094  36.987   4.102
22671W        W94931  35.089  20.787  11.049
22672W        W94932  42.099   7.271  13.749
22673W        W94933  14.098  36.448   1.351
22674W        W94934  40.875  10.814   4.391
22675W        W94935  35.726   4.751  12.787
22676W        W94936  28.732  41.493   2.201
22677W        W94937  23.965   1.427   1.328
22678W        W94938  23.941  32.110  11.124
22679W        W94939  22.095  28.697  12.731
22680W        W94940  15.544  43.810   1.356
22681W        W94941   4.241  31.874  14.986
22682W        W94942  23.205  30.385  14.338
22683W        W94943   6.909  31.684  13.703
22684W        W94944   5.703  39.115   0.040
22685W        W94945   5.967  31.106  10.260
22686W        W94946   8.590  25.528   1.403
22687W        W94947   0.915   0.350  11.645
22688W        W94948   4.196   4.695   1.354
22689W        W94949  28.856  33.082   3.753
22690W        W94950  11.659  12.072   3.745
22691W        W94951  21.031  20.571  12.317
22692W        W94952  27.411   0.434   0.004
22693W        W94953  22.117  38.212   4.076
22694W        W94954  35.511  29.609  13.840
22695W        W94955  21.714  38.558  13.049
22696W        W94956  21.122   3.038  10.753
22697W        W94957  28.221  13.210   2.766
22698W        W94958  26.352  25.177   2.269
22699W        W94959  24.289  29.806  13.613
22700W        W94960  28.757  18.689   1.797
22701W        W94961  20.659  22.743   3.174
22702W        W94962  12.978  32.056  13.738
22703W        W94963  34.501  25.946   1.447
22704W        W94964   6.198  23.829   3.963
22705W        W94965  33.835  43.012   0.381
22706W        W94966  13.735  34.146  13.119
22707W        W94967  23.591  37.974   4.234
22708W        W94968   9.319  31.589   1.142
22709W        W94969  28.450  20.035   1.304
22710W        W94970  35.065  28.411   1.300
22711W        W94971  40.983  20.059   0.930
22712W        W94972  44.915   4.267   4.630
22713W        W94973  44.979  13.347  13.453
22714W        W94974   8.846  29.408   2.434
22715W        W94975   8.873  33.608   1.774
22716W        W94976  11.719  10.356  13.547
22717W        W94977  18.108  20.667  11.094
22718W        W94978  16.192  12.264   3.822
22719W        W94979  13.715  16.013   2.345
22720W        W94980   8.821  39.076   4.939
22721W        W94981  34.518  32.511  11.588
22722W        W94982  15.163   8.102   1.249
22723W        W94983  18.689  39.179   0.750
22724W        W94984  26.229  10.530   0.835
22725W        W94985  31.031  19.966   1.655
22726W        W94986  39.292   9.890  12.782
22727W        W94987  42.006  17.025   3.975
22728W        W94988   0.479  22.208  11.439
22729W        W94989  28.918   9.375  13.812
22730W        W94990  42.998  41.923  14.928
22731W        W94991   0.551  30.667  12.506
22732W        W94992  21.619   4.273   4.470
22733W        W94993  28.081  34.938  11.078
22734W        W94994  17.118  20.538  13.222
22735W        W94995  25.983  27.626   3.951
22736W        W94996  19.924   2.531   0.729
22737W        W94997  25.248   9.263   1.843
22738W        W94998  33.524  40.506  11.593
22739W        W94999   7.295   8.210   0.946
22740W        W95000  11.407  43.347  11.169
22741W        W95001  23.433   8.668  11.957
22742W        W95002  24.738   5.644   1.477
22743W        W95003  25.422  35.920   0.799
22744W        W95004  41.001   5.541   3.278
22745W        W95005  22.242  41.987  11.998
22746W        W95006  20.535  38.423  14.965
22747W        W95007  34.314  10.220   4.788
22748W        W95008  22.632   9.753   1.186
22749W        W95009  35.457   6.216   1.160
22750W        W95010  28.368  15.946  13.484
22751W        W95011  37.149  34.774   3.670
22752W        W95012  36.935  20.494  13.090
22753W        W95013   0.891  25.608  14.406
22754W        W95014  17.343  11.852   4.524
22755W        W95015  17.608  18.703   2.938
22756W        W95016   5.804  43.251   0.186
22757W        W95017   9.273   3.865  10.931
22758W        W95018  25.433  26.158  12.279
22759W        W95019  26.471  11.601   1.437
22760W        W95020   2.985  23.704   2.705
22761W        W95021   8.472   1.119  13.877
22762W        W95022  15.625  31.388  11.132
22763W        W95023  34.625  41.821  14.766
22764W        W95024  40.310  40.483   0.389
22765W        W95025   6.262  18.976   1.296
22766W        W95026  40.028  26.588  10.556
22767W        W95027  22.160   9.959   1.259
22768W        W95028  32.487  25.487  14.951
22769W        W95029  43.322  41.374   4.103
22770W        W95030  22.729  41.292   0.392
22771W        W95031  20.728  27.050   2.693
22772W        W95032   2.450  33.932   4.134
22773W        W95033   1.307  35.555   3.160
22774W        W95034   6.912  29.647  14.964
22775W        W95035  43.422  23.432   3.623
22776W        W95036  23.231  36.216  13.373
22777W        W95037  32.110  37.539   3.602
22778W        W95038  18.186  42.521   2.228
22779W        W95039   3.868  14.792  10.567
22780W        W95040   4.779  29.968  10.678
22781W        W95041  35.542  13.665   4.380
22782W        W95042  31.689  23.265   0.882
22783W        W95043  12.830  27.858   2.148
22784W        W95044  34.850  27.072   4.234
22785W        W95045  36.592  24.584  14.479
22786W        W95046  27.946  24.554   4.357
22787W        W95047   5.176  36.901  10.580
22788W        W95048  40.985  31.092   1.888
22789W        W95049  35.431   8.766   0.614
22790W        W95050  37.542   8.363   0.728
22791W        W95051   6.719  30.681  11.999
22792W        W95052  18.608  25.247   1.818
22793W        W95053   4.354  31.501   1.718
22794W        W95054  36.548   1.274  13.654
22795W        W95055  35.462  22.290   3.780
22796W        W95056  31.336  32.611   9.672
22797W        W95057  39.828  20.675  11.645
22798W        W95058  37.931  41.033  14.318
22799W        W95059  20.460  17.549  13.216
22800W        W95060   7.590  26.333   0.094
22801W        W95061  10.088   2.811   2.051
22802W        W95062  29.050  19.743   2.718
22803W        W95063   2.361  28.250   4.644
22804W        W95064   9.591  27.102   0.457
22805W        W95065  39.108  29.190   0.985
22806W        W95066  32.536   2.294   3.334
22807W        W95067  25.286   6.849   0.498
22808W        W95068  18.561   7.894   0.920
22809W        W95069  37.635  44.414   3.590
22810W        W95070  25.976   0.581  12.965
22811W        W95071  26.680  25.885   3.440
22812W        W95072  20.497   9.777   4.598
22813W        W95073  20.638  29.959  13.540
22814W        W95074  32.969   5.363  11.594
22815W        W95075  38.797  25.027  13.422
22816W        W95076  25.546  27.102   0.513
22817W        W95077  17.745  17.314   4.454
22818W        W95078  41.858  12.877  12.011
22819W        W95079  33.927  21.581   5.663
22820W        W95080   5.016  28.129   2.284
22821W        W95081  10.268  38.068   4.834
22822W        W95082  44.620  11.254   0.475
22823W        W95083  35.281  34.653   3.651
22824W        W95084   3.824  33.627   4.871
22825W        W95085  25.623  22.379  12.566
22826W        W95086  39.420  18.110   1.773
22827W        W95087  22.378  28.561  10.534
22828W        W95088  17.281   9.905  13.545
22829W        W95089  13.994  26.299   1.007
22830W        W95090  42.212  30.562   0.328
22831W        W95091  18.770  19.532   0.879
22832W        W95092  11.430  29.454   0.035
22833W        W95093  16.562  35.619   2.733
22834W        W95094  17.783   6.372   2.231
22835W        W95095  19.266  22.163  14.427
22836W        W95096  37.908  32.803   0.996
22837W        W95097  17.355  34.538  12.283
22838W        W95098  43.780  44.395   2.272
22839W        W95099  19.985  42.009  14.221
22840W        W95100  43.964   8.011  10.711
22841W        W95101  19.755  26.081  13.383
22842W        W95102  30.836  23.192   1.376
22843W        W95103  24.122  27.420   9.816
22844W        W95104  44.955  29.474  11.870
22845W        W95105  18.982  12.692  11.132
22846W        W95106  28.906   8.452  12.392
22847W        W95107   1.587  40.473   3.327
22848W        W95108  34.898  23.752  14.813
22849W        W95109  22.056  19.838   2.752
22850W        W95110  30.645  43.095   5.160
22851W        W95111  37.944  40.407   2.880
22852W        W95112  12.555  41.412   1.425
22853W        W95113  43.896   2.508   2.650
22854W        W95114  10.605  21.698  14.027
22855W        W95115  19.452  14.698  12.440
22856W        W95116  11.720   3.242  11.895
22857W        W95117   9.192  18.964   1.492
22858W        W95118   3.812  40.380  12.297
22859W        W95119  38.438  20.313  11.743
22860W        W95120   3.030  42.883   4.177
22861W        W95121  13.031  33.373  13.438
22862W        W95122  23.720  21.687   4.332
22863W        W95123   1.451  23.154  12.076
22864W        W95124  18.836   2.569  12.357
22865W        W95125  23.143  18.328   3.887
22866W        W95126   7.877   6.455   2.920
22867W        W95127  41.921  38.559  14.218
22868W        W95128  11.890  36.035  12.457
22869W        W95129  32.020  22.829  14.762
22870W        W95130  10.335  20.928  11.518
22871W        W95131  25.880  23.616  10.502
22872W        W95132  33.528  37.933   4.526
22873W        W95133  25.126  42.284  10.215
22874W        W95134   5.729  30.562   2.804
22875W        W95135  23.259  38.620   0.894
22876W        W95136  21.978  25.561   2.264
22877W        W95137  27.828  14.769  10.508
22878W        W95138  18.548  11.326  12.516
22879W        W95139   9.329  23.665   4.499
22880W        W95140   4.174   2.585  11.987
22881W        W95141  11.181  28.003  13.537
22882W        W95142  21.737  17.674   2.257
22883W        W95143  11.185   9.208   4.167
22884W        W95144   5.759  22.710  13.836
22885W        W95145  32.022  24.745  10.655
22886W        W95146  41.286   9.629   3.678
22887W        W95147  10.580  23.156   2.421
22888W        W95148   0.466  12.656   0.978
22889W        W95149  35.423  32.310  10.420
22890W        W95150  21.995  35.558   2.696
22891W        W95151  10.849   0.471  13.465
22892W        W95152   6.866  25.961   4.998
22893W        W95153  42.797  19.291  11.267
22894W        W95154  27.605  11.134  14.348
22895W        W95155  44.161  19.837   3.335
22896W        W95156  41.559  19.138  14.866
22897W        W95157   1.402  38.943  12.481
22898W        W95158  31.963  18.184   3.357
22899W        W95159  22.737  21.116  14.482
22900W        W95160  29.614   6.615   4.414
22901W        W95161  28.940  41.951  13.099
22902W        W95162  31.989  18.149   2.376
22903W        W95163  41.777  17.254   2.598
22904W        W95164  23.217  42.536   2.249
22905W        W95165  21.104  10.815   4.550
22906W        W95166   3.744  10.136  11.961
22907W        W95167  32.145  27.005   1.980
22908W        W95168  17.597  29.582   1.266
22909W        W95169  14.715  24.059   1.849
22910W        W95170  28.378  12.237   2.754
22911W        W95171   0.434  20.052  13.327
22912W        W95172  15.075   1.396   2.491
22913W        W95173  36.611  24.485  10.595
22914W        W95174  21.505  21.297  14.486
22915W        W95175  34.115  19.880  11.485
22916W        W95176  32.847   5.210   2.798
22917W        W95177  33.056  14.460   1.971
22918W        W95178  18.495  21.093  14.851
22919W        W95179  12.103  29.034  14.482
22920W        W95180  24.626   7.638   0.438
22921W        W95181  27.630  31.554  10.558
22922W        W95182   5.827  22.741   3.248
22923W        W95183   2.396  10.715  11.180
22924W        W95184  33.612  19.419  14.059
22925W        W95185   6.826  28.148   5.020
22926W        W95186  40.387  13.992  13.455
22927W        W95187  13.715  35.570  14.321
22928W        W95188  16.760  25.347   3.672
22929W        W95189  35.403  15.644   1.236
22930W        W95190  23.382  44.957   2.781
22931W        W95191  25.528  27.914   3.871
22932W        W95192  11.880  11.914   4.208
22933W        W95193  12.417  32.096  13.796
22934W        W95194   2.325  35.489   2.661
22935W        W95195  27.943  34.488   0.002
22936W        W95196  39.754  28.428  11.442
22937W        W95197  31.603  12.059  10.604
22938W        W95198  34.338  24.659  12.431
22939W        W95199  26.076  43.215   2.212
22940W        W95200   1.997  21.973   3.101
22941W        W95201   6.399  43.835  12.061
22942W        W95202  34.261  32.964   4.650
22943W        W95203  40.936   6.258  13.984
22944W        W95204   0.763  43.535  13.102
22945W        W95205  12.149  20.673  11.142
22946W        W95206   3.365  19.121   1.428
22947W        W95207   3.050  43.918   2.774
22948W        W95208   7.361   3.129   2.660
22949W        W95209   8.705  39.028   1.837
22950W        W95210  34.093  35.062  11.072
22951W        W95211  37.604  27.996   2.629
22952W        W95212  36.974  14.128  12.433
22953W        W95213  38.595  12.829   4.580
22954W        W95214  27.397  43.720   4.210
22955W        W95215  26.451   7.875   0.817
22956W        W95216  13.101  10.779   4.678
22957W        W95217  15.544   9.077  13.152
22958W        W95218   6.973  14.808  12.569
22959W        W95219  11.385  16.194   3.225
22960W        W95220  39.356  35.334  11.411
22961W        W95221   0.987  29.130  10.230
22962W        W95222  17.534  28.116  13.872
22963W        W95223  14.470  10.274  11.659
22964W        W95224   2.748   4.820  14.637
22965W        W95225  33.350  27.194   4.322
22966W        W95226   2.258  37.852  13.937
22967W        W95227  36.639  39.990  11.553
22968W        W95228  18.101  36.436  13.422
22969W        W95229  19.132   5.990   0.737
22970W        W95230  16.102  21.657  12.579
22971W        W95231  33.590  28.785  12.581
22972W        W95232  16.646  10.394   3.078
22973W        W95233  24.803  13.368   2.208
22974W        W95234  30.250  43.922   4.574
22975W        W95235  15.821  12.779   3.080
22976W        W95236  10.438   3.285   3.820
22977W        W95237   9.224   2.018  11.557
22978W        W95238  44.762  32.550  12.881
22979W        W95239   9.153  29.230  14.741
22980W        W95240  35.535  29.075  13.794
22981W        W95241  18.072  43.305  13.362
22982W        W95242  34.996  14.454  10.912
22983W        W95243  29.038   8.241   3.804
22984W        W95244  12.588  25.565   1.390
22985W        W95245  33.167   2.104  13.302
22986W        W95246   3.845   7.438  10.348
22987W        W95247  27.244   1.873   2.235
22988W        W95248   3.328   1.497   0.768
22989W        W95249  33.787  44.492  14.545
22990W        W95250  27.501  30.441   3.304
22991W        W95251  39.007  14.771  10.717
22992W        W95252   5.403  19.018   2.377
22993W        W95253  14.361  34.418  13.800
22994W        W95254  14.284  29.930   4.573
22995W        W95255  41.271   3.342  12.486
22996W        W95256  15.625   2.282  13.353
22997W        W95257  13.610  41.319  14.735
22998W        W95258   6.452  31.115  11.983
22999W        W95259  22.390   3.840   3.686
23000W        W95260  22.160  16.553   3.674
23001W        W95261  31.033  21.605   1.006
23002W        W95262  42.845  44.606  11.138
23003W        W95263  17.792  44.990   2.831
23004W        W95264  29.162  25.363   2.368
23005W        W95265  35.412  21.866  10.302
23006W        W95266  14.235  14.274  14.493
23007W        W95267  18.365  14.097   4.142
23008W        W95268  17.794  39.786   1.662
23009W        W95269  13.846  35.110   1.473
23010W        W95270  31.692  29.189  12.009
23011W        W95271  18.140  25.903  12.820
23012W        W95272  34.891  42.525  13.060
23013W        W95273  31.230   9.896  10.628
23014W        W95274  15.865  12.320  14.769
23015W        W95275   2.320  42.338  14.275
23016W        W95276  31.525  17.015   0.335
23017W        W95277   8.393   0.689   3.735
23018W        W95278  14.781  42.303  13.006
23019W        W95279  21.585  36.778  14.723
23020W        W95280  39.282  39.927  12.686
23021W        W95281   7.878   2.288  13.528
23022W        W95282  17.267  35.990  13.522
23023W        W95283  20.069  39.889  14.385
23024W        W95284  13.241   1.028  13.061
23025W        W95285  22.680   1.039  10.704
23026W        W95286   1.310  38.966  13.012
23027W        W95287  38.607  30.985  10.922
23028W        W95288  20.214   3.456   3.428
23029W        W95289   9.462  22.788  10.978
23030W        W95290  38.443  44.947   1.220
23031W        W95291   0.301  20.778  11.929
23032W        W95292  41.940   7.068   3.225
23033W        W95293  26.506   0.023  14.732
23034W        W95294  44.424  36.140  11.460
23035W        W95295  39.174  11.173   3.241
23036W        W95296   5.977  24.226  12.252
23037W        W95297  29.236  22.995   3.084
23038W        W95298  28.349  30.005   1.789
23039W        W95299  27.160  44.662  11.184
23040W        W95300   4.882   2.790  12.143
23041W        W95301  16.242  26.110   4.253
23042W        W95302  15.678  12.629   0.830
23043W        W95303  27.681  22.941   0.314
23044W        W95304  19.564  19.784  12.492
23045W        W95305  18.142   1.494   2.780
23046W        W95306  36.180  32.050  10.928
23047W        W95307  16.825  36.942  14.926
23048W        W95308  27.747  16.310  14.466
23049W        W95309  43.895  31.523   3.274
23050W        W95310  43.232   2.866   1.341
23051W        W95311  26.382  23.820   0.407
23052W        W95312  34.192  17.711   3.671
23053W        W95313  44.165   4.902  11.107
23054W        W95314  10.223  16.826  14.526
23055W        W95315  43.733   8.395  13.605
23056W        W95316  44.248   0.404  13.725
23057W        W95317   2.390  25.333   0.661
23058W        W95318  43.407  10.184   4.779
23059W        W95319  36.468   7.344   4.330
23060W        W95320   3.677  35.386  13.748
23061W        W95321  31.946  19.617   2.208
23062W        W95322  36.021   1.199  14.060
23063W        W95323  13.591  31.087  11.865
23064W        W95324   5.365  29.193  10.926
23065W        W95325  37.347  11.968  14.935
23066W        W95326  15.806  41.194  11.672
23067W        W95327  34.446  26.286   0.545
23068W        W95328   4.901  10.206  14.484
23069W        W95329   5.399   5.946  14.331
23070W        W95330  10.787  29.922   4.792
23071W        W95331  38.486   3.202  12.402
23072W        W95332  32.413   3.238   2.214
23073W        W95333  30.705   0.408  12.000
23074W        W95334  40.605   3.800  13.781
23075W        W95335  12.686  21.301   4.639
23076W        W95336  19.639   2.198   4.063
23077W        W95337  43.846  22.076   4.603
23078W        W95338  27.044  44.542   2.685
23079W        W95339  36.609   8.928  14.419
23080W        W95340  28.190  35.410   1.296
23081W        W95341  10.719  35.135  11.657
23082W        W95342  21.555   3.212   2.338
23083W        W95343   9.413  40.943   0.172
23084W        W95344  36.826  31.141   4.103
23085W        W95345  19.228  32.184  10.705
23086W        W95346  31.809  33.395  12.369
23087W        W95347   7.200  11.428  11.525
23088W        W95348  35.144   1.688  14.271
23089W        W95349  30.074  19.663  13.224
23090W        W95350  35.820   4.726   5.135
23091W        W95351  17.876  28.003  12.473
23092W        W95352  32.996  21.189  13.992
23093W        W95353  17.662   1.523  13.492
23094W        W95354  31.455  33.641  12.044
23095W        W95355   4.241  16.278  12.499
23096W        W95356  40.043  35.639  11.113
23097W        W95357  29.050   1.930   0.548
23098W        W95358  14.137  44.207   2.203
23099W        W95359  16.202  18.585  14.748
23100W        W95360  22.078  16.076  14.813
23101W        W95361  43.897  35.001   4.579
23102W        W95362  35.557  19.034   3.673
23103W        W95363  29.218  33.001   3.318
23104W        W95364   6.536  40.783   2.667
23105W        W95365   4.978  14.953   2.659
23106W        W95366  38.045  42.496  11.632
23107W        W95367  41.511   0.004   4.607
23108W        W95368  26.916  34.611   3.691
23109W        W95369  27.027  12.642   4.783
23110W        W95370  34.553   7.860  12.372
23111W        W95371  21.357  32.813  10.334
23112W        W95372  42.544  20.296   0.855
23113W        W95373  13.898  31.767  11.233
23114W        W95374  36.818  18.585  14.395
23115W        W95375  23.886  21.228  13.281
23116W        W95376  28.103  20.545   3.865
23117W        W95377  20.905  32.755   0.389
23118W        W95378   3.377  21.765  13.415
23119W        W95379  33.588  23.491  12.036
23120W        W95380  34.502  33.938  12.272
23121W        W95381  30.837  44.544  11.371
23122W        W95382  43.803  21.082  13.328
23123W        W95383  20.384  26.189   0.595
23124W        W95384  14.275   3.910   1.379
23125W        W95385   8.037  14.942  13.071
23126W        W95386  10.638  15.590   3.423
23127W        W95387  17.238   8.249  14.489
23128W        W95388   5.841  39.850  10.729
23129W        W95389  38.873  32.316  12.407
23130W        W95390   0.856  35.814  14.028
23131W        W95391   0.683   0.854  14.309
23132W        W95392  27.047  39.104  14.946
23133W        W95393  28.176  34.715  13.587
23134W        W95394  42.008  12.738   3.734
23135W        W95395  32.072  17.684   2.614
23136W        W95396  16.719   9.886  12.920
23137W        W95397  22.849  33.468   1.326
23138W        W95398   5.299  16.016   3.223
23139W        W95399  28.193  21.496  12.406
23140W        W95400   6.693   3.563   0.986
23141W        W95401  21.612   2.696  11.197
23142W        W95402  29.652  29.200  11.972
23143W        W95403  30.628  43.869   1.682
23144W        W95404   6.958  44.361  10.197
23145W        W95405  33.976   6.774   1.205
23146W        W95406   0.791  42.912  14.349
23147W        W95407   3.330  28.411   1.078
23148W        W95408  44.925  41.345  14.224
23149W        W95409   3.812  12.148   1.165
23150W        W95410  31.939  22.448  12.475
23151W        W95411   8.914  33.159   2.035
23152W        W95412  16.118  17.283   2.881
23153W        W95413   6.407   1.759  10.056
23154W        W95414   3.299  22.650   2.427
23155W        W95415   9.929  18.117   0.809
23156W        W95416   6.949  42.423   3.777
23157W        W95417  24.429   6.854   1.419
23158W        W95418  13.709   0.013  12.359
23159W        W95419  18.857   3.033  13.324
23160W        W95420   6.726  32.454  12.477
23161W        W95421  33.909  29.867  11.966
23162W        W95422  27.659  12.731  10.953
23163W        W95423  34.102  38.592   1.282
23164W        W95424  40.061  28.163  13.630
23165W        W95425   8.972  43.889   4.663
23166W        W95426   2.456  31.015  13.531
23167W        W95427  44.996  26.098   1.067
23168W        W95428  14.395  15.693   0.816
23169W        W95429  35.878  22.479   5.046
23170W        W95430  40.227   6.653  14.080
23171W        W95431  25.099  22.585  13.434
23172W        W95432   1.494   3.112  11.578
23173W        W95433   2.304   1.522   0.242
23174W        W95434  31.979   6.936   4.054
23175W        W95435  23.419   2.355   0.458
23176W        W95436  11.892  30.864  14.077
23177W        W95437  11.912  28.583  11.029
23178W        W95438  13.359  18.662  12.965
23179W        W95439  25.270  36.137   4.692
23180W        W95440  22.178  14.840   1.811
23181W        W95441  13.185  15.155  13.896
23182W        W95442  15.852  13.964  14.450
23183W        W95443  34.000   3.336   0.912
23184W        W95444  39.872   7.582  10.787
23185W        W95445  28.033   3.494  12.387
23186W        W95446   3.724  13.581   2.052
23187W        W95447  24.589  14.301   2.858
23188W        W95448  39.814  19.380   2.639
23189W        W95449  42.923   7.158  14.062
23190W        W95450  10.881  20.306  10.535
23191W        W95451  44.913   7.180  11.607
23192W        W95452   3.690  22.690   4.245
23193W        W95453  31.670  20.629   2.756
23194W        W95454  18.068  29.907   2.848
23195W        W95455  10.992  42.772   5.369
23196W        W95456  10.692   3.635   2.229
23197W        W95457  31.027  13.177   3.346
23198W        W95458   7.924  11.249  12.437
23199W        W95459   0.874  28.138   4.033
23200W        W95460  42.749  42.054   0.356
23201W        W95461   1.505   0.276   4.618
23202W        W95462  42.548  10.191  12.700
23203W        W95463  24.316   7.601  12.814
23204W        W95464  35.862   3.937   4.211
23205W        W95465  19.238  44.756  11.179
23206W        W95466   3.750  12.269  14.263
23207W        W95467  42.769  19.666   3.688
23208W        W95468  42.815   4.886  13.451
23209W        W95469  41.395  17.313  14.261
23210W        W95470  40.979  23.410  14.409
23211W        W95471   3.250   5.004  10.389
23212W        W95472  36.288  37.462  10.616
23213W        W95473   0.940   2.427   2.303
23214W        W95474  44.749  37.380   0.635
23215W        W95475   3.142  29.211   4.214
23216W        W95476  30.341  35.913   1.628
23217W        W95477  32.348  15.837   2.249
23218W        W95478  31.266   6.240   0.937
23219W        W95479  27.515  11.252  12.496
23220W        W95480  43.464  33.771   3.285
23221W        W95481  27.061   4.494  14.984
23222W        W95482  41.920  35.470   3.278
23223W        W95483  20.537  44.510  11.602
23224W        W95484  15.750  14.860   1.330
23225W        W95485  27.987  18.316   1.841
23226W        W95486  19.728  24.306  13.949
23227W        W95487   3.029  21.680   0.939
23228W        W95488  34.719  20.782  12.864
23229W        W95489  15.110  28.163   9.816
23230W        W95490  14.480  24.909  13.750
23231W        W95491  14.712  18.254   4.640
23232W        W95492  29.446  20.446  12.883
23233W        W95493  13.506  33.673   3.182
23234W        W95494   4.962  25.719   0.976
23235W        W95495   4.774  36.899  12.137
23236W        W95496  32.949  15.183   1.384
23237W        W95497   3.439  22.132   1.767
23238W        W95498  11.979  41.908  11.082
23239W        W95499  16.394  15.378  13.936
23240W        W95500  42.270   9.859   3.479
23241W        W95501   0.916  32.350  10.650
23242W        W95502  29.499   3.760   4.242
23243W        W95503  35.676  35.865   4.727
23244W        W95504  17.550  15.877  12.551
23245W        W95505   4.514  31.156  11.311
23246W        W95506  37.736  15.372   0.109
23247W        W95507  18.761  34.482  10.442
23248W        W95508  20.941  22.593   0.351
23249W        W95509  36.550  37.532   2.350
23250W        W95510   6.115  22.982  14.360
23251W        W95511  15.233   7.306   4.702
23252W        W95512   4.688   8.395   0.318
23253W        W95513  23.970  30.313  10.565
23254W        W95514  35.569  32.477   3.467
23255W        W95515  24.069  34.992  14.070
23256W        W95516  38.323   1.654   4.895
23257W        W95517   9.253  18.400   5.006
23258W        W95518  32.127  10.969   0.306
23259W        W95519  17.122  14.712  13.188
23260W        W95520  13.850  15.006  14.553
23261W        W95521   1.021  42.327  12.919
23262W        W95522  40.499   8.901   3.275
23263W        W95523  26.459   5.113   3.663
23264W        W95524  12.295  42.011  14.235
23265W        W95525  18.231  12.946   1.489
23266W        W95526  24.963   1.332   4.040
23267W        W95527  34.365  38.926   4.586
23268W        W95528  36.975   0.668  14.875
23269W        W95529  14.104  10.704   3.734
23270W        W95530  32.926   4.692   1.292
23271W        W95531  36.644  39.838   2.877
23272W        W95532   8.160  44.955   2.143
23273W        W95533  25.264  29.531  10.670
23274W        W95534   6.531  17.694   0.745
23275W        W95535   7.461   4.941   2.498
23276W        W95536  30.102  21.057   1.045
23277W        W95537  17.603   1.725  14.958
23278W        W95538  39.717  30.229   3.549
23279W        W95539   8.353  20.851  12.131
23280W        W95540  33.203  18.350   2.291
23281W        W95541  15.157  27.092   0.929
23282W        W95542   4.907  15.496   4.067
23283W        W95543  37.756   9.708  10.060
23284W        W95544  12.420  41.550  11.129
23285W        W95545  24.016  10.605   3.759
23286W        W95546  14.681   6.103   2.008
23287W        W95547  39.746  20.581  12.678
23288W        W95548  24.405  41.111   4.629
23289W        W95549  29.529   7.032   3.596
23290W        W95550   3.003  13.198  13.827
23291W        W95551  26.796  26.121  10.606
23292W        W95552   8.997   2.988  12.408
23293W        W95553  31.320  30.195   3.756
23294W        W95554  21.660  34.136  12.927
23295W        W95555   0.768  10.865  14.126
23296W        W95556   1.014  28.531   4.838
23297W        W95557  35.872  28.682  13.859
23298W        W95558  17.624   1.277  10.597
23299W        W95559  25.814  22.719  12.909
23300W        W95560  33.951  22.367  14.325
23301W        W95561  12.100   3.516  12.099
23302W        W95562   9.720  22.446   0.787
23303W        W95563  40.054  14.263   2.589
23304W        W95564   5.265  28.351   2.701
23305W        W95565  21.809  42.440   4.161
23306W        W95566  37.346  37.370  10.662
23307W        W95567  21.708   0.963   3.924
23308W        W95568  25.176  31.446   0.866
23309W        W95569  29.735  40.313   4.216
23310W        W95570  28.461  35.578  12.820
23311W        W95571  39.928  31.170  12.530
23312W        W95572  28.120  44.528   3.613
23313W        W95573  10.924  13.160  11.637
23314W        W95574  43.724  35.264  12.531
23315W        W95575   3.998  44.883   4.785
23316W        W95576  38.402  32.458   1.315
23317W        W95577  27.476  19.586  14.783
23318W        W95578   9.868  21.568   2.180
23319W        W95579  19.084  33.595   3.609
23320W        W95580  42.053  31.310  12.622
23321W        W95581  25.338  18.009   2.413
23322W        W95582  28.481  13.352  10.705
23323W        W95583  44.945  36.034   0.417
23324W        W95584  21.898  32.274  10.111
23325W        W95585   6.762  38.333   4.427
23326W        W95586  23.643  18.825  11.711
23327W        W95587  39.350  27.355  10.645
23328W        W95588   7.717  16.146  11.051
23329W        W95589   2.816  37.781   0.843
23330W        W95590  37.480  12.688   3.160
23331W        W95591   0.891  40.937  11.397
23332W        W95592  36.273  30.816   3.665
23333W        W95593  10.359   9.220   3.893
23334W        W95594   2.328  22.166   3.443
23335W        W95595  23.768  20.540  10.934
23336W        W95596  35.138  17.112  13.997
23337W        W95597  14.158  19.511   4.094
23338W        W95598   8.779   4.757  12.784
23339W        W95599  29.689  31.186  14.125
23340W        W95600  23.970  34.961   4.920
23341W        W95601  10.203  26.619   1.701
23342W        W95602  25.159  32.644   4.320
23343W        W95603  12.528  26.401  11.158
23344W        W95604  35.428   6.586  14.782
23345W        W95605  17.938  23.150   0.794
23346W        W95606   1.287   1.996  12.599
23347W        W95607  22.555  21.405   5.192
23348W        W95608  28.946   1.899  13.807
23349W        W95609   2.090   8.762   2.657
23350W        W95610  23.197   0.252  14.790
23351W        W95611  28.591  14.260  10.469
23352W        W95612  39.462  31.733  12.074
23353W        W95613  29.641  36.871  14.355
23354W        W95614  10.682  18.748  11.518
23355W        W95615  26.783   0.566  11.468
23356W        W95616  17.148  44.479  14.929
23357W        W95617   8.645   2.402  14.989
23358W        W95618   2.005  20.156  13.617
23359W        W95619  43.192  32.352  12.503
23360W        W95620  17.282  25.064  14.048
23361W        W95621  13.210   5.130   0.700
23362W        W95622  10.456   4.866   2.869
23363W        W95623   6.282  27.862  11.901
23364W        W95624  21.092  19.060   3.694
23365W        W95625  10.123  19.149   3.234
23366W        W95626  33.897   5.412   1.742
23367W        W95627  32.383  30.273   2.360
23368W        W95628  12.251  28.655   4.506
23369W        W95629  21.062  31.494  11.888
23370W        W95630   8.840   7.692  12.308
23371W        W95631   9.730  32.132  11.406
23372W        W95632  23.738  16.209   4.585
23373W        W95633   7.439  13.620   3.856
23374W        W95634  30.364  41.356  13.405
23375W        W95635  36.854  21.216   2.346
23376W        W95636  31.632  20.974   2.273
23377W        W95637   9.501  43.549  12.068
23378W        W95638  13.119  29.739   5.084
23379W        W95639   3.392  25.777  14.264
23380W        W95640  35.117  37.866   4.758
23381W        W95641   5.971  28.508  13.066
23382W        W95642  41.922   5.137   4.571
23383W        W95643  30.500   9.905   4.134
23384W        W95644  28.013  18.509  10.089
23385W        W95645   6.057  18.398  11.402
23386W        W95646   8.210   7.278   1.743
23387W        W95647   8.825  39.102   2.779
23388W        W95648  16.178   4.953  10.858
23389W        W95649   9.576  35.963   0.376
23390W        W95650  43.860  13.867   2.855
23391W        W95651  17.651  28.356   3.410
23392W        W95652  30.340   2.799  12.921
23393W        W95653  34.506  37.920  10.769
23394W        W95654  17.176  31.343  13.307
23395W        W95655  43.954  36.407   1.768
23396W        W95656  41.984  43.818   4.524
23397W        W95657  35.993  29.638  14.045
23398W        W95658   7.386  14.224  14.748
23399W        W95659  38.545  17.195   4.935
23400W        W95660  38.481  43.629  11.113
23401W        W95661  25.561  12.003  11.046
23402W        W95662  34.018  12.416   4.747
23403W        W95663   6.667  31.692   2.278
23404W        W95664  10.285  19.825  12.384
23405W        W95665  23.703  18.632   3.440
23406W        W95666  21.524  26.473   3.225
23407W        W95667   1.738  11.693   5.170
23408W        W95668  40.978   5.377  13.404
23409W        W95669  41.999  21.018  14.908
23410W        W95670  43.668  38.871   3.657
23411W        W95671  35.252  15.277   5.071
23412W        W95672   3.791  17.401  12.862
23413W        W95673  25.989  20.717   0.254
23414W        W95674   6.646   7.942  11.893
23415W        W95675  26.088  19.644   1.492
23416W        W95676   6.188  24.127   1.758
23417W        W95677  32.202   4.243  14.613
23418W        W95678   6.474  22.237  14.823
23419W        W95679  34.418   3.714  11.151
23420W        W95680  20.014  21.434  12.597
23421W        W95681  19.987   7.291  13.491
23422W        W95682  33.821   8.905   3.121
23423W        W95683  23.316  30.104   2.455
23424W        W95684  11.540  34.457   4.111
23425W        W95685  33.554  17.377  12.965
23426W        W95686  42.886   3.193   1.163
23427W        W95687  15.345  26.192   0.756
23428W        W95688  44.849   8.364  13.097
23429W        W95689  37.131   1.763   4.178
23430W        W95690  35.879   7.691   0.502
23431W        W95691  23.481  24.128   3.820
23432W        W95692  20.520  35.341   1.022
23433W        W95693  24.236   4.434  13.315
23434W        W95694  28.323  25.255   0.711
23435W        W95695  17.971  21.747   3.218
23436W        W95696   2.418   3.883   3.308
23437W        W95697  28.302  31.959  11.160
23438W        W95698   9.224  39.303  11.043
23439W        W95699  27.116   5.904  11.125
23440W        W95700  36.443  26.941  13.719
23441W        W95701  16.806  42.005   3.880
23442W        W95702  17.136  13.633   1.388
23443W        W95703  33.621  19.052   1.995
23444W        W95704  24.195  20.918   3.320
23445W        W95705  20.946  16.576   4.618
23446W        W95706  13.521   3.943  12.183
23447W        W95707  25.851  19.766   0.347
23448W        W95708  23.626  28.352   2.951
23449W        W95709  19.550   3.250  11.585
23450W        W95710  27.479   6.033   1.859
23451W        W95711  29.591  33.503  13.119
23452W        W95712  33.999  34.862  10.622
23453W        W95713  32.364  13.247  13.142
23454W        W95714  25.654  18.981  11.018
23455W        W95715  37.238  18.846  10.255
23456W        W95716  15.414  39.249   0.986
23457W        W95717   0.659  33.452   3.392
23458W        W95718   9.569  38.155   0.040
23459W        W95719  36.035  32.586   3.726
23460W        W95720  41.938  39.783   3.233
23461W        W95721  16.522  42.451  11.539
23462W        W95722   5.902  25.081   0.280
23463W        W95723   6.632   3.174   4.388
23464W        W95724   7.810  12.588   3.259
23465W        W95725  40.357  26.896   4.089
23466W        W95726  28.903  12.737  13.650
23467W        W95727  30.684   4.009   0.648
23468W        W95728  20.309   5.756   0.484
23469W        W95729  16.328  43.104  11.251
23470W        W95730  33.289  44.605   2.242
23471W        W95731   7.423  38.360   0.512
23472W        W95732   9.801  25.587  13.832
23473W        W95733   6.277  36.032  10.665
23474W        W95734  18.632  26.679   0.194
23475W        W95735  14.227  40.730   2.218
23476W        W95736  28.998  37.987   2.191
23477W        W95737  30.791  31.507  14.408
23478W        W95738  12.262  21.562  12.201
23479W        W95739  44.629  10.384   4.113
23480W        W95740  24.554  44.850  12.776
23481W        W95741  22.683  42.276  13.784
23482W        W95742  10.872  18.253   0.953
23483W        W95743  40.731   6.179  14.495
23484W        W95744  18.932   5.396  11.976
23485W        W95745   7.696  26.749  12.073
23486W        W95746   3.825  26.541  10.419
23487W        W95747   9.648   8.970  10.659
23488W        W95748  12.983  44.943  13.966
23489W        W95749  35.633  29.552   3.724
23490W        W95750  39.851  29.385   0.849
23491W        W95751  42.635  38.380   4.465
23492W        W95752   8.140  16.596   1.194
23493W        W95753  23.514  25.917  14.193
23494W        W95754  30.467  30.433  10.471
23495W        W95755  36.405   3.437   0.477
23496W        W95756  23.696   4.734  14.890
23497W        W95757  36.473  18.999  14.479
23498W        W95758   0.211  21.271  13.680
23499W        W95759  33.465  12.323   3.247
23500W        W95760  18.214  38.912   3.700
23501W        W95761   0.942   1.685  11.119
23502W        W95762  39.428  33.580  14.011
23503W        W95763   0.469  18.938  13.865
23504W        W95764  21.749   8.318   2.742
23505W        W95765  22.733   5.749  10.110
23506W        W95766  44.265  37.559   1.707
23507W        W95767  33.088  32.340   1.989
23508W        W95768  34.562  19.518   4.080
23509W        W95769  41.069  39.840   1.207
23510W        W95770  44.303   3.749  13.400
23511W        W95771  14.288  12.641   2.644
23512W        W95772  21.073  26.121   0.905
23513W        W95773  39.423  27.632  13.346
23514W        W95774  38.051   1.081  12.146
23515W        W95775  17.154  18.868   2.723
23516W        W95776   6.076  12.442  13.871
23517W        W95777  44.929  31.969   0.410
23518W        W95778   0.908   8.844  10.783
23519W        W95779  23.049   1.733  11.118
23520W        W95780  25.273  16.568   1.321
23521W        W95781  18.038  22.664  11.774
23522W        W95782  23.732   9.288  10.974
23523W        W95783  20.219  11.769   1.205
23524W        W95784   9.429  41.441   4.199
23525W        W95785  44.176   6.077   5.020
23526W        W95786  13.422  44.305   9.948
23527W        W95787  38.869  30.472  12.080
23528W        W95788  26.513  27.428   3.254
23529W        W95789  37.192   7.923   4.855
23530W        W95790  31.175  18.205   1.885
23531W        W95791  30.235  44.310  14.455
23532W        W95792  30.512  31.652   1.748
23533W        W95793   8.510  15.661  14.972
23534W        W95794   5.629   1.256  13.963
23535W        W95795  32.991  17.589  11.011
23536W        W95796  12.947   3.418  13.556
23537W        W95797  27.621  31.399  13.385
23538W        W95798   6.659  35.557  12.601
23539W        W95799  15.039  38.483   3.371
23540W        W95800   7.768   5.122   0.007
23541W        W95801  36.479  29.762   1.163
23542W        W95802   1.200  40.005  10.763
23543W        W95803   8.448  20.104  14.298
23544W        W95804   0.835  40.889  14.585
23545W        W95805   5.738  31.150   2.762
23546W        W95806  20.798  15.236  13.424
23547W        W95807  31.479  33.586  13.222
23548W        W95808   9.346  27.978   0.431
23549W        W95809  28.211  14.534   0.400
23550W        W95810  31.516  21.069  10.853
23551W        W95811  19.121  25.244   3.642
23552W        W95812   5.523   1.771   3.131
23553W        W95813  29.002  20.008  12.582
23554W        W95814  34.223  38.046  14.458
23555W        W95815   6.427  26.228  12.827
23556W        W95816  10.586   1.215   4.493
23557W        W95817  44.327  29.657  14.461
23558W        W95818  10.297  38.892  14.916
23559W        W95819   3.895  36.653  14.825
23560W        W95820  15.281  28.085   0.995
23561W        W95821  35.926  14.403   0.577
23562W        W95822  24.874  44.465  10.248
23563W        W95823  15.794  12.843  14.797
23564W        W95824  10.725  34.513   1.682
23565W        W95825  34.367  34.597   2.705
23566W        W95826  18.662  34.547   2.182
23567W        W95827  37.119  35.536  12.827
23568W        W95828   7.018  31.162  12.878
23569W        W95829   9.533   5.642   3.261
23570W        W95830  39.097  36.916   1.650
23571W        W95831  13.464  41.642   4.215
23572W        W95832  16.121  15.468   4.458
23573W        W95833  23.155  40.731   2.669
23574W        W95834  36.525  13.164  10.403
23575W        W95835   8.567  24.619   0.368
23576W        W95836  27.348   8.721  10.515
23577W        W95837  37.976  25.210  11.191
23578W        W95838  16.334  31.513   1.654
23579W        W95839   3.748  28.169  12.691
23580W        W95840  30.976  13.189  14.961
23581W        W95841  30.192  24.721  12.854
23582W        W95842  26.172   8.591   1.270
23583W        W95843  33.927  18.735  14.042
23584W        W95844  37.997   6.387   3.254
23585W        W95845  17.193  43.287   3.452
23586W        W95846  26.510  12.689  12.928
23587W        W95847   5.787  41.003   3.503
23588W        W95848  21.732   9.488  14.902
23589W        W95849  41.933  32.906   1.115
23590W        W95850  13.044  14.423   2.708
23591W        W95851   1.380  42.839   0.933
23592W        W95852  37.780  35.884   1.861
23593W        W95853  40.738  10.914  11.204
23594W        W95854  37.388   0.859  12.899
23595W        W95855  29.498  21.522   1.467
23596W        W95856  23.598  18.809   1.486
23597W        W95857  43.890  35.827  10.843
23598W        W95858  24.598  24.993   3.589
23599W        W95859  21.412   1.320   3.222
23600W        W95860  11.564   0.737   1.831
23601W        W95861  34.112   3.908  12.460
23602W        W95862   5.991  26.960   4.888
23603W        W95863   0.043  19.212  14.670
23604W        W95864   1.441  19.439   2.783
23605W        W95865  18.175  33.484  12.758
23606W        W95866  17.173  35.545  14.924
23607W        W95867  36.874  22.431   4.094
23608W        W95868  28.221  26.992  13.234
23609W        W95869  39.439  13.725  11.241
23610W        W95870   6.907  23.195   2.192
23611W        W95871  36.055  37.845   2.805
23612W        W95872  42.832  35.917   3.337
23613W        W95873  34.361  40.357   0.783
23614W        W95874  26.956  17.106   4.595
23615W        W95875  12.797   3.936  12.659
23616W        W95876   1.948  33.900  11.171
23617W        W95877   6.878  27.107  13.799
23618W        W95878  40.265   8.733  11.992
23619W        W95879   7.210  25.568   0.476
23620W        W95880   7.802  10.788   1.897
23621W        W95881   3.954  10.056  11.501
23622W        W95882   0.139  13.673  11.997
23623W        W95883  23.993  43.493  14.791
23624W        W95884  22.646  14.855   4.499
23625W        W95885  33.886  10.290   2.448
23626W        W95886  41.740  26.124  11.887
23627W        W95887  13.367  16.269  13.194
23628W        W95888  16.179  27.101   4.657
23629W        W95889  10.667  23.978  12.850
23630W        W95890  43.718  35.364   3.268
23631W        W95891  21.599  40.020  12.005
23632W        W95892  42.795   0.385   0.504
23633W        W95893   3.875  28.176  11.261
23634W        W95894  16.843  32.234   3.268
23635W        W95895   0.403  33.059  11.897
23636W        W95896  20.819  26.884  13.273
23637W        W95897   0.054  35.780   0.873
23638W        W95898  25.511  16.818   0.940
23639W        W95899  27.206  19.614  12.960
23640W        W95900  16.016   6.265  11.984
23641W        W95901  38.231  19.521  12.376
23642W        W95902  38.840   9.860  13.056
23643W        W95903  37.572  24.503  11.631
23644W        W95904  29.089  13.759  13.425
23645W        W95905  22.958  10.438  13.037
23646W        W95906   9.628  19.675   2.821
23647W        W95907  17.324  33.739  12.955
23648W        W95908  30.474  30.136  13.298
23649W        W95909  42.862  30.656   3.284
23650W        W95910   2.602   3.423  10.158
23651W        W95911  36.057  37.076   4.151
23652W        W95912  23.440  36.421  11.065
23653W        W95913   9.711  42.732  11.402
23654W        W95914  20.764   9.585   2.279
23655W        W95915  35.150  17.956   5.108
23656W        W95916  36.053  16.734   3.641
23657W        W95917  26.630   1.943  14.258
23658W        W95918  25.287  36.123   3.834
23659W        W95919  42.996  25.053   4.686
23660W        W95920  16.314   0.854  10.132
23661W        W95921  26.464  44.815   0.770
23662W        W95922  41.859   3.299  11.088
23663W        W95923   7.060  14.132   0.180
23664W        W95924   0.522  15.744   0.907
23665W        W95925  31.738  22.476   5.068
23666W        W95926   2.436   9.641  12.571
23667W        W95927  25.183   5.907  14.434
23668W        W95928  20.732  16.777  11.816
23669W        W95929  43.899  24.951   0.401
23670W        W95930  36.077  14.472   5.069
23671W        W95931  15.142  23.018   0.075
23672W        W95932   1.818  21.672   0.048
23673W        W95933  23.998  18.083   1.440
23674W        W95934  14.913  39.833   4.713
23675W        W95935  39.971  37.810   2.156
23676W        W95936  27.382  23.441  14.083
23677W        W95937  41.749  22.946   4.149
23678W        W95938   0.519  25.379   3.404
23679W        W95939  21.192  33.175   4.590
23680W        W95940  30.338  20.567   2.162
23681W        W95941  31.738  41.266   3.166
23682W        W95942  32.884  25.204   2.705
23683W        W95943  27.446   0.247   4.715
23684W        W95944  37.550  39.021   0.036
23685W        W95945  10.190  30.895  13.058
23686W        W95946   4.341  43.805  12.863
23687W        W95947  39.881  30.188   0.456
23688W        W95948  35.001  19.095  14.841
23689W        W95949  26.535  39.082  14.720
23690W        W95950  17.622  17.727  12.703
23691W        W95951   5.365   9.905   4.191
23692W        W95952  13.294  38.984   3.231
23693W        W95953  26.138  30.076  13.907
23694W        W95954  39.764  23.633   2.326
23695W        W95955  21.106  36.519  13.104
23696W        W95956  42.775  40.041  14.714
23697W        W95957   7.328  36.729  12.071
23698W        W95958  10.134  38.902  13.961
23699W        W95959   4.694  18.685   3.301
23700W        W95960   0.308  40.784  14.833
23701W        W95961  25.770   3.166   4.791
23702W        W95962  20.467  19.752   1.305
23703W        W95963  34.545  29.043  10.509
23704W        W95964  36.030   5.464  11.470
23705W        W95965  23.103  13.844  10.421
23706W        W95966  16.318  20.229   0.875
23707W        W95967  28.538   8.555  13.282
23708W        W95968   1.853  31.070   4.107
23709W        W95969  33.005   5.687   2.879
23710W        W95970  22.183  37.002  14.314
23711W        W95971  39.274  28.505   0.385
23712W        W95972  35.281  40.531  11.065
23713W        W95973   7.680  28.493  10.249
23714W        W95974  21.893   5.904  10.490
23715W        W95975  44.707  41.882  11.008
23716W        W95976   8.656  42.775  14.102
23717W        W95977  38.379  20.797  11.924
23718W        W95978   4.837  35.028  12.337
23719W        W95979  17.108  39.912  12.044
23720W        W95980  11.367  38.403  14.819
23721W        W95981   5.852  33.469   4.556
23722W        W95982   7.129  16.739   1.392
23723W        W95983  24.508   3.840  14.465
23724W        W95984  24.992  44.160   4.311
23725W        W95985  13.922  27.238  11.647
23726W        W95986  10.895   9.250  14.432
23727W        W95987  11.707  37.762  13.059
23728W        W95988  29.089   2.710  13.331
23729W        W95989  32.953   6.118  14.550
23730W        W95990   9.866  15.724   2.280
23731W        W95991   6.469   4.193  13.047
23732W        W95992  11.300  39.805  12.887
23733W        W95993  26.217   9.356   1.694
23734W        W95994  10.973  31.319  10.772
23735W        W95995  42.494  14.336  14.084
23736W        W95996  18.471   0.407  12.921
23737W        W95997  21.646  26.998   1.400
23738W        W95998   1.940  28.370   4.370
23739W        W95999  28.903   3.871  12.946
23740W        W96000  36.758  29.053   2.266
23741W        W96001  25.672  31.007  14.013
23742W        W96002  36.947   7.775   1.738
23743W        W96003  21.533  25.719   0.311
23744W        W96004  21.471  21.869   4.698
23745W        W96005  42.752  40.947   1.785
23746W        W96006  19.257  13.103  12.010
23747W        W96007  19.911  34.425  14.202
23748W        W96008  38.992  12.437   4.605
23749W        W96009  35.597  42.043  13.435
23750W        W96010   5.803  27.120   3.919
23751W        W96011  38.979   7.129  14.842
23752W        W96012   7.130  39.976   0.294
23753W        W96013  31.884  15.510   0.434
23754W        W96014  38.353  14.538  14.487
23755W        W96015  36.043  33.802   2.688
23756W        W96016  36.637  34.852   3.635
23757W        W96017  40.950  21.020  11.337
23758W        W96018  30.626  11.942  13.963
23759W        W96019  33.675  27.582  10.763
23760W        W96020  26.106  18.034  11.446
23761W        W96021  24.797   0.995  11.474
23762W        W96022  37.697  38.404  10.190
23763W        W96023  27.034  20.999   1.412
23764W        W96024  40.395   8.601  13.845
23765W        W96025  28.577  28.159  11.153
23766W        W96026  23.215  27.173  12.830
23767W        W96027   8.710   9.911  10.848
23768W        W96028  37.934  44.952   2.563
23769W        W96029  25.019  10.420   0.438
23770W        W96030   5.273  34.607  13.936
23771W        W96031  32.172  19.696   3.601
23772W        W96032  28.448   0.417   3.554
23773W        W96033  26.343  36.789  14.563
23774W        W96034  24.927   9.432   2.867
23775W        W96035  10.021   2.639   0.262
23776W        W96036  23.546  14.065  13.937
23777W        W96037  35.967  40.426  10.697
23778W        W96038  34.602  37.063   4.224
23779W        W96039   6.352  21.587   2.861
23780W        W96040  34.537  10.662   0.508
23781W        W96041  21.650   7.482   5.118
23782W        W96042  30.948   6.771  13.883
23783W        W96043  36.782  14.872   0.775
23784W        W96044   2.786  41.933  13.418
23785W        W96045  43.879  38.750   2.801
23786W        W96046  39.281   1.213  11.788
23787W        W96047  11.200  41.740  13.655
23788W        W96048  21.244  22.619  13.790
23789W        W96049  12.279  37.558  11.053
23790W        W96050  18.273  22.693  12.658
23791W        W96051   8.767  14.171  13.054
23792W        W96052   5.736  18.174  14.844
23793W        W96053  39.143  12.982  12.152
23794W        W96054  31.668  33.908   1.873
23795W        W96055  13.805  43.285  11.912
23796W        W96056  39.194  29.692  12.941
23797W        W96057  12.235  23.011  11.674
23798W        W96058  10.335   9.644   0.019
23799W        W96059  44.527   2.200   3.808
23800W        W96060  12.751  36.836   4.083
23801W        W96061  13.036  31.857   2.877
23802W        W96062  19.664  23.949  11.608
23803W        W96063  33.002  17.339   4.608
23804W        W96064  22.754  26.257   5.478
23805W        W96065  26.630   7.632   0.372
23806W        W96066  18.832   0.766   1.443
23807W        W96067  16.089  31.509  12.499
23808W        W96068  38.773   6.631  12.923
23809W        W96069  33.011  39.383   0.050
23810W        W96070  33.794   5.779   4.138
23811W        W96071   8.763  10.541   0.321
23812W        W96072  42.154  13.364   0.635
23813W        W96073  34.532  37.602   4.321
23814W        W96074  26.107  26.075   4.125
23815W        W96075  21.184  19.551  12.823
23816W        W96076   0.255  38.391  14.506
23817W        W96077  17.783  30.583  13.441
23818W        W96078  33.014  31.924  14.279
23819W        W96079  16.023  28.585   1.342
23820W        W96080  16.786   7.298   1.330
23821W        W96081  21.224   4.567   2.174
23822W        W96082   7.634  31.545   2.407
23823W        W96083  31.084   4.017   2.618
23824W        W96084  22.179   9.358  12.533
23825W        W96085  40.383  30.054  10.882
23826W        W96086  36.479  30.715   4.780
23827W        W96087  39.244   2.763  13.867
23828W        W96088  38.808   0.594   4.934
23829W        W96089  13.362  33.471  13.843
23830W        W96090   9.345  36.503  11.118
23831W        W96091  23.815  27.573   1.667
23832W        W96092  24.087  35.969  13.722
23833W        W96093   1.437  41.753   2.841
23834W        W96094   2.465  17.018   2.214
23835W        W96095  39.188  31.310   0.358
23836W        W96096  32.491   1.713  11.215
23837W        W96097  13.663   6.898  14.096
23838W        W96098  31.438   2.849  13.631
23839W        W96099   0.310  41.037   0.367
23840W        W96100  11.467   6.660  10.243
23841W        W96101  44.843  17.324  12.077
23842W        W96102   8.148  32.854  10.708
23843W        W96103  31.755  31.006   0.209
23844W        W96104   3.601  11.239  14.317
23845W        W96105  40.794  39.880  14.804
23846W        W96106  17.622  21.207  11.580
23847W        W96107  10.876   3.129  11.985
23848W        W96108  33.148  11.435  11.038
23849W        W96109  23.631  40.544   2.694
23850W        W96110  18.480  14.609   4.075
23851W        W96111  23.492  29.517  14.010
23852W        W96112   6.882  41.534   2.247
23853W        W96113   5.172  14.262   1.992
23854W        W96114  33.611  20.187   1.319
23855W        W96115   8.420  30.411  12.310
23856W        W96116  14.703  44.110  11.534
23857W        W96117  20.556   5.735  14.539
23858W        W96118  28.002  26.663   1.254
23859W        W96119  30.996  28.136  10.257
23860W        W96120  41.826  24.251  13.346
23861W        W96121   5.754  30.833   2.368
23862W        W96122  41.753  30.902  12.635
23863W        W96123   9.426  40.982  14.232
23864W        W96124  13.450  36.802  11.604
23865W        W96125  21.824  19.100   3.114
23866W        W96126  15.091  28.401  12.505
23867W        W96127   1.873  21.080   0.911
23868W        W96128  27.493  44.008   2.422
23869W        W96129  17.702   8.784   3.896
23870W        W96130  28.216  30.487  11.190
23871W        W96131  25.036  40.596  13.981
23872W        W96132  11.569   1.827   1.853
23873W        W96133  11.135   1.194  11.187
23874W        W96134  20.050  44.483   0.486
23875W        W96135  27.617  14.912   2.924
23876W        W96136   3.866  19.252  12.518
23877W        W96137   1.866   2.708   3.720
23878W        W96138  16.171  26.566  10.211
23879W        W96139  43.383   9.080   2.781
23880W        W96140   0.321   6.737  10.369
23881W        W96141  39.539   2.332  13.713
23882W        W96142  28.972  32.420  11.714
23883W        W96143  30.140  27.132  13.800
23884W        W96144  35.974   3.731  12.181
23885W        W96145  37.441   6.865   0.863
23886W        W96146  24.987  13.709  12.064
23887W        W96147  19.513  12.659  10.939
23888W        W96148  29.699  23.125  13.516
23889W        W96149   2.408  27.483   4.062
23890W        W96150  39.964  20.104  13.763
23891W        W96151   2.241  43.847   2.333
23892W        W96152  22.212   9.242   2.408
23893W        W96153  20.708   9.844  10.405
23894W        W96154  33.181  44.781   1.769
23895W        W96155  17.177   6.108  11.157
23896W        W96156  20.528  14.135   1.642
23897W        W96157  39.021  37.296   0.520
23898W        W96158  12.664  16.884   2.215
23899W        W96159  16.768   7.981   3.592
23900W        W96160  25.177  21.749   0.713
23901W        W96161  28.087   5.168  11.414
23902W        W96162  11.431  33.938  11.013
23903W        W96163  38.564  20.455   3.681
23904W        W96164  43.858  29.671   1.261
23905W        W96165   6.073   6.749  11.070
23906W        W96166  38.859  44.753   1.535
23907W        W96167  12.273  17.456  11.022
23908W        W96168  25.958   0.564   2.540
23909W        W96169  44.257   2.296   2.949
23910W        W96170  20.489  16.664   3.697
23911W        W96171  10.258  43.796  14.366
23912W        W96172  25.678   4.389   2.793
23913W        W96173   8.583  41.366   1.763
23914W        W96174  29.211  30.545  11.146
23915W        W96175  26.127  25.555   1.957
23916W        W96176  18.263  30.434  12.076
23917W        W96177  20.058  28.686  14.381
23918W        W96178  29.914   5.918   3.148
23919W        W96179   8.636  43.720  12.096
23920W        W96180   9.394  15.636  10.903
23921W        W96181  30.720  30.499   1.342
23922W        W96182   7.292  22.785  14.846
23923W        W96183  20.478  40.609   1.748
23924W        W96184   9.855  43.257  14.096
23925W        W96185   6.904  22.034  11.908
23926W        W96186   2.789  17.189   1.832
23927W        W96187  14.161   6.603   4.700
23928W        W96188  22.658   5.390   1.377
23929W        W96189  12.254  29.414  11.521
23930W        W96190  20.807  44.256   0.638
23931W        W96191  17.565  41.342   4.209
23932W        W96192  10.217  21.591  11.620
23933W        W96193   1.308  37.316   3.755
23934W        W96194  42.837  33.314   0.672
23935W        W96195  15.196  22.075   1.448
23936W        W96196   5.327  12.337  12.762
23937W        W96197  21.854   3.940   3.595
23938W        W96198  33.877   9.853  11.180
23939W        W96199  28.925  23.562  14.377
23940W        W96200  21.566  14.144  12.881
23941W        W96201   3.978  27.370   0.261
23942W        W96202   4.881   4.900   2.812
23943W        W96203  33.609   0.875  14.556
23944W        W96204   5.956   0.467  14.306
23945W        W96205   4.263  29.952  12.835
23946W        W96206   9.282  40.911   2.099
23947W        W96207  37.365   9.683   3.923
23948W        W96208   1.341  11.137  10.536
23949W        W96209   1.288  36.148  12.534
23950W        W96210  22.599  17.176  11.710
23951W        W96211  32.392  30.130  14.611
23952W        W96212   8.523  29.021   3.334
23953W        W96213  28.164  21.194   3.070
23954W        W96214   6.227  15.654   3.070
23955W        W96215   6.266   7.174   3.183
23956W        W96216  36.943  43.564   0.971
23957W        W96217  43.138  40.429   0.564
23958W        W96218   1.252  43.205   4.940
23959W        W96219  21.693  16.587  12.205
23960W        W96220  30.692   7.913  13.544
23961W        W96221  21.174  26.633  10.197
23962W        W96222  14.792  13.192  10.547
23963W        W96223  27.897  11.293  11.216
23964W        W96224   7.751  39.608  14.017
23965W        W96225  42.368  37.283   0.754
23966W        W96226  34.999  25.480  12.654
23967W        W96227  33.521  10.924  14.539
23968W        W96228  32.571   9.721   4.514
23969W        W96229  43.801  41.460   2.423
23970W        W96230  44.073  38.653  11.104
23971W        W96231  42.386  15.313  11.631
23972W        W96232  37.589  24.013  14.945
23973W        W96233  44.863   0.426  13.009
23974W        W96234   8.208   5.212   0.801
23975W        W96235   0.162  18.275  14.927
23976W        W96236  38.311   8.374  11.162
23977W        W96237  40.391   4.902  12.313
23978W        W96238  32.521  25.684  14.453
23979W        W96239  30.991  42.270  11.969
23980W        W96240  21.852  11.059   1.792
23981W        W96241  36.958   2.647  12.076
23982W        W96242  38.126  32.061  12.080
23983W        W96243   8.512  32.520  13.989
23984W        W96244  34.812   5.615   4.041
23985W        W96245  25.718  36.893   0.388
23986W        W96246  12.403  10.846  12.332
23987W        W96247  13.204  43.926  10.782
23988W        W96248  15.300  39.881  10.652
23989W        W96249  34.291  19.624  13.595
23990W        W96250  42.863  30.832   3.834
23991W        W96251  15.785  17.735  12.441
23992W        W96252  36.580   9.743   1.761
23993W        W96253  21.084  34.453  13.310
23994W        W96254  10.358  13.820  14.267
23995W        W96255  17.254  27.983   4.454
23996W        W96256  39.509  28.171  10.928
23997W        W96257   6.474  30.920   3.734
23998W        W96258  21.902  14.780  12.235
23999W        W96259  40.619  33.927  14.920
24000W        W96260  41.888   4.290   2.955
24001W        W96261  18.250  39.979   2.609
24002W        W96262  21.657  29.899  10.704
24003W        W96263  22.202   3.211   2.363
24004W        W96264  35.646  11.912  11.761
24005W        W96265  21.934  44.311  13.059
24006W        W96266   5.744  38.027   3.279
24007W        W96267  35.284   5.913  11.357
24008W        W96268  31.784  30.901  10.319
24009W        W96269  24.531  25.215   4.595
24010W        W96270  13.378   1.184   2.804
24011W        W96271  23.511  16.871  11.937
24012W        W96272  10.067  39.847   3.748
24013W        W96273  10.484  40.194  13.053
24014W        W96274   6.728  43.967   2.793
24015W        W96275   8.426  31.816  14.982
24016W        W96276  37.875  39.935  12.468
24017W        W96277   7.840  18.291   1.490
24018W        W96278  40.435   1.448  12.444
24019W        W96279  18.569  16.661  10.746
24020W        W96280  32.176  42.982  12.364
24021W        W96281  21.163  37.605  11.949
24022W        W96282  10.614   9.791  10.838
24023W        W96283   3.131   9.271   3.240
24024W        W96284  27.940  19.030  11.026
24025W        W96285  44.388  27.022  10.872
24026W        W96286  34.506  42.370   1.210
24027W        W96287  39.921  15.947   2.334
24028W        W96288  11.383  36.776   2.677
24029W        W96289   7.350  31.138   2.180
24030W        W96290  33.038  28.166   1.012
24031W        W96291   5.297  31.371   3.912
24032W        W96292  18.491  31.184   3.704
24033W        W96293  26.411  25.632  14.458
24034W        W96294  34.887   0.757  13.817
24035W        W96295   9.601  28.668  12.553
24036W        W96296  42.090   9.811  12.043
24037W        W96297  43.268  14.841  14.719
24038W        W96298   1.411  16.630   4.059
24039W        W96299  25.991  23.178  10.778
24040W        W96300   1.514  33.217   2.966
24041W        W96301  31.746  38.499  12.913
24042W        W96302  43.621  20.626   4.549
24043W        W96303  13.626  25.011  11.135
24044W        W96304  14.383  13.396  11.841
24045W        W96305  10.290  15.023   4.577
24046W        W96306  38.309  38.075   0.407
24047W        W96307  18.633   3.251  10.699
24048W        W96308  38.533  44.701   4.848
24049W        W96309  17.260  25.428  14.454
24050W        W96310  41.486  29.115  11.608
24051W        W96311   9.701  22.310  14.373
24052W        W96312   9.661  22.428   4.197
24053W        W96313  24.995  28.615  13.228
24054W        W96314  41.345  19.504  13.923
24055W        W96315  20.951  14.300  11.525
24056W        W96316   0.544  36.543   0.076
24057W        W96317  15.915  19.354   5.016
24058W        W96318  10.726  31.121  13.452
24059W        W96319  30.085  24.751  13.366
24060W        W96320  37.869  13.644   0.522
24061W        W96321   4.376  38.097  14.319
24062W        W96322  41.393   5.420  12.125
24063W        W96323  42.701  16.240   0.949
24064W        W96324  19.661  36.822   1.375
24065W        W96325   6.308  35.555   4.483
24066W        W96326  22.968  40.933   1.335
24067W        W96327  36.274  36.347   3.751
24068W        W96328  26.076   5.873   1.170
24069W        W96329  23.636   6.452   4.423
24070W        W96330  15.275  21.165   2.756
24071W        W96331  31.496  38.464  14.220
24072W        W96332  18.339  16.781  12.062
24073W        W96333  17.105  29.817  12.887
24074W        W96334  30.691  28.269   5.020
24075W        W96335  43.449  12.044  11.576
24076W        W96336  28.590  14.520  13.430
24077W        W96337   2.496  29.481  11.108
24078W        W96338   1.788  20.309   1.745
24079W        W96339  10.509  28.577   0.792
24080W        W96340  17.320  30.368  13.420
24081W        W96341  28.773  39.517  12.624
24082W        W96342  18.298  31.097  14.995
24083W        W96343   8.450  22.117   1.139
24084W        W96344   3.459  42.278  11.543
24085W        W96345   5.157  40.164  11.635
24086W        W96346  20.810   0.862  14.981
24087W        W96347  18.023  39.079   2.891
24088W        W96348   8.128  23.050   4.083
24089W        W96349  30.443  42.025   2.681
24090W        W96350  10.367  36.083  14.804
24091W        W96351  37.322  39.184  11.539
24092W        W96352  30.567  15.338  14.339
24093W        W96353  28.179  13.195  14.458
24094W        W96354  27.253  26.957   0.009
24095W        W96355  25.405  19.983  11.117
24096W        W96356  41.863  40.514  14.084
24097W        W96357  27.003  38.569  14.909
24098W        W96358   3.086  13.638   1.375
24099W        W96359  13.995  39.502   1.304
24100W        W96360  43.646  24.314  11.616
24101W        W96361  44.669  13.971  10.447
24102W        W96362   6.708  31.524   0.753
24103W        W96363  14.129  21.027   4.194
24104W        W96364  21.599  42.560  14.347
24105W        W96365  19.730  28.417   3.289
24106W        W96366  34.818  27.679  14.959
24107W        W96367   6.685  33.917   0.251
24108W        W96368  36.605  31.888  13.871
24109W        W96369   6.698   9.613   2.744
24110W        W96370  40.120  44.795  14.768
24111W        W96371  42.126  11.858  11.304
24112W        W96372  34.147  37.561   1.257
24113W        W96373   5.684  29.168   1.135
24114W        W96374  14.137  20.761   1.924
24115W        W96375  11.655  26.031   3.229
24116W        W96376   5.300  42.254   0.823
24117W        W96377  20.679   7.682   2.216
24118W        W96378  24.653  11.761  14.566
24119W        W96379  17.709  44.463  14.332
24120W        W96380  37.806  43.858   3.334
24121W        W96381  32.185  32.403  10.884
24122W        W96382   0.392   2.741   3.933
24123W        W96383  32.730  38.382   3.546
24124W        W96384  37.003  10.199   1.364
24125W        W96385  40.354  18.817   2.903
24126W        W96386  37.766  42.512   1.740
24127W        W96387  21.271  15.658   3.144
24128W        W96388   1.054  42.098   2.786
24129W        W96389  31.555   0.937  13.117
24130W        W96390  31.454  23.535   3.283
24131W        W96391  42.432  28.202  13.299
24132W        W96392  21.865  43.582   2.306
24133W        W96393  37.466  31.629   0.009
24134W        W96394  34.352   5.835  12.730
24135W        W96395  34.815  21.758  13.789
24136W        W96396  29.701   6.254  12.872
24137W        W96397  23.533  42.455   0.872
24138W        W96398  29.552  20.785  10.742
24139W        W96399   6.299   4.436  13.463
24140W        W96400  26.516   5.297  11.868
24141W        W96401  36.991   7.364  11.218
24142W        W96402  20.184  29.932   1.664
24143W        W96403  34.442   3.937   4.537
24144W        W96404  10.071  44.117   1.116
24145W        W96405  26.790  26.082   0.771
24146W        W96406  39.801  12.227   3.198
24147W        W96407  13.156  40.298  12.555
24148W        W96408  27.254  32.061   2.345
24149W        W96409   8.258   7.387   0.755
24150W        W96410  25.011  29.869  12.674
24151W        W96411  32.012   7.957   2.611
24152W        W96412   4.755   4.607   3.763
24153W        W96413  16.891  35.816  10.526
24154W        W96414   5.359  22.259  13.180
24155W        W96415  28.050  11.938   4.047
24156W        W96416  36.895  28.559   2.110
24157W        W96417  22.014  33.709   1.565
24158W        W96418  33.047  44.939  14.433
24159W        W96419  29.314  33.058   0.419
24160W        W96420  11.581  42.628  13.937
24161W        W96421   5.521  27.168  11.948
24162W        W96422  34.561  27.055   2.845
24163W        W96423   4.477  42.982  11.408
24164W        W96424  33.721  32.359  10.926
24165W        W96425  38.018  36.322  12.545
24166W        W96426  18.272  30.946   1.498
24167W        W96427  40.258  44.715   3.611
24168W        W96428  10.697  43.808   3.750
24169W        W96429   8.816  24.417  13.279
24170W        W96430  15.588   7.051   4.984
24171W        W96431  41.436  41.964   1.388
24172W        W96432  34.765  36.042  11.517
24173W        W96433  37.453  25.354  12.114
24174W        W96434  43.289  26.805  14.378
24175W        W96435  32.175  12.807   4.894
24176W        W96436  14.138  29.888   0.071
24177W        W96437  21.121  35.147   1.763
24178W        W96438  16.492  32.931   3.727
24179W        W96439  40.446   3.821  14.289
24180W        W96440   6.793  27.745  12.302
24181W        W96441  24.049  34.383  11.059
24182W        W96442  14.115  12.068  13.916
24183W        W96443   2.293  28.032  14.796
24184W        W96444  27.102  11.828   3.792
24185W        W96445  42.841  40.250   4.540
24186W        W96446   5.189  36.150  13.049
24187W        W96447  44.166  42.500  11.139
24188W        W96448  41.500  40.917   2.599
24189W        W96449  14.854  17.654   0.039
24190W        W96450  39.761  27.010  10.721
24191W        W96451   8.798  32.577   4.174
24192W        W96452   3.193   8.602   1.755
24193W        W96453   3.018  27.285  11.572
24194W        W96454  20.017  17.611   3.585
24195W        W96455  24.785  39.695  12.180
24196W        W96456   7.111  42.646  13.056
24197W        W96457  30.028  22.838   1.409
24198W        W96458  11.921  28.114   4.955
24199W        W96459  28.923  44.777   0.193
24200W        W96460  15.125   3.826  11.318
24201W        W96461  21.833  40.796   0.723
24202W        W96462  40.904  42.586  14.035
24203W        W96463  44.797  38.168  12.601
24204W        W96464  44.085   9.677  11.417
24205W        W96465  26.101   9.516   2.997
24206W        W96466  21.602  16.572  14.547
24207W        W96467  30.018  13.040   3.206
24208W        W96468  44.934  12.195   0.644
24209W        W96469  12.170  21.009   3.193
24210W        W96470  42.288  15.316   1.887
24211W        W96471  22.392  14.990   2.854
24212W        W96472   4.736  37.055  13.611
24213W        W96473  16.316  44.477   3.904
24214W        W96474   8.008  28.987   3.288
24215W        W96475   4.109   3.285  11.243
24216W        W96476  14.749  35.008   3.879
24217W        W96477   1.915  39.414  13.727
24218W        W96478  42.325   0.054   4.383
24219W        W96479  36.409  17.133   4.771
24220W        W96480   6.987   5.470  14.012
24221W        W96481  14.258  32.210  12.709
24222W        W96482  17.872  44.497  10.117
24223W        W96483  32.074  15.801   1.404
24224W        W96484  35.412  20.579  10.655
24225W        W96485   4.557  11.598  13.580
24226W        W96486  32.040  17.755   4.995
24227W        W96487   6.943  21.106   0.728
24228W        W96488  36.849   2.062   0.885
24229W        W96489  35.748  17.404  11.096
24230W        W96490  39.812  39.365  14.187
24231W        W96491  40.503  40.703  13.390
24232W        W96492   1.005  39.840  12.156
24233W        W96493   1.399  19.226  13.517
24234W        W96494   1.237  20.174   2.995
24235W        W96495  36.404  27.070   2.837
24236W        W96496  18.020  12.169   4.372
24237W        W96497  32.152  15.727  14.074
24238W        W96498  26.391  44.618  12.431
24239W        W96499  34.395  27.457  14.491
24240W        W96500  22.638  16.697  12.996
24241W        W96501   4.483   9.897   3.757
24242W        W96502  40.492  27.647  12.520
24243W        W96503  30.973  30.793   3.201
24244W        W96504  39.541  30.557   1.713
24245W        W96505  15.467   0.937  12.086
24246W        W96506   3.253  34.325  12.277
24247W        W96507  19.166  22.129  12.191
24248W        W96508   6.825  34.021  11.179
24249W        W96509   9.934  30.581   3.609
24250W        W96510  35.798  25.749  11.550
24251W        W96511  22.649  28.829  10.178
24252W        W96512   3.594  32.343  11.501
24253W        W96513   4.873  20.088   1.794
24254W        W96514  32.437  43.457   3.996
24255W        W96515  21.199   9.274   2.348
24256W        W96516  12.239   3.184   3.656
24257W        W96517  34.456  43.576   4.782
24258W        W96518  14.175  15.528   4.607
24259W        W96519  17.717  24.455  12.521
24260W        W96520   1.339  44.167  12.840
24261W        W96521   8.667  44.494   3.940
24262W        W96522  38.616  12.187   4.927
24263W        W96523  45.000  14.027   4.420
24264W        W96524  23.202  25.974   5.485
24265W        W96525  39.501  12.172   0.813
24266W        W96526  30.198  18.399   2.574
24267W        W96527  21.093   6.680   1.294
24268W        W96528   4.800   6.735   1.904
24269W        W96529  34.009   3.736  11.974
24270W        W96530  31.073  26.745  13.963
24271W        W96531  34.340  30.380  11.205
24272W        W96532   0.941  38.945  10.163
24273W        W96533   4.211  40.989   3.205
24274W        W96534  42.027  37.853  13.858
24275W        W96535   5.005  19.568  12.035
24276W        W96536  23.605  31.408   4.526
24277W        W96537  21.612  12.285  12.560
24278W        W96538   5.833  38.357  13.394
24279W        W96539  12.451  36.014   0.649
24280W        W96540  27.871   6.107   2.269
24281W        W96541  36.825  13.145  14.995
24282W        W96542  41.012   9.753  13.740
24283W        W96543  11.622  23.116   2.299
24284W        W96544  24.954  35.848   0.565
24285W        W96545  26.081  16.123   2.688
24286W        W96546  35.940   6.921  13.583
24287W        W96547  17.961   0.378   3.695
24288W        W96548   0.671  33.336  13.093
24289W        W96549   1.009  43.345   0.319
24290W        W96550  11.211  17.151  11.561
24291W        W96551  19.152  10.962   2.395
24292W        W96552  36.306  29.144  13.300
24293W        W96553   6.861  18.650  11.153
24294W        W96554  20.603  20.577  11.460
24295W        W96555   0.194  13.506   0.282
24296W        W96556  15.706  33.610   0.421
24297W        W96557  10.571  43.463  11.633
24298W        W96558  29.924  30.740  11.515
24299W        W96559  40.360   5.587   2.731
24300W        W96560  16.480  16.600   0.828
24301W        W96561  41.300  29.925   0.541
24302W        W96562  24.535  40.090   4.567
24303W        W96563   3.652  44.551   2.284
24304W        W96564  24.005   5.405   2.990
24305W        W96565  14.560  10.481   2.447
24306W        W96566  11.714  37.347  13.438
24307W        W96567  29.075   7.242   3.454
24308W        W96568  23.276  11.940  11.079
24309W        W96569  23.657   6.686   2.459
24310W        W96570  11.792  29.396   0.414
24311W        W96571  42.592  24.043  12.246
24312W        W96572  12.063   3.653   4.099
24313W        W96573  31.078  33.955   2.676
24314W        W96574   0.068   4.287  12.456
24315W        W96575  12.878  40.840  12.012
24316W        W96576  36.518  33.035   1.402
24317W        W96577  11.581   4.873  12.046
24318W        W96578  10.657  10.148  13.471
24319W        W96579  43.296  16.699  11.147
24320W        W96580  20.203   8.019  10.201
24321W        W96581   0.221  26.497  11.337
24322W        W96582  12.589  36.540  13.533
24323W        W96583   7.143  34.597  12.680
24324W        W96584  20.780  20.150  14.877
24325W        W96585  43.814  42.145   0.299
24326W        W96586   2.527  15.177  11.934
24327W        W96587  13.773  36.919  12.043
24328W        W96588   3.781  42.264   1.329
24329W        W96589   5.956  31.366  13.867
24330W        W96590  39.061  10.220   3.120
24331W        W96591   6.806  14.853   0.171
24332W        W96592  18.279  29.464  10.680
24333W        W96593   9.727  25.476  14.960
24334W        W96594  38.897   7.683  10.911
24335W        W96595  29.278  12.889  10.945
24336W        W96596  41.594  42.559   4.096
24337W        W96597  37.475  34.339  13.346
24338W        W96598  41.951   3.371  14.312
24339W        W96599  16.343   8.184  13.982
24340W        W96600  26.169  11.637   4.882
24341W        W96601  29.641  29.701  12.861
24342W        W96602   1.516  20.038   1.374
24343W        W96603  39.481  41.971   1.459
24344W        W96604   1.507  16.638  12.140
24345W        W96605   0.034  15.755   0.732
24346W        W96606  23.576  36.909  10.946
24347W        W96607   0.316  14.174  14.301
24348W        W96608   6.371  23.039   1.219
24349W        W96609   1.873  44.245   2.233
24350W        W96610  37.948  27.135   1.880
24351W        W96611  15.524  10.650   1.320
24352W        W96612   7.798  14.401   0.748
24353W        W96613  10.131  16.809   3.767
24354W        W96614  25.060  13.335   0.329
24355W        W96615  44.269  16.223  12.620
24356W        W96616  36.959  12.386  12.425
24357W        W96617  28.186   7.041  14.009
24358W        W96618  36.022   6.265  10.991
24359W        W96619  39.922  10.476   3.711
24360W        W96620   9.051  41.233  12.175
24361W        W96621  31.831  24.522  14.999
24362W        W96622  26.216  37.394   3.754
24363W        W96623  33.538  38.439  12.719
24364W        W96624  15.044  29.360   0.236
24365W        W96625   5.138   6.755   2.286
24366W        W96626  10.284  34.922  14.924
24367W        W96627  12.198  27.471   3.781
24368W        W96628   7.141  10.730  12.144
24369W        W96629  44.887  11.393   3.078
24370W        W96630  38.506  16.127  11.647
24371W        W96631  32.162   8.144  13.495
24372W        W96632  28.694  21.252  12.564
24373W        W96633  20.459  32.955   0.645
24374W        W96634   3.864  44.374  11.797
24375W        W96635  39.988   0.507   1.360
24376W        W96636  27.706  26.111  14.027
24377W        W96637  10.463  12.858  10.764
24378W        W96638  19.177  33.666   3.099
24379W        W96639  25.892  28.477  12.027
24380W        W96640  41.115   3.364   4.606
24381W        W96641   9.137   1.378  12.104
24382W        W96642  35.375  41.744  14.046
24383W        W96643  37.561  24.863  12.017
24384W        W96644  34.371   7.868   4.550
24385W        W96645  44.865  42.465   4.195
24386W        W96646  38.305  41.374   1.793
24387W        W96647  34.444  22.609  14.475
24388W        W96648  35.750   0.207  14.252
24389W        W96649  40.933  15.607   3.669
24390W        W96650  33.571  26.661  13.365
24391W        W96651  38.012  31.921   2.199
24392W        W96652   3.696  19.115  13.977
24393W        W96653   3.473  15.966  14.910
24394W        W96654  40.821  30.468  12.024
24395W        W96655  10.271  30.589  12.424
24396W        W96656  44.163   6.272  14.274
24397W        W96657  20.674  11.475   4.813
24398W        W96658   3.357  22.702   2.924
24399W        W96659  18.230  28.049  11.042
24400W        W96660  36.104   3.604   3.886
24401W        W96661   8.801  18.796  13.027
24402W        W96662  36.321  36.517   2.847
24403W        W96663  28.518  31.980  14.388
24404W        W96664  17.635  30.172  14.755
24405W        W96665   0.882  13.583   4.200
24406W        W96666   4.231  10.947  14.302
24407W        W96667  18.109   3.775   0.370
24408W        W96668   1.049  33.671   3.661
24409W        W96669   1.284  43.468  10.781
24410W        W96670  33.034   2.524   3.320
24411W        W96671  40.554  39.453  13.099
24412W        W96672  23.298  37.441   1.697
24413W        W96673  19.118  27.244   3.216
24414W        W96674  34.099  20.894  14.025
24415W        W96675  41.424  27.893   4.384
24416W        W96676  20.824  27.419  11.106
24417W        W96677  28.483  17.743   3.713
24418W        W96678   7.219   4.706   3.694
24419W        W96679   7.647   0.067   1.269
24420W        W96680  34.169  15.698   1.859
24421W        W96681  41.910  14.802  14.306
24422W        W96682  42.908   0.909  13.881
24423W        W96683  24.904  17.712   3.335
24424W        W96684  18.277  30.417   3.702
24425W        W96685  23.626  36.040   1.759
24426W        W96686  11.738  42.328   0.860
24427W        W96687  24.576   1.244  11.884
24428W        W96688  43.051  32.418  11.215
24429W        W96689   5.890  25.995   5.567
24430W        W96690  12.770  26.944   1.361
24431W        W96691  41.460  32.455   0.951
24432W        W96692   6.217  16.173  12.463
24433W        W96693  23.585  25.437  11.437
24434W        W96694  33.833  34.467   0.588
24435W        W96695  29.144  13.371   2.810
24436W        W96696  10.160  34.475  11.012
24437W        W96697  43.392  25.632  14.315
24438W        W96698  42.872  22.105   4.733
24439W        W96699   5.614  10.847  12.491
24440W        W96700  38.938  16.158  14.577
24441W        W96701  34.471   6.270   2.832
24442W        W96702  24.100   6.775  11.621
24443W        W96703  15.330   8.901   3.671
24444W        W96704  36.710  42.016  12.835
24445W        W96705  13.215   6.019   3.762
24446W        W96706  31.929  34.018   4.130
24447W        W96707  35.998   9.235  13.928
24448W        W96708  18.346  42.428   4.228
24449W        W96709  44.889   5.196   1.026
24450W        W96710  37.592   9.274   4.646
24451W        W96711  19.339   2.966  13.474
24452W        W96712   4.833  24.453  13.813
24453W        W96713  38.603  42.776  14.906
24454W        W96714  11.588  27.406   1.590
24455W        W96715  17.376   6.644   2.125
24456W        W96716  20.313  38.941   2.819
24457W        W96717  40.721   0.406  13.371
24458W        W96718  38.530  14.834   2.271
24459W        W96719  44.499  41.342  14.584
24460W        W96720  43.518  32.738  14.623
24461W        W96721  35.185  11.747   1.068
24462W        W96722  24.555  25.830   2.942
24463W        W96723  32.519  38.106  13.904
24464W        W96724  22.214  35.497   1.521
24465W        W96725   8.324  20.596   4.101
24466W        W96726  11.147   2.142  12.146
24467W        W96727  31.356  40.949   4.774
24468W        W96728  28.545  42.531   4.805
24469W        W96729  22.329  18.283   4.110
24470W        W96730  29.036  25.602   4.548
24471W        W96731   1.492  30.505  12.372
24472W        W96732   9.121  37.313  13.879
24473W        W96733  26.375  30.564   4.231
24474W        W96734   6.779   3.444  10.753
24475W        W96735  14.125  27.967  13.978
24476W        W96736  13.478  30.041   4.199
24477W        W96737   7.271  32.627   0.443
24478W        W96738  32.820   7.261   3.149
24479W        W96739   8.387  18.152   0.919
24480W        W96740  18.456  23.273  13.496
24481W        W96741   9.437   8.118   2.794
24482W        W96742  23.283   9.657   2.290
24483W        W96743  25.957   2.430  11.564
24484W        W96744  44.239  18.715   0.476
24485W        W96745   1.813   9.331   2.380
24486W        W96746  38.156  17.706   0.780
24487W        W96747  41.691  25.256  12.328
24488W        W96748  36.120  44.294  14.264
24489W        W96749  10.603  36.884   3.828
24490W        W96750  37.972  38.327  14.321
24491W        W96751  18.182  44.009   3.305
24492W        W96752  44.071   0.522   1.044
24493W        W96753  29.483  41.290   4.974
24494W        W96754   8.548  33.674   2.828
24495W        W96755  23.239  42.012  12.374
24496W        W96756  31.791  31.564  12.263
24497W        W96757   8.184  31.455  11.094
24498W        W96758  17.040  33.991  12.554
24499W        W96759  30.862  31.329  12.106
24500W        W96760  36.877  17.143  13.647
24501W        W96761  43.979   6.531  11.569
24502W        W96762  28.481  17.103  11.532
24503W        W96763  23.522   3.852  14.314
24504W        W96764  32.893  32.498   3.808
24505W        W96765  17.986   2.249  12.877
24506W        W96766  27.515   6.481   3.715
24507W        W96767   5.884  34.366   4.978
24508W        W96768  13.687  14.252  12.790
24509W        W96769  15.084  21.477   2.341
24510W        W96770  36.534  31.382  13.920
24511W        W96771  18.122  39.091   4.520
24512W        W96772   9.629  11.388   4.024
24513W        W96773  28.591  11.719  13.594
24514W        W96774  43.538   7.225   4.120
24515W        W96775  44.820   2.368  10.732
24516W        W96776  22.784   2.816   3.643
24517W        W96777  42.817  31.581  11.643
24518W        W96778  33.459  20.951   3.334
24519W        W96779  25.906  12.877   4.857
24520W        W96780  19.735   6.772  12.276
24521W        W96781  21.667  24.086   2.409
24522W        W96782  10.460  27.409  13.997
24523W        W96783  12.282  41.316   4.207
24524W        W96784  43.547  42.558  12.089
24525W        W96785  15.895  40.495   5.145
24526W        W96786  18.307  12.442  13.731
24527W        W96787  30.811  34.731  13.800
24528W        W96788  13.351  10.312   2.751
24529W        W96789  12.375  28.260   9.753
24530W        W96790  32.623  39.209   2.289
24531W        W96791  24.449  26.677   3.129
24532W        W96792  11.583  20.556   0.202
24533W        W96793   0.746  39.381   0.033
24534W        W96794  20.296   1.776  12.603
24535W        W96795   5.237  13.189   0.930
24536W        W96796   0.008  22.749   4.671
24537W        W96797  17.177  22.720  10.726
24538W        W96798  40.414  13.204  13.938
24539W        W96799   5.694   5.274   2.995
24540W        W96800  12.117   8.700   2.002
24541W        W96801   1.119  41.327   1.889
24542W        W96802  38.867  20.693  12.050
24543W        W96803  34.292  15.304  12.027
24544W        W96804   1.735  31.728  13.034
24545W        W96805  28.736  20.583  11.015
24546W        W96806  35.974  43.265  13.616
24547W        W96807   5.948  20.581  11.027
24548W        W96808  19.138   3.731  12.056
24549W        W96809  18.761  18.046   3.200
24550W        W96810  41.194  31.579  12.985
24551W        W96811  14.642  11.411  13.050
24552W        W96812  23.751  12.233   2.415
24553W        W96813   9.404  17.041   0.502
24554W        W96814  41.833  21.644   2.385
24555W        W96815   8.963   8.054   2.604
24556W        W96816  44.273  31.447   0.047
24557W        W96817  39.232  10.591  11.857
24558W        W96818   9.425  18.539  11.483
24559W        W96819  25.921  22.804   3.760
24560W        W96820   5.415  40.386  12.056
24561W        W96821  11.686  33.983  10.530
24562W        W96822  12.633  32.263  12.166
24563W        W96823   1.256  23.773   2.470
24564W        W96824  30.749  44.686   4.878
24565W        W96825   0.503  44.367  11.046
24566W        W96826  42.360  11.078  12.972
24567W        W96827  23.429   5.463   1.812
24568W        W96828  38.928  28.595   1.386
24569W        W96829  42.226  36.929  14.005
24570W        W96830  21.513  28.662  12.083
24571W        W96831  40.882  13.853  12.139
24572W        W96832  39.524   6.855   4.545
24573W        W96833   5.313   4.855   4.582
24574W        W96834  44.230  43.554   1.204
24575W        W96835   8.043   9.597   2.200
24576W        W96836  44.764  29.188  13.930
24577W        W96837  23.680   5.158   3.292
24578W        W96838  21.017  24.104  14.338
24579W        W96839   3.995  17.877  12.868
24580W        W96840  21.791  23.931  12.930
24581W        W96841  18.267  24.315  14.386
24582W        W96842  13.510  20.678   3.345
24583W        W96843  26.529  11.356  10.687
24584W        W96844  43.555  25.987  13.439
24585W        W96845  26.945   6.731  14.458
24586W        W96846  23.686  20.809   0.582
24587W        W96847   6.839  20.617   0.895
24588W        W96848   1.046  35.724   0.447
24589W        W96849   2.696  41.350   2.251
24590W        W96850  27.684  15.824   2.878
24591W        W96851  30.013  39.853  12.775
24592W        W96852  14.138  33.687   3.248
24593W        W96853  40.872  26.505  11.666
24594W        W96854  32.986  14.610   3.112
24595W        W96855  19.487  42.102   3.641
24596W        W96856  36.044  42.711   2.780
24597W        W96857   3.030  43.947   1.902
24598W        W96858  27.956  32.978   3.986
24599W        W96859  15.613  30.974  14.907
24600W        W96860  12.706  33.852   0.336
24601W        W96861  42.020  31.044   3.393
24602W        W96862  28.542  43.377   4.044
24603W        W96863  10.755  38.838  11.500
24604W        W96864  13.439  42.740   0.055
24605W        W96865  19.594  37.291  12.515
24606W        W96866  31.208  25.966  11.645
24607W        W96867   5.733  14.746   2.253
24608W        W96868  12.223  35.926  14.683
24609W        W96869  15.657  29.425   1.075
24610W        W96870  25.881  22.830   0.243
24611W        W96871  35.957  12.103   0.685
24612W        W96872  33.022  12.839   2.758
24613W        W96873   5.717  26.078  13.493
24614W        W96874  14.038  23.237  12.130
24615W        W96875  13.318  14.073   1.428
24616W        W96876  20.503  12.766   3.066
24617W        W96877  17.284  37.434  11.065
24618W        W96878   8.883   5.810   0.039
24619W        W96879   5.897   1.711   2.199
24620W        W96880  36.317  42.809   4.531
24621W        W96881  32.117  18.118  11.596
24622W        W96882  43.943   5.832   1.726
24623W        W96883  19.677  31.024   1.912
24624W        W96884  34.482  32.019   3.166
24625W        W96885   2.980  35.821   0.812
24626W        W96886  27.461  43.383  12.439
24627W        W96887  20.267   8.487   3.346
24628W        W96888   0.995  19.789   9.823
24629W        W96889  30.144  17.750  13.273
24630W        W96890  33.186  19.149  13.308
24631W        W96891  36.006  14.628  12.950
24632W        W96892  16.310  30.113   0.039
24633W        W96893  17.048  23.766   0.754
24634W        W96894  37.400  27.545   2.446
24635W        W96895   2.205  27.649   1.293
24636W        W96896   2.845  37.206   2.631
24637W        W96897  28.566  21.627   2.483
24638W        W96898  28.378  11.148   1.747
24639W        W96899  32.186  28.175  10.509
24640W        W96900  30.941  21.330   1.409
24641W        W96901  25.253  14.228  10.676
24642W        W96902  27.428  15.911  14.372
24643W        W96903  36.495  44.436   1.309
24644W        W96904  25.301  33.155  12.657
24645W        W96905  23.003  11.705  14.877
24646W        W96906  23.482  20.793   2.811
24647W        W96907  12.696  14.208  14.878
24648W        W96908  32.465   5.999  14.012
24649W        W96909  43.845   3.451   2.620
24650W        W96910  22.996   4.564  10.129
24651W        W96911  37.424  23.017   1.162
24652W        W96912  29.108  36.868   0.414
24653W        W96913  13.585  14.820   4.578
24654W        W96914   4.386  32.439   0.774
24655W        W96915   9.860  19.985   0.427
24656W        W96916  33.361  23.495  14.100
24657W        W96917   8.210  43.931   2.297
24658W        W96918  24.585  39.817  10.729
24659W        W96919  27.489  33.141   3.798
24660W        W96920  41.843  44.040  13.802
24661W        W96921  26.999  28.636   1.442
24662W        W96922   6.667  11.672   4.532
24663W        W96923  39.691  10.409  12.024
24664W        W96924  28.640  35.932  14.509
24665W        W96925  13.605  12.177   1.332
24666W        W96926  22.116  35.661   1.028
24667W        W96927  15.248  10.927  11.598
24668W        W96928  35.362  14.494  11.952
24669W        W96929  28.133  26.533   5.013
24670W        W96930  23.107  22.009  11.493
24671W        W96931  12.127  36.439  11.583
24672W        W96932  15.434  26.985   0.504
24673W        W96933  13.355  40.609   2.254
24674W        W96934  38.476   1.917   3.226
24675W        W96935   9.966  38.041  13.422
24676W        W96936  19.613  44.918   4.152
24677W        W96937  25.070  30.476  11.470
24678W        W96938  35.036  35.485  13.937
24679W        W96939   8.626  37.887   3.203
24680W        W96940  37.307  24.748   1.833
24681W        W96941  37.968  34.364   0.021
24682W        W96942   6.477  25.535   1.464
24683W        W96943  12.029   6.004  10.801
24684W        W96944  18.501  44.361  10.025
24685W        W96945  27.099   1.659   4.598
24686W        W96946   3.885  18.607  13.872
24687W        W96947  32.776  39.780   3.624
24688W        W96948  42.343  16.153   4.107
24689W        W96949  25.049  39.525  11.193
24690W        W96950  34.219   3.383  10.445
24691W        W96951   9.298  11.786  14.026
24692W        W96952   5.261  13.621  14.900
24693W        W96953   0.922  37.489   1.572
24694W        W96954   5.743  17.682   0.394
24695W        W96955  18.279  21.971  14.400
24696W        W96956  15.570   1.394   2.585
24697W        W96957  33.359   9.300  12.277
24698W        W96958  34.799  16.109   1.140
24699W        W96959  41.477  34.874   0.459
24700W        W96960  43.315  18.828  10.319
24701W        W96961   7.869   9.230  11.229
24702W        W96962  20.064  27.666  11.008
24703W        W96963  41.848   8.095   0.010
24704W        W96964  31.155  15.255  11.584
24705W        W96965  13.524  12.246   4.038
24706W        W96966  18.312  34.521   4.672
24707W        W96967  18.903  24.479  10.818
24708W        W96968  42.988  25.958  14.393
24709W        W96969   3.836   3.648   4.071
24710W        W96970  31.568  15.489   1.977
24711W        W96971  19.786  20.484   2.345
24712W        W96972  22.764  33.480  11.521
24713W        W96973  19.327  18.679  10.780
24714W        W96974  15.716  22.542   3.774
24715W        W96975  44.207  42.852   2.774
24716W        W96976  24.614  27.533   1.384
24717W        W96977   5.813   4.478  10.659
24718W        W96978  19.007  22.667   2.210
24719W        W96979  44.743   2.792   4.596
24720W        W96980  33.643  17.430   0.854
24721W        W96981  32.867  44.283   4.228
24722W        W96982   6.351  18.481  11.012
24723W        W96983   9.746  30.871  13.363
24724W        W96984  34.086  25.430  12.412
24725W        W96985  40.196  40.730   4.232
24726W        W96986  31.049   6.839   3.602
24727W        W96987  30.440   2.506   3.879
24728W        W96988  17.415  27.449   0.957
24729W        W96989  18.035   7.161  11.251
24730W        W96990  33.512   5.692   3.705
24731W        W96991  28.941  21.279   2.471
24732W        W96992  22.954  23.488   3.506
24733W        W96993  20.842  39.347   3.423
24734W        W96994   7.039   2.316   1.817
24735W        W96995  29.521  18.676   2.506
24736W        W96996  24.933  24.467  12.280
24737W        W96997   0.969  22.269  11.582
24738W        W96998  24.825  19.196   1.461
24739W        W96999  40.014  27.135   4.906
24740W        W97000  34.158  10.818   1.303
24741W        W97001  37.765  23.040   2.915
24742W        W97002   4.341  34.865   2.315
24743W        W97003  27.694  38.844  10.921
24744W        W97004  13.610   8.283   0.219
24745W        W97005  32.612   2.440  14.231
24746W        W97006   8.255  42.435  14.452
24747W        W97007  26.199   9.001   3.034
24748W        W97008   4.170  27.970   9.920
24749W        W97009  37.642  15.634  11.371
24750W        W97010  43.199   9.114  10.631
24751W        W97011   5.744  13.188  12.057
24752W        W97012  18.628   5.856   2.910
24753W        W97013  44.000  36.580   2.269
24754W        W97014  19.617  38.346  14.538
24755W        W97015   8.234   7.927  14.476
24756W        W97016   9.445  35.082   0.375
24757W        W97017  32.014   9.291   3.755
24758W        W97018  31.055   8.409   3.242
24759W        W97019  43.265  39.001  12.520
24760W        W97020  37.900   7.706  14.642
24761W        W97021   7.847  31.616  13.435
24762W        W97022  21.187   0.095  14.260
24763W        W97023  44.866  20.747  10.588
24764W        W97024  14.204  26.925  10.845
24765W        W97025  20.575  25.635  12.632
24766W        W97026   0.909  12.193  10.916
24767W        W97027  17.771  25.811   2.932
24768W        W97028  24.041  29.754  14.160
24769W        W97029  27.980   5.417  13.992
24770W        W97030  21.514  20.017   0.672
24771W        W97031  41.126   1.543  11.625
24772W        W97032  17.279  44.199  14.494
24773W        W97033  19.762   0.034  13.064
24774W        W97034  23.495  31.457   3.649
24775W        W97035  26.193  10.925   4.174
24776W        W97036  15.635  13.891   2.163
24777W        W97037  39.555  29.420   3.997
24778W        W97038  28.566  44.508   1.654
24779W        W97039  13.426  25.772   3.647
24780W        W97040  28.915  22.303  12.980
24781W        W97041   1.001   8.103  14.972
24782W        W97042  21.112  28.031   3.856
24783W        W97043  39.358   3.167   0.761
24784W        W97044  14.416   3.776  10.574
24785W        W97045  16.144  44.524  11.570
24786W        W97046  41.177   1.845   0.206
24787W        W97047   1.464   5.702   1.357
24788W        W97048  16.265  10.229   3.370
24789W        W97049  13.878  12.678  11.072
24790W        W97050   5.677  17.825   2.839
24791W        W97051  31.052  10.000  11.109
24792W        W97052  30.881  21.625  14.682
24793W        W97053  16.115  14.953   4.479
24794W        W97054   3.935  19.967   0.183
24795W        W97055   7.267  44.855  10.933
24796W        W97056  26.194   6.898  11.355
24797W        W97057  42.274  40.349   2.791
24798W        W97058  21.270  21.032  12.518
24799W        W97059  34.141  14.647   1.013
24800W        W97060  20.506  15.378   1.384
24801W        W97061   4.740  12.781  11.581
24802W        W97062   4.907  31.158   2.652
24803W        W97063  36.432  33.506   1.640
24804W        W97064   1.909  17.965   0.404
24805W        W97065   2.015   3.215   0.851
24806W        W97066  35.122  16.716   1.867
24807W        W97067   1.171  33.096  13.371
24808W        W97068   9.025  36.596   2.862
24809W        W97069  29.085  41.782   0.120
24810W        W97070   0.205  11.612  12.131
24811W        W97071  37.102  19.632  14.466
24812W        W97072  35.911   1.093   0.484
24813W        W97073   3.186  17.647  11.099
24814W        W97074  26.127  10.020  11.186
24815W        W97075  11.742  14.321   0.296
24816W        W97076  30.683   3.825  14.355
24817W        W97077  36.867   8.668  13.041
24818W        W97078   6.895  21.650   2.815
24819W        W97079  13.306  35.173   3.286
24820W        W97080  29.636   2.395  11.593
24821W        W97081  39.013  18.747   0.244
24822W        W97082  23.700  43.758  13.914
24823W        W97083   4.179  25.158   2.846
24824W        W97084   0.173  25.842   2.580
24825W        W97085  22.592  42.223  11.271
24826W        W97086  14.806   7.871  11.239
24827W        W97087  17.668  43.460  12.779
24828W        W97088  14.379  23.489  13.923
24829W        W97089  38.800   7.934  13.926
24830W        W97090   9.947  38.776   0.535
24831W        W97091   0.400  16.002   2.236
24832W        W97092  22.997   3.698  10.703
24833W        W97093  29.579  12.211   0.136
24834W        W97094  29.997  16.194   0.906
24835W        W97095  20.121  18.352  14.879
24836W        W97096   9.182   5.954   0.462
24837W        W97097  42.988  36.630  14.723
24838W        W97098  21.796  25.208  11.106
24839W        W97099  30.341  22.558  10.706
24840W        W97100  39.525  26.052   1.280
24841W        W97101  30.932  15.183   4.531
24842W        W97102   9.767  17.039  11.823
24843W        W97103  42.291   2.044  10.633
24844W        W97104  16.605  36.385   1.085
24845W        W97105   4.921  11.509   0.781
24846W        W97106   3.025   9.915   1.304
24847W        W97107  26.224  33.473  12.959
24848W        W97108  38.840  19.324   0.770
24849W        W97109  27.749  15.398   1.675
24850W        W97110   4.703  19.530   2.888
24851W        W97111  12.555  29.735  12.866
24852W        W97112   0.587   3.271   5.156
24853W        W97113  25.003  17.690  13.854
24854W        W97114  13.767  29.405   2.844
24855W        W97115  36.422  14.642   2.293
24856W        W97116   2.869  15.799   2.550
24857W        W97117  10.677  13.348  13.173
24858W        W97118  30.815  37.315   4.766
24859W        W97119  38.699  35.423   0.759
24860W        W97120  33.169   6.788  11.381
24861W        W97121  26.528  42.928  14.911
24862W        W97122   2.960  41.892  13.940
24863W        W97123  31.073  31.801  12.968
24864W        W97124   9.904  40.346  12.020
24865W        W97125  24.576  32.892  11.019
24866W        W97126  26.806  34.319  11.000
24867W        W97127  42.761  34.672  13.620
24868W        W97128  11.242  42.429   3.696
24869W        W97129  43.667   8.907   2.383
24870W        W97130  17.942  32.551   4.173
24871W        W97131  42.102  30.960  12.187
24872W        W97132  43.299  40.502   4.649
24873W        W97133  20.141  35.875   3.570
24874W        W97134  14.774  44.494   4.496
24875W        W97135  19.115   7.204  11.874
24876W        W97136  13.851  34.009  10.731
24877W        W97137  33.341   3.367  11.481
24878W        W97138  38.987  39.184   4.393
24879W        W97139  11.762   5.672   2.686
24880W        W97140  23.139  43.431   4.590
24881W        W97141  35.449  28.261  12.444
24882W        W97142  16.207  24.213   3.174
24883W        W97143  32.413  13.255   3.225
24884W        W97144  35.660   1.799  11.187
24885W        W97145  34.008  24.077  10.478
24886W        W97146  41.115  28.934   0.880
24887W        W97147   8.293  27.135   4.824
24888W        W97148  12.168  21.718   4.086
24889W        W97149   2.959  34.949   4.134
24890W        W97150   9.211   5.379  14.482
24891W        W97151  11.215  41.082   4.296
24892W        W97152  13.122  37.555   1.929
24893W        W97153  42.857   9.852   4.171
24894W        W97154   0.553   6.194  13.811
24895W        W97155  36.233  37.088   3.302
24896W        W97156  38.084  35.086   4.588
24897W        W97157   3.710  34.541   4.142
24898W        W97158  13.584   7.799  11.952
24899W        W97159  39.797  36.040   1.444
24900W        W97160  27.116  39.971   5.369
24901W        W97161  22.490  33.515   1.734
24902W        W97162   9.676  42.517   1.741
24903W        W97163  23.464   0.041   4.158
24904W        W97164  14.870   3.119   0.288
24905W        W97165  42.824  19.096   4.274
24906W        W97166   4.551  28.528  12.943
24907W        W97167  28.890  27.132  13.416
24908W        W97168  32.327  30.910   1.406
24909W        W97169  23.051  21.727  13.580
24910W        W97170  36.423   1.715  10.842
24911W        W97171   2.964  21.536  11.585
24912W        W97172  37.775  31.986   1.740
24913W        W97173  19.230  25.337  11.058
24914W        W97174  10.404  32.598  12.515
24915W        W97175  13.132  29.501   0.907
24916W        W97176  27.617  37.163  12.166
24917W        W97177  36.393   8.589   3.743
24918W        W97178  44.934  18.937   1.541
24919W        W97179   9.236  15.429   2.429
24920W        W97180  40.442   7.993  10.640
24921W        W97181  34.558  28.429   4.251
24922W        W97182  26.516  14.436  12.550
24923W        W97183   8.703  29.491  14.556
24924W        W97184  10.777  29.545   3.180
24925W        W97185   2.034  44.235   2.751
24926W        W97186  44.716  26.632  12.367
24927W        W97187  25.107  37.447  13.511
24928W        W97188  20.824  24.614  13.815
24929W        W97189  14.921  11.032   4.881
24930W        W97190  42.807  35.450  11.736
24931W        W97191  44.351  43.756  12.457
24932W        W97192   3.722  24.731   0.321
24933W        W97193  32.174  22.649  10.239
24934W        W97194  20.806   6.895   1.706
24935W        W97195  35.962  31.107   1.955
24936W        W97196  31.053  21.453   2.777
24937W        W97197  14.700  24.829   5.235
24938W        W97198  22.572  25.458   4.066
24939W        W97199   6.306  15.275  12.439
24940W        W97200   0.808   3.757  11.984
24941W        W97201  40.385  32.967   3.670
24942W        W97202  42.813  25.284   4.280
24943W        W97203  37.665  24.170   1.306
24944W        W97204  26.743  15.997   4.047
24945W        W97205  33.574  34.807   1.437
24946W        W97206  18.102   1.537   0.040
24947W        W97207  13.965  26.781  14.427
24948W        W97208  13.766  28.142   2.331
24949W        W97209  29.911  18.866   5.030
24950W        W97210  12.678  27.690  13.779
24951W        W97211  22.198   8.303   4.427
24952W        W97212  41.926   1.669  10.666
24953W        W97213  35.964  12.924  11.402
24954W        W97214   2.335   2.873   3.590
24955W        W97215  24.149  16.317  14.276
24956W        W97216  10.286  11.403   0.033
24957W        W97217  22.216  14.802  13.635
24958W        W97218  43.300  41.893   2.855
24959W        W97219   1.018  15.252   2.161
24960W        W97220  15.102   5.434   0.436
24961W        W97221  21.692  35.500  11.913
24962W        W97222  16.205  32.494   1.400
24963W        W97223  43.803   4.506   1.212
24964W        W97224  35.123  24.437   1.812
24965W        W97225  39.525  19.591  12.735
24966W        W97226  33.001   8.670  13.302
24967W        W97227   5.004  33.539  11.606
24968W        W97228  38.969  14.230   2.795
24969W        W97229   0.835  21.468  11.157
24970W        W97230   7.964   0.743   2.287
24971W        W97231  26.472   9.010   1.377
24972W        W97232  30.355  10.404  13.722
24973W        W97233  13.570  36.350  13.237
24974W        W97234  20.171  39.496   4.658
24975W        W97235  21.652  36.460   4.475
24976W        W97236  28.064   8.881   1.326
24977W        W97237   9.370  10.519  14.472
24978W        W97238  20.935  29.070  13.078
24979W        W97239   8.408  31.741  12.510
24980W        W97240  27.148  13.739   1.793
24981W        W97241  24.412   2.812  11.923
24982W        W97242  39.329   2.987  10.678
24983W        W97243  38.405   0.863  13.353
24984W        W97244  30.918  38.865   2.835
24985W        W97245  33.430  42.620   4.641
24986W        W97246  38.601   9.461   1.162
24987W        W97247  26.096  29.079  14.249
24988W        W97248  20.599  23.341  10.817
24989W        W97249  33.357   8.190   4.126
24990W        W97250  42.861  15.276   0.839
24991W        W97251  43.383  41.793  13.249
24992W        W97252   1.008  10.621   3.156
24993W        W97253  24.255  23.040  13.385
24994W        W97254  11.639  40.277  11.141
24995W        W97255  13.098   6.429   1.817
24996W        W97256  33.083  32.721  12.008
24997W        W97257  29.162   1.441   4.459
24998W        W97258  38.943  10.970   2.789
24999W        W97259   7.733  24.060   0.856
25000W        W97260  20.524  44.397  10.713
25001W        W97261   4.184  38.154   2.325
25002W        W97262  43.857  19.344  11.911
25003W        W97263  32.590  29.185  14.491
25004W        W97264  17.260  24.443   3.728
25005W        W97265   1.304  14.892   0.988
25006W        W97266  11.247  44.289   2.282
25007W        W97267   5.765  19.722   4.024
25008W        W97268  31.112  40.811  14.520
25009W        W97269  25.522  24.446   4.066
25010W        W97270  29.607  39.910  11.121
25011W        W97271  29.626  19.264   3.731
25012W        W97272   9.441  29.492   1.805
25013W        W97273   4.551  13.735   1.762
25014W        W97274  16.446  37.494  10.782
25015W        W97275  31.005  18.863   0.999
25016W        W97276   9.123   3.854  10.419
25017W        W97277  31.565  12.137   2.711
25018W        W97278  42.113   4.705   1.698
25019W        W97279  21.112  16.813  14.308
25020W        W97280   4.549  13.671  11.193
25021W        W97281  39.626   3.177  11.624
25022W        W97282  27.972  12.921  14.892
25023W        W97283   9.724   7.484  14.819
25024W        W97284  39.414  14.072  12.460
25025W        W97285   1.922  24.755  12.019
25026W        W97286  42.851   4.960   0.699
25027W        W97287  11.957  15.075  14.281
25028W        W97288  42.335  41.946  10.477
25029W        W97289   7.417  35.786  13.346
25030W        W97290  31.602   7.838   1.124
25031W        W97291  20.011  39.571  11.672
25032W        W97292  39.877  25.201   1.364
25033W        W97293  37.131   5.212  14.549
25034W        W97294  14.110  36.491  11.046
25035W        W97295  44.323  17.544   1.863
25036W        W97296  43.575   1.407   3.739
25037W        W97297   2.673   3.174  13.378
25038W        W97298  42.543  27.059   3.334
25039W        W97299   1.835  30.207  12.739
25040W        W97300  31.492  22.838  14.715
25041W        W97301  43.849  17.043   2.271
25042W        W97302   3.357   2.265   1.321
25043W        W97303  22.523  19.354   2.286
25044W        W97304  30.463  26.578  12.582
25045W        W97305  39.960   3.849  12.127
25046W        W97306  32.083  33.031  12.610
25047W        W97307  43.768  17.600  11.504
25048W        W97308  14.609  22.200   2.137
25049W        W97309  32.962   0.108  13.533
25050W        W97310   4.347  35.761   2.246
25051W        W97311  24.617  20.267  10.743
25052W        W97312  12.084  26.432  11.964
25053W        W97313  17.841  35.796  12.028
25054W        W97314  44.245   2.809   1.197
25055W        W97315  14.345  20.700   0.082
25056W        W97316   9.771  27.195  12.926
25057W        W97317  38.497  21.053   1.711
25058W        W97318  11.239  41.764   3.161
25059W        W97319  14.698  41.399   4.563
25060W        W97320   7.677  36.305   1.117
25061W        W97321   8.759  22.149   2.636
25062W        W97322   9.170  33.003   3.591
25063W        W97323  40.933   9.587  10.594
25064W        W97324  13.819   3.357   4.053
25065W        W97325  33.232  36.293  14.261
25066W        W97326  39.944  16.641  14.833
25067W        W97327  23.763  10.893  12.877
25068W        W97328  18.520  36.771  11.446
25069W        W97329   7.205  13.359   1.268
25070W        W97330   3.520  10.384  11.534
25071W        W97331  15.397  42.017  14.912
25072W        W97332  22.194  33.844   2.045
25073W        W97333  38.835  20.235   1.255
25074W        W97334  36.648  18.136   2.178
25075W        W97335   2.959  18.830   2.809
25076W        W97336  15.445  40.038  14.845
25077W        W97337  30.104  35.050  14.276
25078W        W97338   1.715  24.579   4.389
25079W        W97339  10.295   4.051   4.699
25080W        W97340   4.895  34.546  10.669
25081W        W97341  40.282  18.125  13.081
25082W        W97342  27.923  42.055  12.386
25083W        W97343  15.512   9.644  11.299
25084W        W97344   0.546   4.361  14.247
25085W        W97345  23.020   3.992   2.221
25086W        W97346  40.372  43.821  10.685
25087W        W97347  19.585  20.874  10.586
25088W        W97348  12.025  17.305   0.405
25089W        W97349  14.990  37.085   4.110
25090W        W97350  11.652  35.376   0.355
25091W        W97351   8.688  36.958   3.632
25092W        W97352   4.724  35.242  14.249
25093W        W97353  24.957   7.781   3.278
25094W        W97354   2.760  20.111   1.839
25095W        W97355   8.576  29.068  13.429
25096W        W97356   1.879  15.339  12.385
25097W        W97357  28.380  14.636  14.471
25098W        W97358  44.354  33.512   3.283
25099W        W97359  18.064  33.640   2.774
25100W        W97360   7.923  40.363  11.737
25101W        W97361  25.523  33.516  12.372
25102W        W97362  27.591  32.556  14.303
25103W        W97363  38.037   7.608   0.163
25104W        W97364  40.958  28.049  10.579
25105W        W97365  10.758  23.555   1.535
25106W        W97366  19.708  24.586   0.657
25107W        W97367   9.191   6.826  14.386
25108W        W97368   2.317  33.044   4.595
25109W        W97369   8.659  11.767   2.286
25110W        W97370  10.061  35.808  12.893
25111W        W97371   1.240  23.549   3.396
25112W        W97372  19.082  44.430   0.091
25113W        W97373  24.620  12.569   4.483
25114W        W97374  33.148  25.519  12.443
25115W        W97375  30.406   2.692  11.871
25116W        W97376  33.673   3.430   3.536
25117W        W97377  25.027  22.958  14.689
25118W        W97378  28.424  20.939   1.219
25119W        W97379  23.728  34.104   0.697
25120W        W97380   4.014  22.112   1.002
25121W        W97381  22.179   3.484   1.927
25122W        W97382  22.299  20.467   2.162
25123W        W97383  36.759   7.612   4.950
25124W        W97384   7.105  21.701   0.892
25125W        W97385  44.526  35.354  12.888
25126W        W97386  33.058  11.842  13.474
25127W        W97387  26.277   9.881  12.727
25128W        W97388  38.816  14.644   0.406
25129W        W97389   5.859   8.095  10.766
25130W        W97390  18.791   4.879  10.307
25131W        W97391   3.122   4.860   1.340
25132W        W97392  21.274  14.606  14.058
25133W        W97393  42.446  23.263  14.124
25134W        W97394  11.354  21.171  13.174
25135W        W97395  22.265  14.067  12.410
25136W        W97396   6.825  12.583  10.381
25137W        W97397  21.478  42.397  13.521
25138W        W97398  40.757  14.418   0.407
25139W        W97399   2.818  34.348  11.283
25140W        W97400  11.566  32.977  13.919
25141W        W97401  37.345  23.929  12.903
25142W        W97402  33.076  20.104   3.378
25143W        W97403  20.967  40.936  11.241
25144W        W97404  31.423  29.093   2.774
25145W        W97405  37.036  28.572   0.235
25146W        W97406  22.367  39.599   4.263
25147W        W97407  17.025  13.313   0.023
25148W        W97408  42.949   4.850   2.011
25149W        W97409  14.392  19.519   0.708
25150W        W97410  17.229   6.766  12.285
25151W        W97411  44.427   6.120   1.356
25152W        W97412   7.031  43.176  12.081
25153W        W97413  40.302   5.812   4.109
25154W        W97414  17.615  30.495   0.253
25155W        W97415  14.352  29.926  10.015
25156W        W97416   5.200  23.452   4.593
25157W        W97417  42.475  29.874  10.659
25158W        W97418  34.466  20.201  12.483
25159W        W97419  44.961  20.449   1.011
25160W        W97420   2.557   0.810   0.628
25161W        W97421  37.903  32.996  12.901
25162W        W97422  44.977  36.467   2.674
25163W        W97423  33.028  27.799  13.809
25164W        W97424  11.682   7.698  11.104
25165W        W97425  34.334  35.540   3.713
25166W        W97426  12.709  28.422   4.695
25167W        W97427  14.832  35.073  13.702
25168W        W97428   7.653  34.075  10.765
25169W        W97429   9.669  44.855   0.753
25170W        W97430   2.979  37.302   4.208
25171W        W97431  39.301  13.780   4.376
25172W        W97432  15.589  39.914  14.309
25173W        W97433  39.329   1.886   1.244
25174W        W97434  26.136  23.443   0.967
25175W        W97435  15.357  16.051   3.265
25176W        W97436  11.029  35.837  12.476
25177W        W97437  42.322  28.403  11.099
25178W        W97438  26.040  42.360   5.571
25179W        W97439   0.979   1.428   2.745
25180W        W97440  29.610  20.657   1.670
25181W        W97441  43.992  39.870   4.274
25182W        W97442  10.704   8.418   1.321
25183W        W97443  38.445  15.379  11.118
25184W        W97444  43.135  35.070   4.980
25185W        W97445  35.665  41.088   2.358
25186W        W97446  41.450  40.966   2.064
25187W        W97447  41.748  22.823   5.128
25188W        W97448  26.492  23.035   0.867
25189W        W97449  29.739  16.650  12.964
25190W        W97450  14.979  41.971  13.902
25191W        W97451  36.964   1.123  12.773
25192W        W97452   1.936   8.261  13.551
25193W        W97453  28.636  13.999  13.552
25194W        W97454   0.748  36.418  12.826
25195W        W97455  37.865   4.823  11.223
25196W        W97456  34.195   6.768   2.242
25197W        W97457  13.647  15.530   5.074
25198W        W97458  34.097  31.130   4.346
25199W        W97459  33.601  42.478   1.220
25200W        W97460   5.332  19.196   3.793
25201W        W97461   9.878  26.125   4.570
25202W        W97462  12.740  36.319   0.355
25203W        W97463  11.622  24.578   1.413
25204W        W97464  39.283   2.198   4.065
25205W        W97465  12.187  13.239  11.942
25206W        W97466  12.350  14.642  11.698
25207W        W97467  25.614  31.259  13.525
25208W        W97468  43.254  39.889   3.691
25209W        W97469   5.148  12.783   2.361
25210W        W97470  30.334  20.148   1.338
25211W        W97471  27.423  41.305   0.237
25212W        W97472  39.538  33.894  11.184
25213W        W97473  30.159   3.890  13.465
25214W        W97474   7.212   6.221   2.740
25215W        W97475  32.994   9.395   4.416
25216W        W97476  42.476  14.564  11.471
25217W        W97477  12.295  42.432   1.812
25218W        W97478  24.419  36.342  11.117
25219W        W97479  19.827  32.626   3.897
25220W        W97480  27.752   1.889   2.200
25221W        W97481  39.303   8.314   3.630
25222W        W97482  11.637  30.639   2.738
25223W        W97483  27.478  44.279  11.044
25224W        W97484  21.439  14.366   1.849
25225W        W97485  14.336  17.051   0.709
25226W        W97486  12.861  29.144   3.631
25227W        W97487  42.340  14.585  14.506
25228W        W97488  41.985  24.007   3.173
25229W        W97489   8.961   8.954   1.236
25230W        W97490  34.872  30.836   0.735
25231W        W97491   0.905  22.324  10.708
25232W        W97492  20.508  16.677   4.970
25233W        W97493   6.650   9.392   1.409
25234W        W97494  39.939  40.923  12.526
25235W        W97495  14.482   1.227  13.536
25236W        W97496  28.682   7.411   1.828
25237W        W97497  18.695   8.288  14.064
25238W        W97498  39.158  26.442   5.176
25239W        W97499   1.420  31.902   3.163
25240W        W97500  33.244  28.967   1.250
25241W        W97501  28.639  23.457   1.479
25242W        W97502  31.061  22.651   2.982
25243W        W97503  21.467  41.689   4.879
25244W        W97504  43.211  22.274  10.535
25245W        W97505   8.927   0.169   2.260
25246W        W97506  43.794   5.041  13.351
25247W        W97507  36.577  37.898  14.881
25248W        W97508  31.559   5.505  11.413
25249W        W97509  44.251   3.867  14.331
25250W        W97510  20.927   0.542   0.999
25251W        W97511  41.797  21.995  12.870
25252W        W97512  16.546   3.867  11.197
25253W        W97513  10.035  14.128  13.976
25254W        W97514  28.432  33.454   1.458
25255W        W97515  25.272  15.860  14.770
25256W        W97516  27.924  32.000  10.468
25257W        W97517  41.566  31.356   2.747
25258W        W97518   7.993  21.057  14.397
25259W        W97519  14.750  16.145  14.756
25260W        W97520   3.218   9.390  14.977
25261W        W97521  42.859  31.961  12.585
25262W        W97522  39.850   3.002   3.464
25263W        W97523  14.310  22.123   0.516
25264W        W97524  10.710  11.370   2.391
25265W        W97525  35.871  38.959   1.017
25266W        W97526  25.991  36.626   0.773
25267W        W97527  39.022  30.897   1.952
25268W        W97528  23.741  21.478  12.400
25269W        W97529  31.456   0.728  13.961
25270W        W97530  41.962  16.062  12.913
25271W        W97531  30.590   3.142   1.170
25272W        W97532   6.357  38.095   4.642
25273W        W97533  32.527  16.682   0.684
25274W        W97534  33.082   8.957  11.153
25275W        W97535  30.131  36.844   4.264
25276W        W97536  17.273  34.078   3.587
25277W        W97537   1.222  39.416  14.770
25278W        W97538  40.285  44.346  14.966
25279W        W97539  15.993   7.700   4.663
25280W        W97540  42.750  35.438  13.129
25281W        W97541  18.834  28.357  11.307
25282W        W97542   2.107   6.953  11.691
25283W        W97543  25.708  23.975  14.282
25284W        W97544   8.818  19.187  14.245
25285W        W97545  44.981   9.263   1.896
25286W        W97546  35.585  20.483  14.870
25287W        W97547  30.637  17.575   3.448
25288W        W97548  11.527  10.560  14.927
25289W        W97549   5.932  12.127   0.826
25290W        W97550  25.474  35.880  11.547
25291W        W97551  34.135   9.166  11.941
25292W        W97552  38.330  37.478  11.532
25293W        W97553  18.289  34.813  14.867
25294W        W97554   5.449  44.846  12.378
25295W        W97555  44.852  25.332  12.825
25296W        W97556  26.663  37.436   1.480
25297W        W97557  36.713   9.262  10.247
25298W        W97558  37.001  26.719  14.932
25299W        W97559  43.879  37.604  12.981
25300W        W97560  12.088  16.108  10.631
25301W        W97561   1.459  34.522  11.529
25302W        W97562  14.413   6.948   1.214
25303W        W97563  25.449  39.485   2.152
25304W        W97564  37.795   1.317   2.741
25305W        W97565   7.179  40.925  12.034
25306W        W97566  32.236   5.078   1.712
25307W        W97567  24.974   0.630   1.507
25308W        W97568  36.325  32.030  12.541
25309W        W97569  40.996  40.777   1.200
25310W        W97570  13.284  27.584   0.921
25311W        W97571  30.053  13.026  14.492
25312W        W97572  28.287  18.050  10.206
25313W        W97573  25.402   7.636  11.667
25314W        W97574  44.803   8.942   0.325
25315W        W97575  18.004  21.980  12.211
25316W        W97576  28.622   2.124   3.261
25317W        W97577   5.076  32.656   2.774
25318W        W97578  28.882  25.606   2.811
25319W        W97579  39.355   5.919   1.049
25320W        W97580  12.650   9.432  11.535
25321W        W97581  17.581   2.261  11.437
25322W        W97582  19.547  17.112   2.371
25323W        W97583  31.302  22.508   4.751
25324W        W97584   6.411  11.670   3.682
25325W        W97585   7.189  26.355  10.109
25326W        W97586  10.426  41.460   2.077
25327W        W97587  42.767  26.899  13.525
25328W        W97588  36.353  23.341  12.641
25329W        W97589  22.170   0.851  10.705
25330W        W97590  41.849   2.403  10.950
25331W        W97591  35.521  43.515   3.796
25332W        W97592  30.613  26.958  13.885
25333W        W97593  41.508  33.629  10.716
25334W        W97594  21.131  38.033   1.232
25335W        W97595  21.248  15.869   2.225
25336W        W97596  15.581  23.496   0.832
25337W        W97597  10.366  22.935   4.568
25338W        W97598  37.004  35.049  12.654
25339W        W97599  41.213  43.843   3.322
25340W        W97600  35.159  11.213  12.131
25341W        W97601  39.512  29.602   1.744
25342W        W97602  18.167  29.628   4.175
25343W        W97603  19.854   0.734  13.890
25344W        W97604  36.566   7.645  11.502
25345W        W97605  36.629  27.667   1.724
25346W        W97606  42.702  29.686   3.206
25347W        W97607   2.536   7.316  13.134
25348W        W97608  32.054  23.518  14.564
25349W        W97609  25.171  30.992  11.657
25350W        W97610  25.504  28.520  13.278
25351W        W97611   9.781  32.898   1.126
25352W        W97612   6.636  11.251   0.154
25353W        W97613  26.629  18.814  12.910
25354W        W97614  24.779  21.898  11.124
25355W        W97615  32.078  39.501  13.685
25356W        W97616  15.141  40.358  13.173
25357W        W97617  42.860   4.316   2.056
25358W        W97618  15.772   5.595  10.201
25359W        W97619  42.996  13.283   5.035
25360W        W97620   1.154  21.231  12.488
25361W        W97621  11.257  15.837   2.826
25362W        W97622   0.974  19.221   2.719
25363W        W97623  38.758  40.045   4.152
25364W        W97624  39.874  13.567   2.846
25365W        W97625  43.926  13.575   0.429
25366W        W97626   0.842  31.172  13.843
25367W        W97627  25.134  19.328   0.969
25368W        W97628  13.734  28.613  11.231
25369W        W97629  17.650  43.289   2.092
25370W        W97630   5.328  41.984   3.127
25371W        W97631  16.988  20.545  14.387
25372W        W97632  15.150   0.689   1.284
25373W        W97633  16.799  29.363  14.924
25374W        W97634   9.347  43.032  13.526
25375W        W97635  10.379  41.739  12.129
25376W        W97636  12.800  19.308   1.264
25377W        W97637  25.755  38.241   0.738
25378W        W97638   0.418  36.992  14.534
25379W        W97639  12.193  34.869  13.690
25380W        W97640   6.433  28.956  10.639
25381W        W97641  13.245  15.590  12.528
25382W        W97642   0.026  41.290  11.068
25383W        W97643   7.783  11.074   1.154
25384W        W97644   2.010  20.614  13.944
25385W        W97645  36.369  34.388   4.517
25386W        W97646  42.002  32.745   2.838
25387W        W97647  18.160  25.530  13.986
25388W        W97648  23.528  18.202  12.413
25389W        W97649   2.201  44.298  13.729
25390W        W97650  33.592   3.953  12.191
25391W        W97651  22.647  19.356   1.451
25392W        W97652  26.189  29.161   0.325
25393W        W97653  29.442  23.818  14.018
25394W        W97654   7.301  11.551   0.962
25395W        W97655  33.657  30.916  10.607
25396W        W97656   4.728  34.489   0.932
25397W        W97657  26.990  13.057   2.709
25398W        W97658  12.585  18.295  14.174
25399W        W97659   2.448  25.453   2.997
25400W        W97660  19.998  15.275   1.344
25401W        W97661  23.768  23.704   3.751
25402W        W97662  31.875  28.163   3.638
25403W        W97663  26.987  20.996  10.618
25404W        W97664  16.217  10.026  11.180
25405W        W97665  44.928  44.555   0.686
25406W        W97666   7.009  27.669  11.430
25407W        W97667  42.745   5.244   3.317
25408W        W97668  32.135  15.006  13.036
25409W        W97669  40.726  25.683   1.930
25410W        W97670  13.116  42.566   2.324
25411W        W97671  23.188  42.478  11.575
25412W        W97672  16.104  36.547  10.497
25413W        W97673  44.494   2.460   1.962
25414W        W97674  25.134  27.174  10.881
25415W        W97675  41.811   5.783   1.798
25416W        W97676  28.147  23.284  13.658
25417W        W97677  16.604   3.892   3.740
25418W        W97678  25.515  16.440   4.317
25419W        W97679  34.412  29.704  14.809
25420W        W97680  14.185  28.422  14.254
25421W        W97681  11.272  30.420   3.011
25422W        W97682  39.464  23.252   0.249
25423W        W97683   9.220  34.022   0.942
25424W        W97684  43.854   0.979  10.375
25425W        W97685  18.024  38.920  12.650
25426W        W97686  26.091  20.433   4.470
25427W        W97687  41.547   6.796   0.274
25428W        W97688   5.389  24.010  11.134
25429W        W97689  39.317  14.337  13.350
25430W        W97690  29.486   7.291   3.117
25431W        W97691  36.891  34.661  12.995
25432W        W97692  19.094  27.662   1.677
25433W        W97693  17.699  30.047   1.472
25434W        W97694  13.127  42.865  12.549
25435W        W97695  26.043  10.452  11.484
25436W        W97696  37.987  19.588   0.979
25437W        W97697  21.261  37.007   4.553
25438W        W97698  16.243  31.464  14.419
25439W        W97699  10.959  42.588   2.825
25440W        W97700  11.142  31.353  14.021
25441W        W97701  33.931  34.822  11.528
25442W        W97702  34.580   4.211  13.452
25443W        W97703  25.479  44.329  13.854
25444W        W97704  37.440  11.336   4.643
25445W        W97705  10.591   9.289  11.480
25446W        W97706  36.558  25.668  13.077
25447W        W97707  21.368  32.197  10.373
25448W        W97708   9.652  17.716   0.977
25449W        W97709  13.130   4.271   3.828
25450W        W97710  43.894   0.751  12.373
25451W        W97711  21.039   4.949  14.470
25452W        W97712  25.206  26.420   0.614
25453W        W97713  16.824  27.492   4.154
25454W        W97714   4.238   8.023   1.473
25455W        W97715  20.902  40.643  11.947
25456W        W97716  38.760  12.375   0.325
25457W        W97717   4.756   7.317   1.922
25458W        W97718  11.247  31.183  13.536
25459W        W97719  37.469  38.419   4.654
25460W        W97720   0.736  33.425  14.470
25461W        W97721  30.150  30.962   0.095
25462W        W97722  31.147  15.886   3.767
25463W        W97723   1.923  27.610   0.768
25464W        W97724  42.080   1.957  11.133
25465W        W97725  30.479  17.523  14.174
25466W        W97726  25.369  41.912   0.877
25467W        W97727  20.636  17.600  14.740
25468W        W97728  17.386  39.495   0.897
25469W        W97729   4.713  18.249  10.057
25470W        W97730  37.425   1.667  14.114
25471W        W97731  12.150   7.944  11.111
25472W        W97732   1.670  27.564   0.282
25473W        W97733  38.446  27.977   4.726
25474W        W97734  42.437  26.122   2.191
25475W        W97735  20.811  35.890  11.557
25476W        W97736  38.071  12.390   4.131
25477W        W97737  36.083  17.846  13.092
25478W        W97738  31.233  43.857   4.417
25479W        W97739  16.705  20.003   3.962
25480W        W97740   4.001  31.730   2.765
25481W        W97741  34.961   6.701   0.791
25482W        W97742   7.150   3.214  12.192
25483W        W97743  12.263   2.185   0.976
25484W        W97744   0.515   1.340  14.323
25485W        W97745  18.226  11.737  12.433
25486W        W97746  24.988  36.590   1.900
25487W        W97747  12.862   9.341  14.336
25488W        W97748  40.395  31.113  14.819
25489W        W97749  30.539  13.631  12.865
25490W        W97750  16.347   3.149  11.713
25491W        W97751  41.125  32.114  12.401
25492W        W97752  13.837   2.638   2.816
25493W        W97753  42.374   1.148   0.172
25494W        W97754  25.917   8.655  10.610
25495W        W97755  30.164  32.813  14.308
25496W        W97756  10.652  13.264   0.979
25497W        W97757  17.665  25.264  12.921
25498W        W97758   4.507  28.838  10.060
25499W        W97759  41.463  34.092   2.181
25500W        W97760   6.414  33.291  12.943
25501W        W97761  13.581   4.477   0.730
25502W        W97762  20.761  23.003   1.542
25503W        W97763  13.236  36.429   1.982
25504W        W97764  26.953  12.846   1.983
25505W        W97765   5.385  10.318   1.887
25506W        W97766  26.165   2.782  14.347
25507W        W97767  34.053  38.465   3.290
25508W        W97768  38.940  27.676  10.663
25509W        W97769   6.251  40.087  10.511
25510W        W97770   4.549   0.847  12.725
25511W        W97771  28.914  21.187  12.085
25512W        W97772  43.195  42.468  11.248
25513W        W97773   2.969  33.948  12.015
25514W        W97774  22.060  15.985   3.735
25515W        W97775  11.667  30.500   4.643
25516W        W97776  26.007  22.550   1.972
25517W        W97777   0.735  27.146   4.168
25518W        W97778  35.320  26.872   3.376
25519W        W97779  43.553  36.073   0.516
25520W        W97780  13.142  28.131  11.050
25521W        W97781  16.055  43.400  14.529
25522W        W97782   2.975  33.945   3.229
25523W        W97783   1.987  20.219   1.234
25524W        W97784  44.942  20.744  12.869
25525W        W97785  13.830  37.837  13.121
25526W        W97786  18.295   5.877  12.139
25527W        W97787  39.420  11.898   4.449
25528W        W97788  32.724  26.511  13.464
25529W        W97789  19.423   8.205  12.582
25530W        W97790  41.792   3.181   4.163
25531W        W97791  35.066  17.608   1.772
25532W        W97792  29.486  16.161  14.822
25533W        W97793  15.665  36.931   0.732
25534W        W97794  11.190   6.819  14.261
25535W        W97795  41.455  43.891  13.016
25536W        W97796  38.835  21.080  14.299
25537W        W97797   1.329  35.503  10.361
25538W        W97798  21.992  15.633   4.577
25539W        W97799  31.499  16.851  12.947
25540W        W97800   3.253   1.919   1.706
25541W        W97801  37.969  42.953   2.834
25542W        W97802   3.241  39.256  13.867
25543W        W97803   5.208   2.743  13.775
25544W        W97804   1.794  17.496   4.405
25545W        W97805   9.887   2.695  13.993
25546W        W97806  38.322  19.008   4.511
25547W        W97807  39.222   7.204  11.965
25548W        W97808  24.212  16.233  10.697
25549W        W97809  22.978  14.630   0.582
25550W        W97810   1.839  20.143  14.100
25551W        W97811  22.471  23.288   0.749
25552W        W97812  40.480  28.649  11.979
25553W        W97813  15.812  28.126   4.419
25554W        W97814  24.481   5.618  12.982
25555W        W97815  20.009   9.577  13.426
25556W        W97816  22.754  21.753   5.551
25557W        W97817  43.726  41.031  12.969
25558W        W97818  13.683  36.882   2.987
25559W        W97819  35.068  15.305   3.665
25560W        W97820  19.687   0.028   3.610
25561W        W97821  15.720  34.576  13.906
25562W        W97822  35.810  11.370   1.323
25563W        W97823  19.971  13.558  11.078
25564W        W97824  31.012  15.174   1.329
25565W        W97825   4.481   9.956  14.299
25566W        W97826  12.594  36.046   2.265
25567W        W97827  37.675  31.736   0.860
25568W        W97828   4.024  19.022   2.398
25569W        W97829  36.950  16.116   2.967
25570W        W97830   5.557  18.407   4.531
25571W        W97831  22.460  41.045   0.016
25572W        W97832  22.031  18.427  11.504
25573W        W97833   8.858  21.255   2.122
25574W        W97834  13.304  24.252   1.788
25575W        W97835  15.206  23.309   1.971
25576W        W97836  20.721  43.323   1.908
25577W        W97837  36.464  41.373  11.218
25578W        W97838  44.108  16.706   4.484
25579W        W97839  34.607  28.338   0.523
25580W        W97840  16.722  39.557   2.368
25581W        W97841  38.156  33.136  11.138
25582W        W97842  15.150  34.889   0.911
25583W        W97843   3.935  24.632  12.971
25584W        W97844   2.096  17.210  12.962
25585W        W97845  43.898  24.948  14.489
25586W        W97846  34.441  13.123   2.698
25587W        W97847  17.629  11.312   2.705
25588W        W97848  43.281  25.135  11.511
25589W        W97849  42.075  19.603  11.538
25590W        W97850  12.906   2.559   3.189
25591W        W97851   2.901  35.937  13.957
25592W        W97852  26.651  41.816   1.608
25593W        W97853  39.023  13.423   3.419
25594W        W97854  37.391  44.716  14.237
25595W        W97855  21.159  41.432  13.003
25596W        W97856  13.445  28.000  10.645
25597W        W97857  29.155  30.587   2.174
25598W        W97858  24.249  30.055   4.647
25599W        W97859   1.796   5.313   1.423
25600W        W97860  44.928  31.665  11.037
25601W        W97861  29.654  10.152  12.987
25602W        W97862  35.166  33.433  11.427
25603W        W97863  17.268  33.829  11.029
25604W        W97864   3.668  44.779   2.882
25605W        W97865  36.847  12.673   1.771
25606W        W97866  23.111   4.711  12.516
25607W        W97867  32.797  11.311   1.341
25608W        W97868  41.098  15.222   2.675
25609W        W97869  16.776  34.541  11.158
25610W        W97870  44.847  31.399  13.311
25611W        W97871   7.264  34.409  10.768
25612W        W97872  25.491   1.418   4.128
25613W        W97873  34.642   8.305   0.677
25614W        W97874  13.633  12.213   3.522
25615W        W97875  42.399   1.416  11.948
25616W        W97876  10.364  14.994  13.738
25617W        W97877  34.292  13.629  14.476
25618W        W97878   1.263  31.049   0.794
25619W        W97879  17.580  43.868  10.568
25620W        W97880  30.046  20.790  10.620
25621W        W97881  15.692  14.236   4.630
25622W        W97882  38.271   9.948  11.994
25623W        W97883   7.350  21.774  13.440
25624W        W97884  31.140   6.882   3.091
25625W        W97885  14.082  29.916  13.377
25626W        W97886  44.872  41.799  11.887
25627W        W97887  39.850  42.837  12.838
25628W        W97888  39.798   7.543   2.216
25629W        W97889  13.352  20.200  14.513
25630W        W97890  44.996   2.755  14.899
25631W        W97891  41.301  42.447   4.502
25632W        W97892  43.763  31.781  14.628
25633W        W97893  18.662  14.828  10.860
25634W        W97894  34.863  26.607  14.422
25635W        W97895   5.377  26.004  12.052
25636W        W97896  10.601  14.313  12.836
25637W        W97897   8.644   0.142  14.020
25638W        W97898  29.395  25.185   2.792
25639W        W97899  26.148  44.809  14.418
25640W        W97900   3.712  28.926   3.450
25641W        W97901  42.378  14.070  12.525
25642W        W97902   3.722  35.496   4.185
25643W        W97903  11.629   2.655   1.451
25644W        W97904  14.235  24.044  14.261
25645W        W97905   6.687  16.952  13.454
25646W        W97906  19.861  40.555  10.494
25647W        W97907  35.948  15.714   4.420
25648W        W97908  34.783  34.532   3.678
25649W        W97909   4.479  36.530   3.737
25650W        W97910  19.263  26.261  13.479
25651W        W97911  29.482   7.808   2.797
25652W        W97912   4.283  21.750   1.489
25653W        W97913   0.879  22.384  13.910
25654W        W97914  36.461  33.169  13.346
25655W        W97915  28.219   5.878   3.688
25656W        W97916  32.640  10.245  12.936
25657W        W97917   4.481  42.496  13.350
25658W        W97918  24.211   4.615  11.009
25659W        W97919   6.970  22.795  13.995
25660W        W97920  37.851   8.952   5.027
25661W        W97921   2.159  37.029   2.819
25662W        W97922  41.295  25.129   1.341
25663W        W97923  40.086  31.010   1.818
25664W        W97924   7.454  19.771  14.753
25665W        W97925  36.903  15.749   2.605
25666W        W97926  17.605  44.210   0.825
25667W        W97927  10.713  24.789   0.001
25668W        W97928  32.524  23.983  10.622
25669W        W97929   8.111  34.960  11.805
25670W        W97930  16.834  21.174   3.616
25671W        W97931  17.004  33.987   4.029
25672W        W97932  42.444  21.807  10.578
25673W        W97933  26.591  22.184  13.290
25674W        W97934   5.327  35.882   3.274
25675W        W97935  23.526  37.075   4.341
25676W        W97936  35.931  27.961   5.467
25677W        W97937  23.750  39.326   3.132
25678W        W97938  10.752  27.828  13.901
25679W        W97939  35.276  30.185   3.229
25680W        W97940  14.184  22.486  14.047
25681W        W97941   6.767   4.242  14.348
25682W        W97942   3.075  12.357  11.905
25683W        W97943  18.378  37.095   1.475
25684W        W97944  28.122  13.118   2.253
25685W        W97945  16.191  34.530  11.885
25686W        W97946  25.615  36.139  12.030
25687W        W97947  24.127   0.611  14.787
25688W        W97948   9.377  22.576  14.778
25689W        W97949   0.424  44.524  14.343
25690W        W97950  10.669   1.194   0.969
25691W        W97951  18.291   0.815   1.404
25692W        W97952  12.386  25.581   0.886
25693W        W97953  18.165   3.254   4.498
25694W        W97954  31.906   7.757  11.205
25695W        W97955  43.444   9.183   1.497
25696W        W97956  13.689  32.512  11.893
25697W        W97957   8.786  32.643   1.944
25698W        W97958   5.259  43.256   1.845
25699W        W97959  26.733  31.294  13.305
25700W        W97960  19.293  37.151  12.115
25701W        W97961  10.072  27.977  13.004
25702W        W97962  26.547  27.938   0.054
25703W        W97963  12.246   6.164   3.281
25704W        W97964  27.649   2.671  13.306
25705W        W97965  30.030   9.343  12.679
25706W        W97966  18.217  41.846  12.899
25707W        W97967  25.215  39.467  14.830
25708W        W97968  41.700  40.961  10.859
25709W        W97969  24.439  13.888  13.075
25710W        W97970   2.586  29.605  12.480
25711W        W97971  16.660  13.563  13.753
25712W        W97972  29.377  20.586   1.185
25713W        W97973   1.815  12.815   0.279
25714W        W97974   4.848  24.327   0.419
25715W        W97975   4.837  17.387  12.874
25716W        W97976  26.158  34.117   2.696
25717W        W97977  20.840  34.354   4.945
25718W        W97978  41.850  23.091   1.341
25719W        W97979  25.712  39.459  14.944
25720W        W97980  18.990  22.262  10.701
25721W        W97981  38.336  37.744   1.158
25722W        W97982  43.937   6.116  14.789
25723W        W97983  31.159  30.640  14.317
25724W        W97984  33.685  24.721   2.422
25725W        W97985  22.574  14.102   0.815
25726W        W97986   5.421   6.942   3.589
25727W        W97987  19.530  14.320  14.122
25728W        W97988  23.568  33.644  10.663
25729W        W97989  29.939  23.550   0.387
25730W        W97990  17.692  37.023  14.479
25731W        W97991  16.838   3.802  12.456
25732W        W97992   7.278   4.511   2.216
25733W        W97993  44.555  43.395   0.832
25734W        W97994  33.990  22.163  13.834
25735W        W97995   1.377  19.062   4.032
25736W        W97996  11.339  28.194  11.538
25737W        W97997   2.222  31.232  12.140
25738W        W97998  42.991  36.000   0.886
25739W        W97999  10.237  28.236  12.230
25740W        W98000  24.546  42.797   5.211
25741W        W98001  40.340  13.732  13.896
25742W        W98002  38.898   5.297   4.169
25743W        W98003   6.869  32.902  14.270
25744W        W98004  26.217   0.009   1.706
25745W        W98005  43.279  42.930   0.363
25746W        W98006  39.299   7.735   4.521
25747W        W98007   1.369  43.622  13.957
25748W        W98008  39.525   9.040   5.437
25749W        W98009  34.376  33.064   1.330
25750W        W98010  24.873  11.842   0.453
25751W        W98011  16.415  38.927   3.288
25752W        W98012  21.122  42.741   3.826
25753W        W98013  24.029  17.243  11.658
25754W        W98014  31.053  36.308  11.534
25755W        W98015  14.100  40.759  12.458
25756W        W98016  18.053  42.079  10.596
25757W        W98017  30.982  30.386   4.152
25758W        W98018  38.257   3.224   0.339
25759W        W98019  24.711  44.870   3.558
25760W        W98020  40.505  14.828   4.742
25761W        W98021  30.186  24.203  14.379
25762W        W98022  39.837  31.284   1.087
25763W        W98023  18.524  26.811   1.794
25764W        W98024   5.339  22.747  12.962
25765W        W98025  20.492  28.319  12.500
25766W        W98026  30.939  15.163   0.021
25767W        W98027  15.865  35.565  10.899
25768W        W98028   2.510   2.669  12.880
25769W        W98029  20.377  39.031   0.856
25770W        W98030   8.126  42.486   1.827
25771W        W98031  33.623  13.870   2.177
25772W        W98032   4.913  38.079   1.933
25773W        W98033   9.272  23.506  10.331
25774W        W98034  39.154  41.031  14.863
25775W        W98035  23.929   0.393   2.251
25776W        W98036  37.980   8.364   1.439
25777W        W98037  13.804  13.384  14.826
25778W        W98038  27.480  29.943  10.228
25779W        W98039  19.351  28.684   3.037
25780W        W98040  24.900   3.186   2.441
25781W        W98041   4.476  24.014  13.478
25782W        W98042  29.274  32.147   3.763
25783W        W98043  34.615   7.755   0.851
25784W        W98044  27.983  20.416   4.670
25785W        W98045  39.370  39.312   4.085
25786W        W98046  13.701  14.101   3.448
25787W        W98047  11.245  36.277   3.294
25788W        W98048  18.638  34.542  11.900
25789W        W98049  15.732  13.321  13.281
25790W        W98050  23.720  20.549   2.421
25791W        W98051  23.562   5.620   3.180
25792W        W98052  22.205  13.032  11.948
25793W        W98053  16.585  35.002   0.445
25794W        W98054   7.253  18.248  13.336
25795W        W98055  15.050  24.342  12.466
25796W        W98056  14.167  39.558   2.868
25797W        W98057  33.359  32.446   0.984
25798W        W98058   9.439  21.640  12.149
25799W        W98059  39.887  41.508  11.691
25800W        W98060  16.713  23.461  12.163
25801W        W98061   1.981  37.410   3.150
25802W        W98062   2.986  33.366  12.492
25803W        W98063  39.849  33.730  14.290
25804W        W98064  33.639   2.401   3.751
25805W        W98065   7.740  28.574  12.015
25806W        W98066  12.087  17.230  10.182
25807W        W98067  29.395  17.314  13.634
25808W        W98068  38.367  37.602  12.398
25809W        W98069  38.902  39.842   4.986
25810W        W98070   4.384  29.571   0.084
25811W        W98071   5.542  43.140   4.717
25812W        W98072   7.475  25.415   2.371
25813W        W98073  27.299  12.034   1.612
25814W        W98074  32.495   7.395   1.801
25815W        W98075  38.625   8.950   1.261
25816W        W98076  24.536  39.616   1.846
25817W        W98077  30.392   2.258   2.412
25818W        W98078  11.764   6.909   2.792
25819W        W98079  29.623   3.445   2.227
25820W        W98080  25.690  32.096  14.963
25821W        W98081  34.600  38.069   0.358
25822W        W98082  24.652   4.495   2.399
25823W        W98083  34.867  38.289   2.816
25824W        W98084   6.847  44.172  13.918
25825W        W98085  29.947  36.149   1.901
25826W        W98086  31.452  14.065  11.460
25827W        W98087  42.998  28.358  12.477
25828W        W98088  23.247  15.517   1.623
25829W        W98089  44.342  21.452  10.087
25830W        W98090  34.847  12.368  14.421
25831W        W98091  31.440  10.166   2.244
25832W        W98092  37.065  18.121  14.512
25833W        W98093   7.996  36.553  12.628
25834W        W98094  19.924  13.762  10.601
25835W        W98095  15.116  28.145  13.506
25836W        W98096   0.795  14.810  10.990
25837W        W98097  11.825  39.594  13.775
25838W        W98098  10.090   1.570  11.911
25839W        W98099  42.340  42.261   4.495
25840W        W98100  27.623  40.795   1.006
25841W        W98101  21.306   3.360   4.223
25842W        W98102   5.227  35.614   0.415
25843W        W98103  27.655  42.029  14.873
25844W        W98104  23.004  23.255  12.308
25845W        W98105   6.271   0.460  13.881
25846W        W98106  13.270  25.545  10.800
25847W        W98107  28.272   1.909   2.172
25848W        W98108   0.758   1.486   1.793
25849W        W98109  37.827   5.874   3.823
25850W        W98110  32.143  13.336  13.737
25851W        W98111  42.860  29.422   4.634
25852W        W98112  15.141  38.294  14.808
25853W        W98113  19.772   4.461  13.576
25854W        W98114   6.454  10.080   2.822
25855W        W98115  17.649  13.862   4.627
25856W        W98116  30.112   3.033   2.481
25857W        W98117  22.163  21.090   3.018
25858W        W98118   9.825  43.514   2.107
25859W        W98119   8.869  33.991  11.813
25860W        W98120  20.016  35.515  12.621
25861W        W98121  26.412  24.536  13.266
25862W        W98122   4.481  22.115  13.612
25863W        W98123  26.741  44.284   3.705
25864W        W98124  31.322  13.882   4.694
25865W        W98125   5.237   9.396   3.317
25866W        W98126  40.309  12.485  12.299
25867W        W98127  12.231   6.850   0.860
25868W        W98128  43.564  16.501   0.892
25869W        W98129  24.788   2.957   1.220
25870W        W98130   5.244  29.444  13.379
25871W        W98131  20.628  21.789  11.999
25872W        W98132   6.455   8.889   0.316
25873W        W98133   4.444  26.169   0.623
25874W        W98134  36.676  18.199  12.423
25875W        W98135  41.403  44.012   4.642
25876W        W98136  11.654  43.960  12.290
25877W        W98137  44.485   6.825   9.992
25878W        W98138  35.184   4.263  10.825
25879W        W98139  37.790  22.886   1.606
25880W        W98140  29.918  37.318   4.279
25881W        W98141  33.166   4.834  11.129
25882W        W98142   0.411   7.590  13.558
25883W        W98143   8.856  33.405  10.275
25884W        W98144   2.493  31.394   2.735
25885W        W98145   3.387  11.781   3.632
25886W        W98146  24.592  25.750   0.890
25887W        W98147  21.588  29.971   4.312
25888W        W98148  14.780  29.206  10.201
25889W        W98149  11.306  21.503   1.415
25890W        W98150  21.819  20.193  13.756
25891W        W98151  21.056  30.081   4.474
25892W        W98152  13.600  33.911   1.973
25893W        W98153  44.540  17.689   1.296
25894W        W98154   4.462  31.601   1.205
25895W        W98155  27.082  25.139  13.111
25896W        W98156  40.846  32.038  10.195
25897W        W98157  38.082   4.113  10.684
25898W        W98158  15.508  28.681   1.266
25899W        W98159  43.327  25.150   1.417
25900W        W98160  24.153  43.245  11.892
25901W        W98161   5.764  31.451   3.667
25902W        W98162  40.527   4.852  10.201
25903W        W98163  17.833  39.188   0.804
25904W        W98164  31.408  31.144   2.210
25905W        W98165  13.499  36.499  12.745
25906W        W98166  17.037  17.066   1.831
25907W        W98167  16.052   0.350  10.640
25908W        W98168   1.095  41.576   0.710
25909W        W98169  28.850  16.167  13.484
25910W        W98170  44.236  38.655  13.758
25911W        W98171  35.629  44.361  14.047
25912W        W98172  16.826  34.185   0.745
25913W        W98173  30.130  21.346  12.449
25914W        W98174  40.328  25.629  10.674
25915W        W98175  17.187  25.601   0.891
25916W        W98176  20.189  36.195  13.740
25917W        W98177  25.381  41.884   4.984
25918W        W98178  17.570  10.960   1.767
25919W        W98179  28.632   6.273   2.791
25920W        W98180  39.407  42.984  12.595
25921W        W98181  39.840  29.470  14.913
25922W        W98182  34.900  29.868   2.413
25923W        W98183  29.238  16.807   0.726
25924W        W98184  17.343  43.751  14.252
25925W        W98185  25.683  14.287   2.296
25926W        W98186   1.752  18.405  13.503
25927W        W98187  40.234  32.549   1.656
25928W        W98188  24.960  14.457  11.067
25929W        W98189   6.467  29.729  12.371
25930W        W98190  20.487  38.509   0.855
25931W        W98191  11.894  21.206   3.845
25932W        W98192  10.536   5.161   4.136
25933W        W98193  10.299  37.083  13.488
25934W        W98194  44.864   7.810   1.705
25935W        W98195  43.349  32.425   4.077
25936W        W98196  17.110  40.003   0.122
25937W        W98197  26.139   3.242  13.583
25938W        W98198   9.096  36.502   0.892
25939W        W98199  25.433  37.523  11.895
25940W        W98200   0.885  12.141  10.376
25941W        W98201  34.449  44.069   4.610
25942W        W98202   1.516  28.121  10.790
25943W        W98203   7.291  24.559   4.432
25944W        W98204   2.935  43.364   0.387
25945W        W98205  26.026  19.272   3.734
25946W        W98206  21.234  31.419   0.238
25947W        W98207  14.289  13.364   1.959
25948W        W98208  14.724  41.444  13.530
25949W        W98209  28.581  39.353  14.008
25950W        W98210  33.235   5.196   3.636
25951W        W98211  28.768  27.080   2.877
25952W        W98212   5.699  42.387  14.853
25953W        W98213  19.332   0.247  12.577
25954W        W98214  44.517  10.207  14.439
25955W        W98215  36.069  21.737  13.377
25956W        W98216  25.247   5.891  10.733
25957W        W98217  13.259  32.676  14.527
25958W        W98218  27.337   6.268  13.384
25959W        W98219  38.154  36.337   4.299
25960W        W98220  44.442  37.790   0.530
25961W        W98221   1.791  19.696   1.083
25962W        W98222  21.960  14.397   1.605
25963W        W98223   8.991  43.447   0.829
25964W        W98224  12.560  23.635  11.602
25965W        W98225  43.401  25.558  12.883
25966W        W98226  11.881   1.417  14.358
25967W        W98227   5.355  10.368   0.749
25968W        W98228   9.111   9.780  14.816
25969W        W98229   7.352   4.754  11.563
25970W        W98230   9.439   0.402   2.226
25971W        W98231  22.658  40.848   2.749
25972W        W98232  41.472  43.577   1.179
25973W        W98233  27.899  29.210  13.134
25974W        W98234  20.635   0.879  10.411
25975W        W98235  23.635  16.865  11.054
25976W        W98236  24.311  12.756   4.077
25977W        W98237   9.168   1.156  11.249
25978W        W98238  18.129  40.450  13.150
25979W        W98239  30.631  25.084  12.007
25980W        W98240  16.500  36.833  12.535
25981W        W98241   1.670  34.285   2.326
25982W        W98242  31.834   2.334  10.809
25983W        W98243  19.122   8.563  12.947
25984W        W98244  24.158   4.183   3.928
25985W        W98245  28.817  39.085   4.897
25986W        W98246  21.433  27.879   5.656
25987W        W98247  20.748  16.079  11.142
25988W        W98248  16.842  16.683   0.461
25989W        W98249   7.688   1.236   0.945
25990W        W98250  13.781  43.727   2.825
25991W        W98251  18.156  15.660  11.512
25992W        W98252  36.540  31.684   4.691
25993W        W98253  26.209  23.239   3.593
25994W        W98254  13.501  10.885   4.385
25995W        W98255   8.579  39.543   1.899
25996W        W98256  43.095  43.270  12.518
25997W        W98257  22.564  31.690  12.494
25998W        W98258   7.974  24.864  14.399
25999W        W98259  30.771   6.515  10.423
26000W        W98260  32.541  19.266  13.161
26001W        W98261   7.400  39.618  11.640
26002W        W98262  44.187   1.035  14.363
26003W        W98263  37.836  40.403  12.148
26004W        W98264  13.876   3.152  11.114
26005W        W98265  28.296   5.232   4.774
26006W        W98266  31.024   3.805  11.444
26007W        W98267   3.933  21.734   1.921
26008W        W98268   3.740  35.398   0.724
26009W        W98269  12.371  18.068   3.069
26010W        W98270   5.495  19.650  12.140
26011W        W98271  10.866   7.738  12.457
26012W        W98272  44.757  40.563  13.109
26013W        W98273  38.734  11.317  11.733
26014W        W98274  32.008   6.335  13.051
26015W        W98275  27.976  23.508   3.650
26016W        W98276   5.357   1.767   1.276
26017W        W98277  38.332  23.716   0.765
26018W        W98278   4.872  10.701   2.893
26019W        W98279  25.919  43.979   1.043
26020W        W98280  10.362  23.796  11.164
26021W        W98281   3.649  16.120  11.538
26022W        W98282  18.948   2.836  10.695
26023W        W98283  12.398   0.844  11.355
26024W        W98284  34.939  13.096   1.374
26025W        W98285   5.640  21.925  11.972
26026W        W98286  20.776  37.424  11.617
26027W        W98287  30.064   9.408   4.337
26028W        W98288   6.176  27.953   3.030
26029W        W98289  35.153  33.575  10.916
26030W        W98290  40.334  12.664   2.757
26031W        W98291   6.541  31.458  14.699
26032W        W98292   6.790  17.533   0.324
26033W        W98293  22.183  34.034  14.722
26034W        W98294  25.915  30.771  11.278
26035W        W98295  16.282  20.835   2.610
26036W        W98296  39.745  37.881  11.642
26037W        W98297  27.204  15.224  10.932
26038W        W98298  24.263   6.192   5.220
26039W        W98299  17.120  18.227  10.681
26040W        W98300   8.065  13.686   2.759
26041W        W98301  42.026   3.199  14.784
26042W        W98302  43.362   8.700   1.672
26043W        W98303  22.068  41.317   2.246
26044W        W98304  10.588  10.724  14.825
26045W        W98305  42.435  37.417  10.418
26046W        W98306   8.899  35.317  11.651
26047W        W98307  26.663  17.835   4.667
26048W        W98308   7.242  29.235  13.444
26049W        W98309   0.882  38.019  13.032
26050W        W98310  38.309  15.762  13.005
26051W        W98311  35.871   9.616   2.735
26052W        W98312  20.775  15.008   0.468
26053W        W98313  43.871  19.131   3.712
26054W        W98314   2.592  11.567   0.784
26055W        W98315  43.880   3.715  10.760
26056W        W98316   6.950  39.512   2.919
26057W        W98317  14.562  27.589   0.151
26058W        W98318  21.584  14.747   4.593
26059W        W98319   0.761  16.669  13.781
26060W        W98320  44.912  31.609   3.312
26061W        W98321  28.511  21.188   2.150
26062W        W98322  43.926   4.147  11.162
26063W        W98323  19.573  42.928  10.401
26064W        W98324  14.151   2.857  11.479
26065W        W98325  41.912  37.501   2.657
26066W        W98326   6.283  26.524   1.875
26067W        W98327  43.894  32.605   4.116
26068W        W98328  10.534  24.643  14.548
26069W        W98329   7.950  20.245   2.563
26070W        W98330  28.182  12.551  10.270
26071W        W98331  41.915  14.180   4.496
26072W        W98332   9.048   4.958   4.704
26073W        W98333  27.466  30.998   0.916
26074W        W98334   2.760  23.057   1.357
26075W        W98335  27.895   4.851   1.251
26076W        W98336  34.010   4.289   0.375
26077W        W98337  10.658   4.288   2.060
26078W        W98338  27.490  32.947  12.416
26079W        W98339  40.729  32.008   3.773
26080W        W98340  19.671  22.579  12.699
26081W        W98341  29.658  25.457   4.244
26082W        W98342  26.374   2.561  12.432
26083W        W98343   3.163  13.682  12.576
26084W        W98344  34.784  12.617   2.278
26085W        W98345  40.864  29.383  10.536
26086W        W98346   4.889   8.243   2.440
26087W        W98347  13.264  23.174   3.163
26088W        W98348  11.681   0.980   3.143
26089W        W98349  22.154  12.069   1.842
26090W        W98350  19.855  33.001  10.656
26091W        W98351  35.864   7.713   4.799
26092W        W98352  29.951  27.367  14.965
26093W        W98353  33.141  34.025   2.752
26094W        W98354  42.839  34.060  12.918
26095W        W98355  11.366   7.910   4.727
26096W        W98356  44.359   3.412  10.162
26097W        W98357  25.774  15.636  10.251
26098W        W98358  36.110  31.737   3.584
26099W        W98359  34.178   0.314   2.849
26100W        W98360  21.495  31.977   0.975
26101W        W98361  20.106   5.813   5.011
26102W        W98362  35.847   5.711   1.850
26103W        W98363  41.321   8.709  13.789
26104W        W98364   8.927  37.051   2.634
26105W        W98365  29.928   6.379  11.517
26106W        W98366  22.060  21.459   0.727
26107W        W98367  24.098  25.700   3.117
26108W        W98368  11.632  31.111   4.342
26109W        W98369  24.988   8.472  10.711
26110W        W98370  42.098  17.066  14.552
26111W        W98371  27.569  40.600  10.934
26112W        W98372   3.347  31.203   1.819
26113W        W98373  29.342  15.665   3.390
26114W        W98374  44.918   3.991   0.531
26115W        W98375   7.260  37.899  14.907
26116W        W98376  43.801  15.809   4.535
26117W        W98377  43.974  23.788  10.675
26118W        W98378   8.654  22.610  11.145
26119W        W98379   0.239  11.361  11.144
26120W        W98380  44.553  19.731  11.452
26121W        W98381  10.281  20.283  12.605
26122W        W98382  16.740  10.865   1.293
26123W        W98383  34.397   4.018  13.016
26124W        W98384  15.973  38.690  10.202
26125W        W98385   3.941  25.331   4.062
26126W        W98386  20.359   6.498  13.054
26127W        W98387  34.421  28.502  14.340
26128W        W98388   9.282   2.997   3.140
26129W        W98389   9.279  17.218   0.962
26130W        W98390  12.244  13.180   0.394
26131W        W98391  10.728  30.439   4.705
26132W        W98392  14.502  12.152  14.454
26133W        W98393  21.206  32.335   2.653
26134W        W98394   9.269   3.919   3.323
26135W        W98395  21.626  17.170   2.364
26136W        W98396   6.674  37.315   0.838
26137W        W98397  36.912  30.117  13.044
26138W        W98398  40.113  17.084  13.573
26139W        W98399  28.664  23.167   0.331
26140W        W98400  43.208  16.852  12.008
26141W        W98401  40.578  42.708   0.794
26142W        W98402  44.420  22.505   2.667
26143W        W98403  20.148  40.573   1.351
26144W        W98404  28.431  39.849   1.251
26145W        W98405   3.353  40.062   3.916
26146W        W98406  37.940  44.028   0.530
26147W        W98407  20.155  12.627   4.499
26148W        W98408  30.403  22.493   3.781
26149W        W98409  15.763  36.654   1.828
26150W        W98410  36.444  21.298   4.086
26151W        W98411  33.932   2.238   2.387
26152W        W98412  16.723   7.640   3.160
26153W        W98413  43.687  23.197   4.129
26154W        W98414  10.161  32.517   2.330
26155W        W98415  15.494  10.724   4.158
26156W        W98416  21.736  25.639  12.454
26157W        W98417  14.667   6.175  13.230
26158W        W98418  22.970  18.436   3.379
26159W        W98419   2.787  37.069  12.933
26160W        W98420  18.799  24.479   2.370
26161W        W98421   2.021   7.327  14.381
26162W        W98422   7.154  35.873  10.699
26163W        W98423   5.405  20.272  11.582
26164W        W98424  16.850  36.900   1.294
26165W        W98425  27.605  24.254   4.637
26166W        W98426  10.541  16.250  11.456
26167W        W98427  13.161  43.079   1.428
26168W        W98428  29.535  27.298  11.648
26169W        W98429  29.603   2.412   1.781
26170W        W98430  44.889  42.267  12.167
26171W        W98431  23.735   7.676  11.617
26172W        W98432  41.033  44.526  14.910
26173W        W98433  26.611   2.183  11.838
26174W        W98434  29.711  40.001   3.616
26175W        W98435  34.433   3.975   3.142
26176W        W98436   4.448  22.697  12.888
26177W        W98437   5.306  11.434   4.146
26178W        W98438  26.008  30.192   1.149
26179W        W98439  42.192  10.752  14.314
26180W        W98440  11.820   2.717  13.842
26181W        W98441  31.053  41.782  12.120
26182W        W98442   3.816  17.214  14.395
26183W        W98443  16.896  26.100   3.202
26184W        W98444  22.111   0.917   0.361
26185W        W98445  27.570  12.207   2.405
26186W        W98446  29.404  28.552   4.541
26187W        W98447  31.460  42.096  13.054
26188W        W98448  36.119  43.842  14.538
26189W        W98449  21.843  19.698   1.865
26190W        W98450  22.789  39.745   3.565
26191W        W98451  19.012  26.035  14.788
26192W        W98452  23.467  33.049   2.367
26193W        W98453  23.975   7.967   1.849
26194W        W98454  19.064  32.900  14.420
26195W        W98455  21.798  17.229   4.609
26196W        W98456   9.392  32.858   3.099
26197W        W98457  35.492  14.732   1.428
26198W        W98458  29.832   7.453   1.351
26199W        W98459   7.439   7.419   2.204
26200W        W98460  27.594  29.244   4.034
26201W        W98461  24.849  36.313   3.142
26202W        W98462  15.247  42.868   1.793
26203W        W98463  15.366  39.702   0.764
26204W        W98464   8.833   4.421   3.229
26205W        W98465   3.959  11.329   1.021
26206W        W98466  41.992  13.101  10.534
26207W        W98467   2.907   3.472   2.619
26208W        W98468   4.384  25.176  14.091
26209W        W98469  38.975  27.116   0.842
26210W        W98470  15.281  25.661   3.165
26211W        W98471  32.157  43.907  11.642
26212W        W98472  21.276  25.975   1.434
26213W        W98473  39.834  38.005  14.464
26214W        W98474  35.268  42.790   1.733
26215W        W98475  11.651  37.327  14.499
26216W        W98476  25.395  11.366   2.882
26217W        W98477  23.447   9.354  13.812
26218W        W98478  24.641  35.881   3.345
26219W        W98479   9.662   2.222  13.859
26220W        W98480  40.353   7.512   0.450
26221W        W98481  34.607   7.869  10.488
26222W        W98482  44.273   2.421  13.529
26223W        W98483  26.526   2.215  10.658
26224W        W98484  43.471  26.145   2.172
26225W        W98485  35.953  43.083  10.713
26226W        W98486  34.078  22.236   0.258
26227W        W98487  44.382  42.792   1.691
26228W        W98488  35.069   8.702   1.942
26229W        W98489  28.550  12.249  10.650
26230W        W98490   4.656   1.402   1.431
26231W        W98491  26.787  18.123  10.643
26232W        W98492  38.426  14.066   4.120
26233W        W98493  39.337  32.480   2.296
26234W        W98494   5.724  11.135   1.305
26235W        W98495  41.960  30.633  10.569
26236W        W98496  11.718  25.486  11.741
26237W        W98497  43.875  40.087   2.384
26238W        W98498  19.302  13.606  12.996
26239W        W98499  26.587  23.263   2.296
26240W        W98500  10.429  16.339   3.755
26241W        W98501  35.590  26.913   3.829
26242W        W98502  32.988  19.289  11.470
26243W        W98503  43.044  15.601  12.043
26244W        W98504  43.066  20.678   3.678
26245W        W98505  36.634   5.652  11.260
26246W        W98506   9.917  23.134  11.948
26247W        W98507  32.602  34.618  13.823
26248W        W98508  42.561  30.059  11.574
26249W        W98509  38.411  21.636   2.923
26250W        W98510  11.729  19.030   2.574
26251W        W98511  42.328  12.603   4.123
26252W        W98512   0.556   3.414   1.148
26253W        W98513   8.619  27.443  12.121
26254W        W98514  44.038  35.223   2.395
26255W        W98515  13.238   9.470   4.657
26256W        W98516  11.404  36.610   1.343
26257W        W98517  25.273   7.705   2.845
26258W        W98518  22.453   4.782   0.711
26259W        W98519   6.286   8.244  11.642
26260W        W98520  15.152  25.193  11.172
26261W        W98521  21.753  20.503  11.060
26262W        W98522   7.586  29.979   0.307
26263W        W98523  44.036  41.306  11.288
26264W        W98524  21.603  21.217  13.571
26265W        W98525  30.660  22.253   2.755
26266W        W98526   9.281  33.178  11.051
26267W        W98527   9.106  16.639   0.418
26268W        W98528   0.984   0.638  12.130
26269W        W98529   5.363  10.497   1.401
26270W        W98530  18.756  27.546  10.674
26271W        W98531  21.462  42.910  13.491
26272W        W98532  26.646  39.745   9.759
26273W        W98533   8.965  15.629   1.760
26274W        W98534   2.467  34.917  11.871
26275W        W98535  32.457  27.711  12.595
26276W        W98536  13.646  38.937   2.847
26277W        W98537  14.621  39.384   4.756
26278W        W98538  22.874  20.564   4.138
26279W        W98539   2.283  31.961  10.650
26280W        W98540   8.245  37.931  10.743
26281W        W98541  14.733  27.427   9.979
26282W        W98542  29.633  44.972   1.327
26283W        W98543  23.019  32.414  13.013
26284W        W98544   0.881   2.595   0.340
26285W        W98545  36.143  41.356  12.537
26286W        W98546  27.937   2.637   1.352
26287W        W98547  39.317  39.510  10.729
26288W        W98548  35.392   9.907   1.315
26289W        W98549  32.414  16.634  13.923
26290W        W98550   1.737  25.640  13.626
26291W        W98551  17.865  20.143   2.365
26292W        W98552  24.920  29.833  13.924
26293W        W98553   2.506  43.279   3.870
26294W        W98554  30.237  22.048   3.565
26295W        W98555  40.330   3.463  13.410
26296W        W98556  22.109  36.424  11.017
26297W        W98557  19.849  32.378  11.500
26298W        W98558  23.590  26.616   0.376
26299W        W98559  30.136  12.158  11.615
26300W        W98560  33.478  26.938  12.941
26301W        W98561  25.416  36.212  12.868
26302W        W98562  16.229  15.604   3.299
26303W        W98563   0.032  23.786   1.608
26304W        W98564  30.683   6.288  12.025
26305W        W98565  19.707  44.395   1.971
26306W        W98566  32.536  20.411   4.617
26307W        W98567  36.938  41.092  11.290
26308W        W98568  26.770   7.663  12.080
26309W        W98569  27.144   0.303   1.319
26310W        W98570  16.829  17.341  13.962
26311W        W98571  41.230  28.855   2.627
26312W        W98572  32.839  10.893   2.144
26313W        W98573  13.521   4.003   2.425
26314W        W98574  15.339  18.703  12.011
26315W        W98575  42.878  33.413  11.635
26316W        W98576  27.119  31.634  10.722
26317W        W98577  26.652  39.280  12.041
26318W        W98578   3.118  37.861  11.493
26319W        W98579  25.646  42.001   5.420
26320W        W98580  35.302  30.210   2.362
26321W        W98581  42.096  20.836  11.205
26322W        W98582   5.210  40.232  12.522
26323W        W98583   0.537  41.350   4.486
26324W        W98584  33.853  19.610  14.552
26325W        W98585  40.281  43.904  14.487
26326W        W98586  34.771  10.979  12.444
26327W        W98587  43.856   4.909  10.505
26328W        W98588  24.538  31.909  10.437
26329W        W98589   1.666  33.624   4.210
26330W        W98590   5.726  11.035  12.004
26331W        W98591  24.060  10.267   1.813
26332W        W98592  34.575   0.248  11.196
26333W        W98593  30.638  30.008   4.211
26334W        W98594  14.658  33.977   0.005
26335W        W98595  19.036   8.182   4.147
26336W        W98596   2.220  34.369  11.201
26337W        W98597   5.001   2.088  14.328
26338W        W98598   7.215  43.985  10.480
26339W        W98599  28.443   2.504  13.101
26340W        W98600  38.144   2.709   0.216
26341W        W98601   8.719  12.722  14.572
26342W        W98602  21.051  16.585  10.706
26343W        W98603  22.201  38.993  12.455
26344W        W98604  22.816  41.715  12.505
26345W        W98605  32.191   4.225   2.977
26346W        W98606  17.630  27.046   4.323
26347W        W98607  42.102   3.639  13.919
26348W        W98608  38.810  19.006   4.338
26349W        W98609   7.860  32.012  13.768
26350W        W98610  33.481  35.232   5.056
26351W        W98611  31.951  34.887   3.420
26352W        W98612  41.471   3.871   0.433
26353W        W98613  38.776  21.311  13.826
26354W        W98614  40.830  13.540  13.968
26355W        W98615  44.983  34.245   4.108
26356W        W98616   8.354  29.986   4.544
26357W        W98617   7.267   1.798  11.602
26358W        W98618  26.074  15.195  11.934
26359W        W98619  13.270  38.287  11.457
26360W        W98620  10.883  30.074   2.816
26361W        W98621   1.084   4.484   0.522
26362W        W98622  22.713   4.847   4.458
26363W        W98623   9.295   4.734   4.303
26364W        W98624  28.951  30.425  12.612
26365W        W98625   5.507   1.947  14.402
26366W        W98626   8.616   8.112  12.074
26367W        W98627   2.401  44.824  13.877
26368W        W98628  38.444  10.450  11.138
26369W        W98629  34.509   3.991  14.716
26370W        W98630   7.518  34.837  13.009
26371W        W98631  10.332  31.418   0.410
26372W        W98632  35.761  10.148   1.972
26373W        W98633   3.536   5.234  12.541
26374W        W98634  30.710  42.805  10.740
26375W        W98635  23.785   2.502   2.741
26376W        W98636  11.756  12.087   2.877
26377W        W98637  16.561  25.990  13.381
26378W        W98638  20.687   3.403   1.172
26379W        W98639  43.786  28.476   1.178
26380W        W98640  28.498  10.247   3.482
26381W        W98641  32.563   2.488  10.774
26382W        W98642  10.396  35.081   2.217
26383W        W98643  27.737  24.494  11.055
26384W        W98644  42.487  21.465   3.526
26385W        W98645  12.255  29.181  11.988
26386W        W98646  33.132   2.730   4.860
26387W        W98647  35.850  41.939  13.929
26388W        W98648  16.120  12.638  10.953
26389W        W98649  11.343  20.125   0.081
26390W        W98650  24.133  30.847  10.561
26391W        W98651  26.467  35.498   3.977
26392W        W98652  23.202  27.554  13.671
26393W        W98653   3.376  44.408  14.828
26394W        W98654   3.355  11.633  14.043
26395W        W98655   0.053  31.425   2.669
26396W        W98656  33.584  32.716   4.432
26397W        W98657   0.288   2.331  11.129
26398W        W98658  17.557  38.312   3.614
26399W        W98659   6.181   5.886  10.346
26400W        W98660  20.211  14.203  12.388
26401W        W98661   4.381  38.778  11.245
26402W        W98662   6.169  12.728   2.205
26403W        W98663  44.280  32.068  11.545
26404W        W98664  44.819  12.293  12.907
26405W        W98665  19.502   5.344  13.965
26406W        W98666   3.942  39.804   2.760
26407W        W98667  27.326   1.799  11.518
26408W        W98668  27.467  39.716  10.696
26409W        W98669  20.801   7.749   1.724
26410W        W98670  15.071  26.465   2.093
26411W        W98671  36.537   2.159   5.078
26412W        W98672  37.471  10.778  14.102
26413W        W98673  44.088   9.302  10.735
26414W        W98674  44.106  42.359   0.669
26415W        W98675  23.168  13.803   2.207
26416W        W98676  25.773  13.585   4.743
26417W        W98677   2.362  13.231   0.079
26418W        W98678  20.655  16.998   1.991
26419W        W98679   5.523  14.629  12.461
26420W        W98680  32.559  35.067   4.502
26421W        W98681  36.763  10.104  11.838
26422W        W98682  29.233  43.242  11.049
26423W        W98683  32.680  44.081   1.788
26424W        W98684   6.358  20.760  10.737
26425W        W98685  24.814  44.779  14.240
26426W        W98686  37.981  38.020  13.430
26427W        W98687  10.570   4.960  12.103
26428W        W98688  42.993  34.385   1.577
26429W        W98689  42.618  37.219   2.179
26430W        W98690  12.610  25.396  11.868
26431W        W98691  15.509  13.152  12.838
26432W        W98692  23.203  40.051   4.322
26433W        W98693  16.475  23.094  12.470
26434W        W98694  29.294  29.823   5.376
26435W        W98695   7.394   3.988  12.440
26436W        W98696  37.873  24.004  11.091
26437W        W98697  23.152  27.940   0.498
26438W        W98698  22.057  36.256   0.485
26439W        W98699  39.298  44.438   1.647
26440W        W98700  22.471  21.544  14.423
26441W        W98701  13.896   5.175   2.687
26442W        W98702  40.937  21.784   1.992
26443W        W98703  41.623  25.373  14.938
26444W        W98704  23.545   4.192   1.450
26445W        W98705  25.635  41.854  12.040
26446W        W98706  14.651  26.790  13.038
26447W        W98707  27.950   4.255   2.207
26448W        W98708  24.281  22.024  13.376
26449W        W98709  38.885  35.430  14.303
26450W        W98710  40.793  12.627   3.184
26451W        W98711  39.122  28.104  13.261
26452W        W98712  38.041   1.746   3.737
26453W        W98713  29.823  23.286   4.379
26454W        W98714  18.227  21.047   3.735
26455W        W98715  17.105   6.867   4.620
26456W        W98716  36.291  38.317   2.783
26457W        W98717   7.334   9.370  13.797
26458W        W98718  18.776  40.299   0.002
26459W        W98719  37.905  31.152  12.958
26460W        W98720  10.607  10.359   1.360
26461W        W98721  44.725  25.857   4.886
26462W        W98722  33.371  13.670   2.657
26463W        W98723  22.115  31.579  12.111
26464W        W98724  34.457  20.570  14.737
26465W        W98725  31.898  21.722  10.581
26466W        W98726  10.324   7.131  10.609
26467W        W98727  13.820  41.990  14.877
26468W        W98728  41.541  34.309   1.328
26469W        W98729  36.662  43.464   2.367
26470W        W98730  13.554  18.189  13.437
26471W        W98731  25.511  33.583   4.316
26472W        W98732  36.098   7.467   0.995
26473W        W98733  40.965  18.541   2.130
26474W        W98734   5.799   5.738   4.747
26475W        W98735   3.408  26.309  13.396
26476W        W98736  11.292  12.419  10.723
26477W        W98737  20.603  29.913   2.478
26478W        W98738   8.290  19.326  12.502
26479W        W98739  23.492  15.243   1.228
26480W        W98740  35.947  32.843   4.191
26481W        W98741   5.948   5.455   4.311
26482W        W98742  43.751  28.312   4.516
26483W        W98743  34.639  44.000  12.587
26484W        W98744  44.844  33.412   0.773
26485W        W98745  28.196  23.251  14.508
26486W        W98746  30.937  37.042   3.871
26487W        W98747  31.136  44.488   0.755
26488W        W98748  38.547   6.277   2.630
26489W        W98749  23.593   5.336   3.757
26490W        W98750  38.871   4.284   1.395
26491W        W98751  19.186  42.858   0.376
26492W        W98752  38.942  13.642  11.323
26493W        W98753  42.963  19.318   2.725
26494W        W98754   5.193   7.248  10.988
26495W        W98755   3.466  20.192  14.505
26496W        W98756   7.909  30.033  11.118
26497W        W98757   8.739  29.134  10.680
26498W        W98758   3.962   0.021   4.286
26499W        W98759   1.252  38.957  13.530
26500W        W98760  12.378  34.060   1.731
26501W        W98761  44.335   4.889  12.037
26502W        W98762   5.829   5.732   2.791
26503W        W98763  42.590  44.041   2.906
26504W        W98764  36.615  33.075   3.205
26505W        W98765  26.705  35.913   3.718
26506W        W98766  23.257  30.172  12.877
26507W        W98767  12.613  10.353  13.473
26508W        W98768   8.197  28.492  13.854
26509W        W98769  42.485  43.322   1.681
26510W        W98770  38.323  37.499   2.808
26511W        W98771   9.212  40.311  11.254
26512W        W98772   2.231  12.372   1.905
26513W        W98773  36.970  26.201  13.629
26514W        W98774  21.976  30.634   1.791
26515W        W98775  17.254  29.309  10.711
26516W        W98776  26.497  12.869   2.646
26517W        W98777  44.248  19.518   1.544
26518W        W98778   1.178  20.246   0.680
26519W        W98779  31.839  26.737  11.419
26520W        W98780  33.264  26.732   4.507
26521W        W98781  16.928  25.700   1.329
26522W        W98782  33.547  13.328   3.171
26523W        W98783   1.371  42.083  13.382
26524W        W98784   4.974  19.322   2.427
26525W        W98785  26.686  10.645  12.832
26526W        W98786   3.588  33.645  11.566
26527W        W98787  36.636   1.924   4.169
26528W        W98788  21.469  44.185  12.873
26529W        W98789  18.070  35.820   1.849
26530W        W98790   9.835  29.541   0.856
26531W        W98791  20.091  25.774   0.585
26532W        W98792  12.106  24.284  13.189
26533W        W98793  16.949  32.694   2.133
26534W        W98794  24.025  38.025  14.932
26535W        W98795   6.990  33.007   1.786
26536W        W98796  15.152  34.014  14.044
26537W        W98797  28.524  43.997  13.042
26538W        W98798  44.493  20.965  13.082
26539W        W98799  29.024   4.428  11.968
26540W        W98800  31.447  37.514   1.262
26541W        W98801  17.963  14.630   1.184
26542W        W98802  32.894   4.766  12.679
26543W        W98803  44.737  34.421  14.270
26544W        W98804   1.802   7.731  10.755
26545W        W98805   3.126  31.351  10.747
26546W        W98806  10.448  20.728   5.064
26547W        W98807  13.826  27.193   1.551
26548W        W98808  25.942  19.658  14.366
26549W        W98809  18.604  29.926  12.261
26550W        W98810  11.640  40.921  13.352
26551W        W98811  22.590  30.974   4.480
26552W        W98812  37.423  13.763   0.283
26553W        W98813  36.959  20.582   2.932
26554W        W98814  20.155  17.066   3.688
26555W        W98815  38.073  29.542  12.589
26556W        W98816  21.156  42.355  10.431
26557W        W98817  24.381  30.838  12.185
26558W        W98818   7.281  11.391   4.099
26559W        W98819  14.355   9.823  10.567
26560W        W98820  41.058  20.730  12.914
26561W        W98821  14.368  14.772   1.276
26562W        W98822   1.315  17.444   4.220
26563W        W98823   5.894  42.574   3.444
26564W        W98824  16.145  33.380  14.799
26565W        W98825  22.586  28.176  12.102
26566W        W98826   8.905  10.899   4.000
26567W        W98827  32.181  23.165   2.905
26568W        W98828   6.219  44.264  11.805
26569W        W98829  33.792  36.751   0.815
26570W        W98830  43.951  25.511  13.311
26571W        W98831  14.725  42.208   4.141
26572W        W98832   2.933  39.015  12.772
26573W        W98833  22.011  34.946  14.488
26574W        W98834  37.817   1.321   0.431
26575W        W98835  29.615  26.221  12.440
26576W        W98836  35.040  27.983  10.327
26577W        W98837  36.796  21.619  11.225
26578W        W98838  25.067  24.282   5.073
26579W        W98839   2.871   4.329  14.764
26580W        W98840  13.779   1.162  12.582
26581W        W98841   6.015  43.803   3.277
26582W        W98842  18.827  17.311  10.165
26583W        W98843  29.853  23.144  14.985
26584W        W98844  14.430  29.930   5.456
26585W        W98845   7.794  31.988   4.490
26586W        W98846  17.043   3.879  10.927
26587W        W98847  27.335  24.173   1.466
26588W        W98848  20.500  11.158  11.592
26589W        W98849  22.629  23.815   3.215
26590W        W98850   7.333   8.333   3.142
26591W        W98851  22.325   8.726   1.782
26592W        W98852   3.968   2.727   0.760
26593W        W98853   5.194  23.464   0.314
26594W        W98854  15.113  20.603   1.699
26595W        W98855  30.251   1.551  12.083
26596W        W98856   8.413  26.052  14.171
26597W        W98857  42.128   2.164   0.719
26598W        W98858  22.049  30.550  12.690
26599W        W98859  36.273   2.080  11.162
26600W        W98860   4.900  12.205  14.956
26601W        W98861  23.179   5.573  10.939
26602W        W98862  40.032  16.717   0.744
26603W        W98863   4.770   2.710  13.491
26604W        W98864  43.123  29.490  11.997
26605W        W98865  12.907   9.446   1.159
26606W        W98866  15.976  36.565   3.729
26607W        W98867  14.499  15.654   3.234
26608W        W98868  38.546  15.093   0.413
26609W        W98869  10.406  29.644  11.949
26610W        W98870  35.032  44.135  12.928
26611W        W98871  44.966  42.305  11.649
26612W        W98872  42.399  11.389   1.820
26613W        W98873  14.609  14.104   0.741
26614W        W98874  31.023  44.219  10.633
26615W        W98875  12.516   4.984   3.697
26616W        W98876  23.965  41.851   3.735
26617W        W98877   8.196   3.709   0.716
26618W        W98878   3.808   6.434  13.640
26619W        W98879  17.081  18.620   1.262
26620W        W98880  41.834  34.392   2.374
26621W        W98881  24.909  30.992  12.111
26622W        W98882  19.271  10.198   4.505
26623W        W98883  25.293  10.710  10.761
26624W        W98884  30.995  24.549  14.507
26625W        W98885  15.657  13.347   2.186
26626W        W98886   8.969   3.076  11.025
26627W        W98887  38.031   0.737  11.208
26628W        W98888  15.043  35.391   0.755
26629W        W98889  19.569  13.598   4.596
26630W        W98890   4.681  43.832   2.126
26631W        W98891  37.875   3.593   0.468
26632W        W98892  14.809  11.474  13.757
26633W        W98893   3.279  28.792   4.498
26634W        W98894  36.268  30.157   1.422
26635W        W98895  43.095   4.163  10.633
26636W        W98896  39.617  23.545  12.905
26637W        W98897  36.117  37.832   3.681
26638W        W98898  11.745  39.090  13.827
26639W        W98899  15.581  21.783   4.352
26640W        W98900  12.311  17.724  11.449
26641W        W98901  41.351  13.369   2.370
26642W        W98902  42.957  25.986   2.621
26643W        W98903   7.765  26.659  13.595
26644W        W98904  24.541  14.757  13.107
26645W        W98905  27.064   4.730  11.338
26646W        W98906  43.864  15.404  14.002
26647W        W98907  13.789   6.435   3.187
26648W        W98908  24.147  28.048   0.804
26649W        W98909  37.428  24.277   1.754
26650W        W98910   2.288   0.266  14.945
26651W        W98911  23.943   5.736  13.798
26652W        W98912   9.657   7.167  13.467
26653W        W98913  39.496  41.763   2.872
26654W        W98914  41.392   7.251  13.308
26655W        W98915   6.851  33.149  11.208
26656W        W98916   6.098   7.332  13.335
26657W        W98917  20.058   3.722   2.218
26658W        W98918  44.117   1.451  11.950
26659W        W98919  20.471   2.798  11.372
26660W        W98920  21.350  25.765  13.682
26661W        W98921  44.567   8.250   1.728
26662W        W98922  41.078  24.600   0.427
26663W        W98923  23.674  38.328  10.753
26664W        W98924  28.331   0.506  11.187
26665W        W98925   3.322  40.586   3.692
26666W        W98926  30.241  31.001  13.450
26667W        W98927  14.094   2.929   4.160
26668W        W98928  10.127   9.577   3.601
26669W        W98929  19.979   6.365   1.306
26670W        W98930  33.138  38.745  11.538
26671W        W98931  28.166  13.243   3.780
26672W        W98932  23.134  28.481   2.812
26673W        W98933  14.231  29.895   3.172
26674W        W98934  40.074  12.811   2.317
26675W        W98935   3.107  22.052  10.876
26676W        W98936  19.415  29.210  14.077
26677W        W98937  28.880  11.612   3.064
26678W        W98938  14.385  36.375  14.525
26679W        W98939   8.423  25.385   3.113
26680W        W98940  16.720   1.782  10.910
26681W        W98941  17.992  36.079   1.392
26682W        W98942  16.064  15.205  11.281
26683W        W98943  41.927  31.139  10.779
26684W        W98944   0.385  31.116  12.124
26685W        W98945  22.474  38.188  12.490
26686W        W98946   6.492  18.325  14.451
26687W        W98947   7.489   6.194   3.707
26688W        W98948  41.795   1.962  12.500
26689W        W98949   5.612  23.445  14.949
26690W        W98950  22.921   5.162   1.835
26691W        W98951  30.128   6.303  14.993
26692W        W98952  44.055  15.183   1.653
26693W        W98953  40.525  41.874   0.769
26694W        W98954  39.562   0.944  12.582
26695W        W98955  24.312  10.865   4.128
26696W        W98956  26.452   2.523  11.509
26697W        W98957  30.197  40.034  11.894
26698W        W98958  40.283  14.290   3.058
26699W        W98959  36.500  10.373   1.380
26700W        W98960  12.131  42.660  11.903
26701W        W98961  10.401  29.220  14.358
26702W        W98962  37.840   6.953  13.937
26703W        W98963   8.218  44.062   4.746
26704W        W98964  32.266  41.785   5.095
26705W        W98965  31.554  10.016  12.012
26706W        W98966  32.652  43.379  14.407
26707W        W98967  41.979  23.231   3.741
26708W        W98968  16.740   8.258  13.673
26709W        W98969  20.007   7.320   2.802
26710W        W98970  15.345  25.342   1.755
26711W        W98971   9.693  40.802  14.742
26712W        W98972  30.708   1.028  13.344
26713W        W98973   0.907  31.584   3.426
26714W        W98974  10.349  17.924   1.590
26715W        W98975  36.013  32.411  13.368
26716W        W98976  35.393   8.450  13.792
26717W        W98977  19.701  44.507  11.305
26718W        W98978   3.156  17.740   0.261
26719W        W98979   2.965  11.580   3.892
26720W        W98980  29.916  32.411   0.620
26721W        W98981  24.734  23.109  11.588
26722W        W98982   3.941  15.229   2.211
26723W        W98983   1.568   9.548  11.573
26724W        W98984  21.974  15.265   2.930
26725W        W98985  10.273  23.712   1.290
26726W        W98986  23.643  34.190  14.206
26727W        W98987  23.706  16.760   0.575
26728W        W98988  29.674  25.207   0.917
26729W        W98989  15.998  32.338  12.052
26730W        W98990  18.820  13.329  14.220
26731W        W98991  29.056   1.825  11.312
26732W        W98992  21.102   6.096   3.730
26733W        W98993   5.397  26.872  13.404
26734W        W98994  25.414  40.921   0.016
26735W        W98995  41.440  37.484   1.340
26736W        W98996  30.578  29.071  14.062
26737W        W98997  38.542   7.626   2.822
26738W        W98998   0.963   9.135   3.378
26739W        W98999  15.091   3.728   4.436
26740W        W99000  16.165   2.992   1.083
26741W        W99001   8.250   2.354  10.740
26742W        W99002  34.934  39.983   0.561
26743W        W99003   0.449  40.993  13.726
26744W        W99004  21.609  32.032  13.356
26745W        W99005   6.257   2.358   3.158
26746W        W99006  20.509  31.808  12.921
26747W        W99007   6.777  22.686   0.502
26748W        W99008  24.524  39.203   4.945
26749W        W99009  36.480  12.471   4.976
26750W        W99010  43.640  15.861  10.186
26751W        W99011  40.073  33.887   4.017
26752W        W99012  22.986  23.628   4.936
26753W        W99013   6.502  17.681  14.903
26754W        W99014  39.443  22.900  14.862
26755W        W99015  21.100  41.024  12.659
26756W        W99016  25.504  15.208   3.792
26757W        W99017  10.749  21.983  12.511
26758W        W99018   6.747   9.324  10.588
26759W        W99019  32.353  20.817   4.300
26760W        W99020  11.627   3.257  12.900
26761W        W99021  41.752  35.149  14.537
26762W        W99022  42.099  10.335   2.786
26763W        W99023  15.225   5.941   0.448
26764W        W99024  16.294  25.586  14.891
26765W        W99025  37.340  37.397   1.822
26766W        W99026  30.416  42.887   0.152
26767W        W99027  31.550  17.313   3.666
26768W        W99028  31.882   1.331  11.584
26769W        W99029  21.828  36.054  12.825
26770W        W99030  38.888  39.035  13.395
26771W        W99031  32.037  37.948  12.937
26772W        W99032  23.158   6.745  14.365
26773W        W99033  24.541  29.082  12.664
26774W        W99034  42.953  37.356  12.548
26775W        W99035  21.624  10.269  13.246
26776W        W99036  44.706  14.525  11.212
26777W        W99037  17.513  24.645   4.181
26778W        W99038  15.250  34.736  12.260
26779W        W99039  18.155   2.203   1.039
26780W        W99040  36.087  25.158   3.456
26781W        W99041  38.433   1.166  14.147
26782W        W99042  44.579  26.645  10.581
26783W        W99043  10.580  34.515  14.242
26784W        W99044   6.249   6.683  14.911
26785W        W99045  42.998  39.468   2.328
26786W        W99046   5.846  30.404  14.861
26787W        W99047  15.117  21.564   0.510
26788W        W99048  27.162  29.079   0.427
26789W        W99049  41.112  34.347  12.043
26790W        W99050  13.526  43.838  13.031
26791W        W99051  30.285  42.510   2.156
26792W        W99052   7.338  43.854   4.594
26793W        W99053   9.096  43.454  12.350
26794W        W99054   2.754  43.929   2.338
26795W        W99055  44.287  28.977   2.310
26796W        W99056  40.534  27.699  14.412
26797W        W99057  29.688  29.926   0.707
26798W        W99058  33.921  12.250   3.490
26799W        W99059  27.888  27.625  14.944
26800W        W99060  28.372  13.172   1.192
26801W        W99061   9.791  17.316   0.704
26802W        W99062   2.685  37.161  14.445
26803W        W99063  44.495   1.099   3.433
26804W        W99064   2.788  27.775  12.520
26805W        W99065  44.195  32.552  11.621
26806W        W99066   5.927  14.095   3.928
26807W        W99067  44.959  33.289   2.705
26808W        W99068   1.891  10.900   0.582
26809W        W99069  43.741  12.294   4.022
26810W        W99070  34.522  17.585   1.858
26811W        W99071  19.664  12.320   4.162
26812W        W99072   5.207  40.028   0.003
26813W        W99073   7.188  21.533   0.364
26814W        W99074  27.135  21.574  13.545
26815W        W99075  34.537  14.549  12.456
26816W        W99076  13.734  42.079  12.594
26817W        W99077  42.758  43.112  10.823
26818W        W99078  27.473  23.759  10.811
26819W        W99079  40.193   7.865  11.087
26820W        W99080  18.538  13.781  12.079
26821W        W99081  41.518  38.469   1.211
26822W        W99082  37.081  37.466  11.106
26823W        W99083  21.014  31.139   1.848
26824W        W99084  36.936  35.846   2.906
26825W        W99085  13.013  29.566  12.989
26826W        W99086  14.439  21.111   0.742
26827W        W99087   7.473   8.422   0.514
26828W        W99088   1.376   3.897   2.323
26829W        W99089  18.173   7.866  12.434
26830W        W99090  25.423  31.039   1.887
26831W        W99091  23.662  38.434   3.599
26832W        W99092  37.813   0.739   0.053
26833W        W99093  41.936  16.074  11.975
26834W        W99094  17.818  40.310  11.776
26835W        W99095   8.624  13.152   4.164
26836W        W99096  14.040  38.480   4.544
26837W        W99097   3.299  30.455  13.041
26838W        W99098  11.290  28.396   3.277
26839W        W99099  13.405   9.355   1.044
26840W        W99100  17.072  31.823   0.252
26841W        W99101  25.702  12.223   3.173
26842W        W99102  43.326   3.335  10.719
26843W        W99103   3.942  44.686   3.313
26844W        W99104  31.561  26.594   4.682
26845W        W99105  17.511  12.390   1.895
26846W        W99106  44.301  15.424  13.133
26847W        W99107  19.559  32.369  12.967
26848W        W99108   6.220   3.013  14.552
26849W        W99109  32.571  43.763   2.221
26850W        W99110  28.916  37.439  12.356
26851W        W99111  27.950  23.932   3.259
26852W        W99112   1.885   9.859   2.358
26853W        W99113   8.609   7.840   2.906
26854W        W99114  12.770  39.857  10.363
26855W        W99115   0.047  15.195   2.163
26856W        W99116  19.023   7.670   3.332
26857W        W99117   9.905  13.153  11.549
26858W        W99118  38.863  29.800  11.462
26859W        W99119  17.115  12.082  12.002
26860W        W99120   8.960  15.683  13.918
26861W        W99121  28.191  44.909  12.868
26862W        W99122   1.675   7.550   1.285
26863W        W99123   8.741  32.987  14.644
26864W        W99124  28.064  33.323   4.370
26865W        W99125   3.547  11.726  13.579
26866W        W99126   2.295  19.322   2.375
26867W        W99127   0.786  31.485   1.269
26868W        W99128   3.950  32.141  11.141
26869W        W99129   9.704  22.887  13.499
26870W        W99130   7.280  15.918  11.596
26871W        W99131  37.884   5.044   4.708
26872W        W99132  16.640  28.044   2.192
26873W        W99133  44.326  12.737  14.435
26874W        W99134  19.486  33.410  12.922
26875W        W99135   5.166   4.038   0.988
26876W        W99136  40.724  40.751   4.265
26877W        W99137  31.998  18.037  13.277
26878W        W99138  38.489  12.739   3.254
26879W        W99139  20.830  24.819   2.568
26880W        W99140  34.020  14.303  10.671
26881W        W99141  17.631   3.607   0.140
26882W        W99142   4.262  37.534  12.489
26883W        W99143  34.486  30.020   2.126
26884W        W99144  23.232   4.367  11.510
26885W        W99145  22.243  27.689  14.678
26886W        W99146  34.544  14.888  14.825
26887W        W99147   4.476   3.862  14.426
26888W        W99148  23.448  22.286   3.709
26889W        W99149  30.421  42.475   3.339
26890W        W99150   3.670  35.140  14.905
26891W        W99151  32.888   9.237   0.897
26892W        W99152  32.557  43.709  11.401
26893W        W99153  17.858  39.852   3.770
26894W        W99154  16.220  33.383   3.703
26895W        W99155  10.335  43.854   1.666
26896W        W99156  19.719  44.224  12.757
26897W        W99157  23.779  28.292  14.707
26898W        W99158   8.503   9.812   1.404
26899W        W99159  23.269   4.385  10.721
26900W        W99160  28.893  43.790   2.237
26901W        W99161  38.791  23.478   3.204
26902W        W99162  30.702  25.232   0.838
26903W        W99163  37.113  42.032   4.152
26904W        W99164  29.614  24.813   3.065
26905W        W99165  15.206  20.554  10.826
26906W        W99166  36.441  23.195  14.152
26907W        W99167  14.833  38.021   4.744
26908W        W99168  34.639  32.763  11.127
26909W        W99169  13.210   2.301   4.337
26910W        W99170  24.220  14.453   1.911
26911W        W99171  16.049  39.169   0.741
26912W        W99172  40.291   9.277   0.871
26913W        W99173  31.398  11.353   4.147
26914W        W99174  22.777  30.499   0.785
26915W        W99175   4.406  43.366   0.715
26916W        W99176  33.138   6.395  12.473
26917W        W99177   3.957  31.512   1.379
26918W        W99178  17.874  28.627  14.705
26919W        W99179  27.971  18.183  13.067
26920W        W99180  15.541  27.712  10.330
26921W        W99181  38.156  15.399  12.653
26922W        W99182  13.374  14.615   3.900
26923W        W99183  39.666   8.880  11.191
26924W        W99184  14.580  12.313   0.410
26925W        W99185  35.066  15.591   0.345
26926W        W99186  29.002  42.624  13.744
26927W        W99187  39.029  23.631  13.444
26928W        W99188  21.768  31.029   3.721
26929W        W99189  25.610  12.308  10.645
26930W        W99190   4.321  31.586   3.151
26931W        W99191  34.629  28.028  12.075
26932W        W99192  23.416  27.060   3.257
26933W        W99193   0.126  42.851  11.076
26934W        W99194  31.380  23.259  11.508
26935W        W99195  41.947  35.110   0.545
26936W        W99196  33.497  39.184   3.478
26937W        W99197   4.906  43.742  14.914
26938W        W99198  43.193  10.242   4.008
26939W        W99199  18.305   9.440  10.396
26940W        W99200   6.389  12.618   1.745
26941W        W99201  15.509  19.668  14.245
26942W        W99202   8.075  44.353  11.517
26943W        W99203   2.732   1.636  14.939
26944W        W99204   4.297  17.303   2.876
26945W        W99205  30.493  24.150  13.953
26946W        W99206  12.095  35.507   4.362
26947W        W99207  26.336   4.629   3.584
26948W        W99208  42.444  37.584   2.496
26949W        W99209   2.877   0.447  10.619
26950W        W99210  27.936   0.109  13.869
26951W        W99211   5.613  34.506   3.108
26952W        W99212  43.183  12.763   2.303
26953W        W99213  36.076  32.469   2.595
26954W        W99214  35.625  10.038   3.713
26955W        W99215  10.467  16.579   2.399
26956W        W99216  22.743  39.968  11.982
26957W        W99217  26.260  11.807  11.655
26958W        W99218   4.951  13.819   4.652
26959W        W99219  44.300   9.923   4.138
26960W        W99220   5.933  38.357  10.968
26961W        W99221  29.405  25.832   2.173
26962W        W99222  26.118  41.963   0.692
26963W        W99223  24.471  42.373   1.909
26964W        W99224  12.261  26.715  14.881
26965W        W99225  26.924  22.102  12.024
26966W        W99226   1.188  13.115   3.685
26967W        W99227  19.101  41.254   3.193
26968W        W99228  41.531  34.855  12.855
26969W        W99229  40.085  19.034   1.189
26970W        W99230   3.697  27.140  14.851
26971W        W99231   7.474  32.549  12.931
26972W        W99232  21.181  10.230  13.643
26973W        W99233  10.389   5.887   2.959
26974W        W99234  42.006   3.295   1.966
26975W        W99235  19.235  31.154  10.750
26976W        W99236  31.828   6.369  11.576
26977W        W99237  22.518  11.381  11.273
26978W        W99238  41.397  15.320   4.433
26979W        W99239  34.002   2.915   2.928
26980W        W99240   2.698  28.461   2.023
26981W        W99241   0.904  44.227  14.965
26982W        W99242  34.063   7.914   2.378
26983W        W99243   3.495  31.606   2.766
26984W        W99244  30.984  37.390  13.142
26985W        W99245  42.833  44.797  14.694
26986W        W99246  21.610  37.456   4.253
26987W        W99247   0.193   0.876  14.469
26988W        W99248  24.615  36.935   4.146
26989W        W99249  26.458   1.540   4.109
26990W        W99250  32.287  24.299   3.836
26991W        W99251  43.487  34.721   2.827
26992W        W99252   3.358  41.006  14.337
26993W        W99253  27.992  21.962  14.283
26994W        W99254  43.544   8.669  11.112
26995W        W99255  14.555  19.893   1.727
26996W        W99256  36.904  10.167   0.030
26997W        W99257  24.931  37.431  10.418
26998W        W99258  19.705  32.174  14.360
26999W        W99259  35.086  34.889   0.693
27000W        W99260  21.607  28.638  12.577
27001W        W99261   1.251  11.134  12.959
27002W        W99262  13.251  34.662   2.362
27003W        W99263  32.480  27.456  14.533
27004W        W99264  44.178  34.401   0.334
27005W        W99265  33.497  31.479  11.326
27006W        W99266  21.199  44.552  14.336
27007W        W99267   6.859   8.291  10.957
27008W        W99268  30.921   7.760  12.169
27009W        W99269   9.292  38.233  11.476
27010W        W99270   3.468   4.780  12.783
27011W        W99271  23.367  32.573  14.297
27012W        W99272  22.934   3.911   4.552
27013W        W99273   8.714  20.666   2.745
27014W        W99274  26.469  23.443  11.196
27015W        W99275  17.240  14.195  13.978
27016W        W99276  26.116  20.643   1.226
27017W        W99277   0.138   2.391   2.652
27018W        W99278   3.402   6.477   1.131
27019W        W99279  20.135  24.025  12.510
27020W        W99280  32.136   2.281  14.270
27021W        W99281   5.857  11.079  12.887
27022W        W99282  32.600   1.519   1.032
27023W        W99283   2.485  41.022   0.278
27024W        W99284  43.255  34.953  12.602
27025W        W99285  28.782  29.316   2.121
27026W        W99286  12.803  39.596  11.515
27027W        W99287  27.628   5.817  13.414
27028W        W99288  11.454  31.394  12.300
27029W        W99289  44.440   2.154  12.322
27030W        W99290   4.154  12.404   3.414
27031W        W99291  22.189  39.744  13.421
27032W        W99292  39.803  19.343   1.996
27033W        W99293  25.872  29.966  11.108
27034W        W99294  33.092  43.760   1.855
27035W        W99295  26.647  37.457   4.900
27036W        W99296  38.767  19.024  14.120
27037W        W99297   4.321  15.416  11.565
27038W        W99298   8.441  18.350   2.656
27039W        W99299   9.602  22.834   1.715
27040W        W99300  42.510  19.824  12.530
27041W        W99301  10.640  34.164   2.362
27042W        W99302  37.124   9.897  11.505
27043W        W99303  35.291  42.944   4.583
27044W        W99304  12.214  33.045  10.607
27045W        W99305   4.730  36.001  11.607
27046W        W99306   9.203  43.918  14.542
27047W        W99307   8.382  19.100   3.909
27048W        W99308   6.456  39.410  13.918
27049W        W99309  19.737  19.785   0.486
27050W        W99310  43.564  33.092  13.849
27051W        W99311  14.536   4.392  14.739
27052W        W99312   8.705  22.603   5.017
27053W        W99313  27.381  23.637  14.590
27054W        W99314   7.883   7.305   4.536
27055W        W99315   3.319   8.774  10.336
27056W        W99316  24.587  18.544   3.616
27057W        W99317  11.833  35.035  14.488
27058W        W99318  19.446  22.517   1.977
27059W        W99319  21.801  29.029  12.312
27060W        W99320  12.521  30.063  12.472
27061W        W99321   8.146  27.543  10.618
27062W        W99322   4.252  20.433  12.871
27063W        W99323  27.717  39.267  10.618
27064W        W99324   7.233  34.134   2.277
27065W        W99325  10.690  26.286   3.957
27066W        W99326  43.735   6.683   3.257
27067W        W99327   0.924  13.095   2.682
27068W        W99328  15.663  40.102   0.879
27069W        W99329  33.103  41.226   4.135
27070W        W99330  38.487   9.493   0.647
27071W        W99331   9.290  22.044   4.337
27072W        W99332   1.664  22.983  13.647
27073W        W99333  15.204  38.321   1.000
27074W        W99334  35.143  30.830   3.409
27075W        W99335  27.250  27.916  14.063
27076W        W99336  35.355   8.174   1.272
27077W        W99337  19.218  28.174   3.158
27078W        W99338  12.543  17.068   1.753
27079W        W99339  10.418  44.028  12.528
27080W        W99340  10.192  28.200  13.447
27081W        W99341  34.384  42.523  14.281
27082W        W99342  41.848  43.303   3.682
27083W        W99343  15.335   9.237   0.772
27084W        W99344  35.014   7.544  10.459
27085W        W99345  13.304  39.533   2.317
27086W        W99346  24.808  41.969  11.310
27087W        W99347   3.425  31.159  13.387
27088W        W99348  33.761  19.554  13.567
27089W        W99349  40.591  20.116   3.285
27090W        W99350  41.775  21.493   0.749
27091W        W99351  13.073  12.275   0.273
27092W        W99352  36.558  33.818   2.696
27093W        W99353  36.855  11.246  13.144
27094W        W99354  41.040  16.695   3.727
27095W        W99355  32.517  16.291  10.988
27096W        W99356  11.762  44.381  11.977
27097W        W99357   1.194   8.961  12.898
27098W        W99358   9.164  33.526   4.107
27099W        W99359  44.181   7.353  12.291
27100W        W99360  35.000   1.765  13.296
27101W        W99361  34.118  13.201  11.559
27102W        W99362   9.905  40.478  10.686
27103W        W99363  17.988  37.090   4.900
27104W        W99364  34.472   0.961  12.920
27105W        W99365  43.762  32.211   3.838
27106W        W99366   3.812   8.311  11.340
27107W        W99367  18.783  11.711  14.874
27108W        W99368  44.351  33.926   2.427
27109W        W99369   9.078   5.263   0.831
27110W        W99370  15.436  43.952  11.973
27111W        W99371  12.890  39.388   0.438
27112W        W99372  26.313   5.030  11.440
27113W        W99373   9.100  26.563  12.079
27114W        W99374  11.162  29.621   2.719
27115W        W99375  26.326  40.364  14.437
27116W        W99376   2.062  34.715  11.598
27117W        W99377  11.317  22.014  10.759
27118W        W99378  39.313  22.669   2.952
27119W        W99379  27.480   3.919   3.041
27120W        W99380   5.720  12.351   1.296
27121W        W99381  30.534  21.032  11.548
27122W        W99382   1.706  32.974  12.453
27123W        W99383  43.117   4.723   0.305
27124W        W99384  30.879  29.932  13.017
27125W        W99385  42.565  24.943   1.712
27126W        W99386  28.727  16.592  12.881
27127W        W99387  24.631   4.839   3.830
27128W        W99388  22.958  19.307   1.863
27129W        W99389  28.709  32.603  12.108
27130W        W99390   6.289  34.930  13.283
27131W        W99391  22.831   4.894   1.298
27132W        W99392  17.297  12.261  10.734
27133W        W99393  25.567  27.274   2.431
27134W        W99394  18.881  42.738  12.881
27135W        W99395  43.821  31.983   2.968
27136W        W99396   7.714   7.451   4.078
27137W        W99397  39.849  33.892   4.474
27138W        W99398  15.693   2.282   2.897
27139W        W99399  44.979  15.734  14.767
27140W        W99400  17.180   0.392  13.877
27141W        W99401  31.637   4.465   2.904
27142W        W99402  14.576  27.565  14.542
27143W        W99403  15.745   9.789   4.430
27144W        W99404  41.448   4.640  13.101
27145W        W99405  31.402  33.612  11.137
27146W        W99406   5.457  18.275  14.390
27147W        W99407  16.663  35.816  12.821
27148W        W99408  24.956   9.791  11.167
27149W        W99409   5.464   8.253   0.828
27150W        W99410  18.513   6.121   4.635
27151W        W99411  17.632   5.769  13.915
27152W        W99412  34.080  21.549  10.333
27153W        W99413  35.517   2.371   0.374
27154W        W99414  18.679   5.499  13.009
27155W        W99415  33.112  35.935  10.955
27156W        W99416   1.422  25.191   2.308
27157W        W99417  29.865  24.921  11.756
27158W        W99418  26.109  26.184   2.320
27159W        W99419  35.935  28.417   2.277
27160W        W99420  42.527  28.018  12.433
27161W        W99421  10.677  30.066   1.891
27162W        W99422  36.610  29.968  12.118
27163W        W99423   4.282  11.257  13.331
27164W        W99424   8.628  26.670  13.090
27165W        W99425   0.076  10.404   0.194
27166W        W99426  31.517  34.774   0.199
27167W        W99427  16.320  38.797  13.605
27168W        W99428  16.207  22.816  14.418
27169W        W99429  43.059  34.079  12.442
27170W        W99430  24.690  39.569   3.711
27171W        W99431  17.126  16.307  14.840
27172W        W99432  25.728  10.118   0.237
27173W        W99433   9.995  18.740  14.522
27174W        W99434  25.522  42.848   5.104
27175W        W99435  25.793  34.088   4.201
27176W        W99436  13.654  10.682   4.855
27177W        W99437   5.427  24.229  12.908
27178W        W99438  28.436   0.905   1.729
27179W        W99439   5.436  19.671   3.616
27180W        W99440   9.629  10.734  10.162
27181W        W99441  24.040  21.475  14.858
27182W        W99442  28.806  35.658  13.193
27183W        W99443  15.238  32.338   1.964
27184W        W99444  14.659  19.639  12.952
27185W        W99445  28.462  10.187  14.930
27186W        W99446  19.950  31.508  13.440
27187W        W99447  24.408  38.757   4.064
27188W        W99448  10.135  39.123  14.469
27189W        W99449  30.025  27.178   4.264
27190W        W99450  41.823   1.847   1.431
27191W        W99451  22.577  34.853   0.440
27192W        W99452  42.575   4.786   3.630
27193W        W99453  36.106  13.197   2.348
27194W        W99454  38.101   1.927  11.632
27195W        W99455  13.669   1.440   0.233
27196W        W99456  38.238  29.272   1.301
27197W        W99457  31.343  42.897   3.380
27198W        W99458   3.544  13.210   4.990
27199W        W99459  34.837  15.477   4.150
27200W        W99460  33.589  40.440   2.398
27201W        W99461  10.384  16.573   4.201
27202W        W99462  44.354  35.815  12.766
27203W        W99463  24.208   9.912  12.819
27204W        W99464  10.618  25.061  12.596
27205W        W99465  21.177  27.522   4.104
27206W        W99466   6.202  11.668   0.979
27207W        W99467  30.176  25.647  13.363
27208W        W99468   7.310   0.306  14.574
27209W        W99469   6.177  34.541   2.401
27210W        W99470  27.963  27.954   1.736
27211W        W99471  11.223   9.762   1.898
27212W        W99472  23.669  32.843  13.632
27213W        W99473  11.367  21.186  10.199
27214W        W99474  21.328  34.105  11.525
27215W        W99475  36.464  33.481   4.463
27216W        W99476  22.500  11.365  13.152
27217W        W99477   5.876   3.964  10.692
27218W        W99478  16.480  14.552   5.000
27219W        W99479  25.620  31.733   0.742
27220W        W99480  23.524  37.530  11.954
27221W        W99481  43.543  39.600   4.284
27222W        W99482  41.479  26.996  14.999
27223W        W99483  17.456   8.968   2.415
27224W        W99484   0.897   8.831  11.277
27225W        W99485   5.821  35.069  13.434
27226W        W99486   4.332  33.888   1.347
27227W        W99487  25.052  25.720   2.059
27228W        W99488  12.057  14.717   3.283
27229W        W99489  25.999  24.655   4.021
27230W        W99490  32.078  18.768   4.103
27231W        W99491   0.010  18.138   1.969
27232W        W99492  21.205  27.805   0.010
27233W        W99493  27.170  16.541  12.406
27234W        W99494  24.678  28.003   1.536
27235W        W99495  15.234   9.245   1.961
27236W        W99496  33.207  30.714   2.655
27237W        W99497  28.259   5.787  12.028
27238W        W99498  38.830  32.385   3.216
27239W        W99499  19.600  15.270  13.716
27240W        W99500  12.796  20.828   3.759
27241W        W99501  21.084  19.242   1.801
27242W        W99502  12.968  12.822   0.893
27243W        W99503   8.296  34.555  13.460
27244W        W99504  10.867  10.174   0.924
27245W        W99505  10.696  34.549   3.269
27246W        W99506   8.706  34.086  10.432
27247W        W99507  23.408  21.782   5.821
27248W        W99508  10.812  22.111   1.020
27249W        W99509  26.985  32.373   2.641
27250W        W99510  39.310  19.577   1.227
27251W        W99511  31.925   6.311   2.662
27252W        W99512  23.579  43.283   4.798
27253W        W99513  14.877   7.852   1.810
27254W        W99514  10.782  32.909   4.427
27255W        W99515  13.361  34.407   3.657
27256W        W99516  34.191  29.956   3.646
27257W        W99517  17.616   3.237  13.890
27258W        W99518  19.424   9.407   1.051
27259W        W99519  34.152  36.275   4.498
27260W        W99520  12.613  40.447  13.873
27261W        W99521  24.456  23.632  14.721
27262W        W99522  15.554  32.947  14.643
27263W        W99523  37.586  17.279   1.944
27264W        W99524  36.648  28.381  11.036
27265W        W99525  22.397  35.811  10.454
27266W        W99526  12.068  10.721  11.943
27267W        W99527  21.203  41.518   3.144
27268W        W99528  19.123  21.294  11.545
27269W        W99529  12.598   6.415  12.446
27270W        W99530   2.295   7.102  12.159
27271W        W99531  21.049   8.741  14.521
27272W        W99532  36.648  40.332   3.662
27273W        W99533  44.401  31.565  11.507
27274W        W99534  37.468  12.288   4.615
27275W        W99535  30.416  12.577  14.720
27276W        W99536  36.381   7.658   3.662
27277W        W99537  19.181  30.364  12.432
27278W        W99538  22.215  35.327   0.251
27279W        W99539  25.363  37.351  13.966
27280W        W99540  13.573   4.912   1.011
27281W        W99541  23.039  18.527   2.259
27282W        W99542  11.569   3.326   0.347
27283W        W99543  19.256   7.816   0.601
27284W        W99544  17.055  17.863   0.736
27285W        W99545  15.883   4.382   4.295
27286W        W99546  38.813  41.514  12.394
27287W        W99547  10.475  41.513   0.746
27288W        W99548  40.228  11.597   4.637
27289W        W99549   9.665   0.697  13.047
27290W        W99550  17.811  34.591  12.528
27291W        W99551  29.617   7.965  11.969
27292W        W99552  12.834  17.672  11.456
27293W        W99553   3.550   9.233  12.191
27294W        W99554  24.805  22.655  12.159
27295W        W99555  23.119   6.955   2.088
27296W        W99556  22.223   6.663   0.661
27297W        W99557  19.167  17.436   2.327
27298W        W99558  31.937  33.864  13.119
27299W        W99559  24.549  33.398  13.797
27300W        W99560   4.333   8.970   3.295
27301W        W99561  20.055  14.995  13.878
27302W        W99562  44.060  21.620   2.067
27303W        W99563  13.692  12.326  14.010
27304W        W99564  22.556  34.662   3.160
27305W        W99565   9.783  13.624  11.664
27306W        W99566  21.225  21.548   2.278
27307W        W99567  29.612  17.515   3.255
27308W        W99568  24.634  31.117  14.875
27309W        W99569  22.031  32.482  14.033
27310W        W99570  44.492  38.397   5.013
27311W        W99571  43.920  14.188  11.561
27312W        W99572  33.611  25.939  10.187
27313W        W99573  38.597   3.444  11.076
27314W        W99574  24.644  35.645   4.645
27315W        W99575  26.572  23.720  13.527
27316W        W99576  15.866  21.062   0.677
27317W        W99577  37.973  23.749  10.656
27318W        W99578   1.256  11.166   3.682
27319W        W99579  20.049  43.954   0.882
27320W        W99580  14.061  31.920   4.491
27321W        W99581  37.970  27.912  11.766
27322W        W99582  37.996  21.379  11.993
27323W        W99583   0.810  28.264  12.929
27324W        W99584  23.635  30.652   3.174
27325W        W99585  17.131  39.601   0.437
27326W        W99586   4.286  42.247   1.230
27327W        W99587  40.219  19.144   0.336
27328W        W99588  13.514  14.858   0.927
27329W        W99589  41.612  39.543   4.185
27330W        W99590  22.633  40.428  11.578
27331W        W99591  12.334  43.534   1.682
27332W        W99592  16.848   8.902   0.157
27333W        W99593  29.103  26.611   0.004
27334W        W99594   5.384  10.867   3.094
27335W        W99595  26.963   3.152   3.262
27336W        W99596  15.061  43.797  10.779
27337W        W99597  37.989  35.021   1.277
27338W        W99598  37.403  10.943   2.402
27339W        W99599  39.095   6.866   2.282
27340W        W99600  35.969  20.305  11.212
27341W        W99601  37.049  20.055  13.513
27342W        W99602  27.461  19.258   1.752
27343W        W99603  38.837   1.987  13.531
27344W        W99604  21.649  14.827   1.701
27345W        W99605  38.497  29.215   0.393
27346W        W99606   3.670  37.079  13.533
27347W        W99607  21.269  18.576   4.652
27348W        W99608   0.392  23.709   0.830
27349W        W99609  40.517   8.987  11.624
27350W        W99610  23.109  28.912  13.313
27351W        W99611  39.879  43.134   1.906
27352W        W99612  28.467  36.416   3.510
27353W        W99613  30.818   7.103  13.061
27354W        W99614   4.938  26.691   0.869
27355W        W99615   2.941  36.344   3.299
27356W        W99616  28.633  44.986  14.821
27357W        W99617  28.637  28.536  12.308
27358W        W99618  41.458  14.571  13.376
27359W        W99619  30.812  24.645   3.628
27360W        W99620  35.334  35.919   5.118
27361W        W99621  13.177  18.098   0.798
27362W        W99622  14.580   1.244   2.416
27363W        W99623  32.883  27.577  14.847
27364W        W99624   8.292  22.953   2.693
27365W        W99625  26.509  36.465   5.313
27366W        W99626  13.241  39.952  14.211
27367W        W99627  15.722  11.275   2.439
27368W        W99628  28.725  11.368  12.411
27369W        W99629  17.072  11.089   4.779
27370W        W99630  17.940   8.155   1.297
27371W        W99631  27.049   1.069   3.696
27372W        W99632  21.193  43.396  11.479
27373W        W99633  17.681   3.056   3.373
27374W        W99634  35.598  38.074  14.028
27375W        W99635  21.182  33.962   4.869
27376W        W99636  44.622  20.594  13.860
27377W        W99637  10.425  30.116  13.394
27378W        W99638  36.873  11.894  14.499
27379W        W99639  41.811  34.669   4.256
27380W        W99640   1.339  35.823   2.693
27381W        W99641  11.170  15.254   4.211
27382W        W99642   4.543  44.963  12.621
27383W        W99643   2.340  30.625  11.342
27384W        W99644  28.083  35.049  13.189
27385W        W99645  20.357  40.914  13.823
27386W        W99646  27.535   5.656  14.861
27387W        W99647  30.652  26.576   4.209
27388W        W99648  26.483  38.929   3.110
27389W        W99649  18.557  15.365   2.967
27390W        W99650  15.561  39.026   2.804
27391W        W99651  20.479   3.224  12.589
27392W        W99652  37.130  27.085  10.979
27393W        W99653  14.152  14.267  12.576
27394W        W99654   8.136  14.444  14.072
27395W        W99655  19.692  41.775   2.210
27396W        W99656  11.844  34.019   1.720
27397W        W99657  39.936   9.323  11.131
27398W        W99658  24.323  23.450  12.462
27399W        W99659  24.699  23.198   0.465
27400W        W99660  28.442  12.029  11.126
27401W        W99661  38.327   0.511  12.960
27402W        W99662  34.107  20.089  14.612
27403W        W99663  32.967  25.031  10.608
27404W        W99664  16.312  11.596   1.665
27405W        W99665  36.839  25.730   4.840
27406W        W99666  35.606  25.505  11.137
27407W        W99667  18.282  18.137   1.482
27408W        W99668  44.267   0.453   4.165
27409W        W99669  28.474   6.680   1.463
27410W        W99670   7.645  13.359  14.983
27411W        W99671  40.075  34.933   3.996
27412W        W99672   0.411  33.908   3.461
27413W        W99673   2.569  40.292  13.295
27414W        W99674  18.614  36.385  12.214
27415W        W99675  24.681  24.009  12.467
27416W        W99676   1.189  22.638   0.934
27417W        W99677  12.596  41.162  14.480
27418W        W99678  28.531  26.002  12.155
27419W        W99679   3.642  13.601  12.739
27420W        W99680  12.213  13.299  14.877
27421W        W99681  35.576  40.910  14.894
27422W        W99682  24.571  32.513  14.502
27423W        W99683  39.310  27.547   0.234
27424W        W99684  23.201   7.431   4.371
27425W        W99685  16.797  20.174   1.106
27426W        W99686  26.025   7.318   4.926
27427W        W99687   9.191   8.908   1.893
27428W        W99688  11.358   7.327   4.799
27429W        W99689  41.862  30.234  11.169
27430W        W99690  43.438  30.140  12.528
27431W        W99691   5.767  39.134   1.877
27432W        W99692  21.523   9.375  11.078
27433W        W99693  44.081   2.221  13.985
27434W        W99694  30.175  43.317   0.357
27435W        W99695  42.283  17.696  11.556
27436W        W99696  34.416  29.617   3.176
27437W        W99697  43.955   8.208  14.569
27438W        W99698  33.895  17.401  12.575
27439W        W99699  26.062  17.115   2.805
27440W        W99700   6.843  11.862  13.701
27441W        W99701  33.388   2.854   0.823
27442W        W99702   5.075   6.589  13.085
27443W        W99703  26.457  34.340   2.299
27444W        W99704  19.982  32.653  13.096
27445W        W99705  43.982  17.670  12.862
27446W        W99706   0.822   7.394   1.366
27447W        W99707   0.836  24.390   2.581
27448W        W99708  26.209   2.811   4.536
27449W        W99709  25.659  32.147  13.374
27450W        W99710  19.587  16.194   1.246
27451W        W99711  35.177  34.216   4.251
27452W        W99712  35.111  33.105   2.382
27453W        W99713  14.653  32.523   2.880
27454W        W99714  33.418  41.578   0.889
27455W        W99715   5.934   6.660   3.136
27456W        W99716  10.279   7.656   1.138
27457W        W99717  30.000  38.749  11.675
27458W        W99718   8.295  37.415  12.855
27459W        W99719  18.657   4.214  11.614
27460W        W99720   1.732   9.101   2.837
27461W        W99721   8.925   9.679   4.848
27462W        W99722  35.403  10.745  11.959
27463W        W99723  31.018   1.574  12.500
27464W        W99724   7.288  34.598  14.411
27465W        W99725  36.863   6.858  13.965
27466W        W99726  24.448  14.514  11.024
27467W        W99727  15.795   6.788   4.148
27468W        W99728  11.747  14.158   1.843
27469W        W99729  11.594  43.419  12.932
27470W        W99730   9.697  40.617   2.269
27471W        W99731  41.856  16.186   1.001
27472W        W99732   5.220   0.044  14.658
27473W        W99733   7.962  14.770   4.806
27474W        W99734   3.821  12.087  14.766
27475W        W99735   9.196  24.996   9.963
27476W        W99736   1.252   7.658  13.380
27477W        W99737  10.781  23.645  13.377
27478W        W99738  17.507  44.816  12.178
27479W        W99739   0.773  25.391  10.739
27480W        W99740  22.939  12.425   0.279
27481W        W99741  40.477  34.939  12.969
27482W        W99742  36.316   6.744   3.673
27483W        W99743   0.435   2.756  10.825
27484W        W99744   6.513   2.188   0.947
27485W        W99745  13.756  16.340   4.729
27486W        W99746  23.508  17.286  10.571
27487W        W99747  23.247  41.348  10.437
27488W        W99748  21.854  23.308  13.601
27489W        W99749  43.725  40.514   2.070
27490W        W99750  39.625  40.803  12.096
27491W        W99751   3.981   7.142  14.708
27492W        W99752  13.665  23.390   0.770
27493W        W99753  32.626  19.309   1.374
27494W        W99754  20.891   6.207   3.265
27495W        W99755  38.796  20.846   2.723
27496W        W99756  42.111   4.208  14.928
27497W        W99757  35.012  41.456  11.082
27498W        W99758   4.486   5.458  14.264
27499W        W99759  23.714  23.533   0.246
27500W        W99760   0.044  15.567   3.340
27501W        W99761  18.849   1.134   3.271
27502W        W99762   8.151  23.507  11.263
27503W        W99763  35.550   2.513   3.865
27504W        W99764  23.022  13.306  11.962
27505W        W99765  21.658  12.244   2.515
27506W        W99766  10.711  33.596  12.125
27507W        W99767  21.982  42.348  13.502
27508W        W99768  28.988  42.252   3.272
27509W        W99769  13.700   7.790  14.070
27510W        W99770  23.203  24.989   2.320
27511W        W99771  10.775  25.268  11.064
27512W        W99772   6.159  32.442   2.863
27513W        W99773  10.586  30.204  12.507
27514W        W99774  22.014   4.871   0.991
27515W        W99775  10.607  34.030  12.386
27516W        W99776  39.066  32.823   3.447
27517W        W99777   1.727  24.706   2.262
27518W        W99778   9.503  16.393  11.203
27519W        W99779  36.835  10.058   0.542
27520W        W99780  37.363  27.111   1.308
27521W        W99781  22.237   5.465   3.720
27522W        W99782   8.511  34.145   0.292
27523W        W99783  24.192   9.658  11.624
27524W        W99784   8.816   2.413   3.613
27525W        W99785   7.292  23.199  12.955
27526W        W99786   9.575  10.788   2.762
27527W        W99787  19.065  20.164   1.683
27528W        W99788  26.559  23.933  11.995
27529W        W99789   5.882   4.148   3.614
27530W        W99790  32.322  21.183  10.885
27531W        W99791   9.795   0.593  14.506
27532W        W99792  18.703  22.712  10.637
27533W        W99793  31.711  37.363   0.276
27534W        W99794  25.117   4.637  10.778
27535W        W99795  11.321  30.026  10.302
27536W        W99796  19.211  34.969   0.941
27537W        W99797  27.233  16.391   0.822
27538W        W99798  40.020   0.351  13.965
27539W        W99799  43.237  14.464  13.093
27540W        W99800   3.879  21.336   0.351
27541W        W99801  38.795   2.354   2.650
27542W        W99802  11.215  14.117   4.713
27543W        W99803  12.476   9.880   1.753
27544W        W99804   0.664  42.357  11.099
27545W        W99805  40.062  30.486   1.749
27546W        W99806   7.402  27.423  10.189
27547W        W99807  26.816  15.159  13.471
27548W        W99808  25.002  30.412  12.689
27549W        W99809   7.309  12.840  11.800
27550W        W99810  31.641  11.803   4.181
27551W        W99811   9.189   1.677   1.712
27552W        W99812  36.355  13.368   1.457
27553W        W99813  30.206  32.182   3.723
27554W        W99814  31.837  32.120  11.163
27555W        W99815  19.044  36.635  11.503
27556W        W99816  12.278   8.369  12.038
27557W        W99817  36.685   7.222  12.624
27558W        W99818  17.848  17.672  14.600
27559W        W99819   5.958  25.581   1.376
27560W        W99820  27.115  44.750  14.983
27561W        W99821  38.032   2.386   4.568
27562W        W99822   4.131  29.095   2.121
27563W        W99823  32.193  12.769  10.183
27564W        W99824  44.075   0.337  12.610
27565W        W99825   6.806  36.735  10.807
27566W        W99826  16.575  20.799   4.272
27567W        W99827   7.504  37.820  11.426
27568W        W99828  25.227  21.732  11.352
27569W        W99829   9.215   8.384  14.274
27570W        W99830  44.475  12.627  10.963
27571W        W99831  38.512  17.253   0.072
27572W        W99832  28.911  36.201  13.416
27573W        W99833  13.745   8.438   4.237
27574W        W99834   8.667  37.754  13.728
27575W        W99835  40.120  16.255   0.957
27576W        W99836   4.903  12.878   2.812
27577W        W99837   0.788  34.660   3.666
27578W        W99838  19.472  28.024   1.834
27579W        W99839  17.259   7.515  10.811
27580W        W99840  17.711  10.780   1.299
27581W        W99841  35.612  37.439  12.008
27582W        W99842  15.140  22.371  10.626
27583W        W99843  12.202  37.072  11.931
27584W        W99844  39.172  35.459  12.049
27585W        W99845   5.906  16.465  13.606
27586W        W99846  21.058  20.788  11.499
27587W        W99847  18.092  16.075  13.446
27588W        W99848   3.881  23.743  13.897
27589W        W99849  30.425  43.354  14.904
27590W        W99850  12.745   0.256   2.104
27591W        W99851  37.955  41.060   0.786
27592W        W99852  42.373  37.411  13.864
27593W        W99853  43.829   4.808  13.823
27594W        W99854   2.194  32.061   2.255
27595W        W99855  23.282  42.039   0.249
27596W        W99856  42.546  34.590  12.983
27597W        W99857  17.229  12.809  12.623
27598W        W99858  37.308  43.752  12.934
27599W        W99859   3.385  21.298   2.821
27600W        W99860  21.765   4.807  12.541
27601W        W99861  15.629  22.058  11.042
27602W        W99862  34.149  22.184  11.148
27603W        W99863  42.569   7.802  14.740
27604W        W99864  17.690   5.275   2.912
27605W        W99865   7.627  40.358   4.124
27606W        W99866  16.062  17.585  10.754
27607W        W99867  15.543  18.265  14.592
27608W        W99868   2.457   9.864   0.374
27609W        W99869  42.458  38.900   1.551
27610W        W99870   8.670  40.931  10.816
27611W        W99871  19.502  31.280   2.820
27612W        W99872  17.089  43.817  10.713
27613W        W99873  20.892  11.052   1.071
27614W        W99874  24.701  31.928  13.812
27615W        W99875  34.786   4.181  12.198
27616W        W99876  33.704  26.935   3.371
27617W        W99877   7.839  11.528   2.111
27618W        W99878  43.858  30.631  10.621
27619W        W99879  39.621   6.279  12.338
27620W        W99880  23.774  17.286   9.693
27621W        W99881   4.481  42.984  14.865
27622W        W99882  25.631  14.092  13.417
27623W        W99883  35.654   4.481   2.849
27624W        W99884  35.047  35.897   3.277
27625W        W99885   2.233  17.385   2.537
27626W        W99886  30.071  33.066   2.383
27627W        W99887  19.205  37.480  10.720
27628W        W99888   5.671   0.053  14.395
27629W        W99889  44.054   3.012   3.276
27630W        W99890  14.593   0.922  14.000
27631W        W99891   4.634  26.037   3.353
27632W        W99892  44.337  28.888  13.442
27633W        W99893  38.755  11.863   2.930
27634W        W99894  25.513  19.250  10.587
27635W        W99895  35.900  14.171  10.927
27636W        W99896  42.316  38.839   2.032
27637W        W99897  39.775  33.532   3.755
27638W        W99898  37.331  14.649   1.982
27639W        W99899   8.425  38.950  13.564
27640W        W99900   9.407   1.489   1.249
27641W        W99901  11.241  12.330   3.569
27642W        W99902  14.675   5.314  12.481
27643W        W99903   8.739  23.663  14.486
27644W        W99904  14.920   4.788   1.462
27645W        W99905  23.897  26.492   0.791
27646W        W99906  22.323   3.838   0.327
27647W        W99907   7.307  22.781   4.513
27648W        W99908  36.154  12.349   4.087
27649W        W99909   5.591  31.150   0.395
27650W        W99910  25.971   4.776   2.550
27651W        W99911  20.606  33.704  11.949
27652W        W99912  31.307  10.334   4.216
27653W        W99913   5.799  31.974  11.647
27654W        W99914   2.334   3.822   4.908
27655W        W99915  20.678  31.582   0.159
27656W        W99916  18.355  41.646   4.591
27657W        W99917  36.158   2.737   0.055
27658W        W99918  44.825  25.439   2.672
27659W        W99919  39.808   2.487  14.488
27660W        W99920  27.469  34.180  14.654
27661W        W99921  17.172   7.874  13.319
27662W        W99922   2.446  43.776   1.452
27663W        W99923   5.431  27.992  11.990
27664W        W99924   0.783  13.115  13.969
27665W        W99925  34.919  36.170  12.402
27666W        W99926  14.557  22.092   4.466
27667W        W99927  23.203   7.696  11.600
27668W        W99928  30.539  39.336   3.848
27669W        W99929  40.427  23.760  12.554
27670W        W99930  18.341  15.432   2.480
27671W        W99931  36.531  20.841  14.758
27672W        W99932  14.715  24.604   1.908
27673W        W99933  11.880  36.019  13.823
27674W        W99934  14.581   1.769  12.159
27675W        W99935  21.750  13.102  12.187
27676W        W99936  32.671  35.867  11.203
27677W        W99937  10.309  42.642  12.897
27678W        W99938   1.773  37.531   3.660
27679W        W99939  37.492  12.531   4.151
27680W        W99940  16.678  17.865  12.631
27681W        W99941  43.388   3.487  14.360
27682W        W99942  24.080  39.812   9.796
27683W        W99943  35.840  23.981   4.044
27684W        W99944  18.935  15.597   1.868
27685W        W99945  19.222  25.796   1.367
27686W        W99946  43.553  23.716   1.188
27687W        W99947  30.117  23.389  11.392
27688W        W99948   1.676  44.958   4.175
27689W        W99949  27.598  34.986   3.549
27690W        W99950  31.708  41.602   0.185
27691W        W99951  34.086  35.106  13.302
27692W        W99952  42.245  20.711  12.394
27693W        W99953  26.618  38.301   0.911
27694W        W99954   2.472  27.451   1.721
27695W        W99955  30.101   0.164   1.421
27696W        W99956  16.548  41.437   3.334
27697W        W99957  10.990  17.272   1.504
27698W        W99958   2.285  38.640   2.387
27699W        W99959  28.509  31.721   4.040
27700W        W99960   1.396  44.837  13.508
27701W        W99961  44.077   4.324   0.229
27702W        W99962  22.272  19.969   3.567
27703W        W99963   4.355  12.087  13.643
27704W        W99964  25.135   2.744  11.394
27705W        W99965   2.075  18.813  13.524
27706W        W99966  27.916  30.123   5.502
27707W        W99967   6.427  25.469   2.364
27708W        W99968  18.746  11.191  11.140
27709W        W99969  16.366  26.311   1.653
27710W        W99970   8.178  41.893   0.653
27711W        W99971  38.874  14.647   3.666
27712W        W99972  17.772   3.314  12.322
27713W        W99973   6.002  15.719  13.945
27714W        W99974  27.129  28.962  11.610
27715W        W99975  37.461  28.707  14.259
27716W        W99976  10.356  15.697   5.446
27717W        W99977   0.164  17.155   0.821
27718W        W99978  43.703  24.969   2.858
27719W        W99979   5.888  26.150   1.485
27720W        W99980  27.934  32.985   3.282
27721W        W99981  33.523  22.217   4.268
27722W        W99982   7.426  18.857  12.520
27723W        W99983  22.448  21.849   0.768
27724W        W99984  40.461  31.915  10.586
27725W        W99985  44.908  23.138   3.150
27726W        W99986  21.608   8.137   0.221
27727W        W99987   0.991  26.600   3.435
27728W        W99988   5.175  38.864   1.365
27729W        W99989  32.949  29.142   0.861
27730W        W99990  38.287  21.568  13.398
27731W        W99991  37.964  26.938  13.079
27732W        W99992  16.088  23.667   3.918
27733W        W99993   7.114  21.565   2.352
27734W        W99994  10.823   6.372   3.172
27735W        W99995   4.713  34.199  12.348
27736W        W99996   0.832  29.018   3.823
27737W        W99997  33.834   7.591  13.437
27738W        W99998  26.733   9.263   3.868
27739W        W99999   4.157   8.792   4.537
27740W        W    0  26.037  20.130  14.011
27741W        W    1   3.268  39.330   2.258
27742W        W    2  23.496   3.157  14.916
27743W        W    3  13.179  10.442  12.548
27744W        W    4  31.116  34.441   4.490
27745W        W    5  41.788   4.687  11.976
27746W        W    6  22.229  43.205   0.912
27747W        W    7  26.887   5.192   2.889
27748W        W    8  19.319  12.976   2.325
27749W        W    9  34.288  11.094   0.322
27750W        W   10  37.068  32.619  12.999
27751W        W   11  13.599   5.462   3.156
27752W        W   12  27.166  10.798  13.761
27753W        W   13  16.710  40.482   3.867
27754W        W   14  18.439  16.741  12.955
27755W        W   15   4.571  18.749  10.853
27756W        W   16   0.746   1.865   2.564
27757W        W   17  40.473  10.600   2.784
27758W        W   18   9.238  40.665  12.436
27759W        W   19   7.123  26.914   3.113
27760W        W   20   8.688  31.585   3.210
27761W        W   21  26.763  23.311  10.255
27762W        W   22  28.941  32.888   1.748
27763W        W   23  40.646  22.745   2.670
27764W        W   24  23.522  44.047  14.316
27765W        W   25  39.581  11.873   2.178
27766W        W   26  42.922   1.880  11.410
27767W        W   27  35.607   6.189  13.867
27768W        W   28  27.070  27.092   3.415
27769W        W   29  16.065  33.467  13.529
27770W        W   30   8.915  15.377   1.271
27771W        W   31  23.180  41.549  13.422
27772W        W   32   9.440  38.289   1.893
27773W        W   33  32.969  22.694  14.794
27774W        W   34  28.006  37.014   2.386
27775W        W   35  37.833  10.204  11.855
27776W        W   36  44.726  29.621   4.867
27777W        W   37  14.749  21.066   1.686
27778W        W   38  32.948   5.842  10.891
27779W        W   39  19.217  14.242  12.431
27780W        W   40  16.036  37.808  10.809
27781W        W   41  31.342   0.797   0.200
27782W        W   42  25.569   2.440   1.462
27783W        W   43  31.299  22.560  14.316
27784W        W   44  10.145   7.161   4.148
27785W        W   45  32.836  40.366  11.864
27786W        W   46  11.594  25.882   3.736
27787W        W   47  11.810  40.369   5.112
27788W        W   48  12.136   7.174  14.561
27789W        W   49  27.131  33.489   4.002
27790W        W   50  41.830   7.263  11.455
27791W        W   51  26.552   7.436   3.227
27792W        W   52  38.253  40.843   1.795
27793W        W   53  20.496  36.769   3.335
27794W        W   54  16.305  43.724  13.335
27795W        W   55  10.389  21.043   0.864
27796W        W   56  32.213  37.867   2.332
27797W        W   57   3.248  33.712   1.279
27798W        W   58  20.730   1.739   0.005
27799W        W   59  33.215  28.948   2.203
27800W        W   60   9.775   6.186   1.252
27801W        W   61  39.367  40.604   3.699
27802W        W   62  11.811   1.593   1.419
27803W        W   63  33.075  11.808   3.098
27804W        W   64  40.513   8.834   4.148
27805W        W   65  17.167  35.602   1.716
27806W        W   66  26.406  19.180  10.342
27807W        W   67   0.618   5.268  11.937
27808W        W   68  36.307  24.585  12.489
27809W        W   69  19.224   4.246  14.347
27810W        W   70  33.370   9.774   0.282
27811W        W   71  18.037  12.832   3.702
27812W        W   72  20.137  40.842  11.179
27813W        W   73  40.022  44.500   0.823
27814W        W   74   7.705  39.089   2.700
27815W        W   75  23.331  37.481   2.209
27816W        W   76  11.049   3.858   0.822
27817W        W   77   8.837  24.161   2.896
27818W        W   78  28.166  28.645  10.923
27819W        W   79  17.601  32.982  11.344
27820W        W   80  10.764   6.241  12.095
27821W        W   81   8.896  28.397   2.185
27822W        W   82  24.766  26.676  11.069
27823W        W   83   6.941  25.483   3.279
27824W        W   84  37.310  17.580  12.462
27825W        W   85   3.220  24.489   2.219
27826W        W   86  17.147  20.383  11.114
27827W        W   87  42.856  44.509  13.287
27828W        W   88  35.783  24.208   1.348
27829W        W   89   3.654  28.003  14.478
27830W        W   90  13.585  10.125  12.596
27831W        W   91  17.821  34.647   2.404
27832W        W   92  12.229   6.461   0.477
27833W        W   93  22.083  10.650   3.723
27834W        W   94  10.242  40.478  14.986
27835W        W   95   8.741  36.142   3.875
27836W        W   96  24.919  34.593   0.339
27837W        W   97  40.042  26.912  13.402
27838W        W   98   6.631  25.401  11.372
27839W        W   99  39.320   3.857   3.146
27840W        W  100   8.322  21.058  11.006
27841W        W  101  25.658  13.192   2.193
27842W        W  102   8.624   7.312   1.223
27843W        W  103  36.471  30.377  10.048
27844W        W  104  20.119  26.637   3.843
27845W        W  105  42.105  40.898  13.795
27846W        W  106  12.631  31.531  10.899
27847W        W  107  38.446  38.394  11.353
27848W        W  108  43.733  25.478   2.202
27849W        W  109  24.776  44.025  12.738
27850W        W  110  32.474  37.079  13.943
27851W        W  111  32.491   9.661  11.949
27852W        W  112  14.019  23.542   4.109
27853W        W  113  42.504  12.235  13.596
27854W        W  114  17.022   7.267   5.057
27855W        W  115   9.788  39.761   2.735
27856W        W  116   7.894   0.538  12.468
27857W        W  117  18.727  14.315   4.473
27858W        W  118  14.315  10.529   4.197
27859W        W  119   9.094  13.586   1.798
27860W        W  120  22.899   0.966  14.368
27861W        W  121  25.843  29.476  14.468
27862W        W  122  31.901  38.501   0.623
27863W        W  123  13.230   3.390   1.923
27864W        W  124  28.797  28.127  10.684
27865W        W  125  29.414   9.235   1.126
27866W        W  126  42.733   1.707   0.904
27867W        W  127  35.094   1.911  14.740
27868W        W  128  12.079  28.465   3.640
27869W        W  129  10.640  26.668  12.674
27870W        W  130  18.035   9.438   1.902
27871W        W  131  42.863  30.567   4.788
27872W        W  132  41.290  44.947   0.876
27873W        W  133  25.825  23.889   0.974
27874W        W  134  38.807   6.166  11.416
27875W        W  135  29.494  20.838  13.482
27876W        W  136  21.086  17.541  11.644
27877W        W  137  12.887  34.894   3.396
27878W        W  138   6.207  36.939   3.611
27879W        W  139   2.177  17.533   0.441
27880W        W  140  29.492   4.784   5.013
27881W        W  141  10.218  41.587  10.455
27882W        W  142  41.677  34.915   2.678
27883W        W  143   2.732  13.071   4.462
27884W        W  144  19.688  44.382  12.259
27885W        W  145   0.490  44.293   0.700
27886W        W  146  19.664  44.924  12.294
27887W        W  147  11.612  20.361  12.083
27888W        W  148  38.187  25.964   2.932
27889W        W  149  22.125  22.911  11.424
27890W        W  150  13.337  16.320  14.224
27891W        W  151  25.015   5.089   1.699
27892W        W  152   6.010  41.984  13.799
27893W        W  153   4.469  40.887   5.083
27894W        W  154   5.158  26.595  13.926
27895W        W  155   7.186  30.109   1.990
27896W        W  156  28.472  23.688   2.412
27897W        W  157  34.476  38.625  12.620
27898W        W  158  40.350  43.043   2.135
27899W        W  159  27.507  39.355  11.094
27900W        W  160  16.297   9.809   3.683
27901W        W  161  14.057  29.936   1.275
27902W        W  162   1.461  43.895   4.552
27903W        W  163  41.921   7.899   2.948
27904W        W  164  12.771   2.320  12.000
27905W        W  165  23.722  27.180   2.285
27906W        W  166   4.309  10.390   3.359
27907W        W  167   7.494  23.659   1.807
27908W        W  168  15.784   1.745  10.971
27909W        W  169  25.696  12.937  14.289
27910W        W  170  31.015   5.834   1.881
27911W        W  171  37.175  11.290   0.760
27912W        W  172  30.111  42.531  11.569
27913W        W  173  26.506   0.493   2.423
27914W        W  174  10.798  35.875   3.611
27915W        W  175  36.204  42.322  12.640
27916W        W  176  28.545  44.334   3.994
27917W        W  177  43.619  15.128   1.368
27918W        W  178  11.550   9.501  13.966
27919W        W  179  40.884  23.574  12.686
27920W        W  180  33.488  43.522  13.835
27921W        W  181  20.481  23.122  13.949
27922W        W  182  12.564  13.109  14.446
27923W        W  183  20.574  25.505   0.575
27924W        W  184  39.806   3.033  12.522
27925W        W  185  17.219  15.252  11.073
27926W        W  186  14.049  43.792   1.397
27927W        W  187   1.167  30.203  12.054
27928W        W  188  12.298   5.924   0.472
27929W        W  189  41.349  15.641  11.627
27930W        W  190  25.534  34.827   2.900
27931W        W  191  12.679  15.975   5.385
27932W        W  192  15.490  35.057  13.299
27933W        W  193  14.217  35.588  12.959
27934W        W  194  18.702  42.978   2.123
27935W        W  195  36.363  12.071   1.867
27936W        W  196  23.514  37.038   1.911
27937W        W  197  37.929   3.895  11.145
27938W        W  198  37.374  38.705   4.224
27939W        W  199  31.177  42.280   2.630
27940W        W  200  43.975  14.250  13.688
27941W        W  201   0.024   2.983   4.174
27942W        W  202  22.598  12.219   2.908
27943W        W  203  40.963  25.456  13.768
27944W        W  204   8.456  27.982   4.744
27945W        W  205  39.555   3.196   2.238
27946W        W  206  18.605   4.509   3.350
27947W        W  207  21.471   1.759  14.694
27948W        W  208  43.506  39.863  14.927
27949W        W  209  36.860  15.695  13.354
27950W        W  210  15.763   8.148  10.987
27951W        W  211  31.694   8.407  13.571
27952W        W  212  11.699  30.590  10.731
27953W        W  213  19.151   5.143  12.361
27954W        W  214  40.809  27.167   2.292
27955W        W  215  29.579  34.878  11.194
27956W        W  216   1.910   7.518   1.792
27957W        W  217  44.299  11.207   2.873
27958W        W  218  16.270  22.727  12.107
27959W        W  219  10.824  11.960   0.740
27960W        W  220   9.216  14.680  10.948
27961W        W  221   3.419  40.579  12.570
27962W        W  222  23.778  32.832  14.134
27963W        W  223   1.989   2.710   2.790
27964W        W  224  28.172  21.675  14.692
27965W        W  225  43.940  39.117   2.376
27966W        W  226   1.687  43.126  12.944
27967W        W  227  29.630  36.495   3.156
27968W        W  228  18.243  33.920   3.669
27969W        W  229  30.394   7.612   3.113
27970W        W  230  37.694  30.215  11.938
27971W        W  231  34.553  20.004  12.014
27972W        W  232   8.227  13.706  14.821
27973W        W  233  27.001   0.731  14.921
27974W        W  234  25.621  32.404   1.883
27975W        W  235  24.748  29.868   4.516
27976W        W  236   9.236  41.488   4.672
27977W        W  237  41.005  21.622   3.422
27978W        W  238  15.260   3.245   4.576
27979W        W  239   9.384   2.451   1.318
27980W        W  240  12.113   8.668   0.353
27981W        W  241  42.663  13.700   2.107
27982W        W  242   8.650   1.963  13.287
27983W        W  243  43.185  11.656   0.913
27984W        W  244  10.603  29.285   4.923
27985W        W  245  43.537   6.574   2.714
27986W        W  246   9.197  33.456   4.621
27987W        W  247  41.707  27.673   3.681
27988W        W  248   8.139  41.799  13.825
27989W        W  249  13.487  39.632   1.424
27990W        W  250  20.296  32.110  11.457
27991W        W  251  36.036  16.819  13.546
27992W        W  252  37.973  28.517   1.888
27993W        W  253  32.685  42.977   4.007
27994W        W  254  32.966  28.486  11.944
27995W        W  255   0.803  24.054  11.181
27996W        W  256  44.547   3.823   3.608
27997W        W  257  41.808  17.326  10.698
27998W        W  258  42.441  25.860  11.067
27999W        W  259   8.449  33.598  11.625
28000W        W  260  41.077  31.488   0.296
28001W        W  261   3.365  24.030   4.421
28002W        W  262  13.912  28.630  11.711
28003W        W  263  12.268   3.496   4.572
28004W        W  264  16.095  20.537   1.608
28005W        W  265  33.364  22.634   3.474
28006W        W  266  18.071  19.118  11.045
28007W        W  267  21.176  11.340  13.839
28008W        W  268   1.343  27.622  10.837
28009W        W  269  20.728  38.925  14.936
28010W        W  270  18.480  35.099   0.303
28011W        W  271  25.129  30.132   1.153
28012W        W  272  11.081  25.483   4.228
28013W        W  273  34.324  42.064  11.116
28014W        W  274  13.239  14.784   5.337
28015W        W  275  25.048  38.917  10.506
28016W        W  276  24.195   8.896   2.367
28017W        W  277  31.135  19.234  11.895
28018W        W  278  23.313  35.791   5.015
28019W        W  279  14.719  16.588   4.058
28020W        W  280   0.799  26.948   2.654
28021W        W  281  29.667  39.552   4.897
28022W        W  282  44.616  19.956  12.887
28023W        W  283   8.072  12.817   2.886
28024W        W  284   4.685  37.440   0.911
28025W        W  285  28.382   3.460   2.837
28026W        W  286  44.371  17.987  10.628
28027W        W  287  41.835  35.833  12.822
28028W        W  288  15.175  38.561   4.379
28029W        W  289  16.711   6.130   5.022
28030W        W  290  37.976  25.701  11.021
28031W        W  291   7.557  31.982   4.954
28032W        W  292  25.764  29.462   1.433
28033W        W  293  38.872   5.791   0.351
28034W        W  294   1.934  15.204   4.538
28035W        W  295   0.166  44.960  14.335
28036W        W  296  16.367   1.313   1.177
28037W        W  297  32.564   6.772   4.850
28038W        W  298   7.352  37.547   0.280
28039W        W  299  44.666  13.887  12.813
28040W        W  300   0.633  44.959   0.302
28041W        W  301  21.698  19.355  10.269
28042W        W  302  20.818  22.283   0.782
28043W        W  303  32.943  42.543   3.766
28044W        W  304   5.267  28.155   0.478
28045W        W  305  27.196   6.697  11.419
28046W        W  306  25.263  14.122   3.127
28047W        W  307  39.896  32.526  13.701
28048W        W  308  14.557  27.459   2.840
28049W        W  309  16.516  28.036  14.281
28050W        W  310  42.623  34.382   1.962
28051W        W  311  36.970  10.318   3.305
28052W        W  312  32.423  42.536   3.785
28053W        W  313  23.993   3.223  13.072
28054W        W  314  23.656  26.586   2.629
28055W        W  315  17.308  19.768  13.785
28056W        W  316  44.389  25.334  13.108
28057W        W  317   3.493  25.147  12.057
28058W        W  318   3.265  22.801  14.975
28059W        W  319  38.501   9.904  11.134
28060W        W  320  41.326  22.719   4.385
28061W        W  321  31.749   7.791   2.167
28062W        W  322  14.446  44.536  11.343
28063W        W  323  15.524  38.615  13.712
28064W        W  324  28.892  40.351   0.553
28065W        W  325  39.802  41.782  13.883
28066W        W  326  28.955  39.002  13.947
28067W        W  327  20.239  12.285   1.823
28068W        W  328  16.575  30.705   3.219
28069W        W  329  37.524  17.107  12.521
28070W        W  330   2.975  19.020   0.482
28071W        W  331  14.235  15.207  12.543
28072W        W  332  17.064  22.029   1.253
28073W        W  333  39.998  28.472  11.896
28074W        W  334   8.773  19.807  13.862
28075W        W  335  14.156  43.371   0.460
28076W        W  336  24.806  43.459   0.366
28077W        W  337   4.895   8.168   0.765
28078W        W  338  29.055  29.592  14.881
28079W        W  339  16.829  18.325  11.745
28080W        W  340  43.855  16.847   1.463
28081W        W  341  10.507  22.808  12.555
28082W        W  342   6.956  10.758   2.494
28083W        W  343  13.563   6.538  14.438
28084W        W  344  29.123  28.100  14.567
28085W        W  345  36.539  19.397   1.545
28086W        W  346  23.868  32.578  11.378
28087W        W  347  43.598  26.802   0.961
28088W        W  348  27.915  36.749  13.950
28089W        W  349  20.243  10.226  13.760
28090W        W  350  43.802  43.482   1.460
28091W        W  351  38.927  31.150   1.058
28092W        W  352  32.592  32.912  12.563
28093W        W  353  30.246   1.849   0.734
28094W        W  354  24.367  39.840  10.255
28095W        W  355  32.785  32.741   4.241
28096W        W  356  40.526   6.291  12.408
28097W        W  357  17.447  14.790   1.795
28098W        W  358   5.382  35.818   1.462
28099W        W  359  19.651  25.765  10.729
28100W        W  360  11.915  34.634   1.278
28101W        W  361   7.579   0.476  14.999
28102W        W  362   6.140  10.951   1.009
28103W        W  363  33.862   2.188  14.286
28104W        W  364  41.133  12.547  10.670
28105W        W  365  24.455   9.930   1.844
28106W        W  366  24.145   0.497  12.734
28107W        W  367  19.365  35.357  13.529
28108W        W  368  41.169  42.508   1.874
28109W        W  369  39.822  32.515   3.180
28110W        W  370  35.072  39.385  10.525
28111W        W  371  13.621  42.802  11.030
28112W        W  372   1.656  35.460   0.832
28113W        W  373   9.764   8.701   1.609
28114W        W  374  43.740  13.279  11.193
28115W        W  375  14.086  43.516   3.212
28116W        W  376  37.468  32.012   3.259
28117W        W  377  39.902   2.956   4.356
28118W        W  378   2.226  12.242   0.958
28119W        W  379  42.799  41.539   0.439
28120W        W  380  36.132   3.286  11.273
28121W        W  381  43.817  11.314   4.075
28122W        W  382   4.892  40.946  11.682
28123W        W  383  18.427  33.048   3.841
28124W        W  384   0.015  20.817   1.811
28125W        W  385  29.289  42.336   2.295
28126W        W  386  41.661  19.813  13.523
28127W        W  387  29.449  34.071  11.582
28128W        W  388  22.096  17.596   3.417
28129W        W  389  30.610  19.647  10.215
28130W        W  390   2.224  18.677   4.347
28131W        W  391  23.524  36.588  14.100
28132W        W  392  33.947  43.056  12.915
28133W        W  393   7.730  16.373  10.570
28134W        W  394  11.245  26.941  13.143
28135W        W  395  13.591   8.898  12.367
28136W        W  396  33.213  42.324   3.362
28137W        W  397  14.205  36.073  10.331
28138W        W  398  24.599  18.968   3.286
28139W        W  399  43.928  39.260   0.221
28140W        W  400  37.040  41.079  13.805
28141W        W  401  11.794   0.708  10.592
28142W        W  402   3.069  44.657  10.940
28143W        W  403  36.150   4.006  12.568
28144W        W  404  24.082   6.909  12.587
28145W        W  405  20.442  38.966   2.252
28146W        W  406  36.087   8.331  14.067
28147W        W  407  23.045   7.082   1.590
28148W        W  408   4.978  32.167   2.685
28149W        W  409   5.008  20.270   3.759
28150W        W  410  13.231  16.031  14.718
28151W        W  411   9.075  25.607  14.302
28152W        W  412  33.252  37.236  10.698
28153W        W  413  41.847  38.747   2.302
28154W        W  414  27.670   3.382  12.063
28155W        W  415  37.014   7.886  11.436
28156W        W  416  37.390  29.626   1.916
28157W        W  417  44.182  25.916  14.003
28158W        W  418  24.112  43.558  12.308
28159W        W  419  16.330  21.222   1.780
28160W        W  420  27.181  18.502   2.635
28161W        W  421  29.927  19.583   1.701
28162W        W  422  39.450  20.167   2.477
28163W        W  423  40.210  19.533  12.091
28164W        W  424  20.241  18.329  11.064
28165W        W  425  12.638  43.884  13.611
28166W        W  426  16.788  44.474  11.629
28167W        W  427   5.455  25.935  14.694
28168W        W  428  24.553  29.865   1.795
28169W        W  429  33.651  26.589  13.894
28170W        W  430  39.487  24.542   2.879
28171W        W  431  35.370   9.643   2.871
28172W        W  432  42.108  29.590   0.550
28173W        W  433  29.626  12.247   1.298
28174W        W  434  33.478  23.527   1.822
28175W        W  435  23.081  43.370  11.165
28176W        W  436   1.481  44.910  14.062
28177W        W  437  27.959  36.081   2.740
28178W        W  438  27.257  33.079  13.604
28179W        W  439  21.015  41.758   2.699
28180W        W  440  13.214  11.642  10.810
28181W        W  441   4.927  36.599  13.395
28182W        W  442  27.291  40.500   5.361
28183W        W  443  13.095  30.644   0.704
28184W        W  444   5.742  12.816  11.588
28185W        W  445  16.717   2.021   3.845
28186W        W  446  39.826  33.143   4.764
28187W        W  447   8.654  29.333   1.556
28188W        W  448  34.590  36.523   2.131
28189W        W  449  27.734  36.874  14.931
28190W        W  450  12.111  24.014  12.158
28191W        W  451   8.212   7.403  14.376
28192W        W  452   4.679  13.121  14.547
28193W        W  453  25.660  27.230   2.991
28194W        W  454  43.736  38.508   3.275
28195W        W  455  42.576  36.558  13.961
28196W        W  456  34.006   5.170  11.987
28197W        W  457  34.911  11.196   2.739
28198W        W  458  29.592  26.289   2.299
28199W        W  459  37.700  30.065  10.812
28200W        W  460  39.755  26.559   2.826
28201W        W  461   7.568  33.282   3.667
28202W        W  462  34.578   1.494  13.439
28203W        W  463  31.424   3.182   3.135
28204W        W  464  42.296  41.763  11.930
28205W        W  465  21.520   3.086  14.760
28206W        W  466  23.486   8.182  12.924
28207W        W  467  16.525   2.720  11.482
28208W        W  468   6.389  44.359  12.305
28209W        W  469   5.071  29.789  13.039
28210W        W  470  40.375  21.500   3.288
28211W        W  471   3.353  21.636   1.521
28212W        W  472  10.216  37.590   2.001
28213W        W  473  24.534  13.845  13.579
28214W        W  474  34.521  39.789  11.098
28215W        W  475  10.327  12.870   2.382
28216W        W  476  25.089  31.614   4.578
28217W        W  477  40.971  29.073  13.461
28218W        W  478  16.846  34.610   2.763
28219W        W  479  29.615   8.177  14.069
28220W        W  480  31.150  39.570  10.532
28221W        W  481  15.849  16.316  13.901
28222W        W  482   8.261   1.304  14.330
28223W        W  483   1.370  27.915  12.923
28224W        W  484  19.334  41.449   3.766
28225W        W  485  43.336  37.343  11.869
28226W        W  486  26.112  22.969   1.670
28227W        W  487  35.582   4.709   0.132
28228W        W  488  20.139   8.114  12.000
28229W        W  489  14.433  39.757   1.084
28230W        W  490   6.421  18.154  13.516
28231W        W  491  31.927  25.754   0.794
28232W        W  492  27.987  34.171  12.159
28233W        W  493  21.558  41.103   3.201
28234W        W  494  13.861  10.136  14.964
28235W        W  495  41.060  32.001   3.320
28236W        W  496  17.558  40.319   3.309
28237W        W  497  15.057  44.671   1.373
28238W        W  498   0.306  32.867   0.863
28239W        W  499  22.509  30.055   0.814
28240W        W  500  14.082   9.370  13.089
28241W        W  501  41.436  25.542  13.496
28242W        W  502   5.302  26.375  13.477
28243W        W  503  11.798  15.532   2.665
28244W        W  504  25.192  33.193  12.159
28245W        W  505  31.825  18.336  11.165
28246W        W  506   2.858  25.577   4.166
28247W        W  507  33.874  43.578  13.005
28248W        W  508   5.677  20.067   0.866
28249W        W  509   7.927  15.128   1.204
28250W        W  510   1.555   1.704  13.492
28251W        W  511  12.344   1.249  13.479
28252W        W  512  18.100   2.187   0.530
28253W        W  513  23.778  30.972  11.382
28254W        W  514  36.921  40.044   3.274
28255W        W  515  14.612  20.523  14.329
28256W        W  516  32.610   0.825   2.390
28257W        W  517  31.648  37.872   0.294
28258W        W  518  38.469  27.419   3.435
28259W        W  519   5.919   4.460   2.259
28260W        W  520  44.997  27.308   4.848
28261W        W  521   6.992  14.237   3.219
28262W        W  522  14.261  44.795  13.566
28263W        W  523  38.932   8.838  10.724
28264W        W  524   6.695  41.425  11.428
28265W        W  525  26.948  33.307  13.936
28266W        W  526  40.488   5.187  13.497
28267W        W  527  19.131   0.189   2.302
28268W        W  528  43.859  36.904   1.700
28269W        W  529   3.902   9.887  10.829
28270W        W  530  43.201  12.172  12.988
28271W        W  531   1.497  35.992  12.074
28272W        W  532  20.698   7.338  14.810
28273W        W  533  33.964  11.514   9.950
28274W        W  534  32.425  42.229   2.182
28275W        W  535  36.164  37.410  13.469
28276W        W  536  26.718   3.278  10.560
28277W        W  537  18.562  35.062  11.691
28278W        W  538   2.606  31.911  14.514
28279W        W  539  40.755   9.185   4.494
28280W        W  540  20.743  44.964   1.401
28281W        W  541  37.010  23.468   3.238
28282W        W  542  25.998  41.381  12.569
28283W        W  543  36.960   0.831   2.572
28284W        W  544  28.789   5.179   4.573
28285W        W  545  22.292  39.508  12.567
28286W        W  546   3.268  34.491   0.551
28287W        W  547  10.573  19.678   1.900
28288W        W  548  17.653  37.701  14.215
28289W        W  549  13.137  22.997   3.706
28290W        W  550  42.915  15.718   2.142
28291W        W  551  18.091  38.891   0.000
28292W        W  552  42.583   7.385   2.590
28293W        W  553  15.256  22.077  13.146
28294W        W  554  14.988  32.016   1.648
28295W        W  555   0.978  43.181  13.886
28296W        W  556  43.756   1.274  14.126
28297W        W  557  16.853  38.053  13.988
28298W        W  558  11.376  19.729   0.749
28299W        W  559  34.685  39.251  11.091
28300W        W  560  11.284  39.922  14.097
28301W        W  561  10.472  21.720   5.100
28302W        W  562  15.658  18.871  13.890
28303W        W  563  11.100  43.251  13.403
28304W        W  564   4.397  19.492  10.667
28305W        W  565  13.066  13.747   0.622
28306W        W  566   1.412  31.409  10.778
28307W        W  567   6.421  27.671  10.047
28308W        W  568   8.754  40.527   0.904
28309W        W  569  27.127  13.754  12.310
28310W        W  570  26.445  20.079   3.610
28311W        W  571  21.565  26.678   3.699
28312W        W  572  20.770  28.158   1.890
28313W        W  573  32.209   0.026   1.830
28314W        W  574   7.905  14.845  11.168
28315W        W  575  22.062  38.877   4.671
28316W        W  576  21.208  18.764   5.124
28317W        W  577  41.265  27.403   2.297
28318W        W  578   1.510  34.841   4.437
28319W        W  579  34.442  26.364  14.268
28320W        W  580  41.079  13.321  11.454
28321W        W  581  21.049  24.626  11.886
28322W        W  582  20.015  23.070   3.325
28323W        W  583  10.288  24.090   2.686
28324W        W  584   6.693  25.291   2.857
28325W        W  585  24.177   5.824  14.256
28326W        W  586  33.356  16.161  14.680
28327W        W  587   9.234  33.894   0.052
28328W        W  588  30.954  33.368  11.125
28329W        W  589  34.025  42.526   0.295
28330W        W  590  30.381  35.036   1.791
28331W        W  591  17.205  10.206  13.090
28332W        W  592   9.346  26.497  10.284
28333W        W  593  35.565  32.633  13.467
28334W        W  594  27.541  19.215   0.567
28335W        W  595  30.704  20.784  11.990
28336W        W  596   9.707  17.261   4.983
28337W        W  597  19.461  28.091   3.609
28338W        W  598  19.809   2.678   4.171
28339W        W  599  43.858   8.438  12.089
28340W        W  600  12.114  26.687  10.947
28341W        W  601  21.747  22.270   0.412
28342W        W  602  29.147  25.149   3.635
28343W        W  603  26.521   4.718   0.821
28344W        W  604   7.711  25.528  13.842
28345W        W  605   4.794   0.468   1.677
28346W        W  606  16.710   9.875  11.057
28347W        W  607  11.092  25.590   0.180
28348W        W  608   5.735  44.722  13.993
28349W        W  609  25.212  19.357  13.222
28350W        W  610  35.341  41.556   2.332
28351W        W  611  26.744   4.869  11.719
28352W        W  612   9.981  36.633  10.667
28353W        W  613  15.132  14.076  14.570
28354W        W  614  33.082  20.516  12.132
28355W        W  615  19.806  27.603  12.600
28356W        W  616  37.852  23.927  11.934
28357W        W  617  43.745  41.869  14.439
28358W        W  618  13.142  44.569   1.837
28359W        W  619  21.954   2.740  10.401
28360W        W  620  42.328  17.248  13.176
28361W        W  621  13.323  13.669  14.019
28362W        W  622  44.186   7.839   1.229
28363W        W  623  39.315  40.563   4.609
28364W        W  624  24.073   3.268   3.611
28365W        W  625   6.689  18.726   1.467
28366W        W  626   8.150  26.236   4.121
28367W        W  627   5.817  15.274   2.149
28368W        W  628  16.465  37.993   1.847
28369W        W  629  36.119   2.902   2.275
28370W        W  630  17.149  33.653   0.694
28371W        W  631   4.138  25.540   4.582
28372W        W  632  32.364  30.019  12.760
28373W        W  633   6.387  34.556  10.571
28374W        W  634  15.118  25.491  11.585
28375W        W  635   8.726  18.480   4.915
28376W        W  636  10.878  22.159  10.510
28377W        W  637   7.083  37.986   0.404
28378W        W  638   1.343  17.725   0.154
28379W        W  639  21.003  36.862  10.752
28380W        W  640   6.048  32.959   2.751
28381W        W  641  19.074  27.128  14.272
28382W        W  642  34.231  37.049   1.249
28383W        W  643   8.897  26.290   1.825
28384W        W  644  33.807  39.811  11.542
28385W        W  645  11.365  38.252   1.739
28386W        W  646  28.394   5.218   2.891
28387W        W  647  17.267   7.679   2.356
28388W        W  648  19.963  43.429   0.331
28389W        W  649  40.243  14.597   1.788
28390W        W  650   1.205  37.182  12.562
28391W        W  651  22.165  20.025  13.340
28392W        W  652   2.997   6.214  14.596
28393W        W  653   7.969  25.744   2.310
28394W        W  654   0.350  44.284   1.601
28395W        W  655   7.474  30.101  12.375
28396W        W  656  33.411  32.348  13.625
28397W        W  657  27.211  41.048  12.088
28398W        W  658   8.288  18.281   1.768
28399W        W  659  44.392  27.510  10.733
28400W        W  660  24.547   3.784   1.857
28401W        W  661  32.094  13.634  12.938
28402W        W  662   2.184  41.033  14.851
28403W        W  663  32.832  33.648  13.509
28404W        W  664  32.331  18.247   3.754
28405W        W  665  28.519  40.831   3.456
28406W        W  666   3.881  28.667  12.629
28407W        W  667   7.469  33.971  12.070
28408W        W  668   7.205  18.478   1.984
28409W        W  669  26.069  16.060  11.283
28410W        W  670  16.520   4.857   2.847
28411W        W  671  32.568  39.412  14.296
28412W        W  672  12.269  17.116  13.106
28413W        W  673  14.725  41.779   0.853
28414W        W  674  14.746  37.352  11.391
28415W        W  675  26.637  31.556  10.538
28416W        W  676  43.587   1.229   1.428
28417W        W  677  14.668  32.151   0.795
28418W        W  678   2.501   7.145  11.007
28419W        W  679  44.421  15.752  11.466
28420W        W  680  27.001  34.404  13.295
28421W        W  681  27.150  31.609  13.342
28422W        W  682   9.672  27.707  12.847
28423W        W  683  33.904  28.650  11.674
28424W        W  684  29.061  34.870  13.414
28425W        W  685   4.974  10.269  11.201
28426W        W  686  44.439  20.981   0.336
28427W        W  687   9.299  27.099   3.836
28428W        W  688  21.158  38.850  13.229
28429W        W  689  39.510  37.923  14.077
28430W        W  690  31.613  35.833  14.445
28431W        W  691  20.220  10.345  13.261
28432W        W  692  18.005  19.630  14.297
28433W        W  693   5.334  21.277   1.462
28434W        W  694  35.278  14.270   0.854
28435W        W  695  10.837  36.942   0.783
28436W        W  696  37.356  39.560  11.894
28437W        W  697  25.763  29.067   3.608
28438W        W  698  34.548   5.772   4.519
28439W        W  699  21.769  19.149   1.231
28440W        W  700  33.918  12.376  14.364
28441W        W  701   0.709   0.633   1.027
28442W        W  702  22.825  39.434  14.300
28443W        W  703  24.480  37.977   1.137
28444W        W  704   5.930  19.083  13.357
28445W        W  705  37.873  25.628   4.719
28446W        W  706  24.762   5.243  14.330
28447W        W  707   3.853  11.738   3.839
28448W        W  708  38.306  44.059  12.859
28449W        W  709  17.767  29.666  14.877
28450W        W  710  42.959   6.407  14.933
28451W        W  711  44.665  22.811  14.245
28452W        W  712  24.655  19.556   0.951
28453W        W  713  34.552   9.790  10.443
28454W        W  714  27.553  28.100   3.713
28455W        W  715  32.272  30.959  13.440
28456W        W  716  41.348  24.955  11.451
28457W        W  717   0.021  22.506  11.564
28458W        W  718   5.087  24.548   4.516
28459W        W  719   6.327  41.574   2.869
28460W        W  720  23.982  29.385   1.339
28461W        W  721  19.139  15.409   1.417
28462W        W  722  43.412  26.115  10.912
28463W        W  723  15.173  10.342   3.296
28464W        W  724  17.098  16.800   0.003
28465W        W  725  39.055   9.158  13.486
28466W        W  726   6.467  36.479  12.436
28467W        W  727  41.363  44.705  11.398
28468W        W  728  36.295  11.335   0.372
28469W        W  729  11.405  19.949   1.463
28470W        W  730  15.487  21.891  13.563
28471W        W  731  11.935   2.862  11.158
28472W        W  732  22.638  24.442   0.308
28473W        W  733  19.172  18.686  13.937
28474W        W  734  29.634  42.374  14.974
28475W        W  735  44.439  19.070   1.756
28476W        W  736  18.511  32.218  10.159
28477W        W  737   7.928  35.688  10.563
28478W        W  738  24.105  19.152   0.333
28479W        W  739   5.903  41.704  11.944
28480W        W  740  14.046   4.674  13.938
28481W        W  741  14.104  22.254   2.077
28482W        W  742  13.103  42.295   3.700
28483W        W  743  30.121  35.855  11.530
28484W        W  744   8.651  27.484   1.373
28485W        W  745  32.312   9.257  12.166
28486W        W  746  16.174  16.946   1.915
28487W        W  747   3.234  16.910  14.230
28488W        W  748   0.559   4.189  12.542
28489W        W  749  40.171  25.702   2.631
28490W        W  750  34.485  19.480  12.094
28491W        W  751  11.394  43.963  10.580
28492W        W  752   1.277  23.108   3.684
28493W        W  753  39.406  33.274   4.126
28494W        W  754   4.843   1.234  11.505
28495W        W  755  32.610  19.598  14.456
28496W        W  756  38.711  29.604   3.344
28497W        W  757  24.531   7.181  12.554
28498W        W  758  27.877  41.080  12.937
28499W        W  759   0.800   7.776   4.131
28500W        W  760  18.186  11.569   4.709
28501W        W  761  40.728  42.550   0.070
28502W        W  762  36.908  33.124   3.892
28503W        W  763  41.549  38.467   4.452
28504W        W  764   8.187   0.178  11.159
28505W        W  765  31.413  41.783   3.731
28506W        W  766  15.898  21.322  10.641
28507W        W  767  36.955   3.443  11.596
28508W        W  768  35.532  13.263   3.655
28509W        W  769  16.021  42.963  12.795
28510W        W  770  41.504  31.109   1.829
28511W        W  771   2.726   8.201   0.032
28512W        W  772  17.218  40.790   4.073
28513W        W  773  33.641   8.283   0.451
28514W        W  774  12.767  44.916  12.397
28515W        W  775  31.020  38.788   4.910
28516W        W  776  15.633  31.869   0.494
28517W        W  777   1.285   5.783   0.451
28518W        W  778  17.281   5.699   5.166
28519W        W  779  17.323  17.175   0.413
28520W        W  780  38.852  34.712   2.814
28521W        W  781  39.334  34.323  14.785
28522W        W  782  29.411   7.634   0.998
28523W        W  783   1.378   0.402  11.896
28524W        W  784   4.981  33.734  12.457
28525W        W  785   4.675  18.284  12.548
28526W        W  786  17.569   8.670  14.444
28527W        W  787   1.011  44.540  13.048
28528W        W  788   5.770  43.583  10.729
28529W        W  789  22.319  19.040   3.231
28530W        W  790  31.217  38.940  14.378
28531W        W  791   2.793  15.856   4.724
28532W        W  792  38.888  28.936   2.654
28533W        W  793  20.991  23.001   5.018
28534W        W  794   2.900  40.155   0.716
28535W        W  795  44.212  16.042   4.154
28536W        W  796  13.856  25.652   2.400
28537W        W  797  31.436  21.757   0.710
28538W        W  798   4.684  38.260  14.714
28539W        W  799  40.635  40.181  13.378
28540W        W  800   0.345  31.749   4.732
28541W        W  801  25.174  10.639  14.975
28542W        W  802  18.435  37.271   0.189
28543W        W  803   4.385  23.946   4.203
28544W        W  804  28.116  30.576   0.500
28545W        W  805  35.652   3.491   1.888
28546W        W  806   2.571  35.560  11.129
28547W        W  807  23.541   7.263  11.877
28548W        W  808   4.487  40.487   0.604
28549W        W  809  12.610  11.244   1.689
28550W        W  810   2.451   0.312  13.349
28551W        W  811  15.323  37.507  13.092
28552W        W  812  11.276   8.315   1.408
28553W        W  813  32.345  24.973   4.439
28554W        W  814  34.051  21.131   5.441
28555W        W  815  44.832  30.360   2.706
28556W        W  816  33.672  34.033   2.586
28557W        W  817   9.198  10.728   0.134
28558W        W  818  32.001   3.704  13.912
28559W        W  819  31.395  34.080   2.293
28560W        W  820   7.590  39.069   3.686
28561W        W  821  14.470  16.552  12.885
28562W        W  822  44.324  19.633  14.988
28563W        W  823  38.178  18.511   4.519
28564W        W  824  21.201  33.228   0.344
28565W        W  825  43.525  13.906  11.795
28566W        W  826   0.497   9.727  10.661
28567W        W  827  11.244  36.070   4.321
28568W        W  828   0.255  17.241  13.342
28569W        W  829  20.515   3.662   0.304
28570W        W  830  19.199  34.580  11.160
28571W        W  831  22.901  41.249  13.731
28572W        W  832  14.261   5.078   3.818
28573W        W  833  34.234  32.065   4.547
28574W        W  834   1.812  41.830   3.177
28575W        W  835  14.737  17.345   1.815
28576W        W  836   0.466  10.697   3.184
28577W        W  837  40.323  12.904   4.037
28578W        W  838  40.765  35.821   4.587
28579W        W  839  44.910  42.820   1.945
28580W        W  840  33.422  17.351  11.163
28581W        W  841  14.973   0.371  11.672
28582W        W  842  42.381   1.640  11.455
28583W        W  843  11.523  34.592   2.647
28584W        W  844  20.782  12.007   2.668
28585W        W  845  33.082  16.286   0.115
28586W        W  846  23.689  12.664  10.939
28587W        W  847  40.289  22.212   1.529
28588W        W  848  37.576  12.533  13.013
28589W        W  849  14.782  16.068   3.316
28590W        W  850   0.180  37.637  11.901
28591W        W  851  17.136  10.157   0.289
28592W        W  852  22.825  25.687   5.061
28593W        W  853   8.136   5.568   3.329
28594W        W  854   0.241  31.050  10.675
28595W        W  855  15.621  15.335  14.330
28596W        W  856   6.927  34.840   2.109
28597W        W  857  32.956  35.930   1.860
28598W        W  858  29.033  29.668   2.411
28599W        W  859  35.464  44.471  11.519
28600W        W  860  26.706  40.941   2.649
28601W        W  861  29.600  17.784  11.283
28602W        W  862   6.158  38.920   4.060
28603W        W  863  15.660  24.917  12.034
28604W        W  864   1.136  12.841  10.896
28605W        W  865  16.153  19.817   0.626
28606W        W  866  38.423  37.355   1.894
28607W        W  867  36.839  41.578   4.161
28608W        W  868  12.728  29.482   3.274
28609W        W  869  41.817  29.546   3.477
28610W        W  870  27.483  42.281   1.769
28611W        W  871  25.071  30.378  10.970
28612W        W  872  12.140  18.959  11.240
28613W        W  873  12.158  44.586   0.301
28614W        W  874  22.095  30.049  12.649
28615W        W  875   8.690  43.760   2.431
28616W        W  876  33.137  22.031   2.682
28617W        W  877   7.919  26.409  12.515
28618W        W  878  18.583   4.981  12.970
28619W        W  879  23.663  37.345   3.110
28620W        W  880  16.297  32.650  12.962
28621W        W  881   3.387  38.322  10.706
28622W        W  882  28.649   0.402  13.520
28623W        W  883  33.154  19.089   0.889
28624W        W  884  42.686  12.533   4.607
28625W        W  885  25.473   4.924   4.251
28626W        W  886  25.699   2.499  10.724
28627W        W  887  15.813  21.223  14.193
28628W        W  888   9.214  32.642   4.948
28629W        W  889  16.759  43.728   4.162
28630W        W  890  23.737  35.926   4.626
28631W        W  891  12.755   0.941  13.556
28632W        W  892  44.090  14.406   2.007
28633W        W  893  37.992   0.876  14.587
28634W        W  894  29.427  23.091   1.668
28635W        W  895   8.738   1.683   3.408
28636W        W  896  23.936  37.507  13.825
28637W        W  897  39.263   2.315   2.416
28638W        W  898  32.348  23.979  14.488
28639W        W  899  22.231  41.485   1.761
28640W        W  900  24.151  41.989   4.596
28641W        W  901  41.904   5.231   2.607
28642W        W  902  35.107  34.582  14.802
28643W        W  903  40.070  15.827   1.847
28644W        W  904  32.874  44.948  13.038
28645W        W  905  18.550  39.746  11.259
28646W        W  906  22.152   2.309   4.858
28647W        W  907  38.278  12.519  11.138
28648W        W  908  37.809  31.848  11.131
28649W        W  909  19.122   1.028  12.110
28650W        W  910  26.031   2.000  13.010
28651W        W  911  12.297  32.356   3.903
28652W        W  912   1.678  13.205   2.134
28653W        W  913  13.772  20.778   2.912
28654W        W  914  19.166  26.155   0.960
28655W        W  915   9.292  32.833   1.884
28656W        W  916  26.850   8.863   3.565
28657W        W  917  39.469  13.818   4.886
28658W        W  918  15.370  25.588  12.044
28659W        W  919  24.456  29.504  14.976
28660W        W  920   5.428  19.258  12.466
28661W        W  921  31.568  34.629   1.408
28662W        W  922  20.731  34.217  12.056
28663W        W  923  28.952  40.232   2.388
28664W        W  924   9.777   7.571  13.769
28665W        W  925  22.097  13.226   0.491
28666W        W  926  23.413  27.163   1.837
28667W        W  927  18.083  44.519   3.377
28668W        W  928  18.194  17.224   3.534
28669W        W  929   5.464  28.352  13.240
28670W        W  930  11.073  15.168  13.103
28671W        W  931  10.263  21.311  12.417
28672W        W  932  33.054  27.020   3.868
28673W        W  933   1.486   8.379   3.174
28674W        W  934  31.964  42.367  14.543
28675W        W  935  20.722  17.795   4.184
28676W        W  936  24.255  24.626   2.867
28677W        W  937  26.871  24.207   1.796
28678W        W  938  30.860   3.716   0.258
28679W        W  939   3.779  43.426  13.474
28680W        W  940  16.133   9.640  14.038
28681W        W  941  22.834  14.077   5.164
28682W        W  942  44.257  10.241   3.736
28683W        W  943  17.671  41.484  12.922
28684W        W  944   1.052  29.646  11.254
28685W        W  945  41.045  11.775  11.942
28686W        W  946  22.004  21.631  10.217
28687W        W  947  41.819   9.686  12.468
28688W        W  948  23.404   9.640  12.021
28689W        W  949   1.885   7.323   2.402
28690W        W  950  34.418  35.856   4.157
28691W        W  951  31.443   4.970   2.913
28692W        W  952  26.049  43.166  14.856
28693W        W  953   2.490   1.929   3.188
28694W        W  954  23.330  32.008   3.735
28695W        W  955  25.663   4.891  11.901
28696W        W  956  21.592  13.638  13.121
28697W        W  957  19.563  24.790   0.127
28698W        W  958   3.967  20.198   2.331
28699W        W  959  24.145  39.397  12.817
28700W        W  960  29.912   2.220   0.787
28701W        W  961   9.421  41.745  12.957
28702W        W  962  26.622  13.911   0.970
28703W        W  963  16.869   5.303   4.003
28704W        W  964   6.076   2.335  12.822
28705W        W  965  15.107  33.550   3.652
28706W        W  966   2.323  18.819   2.434
28707W        W  967  42.838  38.974   1.180
28708W        W  968  13.503  23.945   1.276
28709W        W  969   9.221  35.889  10.596
28710W        W  970  23.296  13.621  11.633
28711W        W  971  41.183  42.822  14.408
28712W        W  972  24.072   8.081   0.799
28713W        W  973   0.301  13.909   2.446
28714W        W  974  27.740  10.708  10.523
28715W        W  975  24.256  32.955   4.207
28716W        W  976   9.180  19.323   4.857
28717W        W  977   8.909  34.009  11.293
28718W        W  978   8.355  43.422   2.251
28719W        W  979  14.357   6.464   0.299
28720W        W  980  18.715  44.953  12.975
28721W        W  981  12.564  13.760   0.808
28722W        W  982   5.285  27.929   3.596
28723W        W  983  31.024  27.672   3.684
28724W        W  984   2.728  32.819   1.308
28725W        W  985   8.821  17.522   0.808
28726W        W  986  33.107  44.430  10.950
28727W        W  987   0.327  17.964  12.881
28728W        W  988  20.593  37.323   3.339
28729W        W  989  13.355  40.971   1.850
28730W        W  990  32.613  24.680  13.034
28731W        W  991   7.612   7.097  11.616
28732W        W  992  20.374   5.269  13.881
28733W        W  993  37.032  29.530  14.509
28734W        W  994  17.299  37.864  10.775
28735W        W  995  26.937   0.450  13.069
28736W        W  996  21.497  27.664   1.839
28737W        W  997   2.556  32.221   4.010
28738W        W  998  41.393   3.484  10.718
28739W        W  999  17.726  10.730   4.158
28740W        W 1000  24.606  12.160  10.852
28741W        W 1001  18.011  29.907  10.637
28742W        W 1002  27.765  17.702  11.272
28743W        W 1003  39.816  31.656  13.977
28744W        W 1004  43.861   1.337   1.883
28745W        W 1005  40.182  26.540  11.088
28746W        W 1006  35.769   4.449   4.135
28747W        W 1007  38.722   2.203   4.298
28748W        W 1008  39.105   4.468  12.088
28749W        W 1009  16.755  44.318  12.110
28750W        W 1010   4.738  30.781  14.787
28751W        W 1011   5.481  33.875  12.451
28752W        W 1012  22.228  21.715  13.981
28753W        W 1013  27.238   7.032  14.132
28754W        W 1014  17.861  38.407  14.881
28755W        W 1015  34.905  16.240  14.325
28756W        W 1016  12.292  26.222  10.746
28757W        W 1017   7.104   2.000   0.008
28758W        W 1018  33.550  23.959  13.784
28759W        W 1019  29.627   0.831  12.853
28760W        W 1020   1.237  40.722  11.728
28761W        W 1021   9.701  18.978  12.542
28762W        W 1022  35.887  23.069   3.634
28763W        W 1023  42.540   8.737  11.516
28764W        W 1024  43.455   8.149  11.972
28765W        W 1025  23.525  26.341  13.399
28766W        W 1026  11.250  44.911   0.965
28767W        W 1027  32.439  12.571   1.717
28768W        W 1028  17.836  10.423  14.499
28769W        W 1029  28.201  29.088  10.637
28770W        W 1030  24.932  37.087   0.917
28771W        W 1031   3.519  35.863   0.897
28772W        W 1032  21.144  36.189   5.054
28773W        W 1033  17.240  11.190  10.567
28774W        W 1034  43.130   3.371  13.919
28775W        W 1035   0.511  30.800   4.414
28776W        W 1036  21.949  32.046   1.899
28777W        W 1037   7.336  26.179  12.873
28778W        W 1038   2.948   2.954  12.999
28779W        W 1039  19.268  37.625  14.907
28780W        W 1040  17.168  13.107   3.993
28781W        W 1041  39.102  15.115   2.800
28782W        W 1042   2.382  38.540   1.292
28783W        W 1043  22.149  29.605  11.599
28784W        W 1044  21.267  33.918   0.061
28785W        W 1045  44.505  15.144  10.683
28786W        W 1046  37.374   7.610   3.911
28787W        W 1047   9.628  38.632   2.362
28788W        W 1048  21.932   9.150   3.397
28789W        W 1049  40.993  41.762  11.136
28790W        W 1050  12.181  41.537  14.460
28791W        W 1051  29.602  43.709  12.296
28792W        W 1052  14.581  17.547  13.076
28793W        W 1053  22.894   6.237   4.615
28794W        W 1054  24.615  30.429  11.251
28795W        W 1055   4.659   8.884   4.581
28796W        W 1056  38.517   4.765   3.673
28797W        W 1057  35.204  44.251  14.375
28798W        W 1058   8.148  21.272  12.400
28799W        W 1059  43.529  28.795   1.751
28800W        W 1060   3.474  24.236   3.953
28801W        W 1061  11.851  33.680  14.352
28802W        W 1062  27.282   9.427  10.315
28803W        W 1063   4.365   0.866  13.216
28804W        W 1064  37.103  10.924   4.584
28805W        W 1065  40.976  38.963  11.003
28806W        W 1066  16.561  23.675   3.605
28807W        W 1067  43.972  20.219   0.263
28808W        W 1068  39.561  35.976  14.761
28809W        W 1069  21.551  33.298  11.203
28810W        W 1070  19.151  14.903  12.963
28811W        W 1071  30.845  14.360   2.831
28812W        W 1072   8.160  10.803  12.593
28813W        W 1073  19.029  35.424  14.885
28814W        W 1074   6.221  17.523  12.728
28815W        W 1075  27.141  34.949  11.385
28816W        W 1076  24.416  41.507  13.935
28817W        W 1077   8.198  34.953  12.290
28818W        W 1078   1.829  37.876   2.354
28819W        W 1079  40.485  35.318   1.475
28820W        W 1080  32.895  43.158   0.974
28821W        W 1081  33.386  30.438   3.421
28822W        W 1082  42.511   7.832  10.738
28823W        W 1083  37.944  42.032  13.924
28824W        W 1084  16.259  12.645   3.306
28825W        W 1085   8.774  24.769   2.826
28826W        W 1086  10.059  21.597   2.790
28827W        W 1087  44.564   8.781  11.088
28828W        W 1088  29.202  38.385   3.213
28829W        W 1089  13.778  39.915   3.880
28830W        W 1090  31.868  36.887  12.745
28831W        W 1091  32.272  40.874   0.095
28832W        W 1092  27.053   7.428   3.489
28833W        W 1093  15.345  12.629   4.231
28834W        W 1094  10.727  35.502  13.900
28835W        W 1095   7.662   6.108  14.919
28836W        W 1096  35.106   0.701   2.376
28837W        W 1097  17.723  22.032   4.233
28838W        W 1098   6.152  26.122  13.784
28839W        W 1099  22.162  21.645   3.756
28840W        W 1100   5.636  37.072  11.547
28841W        W 1101   0.538  30.276   4.503
28842W        W 1102   8.241  22.274  13.356
28843W        W 1103   1.397   8.235   1.645
28844W        W 1104  25.616  31.519  13.988
28845W        W 1105  38.488   6.867   9.859
28846W        W 1106  42.006  10.699  12.114
28847W        W 1107  23.466  42.553   2.699
28848W        W 1108  19.540  22.238  13.066
28849W        W 1109   7.404  16.062   0.206
28850W        W 1110   7.223  15.290   4.514
28851W        W 1111   9.859  15.618   4.156
28852W        W 1112  24.647   5.902   0.635
28853W        W 1113   1.190  12.172  13.080
28854W        W 1114   2.335  23.125   4.696
28855W        W 1115  25.522   6.864   2.297
28856W        W 1116   9.792  37.322   1.830
28857W        W 1117  24.245   2.425  11.177
28858W        W 1118  23.694  14.078   4.200
28859W        W 1119   1.012  18.687   4.017
28860W        W 1120  24.215   1.493   3.282
28861W        W 1121  29.079   7.881  12.819
28862W        W 1122  14.267  22.659   5.151
28863W        W 1123  16.178  23.027  13.421
28864W        W 1124  32.730  29.000   1.313
28865W        W 1125  33.896  39.270   2.436
28866W        W 1126  24.743  19.486   1.931
28867W        W 1127   6.846  29.557  13.553
28868W        W 1128  20.450  22.428   0.264
28869W        W 1129  15.013  37.908  12.390
28870W        W 1130  40.643  40.270  11.651
28871W        W 1131  30.457  28.861  14.986
28872W        W 1132  18.991   3.795   4.076
28873W        W 1133  30.975   7.832  11.159
28874W        W 1134  15.209   4.469   4.174
28875W        W 1135  29.076  18.730   1.344
28876W        W 1136  34.942   3.753   0.488
28877W        W 1137   1.015  41.410   4.706
28878W        W 1138  27.451   3.000  12.350
28879W        W 1139  41.005  28.069  14.901
28880W        W 1140  19.728  16.551   1.786
28881W        W 1141  26.994   0.866  10.825
28882W        W 1142  41.983   5.422   0.549
28883W        W 1143   3.271   2.440   3.328
28884W        W 1144  29.547   1.037   0.585
28885W        W 1145  34.792   4.145   4.093
28886W        W 1146  22.706  33.770   0.459
28887W        W 1147   1.234   3.874  14.316
28888W        W 1148  17.538  11.386   4.680
28889W        W 1149  28.001   0.202  10.216
28890W        W 1150   6.764  12.520   4.885
28891W        W 1151   0.096  42.236  13.089
28892W        W 1152  20.462  14.471  10.755
28893W        W 1153  28.972  37.748  11.124
28894W        W 1154  43.334  28.599  12.184
28895W        W 1155   9.803  39.418  12.712
28896W        W 1156  18.068  34.023  13.613
28897W        W 1157   8.766   2.235   4.134
28898W        W 1158   1.515  29.877   2.213
28899W        W 1159  28.017  44.441   4.112
28900W        W 1160  20.015  21.917   4.028
28901W        W 1161  29.704  40.486   3.361
28902W        W 1162   4.100   0.343   5.000
28903W        W 1163  36.294  31.523  12.591
28904W        W 1164  20.356  33.633   5.103
28905W        W 1165  37.376   0.403   3.763
28906W        W 1166  31.463  33.338   0.953
28907W        W 1167   1.453  21.735  10.695
28908W        W 1168  17.036  19.221   3.095
28909W        W 1169  26.957   2.718   0.405
28910W        W 1170  34.343  14.700   2.425
28911W        W 1171   3.048  33.590  11.633
28912W        W 1172   4.420   9.493  13.613
28913W        W 1173  44.907  43.888   0.012
28914W        W 1174  21.215  26.405  14.190
28915W        W 1175  44.193  33.203  12.194
28916W        W 1176  22.109  12.608   1.726
28917W        W 1177  31.470  33.008   2.418
28918W        W 1178   9.800  22.483  10.739
28919W        W 1179  10.634  15.043  11.633
28920W        W 1180  10.694  27.449   2.625
28921W        W 1181  44.576  44.830  11.789
28922W        W 1182  19.276   3.044  12.065
28923W        W 1183   7.361  24.749  11.148
28924W        W 1184  32.881  31.705  13.342
28925W        W 1185  33.344  30.033  13.043
28926W        W 1186  24.138  42.755  10.659
28927W        W 1187   8.162  13.606  13.865
28928W        W 1188   7.797  19.379   3.712
28929W        W 1189   4.723  35.588   3.241
28930W        W 1190  35.439  27.377  12.671
28931W        W 1191  30.660   2.742   4.273
28932W        W 1192  12.114  16.772   1.733
28933W        W 1193  24.626   7.436   3.638
28934W        W 1194   9.508  16.561  11.677
28935W        W 1195  31.006  37.419   2.759
28936W        W 1196   9.292  16.445   4.718
28937W        W 1197   9.709  42.362  13.074
28938W        W 1198  24.961   8.951  10.495
28939W        W 1199  30.514  25.233   4.351
28940W        W 1200  29.468   0.885  13.366
28941W        W 1201   9.283  18.985   0.946
28942W        W 1202  15.600  42.792   4.137
28943W        W 1203  37.784  20.061   0.898
28944W        W 1204  15.141  44.922  13.659
28945W        W 1205  34.245  20.260   0.118
28946W        W 1206  19.317  23.131  11.050
28947W        W 1207   7.102  30.132   4.931
28948W        W 1208  23.851  39.055  11.489
28949W        W 1209  17.042  20.112   0.437
28950W        W 1210  26.043  11.725  14.910
28951W        W 1211  44.551   2.944   3.196
28952W        W 1212  19.819  10.432  11.211
28953W        W 1213  19.316  33.184  10.819
28954W        W 1214  17.034  30.052   2.808
28955W        W 1215  34.381   8.201  13.796
28956W        W 1216  44.943  33.965   4.561
28957W        W 1217   6.347  39.811   3.838
28958W        W 1218  29.016  30.934  13.376
28959W        W 1219  42.045  23.131   1.871
28960W        W 1220  13.217  27.248  13.864
28961W        W 1221  20.113  42.873  12.075
28962W        W 1222  33.964  42.411  13.979
28963W        W 1223  23.292  33.349  11.549
28964W        W 1224   7.163  43.569  10.789
28965W        W 1225  27.007  15.329  13.017
28966W        W 1226  27.659   2.007  12.595
28967W        W 1227  41.090  14.824   0.395
28968W        W 1228  25.411  33.286  14.392
28969W        W 1229   0.232   6.005   3.840
28970W        W 1230  33.505  12.592   3.679
28971W        W 1231   6.746   4.391   0.583
28972W        W 1232   6.783  44.350   2.400
28973W        W 1233   0.778  36.288   1.285
28974W        W 1234   8.351  43.843   0.494
28975W        W 1235  29.180  31.889  11.014
28976W        W 1236  30.638  33.322   2.264
28977W        W 1237  39.965  37.396  10.513
28978W        W 1238  38.998  12.812   0.497
28979W        W 1239  34.926  33.526  12.323
28980W        W 1240  20.329   3.845   2.673
28981W        W 1241   2.209   1.734  11.448
28982W        W 1242  16.937  43.023  12.572
28983W        W 1243  32.216   7.301  12.234
28984W        W 1244  44.551  12.591  11.467
28985W        W 1245  32.026  19.566  11.497
28986W        W 1246  37.890  26.691  14.716
28987W        W 1247  40.384  17.053  10.812
28988W        W 1248   8.868   7.969  13.959
28989W        W 1249  33.095   3.904   3.334
28990W        W 1250  27.048   4.855   0.740
28991W        W 1251  15.298   0.943  10.710
28992W        W 1252  35.500  35.486   3.095
28993W        W 1253  32.341  23.433  11.329
28994W        W 1254  20.768  43.070   1.464
28995W        W 1255  12.511  12.522  13.043
28996W        W 1256  11.869  30.612   0.022
28997W        W 1257  37.319  30.141   1.838
28998W        W 1258  31.199  41.101   4.296
28999W        W 1259  36.433  21.583  11.608
29000W        W 1260  20.295  40.069   2.672
29001W        W 1261  41.400  16.162   0.177
29002W        W 1262  25.354   1.777   0.413
29003W        W 1263  13.265   6.923  12.095
29004W        W 1264  16.204   6.383  13.336
29005W        W 1265   7.368  13.377   4.295
29006W        W 1266  30.157  41.724   3.263
29007W        W 1267   0.474   8.372   1.710
29008W        W 1268   9.088  19.654   3.677
29009W        W 1269  27.115  24.690   4.888
29010W        W 1270  22.645  41.597  13.344
29011W        W 1271  12.680  41.120  11.505
29012W        W 1272  30.980  39.861   4.816
29013W        W 1273  13.626  26.918   3.256
29014W        W 1274  21.238  21.717   3.684
29015W        W 1275   7.087   7.151  11.681
29016W        W 1276  26.033  21.719   2.671
29017W        W 1277  36.836  37.935   4.679
29018W        W 1278  22.265  38.562  14.097
29019W        W 1279  34.611  25.032   3.139
29020W        W 1280  16.283  16.394  13.087
29021W        W 1281   9.780  34.662  14.817
29022W        W 1282  44.903  18.176  10.779
29023W        W 1283  39.282  37.838  13.635
29024W        W 1284  40.431  33.426  14.562
29025W        W 1285  36.455   8.782   1.321
29026W        W 1286  40.206   4.004  12.577
29027W        W 1287   5.491  25.617   0.888
29028W        W 1288  27.978  34.744   0.491
29029W        W 1289  43.738  16.877   4.165
29030W        W 1290  18.788  42.928   0.686
29031W        W 1291   9.740  32.918  12.598
29032W        W 1292  27.331  15.605   1.898
29033W        W 1293  15.308  14.579   0.278
29034W        W 1294  32.209  33.900  13.550
29035W        W 1295   6.657  26.506   3.604
29036W        W 1296  11.124   3.457   2.995
29037W        W 1297  12.595   8.281   3.727
29038W        W 1298   6.751  30.440  10.697
29039W        W 1299   1.526  16.849  13.906
29040W        W 1300   3.408   4.582   4.969
29041W        W 1301   5.735  22.918  14.941
29042W        W 1302   4.730  26.514   3.507
29043W        W 1303  14.005  35.219   0.243
29044W        W 1304   6.175  23.982  11.592
29045W        W 1305   7.533  15.497  10.294
29046W        W 1306  11.692   5.240  14.873
29047W        W 1307  32.214  37.335   4.633
29048W        W 1308   8.359   5.848   1.936
29049W        W 1309  18.291  32.972   4.329
29050W        W 1310  41.449   3.948   4.060
29051W        W 1311  25.090  34.349   0.763
29052W        W 1312  22.607  16.355   1.070
29053W        W 1313  34.121   0.513   4.912
29054W        W 1314  19.275  25.461   3.165
29055W        W 1315  38.939  34.158  14.423
29056W        W 1316  32.389  15.720   4.125
29057W        W 1317  26.397  36.062  10.388
29058W        W 1318  36.934  29.676  13.517
29059W        W 1319  14.514  39.610  10.177
29060W        W 1320  25.202  12.023   0.811
29061W        W 1321  14.551  35.805   1.792
29062W        W 1322   1.280  41.252   2.390
29063W        W 1323  10.703  20.986  12.392
29064W        W 1324  17.805  42.349   4.289
29065W        W 1325   0.376   8.302  10.703
29066W        W 1326  22.087  32.163   0.220
29067W        W 1327   7.676  37.126   2.396
29068W        W 1328  27.197   3.397  13.575
29069W        W 1329  33.190   0.600  13.614
29070W        W 1330  15.861  12.333  12.104
29071W        W 1331  40.877  29.463  12.294
29072W        W 1332  36.588  20.068   0.265
29073W        W 1333   1.327  17.698   4.685
29074W        W 1334  18.224   4.837  14.689
29075W        W 1335  27.196  40.826   4.087
29076W        W 1336   5.744  16.720   2.155
29077W        W 1337   0.309   4.439  14.699
29078W        W 1338  11.383  22.990   2.732
29079W        W 1339  33.900   2.042   3.396
29080W        W 1340   7.484   6.616  11.774
29081W        W 1341   6.683  27.227   0.205
29082W        W 1342  31.167  34.806  10.716
29083W        W 1343  35.347  38.541  13.889
29084W        W 1344  27.507  31.442   1.199
29085W        W 1345  36.865  31.612  11.465
29086W        W 1346  35.891  39.155  11.114
29087W        W 1347   6.653   8.666   5.080
29088W        W 1348   1.259  32.444  12.069
29089W        W 1349  42.764  11.593  14.327
29090W        W 1350  28.519  20.599   2.002
29091W        W 1351  25.002  25.441   0.815
29092W        W 1352  18.855   8.201   5.464
29093W        W 1353   2.864  15.675  14.517
29094W        W 1354  12.250  32.337  10.490
29095W        W 1355  37.450  36.597  14.464
29096W        W 1356   5.975  17.091  12.857
29097W        W 1357  34.554  22.988   0.783
29098W        W 1358  42.895  41.688  11.210
29099W        W 1359  30.119  24.583  13.977
29100W        W 1360  31.071  28.274   0.968
29101W        W 1361  17.630  31.631  14.806
29102W        W 1362  31.230  27.990   3.321
29103W        W 1363   9.643  10.822  14.875
29104W        W 1364  30.208  40.581  13.078
29105W        W 1365  40.876  20.068  11.192
29106W        W 1366   4.739   5.456   3.322
29107W        W 1367  31.909  39.901   0.830
29108W        W 1368  26.655  44.881  10.952
29109W        W 1369  28.088  18.813   0.025
29110W        W 1370  26.993  39.934   1.750
29111W        W 1371  21.149   7.408  11.631
29112W        W 1372  14.337   6.175   2.394
29113W        W 1373   2.741  14.701  13.893
29114W        W 1374  28.947  20.239  10.553
29115W        W 1375  42.404   1.129  11.523
29116W        W 1376  34.122   4.842  13.495
29117W        W 1377   1.371  14.622   3.660
29118W        W 1378  20.469  20.600   3.270
29119W        W 1379  10.613  40.599  11.705
29120W        W 1380  29.942  22.647   3.547
29121W        W 1381   7.505  42.801  10.279
29122W        W 1382  25.762   6.653   0.394
29123W        W 1383   5.888   6.984  14.036
29124W        W 1384  22.704  18.335   1.250
29125W        W 1385   8.199  31.144   3.507
29126W        W 1386  15.263  13.143  11.368
29127W        W 1387  25.077  35.625  13.387
29128W        W 1388  16.180   7.320  14.525
29129W        W 1389  41.782  35.936   4.590
29130W        W 1390   5.238   5.903  10.946
29131W        W 1391  10.758  19.719   4.571
29132W        W 1392  28.731  31.839  14.964
29133W        W 1393   3.817   1.467  10.699
29134W        W 1394  38.571  42.036  12.492
29135W        W 1395  13.690   2.662  11.672
29136W        W 1396  30.051  43.891  12.058
29137W        W 1397  15.608   1.973   9.785
29138W        W 1398  44.725  19.605  13.788
29139W        W 1399  23.029  37.079   4.198
29140W        W 1400  13.241  36.613   2.865
29141W        W 1401  25.266  44.815  13.969
29142W        W 1402  29.861  23.623   4.873
29143W        W 1403  22.322   3.393  13.427
29144W        W 1404  17.253   9.387  13.469
29145W        W 1405  30.195  26.669  10.421
29146W        W 1406  38.219  34.514  13.860
29147W        W 1407  39.358  30.308  12.177
29148W        W 1408  18.126  43.560   3.666
29149W        W 1409  36.354  32.797  11.578
29150W        W 1410  41.436  26.092  14.413
29151W        W 1411  28.876  38.476  11.493
29152W        W 1412  24.009   6.116   1.321
29153W        W 1413  30.893   8.256  10.868
29154W        W 1414   7.225  28.102  11.633
29155W        W 1415  26.109  32.243  11.133
29156W        W 1416   7.596   8.009   2.783
29157W        W 1417   5.981  36.429   1.259
29158W        W 1418  27.968  43.694   1.776
29159W        W 1419  25.778  28.270   4.158
29160W        W 1420  12.560  20.618   3.020
29161W        W 1421  23.580   0.845   2.904
29162W        W 1422  16.788  25.739  14.965
29163W        W 1423   6.352  15.343  11.910
29164W        W 1424   6.214  35.424  13.469
29165W        W 1425   7.686  38.742  10.351
29166W        W 1426  44.501  38.732  11.397
29167W        W 1427  13.876  10.244   3.736
29168W        W 1428  10.801  13.703  10.606
29169W        W 1429  32.666  19.277  14.051
29170W        W 1430  13.115   4.708  13.922
29171W        W 1431  32.423  40.042  14.957
29172W        W 1432  28.492   7.328   2.328
29173W        W 1433  12.383  29.358  14.847
29174W        W 1434  38.891  18.176  14.718
29175W        W 1435  43.085  31.979  13.372
29176W        W 1436  26.235   8.321   1.703
29177W        W 1437  21.520   4.949  14.929
29178W        W 1438  39.887  44.664  12.385
29179W        W 1439   4.282  34.686  11.092
29180W        W 1440  25.151  27.470   3.142
29181W        W 1441  20.767  20.359  11.914
29182W        W 1442  39.504  26.936   2.097
29183W        W 1443  21.812  10.680   3.275
29184W        W 1444  28.612  25.539   0.381
29185W        W 1445   4.315  26.057  12.937
29186W        W 1446   1.361  32.715   1.778
29187W        W 1447  24.467  29.236  13.573
29188W        W 1448  30.490  26.058   1.865
29189W        W 1449  36.818  22.199  13.369
29190W        W 1450  38.162  23.630   4.174
29191W        W 1451  11.785   3.267   2.842
29192W        W 1452  14.679   3.731   1.637
29193W        W 1453   4.909  26.269  11.580
29194W        W 1454   0.290   9.926   4.716
29195W        W 1455  23.169   4.456  13.851
29196W        W 1456  34.690  21.157  10.574
29197W        W 1457  15.269  12.395   1.944
29198W        W 1458  27.201  28.818  13.938
29199W        W 1459  12.323   5.400   0.376
29200W        W 1460   3.457  18.870  11.595
29201W        W 1461  33.897  12.308   0.637
29202W        W 1462  11.495  40.283  12.887
29203W        W 1463  43.447   8.738   0.691
29204W        W 1464  25.491   9.698  12.331
29205W        W 1465   1.356  36.907  13.531
29206W        W 1466  23.075  24.475   0.975
29207W        W 1467  10.898  40.519   0.306
29208W        W 1468  21.589  29.615  13.742
29209W        W 1469  17.839  28.922   3.861
29210W        W 1470  32.973   1.739  13.924
29211W        W 1471  43.902  43.510   4.735
29212W        W 1472  27.027   1.511  14.849
29213W        W 1473  22.025  39.446  13.017
29214W        W 1474  25.962  32.318  12.014
29215W        W 1475   3.701  37.035  10.947
29216W        W 1476  37.078  25.808   3.784
29217W        W 1477  31.609  41.796   0.669
29218W        W 1478  27.611  23.738  11.656
29219W        W 1479   4.014  42.659   1.918
29220W        W 1480  25.260  30.027   4.461
29221W        W 1481  20.330  12.772   3.548
29222W        W 1482  17.185  28.916  13.346
29223W        W 1483  13.022  12.352  12.487
29224W        W 1484  42.938  14.510  11.707
29225W        W 1485  14.202  17.722   3.422
29226W        W 1486  32.025  18.655  13.994
29227W        W 1487  33.187  22.535   1.207
29228W        W 1488   3.294   8.152  11.170
29229W        W 1489  21.196  11.666   0.476
29230W        W 1490   7.469  14.609  13.445
29231W        W 1491  33.024  35.377   3.366
29232W        W 1492  21.824  30.406   0.317
29233W        W 1493  15.232  32.437   2.469
29234W        W 1494  36.046  22.156  11.983
29235W        W 1495  23.584  41.463  10.804
29236W        W 1496   7.740  42.774  10.744
29237W        W 1497  24.867   6.429   0.510
29238W        W 1498   8.819  15.838   0.372
29239W        W 1499  38.986  20.861   1.867
29240W        W 1500  18.720   3.765  10.687
29241W        W 1501  37.993  16.551   1.765
29242W        W 1502   4.849   9.316  12.298
29243W        W 1503  40.105  44.019  11.078
29244W        W 1504  19.509   8.984   3.029
29245W        W 1505  41.513  28.030  14.792
29246W        W 1506  18.043  32.698   3.676
29247W        W 1507  30.325  20.016   5.069
29248W        W 1508   0.500  19.561  11.837
29249W        W 1509  37.352  21.453  12.580
29250W        W 1510  28.107   0.787  12.903
29251W        W 1511  23.123  41.622  10.997
29252W        W 1512  18.298   8.944   1.196
29253W        W 1513  29.161  13.706  11.123
29254W        W 1514   8.155   7.892  12.124
29255W        W 1515   9.357  24.018   2.764
29256W        W 1516   9.829  22.344  13.492
29257W        W 1517  14.310  24.121  10.713
29258W        W 1518  29.600  44.558  10.047
29259W        W 1519  32.900   2.235   0.130
29260W        W 1520   3.735   5.864   1.855
29261W        W 1521  13.774  12.434   2.582
29262W        W 1522  24.266  16.647  13.054
29263W        W 1523  34.497  11.589  11.171
29264W        W 1524   5.342  27.375   2.421
29265W        W 1525  19.131  32.427   0.442
29266W        W 1526  42.704   9.229  10.640
29267W        W 1527  19.970   9.315  12.983
29268W        W 1528  14.952  28.718   3.725
29269W        W 1529  44.771  26.491   3.774
29270W        W 1530  36.487  20.372   2.836
29271W        W 1531   1.597  36.498  10.830
29272W        W 1532  27.261  16.066  12.617
29273W        W 1533  30.652  24.101  12.024
29274W        W 1534  33.450  34.364   1.177
29275W        W 1535  24.449  31.258   3.388
29276W        W 1536   0.391   1.415  13.383
29277W        W 1537  26.893  26.131   2.717
29278W        W 1538  38.033  37.771  12.972
29279W        W 1539  30.616  14.641  12.566
29280W        W 1540  19.594  33.525   1.463
29281W        W 1541  28.718  43.719  12.656
29282W        W 1542  41.377  23.883  12.833
29283W        W 1543  35.241   2.042  12.493
29284W        W 1544   4.338  41.740  14.109
29285W        W 1545   5.834  41.932   1.129
29286W        W 1546  10.599  31.216   4.923
29287W        W 1547   1.274  15.580  11.088
29288W        W 1548   4.394  27.693  12.865
29289W        W 1549  27.180   9.780   2.497
29290W        W 1550  15.797  42.482  11.139
29291W        W 1551  29.414  10.332  10.350
29292W        W 1552  19.187  34.095  12.811
29293W        W 1553  14.801  42.814   3.057
29294W        W 1554  35.738  27.696   0.860
29295W        W 1555  30.423  11.381  12.192
29296W        W 1556   0.287  43.865   3.814
29297W        W 1557  19.666  38.857  13.769
29298W        W 1558  18.667  24.034  14.235
29299W        W 1559  40.713  14.342   5.027
29300W        W 1560  33.549  39.045  11.494
29301W        W 1561  17.654  13.099   4.129
29302W        W 1562  10.913  29.158   2.840
29303W        W 1563  32.946  12.831   4.180
29304W        W 1564   4.500   5.210  11.574
29305W        W 1565   8.332   1.778   1.675
29306W        W 1566   2.466  32.467  12.649
29307W        W 1567  31.087  40.926   0.522
29308W        W 1568  13.272   8.527   4.011
29309W        W 1569   4.345  13.111   0.439
29310W        W 1570   7.382  37.345   3.217
29311W        W 1571  28.695  19.789  13.038
29312W        W 1572  23.538   6.694  10.680
29313W        W 1573  20.363  31.177  14.914
29314W        W 1574  12.957  38.567   3.676
29315W        W 1575  23.039  21.748   1.352
29316W        W 1576  31.405  15.539  14.265
29317W        W 1577  42.703  35.595   2.184
29318W        W 1578  40.014   3.717   0.247
29319W        W 1579   9.858  35.493  11.217
29320W        W 1580   5.659  42.422   1.305
29321W        W 1581  13.336   2.262   3.350
29322W        W 1582  11.626  10.077  10.820
29323W        W 1583  38.360   1.960   2.300
29324W        W 1584  21.038  12.059   1.314
29325W        W 1585  13.851  15.838  10.286
29326W        W 1586  12.688  15.218  14.175
29327W        W 1587  38.101  30.129   2.832
29328W        W 1588  24.999  14.074   2.629
29329W        W 1589   2.801  28.090  13.857
29330W        W 1590  39.509  17.827   0.410
29331W        W 1591  21.231  29.717   0.014
29332W        W 1592  31.545  15.337  13.514
29333W        W 1593  23.072   0.460  14.322
29334W        W 1594  27.876   8.896   2.799
29335W        W 1595   9.467  25.801  12.494
29336W        W 1596  15.129  17.274  11.548
29337W        W 1597  41.500  38.322   3.831
29338W        W 1598  14.840  21.435   2.815
29339W        W 1599   3.265  23.627   3.121
29340W        W 1600  31.131  10.204   3.752
29341W        W 1601  35.066  36.093  14.871
29342W        W 1602  24.567  17.276   1.493
29343W        W 1603   3.149  37.444  11.134
29344W        W 1604   2.972  40.803   0.227
29345W        W 1605  41.919  19.500  14.422
29346W        W 1606  39.339  28.578  13.657
29347W        W 1607  44.759   5.201  13.334
29348W        W 1608  30.640   8.727   4.696
29349W        W 1609  36.160   4.944  11.496
29350W        W 1610  40.478  40.779  12.494
29351W        W 1611  27.161  21.459   4.726
29352W        W 1612  40.837  28.541   4.209
29353W        W 1613  36.356  15.799  13.455
29354W        W 1614  36.509   3.625  11.390
29355W        W 1615  18.618  29.366   3.285
29356W        W 1616  23.212  17.763  11.762
29357W        W 1617  39.843  42.427   4.708
29358W        W 1618  29.939  37.987  12.117
29359W        W 1619  32.939  13.417  14.959
29360W        W 1620   0.017   6.675   9.917
29361W        W 1621  25.338  33.392   5.294
29362W        W 1622  15.121  35.093   1.782
29363W        W 1623  41.065   2.248   1.873
29364W        W 1624  44.335  34.936   3.189
29365W        W 1625  33.218   7.564  14.024
29366W        W 1626  25.050  41.273   0.202
29367W        W 1627   2.413   8.638  14.323
29368W        W 1628  44.742   7.688  14.906
29369W        W 1629  21.337  29.512   2.340
29370W        W 1630  35.026  31.038   4.242
29371W        W 1631  39.990  31.828  11.109
29372W        W 1632   5.428  20.204   0.423
29373W        W 1633  24.677  38.475   0.300
29374W        W 1634  25.557  38.215   4.296
29375W        W 1635  36.009  44.303   1.418
29376W        W 1636   8.619  12.785   1.966
29377W        W 1637  40.082  37.423   1.243
29378W        W 1638   9.341  31.145  13.495
29379W        W 1639   1.426   0.488   2.385
29380W        W 1640   1.925  44.015   0.971
29381W        W 1641  21.194  23.671  12.733
29382W        W 1642  27.234   7.900   4.615
29383W        W 1643   4.852  15.612   3.203
29384W        W 1644  34.622  36.187   3.214
29385W        W 1645  23.062  43.437  12.929
29386W        W 1646  21.225  27.983   3.328
29387W        W 1647  44.264  14.627  12.931
29388W        W 1648  27.849  27.681  13.893
29389W        W 1649  34.765  36.245   1.194
29390W        W 1650  25.168  13.698   4.725
29391W        W 1651  43.008  28.089  12.042
29392W        W 1652  37.997  20.557  11.566
29393W        W 1653  35.378  36.008   3.729
29394W        W 1654  41.135  15.824  11.133
29395W        W 1655   7.965  33.184   1.354
29396W        W 1656  25.245  33.960  13.300
29397W        W 1657  27.082  31.857  14.314
29398W        W 1658  40.125  42.353   2.398
29399W        W 1659  28.098  34.419   1.381
29400W        W 1660  13.843   1.338   2.636
29401W        W 1661  15.025  42.026   1.189
29402W        W 1662   3.073  27.198  13.407
29403W        W 1663  44.400  10.894  14.004
29404W        W 1664   5.771  38.909  13.309
29405W        W 1665  10.143  15.810  11.436
29406W        W 1666  16.516  26.334  11.660
29407W        W 1667  37.967  28.313  11.408
29408W        W 1668   2.266  34.576  13.040
29409W        W 1669  28.111  43.047   1.171
29410W        W 1670  42.275  27.763   0.352
29411W        W 1671   5.694   7.202   4.256
29412W        W 1672  26.075  39.422   5.407
29413W        W 1673  25.905   6.809  14.613
29414W        W 1674  19.544  27.634  11.656
29415W        W 1675  22.921   0.684  11.157
29416W        W 1676  44.962   4.010  11.220
29417W        W 1677  24.049  12.319  14.463
29418W        W 1678  38.888  38.519  13.543
29419W        W 1679  18.360   4.955   3.391
29420W        W 1680  36.837  43.761  13.995
29421W        W 1681   1.811  11.867  13.312
29422W        W 1682  44.728   3.938   1.400
29423W        W 1683  12.412   1.874   3.110
29424W        W 1684  17.198  25.445  10.538
29425W        W 1685  20.321  10.090  14.266
29426W        W 1686  24.598  38.622  11.134
29427W        W 1687  25.644   2.761  14.432
29428W        W 1688   0.511  35.072  10.618
29429W        W 1689  13.765  28.478  13.073
29430W        W 1690   1.731  36.987  10.926
29431W        W 1691  43.387  23.039  14.724
29432W        W 1692  36.826  23.217   0.943
29433W        W 1693  41.035  16.248   2.506
29434W        W 1694  13.079   2.346  14.764
29435W        W 1695  28.624  23.692   0.390
29436W        W 1696   2.645  24.172   0.921
29437W        W 1697  34.822  35.553  13.459
29438W        W 1698  25.674  16.422   3.392
29439W        W 1699   9.019  28.608   4.725
29440W        W 1700  13.357   2.863   3.612
29441W        W 1701   5.253  18.059  11.701
29442W        W 1702  33.458   7.891  13.673
29443W        W 1703  44.312  41.717  10.700
29444W        W 1704  17.684  31.146   2.564
29445W        W 1705  10.091  37.123  12.614
29446W        W 1706   0.868  25.104  12.940
29447W        W 1707  38.851  39.559  13.356
29448W        W 1708  17.736  43.933   2.255
29449W        W 1709  15.356  35.411   3.280
29450W        W 1710  27.822  37.408  12.542
29451W        W 1711  29.232  36.260   1.355
29452W        W 1712  38.861  17.700  11.416
29453W        W 1713  10.065   8.822  14.729
29454W        W 1714  10.572  43.211   0.777
29455W        W 1715  36.118   4.168   2.869
29456W        W 1716  39.313  40.844  12.997
29457W        W 1717   6.798  31.066  14.979
29458W        W 1718  11.374  18.634  11.521
29459W        W 1719  36.862  35.886  11.946
29460W        W 1720  26.631  24.280   0.430
29461W        W 1721   4.988  38.964   4.769
29462W        W 1722  43.510  35.825  11.230
29463W        W 1723  33.477  21.241  12.375
29464W        W 1724   2.486  36.204  13.192
29465W        W 1725  17.479   9.301  12.037
29466W        W 1726  25.885  41.437   9.719
29467W        W 1727  41.385  27.438   3.151
29468W        W 1728  16.376   7.632   0.419
29469W        W 1729  44.368  18.633  13.993
29470W        W 1730  17.798   7.968  10.990
29471W        W 1731  21.162  17.095   0.714
29472W        W 1732  21.149   7.686  13.829
29473W        W 1733  24.515  13.245  11.888
29474W        W 1734  35.970  14.048  14.444
29475W        W 1735  41.256  20.709  13.424
29476W        W 1736  39.895  30.562   3.879
29477W        W 1737  41.985  36.560  14.431
29478W        W 1738   7.181  22.032   4.680
29479W        W 1739  32.957  29.680   2.326
29480W        W 1740  23.195  36.819   4.680
29481W        W 1741  17.026  17.743   4.732
29482W        W 1742  18.293  11.719   1.687
29483W        W 1743  27.885  34.523  11.766
29484W        W 1744   0.790  17.644  13.793
29485W        W 1745   6.852   2.804  14.036
29486W        W 1746   9.720  34.489   4.689
29487W        W 1747   8.610  35.813   0.506
29488W        W 1748   6.890   8.514  14.744
29489W        W 1749  18.668  37.927  13.443
29490W        W 1750  33.707   4.825   3.813
29491W        W 1751   4.348  43.430   4.694
29492W        W 1752  16.531  16.129   3.628
29493W        W 1753   1.714  29.559   0.026
29494W        W 1754  17.001  28.968  11.910
29495W        W 1755   8.608  22.035   2.154
29496W        W 1756   3.318  38.982   1.843
29497W        W 1757  19.922   2.725   3.203
29498W        W 1758  16.112  22.714   3.171
29499W        W 1759   4.958  44.472   0.363
29500W        W 1760  27.210  17.787   1.666
29501W        W 1761  16.622  32.174  10.801
29502W        W 1762  37.452  41.062   3.569
29503W        W 1763  25.754   3.597   1.364
29504W        W 1764  16.229  13.688  11.528
29505W        W 1765  43.313  27.629   3.091
29506W        W 1766  33.496   9.588  13.502
29507W        W 1767  41.894  19.741  12.706
29508W        W 1768  37.128  38.559  10.631
29509W        W 1769  29.323  41.280   4.081
29510W        W 1770   0.911  16.761   0.202
29511W        W 1771   2.939  12.296   1.237
29512W        W 1772  19.709   2.613  12.305
29513W        W 1773  21.574  24.161  13.452
29514W        W 1774  44.957  35.459   2.760
29515W        W 1775  40.917  31.600   1.720
29516W        W 1776   9.221  18.496  13.966
29517W        W 1777  44.525  43.274   1.744
29518W        W 1778  25.764  32.347   2.881
29519W        W 1779  17.314  41.284  11.967
29520W        W 1780   2.441  42.432  11.530
29521W        W 1781  23.498   1.448   2.187
29522W        W 1782  32.183  34.645  12.492
29523W        W 1783  34.972  43.827   3.404
29524W        W 1784  12.120  27.311   4.269
29525W        W 1785  18.671  42.461   0.917
29526W        W 1786  26.509  16.646  13.073
29527W        W 1787  11.318  41.708  12.731
29528W        W 1788  43.278  42.275   4.078
29529W        W 1789   1.907  42.540  11.521
29530W        W 1790  27.842  13.366  13.895
29531W        W 1791  43.309  25.494   4.710
29532W        W 1792  30.383  17.079  14.437
29533W        W 1793  18.029   5.705  13.495
29534W        W 1794  36.843  37.546  10.637
29535W        W 1795  11.163  40.413  14.834
29536W        W 1796   9.595   1.755  14.914
29537W        W 1797  35.694   6.371   3.270
29538W        W 1798  24.254  33.938  11.232
29539W        W 1799  35.861  41.039   4.572
29540W        W 1800   2.329  21.799  10.647
29541W        W 1801   5.859  33.310  11.429
29542W        W 1802  19.342  29.478  13.373
29543W        W 1803  33.414   4.902  13.964
29544W        W 1804  26.459   7.641   1.769
29545W        W 1805  42.817  15.628  11.591
29546W        W 1806  42.823  33.971  10.627
29547W        W 1807  29.411  24.422  12.003
29548W        W 1808  22.379   2.507   3.719
29549W        W 1809   4.551  39.895   4.056
29550W        W 1810   6.169   9.402  13.977
29551W        W 1811  40.370  43.834  12.510
29552W        W 1812  42.062  34.158  13.387
29553W        W 1813  39.800  15.702   0.331
29554W        W 1814  25.245  24.473   2.785
29555W        W 1815  14.373  43.448  14.252
29556W        W 1816  41.758  12.943  14.769
29557W        W 1817   8.772   4.659   1.310
29558W        W 1818  31.373  44.754  12.406
29559W        W 1819  27.337  39.561   5.603
29560W        W 1820  32.710   0.487  10.873
29561W        W 1821   3.271  43.892  12.937
29562W        W 1822  15.833  11.671   2.756
29563W        W 1823  41.361  18.838  10.713
29564W        W 1824  14.803  12.681   2.482
29565W        W 1825  33.887  23.514   2.783
29566W        W 1826  20.242   7.847   1.388
29567W        W 1827  10.302   2.834  11.154
29568W        W 1828  17.096  36.091  11.529
29569W        W 1829  26.059  29.104   4.740
29570W        W 1830   8.217  12.057  10.718
29571W        W 1831  25.520  13.014  11.122
29572W        W 1832  41.824  23.016  14.434
29573W        W 1833  30.572   4.992   0.500
29574W        W 1834  36.058   6.228  11.970
29575W        W 1835   6.703  28.219   4.129
29576W        W 1836   5.170  11.809   3.231
29577W        W 1837  27.504  30.889   2.762
29578W        W 1838  17.090  23.718   2.847
29579W        W 1839  22.138  26.503  12.815
29580W        W 1840  24.168  14.532  11.441
29581W        W 1841   2.454  14.122   3.093
29582W        W 1842  33.561  35.511  12.637
29583W        W 1843  20.522   0.518   2.824
29584W        W 1844  39.388  11.696  13.981
29585W        W 1845   6.720   7.749  14.240
29586W        W 1846  27.534   1.494   2.471
29587W        W 1847   1.313  18.972   3.503
29588W        W 1848  36.381  12.855   1.599
29589W        W 1849  13.148   3.525  11.953
29590W        W 1850  22.277   9.654   3.153
29591W        W 1851  30.923   8.330   2.740
29592W        W 1852  21.695  17.724   0.267
29593W        W 1853  40.391  36.087  14.216
29594W        W 1854   2.409  29.485  12.969
29595W        W 1855   6.119   8.826   2.581
29596W        W 1856  22.299  15.845  14.384
29597W        W 1857  10.332   2.334  14.364
29598W        W 1858  11.698   8.746  13.468
29599W        W 1859  39.279  20.994  11.985
29600W        W 1860  17.586  32.056  12.774
29601W        W 1861  30.005   1.340   3.101
29602W        W 1862  41.946  29.873   4.858
29603W        W 1863  28.991  41.888   2.472
29604W        W 1864  39.648  41.943  14.889
29605W        W 1865  14.724  11.576  10.880
29606W        W 1866  37.820  25.190  10.679
29607W        W 1867  34.417  15.385  14.835
29608W        W 1868   2.689  12.549  11.586
29609W        W 1869  43.220  31.568  13.902
29610W        W 1870   6.685  42.714   4.101
29611W        W 1871  15.295  31.459  13.412
29612W        W 1872  19.994  36.095  13.263
29613W        W 1873   7.258   2.725  12.036
29614W        W 1874  14.107  38.982  11.846
29615W        W 1875  11.236  33.365  13.985
29616W        W 1876  30.163  39.407  10.816
29617W        W 1877  19.200   3.760   1.883
29618W        W 1878  19.208  17.522  12.543
29619W        W 1879  26.992  34.926  11.866
29620W        W 1880  22.708   0.681   5.077
29621W        W 1881  33.850   0.333   0.321
29622W        W 1882  32.349  30.603   4.254
29623W        W 1883  11.554  17.768  13.074
29624W        W 1884  22.182  20.085   1.840
29625W        W 1885  23.422  18.231  10.458
29626W        W 1886  34.790  27.165  10.958
29627W        W 1887  31.894  18.632   1.279
29628W        W 1888  22.797  12.809  14.366
29629W        W 1889  24.628   5.169  13.830
29630W        W 1890   1.307  11.894   4.402
29631W        W 1891  12.766   4.075   1.730
29632W        W 1892   9.909  14.369   2.884
29633W        W 1893  31.620  41.013  14.533
29634W        W 1894  18.131  42.719  12.675
29635W        W 1895  14.149   0.646  14.327
29636W        W 1896  36.860  31.863   1.753
29637W        W 1897  29.554  16.848   1.157
29638W        W 1898   9.837  43.078   2.397
29639W        W 1899  18.818  31.746  11.498
29640W        W 1900  15.634  29.220   4.298
29641W        W 1901  35.291  19.149  12.353
29642W        W 1902  14.111  20.515  12.007
29643W        W 1903   5.711  31.321   4.660
29644W        W 1904  16.190  13.365  13.855
29645W        W 1905  35.558  10.512   3.534
29646W        W 1906  34.811  18.090  13.842
29647W        W 1907  39.735  21.027   0.270
29648W        W 1908  12.668  20.259  13.544
29649W        W 1909  25.280  43.455   1.174
29650W        W 1910   5.461  24.713   2.762
29651W        W 1911  42.916  18.225  14.193
29652W        W 1912  31.895  19.154   0.054
29653W        W 1913  15.998  24.000   4.863
29654W        W 1914  12.617  26.004  14.707
29655W        W 1915  40.262   2.717  11.016
29656W        W 1916  24.956  24.180   3.166
29657W        W 1917   7.208  14.636  12.990
29658W        W 1918  22.582  28.901  11.054
29659W        W 1919  36.096  37.955  12.875
29660W        W 1920  12.509  29.187  11.160
29661W        W 1921  18.437  38.125  12.509
29662W        W 1922  29.024  40.070   1.517
29663W        W 1923  34.491  16.174  11.665
29664W        W 1924  42.822   1.438  11.654
29665W        W 1925   9.592   7.972  14.940
29666W        W 1926  36.453  15.633   4.545
29667W        W 1927  36.502  26.723   1.696
29668W        W 1928  14.707  20.287  11.570
29669W        W 1929  17.748  10.670  14.957
29670W        W 1930  25.485   3.269   1.645
29671W        W 1931  44.609   9.990  14.889
29672W        W 1932  43.284  31.886   2.287
29673W        W 1933  38.804  36.642  13.014
29674W        W 1934   5.016  20.495   1.496
29675W        W 1935  29.432   6.784  14.044
29676W        W 1936  34.137  16.290   3.289
29677W        W 1937   0.343  36.481  14.619
29678W        W 1938   8.064  28.625   2.635
29679W        W 1939  11.652  23.248  14.566
29680W        W 1940  14.112  37.427  14.426
29681W        W 1941  39.559  12.871  11.680
29682W        W 1942   6.154  42.406   1.755
29683W        W 1943  35.642  31.543   3.451
29684W        W 1944   7.383  17.336   3.267
29685W        W 1945  18.266  39.139  14.003
29686W        W 1946  32.308  31.595  10.467
29687W        W 1947  15.829   2.345  11.154
29688W        W 1948  38.466  24.738  12.135
29689W        W 1949  17.066  42.244   1.837
29690W        W 1950   1.401  30.275   1.252
29691W        W 1951  35.076  38.442  10.647
29692W        W 1952  32.896  12.809   2.249
29693W        W 1953   5.228   2.472   2.329
29694W        W 1954  43.746  23.582  12.815
29695W        W 1955   8.191   6.873   4.585
29696W        W 1956   2.426  21.191   3.148
29697W        W 1957  23.742  13.055  13.992
29698W        W 1958   3.827   9.305   2.140
29699W        W 1959  30.057   8.995  14.957
29700W        W 1960  14.057   0.753   4.665
29701W        W 1961  23.070  34.939   4.248
29702W        W 1962  35.864  22.627  11.093
29703W        W 1963  43.444  31.128   1.732
29704W        W 1964  25.991   9.622  10.877
29705W        W 1965  26.702  20.126   0.772
29706W        W 1966   0.988  16.056   4.892
29707W        W 1967  26.344   6.914   3.304
29708W        W 1968   0.264  43.690  13.842
29709W        W 1969  20.280  39.168   0.058
29710W        W 1970  33.775  38.350  14.536
29711W        W 1971  20.571  42.245  12.470
29712W        W 1972  23.572  10.902  13.389
29713W        W 1973   4.295  13.460  14.468
29714W        W 1974  15.730   3.798   3.859
29715W        W 1975  32.011  14.930   1.417
29716W        W 1976  38.918  35.944  14.463
29717W        W 1977   2.077  36.605   1.196
29718W        W 1978  23.126  25.639  14.548
29719W        W 1979  24.363  26.149  14.690
29720W        W 1980  33.971   9.742   3.310
29721W        W 1981   2.000  33.096   0.188
29722W        W 1982  36.835  28.066  10.654
29723W        W 1983  24.031  25.729   3.779
29724W        W 1984  37.362  37.789  11.621
29725W        W 1985  24.420  34.166   3.305
29726W        W 1986  28.090   6.342   4.126
29727W        W 1987  12.168  33.227  13.134
29728W        W 1988  29.828  41.299   4.133
29729W        W 1989  42.778  19.625   4.691
29730W        W 1990  39.914  35.046  13.419
29731W        W 1991  18.359  16.308   2.092
29732W        W 1992  25.724  24.974   0.845
29733W        W 1993  18.400  40.914  12.454
29734W        W 1994  41.905   4.617  13.809
29735W        W 1995   8.600   1.361  12.160
29736W        W 1996  21.686  33.536  13.626
29737W        W 1997  36.975  11.456  12.607
29738W        W 1998  42.392  27.199  12.971
29739W        W 1999  31.059  15.665   1.962
29740W        W 2000  36.731   8.088  13.392
29741W        W 2001  15.833  41.373  14.439
29742W        W 2002  40.913  18.820   1.705
29743W        W 2003  30.966   4.290  11.704
29744W        W 2004  22.531  32.032   3.253
29745W        W 2005   8.712  24.373   3.763
29746W        W 2006   9.376   8.520   0.295
29747W        W 2007   0.766  23.522  10.188
29748W        W 2008  12.138  19.820   1.837
29749W        W 2009  37.352   3.877   4.323
29750W        W 2010  34.511  11.010   3.213
29751W        W 2011   1.352  19.130   0.453
29752W        W 2012  33.102  29.655   3.186
29753W        W 2013   3.835  10.832   1.228
29754W        W 2014  25.514  22.439   0.256
29755W        W 2015  37.022  36.197   2.464
29756W        W 2016  32.500  25.996  14.875
29757W        W 2017  33.191  36.942  11.965
29758W        W 2018   8.599  33.702   0.790
29759W        W 2019  28.701  42.536   0.773
29760W        W 2020  38.565  27.413   0.777
29761W        W 2021   9.194  15.833   1.107
29762W        W 2022  13.680   5.975  12.895
29763W        W 2023  31.972  14.675  14.507
29764W        W 2024  13.612  24.166   2.212
29765W        W 2025  25.479   6.861   1.783
29766W        W 2026   8.056  29.501  11.130
29767W        W 2027   6.289  29.062  12.995
29768W        W 2028   1.198  14.823   1.961
29769W        W 2029  15.224  21.761   2.749
29770W        W 2030  37.371   4.764   1.613
29771W        W 2031  17.399  33.134   4.172
29772W        W 2032  35.119   7.662   3.263
29773W        W 2033  26.665  31.131  11.487
29774W        W 2034  31.026  28.731   0.723
29775W        W 2035  39.036  33.325  13.779
29776W        W 2036  40.313  17.777  11.089
29777W        W 2037  39.430  12.577  12.100
29778W        W 2038   6.799   5.076  12.148
29779W        W 2039  20.799  32.397   4.193
29780W        W 2040  36.128  42.929  11.168
29781W        W 2041  29.859  33.441   1.735
29782W        W 2042  15.627  25.076  14.700
29783W        W 2043  16.533  16.082  11.045
29784W        W 2044  24.698  25.597   0.400
29785W        W 2045  42.844  32.967  10.637
29786W        W 2046   4.327   9.127   1.348
29787W        W 2047   4.281  24.698   1.123
29788W        W 2048  38.014  23.503   1.630
29789W        W 2049  18.314  24.509   3.332
29790W        W 2050  13.522  19.341  12.392
29791W        W 2051  44.830  43.547  12.578
29792W        W 2052  30.393  37.386   4.483
29793W        W 2053  17.054  34.360  10.349
29794W        W 2054  39.558  25.679  13.014
29795W        W 2055  19.303  25.567   0.885
29796W        W 2056  39.299  10.869   1.200
29797W        W 2057  14.389  35.533  11.046
29798W        W 2058   3.757   2.929  13.641
29799W        W 2059  36.203  13.088   0.562
29800W        W 2060   4.621  28.897   2.168
29801W        W 2061  11.129  39.509   3.276
29802W        W 2062  40.050  43.876   2.359
29803W        W 2063  20.653  30.094   0.783
29804W        W 2064  20.975  15.736  12.600
29805W        W 2065  33.853   1.690   3.009
29806W        W 2066  33.310   0.413  14.391
29807W        W 2067  11.591  34.424  14.896
29808W        W 2068  22.012  32.498  12.115
29809W        W 2069  22.091   4.268   3.241
29810W        W 2070   3.544  42.568   2.325
29811W        W 2071  31.661   3.660  12.096
29812W        W 2072   0.303  32.092   2.251
29813W        W 2073  35.618  24.109   0.831
29814W        W 2074  18.170   7.001   1.790
29815W        W 2075  18.008  10.593   4.547
29816W        W 2076  26.186  38.569   1.782
29817W        W 2077  29.222   3.739   2.394
29818W        W 2078  12.707   8.874   0.035
29819W        W 2079  30.075  18.810   1.469
29820W        W 2080   8.214  14.124   4.376
29821W        W 2081  39.792  26.214  12.007
29822W        W 2082   4.479   1.569   0.906
29823W        W 2083   7.164  40.090   4.564
29824W        W 2084  10.574  11.284   1.270
29825W        W 2085  27.208  32.287  14.566
29826W        W 2086   8.356  40.881   1.638
29827W        W 2087  29.002  33.691   2.607
29828W        W 2088  40.950  32.081  10.696
29829W        W 2089   6.006   5.106  14.701
29830W        W 2090  15.559  41.700   3.184
29831W        W 2091  27.118   5.998   0.727
29832W        W 2092  12.223   2.345  14.127
29833W        W 2093  20.615   5.683   0.058
29834W        W 2094  11.384   6.395   3.682
29835W        W 2095  26.737  12.393   1.777
29836W        W 2096  36.352  14.789   0.485
29837W        W 2097   7.795  14.842  14.005
29838W        W 2098  33.173   6.330   3.195
29839W        W 2099  13.332  41.355  12.432
29840W        W 2100   6.172  26.212  10.240
29841W        W 2101  11.239   5.571  12.919
29842W        W 2102  37.526  38.327   0.754
29843W        W 2103  26.599  41.045  10.152
29844W        W 2104  40.789  25.652  12.233
29845W        W 2105  41.560  17.065   2.163
29846W        W 2106  35.483  25.264   2.785
29847W        W 2107  15.216  34.909   3.137
29848W        W 2108   8.186  35.086  13.654
29849W        W 2109  39.416  37.913  13.146
29850W        W 2110  10.769  27.781   1.126
29851W        W 2111  30.518   0.936   3.552
29852W        W 2112  43.554  31.119  13.049
29853W        W 2113  31.871  38.904  11.030
29854W        W 2114  22.518   1.501   3.574
29855W        W 2115  24.015  13.459   2.897
29856W        W 2116  33.850   7.265   4.778
29857W        W 2117  26.934  24.243   3.127
29858W        W 2118  27.385  31.565  11.543
29859W        W 2119  28.419  29.055  12.568
29860W        W 2120  19.539  16.717  10.495
29861W        W 2121  13.051  13.687   0.073
29862W        W 2122  14.263  41.093   0.793
29863W        W 2123  38.107  20.294   1.720
29864W        W 2124  29.090   9.669  10.985
29865W        W 2125  38.870  42.885   0.455
29866W        W 2126  17.779   6.933   2.268
29867W        W 2127  44.860  28.104   1.462
29868W        W 2128   2.962  42.302   1.242
29869W        W 2129  10.520  37.904  14.799
29870W        W 2130  15.763  28.952   2.792
29871W        W 2131  38.434  22.422   4.187
29872W        W 2132  12.369  19.266   4.357
29873W        W 2133  36.556  33.868   3.644
29874W        W 2134  19.788   7.922   2.172
29875W        W 2135   8.739  12.574  12.577
29876W        W 2136  37.403  13.575   2.867
29877W        W 2137   8.674   8.651  12.126
29878W        W 2138  23.960  27.144  11.499
29879W        W 2139  25.454  25.256  12.736
29880W        W 2140  29.306  37.502  12.733
29881W        W 2141  35.998  33.352   4.261
29882W        W 2142   2.724   1.202   1.671
29883W        W 2143  26.736  41.378   5.522
29884W        W 2144  26.048  40.366   2.587
29885W        W 2145  19.652   3.255   1.183
29886W        W 2146  20.794  24.331  11.155
29887W        W 2147  15.595  13.993   5.087
29888W        W 2148  42.848   2.057   4.927
29889W        W 2149  37.454  16.266   1.907
29890W        W 2150  10.791  29.591   2.159
29891W        W 2151  41.851   1.462   3.836
29892W        W 2152  29.408  17.017   2.016
29893W        W 2153  23.294  42.511  14.341
29894W        W 2154  32.132  41.049  14.601
29895W        W 2155  20.669  10.640   2.425
29896W        W 2156  32.067  34.771   2.936
29897W        W 2157  27.949  16.156  10.730
29898W        W 2158  13.358  25.649  12.165
29899W        W 2159  23.080  26.171   0.931
29900W        W 2160  17.037  36.026  11.003
29901W        W 2161  28.373  44.375   2.658
29902W        W 2162  40.210  40.026  13.660
29903W        W 2163  23.986  15.756   4.507
29904W        W 2164  39.206  30.484  14.927
29905W        W 2165  25.641  32.669  13.547
29906W        W 2166   6.843  16.322  10.393
29907W        W 2167  43.052  17.750   1.376
29908W        W 2168  36.045  41.451   3.225
29909W        W 2169   5.923  43.867  13.538
29910W        W 2170  31.048  37.831   0.855
29911W        W 2171   3.330  38.372  13.866
29912W        W 2172  14.973   0.969  10.311
29913W        W 2173   5.128   4.730  12.923
29914W        W 2174  33.117  12.351  14.914
29915W        W 2175  27.158  22.234   4.222
29916W        W 2176   8.193  40.498   0.903
29917W        W 2177  35.903  41.297  10.589
29918W        W 2178   2.123  26.267  14.527
29919W        W 2179  12.282  40.326  11.573
29920W        W 2180  26.511  42.404   3.395
29921W        W 2181  41.901  18.709   2.092
29922W        W 2182  20.289  22.426   0.778
29923W        W 2183  15.566  11.696  10.108
29924W        W 2184   9.370   9.281   4.445
29925W        W 2185   2.257  13.594  13.640
29926W        W 2186  18.012  29.088  10.455
29927W        W 2187  19.132  27.664  14.365
29928W        W 2188   8.175  44.916   1.319
29929W        W 2189  26.712  39.311   2.804
29930W        W 2190  12.923  25.577   4.575
29931W        W 2191  18.641   3.940  12.060
29932W        W 2192  29.506  20.206  10.710
29933W        W 2193  10.688  30.890   0.835
29934W        W 2194  30.920  28.190   3.724
29935W        W 2195   1.898  26.253   1.403
29936W        W 2196  32.479  15.250  12.170
29937W        W 2197  37.743   9.242  11.149
29938W        W 2198  19.979  37.934   4.639
29939W        W 2199   1.345  37.653  12.369
29940W        W 2200   7.908  22.942   2.344
29941W        W 2201  15.898  14.620   5.444
29942W        W 2202  22.782  21.460  10.583
29943W        W 2203  43.441  31.827   3.288
29944W        W 2204  13.316  18.851  12.457
29945W        W 2205  30.134  19.642  10.452
29946W        W 2206  37.665  33.502   1.789
29947W        W 2207  22.773  30.357  12.928
29948W        W 2208  33.155  19.173  10.606
29949W        W 2209  27.012   8.073  13.476
29950W        W 2210  30.486   8.381   2.981
29951W        W 2211  33.606  32.002  14.034
29952W        W 2212  40.806  30.074  10.581
29953W        W 2213  28.640  35.927  10.375
29954W        W 2214  25.475  19.193   3.271
29955W        W 2215   4.868  31.446   2.227
29956W        W 2216  15.520   4.972   0.839
29957W        W 2217   6.758  13.270   0.720
29958W        W 2218  34.515  20.998   5.162
29959W        W 2219  42.336  42.667  11.534
29960W        W 2220   2.527  34.420   3.329
29961W        W 2221  21.172  18.033  11.983
29962W        W 2222  44.448  36.013   4.576
29963W        W 2223   5.002  20.755   4.285
29964W        W 2224  25.138   9.150   3.939
29965W        W 2225  15.067  29.373  13.864
29966W        W 2226  29.960  42.829   0.403
29967W        W 2227  34.374   8.852  13.977
29968W        W 2228  18.835  38.727  11.598
29969W        W 2229  11.389  37.420   1.230
29970W        W 2230  11.106  26.875   4.231
29971W        W 2231  22.456  31.642  14.535
29972W        W 2232  32.432  30.208   0.980
29973W        W 2233  20.241  15.493  13.029
29974W        W 2234  15.294  38.091   0.274
29975W        W 2235  16.817  39.989  12.474
29976W        W 2236   5.001   9.689  11.553
29977W        W 2237   1.775   1.493  11.561
29978W        W 2238  21.218  13.979   2.416
29979W        W 2239  34.307  27.759  14.913
29980W        W 2240  27.443   7.408   4.079
29981W        W 2241  17.384  38.429  12.585
29982W        W 2242  18.225  42.002   2.157
29983W        W 2243  42.499  24.797  11.038
29984W        W 2244  11.953   0.726  13.050
29985W        W 2245  41.309  32.605   1.873
29986W        W 2246  15.353   2.266   2.474
29987W        W 2247  14.022   6.151   2.811
29988W        W 2248  39.032  30.131  14.189
29989W        W 2249   0.354   3.907   4.676
29990W        W 2250  24.995  21.476  10.967
29991W        W 2251  34.075  13.965  11.088
29992W        W 2252  14.296   2.211   1.622
29993W        W 2253   6.420  18.389  13.028
29994W        W 2254   6.233  14.861   4.118
29995W        W 2255  33.567  36.817  10.780
29996W        W 2256   5.434   8.239  14.980
29997W        W 2257   3.931   9.851   0.029
29998W        W 2258  10.123  30.556  11.489
29999W        W 2259  31.688  12.644   4.718
30000W        W 2260  13.277   0.368   1.238
30001W        W 2261  40.893  43.056  10.304
30002W        W 2262   2.244   6.021   3.784
30003W        W 2263  29.541  18.063  12.602
30004W        W 2264  30.302  16.865  14.964
30005W        W 2265  42.424  25.810   2.647
30006W        W 2266  17.308  34.477   2.928
30007W        W 2267  31.399   2.559  14.895
30008W        W 2268  18.021  14.219  11.545
30009W        W 2269  13.302  24.464  14.399
30010W        W 2270   2.826  38.014  12.875
30011W        W 2271  34.896  31.614  14.631
30012W        W 2272  18.207  14.254  13.819
30013W        W 2273  29.312   8.069   2.349
30014W        W 2274  38.499   1.930   3.886
30015W        W 2275  16.717  27.012   0.276
30016W        W 2276  19.662  41.642  13.994
30017W        W 2277  15.850   9.172  14.369
30018W        W 2278   7.963  17.557  12.144
30019W        W 2279  31.916  31.414   3.637
30020W        W 2280  33.524  27.331   0.423
30021W        W 2281  41.090  24.008  12.426
30022W        W 2282  17.870  22.220   1.732
30023W        W 2283   2.863  38.604   2.702
30024W        W 2284  40.684  42.852   4.203
30025W        W 2285  22.633  15.131  14.800
30026W        W 2286   3.563  40.590   4.148
30027W        W 2287  19.764   3.705  14.805
30028W        W 2288  13.591  19.798  11.015
30029W        W 2289   1.101  32.114  14.194
30030W        W 2290  15.163  20.119   2.462
30031W        W 2291  38.101   8.831  13.473
30032W        W 2292   3.485  31.653  14.430
30033W        W 2293   4.676  25.778   1.824
30034W        W 2294  40.392  33.496   0.074
30035W        W 2295  27.020  39.653  14.003
30036W        W 2296  44.149  12.925  13.422
30037W        W 2297  26.242   2.732   1.201
30038W        W 2298   9.685  32.477   4.726
30039W        W 2299  44.254  31.755  13.809
30040W        W 2300  20.282  31.551   2.360
30041W        W 2301  38.821   3.904  11.546
30042W        W 2302  35.973   6.192  12.986
30043W        W 2303  17.291  17.876   2.931
30044W        W 2304  27.615  11.559  14.025
30045W        W 2305   5.743  32.555   3.323
30046W        W 2306  32.564  12.832   1.270
30047W        W 2307  10.892  16.460   4.005
30048W        W 2308  44.011  30.143  13.062
30049W        W 2309  19.005  35.107   0.296
30050W        W 2310  29.956  40.583  12.135
30051W        W 2311  29.874  13.080   1.278
30052W        W 2312  39.917  41.903   4.587
30053W        W 2313   4.896  19.647  10.730
30054W        W 2314  11.249  17.728  11.553
30055W        W 2315  14.717  36.597  13.026
30056W        W 2316  22.025  30.131   2.832
30057W        W 2317  16.617  11.620  12.191
30058W        W 2318  17.868   1.216   2.366
30059W        W 2319  11.992  27.704  13.583
30060W        W 2320  39.811  19.122   0.743
30061W        W 2321   1.500  24.095  12.111
30062W        W 2322   6.865  30.669  11.160
30063W        W 2323  10.431   7.441  12.365
30064W        W 2324   1.327  28.976   2.309
30065W        W 2325  10.905  25.163   0.419
30066W        W 2326  36.595  11.319   0.817
30067W        W 2327  18.976  36.783  13.140
30068W        W 2328  26.862  37.516  10.571
30069W        W 2329   5.281  38.729  10.255
30070W        W 2330  12.642   7.823  13.338
30071W        W 2331  43.490  38.954  12.029
30072W        W 2332  22.569  43.855   1.319
30073W        W 2333  14.786  26.897   1.233
30074W        W 2334  44.578  29.928   2.350
30075W        W 2335  23.844  42.433  13.570
30076W        W 2336   2.549  31.124   1.381
30077W        W 2337  18.788  41.816   4.912
30078W        W 2338  35.344  38.899   1.742
30079W        W 2339   1.513   2.356   2.405
30080W        W 2340  19.122  22.702  14.426
30081W        W 2341  35.041  17.260  14.507
30082W        W 2342  27.942  25.749   3.692
30083W        W 2343  39.517  16.741   0.792
30084W        W 2344  41.345  39.315  12.077
30085W        W 2345  33.435  32.876   3.517
30086W        W 2346   5.016  42.989   3.245
30087W        W 2347  27.061  10.253  10.899
30088W        W 2348  31.217  42.882  12.543
30089W        W 2349  42.760   0.833  12.827
30090W        W 2350   7.272  20.381  11.648
30091W        W 2351  35.181  25.574   0.812
30092W        W 2352  26.619  11.801   2.197
30093W        W 2353  37.543  25.237   4.569
30094W        W 2354  16.588  11.174   2.808
30095W        W 2355  41.335  20.010  13.899
30096W        W 2356  43.686  15.700   0.258
30097W        W 2357   3.985  10.766   2.293
30098W        W 2358  27.800   3.424   4.928
30099W        W 2359   0.041   5.260  13.776
30100W        W 2360   7.845  20.680   4.296
30101W        W 2361  27.522   3.182  13.968
30102W        W 2362  44.773  41.421   2.247
30103W        W 2363  40.079   3.434   0.988
30104W        W 2364  28.003  37.792  11.167
30105W        W 2365   3.361  29.023  13.793
30106W        W 2366  10.528   2.523   0.286
30107W        W 2367  37.824   1.869   1.161
30108W        W 2368  12.040  17.251   3.715
30109W        W 2369   1.378  12.957   1.334
30110W        W 2370  13.401   6.166  14.755
30111W        W 2371  19.541  24.437   3.945
30112W        W 2372  26.232   3.932   4.580
30113W        W 2373  38.567  38.462   2.700
30114W        W 2374   5.491   9.386   4.785
30115W        W 2375   8.860  20.488   3.753
30116W        W 2376  38.070  26.532  11.479
30117W        W 2377   9.166  43.481  12.850
30118W        W 2378   2.723  14.216   0.781
30119W        W 2379  30.624   0.836  14.520
30120W        W 2380  27.650  32.545  10.621
30121W        W 2381   8.870  19.639  13.366
30122W        W 2382  22.146  14.681   3.635
30123W        W 2383  20.988  38.391   0.883
30124W        W 2384  25.559  13.652  11.854
30125W        W 2385   3.350  34.296   3.246
30126W        W 2386  17.193   0.475   1.936
30127W        W 2387  41.845  41.048  11.334
30128W        W 2388  43.924   3.361   3.641
30129W        W 2389   5.356   6.041   4.689
30130W        W 2390  26.714   9.825   2.733
30131W        W 2391  37.319  18.039   0.838
30132W        W 2392  22.515   8.611   0.481
30133W        W 2393   7.546  19.544  13.015
30134W        W 2394  36.054  32.651  12.015
30135W        W 2395  37.074  44.213  12.470
30136W        W 2396   8.293  15.401   2.328
30137W        W 2397   7.928   0.484   3.825
30138W        W 2398   1.233   3.980   4.009
30139W        W 2399   5.884  32.436  14.916
30140W        W 2400  35.629   8.325   1.773
30141W        W 2401  17.886  21.929   0.382
30142W        W 2402   4.263  34.351   0.363
30143W        W 2403   4.206   0.041  13.037
30144W        W 2404  10.400  31.539  12.498
30145W        W 2405  36.935   8.414   3.397
30146W        W 2406  33.474  28.983   4.524
30147W        W 2407  20.696  42.023   4.782
30148W        W 2408  27.575   6.761   0.564
30149W        W 2409  39.572   8.357  10.660
30150W        W 2410  25.640   1.297   0.477
30151W        W 2411   9.108  42.423   3.003
30152W        W 2412  15.791  22.520  12.029
30153W        W 2413  42.958  29.917  12.436
30154W        W 2414   5.073  12.204   4.554
30155W        W 2415  35.698   2.857  14.869
30156W        W 2416  29.984   0.822  10.587
30157W        W 2417   7.528  10.112  14.784
30158W        W 2418  37.384   0.401   4.657
30159W        W 2419  15.649  33.877   4.180
30160W        W 2420  18.856  31.652  13.070
30161W        W 2421  38.396  28.531  13.660
30162W        W 2422  24.804  28.560   2.357
30163W        W 2423   5.145  36.060   2.790
30164W        W 2424  27.046  23.357  12.421
30165W        W 2425  26.066   1.392   2.176
30166W        W 2426  22.746  10.945  11.866
30167W        W 2427  27.075  19.610  11.933
30168W        W 2428   1.912  22.539  11.713
30169W        W 2429   0.371  13.180   4.590
30170W        W 2430  13.591  32.194   1.041
30171W        W 2431  22.596  17.501   3.295
30172W        W 2432  16.585  19.333   1.455
30173W        W 2433  10.656  16.237  10.688
30174W        W 2434  39.570   3.440   1.144
30175W        W 2435  33.681   0.788   3.367
30176W        W 2436   4.413  25.174   2.373
30177W        W 2437  22.270  27.998  13.484
30178W        W 2438   8.656  40.913  14.744
30179W        W 2439  12.555   9.901   1.236
30180W        W 2440  28.164  13.069  12.564
30181W        W 2441  35.808  34.633   2.751
30182W        W 2442  43.017  15.473   4.257
30183W        W 2443   1.615   3.666  14.014
30184W        W 2444  24.443  15.085  11.859
30185W        W 2445  36.177  22.495  12.881
30186W        W 2446  43.290   0.268   3.437
30187W        W 2447   9.937  41.236   2.880
30188W        W 2448  27.897  19.722   1.770
30189W        W 2449  25.292   1.336  12.528
30190W        W 2450  20.719   6.357   2.367
30191W        W 2451  11.057  40.325  11.647
30192W        W 2452  23.352  34.868  11.507
30193W        W 2453   0.640   5.959   0.867
30194W        W 2454   4.994   2.319  14.882
30195W        W 2455  31.966  14.891   0.904
30196W        W 2456  24.969  17.630  11.003
30197W        W 2457  20.503  24.016  14.354
30198W        W 2458   7.636  41.523   1.178
30199W        W 2459   1.949  18.928  10.840
30200W        W 2460  13.840  26.298  14.352
30201W        W 2461  22.057  34.906  13.976
30202W        W 2462  14.156   6.882   0.524
30203W        W 2463  12.354  17.600   3.417
30204W        W 2464   7.040  39.835  10.708
30205W        W 2465  18.749   3.765  13.744
30206W        W 2466  42.797  10.251   2.261
30207W        W 2467  32.852  13.690   2.578
30208W        W 2468  33.701  28.758   1.229
30209W        W 2469  26.477  17.343   3.747
30210W        W 2470  14.670  23.972   3.869
30211W        W 2471  25.671  19.806  11.545
30212W        W 2472  27.274   0.593  11.271
30213W        W 2473  13.365  20.628  11.511
30214W        W 2474   7.925  42.967  13.382
30215W        W 2475  35.597   7.847  12.436
30216W        W 2476  32.024   5.977  14.928
30217W        W 2477   6.144   7.451   0.944
30218W        W 2478  15.120  42.329   3.801
30219W        W 2479  28.631  38.819  10.600
30220W        W 2480  10.206  39.912  13.946
30221W        W 2481   3.995  38.756  13.857
30222W        W 2482  36.767  22.764  14.784
30223W        W 2483   8.382  26.628   4.981
30224W        W 2484  31.562   9.281   1.389
30225W        W 2485  31.445  33.631   0.088
30226W        W 2486   1.448  39.823  13.449
30227W        W 2487  44.004   7.674   0.726
30228W        W 2488  32.359  26.783  13.779
30229W        W 2489  43.954  29.144  11.618
30230W        W 2490   0.672  27.259   0.923
30231W        W 2491   2.541  27.038   1.407
30232W        W 2492   8.825  10.490  13.966
30233W        W 2493   4.280  44.450   4.925
30234W        W 2494  39.358  10.128  11.043
30235W        W 2495  28.878  20.761  12.843
30236W        W 2496  37.866  27.905   1.264
30237W        W 2497  40.811  22.535  14.334
30238W        W 2498   9.227  21.776  13.138
30239W        W 2499  22.948  29.876  12.438
30240W        W 2500  13.348  10.547   0.958
30241W        W 2501  44.312  44.824  12.299
30242W        W 2502  40.312  13.423   3.086
30243W        W 2503  10.846  30.177  13.692
30244W        W 2504  39.755  37.612  13.514
30245W        W 2505  44.347  33.559  12.540
30246W        W 2506   4.971  12.817  11.103
30247W        W 2507   3.008  32.374   3.797
30248W        W 2508  18.279  27.880   5.007
30249W        W 2509  19.495   7.770  12.888
30250W        W 2510  11.358  24.638   0.977
30251W        W 2511  34.937   3.105   2.447
30252W        W 2512  42.767   7.275   0.412
30253W        W 2513  24.254  17.529  12.979
30254W        W 2514   5.853  38.151  14.814
30255W        W 2515  23.587   5.282  12.996
30256W        W 2516  32.355  17.226   2.559
30257W        W 2517  40.266   5.149  14.493
30258W        W 2518  41.793  41.864   4.319
30259W        W 2519   1.994  29.691   2.412
30260W        W 2520  11.929  22.105   2.803
30261W        W 2521  42.514  20.040   4.348
30262W        W 2522   2.372  27.226  14.243
30263W        W 2523  12.733  40.106  11.442
30264W        W 2524  14.576  44.742  12.820
30265W        W 2525  36.412  17.654   2.195
30266W        W 2526  28.080  43.295   4.354
30267W        W 2527   8.133  19.468   2.468
30268W        W 2528   0.396  12.688   1.863
30269W        W 2529  31.650  35.028  12.056
30270W        W 2530  16.691  16.887  11.513
30271W        W 2531  20.503  35.084  12.871
30272W        W 2532  43.452   6.460   2.188
30273W        W 2533  32.554  14.112  10.596
30274W        W 2534  39.048  44.821  14.472
30275W        W 2535  15.184  17.077  13.514
30276W        W 2536   0.803  18.199  11.629
30277W        W 2537  10.617   4.229   4.281
30278W        W 2538  42.937  37.620  10.778
30279W        W 2539  13.345   1.825   4.136
30280W        W 2540  19.926  37.370   3.681
30281W        W 2541   1.268  37.727  10.928
30282W        W 2542  18.625   2.674   2.250
30283W        W 2543  13.746  38.849  13.495
30284W        W 2544  16.821  14.290  14.351
30285W        W 2545  21.301  18.129  13.753
30286W        W 2546  34.835  20.532   5.464
30287W        W 2547  23.329  32.580  11.293
30288W        W 2548  21.311  32.367  14.524
30289W        W 2549  26.141  36.030  12.093
30290W        W 2550  31.644  31.504   1.891
30291W        W 2551  14.230  24.366   4.563
30292W        W 2552  30.533  36.658   0.282
30293W        W 2553  24.533  19.501   2.422
30294W        W 2554  25.372  12.721   2.285
30295W        W 2555  15.565  28.384  13.344
30296W        W 2556  11.556  19.494   4.242
30297W        W 2557   5.680  16.207  10.878
30298W        W 2558  33.974  29.141  11.560
30299W        W 2559  14.312  30.149  12.948
30300W        W 2560  24.411   1.827  13.874
30301W        W 2561  24.441  29.622  12.002
30302W        W 2562  11.278  19.313   3.272
30303W        W 2563  11.705  36.583   0.084
30304W        W 2564  28.979  25.578  10.653
30305W        W 2565  42.535  14.117  11.709
30306W        W 2566  26.041  38.360   5.539
30307W        W 2567   8.745   2.958   1.794
30308W        W 2568   6.644   2.242   0.065
30309W        W 2569  18.307  42.468  14.517
30310W        W 2570  35.418  24.198  13.990
30311W        W 2571   9.872   9.407   1.183
30312W        W 2572  27.807  39.485   2.205
30313W        W 2573  33.403  14.606   0.898
30314W        W 2574   5.939  17.391  14.473
30315W        W 2575   7.953  31.194  13.166
30316W        W 2576  16.676   3.411  14.499
30317W        W 2577   0.943  43.748   4.542
30318W        W 2578   4.340  11.685   2.760
30319W        W 2579  23.656  40.443  11.199
30320W        W 2580  43.976  26.956   2.705
30321W        W 2581  39.814  42.735   0.420
30322W        W 2582  42.309   8.373   2.039
30323W        W 2583  29.599  34.116  13.521
30324W        W 2584  34.444  28.127   4.901
30325W        W 2585  41.229  23.444  13.656
30326W        W 2586  42.032   1.199  14.374
30327W        W 2587   2.734   7.757  11.096
30328W        W 2588  29.078  41.250   0.829
30329W        W 2589  28.900  11.143   1.759
30330W        W 2590  23.286  23.537  13.063
30331W        W 2591  36.210  15.634   1.851
30332W        W 2592  39.756  12.778   3.656
30333W        W 2593  13.275  15.302   3.399
30334W        W 2594   4.332  19.158  11.040
30335W        W 2595  15.949  34.810  13.288
30336W        W 2596  23.561  14.235  13.429
30337W        W 2597  23.457  12.352   0.332
30338W        W 2598  38.927  17.875   1.810
30339W        W 2599  22.519  40.396  12.132
30340W        W 2600  17.627  39.646   4.176
30341W        W 2601  31.158  20.728  14.977
30342W        W 2602  21.222  34.401  11.956
30343W        W 2603  18.348  25.290  10.749
30344W        W 2604  21.194  34.807   5.105
30345W        W 2605   6.142   6.954   0.373
30346W        W 2606  15.061  43.826  12.294
30347W        W 2607   1.597   5.567   1.851
30348W        W 2608  37.971  17.076  10.239
30349W        W 2609  39.609  32.432  11.140
30350W        W 2610   3.980  28.901   0.435
30351W        W 2611  34.608  24.086   0.902
30352W        W 2612  36.879   3.156  10.776
30353W        W 2613  33.332   3.378  10.961
30354W        W 2614  25.217  15.051   0.691
30355W        W 2615  43.761   8.177   4.716
30356W        W 2616  20.008  42.889  13.388
30357W        W 2617  10.350  37.792  10.940
30358W        W 2618  10.179  39.373   4.609
30359W        W 2619  17.016  16.833   4.681
30360W        W 2620  32.614  38.647  11.603
30361W        W 2621  40.882  20.948   1.601
30362W        W 2622  21.025  10.463  11.415
30363W        W 2623  35.154  41.365  10.253
30364W        W 2624  16.508  44.355  12.565
30365W        W 2625  32.339   0.711  12.114
30366W        W 2626  18.943  43.137   4.437
30367W        W 2627  19.776   4.020   4.455
30368W        W 2628  13.248  18.345  12.523
30369W        W 2629  30.037   9.461  14.391
30370W        W 2630   2.765  17.690   1.270
30371W        W 2631  21.245  18.256   1.850
30372W        W 2632   5.360  14.370   0.584
30373W        W 2633   7.215  34.769   3.265
30374W        W 2634   7.367  42.320   4.591
30375W        W 2635  33.151  41.819  13.727
30376W        W 2636  14.257  39.916   1.542
30377W        W 2637  27.395  44.859   0.895
30378W        W 2638  28.553  39.479  12.146
30379W        W 2639  32.141  25.645   2.842
30380W        W 2640  41.282   6.961   1.593
30381W        W 2641  35.120  12.843  13.054
30382W        W 2642   5.210  25.394  13.404
30383W        W 2643  15.511  37.257  10.322
30384W        W 2644  34.602  21.140   2.337
30385W        W 2645  22.183   0.895   4.146
30386W        W 2646   6.684  21.327   0.339
30387W        W 2647  35.554  21.889   4.706
30388W        W 2648  37.450  38.288  11.722
30389W        W 2649  22.917  14.648  10.674
30390W        W 2650  37.351  13.214  11.870
30391W        W 2651  29.868  20.227  14.957
30392W        W 2652   3.139  31.201  12.023
30393W        W 2653  23.530  29.093   0.263
30394W        W 2654  44.417  16.101   0.769
30395W        W 2655  39.014  31.071  13.002
30396W        W 2656  44.699  38.021   2.726
30397W        W 2657  14.960   9.749  11.955
30398W        W 2658   9.236  27.581   4.011
30399W        W 2659  17.145  36.090   1.985
30400W        W 2660  10.235  35.351   4.565
30401W        W 2661  37.902  34.867   1.760
30402W        W 2662  23.461  29.706   1.494
30403W        W 2663   5.822   2.024   1.777
30404W        W 2664  34.440  35.862   1.736
30405W        W 2665  13.218  12.620  11.745
30406W        W 2666  34.180  37.341   1.718
30407W        W 2667   6.857   0.501  14.747
30408W        W 2668   5.706  42.197  11.969
30409W        W 2669  44.363   6.178  11.563
30410W        W 2670  22.408  28.708   9.746
30411W        W 2671  24.682  26.634   1.345
30412W        W 2672  37.088  13.400   2.463
30413W        W 2673  11.805   0.239   3.741
30414W        W 2674  34.563  31.406   0.893
30415W        W 2675   4.251  14.056  10.459
30416W        W 2676  26.654  41.381  14.262
30417W        W 2677  13.980   2.064   2.762
30418W        W 2678  35.394  26.753   0.895
30419W        W 2679  44.934  20.117   3.414
30420W        W 2680  41.544  14.261  11.629
30421W        W 2681  12.406  44.378   0.703
30422W        W 2682  15.692   4.474   2.336
30423W        W 2683  23.325   7.931   1.738
30424W        W 2684   1.585  11.540   2.987
30425W        W 2685  22.027  44.084   4.583
30426W        W 2686   9.636  39.847  12.985
30427W        W 2687  34.522  31.424  10.740
30428W        W 2688  13.522   8.747   3.166
30429W        W 2689  12.202  31.579   0.420
30430W        W 2690  14.597  42.326  11.153
30431W        W 2691   3.907  22.261   0.474
30432W        W 2692  13.839  24.167   1.756
30433W        W 2693   2.898  19.662   3.346
30434W        W 2694  30.634   8.487   4.226
30435W        W 2695   5.207  23.010  11.176
30436W        W 2696  21.494  10.150  10.607
30437W        W 2697  26.586   5.794  11.695
30438W        W 2698   0.784  14.439  14.235
30439W        W 2699  37.437  44.277  12.879
30440W        W 2700   9.974   4.958  14.761
30441W        W 2701  41.240  26.571   3.591
30442W        W 2702  34.341   6.836  10.398
30443W        W 2703  33.620   5.733  13.432
30444W        W 2704  23.109  25.023   5.090
30445W        W 2705   0.407  15.744  13.512
30446W        W 2706  13.779  41.565   0.179
30447W        W 2707  40.401  41.981   4.362
30448W        W 2708   4.212  30.877   4.313
30449W        W 2709   0.880  39.418  10.413
30450W        W 2710  38.845   1.222   1.848
30451W        W 2711  41.229  32.863  13.053
30452W        W 2712  40.442  24.450  11.959
30453W        W 2713   9.849   8.386   4.265
30454W        W 2714  31.769  38.557   1.964
30455W        W 2715  13.459  38.529   3.671
30456W        W 2716  40.255  30.856   4.131
30457W        W 2717  33.426  38.547   4.093
30458W        W 2718  27.264  19.683  13.930
30459W        W 2719   1.006   0.290   3.685
30460W        W 2720   9.528  24.884  14.369
30461W        W 2721   2.527   1.026  14.760
30462W        W 2722  30.270  30.585  13.135
30463W        W 2723  42.847  40.411  13.513
30464W        W 2724   3.469   9.815   3.815
30465W        W 2725  33.680  31.964   3.677
30466W        W 2726  43.114  39.402  12.914
30467W        W 2727  33.476  11.118   0.011
30468W        W 2728  25.314  33.519  11.410
30469W        W 2729  27.119   5.226  10.484
30470W        W 2730   0.447  44.309   0.187
30471W        W 2731   0.217  33.207   3.214
30472W        W 2732  21.390  41.549  11.990
30473W        W 2733  31.128   9.382  13.454
30474W        W 2734  21.698  21.214  13.066
30475W        W 2735   1.370  18.413   4.270
30476W        W 2736  29.420   9.183  10.433
30477W        W 2737  22.118  21.225  13.807
30478W        W 2738  17.675  20.747   4.564
30479W        W 2739  15.105  14.218  14.077
30480W        W 2740  10.161   1.992   4.590
30481W        W 2741  29.418  32.681   1.785
30482W        W 2742   3.695  41.225   0.969
30483W        W 2743  20.745   1.481  11.621
30484W        W 2744  26.496  13.466  14.349
30485W        W 2745  38.156   0.677  12.489
30486W        W 2746  31.930   4.240   1.539
30487W        W 2747   1.734  23.221  14.516
30488W        W 2748  39.016  10.193  13.425
30489W        W 2749  14.183  37.075   0.748
30490W        W 2750  42.043   7.110  10.345
30491W        W 2751  38.639  10.908   4.630
30492W        W 2752  26.713   4.006  12.560
30493W        W 2753  34.826  44.794  11.017
30494W        W 2754  40.985  34.336  13.885
30495W        W 2755  23.598   8.699   1.453
30496W        W 2756  35.366  44.479   2.845
30497W        W 2757  35.266   3.467   3.801
30498W        W 2758   9.911   2.515  14.616
30499W        W 2759  36.273  42.371   1.954
30500W        W 2760  20.778  27.128   0.964
30501W        W 2761  16.852  40.763  14.812
30502W        W 2762  28.599  34.989  12.035
30503W        W 2763  40.589  11.856  11.627
30504W        W 2764  37.490  33.125  12.537
30505W        W 2765   0.393  26.486  13.209
30506W        W 2766  10.770  28.163  14.775
30507W        W 2767  22.279  25.228  11.023
30508W        W 2768  31.345   8.438  13.199
30509W        W 2769  37.144   7.415  10.709
30510W        W 2770  35.449   3.166   3.192
30511W        W 2771   2.304  41.584   4.376
30512W        W 2772   3.047  29.278  14.481
30513W        W 2773  40.555  20.094  14.969
30514W        W 2774  13.963  32.555   3.724
30515W        W 2775  44.390  44.091   3.530
30516W        W 2776  41.229  31.967   0.248
30517W        W 2777   7.499  40.903   4.893
30518W        W 2778  29.453  16.706   0.252
30519W        W 2779   3.649  26.162  11.238
30520W        W 2780   8.240  40.917  11.138
30521W        W 2781  13.046  27.119  11.892
30522W        W 2782  42.590   3.360  13.901
30523W        W 2783  39.617  36.952   1.665
30524W        W 2784   7.734   3.480   2.725
30525W        W 2785  40.783  38.502  12.931
30526W        W 2786  29.945   3.218  14.358
30527W        W 2787  29.355  44.002   3.239
30528W        W 2788   8.636  29.013   0.747
30529W        W 2789   3.643  26.635   9.924
30530W        W 2790   4.629  13.715  12.547
30531W        W 2791  13.570  39.814  14.691
30532W        W 2792  28.660  34.631   2.329
30533W        W 2793  14.580  34.944   1.801
30534W        W 2794   4.218  43.542   1.658
30535W        W 2795  32.967  23.066   1.230
30536W        W 2796  21.762  22.592   0.800
30537W        W 2797  10.628  19.851   1.111
30538W        W 2798  25.307  17.073   2.302
30539W        W 2799  25.673  23.123   1.428
30540W        W 2800   6.420  13.652   1.881
30541W        W 2801   1.677   9.796  12.009
30542W        W 2802   7.393  14.722   4.655
30543W        W 2803  13.591  13.205   1.189
30544W        W 2804   7.669  38.745   0.301
30545W        W 2805   6.963  11.657   3.561
30546W        W 2806  35.831   5.994  11.473
30547W        W 2807  31.954  38.533  10.644
30548W        W 2808  13.116  21.228  12.896
30549W        W 2809   9.755   0.900   0.957
30550W        W 2810  42.493  15.073  14.455
30551W        W 2811  14.705  27.376   1.025
30552W        W 2812  36.114  22.548   1.335
30553W        W 2813  13.600  25.940   2.791
30554W        W 2814  11.373   7.707  14.282
30555W        W 2815  43.034   4.523   4.437
30556W        W 2816  44.415  17.143  14.463
30557W        W 2817  33.200  26.433  13.622
30558W        W 2818  30.607  30.020   1.226
30559W        W 2819  26.292  35.808   2.262
30560W        W 2820  25.132  11.342  11.167
30561W        W 2821  32.999  22.766   1.633
30562W        W 2822  42.287  38.770  12.184
30563W        W 2823  18.792   2.295   4.534
30564W        W 2824  10.824  27.522   3.615
30565W        W 2825  28.069  18.528  10.973
30566W        W 2826  18.191   5.892   3.707
30567W        W 2827  30.955  37.092  14.349
30568W        W 2828  13.718   2.376  14.925
30569W        W 2829  22.965  13.319   2.231
30570W        W 2830   1.683   9.746   4.721
30571W        W 2831   4.440  25.580  12.624
30572W        W 2832  23.244  40.918  11.361
30573W        W 2833  23.752   8.582  10.135
30574W        W 2834  29.156  29.317  13.631
30575W        W 2835  31.219  39.089  13.516
30576W        W 2836  43.887  20.291   1.385
30577W        W 2837  16.158  27.577   0.712
30578W        W 2838  38.547   1.805   0.891
30579W        W 2839  19.004  28.159   3.808
30580W        W 2840  14.283  13.192  13.510
30581W        W 2841  43.898  20.070   2.842
30582W        W 2842  28.899  41.990  11.247
30583W        W 2843  15.166   4.635   2.410
30584W        W 2844  37.878   3.480   3.690
30585W        W 2845  11.940  44.889  12.603
30586W        W 2846   6.404   1.654   0.358
30587W        W 2847  29.580  17.131  12.940
30588W        W 2848  10.815  20.293  11.036
30589W        W 2849  26.038   6.959   0.087
30590W        W 2850   0.889   2.343  11.927
30591W        W 2851  14.565  33.652   4.606
30592W        W 2852  28.299  22.244   2.828
30593W        W 2853  32.546   3.363  12.547
30594W        W 2854  33.863  14.747   0.557
30595W        W 2855  25.657  44.272  12.026
30596W        W 2856   7.314  15.039   3.687
30597W        W 2857  17.576  23.035  13.571
30598W        W 2858  43.694  14.395  14.123
30599W        W 2859  18.965  42.389  12.049
30600W        W 2860  41.023   3.888  11.410
30601W        W 2861  21.731  18.721  12.463
30602W        W 2862  20.289  37.309  11.533
30603W        W 2863  32.865  20.606  13.466
30604W        W 2864  23.084  29.640  12.000
30605W        W 2865  19.154  14.103  11.128
30606W        W 2866  37.149   8.233   4.427
30607W        W 2867  27.226  39.398  14.458
30608W        W 2868  19.492  35.532  12.687
30609W        W 2869  39.465   1.441  13.354
30610W        W 2870   3.391  34.980  13.536
30611W        W 2871   0.048   7.283   4.122
30612W        W 2872   4.463   2.905  14.364
30613W        W 2873  12.104  34.466   0.786
30614W        W 2874  23.217  11.734   4.153
30615W        W 2875  21.986  37.574  12.928
30616W        W 2876   4.400  40.207  13.865
30617W        W 2877  31.735  28.766  14.282
30618W        W 2878  14.861  36.447  10.575
30619W        W 2879  29.164  29.424   5.060
30620W        W 2880   3.143  19.533   0.471
30621W        W 2881   9.915   5.017   5.074
30622W        W 2882  19.455  11.339   0.049
30623W        W 2883  16.324  20.300   3.717
30624W        W 2884  34.904   9.161  11.563
30625W        W 2885  24.281  41.204  14.509
30626W        W 2886  43.810   9.286  11.195
30627W        W 2887  44.232   5.426  11.992
30628W        W 2888  18.556  20.249  10.319
30629W        W 2889  20.659   5.999  13.498
30630W        W 2890  10.153  44.139  12.081
30631W        W 2891  24.614  24.240  10.710
30632W        W 2892  18.513   2.898   2.882
30633W        W 2893  25.977  27.422  10.573
30634W        W 2894  29.148  10.339   2.342
30635W        W 2895  28.665   4.521  12.851
30636W        W 2896  19.239   2.442  14.350
30637W        W 2897   4.451  28.130  14.095
30638W        W 2898  41.463  35.568   1.132
30639W        W 2899  41.470  32.939  11.314
30640W        W 2900  23.992  35.363   3.945
30641W        W 2901  35.685  23.669  11.660
30642W        W 2902  25.265  20.274   0.768
30643W        W 2903  25.527  33.645   0.161
30644W        W 2904   5.089  18.637   4.592
30645W        W 2905   5.354  40.523  12.968
30646W        W 2906  29.615   4.947   1.248
30647W        W 2907  29.087   4.885   0.458
30648W        W 2908   6.888   5.075  10.788
30649W        W 2909  43.186  26.524   2.400
30650W        W 2910   5.922  20.029  14.544
30651W        W 2911  31.414  35.910  10.686
30652W        W 2912   2.911  15.201   1.810
30653W        W 2913  19.536   3.553   4.587
30654W        W 2914   0.285  41.501   0.098
30655W        W 2915  38.564  19.854  11.503
30656W        W 2916  20.981   1.046   4.576
30657W        W 2917  28.138  24.621  13.714
30658W        W 2918  28.603  15.726  12.876
30659W        W 2919  20.099  41.479  14.937
30660W        W 2920  34.417  10.200   2.406
30661W        W 2921  13.325  21.612  13.204
30662W        W 2922  11.571  16.031   4.518
30663W        W 2923   9.961  11.189  11.154
30664W        W 2924   0.701  37.244  12.574
30665W        W 2925  38.336  30.060  11.539
30666W        W 2926  30.182  37.023   1.797
30667W        W 2927  10.897  34.886   0.528
30668W        W 2928  20.855  26.108  14.393
30669W        W 2929  18.217   7.089   4.278
30670W        W 2930   4.970  36.523  10.885
30671W        W 2931  11.321   5.824  11.548
30672W        W 2932  15.637   5.704   0.233
30673W        W 2933  16.581  14.189  14.906
30674W        W 2934   3.738   3.220   3.191
30675W        W 2935  34.591  25.624  13.482
30676W        W 2936  31.565  27.175  11.604
30677W        W 2937  28.740  14.227   3.304
30678W        W 2938   6.223  13.721  13.985
30679W        W 2939  13.036  16.559  12.915
30680W        W 2940  16.385  26.007  12.879
30681W        W 2941  38.101   2.267  12.699
30682W        W 2942  37.186  34.217   2.518
30683W        W 2943  21.622  24.810   4.272
30684W        W 2944  28.085  30.066  13.338
30685W        W 2945  24.089  12.447   2.748
30686W        W 2946  30.698  41.045   2.374
30687W        W 2947  18.319   2.455  12.357
30688W        W 2948  14.221  38.946   4.471
30689W        W 2949  22.121  35.515  14.358
30690W        W 2950  41.524  39.653  10.722
30691W        W 2951  35.598  25.339   2.104
30692W        W 2952  31.250  39.258   4.168
30693W        W 2953  39.100  43.857   1.927
30694W        W 2954   6.654  10.779   0.826
30695W        W 2955  18.290  26.273   1.268
30696W        W 2956  31.904  25.194   2.781
30697W        W 2957  30.644  17.691  13.367
30698W        W 2958  24.241  28.019  11.410
30699W        W 2959  37.760  27.137  13.510
30700W        W 2960   8.431  31.880   2.424
30701W        W 2961  31.114  16.626  10.635
30702W        W 2962  38.094  17.550  13.478
30703W        W 2963  15.560  21.812  11.486
30704W        W 2964  13.193  32.935   3.765
30705W        W 2965   9.288   5.133  14.974
30706W        W 2966  18.697  10.153   1.719
30707W        W 2967  40.456  15.263  10.951
30708W        W 2968  42.258  31.462   3.219
30709W        W 2969  17.233  29.078   0.160
30710W        W 2970   5.847  24.529  13.128
30711W        W 2971  18.750   0.864  14.930
30712W        W 2972  35.984  24.672  13.547
30713W        W 2973  20.271   6.328   4.971
30714W        W 2974  30.601  17.643  14.652
30715W        W 2975  33.006  39.053  14.262
30716W        W 2976  31.119   1.918  13.100
30717W        W 2977  12.368  44.348  13.429
30718W        W 2978  44.833   7.489  10.653
30719W        W 2979   7.209   4.694  10.640
30720W        W 2980  44.511  37.648   3.725
30721W        W 2981  35.197   0.065  10.686
30722W        W 2982  33.401  24.492   1.467
30723W        W 2983   2.018  32.455  14.082
30724W        W 2984  26.559  15.426   0.886
30725W        W 2985  15.737  23.822  13.541
30726W        W 2986  21.178  23.510  14.924
30727W        W 2987   7.233  28.913  13.858
30728W        W 2988  16.130  15.418  11.757
30729W        W 2989   1.897  23.006   2.390
30730W        W 2990  36.394  35.088   3.204
30731W        W 2991  38.356   8.671  13.899
30732W        W 2992  12.863   0.334  14.339
30733W        W 2993  19.496   4.924  12.916
30734W        W 2994  40.534  18.811  11.548
30735W        W 2995  19.319   1.915   0.378
30736W        W 2996   6.874  34.511   2.890
30737W        W 2997   3.917  20.315  14.240
30738W        W 2998  14.079  34.048  11.633
30739W        W 2999  39.575  26.939   5.136
30740W        W 3000  28.238  19.374  11.918
30741W        W 3001   9.114   1.808   4.830
30742W        W 3002  29.608   7.978  11.109
30743W        W 3003  40.447  22.762  14.039
30744W        W 3004  23.588  35.454   2.115
30745W        W 3005  18.851  40.870  12.092
30746W        W 3006  15.521   8.416  11.348
30747W        W 3007   0.253  18.208  14.425
30748W        W 3008  30.672   8.124  14.054
30749W        W 3009  10.176  27.727   0.300
30750W        W 3010  14.807   2.269   2.385
30751W        W 3011   1.363  44.067   2.318
30752W        W 3012  17.172  16.505  10.290
30753W        W 3013  22.740   5.736   2.626
30754W        W 3014  13.289  29.432   2.410
30755W        W 3015   2.142  41.889  14.981
30756W        W 3016  32.032  34.768  10.572
30757W        W 3017  12.106  11.777  14.749
30758W        W 3018  38.065  44.744   4.294
30759W        W 3019  17.695  29.188  11.205
30760W        W 3020  19.823  28.668   2.816
30761W        W 3021   7.252  28.597  11.801
30762W        W 3022  17.053  19.356  11.617
30763W        W 3023  41.814  15.047  11.191
30764W        W 3024  10.736  20.524   2.539
30765W        W 3025  37.975  30.629   2.813
30766W        W 3026  33.360  17.060   0.627
30767W        W 3027   0.399  36.563   3.303
30768W        W 3028  37.722  11.127  13.846
30769W        W 3029  38.826  28.595  12.890
30770W        W 3030  32.130  14.616  14.981
30771W        W 3031  43.813   2.271  14.479
30772W        W 3032   6.161  41.064  13.815
30773W        W 3033   5.219   3.425  13.427
30774W        W 3034  25.487  32.076   4.106
30775W        W 3035   5.785   7.094  12.076
30776W        W 3036  18.659  42.529   2.438
30777W        W 3037  28.373  24.586  10.222
30778W        W 3038  12.446  21.148  10.465
30779W        W 3039  32.988   9.845  13.418
30780W        W 3040  11.107  17.383  14.919
30781W        W 3041  28.729  12.112  14.358
30782W        W 3042   0.018  29.039  12.958
30783W        W 3043  30.784  35.971   4.562
30784W        W 3044  20.442   1.193   4.523
30785W        W 3045   1.325  40.533  13.006
30786W        W 3046   9.353   4.360   3.604
30787W        W 3047   6.947  27.541   1.134
30788W        W 3048   4.613  15.338  10.195
30789W        W 3049  41.885   2.799   0.081
30790W        W 3050  29.624  27.643  11.260
30791W        W 3051  24.916  38.816   4.099
30792W        W 3052  23.508  18.663   2.488
30793W        W 3053   1.952  31.344  14.331
30794W        W 3054  38.086  37.370  11.090
30795W        W 3055  14.171  26.899  11.352
30796W        W 3056  33.954   2.205  10.661
30797W        W 3057  18.575  34.054   0.257
30798W        W 3058  44.299  38.363   2.611
30799W        W 3059  33.799  12.313   3.982
30800W        W 3060  10.208  33.871   2.313
30801W        W 3061  18.426  20.896  13.532
30802W        W 3062   9.814  42.771  10.385
30803W        W 3063  42.761   0.985  11.913
30804W        W 3064  25.608  11.093  12.039
30805W        W 3065  22.081  35.813   2.271
30806W        W 3066  23.210  31.208  13.071
30807W        W 3067  32.896   2.750   1.737
30808W        W 3068  24.489  40.430   5.407
30809W        W 3069  21.491  26.316   4.141
30810W        W 3070   9.188  29.516  14.273
30811W        W 3071  29.418  17.595  13.121
30812W        W 3072   6.455  11.150  12.600
30813W        W 3073  33.652  23.016   3.638
30814W        W 3074  41.049  40.947   4.639
30815W        W 3075   6.867  13.493  12.898
30816W        W 3076  10.883  13.826   2.401
30817W        W 3077   3.342  14.160  12.568
30818W        W 3078  39.212  10.231  14.506
30819W        W 3079  39.812  43.822   2.828
30820W        W 3080  27.016  13.191   4.907
30821W        W 3081  31.709  32.533  14.071
30822W        W 3082   8.860   2.228   4.643
30823W        W 3083  42.926  29.823   2.367
30824W        W 3084  27.569  41.914   5.306
30825W        W 3085  27.025  15.318  14.969
30826W        W 3086   6.137  27.498  14.013
30827W        W 3087  25.629  17.620  13.381
30828W        W 3088  11.292  24.227   3.241
30829W        W 3089  12.543   6.253  11.009
30830W        W 3090   2.256   8.498   4.654
30831W        W 3091  33.639  31.207   1.676
30832W        W 3092   6.135  27.616   1.767
30833W        W 3093   7.955   2.184   2.372
30834W        W 3094  20.998  41.315  13.500
30835W        W 3095  34.993  36.687   0.826
30836W        W 3096  29.040  22.551   0.562
30837W        W 3097   7.751  18.840  13.189
30838W        W 3098  37.547  10.662   3.861
30839W        W 3099  42.537   5.877  14.018
30840W        W 3100  27.087  17.825  13.485
30841W        W 3101  39.339  35.174  12.636
30842W        W 3102   4.874  43.300   3.801
30843W        W 3103   3.020  15.269   3.456
30844W        W 3104  33.133  27.939   2.222
30845W        W 3105   0.293  44.534   4.671
30846W        W 3106   0.912   2.809  11.126
30847W        W 3107  30.738  40.576   0.338
30848W        W 3108   8.596  44.307  12.478
30849W        W 3109  37.957   2.405  14.034
30850W        W 3110  41.374  29.449   3.223
30851W        W 3111  35.192  15.821   4.778
30852W        W 3112   1.836  34.395   4.534
30853W        W 3113   8.762  32.075  10.556
30854W        W 3114  12.843  41.850  13.968
30855W        W 3115  44.578   9.463  14.826
30856W        W 3116  29.809  34.993  12.977
30857W        W 3117  11.822  33.404  13.935
30858W        W 3118  39.610   8.151  12.794
30859W        W 3119   4.678  35.249   0.717
30860W        W 3120  17.682   6.781   3.848
30861W        W 3121  28.912  40.730   2.260
30862W        W 3122  36.615  36.945   2.861
30863W        W 3123   0.840  28.477   3.657
30864W        W 3124  23.495  10.252   3.188
30865W        W 3125   4.694  20.225   5.075
30866W        W 3126  26.611  42.141  11.133
30867W        W 3127  38.649   2.144   1.759
30868W        W 3128  23.985  24.684  10.681
30869W        W 3129  27.710   7.307  12.036
30870W        W 3130   1.972  31.378  11.462
30871W        W 3131  13.151  42.900  11.216
30872W        W 3132  21.278   3.436  13.448
30873W        W 3133  42.215  27.515  13.977
30874W        W 3134  27.512  33.347  11.049
30875W        W 3135  10.920  38.105   1.419
30876W        W 3136  40.459  17.297   4.286
30877W        W 3137  13.393  12.799   2.191
30878W        W 3138   9.255  21.128   3.750
30879W        W 3139  29.080  33.351  13.255
30880W        W 3140  28.511  29.465  10.352
30881W        W 3141  16.208  17.140  10.552
30882W        W 3142  17.850  30.937  10.631
30883W        W 3143  15.520  21.061   4.072
30884W        W 3144   8.722  38.304  12.061
30885W        W 3145  23.749  32.710  14.629
30886W        W 3146  21.202  42.188   5.138
30887W        W 3147   6.225   6.806   3.530
30888W        W 3148  13.509  18.077   5.015
30889W        W 3149  27.644  14.793  13.646
30890W        W 3150  15.719  27.294  10.055
30891W        W 3151   5.693  24.234   1.781
30892W        W 3152  35.858   1.390  12.597
30893W        W 3153   5.829  21.775   3.540
30894W        W 3154   2.849  18.157   3.309
30895W        W 3155  24.486  41.943   3.702
30896W        W 3156  20.441   2.479   0.825
30897W        W 3157   3.455  29.908  13.952
30898W        W 3158  24.353  23.451  11.620
30899W        W 3159  43.479  19.256  12.260
30900W        W 3160  41.358  16.120   1.763
30901W        W 3161  17.459  18.202  14.862
30902W        W 3162  26.959  24.205  14.053
30903W        W 3163  29.432  25.216  12.432
30904W        W 3164   6.867  40.392   2.775
30905W        W 3165  21.757  16.586   9.875
30906W        W 3166   0.887  25.766  13.564
30907W        W 3167  14.498   6.407   3.709
30908W        W 3168  17.756  17.325  13.324
30909W        W 3169  21.806  22.248   2.549
30910W        W 3170  22.221   6.171   3.275
30911W        W 3171  11.430  20.135   2.733
30912W        W 3172  23.470   5.104  12.480
30913W        W 3173  21.574   2.366   2.684
30914W        W 3174  11.598  31.944   0.268
30915W        W 3175  12.839  14.834  14.573
30916W        W 3176  17.142   2.224   1.298
30917W        W 3177  11.632  22.500  13.320
30918W        W 3178  36.220  30.480  14.951
30919W        W 3179   1.099  33.609   2.013
30920W        W 3180   3.653  15.220   4.120
30921W        W 3181  32.527  12.366  14.049
30922W        W 3182  11.609  36.560  11.632
30923W        W 3183  10.731  39.825   0.237
30924W        W 3184   8.766  34.440  11.550
30925W        W 3185  30.767  17.914  10.353
30926W        W 3186   3.847  36.125  14.265
30927W        W 3187  41.420  40.048  11.427
30928W        W 3188   0.252   6.004  10.400
30929W        W 3189   1.378   2.361  12.253
30930W        W 3190   0.931  19.675   4.551
30931W        W 3191  14.755  15.027  14.360
30932W        W 3192  12.223  21.558   3.609
30933W        W 3193  24.873  18.251   3.303
30934W        W 3194   5.422  36.106   4.241
30935W        W 3195   9.275  41.981   4.861
30936W        W 3196   7.686  41.898   0.803
30937W        W 3197  29.570  31.810   5.438
30938W        W 3198   8.823  21.431   4.447
30939W        W 3199   2.324  28.572   0.542
30940W        W 3200  42.379  43.380   3.686
30941W        W 3201  32.460  27.978  14.411
30942W        W 3202   8.841  13.784  12.033
30943W        W 3203   8.285  11.087   2.692
30944W        W 3204  23.140  43.695   4.156
30945W        W 3205   8.298   6.624   3.214
30946W        W 3206  22.817  18.786   9.851
30947W        W 3207   6.700  10.313   2.353
30948W        W 3208  25.483  43.072   3.792
30949W        W 3209  44.345   0.874  10.163
30950W        W 3210   5.824  29.538   2.603
30951W        W 3211   8.287  32.437   4.161
30952W        W 3212   1.600  41.880  14.978
30953W        W 3213  35.576   3.731   2.340
30954W        W 3214  20.001   1.413  11.383
30955W        W 3215  39.421  21.455   0.445
30956W        W 3216  13.921  33.404   1.239
30957W        W 3217  25.627  39.700   5.286
30958W        W 3218  21.880  20.154   0.985
30959W        W 3219  20.773  31.447   4.528
30960W        W 3220  44.085  32.155   0.417
30961W        W 3221  33.667  37.080   4.141
30962W        W 3222  36.428   0.514   2.360
30963W        W 3223  34.379  23.353  14.079
30964W        W 3224  16.649   8.712  12.195
30965W        W 3225   0.263  10.246  12.333
30966W        W 3226   9.485   3.011  10.512
30967W        W 3227  33.678  17.699   3.741
30968W        W 3228  33.669  42.950   4.290
30969W        W 3229  29.679   1.350  13.509
30970W        W 3230  34.158  32.473   1.263
30971W        W 3231  19.599  43.377  14.540
30972W        W 3232  37.148  35.539  10.997
30973W        W 3233  37.524  12.582   2.640
30974W        W 3234   2.404  38.353  13.737
30975W        W 3235  16.046  32.072  12.501
30976W        W 3236  35.403  18.186  10.637
30977W        W 3237  44.876  18.314  12.123
30978W        W 3238  30.563  31.928  12.904
30979W        W 3239  15.792  12.259  10.768
30980W        W 3240  21.393   5.674   3.673
30981W        W 3241  35.503   7.597  14.902
30982W        W 3242  12.843  21.562   2.047
30983W        W 3243  42.007  30.323   1.662
30984W        W 3244  30.653  26.512   2.710
30985W        W 3245  32.398   7.939  14.292
30986W        W 3246  31.299  21.715   4.832
30987W        W 3247  34.407  18.866   4.644
30988W        W 3248  39.817   9.630  14.457
30989W        W 3249  40.339  30.404   0.398
30990W        W 3250  27.008  40.851  14.994
30991W        W 3251   7.975  18.126   2.864
30992W        W 3252  30.551   1.748  14.762
30993W        W 3253  29.731  40.778  14.375
30994W        W 3254  39.068  40.246  10.300
30995W        W 3255  32.995  39.527  14.550
30996W        W 3256  38.951   7.519   3.275
30997W        W 3257  24.020  42.512  12.435
30998W        W 3258  44.693   4.363  11.539
30999W        W 3259  40.820  35.314   1.880
31000W        W 3260  29.071  27.955  13.752
31001W        W 3261  15.149  24.433   0.928
31002W        W 3262   7.477  26.648  12.716
31003W        W 3263  18.581  32.043  14.262
31004W        W 3264  42.569  17.317   0.403
31005W        W 3265  39.997  19.629   3.341
31006W        W 3266  25.467  23.696  12.698
31007W        W 3267  35.150  39.843   3.622
31008W        W 3268  43.895  16.120   2.043
31009W        W 3269  16.500  15.895  10.202
31010W        W 3270  36.860  14.857   2.582
31011W        W 3271  15.614  39.603  12.877
31012W        W 3272   4.720  40.064  14.801
31013W        W 3273   1.672  33.438   0.414
31014W        W 3274  23.198  42.493   0.488
31015W        W 3275  27.284  27.551   0.343
31016W        W 3276  34.133  19.351   0.341
31017W        W 3277   2.431  12.105  10.744
31018W        W 3278  31.446  37.076  13.043
31019W        W 3279  34.753  37.449  12.422
31020W        W 3280  32.409  25.747  11.213
31021W        W 3281  39.557  11.183  12.411
31022W        W 3282  24.758  32.234   2.191
31023W        W 3283  42.543   3.724   2.777
31024W        W 3284  28.939  11.125   0.414
31025W        W 3285  29.043  32.762   4.711
31026W        W 3286   7.654  25.040  14.767
31027W        W 3287  35.990  32.374   1.034
31028W        W 3288  36.352  12.132   2.730
31029W        W 3289   6.099  17.675  13.980
31030W        W 3290  22.038  36.709   4.117
31031W        W 3291  15.284  31.075  12.358
31032W        W 3292  38.439  10.603   3.697
31033W        W 3293  42.017  10.165   1.368
31034W        W 3294  36.715  39.465  13.001
31035W        W 3295  24.691  34.399  14.485
31036W        W 3296  32.614  42.903   5.014
31037W        W 3297  24.058  20.237   2.719
31038W        W 3298  23.010  31.153  14.386
31039W        W 3299  14.845  44.580  11.679
31040W        W 3300  42.106  13.064  13.472
31041W        W 3301  27.117  20.793  14.768
31042W        W 3302  28.686  10.349   4.847
31043W        W 3303  36.682  37.441   4.622
31044W        W 3304   9.835  17.110   0.231
31045W        W 3305  41.581  22.713  11.110
31046W        W 3306  24.142  22.467   0.039
31047W        W 3307   9.353  39.850   1.052
31048W        W 3308   6.150   4.862  11.501
31049W        W 3309   5.186   0.421   3.565
31050W        W 3310  13.080  10.789   1.346
31051W        W 3311  25.705  38.890  12.322
31052W        W 3312  19.611  35.856  13.551
31053W        W 3313   2.354  33.624   3.727
31054W        W 3314   3.954  23.127  10.682
31055W        W 3315  37.922  31.131   2.851
31056W        W 3316  20.096   5.750   4.140
31057W        W 3317  39.621  14.233   0.439
31058W        W 3318   5.334   2.974  12.431
31059W        W 3319  20.121  39.803   3.127
31060W        W 3320  40.481  15.098  11.426
31061W        W 3321  10.625  29.658  14.258
31062W        W 3322  21.644  18.582  11.172
31063W        W 3323  12.787   8.935   4.301
31064W        W 3324  29.868  24.934   1.881
31065W        W 3325  42.538  32.536  11.386
31066W        W 3326  30.507  20.608   3.621
31067W        W 3327  12.322  33.828  14.495
31068W        W 3328  15.754   9.982   2.255
31069W        W 3329  27.415  44.038   3.346
31070W        W 3330   7.437  18.151  11.558
31071W        W 3331  23.765   3.733  12.948
31072W        W 3332  44.297  12.724  11.884
31073W        W 3333  29.080  40.870   4.299
31074W        W 3334  41.461  34.072  14.471
31075W        W 3335  22.518  13.216  14.523
31076W        W 3336  13.145  14.805   4.320
31077W        W 3337  23.882   6.165   4.884
31078W        W 3338  21.838  16.448   4.101
31079W        W 3339  43.642  15.410   3.622
31080W        W 3340  27.039  19.657   4.891
31081W        W 3341  21.554   0.244   0.360
31082W        W 3342   1.927  11.322   1.912
31083W        W 3343  36.826   8.881   3.138
31084W        W 3344  29.827  42.475  11.132
31085W        W 3345  30.973  17.927   4.081
31086W        W 3346  37.026  44.248  10.747
31087W        W 3347   0.008  14.101  13.894
31088W        W 3348  17.911   9.348   4.735
31089W        W 3349  44.333   2.340  10.967
31090W        W 3350  13.632  33.221   3.855
31091W        W 3351   3.981  10.885  13.530
31092W        W 3352   6.207  36.078  13.962
31093W        W 3353  34.316  17.129   4.552
31094W        W 3354  13.663  17.427   0.342
31095W        W 3355  19.197  35.300  10.652
31096W        W 3356   1.991   9.154  13.366
31097W        W 3357  44.766  36.828  12.740
31098W        W 3358  14.381  15.534  12.944
31099W        W 3359  31.867  34.412   0.295
31100W        W 3360  20.481  29.582   1.935
31101W        W 3361  15.052   3.328   4.106
31102W        W 3362  29.560   1.382   3.341
31103W        W 3363   2.893   5.834  12.840
31104W        W 3364  16.322  30.361  12.020
31105W        W 3365   4.751   6.720   3.710
31106W        W 3366  11.192  38.508   2.138
31107W        W 3367  20.549  33.933   3.143
31108W        W 3368  24.648  37.457   4.125
31109W        W 3369  20.997  12.161   0.385
31110W        W 3370  16.642   5.494  14.404
31111W        W 3371  22.000  33.247   1.307
31112W        W 3372   5.036  15.151  13.118
31113W        W 3373  42.408  24.240   0.500
31114W        W 3374  33.250  27.937  14.785
31115W        W 3375  32.101  13.758  13.444
31116W        W 3376  26.424  25.505   3.940
31117W        W 3377  26.096  24.749  12.923
31118W        W 3378  30.319   2.807  14.139
31119W        W 3379   6.624  32.947  10.792
31120W        W 3380   3.578  22.199  10.666
31121W        W 3381  16.775  43.012   3.305
31122W        W 3382  35.537  13.336  10.653
31123W        W 3383  14.621   8.065  10.795
31124W        W 3384  13.847  17.903   5.417
31125W        W 3385   2.303   0.181  10.092
31126W        W 3386  11.044   0.555  11.101
31127W        W 3387  14.141   5.216   4.853
31128W        W 3388  18.329  37.892   0.909
31129W        W 3389  29.977   5.410  11.622
31130W        W 3390   1.775  17.010   4.133
31131W        W 3391  39.541  29.103   1.875
31132W        W 3392  20.096  33.855   1.466
31133W        W 3393  21.563  25.434  11.501
31134W        W 3394  29.962   2.994  11.933
31135W        W 3395  19.537  10.465   3.178
31136W        W 3396  37.074  20.991  12.930
31137W        W 3397  38.438  31.423   3.791
31138W        W 3398   9.199   8.699  10.686
31139W        W 3399  30.232   3.849   2.852
31140W        W 3400   4.516  40.564   2.429
31141W        W 3401  39.011   8.350   2.343
31142W        W 3402  32.211  17.771   4.509
31143W        W 3403  25.760  17.403  11.268
31144W        W 3404   2.950  16.801  14.913
31145W        W 3405  36.296   7.457  12.348
31146W        W 3406  33.259   7.906  11.235
31147W        W 3407  42.942  39.476   1.346
31148W        W 3408  35.697  27.904   1.696
31149W        W 3409  36.521  20.889   3.067
31150W        W 3410  19.814  25.451   0.884
31151W        W 3411  10.933  32.348   0.991
31152W        W 3412  11.829  43.892   3.813
31153W        W 3413  22.935   7.975   3.693
31154W        W 3414   3.324   1.479  13.865
31155W        W 3415  36.054  36.572   3.272
31156W        W 3416  40.425  17.612  12.478
31157W        W 3417  17.039  30.933   0.873
31158W        W 3418   8.871  26.597   1.381
31159W        W 3419  42.521   6.175  11.466
31160W        W 3420   7.929  31.613  14.929
31161W        W 3421   9.034  26.264   2.684
31162W        W 3422  17.788  42.223   2.380
31163W        W 3423  36.438  36.526  10.652
31164W        W 3424  14.725  23.591   4.641
31165W        W 3425   5.243  37.014  13.492
31166W        W 3426  43.059  38.932   0.405
31167W        W 3427  25.110  30.480   3.204
31168W        W 3428  34.036   1.654  10.893
31169W        W 3429  10.695  26.942   0.322
31170W        W 3430  12.749   7.923  10.697
31171W        W 3431  11.791  17.316  11.170
31172W        W 3432  37.634   2.424  10.789
31173W        W 3433  11.889  36.903  14.711
31174W        W 3434  31.176  22.304  13.908
31175W        W 3435   5.753   2.178  13.708
31176W        W 3436  44.332  25.606   2.828
31177W        W 3437   9.358  15.092   1.269
31178W        W 3438   3.376  36.285  10.080
31179W        W 3439  31.235  27.103   1.301
31180W        W 3440  30.478  31.833   5.031
31181W        W 3441  17.072  16.794  12.543
31182W        W 3442   4.475  31.156   0.924
31183W        W 3443   3.428  28.977   5.023
31184W        W 3444  13.718  28.115   9.783
31185W        W 3445  41.018  39.264   3.310
31186W        W 3446   8.745  23.160  14.328
31187W        W 3447  44.366  18.212   2.648
31188W        W 3448   2.894  39.541  10.769
31189W        W 3449  41.458  29.958   1.033
31190W        W 3450  30.242   9.622   3.138
31191W        W 3451  16.648   5.928   4.542
31192W        W 3452  35.144  20.135  10.536
31193W        W 3453  20.874  14.167  10.657
31194W        W 3454  38.348  40.592   3.564
31195W        W 3455   1.804   8.456   1.379
31196W        W 3456  29.026  15.465   1.318
31197W        W 3457  26.668  28.685   3.142
31198W        W 3458  41.885  43.215  13.140
31199W        W 3459  11.121   0.441  11.624
31200W        W 3460  11.766  42.850  12.950
31201W        W 3461   8.682  13.916  14.688
31202W        W 3462  30.226   5.270  12.081
31203W        W 3463  15.464  18.642   0.269
31204W        W 3464  43.000  21.746  12.245
31205W        W 3465  25.690  13.436   2.688
31206W        W 3466   9.420   9.746  12.173
31207W        W 3467  14.731  37.520   3.658
31208W        W 3468  23.598  16.132   1.182
31209W        W 3469  10.912  41.424   1.008
31210W        W 3470  32.601   3.304   0.743
31211W        W 3471  12.360  11.549  13.771
31212W        W 3472  36.837  15.139   4.144
31213W        W 3473  25.933  31.653  14.786
31214W        W 3474   7.705  21.969   2.409
31215W        W 3475  32.388  44.822   1.367
31216W        W 3476   8.621  33.137   0.120
31217W        W 3477  30.486  13.053  14.872
31218W        W 3478  38.420  18.573  14.359
31219W        W 3479   4.634  15.318  14.069
31220W        W 3480  44.608  28.259   4.150
31221W        W 3481  35.577   6.721  10.491
31222W        W 3482  37.903  32.860  12.409
31223W        W 3483  21.172  17.124  14.755
31224W        W 3484  33.069  42.268  13.945
31225W        W 3485  21.399  22.501   2.280
31226W        W 3486  25.918   8.232   4.542
31227W        W 3487   4.309  16.991  13.242
31228W        W 3488   2.150  22.830   3.856
31229W        W 3489  18.762  39.909   1.400
31230W        W 3490  42.004  11.352   3.698
31231W        W 3491  18.183   7.623  11.111
31232W        W 3492  37.907  41.066  12.482
31233W        W 3493  43.749  44.762  14.455
31234W        W 3494   7.498  22.244   2.032
31235W        W 3495  18.952  37.915   4.724
31236W        W 3496  26.464  32.011   0.423
31237W        W 3497   5.995  37.789  13.416
31238W        W 3498  28.173  28.694  14.785
31239W        W 3499  30.522  36.578  13.924
31240W        W 3500  27.930  43.398  12.635
31241W        W 3501  41.276   6.148   4.182
31242W        W 3502  32.521  18.731   3.817
31243W        W 3503  16.833  29.560  12.462
31244W        W 3504  27.702  19.238  10.625
31245W        W 3505  34.680  21.734   1.515
31246W        W 3506  17.186  15.594   0.506
31247W        W 3507  34.423  28.276  12.472
31248W        W 3508  32.926   5.015   4.056
31249W        W 3509  26.770  10.669  10.975
31250W        W 3510  18.183  34.207  12.591
31251W        W 3511  10.183  26.985  13.999
31252W        W 3512  15.636  14.385  12.532
31253W        W 3513  26.073  41.117   1.700
31254W        W 3514  27.663  36.146  14.428
31255W        W 3515   9.269  10.259  14.024
31256W        W 3516  30.596  43.161   2.726
31257W        W 3517  43.362  12.083   2.627
31258W        W 3518  32.648  39.733  12.517
31259W        W 3519   4.461  19.159   4.275
31260W        W 3520  17.219  34.523   3.874
31261W        W 3521   2.702  31.664  10.736
31262W        W 3522  41.665  12.314   2.874
31263W        W 3523  22.819  23.681  12.935
31264W        W 3524  37.433  30.861  11.254
31265W        W 3525  26.589  21.997  10.198
31266W        W 3526  44.433   3.371   4.926
31267W        W 3527  36.874  24.873   4.453
31268W        W 3528  39.022   6.409   1.600
31269W        W 3529  30.987  31.128   0.663
31270W        W 3530  38.008   6.782  13.490
31271W        W 3531  40.783   2.300  11.977
31272W        W 3532  23.284  35.920  11.134
31273W        W 3533   2.267  14.690  13.028
31274W        W 3534   9.863  10.775   1.767
31275W        W 3535  17.166  35.103  13.684
31276W        W 3536   3.041  36.437  10.946
31277W        W 3537  13.570   8.724   5.194
31278W        W 3538  23.744  13.241  13.506
31279W        W 3539  33.366   2.943  12.008
31280W        W 3540   8.882  27.272   2.863
31281W        W 3541  34.841  37.954  12.395
31282W        W 3542   0.359  40.274  14.857
31283W        W 3543  26.513  22.609   4.567
31284W        W 3544   5.537  13.882   1.959
31285W        W 3545  41.317  36.450   4.186
31286W        W 3546  32.570  19.585  12.334
31287W        W 3547  10.163   3.940  12.009
31288W        W 3548  28.598   9.073  11.112
31289W        W 3549   2.291  19.247   4.621
31290W        W 3550  40.989   6.194   3.711
31291W        W 3551  42.732  29.130  12.051
31292W        W 3552  32.391  31.976   4.817
31293W        W 3553  17.051  11.664  12.820
31294W        W 3554   4.728  35.726  14.507
31295W        W 3555  11.354  23.692  12.997
31296W        W 3556  41.954  18.185   0.744
31297W        W 3557  31.084   7.355   2.936
31298W        W 3558  36.737   6.811   2.930
31299W        W 3559  15.180  11.973   1.238
31300W        W 3560  17.306  16.053  11.582
31301W        W 3561  12.574  41.394  13.997
31302W        W 3562  21.124   5.001   1.877
31303W        W 3563  41.356  14.303  10.398
31304W        W 3564  36.582  31.073   0.690
31305W        W 3565   2.047  32.624   0.483
31306W        W 3566  43.190  39.065   3.560
31307W        W 3567  24.701  15.777   2.804
31308W        W 3568  32.582  20.214   2.244
31309W        W 3569  12.864  35.873  10.700
31310W        W 3570  11.570  24.012   1.406
31311W        W 3571  10.757  38.533   2.902
31312W        W 3572  41.883   8.367  14.332
31313W        W 3573   9.137  17.306   3.774
31314W        W 3574  40.281  14.278   1.295
31315W        W 3575  34.932  41.388  13.791
31316W        W 3576  34.539  11.451  12.922
31317W        W 3577  23.730  22.671   1.811
31318W        W 3578   3.986  36.596   1.467
31319W        W 3579   5.980  12.741   4.173
31320W        W 3580  31.551  42.570  14.320
31321W        W 3581  41.245  12.118   1.289
31322W        W 3582   3.927  24.152  12.068
31323W        W 3583  30.175  15.402   3.747
31324W        W 3584   7.011  28.383   5.431
31325W        W 3585  39.165  44.673  12.768
31326W        W 3586  14.815  32.508   1.734
31327W        W 3587  13.266   4.361   2.737
31328W        W 3588  14.214  27.956   5.468
31329W        W 3589  20.447  37.401   0.485
31330W        W 3590  31.450  15.370   3.236
31331W        W 3591  13.807  22.855  14.756
31332W        W 3592  17.251  17.504  13.328
31333W        W 3593   9.018  25.059  14.078
31334W        W 3594  38.982  30.965  14.978
31335W        W 3595   4.535   7.202  13.412
31336W        W 3596   2.021  42.486   2.894
31337W        W 3597  34.555  28.728   0.172
31338W        W 3598   7.203  11.114  13.096
31339W        W 3599   2.527  44.568  12.314
31340W        W 3600  20.009  12.441   0.394
31341W        W 3601  27.649  42.896  12.504
31342W        W 3602  36.964  44.113  13.021
31343W        W 3603  13.168  18.786   2.897
31344W        W 3604  13.584   2.935   4.256
31345W        W 3605  41.954  35.656   4.189
31346W        W 3606  29.514  33.329   9.717
31347W        W 3607  32.044  10.906   2.477
31348W        W 3608   6.866   1.850  13.917
31349W        W 3609  19.048  39.740  13.415
31350W        W 3610  20.216  33.074  11.046
31351W        W 3611  15.073  27.557   4.735
31352W        W 3612  44.553   3.917  12.984
31353W        W 3613  16.420  17.716   2.786
31354W        W 3614  24.005   7.761  10.695
31355W        W 3615  39.366   7.843   3.177
31356W        W 3616  27.105  32.166   0.849
31357W        W 3617  34.971  21.761   3.179
31358W        W 3618   3.405  25.656  12.107
31359W        W 3619  19.355   2.315  11.259
31360W        W 3620  32.699  28.252   0.626
31361W        W 3621  10.377  43.715  10.373
31362W        W 3622   1.730  29.923  13.888
31363W        W 3623  43.874  42.492  13.745
31364W        W 3624  15.308  28.096   1.500
31365W        W 3625  10.372  30.017  13.964
31366W        W 3626  39.339  14.252   5.124
31367W        W 3627  24.155  28.390   5.139
31368W        W 3628   4.688   7.978   3.431
31369W        W 3629   8.929  27.824  11.799
31370W        W 3630  18.934  38.859   2.500
31371W        W 3631  27.741   2.650   4.057
31372W        W 3632  42.808   7.682   3.490
31373W        W 3633  19.982  40.809   1.797
31374W        W 3634  11.816   9.899  14.245
31375W        W 3635  32.223  29.461  11.576
31376W        W 3636  37.484  37.601  14.404
31377W        W 3637  32.120   1.775  14.452
31378W        W 3638  41.991   8.712  13.400
31379W        W 3639   8.843  33.126  10.775
31380W        W 3640  12.625   4.048  14.317
31381W        W 3641  44.831  39.283   0.284
31382W        W 3642  41.458  30.234   2.445
31383W        W 3643   2.859  16.256   2.784
31384W        W 3644  10.980   5.146  14.296
31385W        W 3645  41.315   2.699   1.872
31386W        W 3646  11.820  31.685  11.334
31387W        W 3647  44.990  32.518  10.643
31388W        W 3648  22.376  33.648   1.205
31389W        W 3649  38.432  22.967   1.009
31390W        W 3650  28.812   5.617  10.731
31391W        W 3651  16.301  42.587  11.113
31392W        W 3652  13.731   4.399   4.015
31393W        W 3653  35.903  38.997  13.836
31394W        W 3654  44.507  30.397  12.374
31395W        W 3655  28.909  11.384  13.279
31396W        W 3656  38.927   3.757   2.816
31397W        W 3657   5.920  40.563  13.725
31398W        W 3658  13.698   6.922   0.863
31399W        W 3659  22.444  21.557  12.377
31400W        W 3660   3.320  20.822   1.598
31401W        W 3661   3.989   0.832   3.687
31402W        W 3662   2.610  40.474   0.404
31403W        W 3663  44.469  22.531  10.640
31404W        W 3664  28.805  38.422   4.160
31405W        W 3665   0.058  29.901  11.071
31406W        W 3666  39.017  29.481   2.431
31407W        W 3667  10.337  23.183  11.640
31408W        W 3668  27.168   9.740   3.838
31409W        W 3669  41.487  14.326  12.485
31410W        W 3670  38.585  40.862  13.531
31411W        W 3671  39.798  26.155  10.339
31412W        W 3672   5.331  23.902   0.038
31413W        W 3673  12.122  22.195   4.235
31414W        W 3674   0.791  42.503  14.721
31415W        W 3675  10.435   1.801  14.487
31416W        W 3676  29.121   4.261   3.143
31417W        W 3677  33.395  11.374   0.465
31418W        W 3678  44.728  39.980   3.228
31419W        W 3679  27.585  33.394   4.236
31420W        W 3680   2.402  19.764   4.656
31421W        W 3681  16.580  37.478   0.551
31422W        W 3682   9.713  41.484   3.256
31423W        W 3683  28.413   0.396   3.018
31424W        W 3684  19.316  20.245  14.601
31425W        W 3685  36.003  42.896  12.981
31426W        W 3686  39.526  21.816   2.353
31427W        W 3687  30.324   8.300  13.522
31428W        W 3688  17.929  40.966  10.641
31429W        W 3689  22.464  21.632  11.875
31430W        W 3690  39.565  35.979   2.735
31431W        W 3691  42.227  31.479  12.163
31432W        W 3692  42.407  40.416  11.049
31433W        W 3693  28.659  44.801   4.485
31434W        W 3694  32.909   5.739  14.157
31435W        W 3695  42.291   6.667   0.936
31436W        W 3696  30.995  22.770  12.411
31437W        W 3697  34.163  23.123   4.729
31438W        W 3698  20.162  35.849   2.654
31439W        W 3699  17.205  26.861   0.508
31440W        W 3700  28.770  31.954  12.462
31441W        W 3701  43.327  36.603   4.736
31442W        W 3702  31.278  33.664   0.588
31443W        W 3703  31.468  36.638   4.584
31444W        W 3704  12.289  38.891   4.643
31445W        W 3705  17.134   6.787   3.551
31446W        W 3706  30.266  38.079  14.709
31447W        W 3707  28.411  34.119  14.488
31448W        W 3708  37.808  21.741  13.466
31449W        W 3709  34.499   3.186  14.479
31450W        W 3710  19.272  32.572  11.275
31451W        W 3711  41.406  16.046   2.809
31452W        W 3712  14.031  41.748   1.447
31453W        W 3713   5.719  38.327  11.821
31454W        W 3714  34.068  16.157   1.253
31455W        W 3715  38.641   0.415  11.698
31456W        W 3716  26.063  39.924  10.706
31457W        W 3717  38.026  19.067   3.140
31458W        W 3718  40.359  14.766   0.444
31459W        W 3719  25.061  38.507   0.755
31460W        W 3720  42.529  34.229   0.817
31461W        W 3721  22.649  18.158   0.246
31462W        W 3722  24.228  17.176   3.194
31463W        W 3723  20.897  14.911   4.133
31464W        W 3724  43.415  23.993   3.162
31465W        W 3725   5.908  12.132   4.197
31466W        W 3726  14.340   4.899   3.320
31467W        W 3727   7.230  40.168  11.070
31468W        W 3728   6.169  28.547   1.331
31469W        W 3729   8.168  13.158  14.838
31470W        W 3730  14.663  33.410  11.219
31471W        W 3731  26.043  39.127   3.310
31472W        W 3732   3.952  13.856  13.111
31473W        W 3733  24.911   4.692   5.270
31474W        W 3734  43.311  32.114  12.941
31475W        W 3735   8.651  10.722   3.606
31476W        W 3736  20.324  31.207  11.469
31477W        W 3737   1.242  22.676  12.438
31478W        W 3738  20.771  13.120   3.613
31479W        W 3739   7.127  24.740  14.007
31480W        W 3740  16.514  43.386   1.474
31481W        W 3741  26.120   0.303  14.975
31482W        W 3742  16.029  37.914  13.461
31483W        W 3743  23.839   0.102  13.516
31484W        W 3744  25.703  14.348   0.822
31485W        W 3745  17.016  24.526  13.805
31486W        W 3746  23.522  21.314   2.735
31487W        W 3747  28.466  32.991  11.354
31488W        W 3748  10.243  30.133   1.610
31489W        W 3749   6.226  27.490  14.523
31490W        W 3750  38.496  33.434  10.889
31491W        W 3751  14.885  42.376  12.114
31492W        W 3752  40.338  31.604  13.917
31493W        W 3753  26.000  38.774   1.313
31494W        W 3754  26.259  22.337  11.060
31495W        W 3755  16.285  38.961  13.069
31496W        W 3756  43.442  43.992   1.430
31497W        W 3757  40.374  22.518  10.561
31498W        W 3758  19.909  29.119   0.304
31499W        W 3759  40.771  24.908   3.583
31500W        W 3760   4.755  31.399  12.818
31501W        W 3761   4.292  43.029   1.654
31502W        W 3762  12.296  34.395  13.903
31503W        W 3763  35.967  14.698  14.758
31504W        W 3764   7.205  32.090   4.136
31505W        W 3765  41.085  20.011   0.045
31506W        W 3766  31.652  18.517   4.344
31507W        W 3767  11.964  13.620  14.230
31508W        W 3768  17.038  37.050  13.087
31509W        W 3769   1.724  27.167   0.950
31510W        W 3770  28.113  25.112   1.172
31511W        W 3771  11.760  31.049   3.346
31512W        W 3772  28.409   5.364   3.758
31513W        W 3773  37.673   2.439   1.870
31514W        W 3774  11.307   3.240  11.573
31515W        W 3775   1.018  21.312   4.478
31516W        W 3776  29.410   2.897   0.480
31517W        W 3777   2.663  10.193   1.529
31518W        W 3778  33.498   6.293   2.767
31519W        W 3779  11.288   0.009  11.922
31520W        W 3780  24.623   5.750   4.355
31521W        W 3781  18.189  11.955  13.914
31522W        W 3782  33.975  23.977  14.493
31523W        W 3783   7.412   5.761  12.885
31524W        W 3784   9.239  14.921   2.390
31525W        W 3785   8.072  12.948  11.144
31526W        W 3786  38.348   9.806   1.464
31527W        W 3787  14.246   3.158  13.839
31528W        W 3788  14.271   1.070   2.804
31529W        W 3789   2.329  32.329   0.870
31530W        W 3790  27.218  30.203  14.730
31531W        W 3791  25.432  20.812  14.821
31532W        W 3792  32.358   2.144  12.142
31533W        W 3793  31.322  12.634  13.637
31534W        W 3794  10.729   0.001  14.206
31535W        W 3795  21.018   0.021  11.542
31536W        W 3796  21.004  44.987   0.959
31537W        W 3797  29.502  19.462  14.022
31538W        W 3798  33.107  40.485   2.193
31539W        W 3799  10.855  31.871   0.795
31540W        W 3800  25.160   0.450   3.099
31541W        W 3801  16.869  31.458   0.569
31542W        W 3802  15.037  38.529   4.887
31543W        W 3803  35.331  35.904  13.876
31544W        W 3804  23.335  16.766  14.378
31545W        W 3805   7.313  43.443  10.310
31546W        W 3806  14.408  34.058  10.625
31547W        W 3807  18.555   0.729   3.392
31548W        W 3808  25.875   8.198  12.931
31549W        W 3809  18.020   7.243   0.856
31550W        W 3810  13.436   4.413  11.549
31551W        W 3811  44.617  22.125   1.400
31552W        W 3812  39.010  40.505  13.845
31553W        W 3813  20.108  24.214  13.388
31554W        W 3814   9.203  39.015   3.625
31555W        W 3815  37.211  15.094   1.017
31556W        W 3816  40.956  17.606  12.447
31557W        W 3817   2.221  43.300   2.315
31558W        W 3818  42.987  28.054   1.025
31559W        W 3819  10.618  24.414  13.719
31560W        W 3820  16.218  22.161   4.424
31561W        W 3821   5.527   2.280   2.725
31562W        W 3822  13.151  31.119   0.940
31563W        W 3823  12.698  21.552   0.558
31564W        W 3824  35.480   0.105   4.502
31565W        W 3825   2.270   5.456   2.382
31566W        W 3826  23.549  35.387   0.362
31567W        W 3827   0.780  30.364  14.876
31568W        W 3828  13.054  40.984   0.177
31569W        W 3829  25.471  19.841  14.242
31570W        W 3830  11.548  11.660   4.556
31571W        W 3831  20.413  10.487   5.205
31572W        W 3832  42.698   7.396  13.132
31573W        W 3833  30.288  26.429   4.540
31574W        W 3834  35.095  11.420  13.966
31575W        W 3835  30.486   3.424   3.214
31576W        W 3836  12.138   6.178   4.165
31577W        W 3837  38.826   3.093   4.260
31578W        W 3838  12.080   6.269  11.248
31579W        W 3839  13.812  44.008  12.623
31580W        W 3840  36.152  36.503   0.291
31581W        W 3841  14.699  26.219  11.947
31582W        W 3842   8.010  13.421  11.501
31583W        W 3843   8.623  42.450   2.251
31584W        W 3844  38.126  10.340   0.879
31585W        W 3845  14.177  42.845  12.135
31586W        W 3846   9.812  24.996   2.323
31587W        W 3847  38.949  19.885   3.847
31588W        W 3848  37.249  29.044   2.133
31589W        W 3849  32.358   7.851   3.030
31590W        W 3850   3.223  10.746  13.958
31591W        W 3851   4.183  22.164  11.571
31592W        W 3852   1.090  41.924  14.983
31593W        W 3853  33.382  41.437  10.839
31594W        W 3854  24.536  11.341   1.463
31595W        W 3855  37.306  44.433   0.850
31596W        W 3856  40.992  25.587  14.259
31597W        W 3857  37.320  44.479  11.523
31598W        W 3858  19.072  29.921   2.701
31599W        W 3859  31.456  25.265  13.575
31600W        W 3860   4.711  36.852   4.722
31601W        W 3861  12.367  37.727   3.096
31602W        W 3862  25.586  34.956   3.852
31603W        W 3863  31.885  36.357  12.804
31604W        W 3864   4.294  27.421   4.482
31605W        W 3865   2.956  34.937  11.660
31606W        W 3866  33.069  41.721   4.227
31607W        W 3867   0.020  39.352  13.835
31608W        W 3868  44.648  15.500   2.497
31609W        W 3869  28.417  44.716  12.443
31610W        W 3870  26.568   5.368  10.528
31611W        W 3871  43.848  26.103  14.951
31612W        W 3872  25.461  29.485   0.028
31613W        W 3873  38.446  13.113   0.890
31614W        W 3874   2.403  11.685   2.342
31615W        W 3875  43.727  39.478  11.234
31616W        W 3876  32.152  18.951   4.991
31617W        W 3877  24.230   8.245  13.471
31618W        W 3878  37.306  15.051   0.017
31619W        W 3879  17.517  14.823  11.939
31620W        W 3880  42.890  15.168  10.388
31621W        W 3881  43.888   4.403  10.361
31622W        W 3882   0.134   9.534   3.283
31623W        W 3883  44.684  44.287  13.848
31624W        W 3884  27.666  44.785   3.696
31625W        W 3885  23.676  32.580  10.892
31626W        W 3886  23.085   6.320   2.784
31627W        W 3887  28.337  33.964   1.244
31628W        W 3888  12.737  44.571  11.078
31629W        W 3889   0.370  37.941  10.912
31630W        W 3890  20.377  21.615  14.208
31631W        W 3891  26.998  15.585   3.811
31632W        W 3892  32.184  16.583  10.675
31633W        W 3893  21.886  30.061  11.137
31634W        W 3894  16.168  12.553   0.736
31635W        W 3895  21.756   3.195   1.857
31636W        W 3896  11.635  19.194  12.871
31637W        W 3897  19.123  11.604  12.953
31638W        W 3898  23.746  38.407  12.879
31639W        W 3899  34.534  24.084  11.111
31640W        W 3900  16.080   4.791  14.008
31641W        W 3901   3.192  10.336  10.305
31642W        W 3902  26.036   4.279   3.322
31643W        W 3903  37.813  44.410  11.310
31644W        W 3904  15.117  27.903  13.982
31645W        W 3905  22.621   7.468  13.227
31646W        W 3906  12.766  23.968  11.033
31647W        W 3907  25.241  19.721  10.666
31648W        W 3908  22.553  10.238  12.428
31649W        W 3909  15.347  38.131   4.607
31650W        W 3910  11.216  35.268   3.433
31651W        W 3911  43.000   8.561  12.562
31652W        W 3912   6.923  21.640   4.435
31653W        W 3913  25.194  16.732  14.542
31654W        W 3914  31.495  38.973   2.786
31655W        W 3915  20.050  38.782  12.950
31656W        W 3916  19.162   4.988  14.889
31657W        W 3917  40.303  35.811   1.453
31658W        W 3918  11.192  27.662   1.414
31659W        W 3919   2.847  43.826  12.494
31660W        W 3920  21.412  19.069   4.520
31661W        W 3921  20.838  38.497  13.005
31662W        W 3922  20.943   2.251   1.451
31663W        W 3923  12.615   9.875  10.613
31664W        W 3924  28.056  41.297  12.053
31665W        W 3925  11.167  17.111  14.444
31666W        W 3926  27.087   0.705  14.418
31667W        W 3927   1.401  41.058   0.376
31668W        W 3928   7.654   2.592   4.528
31669W        W 3929  13.118  25.243   5.064
31670W        W 3930  22.767  33.487   3.834
31671W        W 3931  42.370  12.577  13.234
31672W        W 3932  31.812  28.775  11.131
31673W        W 3933  38.395  26.038   1.398
31674W        W 3934  40.865   9.928  13.289
31675W        W 3935  37.579  19.679  12.895
31676W        W 3936  13.874  30.701   0.215
31677W        W 3937  10.250  19.000  12.693
31678W        W 3938  12.895   6.129  13.058
31679W        W 3939   9.359   3.958   0.249
31680W        W 3940   6.602   1.391   1.673
31681W        W 3941   2.436   7.953  11.949
31682W        W 3942   8.280  29.552   1.309
31683W        W 3943  29.373  42.352   1.381
31684W        W 3944  18.488  14.741   0.447
31685W        W 3945  16.370  20.479  10.664
31686W        W 3946  19.066   9.376   0.688
31687W        W 3947  25.964  11.377   4.186
31688W        W 3948  23.552  31.393   0.003
31689W        W 3949  31.047   9.157  11.329
31690W        W 3950  33.626  22.271   4.774
31691W        W 3951  13.144   2.224  14.212
31692W        W 3952  36.744  19.564   5.764
31693W        W 3953  27.381  21.724   4.097
31694W        W 3954  16.137  18.233   2.801
31695W        W 3955  27.478  21.076  14.526
31696W        W 3956   6.379   3.900  13.484
31697W        W 3957  37.807  30.471   0.928
31698W        W 3958  11.637  26.836  12.807
31699W        W 3959  22.214  25.896   4.617
31700W        W 3960  35.264  15.593  12.651
31701W        W 3961   2.966  35.050   1.756
31702W        W 3962  38.391  20.375  14.928
31703W        W 3963  42.455  31.273   1.858
31704W        W 3964  34.144  19.309  10.394
31705W        W 3965  34.353   9.012  13.486
31706W        W 3966  11.261   5.594   0.010
31707W        W 3967  28.863  19.192  11.159
31708W        W 3968  17.803   2.009   1.366
31709W        W 3969  13.505  11.234  10.931
31710W        W 3970  42.751  17.191  14.911
31711W        W 3971   3.940  33.582   2.481
31712W        W 3972  25.240  11.908   3.177
31713W        W 3973   1.707  20.821   0.349
31714W        W 3974   2.391   5.347  12.597
31715W        W 3975  36.977  36.923   3.717
31716W        W 3976  31.490   4.511  10.460
31717W        W 3977  27.214  39.326   2.830
31718W        W 3978  41.568  32.830   0.588
31719W        W 3979   3.099  10.438   1.334
31720W        W 3980   7.681  23.715  12.057
31721W        W 3981  15.399  41.002   2.687
31722W        W 3982  37.336   3.552   0.473
31723W        W 3983  32.313  41.274  11.650
31724W        W 3984  15.622  25.276   2.938
31725W        W 3985   4.146  12.839   3.164
31726W        W 3986   1.510   0.995   3.177
31727W        W 3987  42.273   5.256  12.400
31728W        W 3988  16.018  14.615   3.107
31729W        W 3989  12.867   2.518  11.093
31730W        W 3990   7.746  11.598   3.198
31731W        W 3991  14.285  13.860   1.707
31732W        W 3992  23.557  17.615   4.841
31733W        W 3993  42.480   6.982  11.079
31734W        W 3994  17.331   7.277  12.457
31735W        W 3995  24.619   3.918   4.097
31736W        W 3996  43.733  21.658   1.088
31737W        W 3997  11.947  33.947  10.975
31738W        W 3998  24.982  21.035   2.321
31739W        W 3999  20.263   2.682   0.350
31740W        W 4000  25.493  17.606  10.842
31741W        W 4001  10.315  14.616  14.902
31742W        W 4002  13.958   0.254   0.082
31743W        W 4003  20.698  35.289   2.278
31744W        W 4004  31.012  11.296  12.848
31745W        W 4005  11.118   6.600   4.185
31746W        W 4006   5.216   6.794  12.653
31747W        W 4007  43.042  37.096  13.420
31748W        W 4008  26.423  40.809  12.819
31749W        W 4009  44.463  35.803   3.684
31750W        W 4010  35.321  26.061  13.087
31751W        W 4011  11.312  28.069   2.331
31752W        W 4012  29.420  14.628   2.756
31753W        W 4013  33.640  22.480   1.433
31754W        W 4014  36.920  32.359  11.334
31755W        W 4015  20.434  38.170   3.149
31756W        W 4016  11.428  30.154   5.584
31757W        W 4017  42.502   6.444   2.794
31758W        W 4018   7.331  22.647   5.011
31759W        W 4019  17.591  32.492  13.042
31760W        W 4020  44.435  27.143   2.499
31761W        W 4021   8.800  41.761   4.706
31762W        W 4022  40.164  25.681  14.684
31763W        W 4023  29.902  42.876  12.930
31764W        W 4024   4.948  26.630   3.055
31765W        W 4025   4.794  31.360   3.686
31766W        W 4026  38.895  26.193   3.936
31767W        W 4027  29.879  39.453   2.054
31768W        W 4028   8.789  11.072   0.384
31769W        W 4029  12.553  38.871  12.304
31770W        W 4030  29.043  10.305  14.792
31771W        W 4031  27.780  27.177  13.972
31772W        W 4032  22.628   5.799   4.593
31773W        W 4033   4.951  11.100   2.163
31774W        W 4034  38.837  24.497  11.406
31775W        W 4035  30.182  31.666   3.808
31776W        W 4036  28.830  17.114  11.914
31777W        W 4037   7.144  16.659   2.668
31778W        W 4038  20.320   4.685   2.088
31779W        W 4039  21.108   4.281  12.112
31780W        W 4040  14.324  20.214   4.653
31781W        W 4041   3.447  43.875  14.805
31782W        W 4042  39.540  35.582   0.741
31783W        W 4043  24.038  43.229   4.069
31784W        W 4044  37.012   7.944   3.114
31785W        W 4045  25.725  18.031   2.757
31786W        W 4046  28.583   0.921  13.805
31787W        W 4047  35.331  19.673  13.528
31788W        W 4048  15.303   8.738  13.479
31789W        W 4049  30.930  30.030  13.518
31790W        W 4050  41.579   2.951  13.328
31791W        W 4051   7.964  26.735   4.110
31792W        W 4052   5.457  31.123   3.433
31793W        W 4053   2.118  38.612   1.750
31794W        W 4054  12.746  36.592   2.109
31795W        W 4055   5.260  23.012   1.207
31796W        W 4056   8.912   0.208  10.385
31797W        W 4057  19.307   0.797   1.271
31798W        W 4058  10.602  44.691   2.617
31799W        W 4059  10.982   7.938  11.999
31800W        W 4060  28.517  34.067  12.136
31801W        W 4061  10.614   4.152  12.528
31802W        W 4062   4.173  29.649   3.626
31803W        W 4063  26.147  20.804   0.730
31804W        W 4064  28.665  38.315  11.922
31805W        W 4065  25.700  35.936   3.601
31806W        W 4066  30.231  27.785  13.445
31807W        W 4067  18.445  35.869   1.226
31808W        W 4068  34.868  19.152  11.901
31809W        W 4069   7.446   1.817   3.175
31810W        W 4070   6.925  10.207   1.877
31811W        W 4071  38.776   4.689   2.917
31812W        W 4072  34.019   2.895   4.378
31813W        W 4073   4.939  15.788  14.013
31814W        W 4074  15.691  10.863  13.014
31815W        W 4075   3.298  40.909  14.838
31816W        W 4076  44.053   4.595  13.309
31817W        W 4077   5.136  43.157   5.053
31818W        W 4078  30.226  40.089   3.684
31819W        W 4079  14.382  26.977   2.693
31820W        W 4080  14.734  44.685   2.757
31821W        W 4081  30.819  43.438   3.219
31822W        W 4082   9.632  24.864  10.764
31823W        W 4083  27.580  20.150   0.541
31824W        W 4084  14.539  32.095  14.837
31825W        W 4085  24.079  31.997   0.035
31826W        W 4086  20.014  38.548  13.409
31827W        W 4087  13.267  23.050   0.316
31828W        W 4088  28.224  29.537  11.281
31829W        W 4089  40.503  42.371  10.679
31830W        W 4090  23.997  27.685  10.782
31831W        W 4091   8.180  22.213   4.627
31832W        W 4092  15.241  13.983   4.657
31833W        W 4093  22.935  32.017  12.429
31834W        W 4094  25.503  16.307  13.799
31835W        W 4095  11.297  40.249   1.765
31836W        W 4096   6.810  37.813   4.464
31837W        W 4097  20.698  13.584  14.871
31838W        W 4098  33.014  12.328   3.595
31839W        W 4099  11.674  11.827   2.241
31840W        W 4100  38.087   7.911   4.621
31841W        W 4101  30.458  15.787   1.892
31842W        W 4102   1.848  28.023  12.653
31843W        W 4103  36.071   3.444   2.209
31844W        W 4104  12.629  43.804   4.929
31845W        W 4105  14.921  22.151  12.065
31846W        W 4106  27.482  20.662   0.690
31847W        W 4107  38.581  27.653  11.175
31848W        W 4108  14.242  42.728   4.509
31849W        W 4109  20.712  12.743  14.310
31850W        W 4110  32.619  15.778  12.548
31851W        W 4111  13.389  29.535   4.678
31852W        W 4112  24.592   1.193  12.385
31853W        W 4113   4.611   8.314  13.963
31854W        W 4114  29.881  20.135   2.897
31855W        W 4115  44.743  34.956  13.556
31856W        W 4116  27.509  30.132  14.079
31857W        W 4117  17.399  17.085   2.283
31858W        W 4118  44.056  36.822  13.376
31859W        W 4119   5.106  33.585   1.117
31860W        W 4120  18.063  31.743   1.821
31861W        W 4121  43.363   5.550  14.390
31862W        W 4122  34.011  32.692   2.709
31863W        W 4123  21.644  38.067   0.447
31864W        W 4124  17.863  20.250  11.609
31865W        W 4125  39.863  19.429  11.594
31866W        W 4126  27.501  11.948  12.217
31867W        W 4127  31.110  37.121   1.344
31868W        W 4128   4.841  38.708  11.468
31869W        W 4129   8.655  12.330  12.016
31870W        W 4130  30.104  17.917   2.379
31871W        W 4131  16.037  21.805  11.649
31872W        W 4132  32.226   6.940   1.654
31873W        W 4133  30.469   6.981  12.592
31874W        W 4134  41.223  16.126  11.530
31875W        W 4135  21.697   0.873   3.359
31876W        W 4136  39.370  35.501  14.043
31877W        W 4137  33.156  12.445  10.950
31878W        W 4138   6.661  17.623   1.931
31879W        W 4139  19.770  22.497   3.439
31880W        W 4140   5.900  22.037  11.525
31881W        W 4141   5.980   4.989   1.806
31882W        W 4142  11.428  39.105   3.229
31883W        W 4143   2.973  12.821  13.457
31884W        W 4144  39.120   8.642  13.418
31885W        W 4145   1.551  40.799  12.634
31886W        W 4146   5.242   3.730   3.595
31887W        W 4147  18.530  30.622  14.934
31888W        W 4148  38.940  39.165   1.317
31889W        W 4149  24.778  20.911   0.825
31890W        W 4150  11.794  26.068   1.767
31891W        W 4151  27.432   6.895  14.639
31892W        W 4152  33.444  30.480  10.807
31893W        W 4153  24.717   4.266  10.706
31894W        W 4154  36.830  11.663   4.835
31895W        W 4155  30.549  38.303   0.288
31896W        W 4156   4.778  16.737   2.279
31897W        W 4157  33.100  21.317  12.003
31898W        W 4158  15.777  35.466  14.488
31899W        W 4159  14.432  28.787   3.733
31900W        W 4160  44.512  26.842   3.488
31901W        W 4161  36.990  26.199  10.788
31902W        W 4162  43.321   6.774  14.907
31903W        W 4163  24.908  26.747   1.811
31904W        W 4164   9.296   2.972   2.223
31905W        W 4165  14.345  18.166   1.470
31906W        W 4166  35.124   7.733   4.155
31907W        W 4167  17.709  34.089  10.705
31908W        W 4168   0.313   5.365  11.540
31909W        W 4169  39.251  18.419  12.093
31910W        W 4170  27.153  42.859   2.861
31911W        W 4171  15.022  21.690  14.342
31912W        W 4172  35.685   6.307   4.195
31913W        W 4173  37.557  22.501  11.764
31914W        W 4174  33.765  37.800  14.449
31915W        W 4175  17.205  28.197   0.884
31916W        W 4176   4.145   6.838  12.427
31917W        W 4177  14.191   2.932  12.493
31918W        W 4178  17.560   3.266  11.468
31919W        W 4179  23.602  29.391   1.877
31920W        W 4180  23.432   0.407   4.521
31921W        W 4181  14.153  10.677   4.679
31922W        W 4182  31.000  19.722   0.237
31923W        W 4183  15.837   9.963  12.038
31924W        W 4184  28.138  21.660  13.410
31925W        W 4185  29.383   1.289  14.349
31926W        W 4186  35.976  40.453   0.666
31927W        W 4187  15.248  23.708  13.365
31928W        W 4188  24.146  39.503  14.194
31929W        W 4189   0.904  22.043  13.058
31930W        W 4190   7.874  23.605  12.525
31931W        W 4191  19.857   2.344  11.403
31932W        W 4192  39.831  30.422   2.949
31933W        W 4193   4.367  21.638   4.506
31934W        W 4194  22.774   9.746   4.199
31935W        W 4195  16.147   5.466   1.735
31936W        W 4196  30.849  11.195  10.484
31937W        W 4197  29.136  15.372   4.650
31938W        W 4198  22.211  40.268  13.441
31939W        W 4199  26.975  24.842  14.991
31940W        W 4200  20.229   4.870   4.747
31941W        W 4201  26.672  15.966  12.008
31942W        W 4202  24.328  36.895  11.061
31943W        W 4203  15.072   2.782   2.482
31944W        W 4204  13.196  39.865  10.656
31945W        W 4205  13.236  15.779  10.358
31946W        W 4206  27.224  43.855  12.429
31947W        W 4207  12.904  44.503   0.810
31948W        W 4208  36.076  12.643  12.990
31949W        W 4209   4.211  39.318   1.818
31950W        W 4210  11.750  27.887  10.257
31951W        W 4211  31.055  31.214  12.597
31952W        W 4212  42.140  20.271   4.622
31953W        W 4213  22.622  26.514   3.473
31954W        W 4214  21.231  26.663   0.231
31955W        W 4215   6.230  24.417   0.915
31956W        W 4216  27.247  39.823  12.098
31957W        W 4217  16.579  25.077   2.284
31958W        W 4218  20.606  13.653   1.801
31959W        W 4219  12.033  20.404  12.993
31960W        W 4220  17.547  16.764   4.766
31961W        W 4221  21.996  43.424  12.747
31962W        W 4222  20.069  23.475   2.682
31963W        W 4223  19.635  39.428   3.384
31964W        W 4224  44.743  22.467  11.078
31965W        W 4225  32.023  15.073  13.557
31966W        W 4226   0.481  35.457   2.547
31967W        W 4227  36.502  32.219  10.579
31968W        W 4228  32.313  11.161   1.304
31969W        W 4229   0.870  44.070  13.193
31970W        W 4230  13.825  12.165  11.120
31971W        W 4231  19.175  14.851   2.538
31972W        W 4232  28.612  33.333  13.018
31973W        W 4233  19.188  40.600  13.929
31974W        W 4234  27.926  12.437   4.053
31975W        W 4235   5.890  34.325   4.451
31976W        W 4236  44.831  22.237  12.620
31977W        W 4237  32.047   0.304   4.594
31978W        W 4238  32.482  27.656   1.421
31979W        W 4239   4.897  38.427  10.538
31980W        W 4240   5.714  25.709   1.816
31981W        W 4241   1.493  22.520  11.415
31982W        W 4242  32.904  39.915  12.097
31983W        W 4243  12.881  17.029   4.535
31984W        W 4244  11.678  35.850   4.099
31985W        W 4245  44.364  41.214  10.580
31986W        W 4246  42.511  40.884   4.122
31987W        W 4247  14.214  28.586   0.762
31988W        W 4248  27.648   6.460  14.381
31989W        W 4249   5.999  23.735  14.065
31990W        W 4250  15.726  13.796  10.680
31991W        W 4251  18.540  36.634   1.690
31992W        W 4252  20.420   6.892   0.736
31993W        W 4253  38.103  20.649   2.112
31994W        W 4254  37.756   3.124  10.782
31995W        W 4255  33.297   5.922  13.817
31996W        W 4256  36.611  25.200   2.715
31997W        W 4257  38.499   7.455   0.965
31998W        W 4258  17.589   1.155   3.592
31999W        W 4259  30.723  35.347  14.550
32000W        W 4260  14.217   6.337  11.095
32001W        W 4261  31.407  14.617  12.983
32002W        W 4262  16.200  35.112   0.835
32003W        W 4263  12.578  19.585   1.679
32004W        W 4264  15.842  44.207   4.230
32005W        W 4265  20.795  13.609  10.642
32006W        W 4266  44.892  36.518   2.173
32007W        W 4267  13.150  36.837   2.358
32008W        W 4268  39.510  10.423   4.476
32009W        W 4269  42.646  39.084   0.696
32010W        W 4270  27.058  21.366  14.483
32011W        W 4271  36.888  22.924   2.901
32012W        W 4272  22.860   2.286   3.652
32013W        W 4273   1.800  17.565   2.279
32014W        W 4274  27.012   6.799   2.299
32015W        W 4275   2.380  33.571   4.762
32016W        W 4276   7.518  20.160  13.438
32017W        W 4277  12.292  26.001  14.310
32018W        W 4278  25.772  44.815   3.610
32019W        W 4279  10.541   8.018   4.949
32020W        W 4280   1.340  26.312   1.114
32021W        W 4281  16.791   1.335  12.104
32022W        W 4282  16.936   2.280   5.286
32023W        W 4283   7.804  45.000   3.674
32024W        W 4284  23.703  18.806   0.218
32025W        W 4285  21.897  37.830   0.848
32026W        W 4286  11.098  25.514  14.644
32027W        W 4287  23.255  11.187  14.083
32028W        W 4288  43.868  33.458   3.135
32029W        W 4289   2.743  28.687  10.745
32030W        W 4290  20.017  27.084   3.195
32031W        W 4291  34.488  35.190  13.883
32032W        W 4292  24.651  23.655  12.048
32033W        W 4293  40.933   7.822   2.894
32034W        W 4294   4.230  36.061   0.227
32035W        W 4295  36.322  31.221  14.375
32036W        W 4296  22.246   6.936   2.745
32037W        W 4297  33.664   9.211   0.247
32038W        W 4298  12.043   3.863  13.381
32039W        W 4299   1.764   7.782  13.631
32040W        W 4300  32.067  19.466  12.417
32041W        W 4301  35.383  23.947   2.251
32042W        W 4302  19.629  27.606   3.689
32043W        W 4303  38.529  19.860  14.894
32044W        W 4304  14.301   1.969  10.942
32045W        W 4305  42.928  10.443  10.252
32046W        W 4306   4.435  20.004  10.648
32047W        W 4307  38.346   4.834  14.292
32048W        W 4308  14.144   3.369  11.631
32049W        W 4309  21.012  16.640   1.912
32050W        W 4310  31.469  30.559   0.955
32051W        W 4311   3.692  24.920  12.609
32052W        W 4312  39.354  14.337   3.131
32053W        W 4313   9.620  20.059   3.251
32054W        W 4314   3.292  39.281  10.536
32055W        W 4315  32.463  16.315  14.351
32056W        W 4316  27.651   6.663   1.756
32057W        W 4317   2.813  15.373  13.229
32058W        W 4318  37.463  15.565  13.380
32059W        W 4319  16.582   7.931  12.671
32060W        W 4320  30.639  27.912  11.975
32061W        W 4321  15.749  18.177   4.751
32062W        W 4322  38.396  13.314  11.884
32063W        W 4323   8.294  29.728  13.851
32064W        W 4324  13.174   7.066  11.601
32065W        W 4325  32.229   0.933   3.775
32066W        W 4326  28.026  32.608   2.274
32067W        W 4327  18.155  19.116  14.350
32068W        W 4328  29.661  13.844  11.073
32069W        W 4329  12.664  27.054  11.521
32070W        W 4330  28.146  42.663   1.515
32071W        W 4331   3.373  39.164   3.250
32072W        W 4332  38.398  18.073   0.105
32073W        W 4333  31.953  30.248  12.960
32074W        W 4334  40.502   3.565   3.782
32075W        W 4335  25.089   5.221  12.365
32076W        W 4336  15.825  33.578  10.117
32077W        W 4337  27.231  21.741  14.873
32078W        W 4338  39.101   0.201  12.558
32079W        W 4339  13.248  22.921  14.303
32080W        W 4340  14.374  20.786   2.383
32081W        W 4341   1.104  14.750  12.386
32082W        W 4342  26.610   3.852  11.965
32083W        W 4343  36.959  23.472   1.761
32084W        W 4344  30.867  29.192  14.523
32085W        W 4345  32.160  33.907   1.719
32086W        W 4346  44.226  38.531  10.619
32087W        W 4347   8.156  20.467  13.968
32088W        W 4348  23.222  39.614   4.575
32089W        W 4349  27.008  43.581   2.936
32090W        W 4350  26.727  37.829  10.165
32091W        W 4351  22.188  16.478  12.913
32092W        W 4352  18.085  16.403  12.842
32093W        W 4353   5.197  37.866  12.563
32094W        W 4354  12.642   7.752   3.166
32095W        W 4355  44.479   8.902  12.504
32096W        W 4356  28.073  43.171   1.667
32097W        W 4357  22.006  31.566  13.101
32098W        W 4358  24.211  11.127   0.188
32099W        W 4359  35.385  29.198  12.830
32100W        W 4360  37.405  37.336  13.926
32101W        W 4361  27.856  43.776   3.257
32102W        W 4362   6.260  43.422  10.689
32103W        W 4363  41.535  26.485   3.160
32104W        W 4364  23.311  26.296  13.895
32105W        W 4365   1.644  41.287  14.513
32106W        W 4366  10.190  17.350  14.485
32107W        W 4367  14.785  13.131  11.065
32108W        W 4368   4.523  28.134   1.032
32109W        W 4369  29.546  22.528   1.140
32110W        W 4370   0.815  22.716   0.347
32111W        W 4371  11.775   2.425  14.387
32112W        W 4372   4.753  28.516   0.730
32113W        W 4373  34.472   9.621   3.223
32114W        W 4374  10.324  10.208   0.894
32115W        W 4375  41.866  16.210  14.505
32116W        W 4376  28.435   7.240   0.355
32117W        W 4377  38.861  38.728  14.418
32118W        W 4378  11.805  44.813  13.113
32119W        W 4379  34.226  43.239   0.888
32120W        W 4380   0.449   2.380   0.821
32121W        W 4381  26.222  28.565  11.092
32122W        W 4382  21.167  18.702  11.528
32123W        W 4383  22.208   9.704   0.792
32124W        W 4384  17.216  35.187  12.852
32125W        W 4385   7.787  12.017   4.076
32126W        W 4386  15.864  43.799   0.955
32127W        W 4387  23.164  16.391   1.214
32128W        W 4388   4.554   2.210   4.916
32129W        W 4389  25.952  16.173   3.731
32130W        W 4390  23.432  36.403   0.477
32131W        W 4391   2.788   6.428  11.201
32132W        W 4392  29.479  32.583  13.591
32133W        W 4393  15.574  14.827  10.157
32134W        W 4394  30.282   6.484  12.565
32135W        W 4395  39.842  30.402  12.035
32136W        W 4396   4.885  16.225   4.582
32137W        W 4397  12.809  27.321   2.180
32138W        W 4398  28.335   2.360   1.097
32139W        W 4399   1.200  29.019   0.746
32140W        W 4400  29.967  34.892  14.771
32141W        W 4401  23.033  12.338  14.437
32142W        W 4402  20.913  14.711  10.417
32143W        W 4403  14.356  34.501   3.594
32144W        W 4404  10.200  17.270   4.774
32145W        W 4405  18.232  29.843  13.454
32146W        W 4406  42.540   0.697  12.374
32147W        W 4407   1.059  24.473  11.414
32148W        W 4408  17.211  35.646  11.280
32149W        W 4409   1.908  18.234   4.178
32150W        W 4410  24.994  37.152   4.557
32151W        W 4411  30.542  22.511  12.387
32152W        W 4412  36.561  17.146   0.481
32153W        W 4413  29.622  21.640   3.815
32154W        W 4414  14.461  24.140   0.018
32155W        W 4415   7.858   1.280   2.293
32156W        W 4416   1.001  26.206   4.167
32157W        W 4417  15.203   2.960  10.986
32158W        W 4418  29.722  11.596  11.113
32159W        W 4419  19.720  13.347  12.774
32160W        W 4420  43.593  37.348   2.488
32161W        W 4421  25.238  34.152   1.789
32162W        W 4422  40.479  19.700  11.130
32163W        W 4423   1.408   8.920  14.720
32164W        W 4424   0.910  13.947   2.242
32165W        W 4425  31.285  10.407   0.723
32166W        W 4426   2.226  14.346   2.681
32167W        W 4427   9.663   3.927  11.917
32168W        W 4428  30.001  38.293   2.374
32169W        W 4429  17.553   1.376  11.562
32170W        W 4430  24.054  26.921   2.690
32171W        W 4431  40.000  43.611   3.934
32172W        W 4432   6.829  28.077  11.160
32173W        W 4433  33.467  44.261  11.991
32174W        W 4434  16.741  37.201  13.527
32175W        W 4435  41.798  11.827   3.710
32176W        W 4436  32.554  40.243   3.689
32177W        W 4437   9.320   4.357   3.071
32178W        W 4438   0.903  13.067   4.128
32179W        W 4439  21.833  15.143  11.523
32180W        W 4440  25.733  20.528   0.875
32181W        W 4441  41.644  14.630   3.372
32182W        W 4442  21.629  36.467  13.072
32183W        W 4443  19.062  28.942   4.687
32184W        W 4444   9.608  27.912   3.189
32185W        W 4445   8.831  35.780   2.214
32186W        W 4446  27.966  23.055   5.181
32187W        W 4447  18.650  44.998   2.176
32188W        W 4448  35.374  26.349  12.667
32189W        W 4449   3.287   5.403   4.183
32190W        W 4450  36.093  25.721   2.230
32191W        W 4451   8.246  22.117   0.201
32192W        W 4452   0.954  30.031   4.293
32193W        W 4453  16.169  26.040  12.399
32194W        W 4454   9.382  21.577   1.637
32195W        W 4455  14.101  44.792  11.629
32196W        W 4456  44.456  13.132  14.128
32197W        W 4457  16.179   3.287  14.555
32198W        W 4458  25.810  11.558   2.618
32199W        W 4459  44.577  35.004  12.490
32200W        W 4460  29.978  34.117   3.519
32201W        W 4461   5.777  44.295   3.239
32202W        W 4462   1.491  22.708   4.422
32203W        W 4463  27.290   9.614   2.978
32204W        W 4464  11.790  29.492  11.255
32205W        W 4465  35.843  38.540  14.046
32206W        W 4466  37.493  23.068   4.318
32207W        W 4467  41.299  31.072  14.029
32208W        W 4468  25.597   8.290   0.944
32209W        W 4469  43.380  21.076   4.377
32210W        W 4470  29.162   6.185   0.917
32211W        W 4471  12.415  13.825   2.373
32212W        W 4472  20.300  19.236  10.743
32213W        W 4473   0.978  29.951   1.186
32214W        W 4474  33.058  40.260  12.468
32215W        W 4475   6.498  34.417   3.254
32216W        W 4476  22.497  39.009  14.918
32217W        W 4477   0.562  28.631   4.604
32218W        W 4478  16.000  24.955   0.856
32219W        W 4479  30.983  42.467   1.687
32220W        W 4480  14.424   9.676  12.788
32221W        W 4481  43.483  38.389   2.354
32222W        W 4482  42.910   2.561   2.743
32223W        W 4483  16.765   0.380  12.547
32224W        W 4484  11.759  27.417   9.896
32225W        W 4485  38.423  29.546  11.633
32226W        W 4486  15.066  16.223  14.337
32227W        W 4487  42.684   9.750  10.587
32228W        W 4488  25.948  35.219   1.407
32229W        W 4489  14.024  31.918  13.090
32230W        W 4490   8.184   6.833   3.696
32231W        W 4491  29.864  42.353  12.567
32232W        W 4492   6.716  29.144   3.031
32233W        W 4493  21.718  24.528   2.892
32234W        W 4494  34.339  38.099   0.815
32235W        W 4495  44.303  41.998   0.311
32236W        W 4496   9.348  31.965  13.955
32237W        W 4497  40.342  13.861  12.555
32238W        W 4498  24.433  29.117  11.049
32239W        W 4499  26.539  18.779  13.767
32240W        W 4500  29.953   0.753   4.555
32241W        W 4501  38.511   8.023  13.061
32242W        W 4502  41.825  29.561   2.927
32243W        W 4503  33.323  10.638   2.792
32244W        W 4504   8.770  36.911   4.893
32245W        W 4505  37.025   6.818   0.541
32246W        W 4506  14.502  37.439   2.163
32247W        W 4507  28.749  33.089   1.249
32248W        W 4508  12.606  18.378  11.166
32249W        W 4509  27.681  41.995   0.780
32250W        W 4510  24.461   4.432   4.639
32251W        W 4511  37.092  17.224   3.731
32252W        W 4512  36.139  40.275   2.922
32253W        W 4513  37.878  10.153  14.056
32254W        W 4514   8.072  42.879  12.896
32255W        W 4515  40.447   4.534  11.950
32256W        W 4516  19.634   0.887  13.412
32257W        W 4517  19.758  10.627  12.542
32258W        W 4518  15.635  33.055  14.124
32259W        W 4519  44.254   1.713   2.384
32260W        W 4520  30.082  19.718  11.456
32261W        W 4521   8.355  39.905   1.614
32262W        W 4522  25.277  10.111   0.864
32263W        W 4523   9.178   8.371   4.912
32264W        W 4524  34.634  29.874   0.711
32265W        W 4525  20.150   2.735   2.248
32266W        W 4526  15.188  20.606   2.753
32267W        W 4527   0.329  11.841   0.544
32268W        W 4528   1.178  44.950  10.508
32269W        W 4529  39.265  22.687  13.453
32270W        W 4530   8.101  35.988   1.261
32271W        W 4531  44.030  41.970  14.858
32272W        W 4532   1.975  16.090   2.433
32273W        W 4533  18.939  21.367   1.164
32274W        W 4534   9.119  21.403  11.130
32275W        W 4535  19.080  16.307   1.099
32276W        W 4536   3.973  25.642  12.866
32277W        W 4537  27.413   4.253   0.901
32278W        W 4538   2.988  29.152   4.753
32279W        W 4539  19.455  36.066  10.443
32280W        W 4540   7.597  11.108  11.499
32281W        W 4541   5.102  42.079  11.138
32282W        W 4542  43.454  11.829  12.431
32283W        W 4543  33.354  36.036  12.811
32284W        W 4544  10.731   7.732   3.616
32285W        W 4545  12.278   1.804  11.311
32286W        W 4546   2.202  28.438   1.925
32287W        W 4547  34.029  36.789   2.891
32288W        W 4548  41.833  27.158  11.460
32289W        W 4549  24.014  39.569   2.065
32290W        W 4550  15.578  19.999   2.781
32291W        W 4551  36.832  44.585   0.747
32292W        W 4552  10.325  26.118  11.566
32293W        W 4553  27.457  13.137  12.396
32294W        W 4554  36.894  24.431   1.561
32295W        W 4555  18.302  14.346   1.435
32296W        W 4556  15.203  33.919   4.476
32297W        W 4557  24.621  27.006  13.299
32298W        W 4558   8.631  44.081  12.984
32299W        W 4559  19.218   1.750  13.516
32300W        W 4560   9.780   5.136  12.525
32301W        W 4561  19.533  40.346  13.121
32302W        W 4562  14.248  13.373   4.541
32303W        W 4563  19.087  39.059  12.950
32304W        W 4564  19.541  37.047   3.833
32305W        W 4565  29.618  14.576   2.279
32306W        W 4566  13.291  30.999  13.993
32307W        W 4567   2.478   2.671  11.483
32308W        W 4568   3.420   0.999   0.685
32309W        W 4569   5.851  26.248   1.983
32310W        W 4570  24.437  30.834  14.453
32311W        W 4571  35.736  30.388  13.514
32312W        W 4572  34.982  32.099  14.386
32313W        W 4573  38.739  19.127   4.853
32314W        W 4574  18.206  42.952  11.107
32315W        W 4575  36.351  14.666  11.667
32316W        W 4576  14.839  41.792   2.717
32317W        W 4577  33.118  33.598  11.025
32318W        W 4578  18.955  44.771   0.923
32319W        W 4579  25.092  43.226  13.447
32320W        W 4580  36.402  44.338   3.425
32321W        W 4581  10.312  32.669  11.553
32322W        W 4582  21.584   9.668  11.514
32323W        W 4583  17.073  14.035   4.970
32324W        W 4584  44.276   7.551  13.289
32325W        W 4585  40.931   2.015  10.794
32326W        W 4586  20.005  26.686  13.040
32327W        W 4587  23.214  35.129   0.025
32328W        W 4588  12.591  28.254   1.025
32329W        W 4589  34.988   3.260   3.430
32330W        W 4590  27.800   4.520   4.676
32331W        W 4591  16.477  19.618  13.064
32332W        W 4592   7.543  23.666  14.916
32333W        W 4593  43.700  18.279   0.361
32334W        W 4594  18.335  41.246   2.752
32335W        W 4595   6.180   6.798   2.141
32336W        W 4596  14.753  29.693   4.619
32337W        W 4597  17.707   4.664   1.340
32338W        W 4598  14.578  34.191  11.531
32339W        W 4599  16.814   0.409  13.473
32340W        W 4600  41.688  30.355   4.154
32341W        W 4601  44.806  30.441   3.679
32342W        W 4602  17.130  24.657   1.699
32343W        W 4603  21.118   8.681   2.173
32344W        W 4604   2.246   0.568   3.338
32345W        W 4605  11.284  14.190   0.013
32346W        W 4606   6.775  33.387   0.463
32347W        W 4607  38.937  27.452  13.480
32348W        W 4608  23.705   4.133   0.569
32349W        W 4609  34.620  25.426  10.808
32350W        W 4610  35.120  24.081   0.937
32351W        W 4611  32.705   2.598   2.934
32352W        W 4612  31.316   0.332  14.377
32353W        W 4613  36.562   2.904   4.361
32354W        W 4614  21.033   5.888  10.622
32355W        W 4615  31.860  40.633  14.815
32356W        W 4616  16.769  22.081   4.128
32357W        W 4617   9.807  28.126   0.238
32358W        W 4618   3.883  30.554   0.849
32359W        W 4619  36.343  40.353  14.739
32360W        W 4620  28.511  32.053   1.927
32361W        W 4621   1.964  15.161   1.886
32362W        W 4622   2.535  35.964  11.892
32363W        W 4623  12.837  10.259  14.403
32364W        W 4624  39.569  16.560   2.715
32365W        W 4625  15.737  26.462  13.498
32366W        W 4626   8.011  10.125  12.976
32367W        W 4627  29.737  40.047  12.103
32368W        W 4628  21.920   0.751   4.587
32369W        W 4629  19.619  27.746   2.709
32370W        W 4630  29.531  15.158   3.368
32371W        W 4631  24.537  26.444   3.591
32372W        W 4632  27.108  34.865   1.724
32373W        W 4633  44.230  19.138   4.792
32374W        W 4634  29.877  24.466   3.848
32375W        W 4635  30.533  11.012  12.539
32376W        W 4636  36.364  35.946  11.926
32377W        W 4637  38.827  34.195  13.425
32378W        W 4638  30.016  27.863   1.847
32379W        W 4639  31.082  29.234  14.066
32380W        W 4640  21.753   3.429  10.651
32381W        W 4641   4.708  16.306  10.749
32382W        W 4642  34.554   8.153  11.358
32383W        W 4643  23.976  20.506  14.433
32384W        W 4644  17.600  12.675   1.455
32385W        W 4645  44.377  23.634   2.721
32386W        W 4646  39.357  31.398   2.391
32387W        W 4647  27.496   5.144  14.830
32388W        W 4648  22.061  28.261  14.991
32389W        W 4649  36.913  40.417  13.034
32390W        W 4650  34.463  13.331   2.199
32391W        W 4651  42.935   2.861   4.312
32392W        W 4652  30.570  34.609   0.481
32393W        W 4653  13.222   5.778  14.285
32394W        W 4654   5.737  11.029  13.791
32395W        W 4655  33.507  31.129  14.415
32396W        W 4656  29.658  23.994  12.146
32397W        W 4657  21.460  26.597  11.052
32398W        W 4658   4.189  22.698   0.993
32399W        W 4659  27.837  29.697  11.563
32400W        W 4660  25.285  33.669  12.840
32401W        W 4661  40.229   4.894   0.284
32402W        W 4662  19.665   6.432   4.615
32403W        W 4663  31.444   0.002   1.491
32404W        W 4664  34.518   9.773  12.940
32405W        W 4665   0.181  19.051  10.823
32406W        W 4666  11.734  11.381  13.390
32407W        W 4667   8.361  38.581  12.813
32408W        W 4668  29.990  32.855   4.236
32409W        W 4669  15.783  37.425  13.340
32410W        W 4670  41.686  28.543  14.126
32411W        W 4671  13.707   2.520  13.361
32412W        W 4672  43.909  21.592  13.073
32413W        W 4673  40.594  15.388   2.900
32414W        W 4674  35.122  42.798   0.895
32415W        W 4675  27.213  20.232   0.919
32416W        W 4676  14.300  28.093  11.484
32417W        W 4677  10.189   3.144   0.201
32418W        W 4678  24.590  34.973  13.955
32419W        W 4679  28.821   3.994   3.960
32420W        W 4680  44.424  24.423   1.824
32421W        W 4681  18.118  25.362   3.319
32422W        W 4682  13.299  24.174   4.462
32423W        W 4683  29.297  43.442   1.433
32424W        W 4684   5.191  33.536   1.634
32425W        W 4685  21.648  30.119   0.977
32426W        W 4686  41.527   0.366  11.718
32427W        W 4687   8.320   2.941  11.201
32428W        W 4688   2.821  15.334   4.751
32429W        W 4689  28.918   5.306   3.762
32430W        W 4690  15.195   8.741   4.147
32431W        W 4691  37.114  22.524  13.027
32432W        W 4692  16.056  17.509   2.407
32433W        W 4693  11.282   9.391   3.560
32434W        W 4694   3.711  27.168   4.191
32435W        W 4695  22.661  10.621  10.659
32436W        W 4696  30.544  14.835   0.923
32437W        W 4697  21.087  22.439   3.234
32438W        W 4698  27.116  40.817  10.953
32439W        W 4699  42.912  34.503   1.087
32440W        W 4700  11.418   9.126   0.782
32441W        W 4701  20.609  31.033  13.970
32442W        W 4702   4.764   6.993  12.980
32443W        W 4703   5.319  34.924   4.856
32444W        W 4704  41.254  42.355   0.520
32445W        W 4705  25.918  20.649  12.965
32446W        W 4706   4.145  28.590   2.238
32447W        W 4707  20.320  38.781  10.783
32448W        W 4708  23.234  29.686   2.768
32449W        W 4709  44.054  11.417  10.460
32450W        W 4710  10.129  26.166   1.903
32451W        W 4711  42.894   6.127  11.138
32452W        W 4712   8.821  16.079  13.276
32453W        W 4713  20.934  36.441   3.342
32454W        W 4714  11.168  16.132  10.712
32455W        W 4715  42.868  16.820   3.280
32456W        W 4716  24.229  31.582   2.349
32457W        W 4717  35.948  25.453   0.767
32458W        W 4718  37.437  14.818   1.461
32459W        W 4719   7.816   7.621   0.079
32460W        W 4720  37.840  22.851  12.495
32461W        W 4721   0.842  35.113   5.095
32462W        W 4722   9.672  41.360  14.513
32463W        W 4723   5.687  16.670   4.815
32464W        W 4724  20.233  11.969   0.214
32465W        W 4725   9.912  40.195   0.292
32466W        W 4726  12.847   0.418  12.645
32467W        W 4727   6.713   6.782   2.118
32468W        W 4728  38.164  12.859  11.941
32469W        W 4729  21.328   2.575  11.616
32470W        W 4730  32.443  23.159  12.214
32471W        W 4731   8.126   6.144   0.418
32472W        W 4732  32.060  42.794   2.874
32473W        W 4733  15.649  35.529   0.411
32474W        W 4734  28.534  29.538  12.827
32475W        W 4735   1.464  16.690   4.876
32476W        W 4736   4.481  13.665   3.653
32477W        W 4737  25.387  28.446  11.911
32478W        W 4738  11.744  25.046   4.055
32479W        W 4739  38.990  36.070  11.653
32480W        W 4740  21.450   1.038   4.345
32481W        W 4741   2.893  12.097  11.466
32482W        W 4742  32.417  22.907  11.219
32483W        W 4743   4.021  24.023   3.280
32484W        W 4744  23.170   5.345   3.474
32485W        W 4745  12.072   5.431  13.566
32486W        W 4746  34.844  34.474  12.031
32487W        W 4747  40.952  19.284  12.301
32488W        W 4748   9.877  37.318   0.568
32489W        W 4749   1.377  39.096   3.255
32490W        W 4750   4.701  31.031  10.426
32491W        W 4751  42.289   8.971  14.039
32492W        W 4752  21.540  19.353  11.662
32493W        W 4753  18.087  41.959  12.105
32494W        W 4754  39.373  17.567  11.634
32495W        W 4755  11.858  25.195  14.484
32496W        W 4756  24.598   4.996   2.292
32497W        W 4757  35.003   9.749   1.877
32498W        W 4758  17.289   8.280   4.551
32499W        W 4759   9.292  11.823  14.554
32500W        W 4760  44.385  38.874   9.909
32501W        W 4761  22.586  16.187  14.741
32502W        W 4762  23.059   6.950   0.833
32503W        W 4763  17.090  22.814   1.075
32504W        W 4764  26.224   4.701   0.303
32505W        W 4765  11.670  11.315   2.362
32506W        W 4766  42.760  16.579  11.990
32507W        W 4767   9.377  27.200   2.560
32508W        W 4768  17.100  31.456  12.382
32509W        W 4769  23.610  27.496   9.993
32510W        W 4770  27.858  19.300   2.869
32511W        W 4771  40.402  41.648   1.270
32512W        W 4772   5.873  40.553   3.727
32513W        W 4773  42.962   5.729  12.603
32514W        W 4774  30.379   7.851  13.124
32515W        W 4775  12.781   5.978  14.490
32516W        W 4776   6.465  18.733  13.870
32517W        W 4777  31.187  35.673   4.721
32518W        W 4778  12.746  16.374   0.421
32519W        W 4779  16.621  39.415   3.364
32520W        W 4780  17.749  25.453   1.647
32521W        W 4781  13.260  17.010  14.855
32522W        W 4782  14.120  30.846   9.706
32523W        W 4783  35.150  42.770  11.170
32524W        W 4784  35.817  38.327   3.723
32525W        W 4785  17.276  38.014  11.789
32526W        W 4786  12.839  34.365  14.074
32527W        W 4787  18.713   1.110  14.415
32528W        W 4788  13.183   5.425  13.356
32529W        W 4789  20.005   8.933   1.709
32530W        W 4790  13.792  40.042   1.760
32531W        W 4791  41.464  29.427  11.122
32532W        W 4792  27.856  18.597  14.280
32533W        W 4793   5.415  43.578  11.106
32534W        W 4794  42.326  38.910   4.056
32535W        W 4795  42.910  19.771  11.114
32536W        W 4796  34.001  15.209   2.697
32537W        W 4797  11.057  29.506   5.013
32538W        W 4798  16.580   4.674   0.567
32539W        W 4799  27.502  43.785   1.473
32540W        W 4800  23.177  29.173  13.774
32541W        W 4801  12.086   9.097  13.385
32542W        W 4802   9.697   5.932   1.710
32543W        W 4803  17.926   3.576   4.839
32544W        W 4804  35.637  16.023  14.892
32545W        W 4805  32.274  34.190   4.912
32546W        W 4806  10.158   1.525   4.816
32547W        W 4807  44.115  13.756  11.092
32548W        W 4808  24.862   2.855  13.753
32549W        W 4809  43.297  33.153   0.905
32550W        W 4810  19.261  43.061  12.980
32551W        W 4811  27.262  15.588  11.294
32552W        W 4812  27.908  36.093   0.849
32553W        W 4813  17.224  20.947  10.994
32554W        W 4814  36.319  40.816   2.862
32555W        W 4815  33.863  32.577   0.837
32556W        W 4816  22.261  37.710   4.220
32557W        W 4817  16.195   3.599   3.659
32558W        W 4818  40.855  16.900  11.744
32559W        W 4819  44.288  25.106  11.424
32560W        W 4820   6.802  27.992  10.642
32561W        W 4821  18.181  41.739   0.247
32562W        W 4822  21.832  41.376   4.577
32563W        W 4823  37.746  28.415   4.841
32564W        W 4824  33.148  28.537   4.782
32565W        W 4825  30.849   8.702   0.332
32566W        W 4826  28.444  21.017  13.608
32567W        W 4827  19.976  32.557   4.412
32568W        W 4828  23.146  32.509  10.807
32569W        W 4829   9.139  12.364  10.724
32570W        W 4830  35.935  35.186  12.516
32571W        W 4831  42.026  43.076  11.562
32572W        W 4832  28.919  44.997  11.556
32573W        W 4833  29.064   9.634  11.502
32574W        W 4834  22.747   7.940  13.005
32575W        W 4835  15.824  41.068  14.893
32576W        W 4836   8.209  42.295  13.961
32577W        W 4837  32.182   2.779   2.312
32578W        W 4838  11.460  40.939  14.359
32579W        W 4839  37.393   0.759   5.026
32580W        W 4840  27.041  14.136   0.761
32581W        W 4841  43.414  23.571  14.459
32582W        W 4842  17.736  24.682   3.694
32583W        W 4843  44.035  31.639  13.334
32584W        W 4844  16.169  21.586  13.079
32585W        W 4845  19.266  44.070  12.973
32586W        W 4846  42.726  44.859   0.714
32587W        W 4847   2.682  43.468  14.409
32588W        W 4848   4.201  41.764   0.414
32589W        W 4849  14.678  37.119  13.574
32590W        W 4850  21.602   7.663   3.754
32591W        W 4851  32.630  24.631  14.481
32592W        W 4852  41.523   7.767   3.639
32593W        W 4853  43.382  25.120   2.455
32594W        W 4854  23.106  37.809   3.220
32595W        W 4855  25.694  19.751  12.318
32596W        W 4856  13.659  36.416   3.165
32597W        W 4857  10.880   5.392   4.599
32598W        W 4858  20.653  36.279  14.764
32599W        W 4859   3.658  40.806   0.667
32600W        W 4860  20.707  27.801   4.066
32601W        W 4861  18.844  37.324   1.519
32602W        W 4862  21.056   9.017   0.474
32603W        W 4863   3.546  19.280   4.026
32604W        W 4864  32.468  41.762  11.594
32605W        W 4865  32.701  22.817   3.884
32606W        W 4866  37.291  42.772  12.093
32607W        W 4867  17.907   5.257  11.987
32608W        W 4868  16.325  27.859  12.336
32609W        W 4869   6.616   2.422  12.459
32610W        W 4870   9.684   1.650   3.485
32611W        W 4871  35.059  12.591  10.765
32612W        W 4872  42.138   3.367  11.533
32613W        W 4873   9.833   0.361   0.429
32614W        W 4874   2.058  31.737  13.478
32615W        W 4875   0.709  27.624   0.521
32616W        W 4876  24.640   3.339  13.734
32617W        W 4877   9.707  21.930   4.032
32618W        W 4878   9.672  21.104   4.072
32619W        W 4879  13.379  30.581   0.253
32620W        W 4880  29.510  13.177  10.532
32621W        W 4881  21.299  20.479  11.879
32622W        W 4882  17.083   7.180  12.911
32623W        W 4883  42.759  13.322  11.130
32624W        W 4884  41.319  34.166  10.876
32625W        W 4885   1.841   4.307  14.824
32626W        W 4886  16.171  33.489   0.650
32627W        W 4887  31.037  41.794  14.429
32628W        W 4888  38.366  19.389  13.980
32629W        W 4889   9.855  25.102   4.703
32630W        W 4890  40.582  30.142   2.995
32631W        W 4891  17.491  44.375   2.372
32632W        W 4892  16.736  29.497   0.849
32633W        W 4893  24.484  12.140   2.923
32634W        W 4894  37.964   2.900   4.514
32635W        W 4895  39.868  29.085  10.742
32636W        W 4896   9.696  29.991  14.914
32637W        W 4897  11.150  28.660  11.481
32638W        W 4898   8.654  15.295   0.373
32639W        W 4899   7.847  25.252  13.428
32640W        W 4900  36.756  15.510  12.444
32641W        W 4901  43.029  41.371   4.615
32642W        W 4902   9.700  31.663  13.015
32643W        W 4903  34.044  36.319   0.707
32644W        W 4904   9.213   6.184   4.840
32645W        W 4905   5.137  15.583  12.840
32646W        W 4906  34.883  21.925   0.647
32647W        W 4907  25.596   7.316   3.048
32648W        W 4908  33.880  27.509   0.998
32649W        W 4909  10.864  13.183  10.654
32650W        W 4910  34.862  40.806   4.654
32651W        W 4911  22.545   3.811   2.306
32652W        W 4912   8.576  19.356   0.346
32653W        W 4913  11.179  19.178   4.437
32654W        W 4914  28.361   6.322  13.415
32655W        W 4915  27.330  36.088   0.209
32656W        W 4916  17.752  21.965  14.437
32657W        W 4917  34.535   0.031   1.764
32658W        W 4918  27.552  14.663  11.868
32659W        W 4919  14.516  37.480   9.858
32660W        W 4920   1.694  43.472  11.590
32661W        W 4921   2.703  12.153  12.777
32662W        W 4922  29.170   4.492  14.006
32663W        W 4923  40.879  34.803   2.323
32664W        W 4924  41.506   0.516  14.539
32665W        W 4925  30.884  43.854   2.111
32666W        W 4926   7.173  13.132   4.715
32667W        W 4927  30.490   6.197  10.724
32668W        W 4928   0.990  26.049  11.540
32669W        W 4929  22.269   2.670  13.025
32670W        W 4930  37.102  33.284   3.066
32671W        W 4931  41.188  11.176  11.191
32672W        W 4932  39.112  16.718  11.885
32673W        W 4933  12.745  14.789  10.406
32674W        W 4934  14.185  24.566   1.730
32675W        W 4935  32.679  16.978  14.848
32676W        W 4936  31.216  10.663  13.495
32677W        W 4937   4.968  30.973  14.357
32678W        W 4938  33.804  44.896  14.977
32679W        W 4939  30.423  36.273   0.664
32680W        W 4940  22.658  26.960  14.781
32681W        W 4941  35.018   1.030   0.136
32682W        W 4942   1.388  29.925   4.029
32683W        W 4943  38.360  41.100   2.248
32684W        W 4944  34.336  17.108   1.679
32685W        W 4945  34.165  33.842   2.287
32686W        W 4946  15.600  22.183  12.774
32687W        W 4947  31.488  42.361  14.796
32688W        W 4948  26.008  35.686   4.161
32689W        W 4949  24.526   9.122  14.345
32690W        W 4950  25.889  20.811   2.191
32691W        W 4951  33.220  27.724   0.265
32692W        W 4952  44.848   7.671  12.386
32693W        W 4953   8.318  16.102   1.692
32694W        W 4954  21.084  27.850  14.516
32695W        W 4955  34.398  35.306  14.411
32696W        W 4956  40.116  34.033  14.983
32697W        W 4957  29.997  23.892   0.752
32698W        W 4958  15.865   6.361  10.659
32699W        W 4959  12.603  31.054  12.147
32700W        W 4960  36.904  10.595  12.103
32701W        W 4961  33.101  34.829  11.921
32702W        W 4962  32.218   4.941  10.150
32703W        W 4963  21.698   2.623   0.212
32704W        W 4964  21.160  14.173  11.085
32705W        W 4965  29.452  12.679   5.042
32706W        W 4966   5.390  37.831  13.962
32707W        W 4967  41.305  43.757  11.654
32708W        W 4968   8.720  37.298  12.562
32709W        W 4969  37.331   9.356   1.616
32710W        W 4970  37.564   7.899  11.479
32711W        W 4971   7.724  12.628   1.414
32712W        W 4972  39.241  14.651  11.622
32713W        W 4973   1.024   3.643  13.878
32714W        W 4974  43.569   6.151   1.574
32715W        W 4975  33.608  32.549   0.297
32716W        W 4976  30.688  38.834  14.355
32717W        W 4977  44.303  31.933   2.274
32718W        W 4978   2.458   3.907   3.865
32719W        W 4979   4.292  22.751   2.313
32720W        W 4980  14.304   9.816   1.392
32721W        W 4981  10.184  42.367   1.701
32722W        W 4982  13.215  11.059  13.896
32723W        W 4983  23.086  41.533  14.140
32724W        W 4984   1.229  17.251   0.833
32725W        W 4985  41.026   6.581  14.763
32726W        W 4986  15.443  43.451   0.931
32727W        W 4987  30.362  40.989   1.951
32728W        W 4988  32.140  39.792  12.508
32729W        W 4989  22.952   6.725  13.868
32730W        W 4990  37.945  26.655   0.711
32731W        W 4991  14.097  38.300  10.582
32732W        W 4992  40.867  21.264   0.254
32733W        W 4993  10.889   3.904   1.762
32734W        W 4994  37.056  39.679  12.401
32735W        W 4995   7.787  26.723  14.136
32736W        W 4996  15.232  16.803  10.177
32737W        W 4997  32.051  42.811  10.196
32738W        W 4998  11.886   5.261  12.793
32739W        W 4999  15.644  29.514  12.401
32740W        W 5000   2.529  17.111  10.244
32741W        W 5001  24.652   6.466  14.807
32742W        W 5002  42.125  24.841  14.565
32743W        W 5003  43.784  28.637  13.897
32744W        W 5004  25.729  10.243   3.284
32745W        W 5005   6.395  21.057   2.369
32746W        W 5006  24.442  14.768  10.563
32747W        W 5007  35.485  29.645  11.613
32748W        W 5008  11.534   7.647  13.695
32749W        W 5009  22.094  20.631  13.902
32750W        W 5010  18.604  23.971  12.444
32751W        W 5011  31.584  33.601   1.384
32752W        W 5012  23.556  13.700  10.665
32753W        W 5013  10.115  13.414   3.188
32754W        W 5014  15.826   0.211   1.900
32755W        W 5015  18.075   2.258   3.860
32756W        W 5016  25.826   0.999  11.585
32757W        W 5017  26.698  26.108   1.781
32758W        W 5018  34.470  18.094  12.455
32759W        W 5019  29.073  40.737   0.863
32760W        W 5020  41.295  35.128   2.345
32761W        W 5021  27.614  26.175  11.843
32762W        W 5022  28.542  19.761  12.130
32763W        W 5023  21.368  17.543   1.455
32764W        W 5024  27.214   3.525   2.247
32765W        W 5025  42.464  34.150  14.796
32766W        W 5026  21.788   1.250  11.482
32767W        W 5027  19.533  43.964   0.761
32768W        W 5028  31.308  43.319  14.732
32769W        W 5029   5.214  27.560   4.877
32770W        W 5030  19.695  27.202   2.766
32771W        W 5031  34.296  35.537  13.539
32772W        W 5032  32.706  41.662  13.950
32773W        W 5033   8.893  27.141  14.892
32774W        W 5034  17.092  37.351   3.305
32775W        W 5035  23.410  23.941  14.063
32776W        W 5036  42.778  17.026  14.027
32777W        W 5037   2.347  33.458  14.052
32778W        W 5038  36.599  36.971  13.495
32779W        W 5039  30.042  35.478   3.851
32780W        W 5040  36.564  37.783  14.358
32781W        W 5041  39.865  16.402  13.012
32782W        W 5042  22.516   2.760  12.514
32783W        W 5043  36.599  20.136   4.854
32784W        W 5044  11.097  23.534  13.968
32785W        W 5045  27.716  23.512  11.183
32786W        W 5046   0.903  13.529  11.498
32787W        W 5047  17.892   5.515   0.717
32788W        W 5048   2.966  10.335   1.923
32789W        W 5049   7.730  13.840  14.797
32790W        W 5050  15.878   4.270  13.424
32791W        W 5051  12.857  11.908   3.323
32792W        W 5052  27.210  23.840  12.378
32793W        W 5053   2.168  43.257  13.008
32794W        W 5054  29.041  20.736  10.617
32795W        W 5055  34.607   8.331  12.794
32796W        W 5056  14.918  38.352  12.044
32797W        W 5057  38.304   4.975  12.100
32798W        W 5058  29.180   0.353  13.565
32799W        W 5059  14.118  14.228  10.617
32800W        W 5060   6.657  35.360   1.319
32801W        W 5061  19.194   3.322  11.213
32802W        W 5062  32.158  12.712  14.902
32803W        W 5063  39.923  31.928  14.974
32804W        W 5064  10.244  29.572  11.479
32805W        W 5065  20.062   6.681   3.164
32806W        W 5066   8.236  39.460  12.848
32807W        W 5067  16.071  28.045  13.857
32808W        W 5068  23.905  20.550   5.618
32809W        W 5069  44.372  34.828  11.198
32810W        W 5070   3.831  13.920   4.293
32811W        W 5071  10.534   3.478   0.381
32812W        W 5072   6.623  35.039  12.561
32813W        W 5073  43.016  30.280  11.475
32814W        W 5074  38.761  11.239  10.784
32815W        W 5075  11.203  34.514  12.075
32816W        W 5076  13.224   9.594  11.621
32817W        W 5077  10.840   8.936  10.879
32818W        W 5078  19.186  39.357   1.700
32819W        W 5079   9.960  16.812  10.877
32820W        W 5080  16.415   5.222   0.859
32821W        W 5081   7.801  37.356  13.472
32822W        W 5082  38.739  33.458  12.806
32823W        W 5083  34.516  35.457  12.083
32824W        W 5084  11.588  28.693   1.841
32825W        W 5085  11.257  37.956   3.779
32826W        W 5086  19.850  18.782   3.820
32827W        W 5087  10.526  22.779   3.276
32828W        W 5088   9.627  31.697  11.173
32829W        W 5089  14.193  28.076   0.479
32830W        W 5090  44.042   6.130  12.949
32831W        W 5091  29.590  13.135  14.291
32832W        W 5092  29.876  41.157  11.167
32833W        W 5093  43.369  13.118   4.218
32834W        W 5094  26.073  36.844  12.999
32835W        W 5095   4.393  41.241   1.756
32836W        W 5096  31.403  13.792   2.227
32837W        W 5097  30.008  10.627  11.854
32838W        W 5098  26.299  15.578  10.095
32839W        W 5099  37.043  30.563   3.168
32840W        W 5100  15.004  40.096  11.027
32841W        W 5101  18.088  22.896  13.456
32842W        W 5102  14.023  29.081   1.921
32843W        W 5103  36.969  30.698  11.469
32844W        W 5104  31.309  39.200   3.217
32845W        W 5105  40.472  13.228  14.911
32846W        W 5106  28.541  26.359   3.362
32847W        W 5107  10.171  33.577   4.177
32848W        W 5108   4.652   6.151  12.533
32849W        W 5109  30.541  20.840   0.791
32850W        W 5110   8.636  35.817  11.841
32851W        W 5111  31.275   6.429  14.094
32852W        W 5112  27.674  14.940   1.879
32853W        W 5113  38.400  17.556   3.663
32854W        W 5114  42.485   9.439  13.925
32855W        W 5115  20.067   6.329   2.795
32856W        W 5116   6.986  18.206  14.512
32857W        W 5117  16.692   8.892  11.298
32858W        W 5118  20.576  28.581  13.796
32859W        W 5119  36.794  20.259  10.217
32860W        W 5120  23.701  16.615  12.403
32861W        W 5121   6.908  42.481   1.037
32862W        W 5122  22.308  15.010  13.151
32863W        W 5123   9.238  28.485   1.360
32864W        W 5124   8.879  28.892   2.354
32865W        W 5125  17.663  43.945   0.374
32866W        W 5126   5.136  30.401  11.401
32867W        W 5127  31.881  31.645  11.371
32868W        W 5128  19.832  23.113  11.048
32869W        W 5129  40.814  22.257  12.892
32870W        W 5130  35.859  40.382  14.009
32871W        W 5131  38.082   9.924  11.477
32872W        W 5132  10.311   3.470  13.721
32873W        W 5133  44.816  25.848  12.820
32874W        W 5134  30.188   2.950   4.135
32875W        W 5135  25.255   3.328   5.132
32876W        W 5136  30.125   4.400  13.822
32877W        W 5137  14.563  21.477  10.722
32878W        W 5138  15.836  19.896  13.917
32879W        W 5139  38.897   1.159   3.366
32880W        W 5140   6.807  38.489   1.338
32881W        W 5141  38.119  40.316   0.949
32882W        W 5142  39.182  39.379  12.970
32883W        W 5143  32.571  10.403   3.154
32884W        W 5144  29.890  37.619  11.160
32885W        W 5145  34.716  27.660  11.143
32886W        W 5146  41.417   8.370   1.484
32887W        W 5147  33.678  12.109  11.581
32888W        W 5148  29.957   4.799   4.801
32889W        W 5149  18.990  42.326  11.050
32890W        W 5150   1.797   4.890   4.594
32891W        W 5151  37.357  22.663  13.978
32892W        W 5152  32.089   2.853   1.385
32893W        W 5153  21.077  41.392   0.945
32894W        W 5154   9.263  38.159  12.447
32895W        W 5155  19.780  32.003  14.843
32896W        W 5156  33.605  13.365   1.293
32897W        W 5157  21.923  18.702   0.021
32898W        W 5158   2.812  43.253   2.948
32899W        W 5159  28.145   2.505  13.530
32900W        W 5160  36.690  23.946  11.530
32901W        W 5161  34.038  24.930   0.913
32902W        W 5162  39.099   2.264   1.537
32903W        W 5163  27.356  17.352   2.175
32904W        W 5164  37.041  30.053  14.478
32905W        W 5165  32.991  10.818   1.627
32906W        W 5166  29.414  36.373   4.610
32907W        W 5167  22.571  16.800  12.051
32908W        W 5168  43.166  19.617  10.554
32909W        W 5169  30.952  31.566   1.428
32910W        W 5170  33.909  43.402   4.456
32911W        W 5171  18.371   7.053  14.086
32912W        W 5172  44.936   5.697  12.721
32913W        W 5173  35.889  18.032   2.702
32914W        W 5174  25.016   5.080  10.554
32915W        W 5175   0.289  24.007  11.456
32916W        W 5176  44.456  17.014  13.303
32917W        W 5177  35.928  14.827   4.709
32918W        W 5178  26.901  12.321  13.451
32919W        W 5179   1.361  18.094   1.959
32920W        W 5180  27.548   4.496   1.385
32921W        W 5181  39.522  30.442  12.649
32922W        W 5182  16.271  21.378  11.006
32923W        W 5183  22.537   7.175  14.214
32924W        W 5184  17.462   5.138  10.291
32925W        W 5185  37.613  30.460   0.025
32926W        W 5186  44.558  19.129  13.883
32927W        W 5187   5.622  15.004   0.772
32928W        W 5188  13.351  30.468  14.304
32929W        W 5189  35.894   8.913   0.779
32930W        W 5190  21.021  30.253  14.418
32931W        W 5191  12.696  37.286   4.383
32932W        W 5192  33.634  25.667  13.518
32933W        W 5193  19.281  35.689  10.962
32934W        W 5194  21.736  21.074   1.677
32935W        W 5195  33.762   0.901   0.779
32936W        W 5196   4.289  34.303  11.462
32937W        W 5197  35.558  18.344  11.095
32938W        W 5198  23.152  36.519  12.948
32939W        W 5199  36.357  13.650  12.786
32940W        W 5200   8.081  26.197   4.978
32941W        W 5201   0.330   9.635   2.795
32942W        W 5202  21.919   3.755   4.548
32943W        W 5203  30.375   5.107   2.901
32944W        W 5204  24.399   7.311  14.486
32945W        W 5205  27.059  21.521   1.233
32946W        W 5206  34.598  13.124   1.756
32947W        W 5207  26.685  19.716  13.866
32948W        W 5208  26.149  29.076  10.712
32949W        W 5209  31.503  11.614  13.768
32950W        W 5210  25.953  40.812   1.300
32951W        W 5211  33.281  32.052  10.157
32952W        W 5212  44.487   9.114   1.823
32953W        W 5213  19.056   3.998   2.297
32954W        W 5214  41.994  42.011   3.317
32955W        W 5215  12.779  23.062   2.871
32956W        W 5216  33.163  30.391  14.907
32957W        W 5217  12.199  24.232   0.066
32958W        W 5218  30.481  32.450  12.843
32959W        W 5219  31.652  12.768   4.220
32960W        W 5220  25.381  21.092   3.654
32961W        W 5221   7.851  24.461   2.193
32962W        W 5222  40.501  31.035   3.298
32963W        W 5223   2.344  17.483   9.942
32964W        W 5224  42.415  28.622   4.674
32965W        W 5225  39.466  39.357   3.152
32966W        W 5226  22.034  19.205  11.697
32967W        W 5227  38.005  38.391  11.064
32968W        W 5228   5.203  26.363   1.164
32969W        W 5229  38.188  24.260  12.167
32970W        W 5230   5.260  25.898  13.283
32971W        W 5231   9.736  37.415   4.969
32972W        W 5232  12.726  18.170   2.364
32973W        W 5233  12.710  31.030   5.349
32974W        W 5234  40.323  41.838  13.951
32975W        W 5235  19.823  16.253  13.953
32976W        W 5236  14.645  40.749   0.934
32977W        W 5237   9.831  39.548  11.742
32978W        W 5238  24.987   5.265   3.182
32979W        W 5239  29.006   8.883   3.767
32980W        W 5240   8.662  28.005   3.565
32981W        W 5241  24.618  31.867  12.843
32982W        W 5242  28.315  44.743  13.762
32983W        W 5243  38.429  43.516   2.948
32984W        W 5244  28.011  27.571   3.197
32985W        W 5245  18.035  26.182  10.858
32986W        W 5246  20.714  32.450  13.616
32987W        W 5247  15.338  22.173  14.327
32988W        W 5248   3.010  43.519  12.097
32989W        W 5249  36.321  19.816  12.690
32990W        W 5250  19.574  16.610   4.775
32991W        W 5251  16.149  18.075  10.979
32992W        W 5252  29.850   8.380  13.099
32993W        W 5253  28.383  18.493  10.481
32994W        W 5254  14.688  39.100  13.604
32995W        W 5255  39.978  36.759   0.703
32996W        W 5256  12.960  24.641   3.805
32997W        W 5257  12.894   2.007  11.017
32998W        W 5258  21.964  25.224   1.068
32999W        W 5259  21.478   7.201  11.984
33000W        W 5260  30.560   7.673   1.778
33001W        W 5261  26.625  28.046   1.474
33002W        W 5262  40.728  28.184  14.433
33003W        W 5263  14.635  36.470   0.419
33004W        W 5264  24.458  29.498   2.143
33005W        W 5265  17.204  39.806  14.619
33006W        W 5266   5.198  31.548   0.389
33007W        W 5267  28.030   5.862   2.712
33008W        W 5268  43.523  42.571  13.351
33009W        W 5269  27.885  27.671   4.817
33010W        W 5270  12.087  20.235  11.426
33011W        W 5271   2.961  21.977  13.182
33012W        W 5272  38.275  36.460  12.120
33013W        W 5273  13.987  26.259   1.516
33014W        W 5274  26.485  26.514  10.708
33015W        W 5275  21.896  43.439   3.151
33016W        W 5276  17.089  25.734  12.523
33017W        W 5277  17.044  35.300  10.528
33018W        W 5278  38.493  14.982   3.738
33019W        W 5279  31.764  19.058   3.783
33020W        W 5280   2.678  30.438  12.500
33021W        W 5281  29.592   4.791  14.143
33022W        W 5282  32.478  14.753  14.319
33023W        W 5283  43.813  20.974  11.178
33024W        W 5284  27.702  38.322   4.239
33025W        W 5285  11.346  13.354   1.407
33026W        W 5286  31.304  41.608   4.238
33027W        W 5287  42.251   0.932  11.996
33028W        W 5288  17.229  40.996   0.069
33029W        W 5289  44.386  39.808  14.990
33030W        W 5290   7.452  18.163   2.848
33031W        W 5291  37.491  34.861   1.411
33032W        W 5292  18.341  17.602  14.422
33033W        W 5293  21.740  38.535  10.896
33034W        W 5294  34.980   2.931   1.616
33035W        W 5295  29.911  31.389  12.552
33036W        W 5296  43.671  12.099  12.043
33037W        W 5297  23.563   3.357   3.724
33038W        W 5298  36.179   8.238   4.104
33039W        W 5299  30.670  43.780  10.727
33040W        W 5300  35.113  26.833   0.422
33041W        W 5301  29.435  18.177   0.297
33042W        W 5302  31.980  38.976  12.884
33043W        W 5303  30.456  30.226   9.705
33044W        W 5304  33.376  30.891   3.153
33045W        W 5305  25.306  43.464  10.628
33046W        W 5306   9.923  14.837  14.014
33047W        W 5307  22.779  22.851   4.224
33048W        W 5308  40.237  25.713   1.729
33049W        W 5309   2.221  27.949   4.215
33050W        W 5310  27.489  22.691   0.808
33051W        W 5311  17.138  19.168  10.710
33052W        W 5312  20.652   6.406   1.451
33053W        W 5313  12.188  43.113   2.601
33054W        W 5314  18.509  41.859   3.680
33055W        W 5315  39.493  20.202  13.561
33056W        W 5316   8.897  26.505   0.243
33057W        W 5317  43.403   4.802  12.561
33058W        W 5318  24.781  25.681   4.845
33059W        W 5319  33.665   4.743  10.758
33060W        W 5320  13.029  44.959   3.329
33061W        W 5321  11.067  30.309   9.517
33062W        W 5322   1.276  19.736  13.478
33063W        W 5323  12.789  10.119   3.730
33064W        W 5324  21.669  10.384  14.761
33065W        W 5325   8.884  42.865   1.506
33066W        W 5326   6.365  14.549   1.350
33067W        W 5327   8.846   5.459   4.599
33068W        W 5328   6.442  19.126   3.592
33069W        W 5329  10.850  33.536  14.403
33070W        W 5330   1.396  31.052   4.693
33071W        W 5331  22.715  32.036  11.906
33072W        W 5332  12.585   2.318  10.706
33073W        W 5333   2.373  29.002   1.376
33074W        W 5334  41.599   1.952  10.940
33075W        W 5335  32.045  17.684   1.653
33076W        W 5336  38.541  41.790  13.214
33077W        W 5337  44.828  29.011  13.443
33078W        W 5338   6.206   1.953  13.640
33079W        W 5339  40.823  44.773  11.202
33080W        W 5340   7.802   4.728   2.176
33081W        W 5341   9.395   1.013   4.539
33082W        W 5342   8.297  19.316   1.866
33083W        W 5343  16.992  14.550   4.893
33084W        W 5344  10.693  38.068  10.662
33085W        W 5345  29.958  38.602   0.925
33086W        W 5346  25.577   3.289   2.148
33087W        W 5347   5.184   2.232   0.385
33088W        W 5348  16.836   7.038  12.464
33089W        W 5349  38.104  40.864  14.838
33090W        W 5350  28.873  42.877   3.578
33091W        W 5351   2.764  28.008  11.172
33092W        W 5352  12.639  25.473   0.422
33093W        W 5353  22.403  42.956   0.503
33094W        W 5354   1.343   5.033   2.249
33095W        W 5355  15.807  44.329   2.898
33096W        W 5356  28.160   6.682   0.262
33097W        W 5357   9.395  35.430   1.400
33098W        W 5358  35.193   0.359  12.433
33099W        W 5359  35.026  16.390   1.492
33100W        W 5360  21.159  31.579   3.256
33101W        W 5361  31.161  30.539  11.014
33102W        W 5362  31.450  36.340   0.334
33103W        W 5363   1.082   2.719  12.636
33104W        W 5364  17.720  18.547   3.783
33105W        W 5365  42.871  36.930   0.238
33106W        W 5366  15.724  14.762   3.534
33107W        W 5367   0.545   7.782  12.972
33108W        W 5368  12.300   5.957   3.749
33109W        W 5369  40.074   1.827   4.618
33110W        W 5370  41.417   6.249  12.204
33111W        W 5371  41.296   2.253  12.020
33112W        W 5372   7.216   2.354   0.429
33113W        W 5373   8.829   8.308   3.127
33114W        W 5374  26.455  24.451  10.713
33115W        W 5375   0.312  17.070  11.215
33116W        W 5376   1.742  22.113  12.605
33117W        W 5377  38.210   7.788   3.725
33118W        W 5378  15.320   5.339  10.162
33119W        W 5379   1.186   5.877   3.078
33120W        W 5380  21.093  30.753  13.563
33121W        W 5381   0.545  14.869  14.003
33122W        W 5382  38.433  42.777   1.809
33123W        W 5383  33.641  10.820   3.154
33124W        W 5384   2.906  26.599   2.104
33125W        W 5385   2.207   7.844   3.807
33126W        W 5386  14.441  17.294  12.077
33127W        W 5387  34.136  34.121   2.830
33128W        W 5388  24.935  25.400  14.502
33129W        W 5389  10.723  38.627  10.682
33130W        W 5390  38.852  21.870  13.727
33131W        W 5391  28.619  30.952   2.693
33132W        W 5392  20.049  10.860  11.492
33133W        W 5393  10.692  34.452  10.989
33134W        W 5394  27.345   8.695   3.654
33135W        W 5395  43.459  24.100   4.552
33136W        W 5396  27.719   6.627   4.536
33137W        W 5397   8.155  33.585  14.344
33138W        W 5398  24.075  19.320   3.727
33139W        W 5399  14.822  22.662  12.019
33140W        W 5400  31.971  20.064  11.568
33141W        W 5401  38.577  25.757  13.054
33142W        W 5402   2.422  44.554   2.852
33143W        W 5403  29.972   0.753   0.576
33144W        W 5404  22.866  27.097  10.140
33145W        W 5405  25.586  13.878  10.902
33146W        W 5406  39.814  43.391  14.854
33147W        W 5407  11.353  19.154  13.655
33148W        W 5408  21.617  29.617  14.689
33149W        W 5409  44.831  39.208  12.564
33150W        W 5410  22.485  33.115   1.222
33151W        W 5411  11.601  22.232   4.170
33152W        W 5412  29.649  38.388  13.835
33153W        W 5413  29.659  30.663   1.252
33154W        W 5414  19.489   0.531   3.645
33155W        W 5415  10.836   8.949  13.907
33156W        W 5416  37.143  36.640   5.032
33157W        W 5417  38.417  42.855  12.909
33158W        W 5418   3.161  44.699   2.335
33159W        W 5419  38.079  27.396   4.731
33160W        W 5420   7.054   4.261  13.019
33161W        W 5421  28.810  43.527  13.594
33162W        W 5422  18.248  34.788  11.035
33163W        W 5423  13.329   3.114   2.728
33164W        W 5424  34.069  14.141   1.253
33165W        W 5425  34.171  27.876  11.845
33166W        W 5426  13.531  40.190  13.852
33167W        W 5427  30.634  34.544   4.684
33168W        W 5428  18.708  35.862   0.762
33169W        W 5429  28.735  35.595  11.211
33170W        W 5430  38.791  17.667  13.960
33171W        W 5431   9.610  36.971  12.846
33172W        W 5432  29.620  28.259   0.143
33173W        W 5433   0.750  11.211   3.673
33174W        W 5434  11.268  22.695  12.504
33175W        W 5435  31.466  21.103  11.870
33176W        W 5436  24.471  38.308  12.431
33177W        W 5437  43.388  12.693  10.009
33178W        W 5438  36.013   1.721   2.866
33179W        W 5439  29.155  19.548  14.826
33180W        W 5440   1.498  15.159  14.186
33181W        W 5441  33.444  39.461   2.615
33182W        W 5442  33.607  11.229  11.094
33183W        W 5443   1.383  40.777  11.241
33184W        W 5444  39.388  24.594   3.883
33185W        W 5445  42.900  19.825   2.810
33186W        W 5446   7.297  37.752  13.923
33187W        W 5447  24.709  26.258  13.010
33188W        W 5448   6.519  36.550   3.686
33189W        W 5449  25.370   8.739   0.716
33190W        W 5450   2.985  22.508   1.412
33191W        W 5451  30.923  35.365  14.061
33192W        W 5452  25.588  11.846   2.222
33193W        W 5453  11.565  29.446   4.954
33194W        W 5454  34.168  35.925   3.170
33195W        W 5455  41.303  43.362  10.657
33196W        W 5456  37.030  44.914   4.044
33197W        W 5457   0.176  34.147   0.403
33198W        W 5458  26.633  17.247   0.465
33199W        W 5459   3.580  11.763   0.833
33200W        W 5460  16.159  17.116  12.397
33201W        W 5461   4.911  19.509   0.677
33202W        W 5462  44.998  42.521   3.322
33203W        W 5463  17.813  29.861  12.512
33204W        W 5464  20.636  40.368  12.635
33205W        W 5465   7.434  28.764  14.336
33206W        W 5466  10.755  17.712  12.462
33207W        W 5467   4.514  34.425   3.732
33208W        W 5468  43.375  30.192  14.998
33209W        W 5469  40.909  32.948   2.044
33210W        W 5470  23.065   1.946  13.847
33211W        W 5471  39.410  12.566   3.303
33212W        W 5472  18.535  32.083  10.671
33213W        W 5473  36.379  27.681  11.506
33214W        W 5474   4.698  18.593   0.371
33215W        W 5475  20.559  22.182  10.950
33216W        W 5476  15.665  16.676   3.721
33217W        W 5477  37.366   0.030  13.268
33218W        W 5478   5.130   8.396  14.020
33219W        W 5479  35.328  34.386  11.041
33220W        W 5480  40.341  31.504   4.555
33221W        W 5481  40.498  12.603  13.989
33222W        W 5482  11.608  12.563  12.518
33223W        W 5483  41.565  14.803   1.522
33224W        W 5484  37.051  27.625  10.892
33225W        W 5485  38.069  37.153  12.403
33226W        W 5486  11.601  41.155   4.969
33227W        W 5487  35.332  33.196  12.463
33228W        W 5488  14.263   1.749  14.455
33229W        W 5489  20.473  15.591   2.705
33230W        W 5490  13.101  39.442   0.928
33231W        W 5491   2.865  42.510  14.876
33232W        W 5492  14.526   2.419   4.695
33233W        W 5493   3.777   3.823  13.055
33234W        W 5494  18.679  23.538  14.412
33235W        W 5495  42.950  27.076  11.464
33236W        W 5496   3.935   1.039   0.347
33237W        W 5497  26.786  33.955   1.409
33238W        W 5498  38.891  15.262   0.027
33239W        W 5499  15.224  20.573   2.209
33240W        W 5500  21.076  11.149  13.354
33241W        W 5501  19.395  10.882   1.930
33242W        W 5502  23.025  37.379  10.295
33243W        W 5503  19.266  43.772  14.331
33244W        W 5504  17.074  29.563   1.241
33245W        W 5505  17.149   8.480   2.332
33246W        W 5506  35.820   8.233  11.174
33247W        W 5507  14.106   2.870   0.477
33248W        W 5508   7.763  13.079   3.266
33249W        W 5509   9.766   3.489  11.356
33250W        W 5510   6.177  24.889  14.881
33251W        W 5511  43.698  21.563   4.541
33252W        W 5512  29.344  10.098  13.383
33253W        W 5513   5.253  41.605   4.014
33254W        W 5514  32.129  43.103  13.819
33255W        W 5515   9.704   0.710  11.077
33256W        W 5516  42.379  12.818  11.076
33257W        W 5517   9.310  16.922   4.513
33258W        W 5518   5.353  15.482   3.342
33259W        W 5519  38.383  35.537  14.773
33260W        W 5520  12.861  24.450   4.634
33261W        W 5521   7.819   7.112  12.889
33262W        W 5522  40.421  23.203   2.746
33263W        W 5523  37.911  29.578  14.917
33264W        W 5524  13.218  22.158  14.983
33265W        W 5525  17.744  39.832  13.649
33266W        W 5526   2.424  19.719   1.729
33267W        W 5527  26.620  20.069   2.216
33268W        W 5528  42.073   5.859   2.303
33269W        W 5529   6.138   8.713  11.537
33270W        W 5530  16.207  30.115  11.138
33271W        W 5531  14.592  17.805   0.470
33272W        W 5532  32.328  38.353   2.066
33273W        W 5533  28.197   1.490  11.106
33274W        W 5534  26.652   9.312   4.899
33275W        W 5535  39.906   7.022  11.516
33276W        W 5536  35.116  17.750   0.836
33277W        W 5537  19.274  31.055  13.787
33278W        W 5538   4.445  24.715   2.804
33279W        W 5539   5.122   7.936  10.917
33280W        W 5540   0.192  40.059  14.247
33281W        W 5541  32.656  44.037   2.691
33282W        W 5542  43.058  26.211   4.147
33283W        W 5543  20.328  17.941  12.907
33284W        W 5544  27.178   0.288  11.699
33285W        W 5545   4.277  31.108   1.379
33286W        W 5546  39.039   7.636  11.652
33287W        W 5547  41.372  19.697  11.341
33288W        W 5548   0.854  43.229   2.155
33289W        W 5549  30.140  11.335  11.223
33290W        W 5550  34.003  30.878   1.889
33291W        W 5551   0.818   4.029   0.619
33292W        W 5552   1.908  11.378   2.483
33293W        W 5553   6.535   6.004   0.874
33294W        W 5554   6.378  31.936   4.575
33295W        W 5555  25.020  24.296   1.467
33296W        W 5556  41.906  26.376   0.978
33297W        W 5557  25.178  36.384  14.721
33298W        W 5558  40.596  29.187   4.658
33299W        W 5559   9.711   7.112  13.980
33300W        W 5560  21.535   9.214   0.324
33301W        W 5561  31.892  31.356  13.215
33302W        W 5562  39.121  26.550  13.488
33303W        W 5563  22.024  28.470  11.436
33304W        W 5564  43.488   9.701  13.374
33305W        W 5565  33.995  17.297   4.193
33306W        W 5566  34.074  17.424  11.992
33307W        W 5567  11.339  42.793   4.431
33308W        W 5568  20.265  29.613   1.032
33309W        W 5569  31.845  39.854  13.325
33310W        W 5570  11.875   0.784  11.090
33311W        W 5571  22.648   5.912   1.219
33312W        W 5572  44.474  24.783  11.053
33313W        W 5573  33.162  30.514  12.195
33314W        W 5574  35.493  20.064   2.384
33315W        W 5575   1.411   7.511   3.382
33316W        W 5576  39.822  22.655   3.060
33317W        W 5577  39.844  12.661  14.448
33318W        W 5578  26.461  30.571  10.700
33319W        W 5579  10.371  16.524  11.025
33320W        W 5580  23.083  39.314   2.771
33321W        W 5581  40.506  24.054   1.704
33322W        W 5582   4.573   4.901  13.910
33323W        W 5583  38.329   4.665   2.688
33324W        W 5584  11.113   0.407   0.940
33325W        W 5585  25.994  19.072  10.645
33326W        W 5586   8.197   1.294   0.932
33327W        W 5587  17.631  22.300   4.676
33328W        W 5588  36.170   7.946  13.732
33329W        W 5589   8.975  21.743   1.931
33330W        W 5590  13.186  37.076  11.972
33331W        W 5591   4.788   2.373   1.122
33332W        W 5592  38.588  11.711   1.826
33333W        W 5593   1.944  34.992   0.544
33334W        W 5594  17.560  37.743   4.854
33335W        W 5595   1.276   9.784   2.736
33336W        W 5596  43.915  39.867  12.677
33337W        W 5597  25.422  23.033  12.950
33338W        W 5598  19.955  10.882  10.749
33339W        W 5599   0.253  21.542  11.600
33340W        W 5600   8.886  40.055  11.639
33341W        W 5601  18.177  25.199   2.265
33342W        W 5602  24.651  40.064  11.823
33343W        W 5603  19.843  43.904  13.838
33344W        W 5604  36.321  22.277  14.162
33345W        W 5605  39.516   8.555   0.921
33346W        W 5606   3.911  23.461  14.878
33347W        W 5607   3.034   4.910   2.633
33348W        W 5608   6.319  14.328  12.826
33349W        W 5609   5.200  30.172   3.277
33350W        W 5610  35.022  30.034  11.470
33351W        W 5611  21.157  27.597   5.108
33352W        W 5612  16.524   6.268  12.859
33353W        W 5613  27.546  15.190   0.661
33354W        W 5614   9.880  36.968   4.072
33355W        W 5615  39.119  20.613   2.292
33356W        W 5616   7.971  17.057   0.455
33357W        W 5617  43.341  28.520  13.640
33358W        W 5618  38.737  22.056   1.502
33359W        W 5619   1.762   0.666   2.762
33360W        W 5620  17.262   9.450   3.525
33361W        W 5621   6.323  21.965   0.273
33362W        W 5622  38.339  18.588   1.730
33363W        W 5623  24.887  41.546  13.003
33364W        W 5624  27.806  44.992  14.367
33365W        W 5625  17.617  19.308   0.256
33366W        W 5626   2.343   1.933   4.598
33367W        W 5627  40.999  19.243   3.228
33368W        W 5628  40.526  13.151   0.424
33369W        W 5629  19.026   3.480   2.350
33370W        W 5630  31.876  36.564   3.173
33371W        W 5631   7.320   2.025  13.711
33372W        W 5632   9.238  42.236  12.934
33373W        W 5633  36.406  14.983  12.901
33374W        W 5634  38.786  42.497  12.342
33375W        W 5635   6.889  38.428  14.881
33376W        W 5636  17.468  16.231   3.625
33377W        W 5637  31.931   8.911   2.704
33378W        W 5638   3.010  27.457   3.129
33379W        W 5639  29.229  43.784   3.712
33380W        W 5640  43.935  44.844  13.856
33381W        W 5641  35.446  21.193   1.650
33382W        W 5642  30.949   0.113   4.636
33383W        W 5643  31.746  24.506   0.926
33384W        W 5644  18.568  37.577  12.408
33385W        W 5645  27.352   8.283   3.342
33386W        W 5646   3.225  26.862  12.547
33387W        W 5647  27.743   6.238   1.444
33388W        W 5648  34.919  30.658  14.502
33389W        W 5649  35.650  15.305  12.459
33390W        W 5650   7.711  19.121   3.255
33391W        W 5651  32.770  35.876   2.331
33392W        W 5652  14.360  37.268  13.992
33393W        W 5653   0.767  13.912  14.378
33394W        W 5654  25.821  11.072   2.832
33395W        W 5655  11.807  21.064   1.946
33396W        W 5656  44.062  39.525  11.627
33397W        W 5657  16.598   5.745   4.069
33398W        W 5658  42.202  31.173   2.372
33399W        W 5659  30.099  14.798   2.862
33400W        W 5660  42.327  26.255  13.462
33401W        W 5661   2.485  11.349   1.339
33402W        W 5662  43.582  22.287  10.876
33403W        W 5663  27.670   6.136  14.778
33404W        W 5664  10.790  43.015  11.711
33405W        W 5665  44.201  14.446  11.192
33406W        W 5666  28.829  34.470   1.017
33407W        W 5667   9.353  41.450  13.975
33408W        W 5668  31.904  42.020  14.925
33409W        W 5669   4.963   3.894  13.510
33410W        W 5670  17.486  19.775  12.861
33411W        W 5671  24.848  24.220  11.539
33412W        W 5672  35.798  26.891  14.357
33413W        W 5673  30.228   3.788   0.749
33414W        W 5674  27.343  36.685   3.757
33415W        W 5675  32.974  36.970  13.623
33416W        W 5676   6.738  21.066  12.007
33417W        W 5677  33.148   7.926   0.045
33418W        W 5678  42.290  43.757   0.380
33419W        W 5679  34.525  22.112  14.320
33420W        W 5680  27.199  42.726   4.153
33421W        W 5681  16.710   6.997   3.798
33422W        W 5682  43.940  24.611  13.829
33423W        W 5683  25.738   3.896  13.901
33424W        W 5684  31.975  39.364   4.639
33425W        W 5685  41.059  16.075   4.426
33426W        W 5686  36.921  18.316  10.857
33427W        W 5687  11.637  10.337   1.350
33428W        W 5688  31.053  32.486   4.731
33429W        W 5689  19.787  16.032   0.775
33430W        W 5690  41.744  20.120   2.112
33431W        W 5691  43.246  34.673  13.844
33432W        W 5692   3.811  44.788  12.116
33433W        W 5693  32.929  20.066   4.745
33434W        W 5694  30.614  34.987  14.208
33435W        W 5695  40.354  24.561  10.635
33436W        W 5696  34.394   1.903  12.142
33437W        W 5697  39.545   5.376  14.483
33438W        W 5698   5.161  12.762   0.607
33439W        W 5699  16.320  19.696  13.891
33440W        W 5700  29.923  21.863   1.304
33441W        W 5701  19.337  26.815   1.437
33442W        W 5702  17.517   2.916  13.490
33443W        W 5703  25.488  23.277  10.626
33444W        W 5704   0.487  28.697   1.415
33445W        W 5705  15.156   4.274  11.635
33446W        W 5706  44.654  28.958  11.996
33447W        W 5707  16.560   3.104   4.254
33448W        W 5708  23.720  34.876   1.249
33449W        W 5709  16.600   1.005   1.903
33450W        W 5710  38.750  41.438   4.568
33451W        W 5711  28.017  11.657   4.463
33452W        W 5712   2.500   6.082   4.209
33453W        W 5713   3.384   4.230   4.588
33454W        W 5714  41.945  17.765  11.940
33455W        W 5715  11.363  14.203  13.487
33456W        W 5716  33.677  16.596  11.553
33457W        W 5717  31.674  40.112   0.350
33458W        W 5718   0.239   2.000   4.347
33459W        W 5719  15.240  10.172  13.165
33460W        W 5720  25.926  39.260   4.179
33461W        W 5721  32.162   9.662  11.516
33462W        W 5722  36.339  32.637  14.265
33463W        W 5723  37.617  16.305   0.320
33464W        W 5724  35.052   9.866  14.876
33465W        W 5725  42.554  37.984   2.154
33466W        W 5726   8.414  42.597  11.980
33467W        W 5727   8.466   3.275  13.510
33468W        W 5728   4.316  23.495  11.258
33469W        W 5729  25.290   6.133  12.658
33470W        W 5730  12.250  16.798   3.851
33471W        W 5731  16.571   6.830   4.641
33472W        W 5732  32.905   5.489   3.883
33473W        W 5733  42.735  29.105   4.217
33474W        W 5734  34.494  26.478   1.440
33475W        W 5735  26.212  41.311   5.538
33476W        W 5736  15.138   8.250  14.360
33477W        W 5737   1.120   1.845  14.294
33478W        W 5738  29.985   2.687   2.097
33479W        W 5739   8.284  36.917  14.443
33480W        W 5740  19.520  33.155   2.797
33481W        W 5741  32.282  35.119  14.599
33482W        W 5742   5.698  24.968   4.144
33483W        W 5743  21.750  18.167   3.051
33484W        W 5744   9.259  37.600   4.838
33485W        W 5745   3.029  15.752   3.773
33486W        W 5746  40.511   2.469  13.631
33487W        W 5747  32.340  17.555   0.797
33488W        W 5748  23.204  20.004  11.567
33489W        W 5749  33.699  24.828  13.713
33490W        W 5750  33.077   7.056  14.114
33491W        W 5751  16.117  13.647  13.437
33492W        W 5752  32.092  35.616  11.571
33493W        W 5753  37.108  18.817   5.017
33494W        W 5754   8.316  17.066   1.869
33495W        W 5755  36.574  29.418  11.980
33496W        W 5756   9.745  19.185   2.796
33497W        W 5757  38.058  30.083   3.686
33498W        W 5758   2.465  18.101   1.411
33499W        W 5759  10.688   3.260  14.030
33500W        W 5760  22.178  24.239   0.856
33501W        W 5761  14.006   3.802  13.067
33502W        W 5762  40.946  38.842   4.667
33503W        W 5763  43.212  13.162  14.873
33504W        W 5764  15.096  38.118  11.382
33505W        W 5765  43.435  19.943   1.752
33506W        W 5766  22.431  26.189   9.747
33507W        W 5767  29.911  10.831   2.703
33508W        W 5768  21.043  33.528   3.683
33509W        W 5769  43.261  31.048   4.572
33510W        W 5770  36.088  31.705  13.884
33511W        W 5771  35.569  21.030  10.930
33512W        W 5772   2.402  13.829   4.390
33513W        W 5773  35.901  13.866   3.592
33514W        W 5774   3.565   6.254   0.346
33515W        W 5775  16.584  31.361  11.181
33516W        W 5776  43.100  43.937   3.620
33517W        W 5777  40.100  32.093  13.954
33518W        W 5778  27.466  27.512   2.139
33519W        W 5779  10.938  22.955  12.813
33520W        W 5780   2.418  30.072   1.352
33521W        W 5781   0.866  18.258   2.672
33522W        W 5782  39.560  32.573   0.401
33523W        W 5783   3.892   3.748   2.344
33524W        W 5784  28.462  41.851   1.466
33525W        W 5785  30.890  35.504  12.138
33526W        W 5786  35.482  14.585   0.029
33527W        W 5787  34.580  29.949  14.343
33528W        W 5788   6.435  27.993   4.693
33529W        W 5789  21.158  31.192  13.270
33530W        W 5790  20.347  12.221  12.984
33531W        W 5791  20.932  37.931   2.217
33532W        W 5792  11.564  25.496   1.183
33533W        W 5793  25.069  28.603  11.490
33534W        W 5794  34.874  22.888  12.543
33535W        W 5795  27.951  31.546  14.716
33536W        W 5796  18.417  12.867  11.165
33537W        W 5797  11.886  29.097   0.957
33538W        W 5798  13.106  33.255   0.318
33539W        W 5799  20.508  13.529  11.953
33540W        W 5800  20.978  18.832   5.578
33541W        W 5801  23.914  19.475  11.127
33542W        W 5802   7.448  39.355   1.380
33543W        W 5803  37.794   3.425  13.857
33544W        W 5804  44.043  28.156   0.235
33545W        W 5805  36.445  34.064   3.186
33546W        W 5806  26.458  36.072   1.845
33547W        W 5807  18.085  19.515  13.410
33548W        W 5808   0.317  21.628   3.629
33549W        W 5809  36.977  12.698   4.296
33550W        W 5810   1.297  35.811   1.798
33551W        W 5811  33.987  24.969  12.653
33552W        W 5812  31.450   8.291   1.374
33553W        W 5813  38.633  42.967  10.675
33554W        W 5814   3.703  27.670   4.299
33555W        W 5815  43.307  21.102   3.872
33556W        W 5816  25.069  24.772   2.369
33557W        W 5817   6.775  40.481  13.234
33558W        W 5818  15.521  28.532   2.222
33559W        W 5819   5.176  29.077   0.942
33560W        W 5820   7.171  11.808   2.291
33561W        W 5821  38.527  15.314   1.801
33562W        W 5822  11.874  11.917  11.339
33563W        W 5823  41.293  12.381   4.154
33564W        W 5824  43.403  29.595  13.978
33565W        W 5825  10.868  22.695   2.367
33566W        W 5826   8.105  15.201  10.861
33567W        W 5827  15.775  19.315  14.880
33568W        W 5828  23.158  22.603   3.980
33569W        W 5829  40.538  18.511  14.331
33570W        W 5830  10.307   8.165   0.325
33571W        W 5831  32.098   9.899   4.365
33572W        W 5832  11.676  44.243  10.233
33573W        W 5833   0.164  27.127   0.010
33574W        W 5834  41.077   2.789  11.165
33575W        W 5835  42.384   2.471  13.492
33576W        W 5836  33.622  36.300   3.496
33577W        W 5837   3.889   9.855   2.341
33578W        W 5838  26.766   2.528   1.657
33579W        W 5839  38.857   4.918  12.026
33580W        W 5840   8.498   2.431  11.184
33581W        W 5841  18.199  41.357  12.762
33582W        W 5842  42.437   4.150   2.381
33583W        W 5843  27.997   1.602   2.738
33584W        W 5844   1.750  33.939   0.285
33585W        W 5845  40.579   7.020  10.979
33586W        W 5846  42.485  28.258  11.980
33587W        W 5847  18.182   5.966   2.671
33588W        W 5848   5.808   5.313   2.507
33589W        W 5849  44.634  23.262  13.958
33590W        W 5850   0.965  16.297  10.719
33591W        W 5851   9.403  12.664   3.690
33592W        W 5852   5.709  24.550   2.325
33593W        W 5853  43.402  34.141   3.716
33594W        W 5854   3.543  22.239   2.722
33595W        W 5855   3.146  40.216   4.365
33596W        W 5856  28.445  35.967  10.997
33597W        W 5857  38.789  16.005  12.957
33598W        W 5858  29.988  34.691  13.372
33599W        W 5859  24.069  16.773  14.008
33600W        W 5860  13.424  12.718  10.280
33601W        W 5861   5.934  37.546   3.302
33602W        W 5862  35.806   9.584   1.299
33603W        W 5863  32.122  32.515  11.860
33604W        W 5864  36.462   8.619   5.085
33605W        W 5865  14.118  34.390   2.709
33606W        W 5866  10.016  29.513   3.653
33607W        W 5867  34.656  34.971  11.926
33608W        W 5868  33.492  25.960   4.772
33609W        W 5869  36.817   8.770  12.158
33610W        W 5870  28.505  43.472   4.560
33611W        W 5871   8.151   0.734   0.957
33612W        W 5872  38.028   6.656  14.405
33613W        W 5873  17.171  20.164  12.867
33614W        W 5874  11.114   9.810   3.836
33615W        W 5875   9.155  38.936  12.881
33616W        W 5876  27.264   5.789  14.374
33617W        W 5877  16.015  33.500  11.989
33618W        W 5878  17.592  20.759   0.223
33619W        W 5879  26.229  11.787   4.390
33620W        W 5880  37.819   2.395  11.277
33621W        W 5881  13.558  44.070  10.425
33622W        W 5882  40.031  18.322   3.663
33623W        W 5883  37.227   6.335  14.384
33624W        W 5884  22.593  25.985  11.640
33625W        W 5885  25.745   1.932  11.579
33626W        W 5886   9.849  31.714   4.205
33627W        W 5887  41.764  11.310   2.354
33628W        W 5888   8.194  41.872  10.779
33629W        W 5889  13.697  38.830   1.008
33630W        W 5890  16.956  18.806  11.632
33631W        W 5891   8.992   5.797   0.927
33632W        W 5892   9.874   6.938   1.769
33633W        W 5893   7.724  32.017  11.654
33634W        W 5894  34.016  10.908  12.450
33635W        W 5895  21.512  18.323  11.633
33636W        W 5896  37.201  30.423  11.081
33637W        W 5897  24.500  25.250  11.963
33638W        W 5898  24.462   2.380  11.637
33639W        W 5899  44.246  20.853   4.913
33640W        W 5900  31.839  12.559  13.794
33641W        W 5901  37.512  14.267  14.044
33642W        W 5902   3.709  40.987   3.378
33643W        W 5903  38.841   0.867  14.368
33644W        W 5904  35.002  22.287  12.844
33645W        W 5905  28.375  29.155  14.522
33646W        W 5906  21.692  39.224   0.938
33647W        W 5907  44.711  43.764   1.782
33648W        W 5908  24.951  36.098   1.021
33649W        W 5909   8.187  15.215   2.807
33650W        W 5910  13.870   4.159   0.149
33651W        W 5911  25.142   5.145  13.999
33652W        W 5912  29.130  22.929   0.216
33653W        W 5913  26.101  19.735  11.986
33654W        W 5914  39.812   0.898  10.644
33655W        W 5915  31.839  41.312   3.657
33656W        W 5916  34.538  25.010   3.653
33657W        W 5917  34.470  33.950   3.239
33658W        W 5918   8.036  15.713  11.037
33659W        W 5919  44.384  32.589   2.856
33660W        W 5920  17.656  22.450  12.054
33661W        W 5921   5.445  40.196  10.727
33662W        W 5922  17.604   0.758   1.800
33663W        W 5923  18.701  39.358  13.866
33664W        W 5924  31.586  44.759   2.363
33665W        W 5925  17.934   4.987  11.038
33666W        W 5926  31.409  21.245   4.646
33667W        W 5927  16.710  14.765  11.152
33668W        W 5928  18.483  18.695   1.967
33669W        W 5929  44.789  37.199  12.362
33670W        W 5930   9.840   9.550  11.881
33671W        W 5931  31.165   5.418   3.123
33672W        W 5932  35.862  28.686   3.545
33673W        W 5933   2.199  27.634  12.572
33674W        W 5934  19.781   0.262  14.337
33675W        W 5935  36.574  34.099  14.486
33676W        W 5936  31.193  12.638   4.509
33677W        W 5937  20.111  29.203   2.014
33678W        W 5938  16.786  32.124  13.364
33679W        W 5939  19.468  21.687   0.513
33680W        W 5940  40.956  29.125   3.335
33681W        W 5941   5.017  34.431  14.891
33682W        W 5942   9.730  21.007   3.533
33683W        W 5943   5.184  41.370  12.088
33684W        W 5944   1.008  42.408   0.182
33685W        W 5945  11.684  13.666  10.914
33686W        W 5946  11.889  14.207  13.481
33687W        W 5947  26.166   6.548  11.711
33688W        W 5948  40.725  22.043  14.415
33689W        W 5949  10.306  44.243   0.321
33690W        W 5950   6.677  15.806  10.074
33691W        W 5951  29.526  41.313   1.382
33692W        W 5952   3.365   7.976  14.523
33693W        W 5953   2.909   3.432   0.260
33694W        W 5954  42.577  42.135   3.310
33695W        W 5955  33.051  44.565  12.080
33696W        W 5956   8.421  10.772  14.070
33697W        W 5957  44.712  20.169  14.876
33698W        W 5958  11.145  17.970   2.073
33699W        W 5959   0.491  35.283  11.411
33700W        W 5960  21.649  33.867  14.667
33701W        W 5961   7.892  36.271   0.438
33702W        W 5962  23.654  39.919   4.546
33703W        W 5963   7.313   2.713   0.822
33704W        W 5964  28.401  32.545   1.946
33705W        W 5965  41.884  42.926   0.804
33706W        W 5966  30.740  19.722   3.280
33707W        W 5967  25.916   9.698  13.108
33708W        W 5968   9.877  16.227  12.180
33709W        W 5969  39.704  19.209  14.342
33710W        W 5970  17.093  27.408  10.701
33711W        W 5971   4.847  17.542   1.331
33712W        W 5972   1.304   1.605   1.752
33713W        W 5973  14.248  11.602   4.768
33714W        W 5974  27.940  39.573  11.387
33715W        W 5975  31.569  32.968  14.324
33716W        W 5976  39.801  11.870  11.114
33717W        W 5977  28.892  13.409  13.113
33718W        W 5978  41.778   1.824   0.914
33719W        W 5979  23.623  15.058  14.307
33720W        W 5980  40.019  30.906  12.065
33721W        W 5981  37.988  25.921   0.209
33722W        W 5982  25.943  38.622   5.088
33723W        W 5983   0.354  31.036   1.823
33724W        W 5984  20.188  17.833  14.895
33725W        W 5985   8.828  14.551  11.483
33726W        W 5986  20.961  32.026  10.722
33727W        W 5987  21.174   8.109   5.070
33728W        W 5988  11.144  26.010  11.958
33729W        W 5989  26.095  42.394   0.972
33730W        W 5990  15.700  26.314  10.389
33731W        W 5991  16.821   6.708   4.208
33732W        W 5992  18.650  41.365  14.039
33733W        W 5993  23.552  37.992  13.125
33734W        W 5994  34.022  40.211   1.154
33735W        W 5995  40.598   1.801   2.911
33736W        W 5996  44.680   5.151  14.753
33737W        W 5997   0.745   2.724  10.083
33738W        W 5998   2.746  10.768  13.087
33739W        W 5999  26.095  28.663   1.276
33740W        W 6000  16.268  10.893   4.502
33741W        W 6001  38.890  34.355   2.350
33742W        W 6002  14.086  13.302  12.272
33743W        W 6003  42.747   9.566  14.381
33744W        W 6004  15.103  40.025  14.442
33745W        W 6005   9.650   9.763  10.986
33746W        W 6006  29.821  25.579   2.372
33747W        W 6007  15.323  35.910   2.386
33748W        W 6008  35.602  24.575  13.134
33749W        W 6009  19.800  37.460   4.551
33750W        W 6010  24.651   0.394   3.702
33751W        W 6011  30.852  23.144   4.234
33752W        W 6012  10.122  13.338  11.973
33753W        W 6013  32.262  18.120   2.814
33754W        W 6014  37.854  26.059  13.307
33755W        W 6015  43.661  21.713  11.526
33756W        W 6016  21.831   6.941   3.067
33757W        W 6017   4.920  15.523  14.463
33758W        W 6018  38.478   4.147   1.711
33759W        W 6019  33.405  18.523   3.203
33760W        W 6020  11.336  16.183  11.187
33761W        W 6021  31.152  15.567   1.023
33762W        W 6022  22.869   3.156   5.011
33763W        W 6023  42.533  19.899  13.249
33764W        W 6024   6.673  23.033  12.327
33765W        W 6025   8.753  42.134  12.844
33766W        W 6026  33.598  28.122   0.160
33767W        W 6027  11.709  28.408  11.985
33768W        W 6028  24.483   9.755   0.837
33769W        W 6029  11.138  35.598   1.007
33770W        W 6030  43.587  34.309   3.255
33771W        W 6031  28.953  26.795   1.512
33772W        W 6032  27.023  11.416   0.312
33773W        W 6033  20.111  35.390  14.390
33774W        W 6034  21.018   2.931   0.888
33775W        W 6035   9.762  11.417  12.006
33776W        W 6036  33.533  14.050  10.648
33777W        W 6037   3.234  27.939   4.229
33778W        W 6038   8.771  11.763   0.793
33779W        W 6039   8.724   5.237   2.878
33780W        W 6040  16.719  43.409   0.750
33781W        W 6041  43.053  36.519   2.784
33782W        W 6042  11.573  10.648   4.764
33783W        W 6043  21.620   6.837  14.313
33784W        W 6044  20.594  32.578   1.408
33785W        W 6045  19.206  15.868   2.292
33786W        W 6046  39.471   7.296  10.641
33787W        W 6047  44.412  33.873   3.840
33788W        W 6048  31.706  36.807   0.312
33789W        W 6049  41.883  26.596  12.015
33790W        W 6050  18.711  16.697   3.374
33791W        W 6051  35.451  15.567   4.381
33792W        W 6052   4.743  23.682  12.044
33793W        W 6053  39.174   6.830   5.544
33794W        W 6054  14.313   4.480  13.509
33795W        W 6055  26.237  33.632   2.596
33796W        W 6056  42.264  33.701  12.101
33797W        W 6057  31.133   5.273   4.635
33798W        W 6058  32.917  19.307   9.769
33799W        W 6059   0.966  39.295   2.291
33800W        W 6060   9.456  29.671   4.872
33801W        W 6061  17.752   9.826   1.371
33802W        W 6062  28.356  20.282  12.169
33803W        W 6063  19.231  42.864   1.951
33804W        W 6064  16.101   7.189   0.431
33805W        W 6065  29.894  22.621  10.392
33806W        W 6066  25.298   9.438   4.878
33807W        W 6067  40.374  22.400   2.398
33808W        W 6068   5.017  33.073   3.643
33809W        W 6069  11.596  12.712  13.990
33810W        W 6070  36.336  19.778  14.911
33811W        W 6071  13.371  40.893   4.922
33812W        W 6072  15.990   5.957   1.665
33813W        W 6073  14.809  33.750   4.150
33814W        W 6074  40.696  36.273   2.381
33815W        W 6075  18.694   4.766  14.908
33816W        W 6076  22.648   3.801   4.142
33817W        W 6077  19.501   1.333   1.345
33818W        W 6078  31.139  19.662   2.907
33819W        W 6079  40.494   2.235  10.614
33820W        W 6080  30.975   7.771  10.652
33821W        W 6081  20.648  39.073   1.780
33822W        W 6082   5.292  41.847  14.828
33823W        W 6083  21.193   6.907  11.542
33824W        W 6084   5.792  20.605  11.526
33825W        W 6085  13.098  12.189  11.438
33826W        W 6086   5.982  27.602   1.245
33827W        W 6087   3.411  27.751   1.805
33828W        W 6088   0.017  37.571  13.391
33829W        W 6089  14.329  18.235  11.017
33830W        W 6090  24.608  18.844  11.613
33831W        W 6091  43.426  25.120  14.328
33832W        W 6092  16.321  22.948   0.416
33833W        W 6093   6.140  38.815  11.168
33834W        W 6094  22.703  39.795   4.635
33835W        W 6095  40.551   7.332   4.350
33836W        W 6096   9.348  13.100  13.312
33837W        W 6097   5.714  29.965   2.205
33838W        W 6098  35.338  27.277  13.536
33839W        W 6099  42.979  21.254   2.776
33840W        W 6100  19.498   3.741   0.248
33841W        W 6101  18.816  42.888   5.129
33842W        W 6102  42.390  29.071   2.424
33843W        W 6103  12.422   2.423   0.546
33844W        W 6104  24.994  18.143  11.212
33845W        W 6105  36.077  31.947  10.416
33846W        W 6106  37.806   2.211   3.725
33847W        W 6107  33.849  13.407  14.299
33848W        W 6108  23.670  17.738   1.920
33849W        W 6109  35.591   7.807  14.428
33850W        W 6110  43.964  33.044   4.380
33851W        W 6111   7.792   6.201  12.366
33852W        W 6112  18.685  29.619  13.477
33853W        W 6113  15.661   7.414  11.535
33854W        W 6114  32.293  21.578  14.743
33855W        W 6115  39.818   2.990   0.938
33856W        W 6116  23.945   7.663   3.752
33857W        W 6117  20.658  42.882   2.198
33858W        W 6118   9.293   2.182  10.985
33859W        W 6119   7.384  16.341   3.003
33860W        W 6120  38.458   6.259   1.706
33861W        W 6121  27.910  22.134   3.136
33862W        W 6122  31.345  27.979  14.052
33863W        W 6123  36.097  37.635  12.476
33864W        W 6124  43.228   5.354   1.320
33865W        W 6125  36.974  30.914   2.210
33866W        W 6126  21.199  31.085  14.543
33867W        W 6127  16.608  13.800  12.275
33868W        W 6128   7.319  13.637   4.745
33869W        W 6129   0.092  39.363   4.888
33870W        W 6130  38.585  44.667  13.547
33871W        W 6131   5.950  19.209  14.347
33872W        W 6132  28.158  28.271  13.791
33873W        W 6133   7.427  20.477  12.998
33874W        W 6134  42.877  34.525  10.617
33875W        W 6135  21.058   6.258  12.090
33876W        W 6136  35.096  22.725   1.308
33877W        W 6137   9.883  27.878   2.237
33878W        W 6138  30.984  31.579   3.814
33879W        W 6139  19.860  30.218  11.311
33880W        W 6140   7.634  25.760   2.724
33881W        W 6141  37.121  18.345  14.047
33882W        W 6142  18.690  34.416   4.320
33883W        W 6143  36.775   1.205  11.468
33884W        W 6144  43.388  17.321   2.790
33885W        W 6145  26.190  31.017  10.667
33886W        W 6146   8.383  29.697   3.695
33887W        W 6147   1.846  13.621  10.749
33888W        W 6148  29.211  39.877  12.535
33889W        W 6149   9.185  37.767   1.670
33890W        W 6150  34.939   2.182  12.917
33891W        W 6151   8.877  23.669   4.242
33892W        W 6152   1.488   0.233   1.769
33893W        W 6153  23.264  10.705   3.196
33894W        W 6154   1.802  23.875   3.758
33895W        W 6155  30.343  33.387   9.142
33896W        W 6156  31.841  41.876   4.677
33897W        W 6157  11.154  37.862  11.425
33898W        W 6158  21.314   7.197  10.675
33899W        W 6159  37.197  16.461  11.694
33900W        W 6160  40.780   8.860   1.287
33901W        W 6161   4.944  44.560   2.651
33902W        W 6162  15.114  14.731  13.261
33903W        W 6163  18.764   3.314  14.539
33904W        W 6164  44.509  13.306   0.157
33905W        W 6165  24.123  26.608  10.224
33906W        W 6166  18.591  37.298  11.409
33907W        W 6167  32.475  32.949  14.596
33908W        W 6168  31.046  14.781   2.553
33909W        W 6169  41.887   2.888  11.575
33910W        W 6170   4.811  44.498   4.577
33911W        W 6171  38.050  21.502   4.149
33912W        W 6172  41.402  22.515  13.497
33913W        W 6173  44.813   0.974   0.697
33914W        W 6174  42.627  29.986   1.927
33915W        W 6175  31.813  40.834   3.480
33916W        W 6176   6.902  22.437  12.249
33917W        W 6177  12.772   5.672   0.345
33918W        W 6178   3.522  34.302  11.100
33919W        W 6179  39.326  19.221  13.044
33920W        W 6180  38.382  44.076   0.237
33921W        W 6181  39.929   1.693  13.524
33922W        W 6182  10.315  40.836   1.565
33923W        W 6183  27.071   0.320   2.221
33924W        W 6184  43.266  16.085   2.900
33925W        W 6185  28.656  34.450   3.217
33926W        W 6186  34.525  30.493  10.749
33927W        W 6187  21.437  44.519   3.580
33928W        W 6188  13.827  38.101  13.974
33929W        W 6189  42.380  23.640  14.479
33930W        W 6190   8.816   4.639   3.716
33931W        W 6191  27.021   1.086   1.913
33932W        W 6192  19.528  43.913   2.614
33933W        W 6193  15.294  29.124   9.944
33934W        W 6194  21.204  32.501   2.164
33935W        W 6195  15.570   2.727   2.655
33936W        W 6196  43.721  36.570   0.848
33937W        W 6197  31.856  37.157   3.819
33938W        W 6198  26.811  14.125  12.859
33939W        W 6199   0.567   5.316  13.761
33940W        W 6200  27.218  30.491   2.879
33941W        W 6201  37.383  38.563   3.722
33942W        W 6202  35.632  20.013  10.372
33943W        W 6203  11.675  20.067   1.915
33944W        W 6204  34.418   4.660  14.364
33945W        W 6205   6.830  44.657  11.158
33946W        W 6206  26.637  38.899   3.617
33947W        W 6207  36.420  41.340   2.848
33948W        W 6208  37.937  16.841   0.303
33949W        W 6209  25.522  14.127  12.454
33950W        W 6210  20.823  20.151   1.911
33951W        W 6211  38.544   8.777   1.756
33952W        W 6212   6.744  19.207  14.970
33953W        W 6213  25.516  42.430  13.373
33954W        W 6214  44.789  30.655   3.174
33955W        W 6215  26.346  29.613  11.632
33956W        W 6216  44.406   4.380  11.997
33957W        W 6217  31.977  12.332   1.787
33958W        W 6218   2.632  12.608  10.612
33959W        W 6219  42.382  43.770  14.445
33960W        W 6220  27.535  27.533  14.301
33961W        W 6221  32.179  16.277  12.844
33962W        W 6222   6.788   7.469  10.345
33963W        W 6223  33.299  40.468  12.049
33964W        W 6224   9.907  44.331  13.352
33965W        W 6225  29.838  44.281   4.164
33966W        W 6226  16.612   2.246  11.678
33967W        W 6227  10.802  14.342   0.295
33968W        W 6228  16.632  38.703   4.560
33969W        W 6229  29.862  18.867  12.645
33970W        W 6230  28.173  27.494   0.889
33971W        W 6231  19.203  41.092  10.824
33972W        W 6232  36.024  33.640   4.692
33973W        W 6233  22.917   5.473   3.057
33974W        W 6234  25.235   7.625  13.282
33975W        W 6235   4.693  25.758   0.467
33976W        W 6236  34.066  24.223   4.532
33977W        W 6237  30.862  34.601  12.064
33978W        W 6238   4.950   5.682  14.380
33979W        W 6239  41.914  34.652   1.427
33980W        W 6240  43.870  40.904   0.853
33981W        W 6241   9.801   6.613  14.066
33982W        W 6242  43.496  26.450   4.383
33983W        W 6243  43.195  30.685  11.921
33984W        W 6244  31.237  24.829   4.528
33985W        W 6245  35.188   6.215   4.145
33986W        W 6246  28.694   9.630   2.216
33987W        W 6247  17.444  32.646   4.048
33988W        W 6248  12.929   9.316  11.950
33989W        W 6249  30.132   3.243  14.862
33990W        W 6250   6.972  43.947  11.570
33991W        W 6251  26.908   8.341  14.366
33992W        W 6252  43.527   1.153   2.307
33993W        W 6253   1.921  23.716  13.787
33994W        W 6254  28.499  40.446   3.780
33995W        W 6255   1.846  29.640  14.309
33996W        W 6256  13.805   2.481   3.295
33997W        W 6257  10.368  28.766   0.322
33998W        W 6258  33.881  40.072   3.229
33999W        W 6259  13.498   6.277   4.154
34000W        W 6260  19.961   3.262  12.842
34001W        W 6261  20.732  25.941   1.495
34002W        W 6262  33.367  30.647  12.664
34003W        W 6263   6.224   6.249  13.175
34004W        W 6264   4.477   3.692  13.554
34005W        W 6265  40.526  15.348   4.860
34006W        W 6266  32.297  38.061   3.657
34007W        W 6267  11.118  32.071  13.490
34008W        W 6268  22.159  13.290   4.427
34009W        W 6269  24.699   1.947  11.439
34010W        W 6270  24.467  17.396   4.844
34011W        W 6271  24.258  30.299   1.159
34012W        W 6272  17.880  27.262   1.277
34013W        W 6273  38.878  39.453  13.845
34014W        W 6274   6.572  21.571   2.395
34015W        W 6275   4.513  27.074  11.995
34016W        W 6276  39.013  12.108   1.683
34017W        W 6277  38.080  24.547  14.376
34018W        W 6278  13.300  17.290   4.765
34019W        W 6279  20.280  21.680  11.629
34020W        W 6280  19.034  41.114   1.748
34021W        W 6281   4.285   6.233   1.964
34022W        W 6282  19.127  17.304  11.742
34023W        W 6283  23.180  34.007   4.410
34024W        W 6284  35.002  38.520  14.335
34025W        W 6285  23.591  22.202  11.537
34026W        W 6286  20.505  26.537  13.044
34027W        W 6287   7.898  42.654  12.060
34028W        W 6288  36.091  38.360  11.523
34029W        W 6289  27.136  29.367  11.225
34030W        W 6290  34.343  36.001  13.798
34031W        W 6291  33.444  33.517  11.415
34032W        W 6292  41.066  27.774  14.478
34033W        W 6293  42.150  12.181   3.824
34034W        W 6294   0.378  10.607  12.865
34035W        W 6295  25.729  24.762  13.892
34036W        W 6296  22.130  14.280   1.089
34037W        W 6297  13.426  24.957   3.225
34038W        W 6298  27.436  16.120   3.751
34039W        W 6299   2.918  44.828   0.443
34040W        W 6300  28.133  40.937   4.188
34041W        W 6301  38.929   8.266  12.024
34042W        W 6302   5.160   3.754  13.027
34043W        W 6303   1.135  12.629   2.206
34044W        W 6304  35.956  36.539   4.128
34045W        W 6305   2.350  10.901   3.882
34046W        W 6306  12.256  42.954   4.514
34047W        W 6307  29.451  33.959   1.418
34048W        W 6308  41.370   2.747  14.821
34049W        W 6309   9.095  29.116  13.315
34050W        W 6310   7.452  17.109  14.273
34051W        W 6311   1.302   4.664   1.879
34052W        W 6312  39.023   6.305   4.042
34053W        W 6313  15.242  27.044   4.369
34054W        W 6314  29.398  38.905  13.026
34055W        W 6315  33.157   8.410  11.416
34056W        W 6316   4.237   0.432  11.453
34057W        W 6317  33.387  20.885  11.934
34058W        W 6318  26.580  22.525   0.735
34059W        W 6319   8.669   3.953   0.770
34060W        W 6320  21.104   5.926   5.426
34061W        W 6321   0.408  37.937  12.728
34062W        W 6322  16.767  20.070  12.586
34063W        W 6323  36.592  44.490  13.403
34064W        W 6324  30.140  11.363  12.622
34065W        W 6325  32.687  25.024   3.216
34066W        W 6326   8.546  15.006  12.932
34067W        W 6327  34.018  16.646   0.200
34068W        W 6328  32.154   8.350   0.158
34069W        W 6329  23.742  38.791  10.512
34070W        W 6330   3.793   4.894  11.703
34071W        W 6331  12.778  11.431  11.568
34072W        W 6332  20.342   8.651  12.439
34073W        W 6333   0.020  29.654   2.361
34074W        W 6334  13.858  30.427  14.374
34075W        W 6335   2.293   9.403  13.859
34076W        W 6336  30.427  27.206  14.321
34077W        W 6337  23.228   2.886   4.622
34078W        W 6338   4.480   6.880  12.050
34079W        W 6339  25.993  38.980  14.913
34080W        W 6340  23.262  31.047   0.786
34081W        W 6341  24.233  37.086  12.872
34082W        W 6342  32.852  28.945  11.053
34083W        W 6343   5.420  22.724  12.451
34084W        W 6344  27.210  33.050   1.234
34085W        W 6345  16.330  22.288  11.433
34086W        W 6346  35.398  11.301   3.187
34087W        W 6347  11.834  29.621  10.739
34088W        W 6348   7.287  21.791   1.888
34089W        W 6349  37.166  32.431   2.878
34090W        W 6350  34.056  10.148   4.052
34091W        W 6351  44.980  20.005   0.319
34092W        W 6352  10.630  39.163  10.660
34093W        W 6353   4.651   6.194   0.246
34094W        W 6354  28.166  26.091  14.344
34095W        W 6355  20.792   4.640   4.178
34096W        W 6356  26.067  26.490   3.212
34097W        W 6357  29.014   4.825   2.849
34098W        W 6358  17.019  16.728  13.549
34099W        W 6359  19.533  20.451  12.939
34100W        W 6360  17.589  24.745  12.961
34101W        W 6361  30.877  44.940  14.760
34102W        W 6362  19.490  39.592  11.624
34103W        W 6363  39.801  11.901  13.730
34104W        W 6364  19.514  16.155  11.536
34105W        W 6365  18.567   2.726   4.348
34106W        W 6366  19.710  44.861  13.557
34107W        W 6367  11.724   4.243   1.808
34108W        W 6368  16.142  44.726  12.443
34109W        W 6369   3.116  23.824  11.536
34110W        W 6370  28.841   8.401   1.727
34111W        W 6371  32.642  16.112  13.908
34112W        W 6372  10.770  42.721   2.346
34113W        W 6373  22.764  41.380  10.703
34114W        W 6374  38.846  10.580   1.268
34115W        W 6375  24.641  44.920   4.490
34116W        W 6376  26.701  21.694   4.725
34117W        W 6377  18.568  11.567  13.987
34118W        W 6378  20.587   5.261  14.758
34119W        W 6379  11.120  25.901   3.974
34120W        W 6380   3.240  12.765   3.273
34121W        W 6381  33.212  36.378   1.863
34122W        W 6382   3.612   2.250   4.120
34123W        W 6383  25.425  42.755   1.003
34124W        W 6384  34.250  29.198   2.439
34125W        W 6385  25.337   3.466   2.580
34126W        W 6386  18.134   5.857   1.760
34127W        W 6387  43.473  27.086   3.787
34128W        W 6388  18.490   7.631   3.304
34129W        W 6389  30.094  26.164   3.227
34130W        W 6390  17.599   8.832  11.734
34131W        W 6391  28.747  21.880   3.782
34132W        W 6392  43.750  43.548   1.963
34133W        W 6393   9.411  35.930   1.709
34134W        W 6394  33.143  32.519   0.525
34135W        W 6395  10.946  20.087   3.735
34136W        W 6396  32.943  37.622  13.057
34137W        W 6397   3.185  34.591   1.463
34138W        W 6398  36.452  33.685  10.694
34139W        W 6399  23.787  19.647   1.631
34140W        W 6400  37.489   2.687  13.852
34141W        W 6401  23.627  37.864   3.265
34142W        W 6402  19.999  25.557  13.364
34143W        W 6403  32.907  42.577  12.044
34144W        W 6404  13.300  22.068  10.961
34145W        W 6405  25.187  14.168   0.760
34146W        W 6406  37.040   3.873  13.436
34147W        W 6407   0.747  15.647  10.580
34148W        W 6408  33.092  44.407  10.438
34149W        W 6409  42.771  17.581   1.795
34150W        W 6410  16.391  38.505  14.535
34151W        W 6411  25.485  20.302  11.510
34152W        W 6412  33.346  44.833  13.315
34153W        W 6413   9.235  25.990   3.969
34154W        W 6414  10.254  33.540  10.901
34155W        W 6415  42.514  41.336  11.224
34156W        W 6416  30.956  41.640  14.944
34157W        W 6417   9.703  10.036  11.424
34158W        W 6418  19.691  30.136   0.987
34159W        W 6419   7.392  16.766  11.369
34160W        W 6420  43.433  27.217  12.226
34161W        W 6421  36.298  39.725  13.609
34162W        W 6422  23.101  36.286   3.865
34163W        W 6423   3.916  40.276   0.005
34164W        W 6424  20.626  18.850  12.197
34165W        W 6425  29.128  34.342  13.333
34166W        W 6426  25.161  41.782   0.311
34167W        W 6427  13.344  43.381  13.383
34168W        W 6428  28.591  33.133   0.753
34169W        W 6429  42.393   1.998   3.268
34170W        W 6430   5.003   5.200  11.600
34171W        W 6431   6.830  27.325  12.821
34172W        W 6432  28.444  17.089  13.450
34173W        W 6433  18.090   3.849   1.358
34174W        W 6434   3.197  16.617   2.580
34175W        W 6435  39.775  18.559  14.847
34176W        W 6436  34.590  10.651   1.027
34177W        W 6437  18.832   0.410   5.050
34178W        W 6438  38.008   5.355   1.249
34179W        W 6439  28.382  24.310   4.210
34180W        W 6440  14.747  10.689   3.318
34181W        W 6441  35.819   0.349   4.850
34182W        W 6442  40.169  37.553  10.951
34183W        W 6443  43.211  20.298   0.746
34184W        W 6444  14.182  34.112   4.648
34185W        W 6445  19.750   8.700  11.151
34186W        W 6446  26.927   1.331   4.154
34187W        W 6447  25.272  15.400  11.564
34188W        W 6448  18.164   4.582   3.092
34189W        W 6449  14.731  12.610  11.220
34190W        W 6450  14.555  30.087  14.735
34191W        W 6451  35.993  44.055   4.101
34192W        W 6452  11.149  12.630   3.031
34193W        W 6453  40.633  12.218   1.871
34194W        W 6454  36.029  32.133   5.029
34195W        W 6455  11.204   7.955  11.149
34196W        W 6456  17.854  19.092   0.816
34197W        W 6457  29.376  10.678   1.206
34198W        W 6458  43.451  31.101  12.166
34199W        W 6459  30.114  29.678   2.467
34200W        W 6460  17.143  19.517  10.329
34201W        W 6461  32.405  34.555   1.720
34202W        W 6462  44.906   3.448  12.909
34203W        W 6463  14.145  27.366  11.133
34204W        W 6464  34.058  16.178  11.103
34205W        W 6465  44.461  20.734  11.574
34206W        W 6466   0.965  16.688   3.116
34207W        W 6467  40.350  25.192  10.024
34208W        W 6468  17.564  11.814  10.635
34209W        W 6469  29.182   2.948   2.684
34210W        W 6470  32.642  34.155  13.447
34211W        W 6471  44.767  10.550  13.671
34212W        W 6472  19.116  33.228  14.002
34213W        W 6473  34.641  34.388  12.516
34214W        W 6474  32.469  20.472   1.748
34215W        W 6475  27.480   9.201  11.675
34216W        W 6476   1.968  20.573  12.449
34217W        W 6477  36.501   7.649   0.709
34218W        W 6478  27.097  41.638   9.629
34219W        W 6479  14.718   9.874  13.927
34220W        W 6480  11.740  39.280  11.101
34221W        W 6481  23.495  33.786  12.413
34222W        W 6482  28.134  44.773   4.506
34223W        W 6483  25.554   0.999  10.639
34224W        W 6484  21.007  26.687  11.914
34225W        W 6485  21.442  43.969   1.888
34226W        W 6486  12.770  18.752   1.285
34227W        W 6487  40.739  23.220   0.273
34228W        W 6488  37.005   5.435  11.607
34229W        W 6489  36.805  37.064   0.937
34230W        W 6490   6.795  20.679  14.843
34231W        W 6491  13.965  43.750   0.063
34232W        W 6492  10.148  24.153  14.496
34233W        W 6493  29.495  26.914   3.277
34234W        W 6494  40.379  39.328  12.068
34235W        W 6495  34.863  18.263   9.768
34236W        W 6496  18.113  29.910  12.073
34237W        W 6497  24.008   0.318  13.970
34238W        W 6498  38.846  43.006   5.317
34239W        W 6499  26.883  40.683  13.002
34240W        W 6500  35.031  40.960  12.464
34241W        W 6501  22.694  40.346  12.613
34242W        W 6502  24.062  21.058   1.925
34243W        W 6503   3.272  37.268  14.868
34244W        W 6504  42.535  35.674  12.161
34245W        W 6505  16.398  18.292   1.342
34246W        W 6506  35.218   4.963   0.421
34247W        W 6507  26.195  13.572   0.964
34248W        W 6508  19.557  41.349   1.102
34249W        W 6509  12.856  30.524   5.464
34250W        W 6510  22.973  39.911   1.448
34251W        W 6511  21.595  20.567   4.642
34252W        W 6512   7.610  19.148   1.248
34253W        W 6513  23.236  18.784   4.157
34254W        W 6514  23.065  34.836  13.844
34255W        W 6515   5.237  18.988  12.082
34256W        W 6516  41.798   7.299  14.716
34257W        W 6517   3.262  38.158   3.282
34258W        W 6518  26.462   5.981   4.201
34259W        W 6519   8.937  43.030   3.693
34260W        W 6520  43.914   6.907   2.821
34261W        W 6521  18.326  14.913   0.930
34262W        W 6522  21.305  21.779  13.761
34263W        W 6523  24.847  16.546  13.702
34264W        W 6524  27.468  13.513   3.209
34265W        W 6525   7.245  34.043   0.904
34266W        W 6526   7.792  37.070   0.338
34267W        W 6527  11.193   1.401  14.992
34268W        W 6528  26.913  28.647  13.399
34269W        W 6529   5.736   3.221  11.278
34270W        W 6530  15.781  37.822   1.055
34271W        W 6531  38.362  24.603   2.308
34272W        W 6532  11.236  12.143  13.369
34273W        W 6533  32.608  44.302  10.768
34274W        W 6534  22.512  36.182   3.989
34275W        W 6535  17.311  31.506  14.297
34276W        W 6536   2.911  19.581   1.797
34277W        W 6537  24.700  39.456   5.355
34278W        W 6538  34.299  25.642   0.429
34279W        W 6539  39.579   2.985   0.278
34280W        W 6540  30.763   0.944   0.866
34281W        W 6541   6.548  28.564   0.953
34282W        W 6542   0.490  16.744  14.791
34283W        W 6543  13.188  36.301   4.813
34284W        W 6544  13.600   1.770   1.212
34285W        W 6545  33.336  14.246   4.374
34286W        W 6546  31.578  29.231   2.308
34287W        W 6547  27.496  15.034   3.944
34288W        W 6548  20.775   4.921   3.710
34289W        W 6549  22.531  29.344  11.334
34290W        W 6550  13.758   0.830   1.977
34291W        W 6551   2.749   3.989  12.925
34292W        W 6552  27.320  31.962   1.434
34293W        W 6553  11.583  12.784  13.022
34294W        W 6554  40.287  11.419   1.303
34295W        W 6555  14.845  30.796  12.293
34296W        W 6556  19.637  21.084  12.860
34297W        W 6557  23.501   2.545  11.437
34298W        W 6558  38.431  38.068  14.289
34299W        W 6559  22.261  34.184   1.675
34300W        W 6560  42.572  20.512  12.779
34301W        W 6561  16.569  35.795  12.334
34302W        W 6562   2.819  35.967  10.909
34303W        W 6563  22.266  43.734   4.264
34304W        W 6564  22.146  34.644  13.509
34305W        W 6565  33.881  16.739   3.196
34306W        W 6566  10.158  19.022  11.343
34307W        W 6567  11.290  15.380   2.612
34308W        W 6568  25.233  27.483   4.609
34309W        W 6569  31.891  39.333  13.240
34310W        W 6570   5.551  34.459   1.201
34311W        W 6571  30.980  19.752  10.602
34312W        W 6572  13.381  18.063  10.816
34313W        W 6573  34.356   1.236  14.340
34314W        W 6574  15.171  24.311   1.742
34315W        W 6575  16.735  37.446   0.069
34316W        W 6576  37.472  10.380   1.434
34317W        W 6577  36.314   9.477   4.216
34318W        W 6578   9.263  44.558   4.165
34319W        W 6579   9.739   7.240  11.553
34320W        W 6580  38.916   3.330  14.921
34321W        W 6581  10.251  41.544  14.873
34322W        W 6582  38.223   7.268  11.952
34323W        W 6583  40.188   9.777  12.836
34324W        W 6584  17.260   1.708  12.092
34325W        W 6585  40.913  16.748   2.696
34326W        W 6586  18.766  15.238   1.098
34327W        W 6587  44.412  26.293   2.263
34328W        W 6588   1.484   1.308  12.745
34329W        W 6589   9.352  19.191   4.357
34330W        W 6590  15.270  34.238   1.930
34331W        W 6591  30.161   4.973   3.345
34332W        W 6592  17.857  35.370  11.513
34333W        W 6593  19.670   9.314  10.189
34334W        W 6594  40.480  29.481  13.097
34335W        W 6595  30.697   1.748  11.875
34336W        W 6596  12.100  41.061  11.986
34337W        W 6597  18.288  29.010   1.011
34338W        W 6598  41.738  43.898   3.238
34339W        W 6599  30.917  17.327  14.354
34340W        W 6600  39.540  39.614   0.904
34341W        W 6601   4.526  26.283   1.582
34342W        W 6602  11.718  13.268   4.937
34343W        W 6603   6.921  27.019  14.311
34344W        W 6604  22.009   7.795  14.732
34345W        W 6605  38.472  30.851  13.758
34346W        W 6606  41.337  30.602  13.285
34347W        W 6607  29.138  19.973  11.468
34348W        W 6608  42.421  15.017   0.975
34349W        W 6609  19.317  22.659  10.581
34350W        W 6610  17.076  43.366   4.396
34351W        W 6611  29.583  27.821   5.066
34352W        W 6612  32.122  17.575  10.676
34353W        W 6613  25.953   7.757   1.751
34354W        W 6614  20.199  20.041   0.403
34355W        W 6615  25.672  42.911   4.240
34356W        W 6616   8.706  44.713  12.148
34357W        W 6617  16.076  29.392  12.108
34358W        W 6618   9.187  19.982   0.789
34359W        W 6619  41.059  32.832  11.904
34360W        W 6620   0.045   7.202  12.124
34361W        W 6621  30.660  34.619  11.575
34362W        W 6622  41.537  43.761   3.707
34363W        W 6623  40.048  13.971   5.050
34364W        W 6624  31.024   2.002  12.193
34365W        W 6625  38.974  27.043   1.419
34366W        W 6626  13.470  13.747   1.023
34367W        W 6627  27.573  34.100   4.710
34368W        W 6628  29.187  41.934   1.997
34369W        W 6629   6.657  28.459   1.459
34370W        W 6630  42.740   7.930   1.273
34371W        W 6631  10.083  28.561   2.787
34372W        W 6632  24.015  38.947  14.878
34373W        W 6633  37.314  36.099  14.571
34374W        W 6634  27.907   8.320  14.475
34375W        W 6635  44.146   3.152  13.988
34376W        W 6636  31.198   3.767   3.532
34377W        W 6637  28.601  15.817  11.116
34378W        W 6638  39.737   3.703  11.664
34379W        W 6639  13.691  39.866  10.896
34380W        W 6640  32.666  17.846   3.717
34381W        W 6641  14.728  27.562  10.475
34382W        W 6642  11.742  16.332   1.342
34383W        W 6643   1.809  16.796   3.486
34384W        W 6644   3.510  32.433   2.373
34385W        W 6645  44.007  40.839  10.591
34386W        W 6646  30.431   0.835  13.747
34387W        W 6647   9.620   1.158   3.316
34388W        W 6648  27.061  31.187   1.233
34389W        W 6649  11.636  41.110  13.856
34390W        W 6650   6.722   9.130   4.185
34391W        W 6651  40.994   1.929  13.323
34392W        W 6652  15.470  12.150  10.353
34393W        W 6653  26.750  17.773   3.640
34394W        W 6654  16.356  15.877   4.264
34395W        W 6655  39.830  33.905   0.441
34396W        W 6656  24.218  26.623   0.400
34397W        W 6657  33.771  17.687  10.342
34398W        W 6658   1.889  37.527   1.291
34399W        W 6659  22.022   1.936  12.415
34400W        W 6660  25.098  20.703  10.456
34401W        W 6661   8.814  41.481  13.940
34402W        W 6662  12.243  29.678   0.340
34403W        W 6663  37.084  13.288  12.717
34404W        W 6664  26.532  32.078   3.303
34405W        W 6665  39.511  12.287   4.756
34406W        W 6666  21.238  10.143  14.469
34407W        W 6667  26.907   8.490  11.117
34408W        W 6668  33.852  44.821  13.508
34409W        W 6669  20.999   2.511   2.370
34410W        W 6670   9.475  44.910  11.903
34411W        W 6671   6.288  17.664  11.727
34412W        W 6672   3.936  39.974  12.593
34413W        W 6673  32.623  44.886  11.983
34414W        W 6674  19.070  26.757  13.430
34415W        W 6675  23.380   6.387  11.371
34416W        W 6676  40.705  26.825  14.374
34417W        W 6677  43.817  32.968  10.909
34418W        W 6678  15.649  26.044  10.842
34419W        W 6679  24.970   8.294   4.552
34420W        W 6680  34.565  42.301  10.708
34421W        W 6681  13.770  37.357  14.866
34422W        W 6682  28.288  24.983   2.135
34423W        W 6683   7.141  41.402   4.064
34424W        W 6684  33.480  10.733  10.390
34425W        W 6685  28.472  34.557   0.328
34426W        W 6686   1.916  35.167   2.004
34427W        W 6687  13.507   0.930   3.409
34428W        W 6688  12.736  31.555   1.517
34429W        W 6689  12.889  14.345  14.407
34430W        W 6690   2.941  18.676  14.902
34431W        W 6691  37.085  32.960   1.372
34432W        W 6692  43.428  18.719  12.002
34433W        W 6693  19.063  36.994   4.758
34434W        W 6694  44.281  32.569  14.964
34435W        W 6695  13.352  30.124   3.696
34436W        W 6696  15.531  18.712   1.266
34437W        W 6697  14.845  12.320  13.488
34438W        W 6698  33.098  29.552  13.026
34439W        W 6699  14.626   3.940   2.609
34440W        W 6700  19.413  26.265  10.437
34441W        W 6701  38.896  39.508  11.029
34442W        W 6702   2.960  20.125  12.431
34443W        W 6703  18.197  19.039   3.046
34444W        W 6704  22.068  35.279   4.629
34445W        W 6705   5.266   4.630   0.475
34446W        W 6706   1.542  28.575  13.562
34447W        W 6707  35.876  20.286   1.721
34448W        W 6708   2.808  39.036  13.297
34449W        W 6709  29.149  16.756  10.510
34450W        W 6710  26.161   1.960  14.973
34451W        W 6711  20.087   6.075   4.563
34452W        W 6712  17.367  11.580   1.748
34453W        W 6713  16.256  34.310   1.010
34454W        W 6714  31.509  35.354   2.549
34455W        W 6715  13.614  20.185   1.419
34456W        W 6716  43.925  36.640  11.949
34457W        W 6717  32.016  16.633  11.151
34458W        W 6718  23.659  43.096  11.829
34459W        W 6719  40.130  35.054   1.769
34460W        W 6720  35.926  15.702  12.825
34461W        W 6721   0.452   0.602  11.568
34462W        W 6722  11.674   8.915   1.818
34463W        W 6723  31.513   5.870  12.041
34464W        W 6724   5.463  42.848  14.804
34465W        W 6725  12.119  23.024   2.283
34466W        W 6726   7.001  38.550   3.782
34467W        W 6727   9.287  24.240   2.229
34468W        W 6728  35.776  36.062   1.476
34469W        W 6729   1.644  42.224  11.193
34470W        W 6730  36.944   0.549   2.120
34471W        W 6731  12.849  20.133  12.659
34472W        W 6732  40.060  41.873  12.619
34473W        W 6733  11.077  30.175  11.701
34474W        W 6734  26.069   2.220  10.380
34475W        W 6735  12.249  14.854   4.600
34476W        W 6736  12.635   0.739  10.415
34477W        W 6737  26.249  25.614  11.139
34478W        W 6738   9.689  12.217  12.881
34479W        W 6739   4.153  44.433   2.222
34480W        W 6740  33.025   8.980   1.329
34481W        W 6741  44.750  17.194  10.525
34482W        W 6742  43.943  28.049  12.606
34483W        W 6743  25.499  20.750  13.297
34484W        W 6744   8.309  21.780  14.805
34485W        W 6745  31.923  37.913   3.308
34486W        W 6746  23.296  21.647   0.497
34487W        W 6747  42.851  24.357   0.971
34488W        W 6748  27.192   3.410  12.225
34489W        W 6749  22.148  29.329   0.032
34490W        W 6750   8.178  42.828   0.570
34491W        W 6751  36.270  41.777  12.800
34492W        W 6752  35.749  10.797  13.284
34493W        W 6753  27.071  15.991   4.677
34494W        W 6754  15.797  37.486  12.819
34495W        W 6755  35.395  39.992   3.182
34496W        W 6756  43.437   0.712  12.077
34497W        W 6757  31.487  30.990  13.913
34498W        W 6758  11.824  42.865  10.271
34499W        W 6759  11.861  27.580  14.946
34500W        W 6760  25.697  17.826  13.856
34501W        W 6761  19.361  24.479   1.643
34502W        W 6762  33.126  21.605   2.167
34503W        W 6763  22.812   3.281  14.213
34504W        W 6764   2.072  29.169  14.387
34505W        W 6765  21.980  16.297   0.493
34506W        W 6766  40.930  23.174  12.039
34507W        W 6767  24.491  36.009   1.856
34508W        W 6768  34.789  43.036   1.501
34509W        W 6769  18.334  16.786   0.402
34510W        W 6770   5.874  43.468   0.660
34511W        W 6771  19.949  18.560   0.330
34512W        W 6772  43.393  21.073  14.285
34513W        W 6773  42.336   4.822  10.693
34514W        W 6774  27.927  32.842  12.123
34515W        W 6775   6.712  31.619   3.331
34516W        W 6776  44.363  27.238   0.500
34517W        W 6777  13.250  33.191  14.309
34518W        W 6778   3.388  14.562  11.938
34519W        W 6779  44.897  30.043  13.443
34520W        W 6780   4.457  39.658  10.806
34521W        W 6781  19.731  13.103  11.812
34522W        W 6782   1.814  39.257  10.606
34523W        W 6783  37.997  38.524   0.664
34524W        W 6784  40.889  34.426   4.282
34525W        W 6785  22.913  30.109   2.854
34526W        W 6786   0.917  23.664   0.822
34527W        W 6787  10.213  28.763  10.548
34528W        W 6788   8.332  17.426   1.466
34529W        W 6789   1.520  26.861   4.543
34530W        W 6790  28.165  14.117  13.822
34531W        W 6791   2.209   8.678  13.398
34532W        W 6792   6.029  28.632  14.605
34533W        W 6793  31.510  37.903   1.646
34534W        W 6794  19.039  11.568   0.296
34535W        W 6795  19.635   8.831   0.493
34536W        W 6796  25.720  10.573  12.825
34537W        W 6797  22.739  24.210   2.185
34538W        W 6798  37.073  23.623  11.633
34539W        W 6799  26.020   7.517   3.998
34540W        W 6800   9.248  28.638   1.864
34541W        W 6801  41.281  34.966  11.174
34542W        W 6802  42.025  32.791   4.044
34543W        W 6803  22.291  12.906   1.311
34544W        W 6804  15.644  14.267   3.314
34545W        W 6805  25.592   4.885  13.749
34546W        W 6806   7.901  20.635   4.802
34547W        W 6807  26.558  15.645  13.472
34548W        W 6808  29.111  20.747   3.159
34549W        W 6809  40.386  41.157  14.782
34550W        W 6810   3.246  39.840  10.291
34551W        W 6811  19.793  34.031  11.706
34552W        W 6812  17.578   4.983  11.669
34553W        W 6813  33.898  18.161   3.771
34554W        W 6814  23.650  18.129  12.913
34555W        W 6815  25.007  37.473  12.958
34556W        W 6816   9.402  23.267   0.411
34557W        W 6817   9.952  29.154   1.200
34558W        W 6818  41.056  38.263  11.572
34559W        W 6819  31.880  27.551  11.403
34560W        W 6820  10.568   1.352  14.099
34561W        W 6821  37.879  26.674   2.387
34562W        W 6822  33.388  39.075   4.166
34563W        W 6823   6.421  11.829  11.139
34564W        W 6824  15.695  18.473   2.242
34565W        W 6825  32.215  44.687  14.069
34566W        W 6826   6.120  44.512   3.622
34567W        W 6827  29.295  21.553  14.548
34568W        W 6828  28.687   4.957   2.134
34569W        W 6829   9.768   3.724   2.208
34570W        W 6830  17.534   6.740  10.497
34571W        W 6831  14.773  29.159   4.609
34572W        W 6832  33.337  17.152   2.835
34573W        W 6833  43.378  38.151   3.363
34574W        W 6834  24.715   7.306   0.811
34575W        W 6835  15.662  10.369   2.607
34576W        W 6836  22.195   3.434  12.054
34577W        W 6837   6.421  34.982   0.361
34578W        W 6838  23.645  19.483   9.702
34579W        W 6839   2.682  13.406  12.012
34580W        W 6840  34.144   2.765  12.479
34581W        W 6841  41.415   8.903  10.701
34582W        W 6842  35.869   8.297   2.244
34583W        W 6843  17.821   5.321   2.417
34584W        W 6844  24.850  15.702  10.738
34585W        W 6845   0.127  16.018   0.287
34586W        W 6846  41.997  37.824  12.537
34587W        W 6847   7.927  24.031  14.777
34588W        W 6848  28.081  43.805  13.857
34589W        W 6849  32.274  36.791  14.350
34590W        W 6850  35.477  37.232  11.125
34591W        W 6851  19.157  11.861  12.499
34592W        W 6852  42.772  44.807   2.936
34593W        W 6853  42.749   5.473  14.802
34594W        W 6854  31.256  42.911   4.201
34595W        W 6855  29.891   1.986   3.931
34596W        W 6856  20.060  10.107  11.993
34597W        W 6857  13.411  31.906  14.132
34598W        W 6858  39.985  18.571   0.977
34599W        W 6859  28.688  26.403   0.227
34600W        W 6860  20.715  37.929  11.465
34601W        W 6861  28.615  10.555   2.231
34602W        W 6862  39.559  33.607  12.560
34603W        W 6863  30.348   8.639   0.193
34604W        W 6864  41.433  42.720   0.215
34605W        W 6865  37.831  29.903  12.956
34606W        W 6866  33.575  26.464   0.618
34607W        W 6867  12.281  23.249   4.685
34608W        W 6868   5.262  42.805   0.261
34609W        W 6869  39.016  25.505  13.521
34610W        W 6870  11.357  33.596  14.443
34611W        W 6871   9.135   3.731   0.890
34612W        W 6872  30.965  44.749  10.520
34613W        W 6873  19.602   7.325   4.770
34614W        W 6874  24.621   7.313   4.588
34615W        W 6875  22.359  39.906   2.788
34616W        W 6876  27.940  22.589   3.899
34617W        W 6877  32.933   7.312  12.177
34618W        W 6878  16.113   5.367   1.244
34619W        W 6879  33.542  26.588  14.671
34620W        W 6880  25.214  29.011   0.006
34621W        W 6881  37.660   0.536  12.482
34622W        W 6882  32.347  33.317  14.938
34623W        W 6883  41.797   4.190   4.382
34624W        W 6884  31.092   0.717  13.209
34625W        W 6885   3.540  29.081  10.686
34626W        W 6886  28.323   4.124   3.822
34627W        W 6887   8.407  13.633   4.225
34628W        W 6888  42.301  43.412  12.183
34629W        W 6889  21.776  37.470   1.989
34630W        W 6890  42.893  20.155  13.021
34631W        W 6891  30.261  14.909   0.477
34632W        W 6892   9.679  34.883  10.574
34633W        W 6893  31.959  29.078   2.619
34634W        W 6894   0.181   0.771   1.899
34635W        W 6895  40.105  37.664   3.710
34636W        W 6896  14.786  11.212  12.121
34637W        W 6897  41.021  14.301  13.249
34638W        W 6898  26.456   9.513   1.236
34639W        W 6899  34.206  40.715  11.050
34640W        W 6900  11.773  13.770  13.771
34641W        W 6901  37.279  44.395   3.948
34642W        W 6902  10.387   9.204   0.979
34643W        W 6903  32.866  22.212  13.042
34644W        W 6904  34.042  36.401   3.768
34645W        W 6905  29.371  34.016  14.877
34646W        W 6906  39.306   9.113  12.022
34647W        W 6907  30.884  19.637  12.087
34648W        W 6908  13.908  36.958   2.565
34649W        W 6909  12.647  21.149  13.804
34650W        W 6910  34.978   3.158  13.778
34651W        W 6911  17.776  37.569  11.099
34652W        W 6912  24.804  36.454   4.159
34653W        W 6913  11.336  41.197   0.236
34654W        W 6914  31.087  25.587   0.244
34655W        W 6915  12.190  44.502   4.587
34656W        W 6916  19.007  43.354   0.373
34657W        W 6917  27.304  20.334  11.869
34658W        W 6918   5.873   1.408  14.447
34659W        W 6919  42.914  13.807   3.883
34660W        W 6920   8.824   3.759   2.174
34661W        W 6921  18.214   6.673   2.182
34662W        W 6922  37.861  11.112   4.482
34663W        W 6923  34.003  24.156  14.008
34664W        W 6924  20.275  41.783  13.851
34665W        W 6925  20.553   6.275  11.048
34666W        W 6926  33.843  21.486   2.709
34667W        W 6927   4.370  31.080  12.610
34668W        W 6928  36.920  37.256   4.188
34669W        W 6929  23.476   3.924  10.767
34670W        W 6930  36.103  10.116   2.900
34671W        W 6931  36.765  31.082   1.245
34672W        W 6932  25.359   5.459   1.962
34673W        W 6933   4.445   0.790   1.388
34674W        W 6934   7.715  30.101   0.793
34675W        W 6935   9.485   6.632  12.584
34676W        W 6936  24.422  41.401  12.920
34677W        W 6937  41.046  24.032  14.950
34678W        W 6938  17.633   7.625  14.466
34679W        W 6939  42.779  34.926  14.524
34680W        W 6940  40.018  12.812  13.923
34681W        W 6941  40.474  21.570   2.080
34682W        W 6942  31.903  29.707  13.876
34683W        W 6943  22.547  10.314   2.843
34684W        W 6944  11.242  32.713   0.751
34685W        W 6945  21.895  28.017  13.004
34686W        W 6946  15.460  12.357   3.109
34687W        W 6947   0.373  19.965  11.525
34688W        W 6948  32.539   5.675   4.568
34689W        W 6949  17.477  40.402   1.393
34690W        W 6950  23.752  29.973  12.757
34691W        W 6951  42.880  40.272   3.235
34692W        W 6952  17.640  11.937   0.421
34693W        W 6953  12.598  24.504  13.446
34694W        W 6954  21.651  36.761   1.497
34695W        W 6955  36.573  41.818  11.473
34696W        W 6956  34.999  10.874   3.125
34697W        W 6957  11.885  16.305  12.564
34698W        W 6958  21.376  29.914  11.161
34699W        W 6959  13.194   1.994   1.433
34700W        W 6960  22.238  39.968  13.893
34701W        W 6961  34.970  10.103  10.381
34702W        W 6962  13.227   9.826  12.087
34703W        W 6963  42.597  32.068  13.463
34704W        W 6964  20.578  11.191  13.519
34705W        W 6965  31.483  35.542  14.886
34706W        W 6966  15.660  14.894  12.610
34707W        W 6967  38.067  34.991  13.218
34708W        W 6968  44.537  16.189   3.740
34709W        W 6969  10.252  15.292   3.607
34710W        W 6970  15.135  30.098   3.322
34711W        W 6971  29.649  16.731   2.796
34712W        W 6972  35.010   1.385  11.007
34713W        W 6973  26.121  41.706  14.771
34714W        W 6974   8.354  21.066  10.484
34715W        W 6975  37.600  13.056  14.710
34716W        W 6976  32.989  34.116   1.184
34717W        W 6977  20.288  33.460   3.217
34718W        W 6978  34.023  12.494   2.051
34719W        W 6979  26.892  10.924  13.320
34720W        W 6980  32.376  22.719   3.107
34721W        W 6981   1.204   5.363   3.156
34722W        W 6982  36.250  15.341  12.525
34723W        W 6983  40.422   3.824   3.152
34724W        W 6984  13.310  24.605   1.169
34725W        W 6985  40.195  14.614  12.026
34726W        W 6986  34.167  35.381   1.600
34727W        W 6987  38.865  29.287  11.474
34728W        W 6988  36.014  33.522   1.925
34729W        W 6989  16.413  40.827  12.124
34730W        W 6990  42.749  14.141  12.171
34731W        W 6991  22.155  24.825  12.352
34732W        W 6992  15.715  43.557   1.772
34733W        W 6993  41.333  12.157   0.243
34734W        W 6994   1.932  20.666   2.765
34735W        W 6995   1.752  29.729  13.399
34736W        W 6996   9.158  23.835   3.201
34737W        W 6997  41.772  25.096   3.291
34738W        W 6998  36.109  34.047  10.841
34739W        W 6999  30.353  33.590   1.702
34740W        W 7000  42.409  20.650  11.914
34741W        W 7001   1.355  33.495   4.658
34742W        W 7002   6.875   1.007  10.482
34743W        W 7003  38.943  26.681  13.954
34744W        W 7004   9.421   9.200   0.973
34745W        W 7005  34.422  38.086   2.599
34746W        W 7006  14.627  24.414   0.950
34747W        W 7007  27.102  40.685   3.424
34748W        W 7008  22.390  29.066  10.544
34749W        W 7009  31.095   9.235   1.152
34750W        W 7010  26.327  33.888   3.581
34751W        W 7011  12.472   3.720   0.328
34752W        W 7012  22.637  35.971   4.443
34753W        W 7013  24.250  16.682   4.081
34754W        W 7014  16.840   3.773   0.955
34755W        W 7015  23.201   0.897  13.932
34756W        W 7016  14.601  19.376   1.711
34757W        W 7017  28.547  38.964  12.017
34758W        W 7018  14.105  12.413   3.611
34759W        W 7019  11.295  29.108   0.401
34760W        W 7020  13.317  29.206   4.304
34761W        W 7021  40.874  11.222  12.156
34762W        W 7022  30.896  29.202  13.069
34763W        W 7023  21.811  28.686   1.127
34764W        W 7024   8.181  28.434   4.764
34765W        W 7025  43.900  33.507   4.614
34766W        W 7026  29.939  18.134   4.540
34767W        W 7027  36.138  32.675  13.792
34768W        W 7028  41.030   9.725  11.104
34769W        W 7029  36.756   2.199   2.659
34770W        W 7030   1.899   2.355  12.470
34771W        W 7031  23.633  20.954  12.898
34772W        W 7032   1.989  12.335   2.373
34773W        W 7033   5.403  26.126   1.747
34774W        W 7034  13.679  18.814  10.859
34775W        W 7035  19.965  41.925   3.759
34776W        W 7036   4.198  16.808   2.853
34777W        W 7037  14.800  16.659  14.369
34778W        W 7038  43.639  39.908   1.773
34779W        W 7039   0.306  36.652   0.944
34780W        W 7040   1.983  27.561   1.811
34781W        W 7041   6.675   9.746   1.872
34782W        W 7042  13.479  32.346   3.660
34783W        W 7043  11.308  23.896  11.090
34784W        W 7044  18.389  24.494  13.546
34785W        W 7045   4.350   9.423  13.101
34786W        W 7046  37.597  25.998   0.814
34787W        W 7047  33.941  21.488  11.578
34788W        W 7048  16.109  35.175   4.075
34789W        W 7049  24.217   9.765   3.330
34790W        W 7050  14.586   6.881   4.629
34791W        W 7051  41.788  34.333  12.924
34792W        W 7052  27.163  15.819  11.733
34793W        W 7053  42.379  36.414  11.636
34794W        W 7054   4.726  20.145   1.270
34795W        W 7055  16.500   3.717   4.238
34796W        W 7056  13.681   0.836   4.327
34797W        W 7057  39.517  40.130   0.801
34798W        W 7058  43.204  23.154   2.697
34799W        W 7059   9.797  34.387   1.340
34800W        W 7060  33.317  24.910  10.985
34801W        W 7061   8.109  30.770  12.545
34802W        W 7062  28.662  28.497  14.795
34803W        W 7063  36.768  18.296   4.538
34804W        W 7064   8.005  21.117   0.261
34805W        W 7065   8.259   5.275  11.488
34806W        W 7066  10.410  42.872   4.617
34807W        W 7067  10.289   5.855   4.184
34808W        W 7068   1.453  34.247  12.758
34809W        W 7069  18.215  23.665   0.341
34810W        W 7070   6.434  30.646   2.324
34811W        W 7071  25.232  24.700   0.251
34812W        W 7072   4.724  20.581  12.677
34813W        W 7073  23.925  10.082  11.541
34814W        W 7074  15.538  17.057   4.994
34815W        W 7075   7.668  41.542   1.698
34816W        W 7076   3.802  21.426   5.212
34817W        W 7077   2.467  32.870  11.513
34818W        W 7078  32.543   1.477  14.457
34819W        W 7079  32.362  14.561  13.845
34820W        W 7080  24.251  32.652   4.626
34821W        W 7081  27.711  41.482   4.625
34822W        W 7082  12.204  36.359   0.966
34823W        W 7083  15.308  29.703   5.124
34824W        W 7084   3.904  16.899  12.923
34825W        W 7085  37.109  35.915  10.647
34826W        W 7086  14.217  12.608  10.617
34827W        W 7087  39.417  28.832  14.104
34828W        W 7088  36.391  20.217   0.908
34829W        W 7089  33.638   2.981  14.831
34830W        W 7090  31.891  26.120   1.555
34831W        W 7091   8.108   3.826   2.839
34832W        W 7092  19.223  19.607  10.416
34833W        W 7093  32.175  17.372  14.281
34834W        W 7094  37.780  22.039  14.373
34835W        W 7095  24.241  28.040   3.118
34836W        W 7096  40.843  11.390  12.998
34837W        W 7097   7.909  34.589   2.268
34838W        W 7098  42.591  13.865  14.995
34839W        W 7099   9.849  39.371  13.759
34840W        W 7100  38.599  24.052   2.870
34841W        W 7101   5.835  10.636   2.850
34842W        W 7102  29.730   8.144  13.565
34843W        W 7103  18.179  27.956   0.013
34844W        W 7104   2.047   9.269   1.923
34845W        W 7105  35.519  20.617   4.323
34846W        W 7106  38.908  15.540   3.053
34847W        W 7107  31.169  19.623   0.725
34848W        W 7108  39.087  24.483  11.912
34849W        W 7109  16.963  26.347   3.675
34850W        W 7110  43.544  36.896  13.483
34851W        W 7111   4.652  25.626   3.651
34852W        W 7112   3.140  23.108   1.720
34853W        W 7113   6.523  14.353   4.998
34854W        W 7114   1.202  37.390   2.715
34855W        W 7115  41.456  19.133  12.994
34856W        W 7116  36.016  19.811   1.834
34857W        W 7117  27.384  20.837  12.538
34858W        W 7118  24.520   1.887   2.125
34859W        W 7119  31.940   4.261   2.526
34860W        W 7120   1.953  11.827  13.801
34861W        W 7121  23.229   0.589  12.548
34862W        W 7122  11.316   0.304   3.590
34863W        W 7123  25.202  34.199   3.676
34864W        W 7124  34.173   6.459   0.322
34865W        W 7125  18.807  19.704   1.811
34866W        W 7126  30.982  34.034  14.261
34867W        W 7127  17.051   1.889   0.856
34868W        W 7128  27.137  17.687   3.259
34869W        W 7129   1.728   2.422  10.980
34870W        W 7130  11.303   0.936  12.504
34871W        W 7131  14.697  43.836  14.342
34872W        W 7132   1.887  19.265  13.341
34873W        W 7133   3.783   2.660   1.268
34874W        W 7134   1.644   2.060   4.255
34875W        W 7135  28.188  37.103   2.873
34876W        W 7136  14.341   7.609  14.417
34877W        W 7137   9.937  20.596  13.595
34878W        W 7138  35.077   2.487  11.577
34879W        W 7139  17.779  39.798  11.591
34880W        W 7140  11.367  29.207   1.305
34881W        W 7141  39.908  37.016   2.086
34882W        W 7142  39.994  22.726  12.360
34883W        W 7143   6.878  26.240  11.698
34884W        W 7144  22.220  18.534  14.558
34885W        W 7145   8.253  22.485   1.872
34886W        W 7146  33.931  32.452  10.423
34887W        W 7147  43.267  44.710  14.212
34888W        W 7148   1.344  11.567   4.818
34889W        W 7149  15.176  22.041   3.173
34890W        W 7150   0.003  11.850  10.700
34891W        W 7151  19.116  21.672   2.432
34892W        W 7152  17.859  18.575   0.791
34893W        W 7153  24.272  33.101   1.899
34894W        W 7154  25.676  42.806   0.503
34895W        W 7155   7.618  41.077  13.896
34896W        W 7156  17.050  13.569   3.803
34897W        W 7157   6.884  40.850   0.411
34898W        W 7158  26.811  33.842   4.195
34899W        W 7159  33.448   8.798  12.418
34900W        W 7160  18.230   3.035  14.020
34901W        W 7161  29.351  12.435  12.095
34902W        W 7162  41.015  20.501   0.230
34903W        W 7163  11.155   8.965   1.214
34904W        W 7164  35.385  21.908  10.808
34905W        W 7165   2.780  32.992  10.675
34906W        W 7166  42.541  35.649   1.003
34907W        W 7167  39.302  32.558  11.555
34908W        W 7168  29.531  32.892   2.325
34909W        W 7169   2.455   2.600  10.587
34910W        W 7170  12.496   0.384  11.147
34911W        W 7171  26.081  31.843   3.194
34912W        W 7172  13.779  23.730  14.344
34913W        W 7173   6.740  36.930  14.931
34914W        W 7174  37.009  34.310  13.549
34915W        W 7175  10.199  22.748  13.384
34916W        W 7176  26.838   0.761   3.084
34917W        W 7177  36.059  37.370   5.186
34918W        W 7178  27.796  12.693   2.180
34919W        W 7179   5.451  32.312  14.399
34920W        W 7180  12.000  15.861  14.629
34921W        W 7181  14.871  43.861   0.269
34922W        W 7182   5.211  24.247   2.694
34923W        W 7183  10.569  25.047   3.568
34924W        W 7184  24.519   8.622  14.295
34925W        W 7185  23.453   9.288   0.660
34926W        W 7186  15.808  21.567  12.044
34927W        W 7187  39.686  33.412  11.606
34928W        W 7188   1.896   5.709  14.896
34929W        W 7189  16.292  28.000   4.680
34930W        W 7190  29.320  17.690  13.995
34931W        W 7191   3.773  26.056   0.030
34932W        W 7192  34.635  26.629   4.779
34933W        W 7193  26.873  35.449  10.728
34934W        W 7194  22.563  14.901  14.337
34935W        W 7195  42.089   4.016   3.387
34936W        W 7196  36.557  36.680   0.585
34937W        W 7197  43.850  37.401  14.390
34938W        W 7198   2.453  33.914  11.117
34939W        W 7199  11.323  25.621   2.409
34940W        W 7200  36.711   1.378  14.515
34941W        W 7201  34.338  40.619  14.003
34942W        W 7202  29.865  15.240   2.823
34943W        W 7203  39.450  36.076   4.816
34944W        W 7204  15.480  10.435   3.727
34945W        W 7205  22.508  22.655  11.141
34946W        W 7206  18.231  19.064  13.008
34947W        W 7207  15.410  36.000   4.611
34948W        W 7208  37.422  44.679  11.054
34949W        W 7209  32.085  14.751   3.240
34950W        W 7210  25.248  34.540   3.213
34951W        W 7211  11.697   8.845  14.481
34952W        W 7212   1.184  11.212   0.024
34953W        W 7213  34.520  36.461  12.964
34954W        W 7214  24.256  18.083   0.968
34955W        W 7215   1.804  14.208   4.282
34956W        W 7216  30.670  25.627  13.511
34957W        W 7217   8.781  28.634   0.433
34958W        W 7218   9.343  18.063  10.698
34959W        W 7219  30.102  21.106   0.025
34960W        W 7220  13.216  33.264   4.184
34961W        W 7221   8.695  42.354   3.312
34962W        W 7222  20.120  37.108   3.280
34963W        W 7223  10.373   1.478   1.287
34964W        W 7224  34.276  21.040  12.062
34965W        W 7225  19.326   9.006  11.105
34966W        W 7226  42.409  25.918   1.300
34967W        W 7227   9.869  41.369  13.999
34968W        W 7228   0.889  37.833   4.997
34969W        W 7229  39.820  22.104  13.985
34970W        W 7230  20.056  39.022  11.151
34971W        W 7231  10.759  32.080   3.328
34972W        W 7232   3.304  25.493   4.577
34973W        W 7233  44.509  40.257  13.491
34974W        W 7234  11.421  26.515   3.247
34975W        W 7235  32.892  23.336   2.302
34976W        W 7236  25.219   8.765   1.653
34977W        W 7237  30.537  29.272   3.616
34978W        W 7238  30.720  25.666   2.595
34979W        W 7239  28.066  26.182   2.215
34980W        W 7240   4.706  25.172   2.883
34981W        W 7241  19.359  25.026  10.659
34982W        W 7242  12.826  33.007  11.723
34983W        W 7243  41.261   4.787  11.589
34984W        W 7244  40.246  25.812   0.186
34985W        W 7245  30.510   7.303  10.800
34986W        W 7246  44.279  44.738   1.823
34987W        W 7247  16.608  16.358  13.487
34988W        W 7248  38.067  14.730   3.170
34989W        W 7249   7.177   8.121   4.448
34990W        W 7250  44.100  20.692  14.554
34991W        W 7251   8.224  30.305  10.717
34992W        W 7252   0.907  33.380  12.615
34993W        W 7253  30.118  10.158  12.071
34994W        W 7254  41.987  21.017   0.866
34995W        W 7255  16.672   6.719  10.634
34996W        W 7256  25.428  39.393  11.577
34997W        W 7257  32.931  25.112  11.610
34998W        W 7258  43.450   5.930  13.508
34999W        W 7259  27.125  33.863  11.639
35000W        W 7260   5.543  38.311   0.340
35001W        W 7261  31.379  20.489   4.077
35002W        W 7262  42.047  40.580  11.390
35003W        W 7263   6.707  19.660  13.357
35004W        W 7264  10.828  19.017  14.462
35005W        W 7265  12.410  29.632   4.598
35006W        W 7266   4.445  33.911  14.385
35007W        W 7267  31.276  31.519   2.857
35008W        W 7268  32.588  39.482   0.442
35009W        W 7269   1.655   3.888  11.663
35010W        W 7270  34.528  39.515   2.681
35011W        W 7271  15.322  34.314  13.634
35012W        W 7272   1.053  24.376  13.826
35013W        W 7273  14.727  35.471  11.446
35014W        W 7274  33.600  22.885   4.937
35015W        W 7275  15.684   6.860  14.818
35016W        W 7276   3.850  12.868   0.432
35017W        W 7277  18.234  20.436   2.727
35018W        W 7278  32.976  35.879  13.459
35019W        W 7279  28.965  24.305  12.229
35020W        W 7280   5.475   5.925   0.821
35021W        W 7281  40.561  30.661   0.019
35022W        W 7282  30.010  41.169  11.987
35023W        W 7283   5.559  16.611  11.662
35024W        W 7284  13.602  16.998   3.878
35025W        W 7285   7.757  25.216   1.644
35026W        W 7286  13.184  10.817   2.670
35027W        W 7287  41.991  23.824  14.769
35028W        W 7288   2.293  11.167  11.833
35029W        W 7289  39.966  40.948  13.476
35030W        W 7290  41.258  41.116   0.901
35031W        W 7291  44.787   1.367  11.667
35032W        W 7292  13.197  40.447  11.574
35033W        W 7293   4.199   2.287  12.397
35034W        W 7294  41.203  14.061  12.815
35035W        W 7295  26.240  42.785  13.947
35036W        W 7296  28.695  14.799   3.339
35037W        W 7297  44.896  44.746  14.731
35038W        W 7298  26.269  22.965  12.922
35039W        W 7299  31.238  17.057   4.425
35040W        W 7300  11.404  30.075   2.660
35041W        W 7301  35.884   6.723  11.158
35042W        W 7302  32.563  42.966  14.112
35043W        W 7303  14.267  33.174  12.302
35044W        W 7304  21.852   5.395  10.611
35045W        W 7305  10.062  28.529   0.006
35046W        W 7306  38.326   4.265   0.280
35047W        W 7307  44.210  10.904  10.415
35048W        W 7308  29.770  17.015   2.378
35049W        W 7309  18.140   8.684   4.163
35050W        W 7310  34.428  10.799   3.692
35051W        W 7311   2.681   6.789  12.456
35052W        W 7312   3.828  32.502  11.986
35053W        W 7313  27.493  32.805  11.040
35054W        W 7314  30.615  42.353  11.615
35055W        W 7315  39.294  39.826  13.208
35056W        W 7316  42.253  24.561   4.548
35057W        W 7317  33.549   7.200   1.880
35058W        W 7318  15.871  20.250   3.160
35059W        W 7319  16.288  24.667  12.939
35060W        W 7320  17.242  22.113  14.456
35061W        W 7321  37.954  27.039  11.655
35062W        W 7322  27.651  35.364   1.329
35063W        W 7323   0.851  13.922  13.337
35064W        W 7324  10.671  36.913  11.990
35065W        W 7325  38.078  23.590  14.322
35066W        W 7326  25.043  17.051   1.421
35067W        W 7327  32.926  37.260  11.622
35068W        W 7328  42.870  20.182  12.472
35069W        W 7329   7.773   8.178  10.767
35070W        W 7330  36.503  15.298  12.029
35071W        W 7331  36.792  38.963   0.296
35072W        W 7332  43.513  38.084   4.675
35073W        W 7333  38.890   0.641   3.305
35074W        W 7334  44.005  41.999   3.604
35075W        W 7335  22.833  30.408  14.773
35076W        W 7336  23.019  27.194   0.955
35077W        W 7337  34.519  41.041  12.567
35078W        W 7338  20.225  24.034  14.791
35079W        W 7339  11.318  36.665  13.870
35080W        W 7340  42.283  39.795  12.979
35081W        W 7341   9.499  41.505   2.743
35082W        W 7342   2.848  11.577  11.490
35083W        W 7343  37.480  17.758   2.120
35084W        W 7344  40.489   1.894  12.980
35085W        W 7345  28.565  35.900  12.010
35086W        W 7346   8.135  27.729   2.589
35087W        W 7347  15.390   9.846  10.801
35088W        W 7348  29.784  11.984  12.885
35089W        W 7349  28.961  23.983  11.488
35090W        W 7350  38.286   3.847   3.307
35091W        W 7351  41.600   1.787  11.426
35092W        W 7352  38.448  11.281  13.494
35093W        W 7353  34.453  12.750   4.643
35094W        W 7354  21.308  30.889  12.358
35095W        W 7355   4.815  34.566   2.388
35096W        W 7356  43.063  13.665   2.425
35097W        W 7357   5.986   4.727   0.957
35098W        W 7358  19.532  42.770   1.427
35099W        W 7359   7.286  12.550   0.793
35100W        W 7360   0.655  28.466  10.591
35101W        W 7361  17.244  40.465  10.501
35102W        W 7362  29.172  37.566  13.236
35103W        W 7363  12.563  33.165  14.839
35104W        W 7364  37.757   6.160  12.062
35105W        W 7365   4.843  28.883  12.640
35106W        W 7366  38.111   8.647  14.352
35107W        W 7367   7.300  43.817   3.051
35108W        W 7368   2.544  31.544  13.403
35109W        W 7369  39.996  28.453   4.622
35110W        W 7370  23.051   6.785  11.580
35111W        W 7371  35.868  34.225   2.415
35112W        W 7372  22.947  38.435  13.357
35113W        W 7373  17.109  21.102   2.280
35114W        W 7374  27.349  15.345   3.149
35115W        W 7375   9.569  39.184   0.448
35116W        W 7376  18.399  44.458   3.916
35117W        W 7377  44.464  38.078   3.391
35118W        W 7378  44.558  15.594   4.204
35119W        W 7379  26.305  39.271  10.982
35120W        W 7380  39.768  13.211   1.402
35121W        W 7381   9.054  25.012   0.010
35122W        W 7382  38.124  36.039  10.682
35123W        W 7383   0.411  38.801  13.006
35124W        W 7384  11.827  44.224   1.664
35125W        W 7385   9.170   2.501   4.349
35126W        W 7386  16.306   0.029   1.716
35127W        W 7387  18.798  33.077  12.041
35128W        W 7388  26.251   1.505  12.325
35129W        W 7389   2.952  15.670  11.671
35130W        W 7390  15.662  35.893   4.195
35131W        W 7391  16.878  37.277  12.123
35132W        W 7392  40.358  35.429  13.061
35133W        W 7393  31.667  17.157   0.950
35134W        W 7394  38.488  26.384   3.690
35135W        W 7395  44.191  20.101  14.808
35136W        W 7396  30.557  44.036  13.394
35137W        W 7397  31.444   5.862   0.208
35138W        W 7398   7.378   6.684   0.716
35139W        W 7399  40.799  28.450  13.994
35140W        W 7400  20.676  19.542   5.444
35141W        W 7401   1.187  32.453  12.975
35142W        W 7402   7.371  43.875  14.562
35143W        W 7403   7.370  26.577  13.248
35144W        W 7404  15.701  23.519   3.014
35145W        W 7405   3.347  30.510  10.930
35146W        W 7406  20.085  36.181  11.129
35147W        W 7407  34.427  11.023  14.302
35148W        W 7408  42.986  43.251   5.218
35149W        W 7409  39.453   3.881   4.131
35150W        W 7410  33.802  36.346  11.596
35151W        W 7411  29.527  40.385  13.583
35152W        W 7412  23.016  14.183  13.987
35153W        W 7413  25.551  18.015   0.072
35154W        W 7414  16.730   9.790   4.795
35155W        W 7415  26.188  41.867  12.937
35156W        W 7416   6.505   0.957  14.017
35157W        W 7417  17.097   5.209  11.527
35158W        W 7418  13.855  22.176  11.738
35159W        W 7419  11.838  17.387   4.200
35160W        W 7420   9.795  43.270  13.582
35161W        W 7421  31.487   8.803   1.185
35162W        W 7422   5.698   2.740   2.145
35163W        W 7423  17.168  33.068   4.656
35164W        W 7424  11.610   9.267  13.510
35165W        W 7425  42.854  37.131  10.599
35166W        W 7426  29.471   5.729   0.944
35167W        W 7427  20.139  44.846   0.846
35168W        W 7428  38.923  25.759   3.674
35169W        W 7429   2.732  14.726   1.883
35170W        W 7430  12.179  28.171  12.001
35171W        W 7431  42.323  22.717  14.302
35172W        W 7432  20.719   7.961   1.228
35173W        W 7433  14.742  10.290  14.454
35174W        W 7434  39.056   5.588   1.455
35175W        W 7435  19.900  23.857  12.085
35176W        W 7436  23.628  36.406   2.474
35177W        W 7437   1.396   9.304   3.634
35178W        W 7438  43.764  13.729   3.408
35179W        W 7439  19.896  12.569   1.002
35180W        W 7440  18.711  33.631   1.689
35181W        W 7441  41.296   8.835  12.007
35182W        W 7442  43.789  12.645  13.789
35183W        W 7443  17.656   7.360  14.013
35184W        W 7444  10.811  24.083  11.489
35185W        W 7445  12.127  10.146   1.429
35186W        W 7446  42.782  37.798   0.328
35187W        W 7447  41.425  39.534   4.670
35188W        W 7448   6.441  35.550  13.920
35189W        W 7449  22.162  23.583  14.015
35190W        W 7450   3.518  40.284   5.099
35191W        W 7451  20.613   9.679   0.441
35192W        W 7452  11.262  15.408   1.365
35193W        W 7453  27.479  30.977   1.453
35194W        W 7454   3.800  11.651   2.345
35195W        W 7455  43.730   1.623   2.318
35196W        W 7456  38.258  12.291   1.142
35197W        W 7457  25.205   8.019  10.895
35198W        W 7458  27.940  31.645   4.563
35199W        W 7459  28.721  14.667   0.324
35200W        W 7460   0.207  38.742  14.924
35201W        W 7461  15.411  23.471  11.215
35202W        W 7462  14.267  14.727  12.797
35203W        W 7463  12.100  35.954  12.909
35204W        W 7464  25.182  42.925   1.830
35205W        W 7465   4.178   2.922  11.596
35206W        W 7466   5.890  25.493   4.110
35207W        W 7467  40.671  17.212  12.685
35208W        W 7468  14.147   0.380   1.039
35209W        W 7469  15.705  42.961   3.592
35210W        W 7470  36.626  15.850  12.074
35211W        W 7471  23.822  22.874   2.748
35212W        W 7472  27.159  39.652  13.047
35213W        W 7473  28.564  13.554   3.568
35214W        W 7474  21.282  28.784  14.858
35215W        W 7475   9.186  38.358   2.354
35216W        W 7476  19.348   5.885  11.401
35217W        W 7477  35.379  34.358   2.674
35218W        W 7478  19.789  16.800  13.974
35219W        W 7479  35.394  23.058   2.290
35220W        W 7480   5.662  21.137   4.683
35221W        W 7481   6.679  35.988  12.877
35222W        W 7482   1.810  25.139  14.979
35223W        W 7483  14.245   6.462  14.793
35224W        W 7484  35.226   3.253  11.995
35225W        W 7485  32.525  34.899   2.701
35226W        W 7486  27.617  34.374   0.429
35227W        W 7487  21.976   2.180   3.816
35228W        W 7488  28.649   0.401  10.767
35229W        W 7489  44.580   2.915  10.167
35230W        W 7490  20.312   2.395  14.377
35231W        W 7491  23.791  29.074  11.605
35232W        W 7492  33.084  39.865  13.024
35233W        W 7493   7.935   1.982  12.256
35234W        W 7494  40.469  40.560   1.052
35235W        W 7495  27.605   0.549   2.363
35236W        W 7496  42.469  28.060   3.215
35237W        W 7497  20.290  34.472  10.665
35238W        W 7498  21.536   8.650   0.281
35239W        W 7499  34.854  39.560   2.265
35240W        W 7500  38.053   7.629   0.709
35241W        W 7501  19.133  25.520  14.416
35242W        W 7502  30.949  28.471  13.358
35243W        W 7503  40.404  44.059   0.384
35244W        W 7504  43.289  35.384   2.247
35245W        W 7505  14.195  21.576   4.181
35246W        W 7506  22.165  35.522  12.170
35247W        W 7507   1.522  44.229  11.168
35248W        W 7508  20.060   7.849   2.900
35249W        W 7509   2.113  37.546   2.671
35250W        W 7510  15.693  12.921  13.586
35251W        W 7511  25.388  21.987   2.293
35252W        W 7512  16.947  43.568  14.001
35253W        W 7513  41.512  26.372   1.340
35254W        W 7514  21.085   6.876   2.153
35255W        W 7515   8.720  21.874   0.162
35256W        W 7516  12.216   6.460   3.725
35257W        W 7517  11.248   7.393  11.151
35258W        W 7518  28.295  19.226   3.161
35259W        W 7519  43.923  39.473   0.678
35260W        W 7520   6.340   6.449   4.361
35261W        W 7521  30.951   7.279   5.027
35262W        W 7522   6.967  36.618   1.364
35263W        W 7523  11.652   4.710   0.852
35264W        W 7524   4.214  43.601   2.166
35265W        W 7525  27.042   4.187   3.264
35266W        W 7526  12.373  41.792   0.034
35267W        W 7527  31.924  34.872   0.528
35268W        W 7528  10.742   0.691   1.852
35269W        W 7529  31.131  32.780   2.972
35270W        W 7530  44.876  11.202  12.437
35271W        W 7531  17.388   9.720   0.440
35272W        W 7532  39.422  37.857   1.344
35273W        W 7533  28.451  38.816  13.931
35274W        W 7534  42.234   7.905  11.175
35275W        W 7535   1.734  10.912  12.956
35276W        W 7536  35.544  39.845   4.215
35277W        W 7537  20.534  19.678  13.502
35278W        W 7538  40.136  40.850   1.444
35279W        W 7539   5.825  44.052   1.754
35280W        W 7540  44.894  22.805   1.823
35281W        W 7541  20.981  30.597   3.606
35282W        W 7542  32.595  27.776   0.448
35283W        W 7543  29.999  19.795  12.736
35284W        W 7544  42.167   0.232  12.996
35285W        W 7545  28.051  24.210   1.380
35286W        W 7546  38.907   8.227   4.877
35287W        W 7547  38.981  27.415  14.369
35288W        W 7548   8.043  42.897   3.735
35289W        W 7549  33.506  11.529   0.946
35290W        W 7550  44.876  24.590  14.759
35291W        W 7551  32.472  36.144   3.659
35292W        W 7552  41.960  26.669   4.700
35293W        W 7553  42.993  22.248  12.160
35294W        W 7554  23.849  13.091  14.857
35295W        W 7555   0.966  28.356  14.311
35296W        W 7556  17.855  31.166  14.757
35297W        W 7557  44.129  36.416   4.569
35298W        W 7558  33.080  26.751  10.566
35299W        W 7559   5.952  31.520  11.402
35300W        W 7560  39.685  16.242  12.555
35301W        W 7561   8.819  16.736  11.581
35302W        W 7562   7.642  23.050   0.833
35303W        W 7563  36.343   6.724  14.878
35304W        W 7564  11.406  27.877   4.163
35305W        W 7565  19.551  41.385  11.283
35306W        W 7566  41.503   1.274  11.393
35307W        W 7567  12.789  17.228  12.731
35308W        W 7568   9.871  30.909  13.903
35309W        W 7569  15.644  20.692   1.381
35310W        W 7570   0.506  35.826  10.939
35311W        W 7571  21.263  44.442   0.778
35312W        W 7572  29.458  24.992   4.399
35313W        W 7573  11.807   9.363   2.296
35314W        W 7574  15.111  18.791  13.899
35315W        W 7575   2.731  18.064  10.685
35316W        W 7576  30.856   2.415  11.923
35317W        W 7577   4.441  36.568  13.601
35318W        W 7578  42.500  25.579  11.482
35319W        W 7579   3.645  15.201   0.732
35320W        W 7580  33.169   3.962  13.558
35321W        W 7581  40.202   5.641  12.123
35322W        W 7582  38.485  15.561   4.576
35323W        W 7583  29.657  12.623  12.482
35324W        W 7584  24.567  30.867   0.583
35325W        W 7585   0.707   6.690   4.142
35326W        W 7586  15.060   0.186   1.407
35327W        W 7587   3.022  17.690   1.745
35328W        W 7588  18.725  38.544   0.406
35329W        W 7589  41.294  16.379  13.783
35330W        W 7590  33.617  42.734   0.008
35331W        W 7591  42.640  15.576  14.461
35332W        W 7592   4.174  10.294  10.626
35333W        W 7593  30.316  12.720   3.919
35334W        W 7594  28.033  24.546   0.569
35335W        W 7595   3.010   4.436   2.865
35336W        W 7596  10.103  44.637   1.129
35337W        W 7597   5.769  30.487   3.787
35338W        W 7598  40.976  27.628   1.921
35339W        W 7599  32.593  22.107   4.502
35340W        W 7600  29.415   2.883   4.687
35341W        W 7601  34.961  27.484  12.502
35342W        W 7602  37.832  12.705  11.578
35343W        W 7603   7.827  33.622  13.764
35344W        W 7604  24.876  42.773   2.741
35345W        W 7605   1.447  32.819   0.795
35346W        W 7606  26.318  20.345  14.406
35347W        W 7607   3.469  29.999  14.760
35348W        W 7608  14.180  16.941   5.051
35349W        W 7609  25.630  15.592   3.196
35350W        W 7610  11.417  21.816   3.255
35351W        W 7611  12.363  33.248   2.724
35352W        W 7612  22.170  19.483   0.454
35353W        W 7613  31.333  11.257  10.687
35354W        W 7614  30.991   7.643   0.568
35355W        W 7615   4.217   9.887  11.957
35356W        W 7616  11.809  27.004   0.601
35357W        W 7617  39.908  15.252   0.127
35358W        W 7618   3.228  22.660  13.529
35359W        W 7619  25.425   0.293  11.136
35360W        W 7620  32.589   9.409   3.288
35361W        W 7621   4.512  19.210   0.520
35362W        W 7622  37.876  14.023   1.375
35363W        W 7623  31.465  22.597  12.885
35364W        W 7624  23.026  44.859   3.970
35365W        W 7625  35.690   8.741  10.429
35366W        W 7626  34.532   7.308  14.108
35367W        W 7627  39.980  17.325   4.531
35368W        W 7628   9.593  17.176  10.728
35369W        W 7629  15.570  28.541  12.488
35370W        W 7630  30.495  20.290   4.175
35371W        W 7631  16.663   8.782  13.810
35372W        W 7632  15.256  25.601   1.315
35373W        W 7633  31.042  27.271  13.892
35374W        W 7634  26.977  22.838   0.774
35375W        W 7635   6.783  22.667  14.990
35376W        W 7636   2.517  30.059  10.648
35377W        W 7637  38.788  35.118   0.358
35378W        W 7638   4.541   5.404  12.542
35379W        W 7639  28.476  23.009   1.806
35380W        W 7640   8.331  11.551   4.533
35381W        W 7641   6.002  32.591   4.259
35382W        W 7642  42.276  10.467  10.966
35383W        W 7643   6.917  36.115   4.537
35384W        W 7644  43.808  37.794   1.910
35385W        W 7645   4.770  14.029   4.099
35386W        W 7646  29.848  21.202   4.049
35387W        W 7647  29.770  18.026  13.057
35388W        W 7648  22.838  16.976  13.928
35389W        W 7649  42.909  42.160   1.277
35390W        W 7650  34.670   3.190  13.356
35391W        W 7651  43.574  44.447  10.077
35392W        W 7652  25.430  41.349  11.963
35393W        W 7653   1.748  10.165   2.746
35394W        W 7654  43.998  18.784   1.447
35395W        W 7655  39.524  30.002   3.123
35396W        W 7656   9.725  33.523   3.230
35397W        W 7657  28.888  18.298  14.518
35398W        W 7658  26.050  27.222   2.192
35399W        W 7659  20.066  27.532  11.600
35400W        W 7660  30.035  14.387   0.268
35401W        W 7661  29.731   8.031   0.126
35402W        W 7662  32.362  36.898   1.305
35403W        W 7663  33.057  29.620  11.001
35404W        W 7664  37.773  32.522  10.620
35405W        W 7665  37.507  43.608   4.540
35406W        W 7666  11.872  31.133  14.929
35407W        W 7667  33.262  42.802   2.792
35408W        W 7668   0.282   5.896  11.420
35409W        W 7669  25.069  39.298   4.012
35410W        W 7670  11.420  27.950  13.061
35411W        W 7671  36.170   4.708   0.863
35412W        W 7672  40.907   1.736   1.821
35413W        W 7673  23.199  34.173   0.875
35414W        W 7674  28.085   1.673  12.545
35415W        W 7675   0.969  10.370   0.305
35416W        W 7676   3.620  16.802  12.100
35417W        W 7677  12.117  16.692  12.832
35418W        W 7678  11.270  41.928   0.842
35419W        W 7679  17.367  16.992  13.281
35420W        W 7680   4.654   2.398  11.940
35421W        W 7681  14.342  32.067  14.067
35422W        W 7682  42.359  35.136  13.312
35423W        W 7683  12.861  41.904  14.853
35424W        W 7684   6.113  37.254  13.574
35425W        W 7685  19.894  23.099   4.206
35426W        W 7686  14.549  13.416   0.261
35427W        W 7687  13.932  18.726   4.814
35428W        W 7688  11.256  27.660   0.231
35429W        W 7689  24.344  15.700   4.159
35430W        W 7690   8.918   3.465  14.490
35431W        W 7691  20.027  38.768   1.715
35432W        W 7692  44.834  21.273   2.900
35433W        W 7693  32.454   6.238  14.816
35434W        W 7694  28.025  35.603   4.511
35435W        W 7695   3.251  27.984  11.002
35436W        W 7696  28.917  37.597  14.276
35437W        W 7697  12.671  42.594   3.632
35438W        W 7698  16.792  41.756   4.344
35439W        W 7699  33.553  18.184   1.930
35440W        W 7700  13.171  13.368   2.836
35441W        W 7701   7.640  19.952  10.817
35442W        W 7702  10.961  11.126   0.807
35443W        W 7703  44.445  14.491   2.387
35444W        W 7704  31.895  22.894  11.091
35445W        W 7705  39.563  39.066  10.613
35446W        W 7706  39.658  11.246  13.974
35447W        W 7707  23.278  18.984  13.072
35448W        W 7708  12.851  18.066   2.837
35449W        W 7709   6.951  43.756   4.242
35450W        W 7710  28.417  41.527  10.652
35451W        W 7711  25.403  33.470  13.790
35452W        W 7712   9.081  27.222   3.376
35453W        W 7713  40.740   1.948   3.773
35454W        W 7714  40.481  19.811  10.242
35455W        W 7715  27.193   7.328   1.932
35456W        W 7716  26.942  39.151   3.256
35457W        W 7717  15.101  15.888  12.027
35458W        W 7718  20.670   2.489   4.696
35459W        W 7719  32.095   1.471  10.662
35460W        W 7720  12.872  19.358  11.185
35461W        W 7721  37.288   8.266  11.185
35462W        W 7722  38.425  35.638  10.388
35463W        W 7723  11.817  19.176  12.056
35464W        W 7724  27.079  17.357   0.729
35465W        W 7725  14.265  25.975  11.827
35466W        W 7726  18.337   0.678  14.669
35467W        W 7727   3.128  37.591  14.029
35468W        W 7728  40.607  44.054  11.174
35469W        W 7729  43.460  42.811   0.817
35470W        W 7730  38.628   8.238  10.270
35471W        W 7731  34.024   0.781   1.658
35472W        W 7732  25.942  20.506  11.606
35473W        W 7733  27.715  13.984   3.206
35474W        W 7734   5.224  11.786   2.177
35475W        W 7735  24.580  26.531  14.398
35476W        W 7736  31.135   6.233  14.540
35477W        W 7737  26.993   7.218   1.256
35478W        W 7738  27.018  25.867   4.181
35479W        W 7739   9.556  23.012   4.179
35480W        W 7740  23.305  24.471  13.459
35481W        W 7741  14.951  14.580   5.693
35482W        W 7742   9.423  39.955   0.511
35483W        W 7743   0.311   6.358   0.892
35484W        W 7744  44.780  19.511  14.308
35485W        W 7745  28.277  23.104   1.335
35486W        W 7746  28.028  31.971  12.136
35487W        W 7747  30.805  10.370   4.156
35488W        W 7748  30.044  21.690   3.245
35489W        W 7749  30.415  34.648   2.872
35490W        W 7750  35.344  34.405  12.009
35491W        W 7751  10.396  22.473   0.021
35492W        W 7752  42.431   1.538  10.590
35493W        W 7753  28.063  42.138  12.875
35494W        W 7754  22.164  23.561   2.944
35495W        W 7755  28.715  43.059  13.927
35496W        W 7756  24.634   8.212   3.203
35497W        W 7757   9.566   1.412   3.970
35498W        W 7758  27.056  25.656   4.651
35499W        W 7759  33.774  20.524   9.693
35500W        W 7760   3.995   7.589   0.288
35501W        W 7761  23.459  32.675  10.413
35502W        W 7762  18.035   0.310   1.241
35503W        W 7763  42.936  34.503  12.194
35504W        W 7764  16.686  20.280   3.351
35505W        W 7765  24.004  43.465   4.576
35506W        W 7766   3.058  38.062  14.237
35507W        W 7767  23.137  32.503   3.703
35508W        W 7768   6.973  41.408  10.992
35509W        W 7769  28.697  15.676  12.366
35510W        W 7770  41.796  30.864  13.154
35511W        W 7771  43.983   0.873  13.883
35512W        W 7772  39.152   8.863   5.092
35513W        W 7773  22.645  15.671  13.031
35514W        W 7774  14.821  25.140   1.878
35515W        W 7775   0.748  21.501  13.320
35516W        W 7776  19.447  36.511   1.733
35517W        W 7777  26.933  13.940   1.370
35518W        W 7778  39.538  38.902  11.103
35519W        W 7779  27.466  42.240  14.027
35520W        W 7780  32.056  19.979  12.519
35521W        W 7781   3.559  32.428   3.762
35522W        W 7782   2.467  39.878   3.728
35523W        W 7783  19.885  30.986  14.819
35524W        W 7784  43.518   2.609  13.325
35525W        W 7785  25.637  30.440  14.357
35526W        W 7786  20.228   1.773   1.129
35527W        W 7787  14.806   7.869  14.437
35528W        W 7788  18.038  26.981   4.009
35529W        W 7789  34.543  10.124   4.320
35530W        W 7790  37.283  14.072  13.077
35531W        W 7791   6.698   6.427  14.920
35532W        W 7792  34.671   0.791  14.439
35533W        W 7793   5.153  40.328   4.032
35534W        W 7794  21.666  28.675   2.736
35535W        W 7795   7.140   8.848  11.178
35536W        W 7796  16.543  31.888  14.353
35537W        W 7797  13.589  32.461   2.741
35538W        W 7798  33.091  12.623   1.268
35539W        W 7799  21.015  38.961  13.717
35540W        W 7800  11.051  37.802   0.987
35541W        W 7801  21.882   8.623  12.106
35542W        W 7802  17.044  22.228  10.713
35543W        W 7803  27.129  44.842   4.791
35544W        W 7804  24.923  35.185   4.562
35545W        W 7805   6.953   2.808   2.714
35546W        W 7806  29.784  16.875  12.027
35547W        W 7807   6.891  21.529   4.937
35548W        W 7808  12.567   8.860  10.669
35549W        W 7809  27.951  10.902   0.500
35550W        W 7810  44.111   0.106   4.971
35551W        W 7811   8.475  23.001   1.297
35552W        W 7812  36.626  14.319  11.148
35553W        W 7813  35.626  29.206   3.157
35554W        W 7814   2.112  24.664   4.038
35555W        W 7815  27.294  27.136  10.700
35556W        W 7816  26.798   5.788  13.022
35557W        W 7817  34.689  30.962  10.605
35558W        W 7818  14.019  44.323   5.054
35559W        W 7819  22.414  13.840   0.391
35560W        W 7820  39.812  35.973   3.942
35561W        W 7821  30.803  14.892   1.714
35562W        W 7822  35.301  38.332   3.755
35563W        W 7823  37.981  42.273  12.869
35564W        W 7824  29.568  29.232   1.701
35565W        W 7825  14.913  43.229   1.525
35566W        W 7826  39.770  25.181   3.896
35567W        W 7827  25.597  26.273   4.675
35568W        W 7828  14.509   0.700   2.473
35569W        W 7829  21.803  14.261  12.403
35570W        W 7830  20.700  41.747  13.439
35571W        W 7831  34.302  25.823  10.715
35572W        W 7832  12.126  25.348  12.030
35573W        W 7833  23.044  44.540   2.713
35574W        W 7834  14.361  40.744   4.695
35575W        W 7835  40.020  13.386  12.061
35576W        W 7836  24.736  26.857   3.839
35577W        W 7837  31.075  31.432  10.854
35578W        W 7838  33.366  41.549   3.811
35579W        W 7839   0.558  33.140   1.266
35580W        W 7840  43.436  38.784  13.468
35581W        W 7841  30.843   2.009  13.552
35582W        W 7842  13.196  24.230  14.860
35583W        W 7843  35.012  37.938  11.513
35584W        W 7844  31.280   6.587  12.454
35585W        W 7845  26.022  28.211  12.445
35586W        W 7846  44.533  44.746   0.997
35587W        W 7847   7.284  28.444   4.163
35588W        W 7848  34.548  19.278  10.730
35589W        W 7849  24.415  30.559  14.014
35590W        W 7850  37.490  12.475  14.920
35591W        W 7851   1.073  24.460  11.935
35592W        W 7852  19.498  24.531  14.390
35593W        W 7853  37.057  16.192  13.480
35594W        W 7854   2.208  14.319   0.873
35595W        W 7855   6.272  19.320  11.531
35596W        W 7856   0.857  19.777  11.541
35597W        W 7857  38.455  19.634  10.621
35598W        W 7858  43.519  44.492   2.739
35599W        W 7859   9.758  43.298  12.455
35600W        W 7860   1.796  18.749   1.832
35601W        W 7861   1.294   9.929   1.051
35602W        W 7862  41.977  23.652   0.255
35603W        W 7863  33.958  30.467   1.529
35604W        W 7864  36.892  41.456  10.477
35605W        W 7865  10.259   3.260  12.751
35606W        W 7866  39.449  15.135  13.924
35607W        W 7867  23.800  43.550  10.673
35608W        W 7868   5.057  21.919   0.935
35609W        W 7869  25.641  44.977  10.761
35610W        W 7870  10.611  32.783   2.411
35611W        W 7871  30.521  15.868   0.393
35612W        W 7872   0.278   6.100   1.346
35613W        W 7873  24.403  14.298  14.835
35614W        W 7874  42.216   5.513  13.839
35615W        W 7875  43.789  25.481  10.779
35616W        W 7876  26.810  18.541  12.499
35617W        W 7877  36.330  38.046   3.226
35618W        W 7878   8.265  36.603   1.947
35619W        W 7879  12.236  29.564  10.079
35620W        W 7880  32.086   2.231   0.213
35621W        W 7881  20.378  10.710  13.592
35622W        W 7882   8.835   2.056  11.233
35623W        W 7883  18.908  41.272   4.117
35624W        W 7884   3.496  31.001   5.017
35625W        W 7885  39.310  13.319  11.531
35626W        W 7886  11.363  31.189  11.685
35627W        W 7887  42.387  14.590  13.419
35628W        W 7888  20.835  12.533   1.351
35629W        W 7889  24.153  30.000   2.143
35630W        W 7890  23.106  18.589  13.992
35631W        W 7891  17.814  21.182   2.054
35632W        W 7892  15.153   2.780  12.421
35633W        W 7893   3.295  34.783   0.991
35634W        W 7894  18.490  31.425  11.184
35635W        W 7895  14.858  34.935  11.993
35636W        W 7896  23.519  32.252   1.221
35637W        W 7897  27.531  11.651   3.545
35638W        W 7898  27.518  43.229   2.896
35639W        W 7899  17.597  10.949   3.718
35640W        W 7900  20.173  21.162  14.024
35641W        W 7901  39.382  23.315  12.437
35642W        W 7902  20.923  43.297  11.057
35643W        W 7903  42.526  17.340  14.430
35644W        W 7904  31.630   8.240   2.403
35645W        W 7905  20.521   0.460   0.209
35646W        W 7906  39.035  18.716   3.957
35647W        W 7907  33.396  30.438   4.296
35648W        W 7908  35.771  10.186  12.079
35649W        W 7909  10.525  28.052  11.216
35650W        W 7910  10.720  44.805   4.620
35651W        W 7911  32.696  17.620   0.418
35652W        W 7912  19.607  42.759  11.396
35653W        W 7913  42.757  30.199  11.019
35654W        W 7914  31.135   8.609   4.542
35655W        W 7915  22.485  13.345  12.895
35656W        W 7916  17.388  42.491   1.398
35657W        W 7917  38.786  41.032  11.564
35658W        W 7918  36.942   1.860   1.842
35659W        W 7919  29.506  16.533   4.134
35660W        W 7920  11.109  30.669  11.590
35661W        W 7921  44.256  16.636  12.965
35662W        W 7922  11.532  42.105  12.978
35663W        W 7923  35.613  29.899  13.410
35664W        W 7924  10.250   8.689  12.764
35665W        W 7925  35.875   3.132  14.300
35666W        W 7926   5.185  19.905   1.365
35667W        W 7927  17.627  34.031  13.282
35668W        W 7928  26.327  23.568   2.750
35669W        W 7929  41.344   6.908   1.071
35670W        W 7930   2.255  33.088   3.568
35671W        W 7931  32.037  28.466  12.405
35672W        W 7932  38.974   6.382  13.860
35673W        W 7933  12.244   1.450  13.006
35674W        W 7934  21.678  38.533  10.384
35675W        W 7935  15.614   7.903   0.772
35676W        W 7936  44.415  13.680  14.773
35677W        W 7937  30.829  24.710  14.980
35678W        W 7938  16.176  28.014   2.426
35679W        W 7939  31.651  33.492  14.260
35680W        W 7940  12.278  28.391   1.419
35681W        W 7941  22.257  32.437  13.569
35682W        W 7942   4.670   3.909  11.799
35683W        W 7943   8.843  29.784   4.586
35684W        W 7944  25.040  33.192  13.078
35685W        W 7945  10.084  25.177   3.561
35686W        W 7946   2.548  42.005   2.709
35687W        W 7947   4.617  22.808   3.681
35688W        W 7948  17.183  13.017  11.988
35689W        W 7949  18.567  22.107  13.936
35690W        W 7950   7.727  15.525  14.531
35691W        W 7951  14.068  44.034   3.181
35692W        W 7952  35.439   3.229   2.306
35693W        W 7953  42.958  20.859   4.164
35694W        W 7954  34.942  39.465  13.886
35695W        W 7955  29.204  33.826  13.353
35696W        W 7956  40.942  35.768   0.991
35697W        W 7957  14.344  27.130   4.386
35698W        W 7958  38.462  26.743  12.192
35699W        W 7959  30.343  34.925   0.138
35700W        W 7960  18.648  29.369   4.174
35701W        W 7961  28.633  31.705   0.481
35702W        W 7962  38.796   1.714  11.087
35703W        W 7963  32.958  35.086   2.939
35704W        W 7964  18.531   8.692  13.768
35705W        W 7965   3.701  29.368   2.242
35706W        W 7966  39.923  27.656   2.110
35707W        W 7967  40.359   0.598  11.836
35708W        W 7968  18.881  40.789  12.612
35709W        W 7969  27.003  38.444  10.977
35710W        W 7970  28.703  21.779  12.589
35711W        W 7971  39.098  35.075   1.868
35712W        W 7972  38.538  27.152  11.059
35713W        W 7973  31.972  26.115  13.481
35714W        W 7974   6.741  31.641  12.910
35715W        W 7975  27.985  15.138  10.171
35716W        W 7976   3.269  40.628   1.973
35717W        W 7977   0.112  17.213   1.761
35718W        W 7978  27.867  27.909  14.528
35719W        W 7979   8.736  31.354   3.668
35720W        W 7980  31.220  18.685   4.683
35721W        W 7981  21.109  29.185  13.599
35722W        W 7982  34.388  27.304   5.003
35723W        W 7983  31.870  10.922  11.236
35724W        W 7984  19.150  27.509   2.171
35725W        W 7985  33.359  29.073  10.989
35726W        W 7986  36.349  10.878   0.938
35727W        W 7987  13.425  38.487  14.269
35728W        W 7988  32.902   8.230   2.724
35729W        W 7989  18.834  37.122  12.357
35730W        W 7990  14.674   2.794   1.736
35731W        W 7991  27.908  20.926   1.225
35732W        W 7992   3.434  27.476   0.799
35733W        W 7993   9.756  18.711   3.546
35734W        W 7994  16.729  42.547   0.297
35735W        W 7995  44.400  21.569   0.308
35736W        W 7996  27.045  30.080   0.750
35737W        W 7997  15.251  17.814  13.854
35738W        W 7998  36.427  20.534   0.435
35739W        W 7999  41.092  18.531  11.059
35740W        W 8000   5.742  26.112  11.139
35741W        W 8001  33.966   9.839  13.412
35742W        W 8002  33.787   3.382   2.970
35743W        W 8003  35.026  28.609   0.816
35744W        W 8004  39.966  24.190   4.920
35745W        W 8005   2.956  14.166   2.717
35746W        W 8006   4.355  21.674  11.861
35747W        W 8007  20.477   6.002   2.751
35748W        W 8008  35.764  30.228  10.439
35749W        W 8009   3.741  24.399  12.518
35750W        W 8010  34.329   1.008   4.799
35751W        W 8011  34.425  26.184   1.902
35752W        W 8012  19.217  26.122   2.473
35753W        W 8013  33.419  33.837   1.082
35754W        W 8014  36.960  17.791   4.613
35755W        W 8015  20.587  29.109   3.150
35756W        W 8016  18.634   5.878   2.397
35757W        W 8017   8.372  44.408  10.630
35758W        W 8018  22.288  10.758  13.265
35759W        W 8019   4.652   5.491  14.769
35760W        W 8020  43.278  17.616   3.217
35761W        W 8021  14.878  20.068   3.876
35762W        W 8022  23.015  36.961   1.739
35763W        W 8023  42.636  43.137   1.159
35764W        W 8024  29.504  34.359   2.345
35765W        W 8025  16.211  34.467   4.596
35766W        W 8026  16.860   6.292   1.738
35767W        W 8027  43.815  16.387  11.851
35768W        W 8028   6.480  13.884  11.903
35769W        W 8029  25.502   9.306   1.401
35770W        W 8030  30.552  18.491  10.657
35771W        W 8031   6.430  33.529   2.217
35772W        W 8032   4.932   9.649   3.904
35773W        W 8033  32.110  32.686   3.147
35774W        W 8034  26.082  13.113   2.822
35775W        W 8035   1.766   2.928   0.273
35776W        W 8036  36.348  14.052  12.366
35777W        W 8037  23.943   3.211  11.788
35778W        W 8038  16.379  36.604   0.678
35779W        W 8039  36.835  10.655   2.679
35780W        W 8040   8.664  42.505  12.427
35781W        W 8041  13.240  33.752  10.112
35782W        W 8042  23.036  15.503  10.143
35783W        W 8043  10.344  42.287   0.227
35784W        W 8044  38.898  33.868   2.510
35785W        W 8045  29.668   5.662   4.819
35786W        W 8046  17.820  35.482  12.437
35787W        W 8047  15.003   7.811   4.537
35788W        W 8048  31.913  38.166  14.393
35789W        W 8049  38.367  41.469   3.620
35790W        W 8050  19.285  38.418  11.176
35791W        W 8051   5.708  12.229   0.367
35792W        W 8052  14.612  11.610   3.841
35793W        W 8053   1.309  41.221  12.444
35794W        W 8054  10.360  11.190   2.758
35795W        W 8055  22.648  39.557  13.258
35796W        W 8056   5.402   6.740   3.129
35797W        W 8057  31.520   4.118   3.303
35798W        W 8058  44.585  28.595   2.479
35799W        W 8059  44.369  19.252   2.623
35800W        W 8060  40.861  40.527  10.516
35801W        W 8061  25.308  13.683   3.803
35802W        W 8062   6.163  39.071  10.128
35803W        W 8063  30.045  25.955  14.704
35804W        W 8064  32.567  15.255   4.629
35805W        W 8065   8.406  13.616  12.347
35806W        W 8066  19.472  40.848   1.859
35807W        W 8067   1.296   1.478   4.729
35808W        W 8068  15.188  44.219   0.484
35809W        W 8069  21.475  33.645   0.457
35810W        W 8070  26.245  36.899   0.394
35811W        W 8071  19.153  23.005  13.991
35812W        W 8072  14.414  40.893   2.687
35813W        W 8073   9.888  34.058  14.257
35814W        W 8074   4.228  20.363  13.818
35815W        W 8075  12.350  32.462   1.562
35816W        W 8076  32.084  39.192  14.396
35817W        W 8077  43.340  21.842  11.028
35818W        W 8078  26.396  13.412   4.047
35819W        W 8079  18.300  30.564  11.221
35820W        W 8080  24.218  40.719   0.937
35821W        W 8081  34.123  40.609  13.300
35822W        W 8082   2.461  26.576  11.677
35823W        W 8083  24.872  31.642  14.686
35824W        W 8084  24.117   9.690   2.132
35825W        W 8085  34.887  30.095  11.971
35826W        W 8086  30.386   5.864   0.955
35827W        W 8087  14.274  16.606   1.827
35828W        W 8088   2.057  29.610   4.844
35829W        W 8089  42.740  30.727  12.730
35830W        W 8090  18.671  10.057  10.678
35831W        W 8091  10.224   4.754  11.371
35832W        W 8092   5.954  26.139  10.685
35833W        W 8093  38.854  17.238  14.254
35834W        W 8094  18.516  11.335  11.572
35835W        W 8095   6.123  31.682  10.949
35836W        W 8096   1.911  19.790   0.549
35837W        W 8097   5.872  26.764  14.861
35838W        W 8098  19.949  16.856  14.804
35839W        W 8099  18.739  23.089   1.296
35840W        W 8100  15.307   0.963   2.713
35841W        W 8101  37.753   3.779   3.291
35842W        W 8102   3.990  12.883  13.323
35843W        W 8103   3.727  29.144  13.403
35844W        W 8104  38.834   6.817   3.813
35845W        W 8105  32.511  24.591   2.974
35846W        W 8106  36.327  20.719  12.362
35847W        W 8107  35.842  34.039   3.657
35848W        W 8108  41.511   2.698  11.971
35849W        W 8109  15.322  32.839   1.856
35850W        W 8110  24.073  11.019  14.636
35851W        W 8111  19.523  16.499   0.810
35852W        W 8112  15.963  32.978   3.924
35853W        W 8113  25.148   4.198  11.028
35854W        W 8114   8.918  32.346  11.187
35855W        W 8115   2.249  17.297   0.935
35856W        W 8116  24.702  24.583   3.925
35857W        W 8117   3.559  17.533   2.503
35858W        W 8118  23.230   4.954   4.419
35859W        W 8119  26.311   1.207   3.736
35860W        W 8120  31.532  23.680  13.333
35861W        W 8121  39.571  23.233   4.155
35862W        W 8122  21.636  21.274  10.164
35863W        W 8123  36.363   9.863   0.606
35864W        W 8124  39.987  26.121   4.917
35865W        W 8125  27.128  27.993  11.729
35866W        W 8126  29.214  30.551   0.538
35867W        W 8127  10.932  18.685  13.156
35868W        W 8128  30.011  12.483   3.167
35869W        W 8129  25.223  18.054  11.649
35870W        W 8130  39.770   1.386   4.605
35871W        W 8131  35.662  39.756   3.700
35872W        W 8132  10.257  33.477  11.917
35873W        W 8133  24.430  32.309   0.294
35874W        W 8134  18.219  20.990   2.825
35875W        W 8135  17.096  42.417  14.508
35876W        W 8136  20.601  18.440  14.155
35877W        W 8137  21.540   4.424  13.416
35878W        W 8138   5.284  22.157   0.448
35879W        W 8139  37.758  17.813   1.200
35880W        W 8140  27.674  35.687  11.585
35881W        W 8141  12.750  34.137   4.322
35882W        W 8142  32.188  25.635  13.391
35883W        W 8143  22.762  44.481  14.874
35884W        W 8144  43.376  18.952  14.433
35885W        W 8145  28.332  35.087  10.651
35886W        W 8146  44.405  36.981  13.721
35887W        W 8147  28.822  13.810  10.644
35888W        W 8148  18.026   9.928  12.536
35889W        W 8149  14.221   5.750  11.703
35890W        W 8150   3.001  12.247  14.706
35891W        W 8151   8.838   5.161   3.731
35892W        W 8152  20.874  31.490   2.838
35893W        W 8153   7.297  41.928   0.476
35894W        W 8154  14.227  19.579  12.014
35895W        W 8155  44.905  31.000  12.975
35896W        W 8156  33.913  19.564   0.804
35897W        W 8157  31.138  11.674   3.175
35898W        W 8158  38.350   9.141  10.620
35899W        W 8159  20.358  18.202   4.221
35900W        W 8160   4.878  42.944  10.632
35901W        W 8161  22.151  29.797  14.764
35902W        W 8162  20.415  18.167  11.517
35903W        W 8163  41.016  30.131  13.416
35904W        W 8164   9.627  26.011   0.637
35905W        W 8165  36.605  27.875  11.927
35906W        W 8166  36.292  23.622  14.890
35907W        W 8167  19.626  37.576  12.085
35908W        W 8168  30.247   2.574   4.554
35909W        W 8169  42.576   3.015   3.374
35910W        W 8170  38.485  11.604   0.730
35911W        W 8171  29.556  36.480  13.804
35912W        W 8172  35.152  37.297   1.843
35913W        W 8173   8.020  32.509  13.859
35914W        W 8174   1.057  20.683  14.235
35915W        W 8175  36.929  43.864  13.493
35916W        W 8176   2.761   1.049  11.634
35917W        W 8177  31.927   5.628   0.287
35918W        W 8178  36.448  41.066  13.933
35919W        W 8179  40.970   0.288   2.608
35920W        W 8180  37.858   4.370   2.741
35921W        W 8181  20.388  41.449  12.149
35922W        W 8182  33.395  23.277   2.277
35923W        W 8183   2.779  11.352  12.484
35924W        W 8184  15.222  26.501  11.600
35925W        W 8185   0.236   6.194  12.491
35926W        W 8186  27.726  38.606  12.173
35927W        W 8187  34.822  29.181   2.586
35928W        W 8188  38.343   8.786  11.485
35929W        W 8189  38.234   9.256   1.459
35930W        W 8190  37.934  10.749   0.259
35931W        W 8191   7.793  26.200  12.033
35932W        W 8192  11.085  28.447   1.774
35933W        W 8193  11.145  22.248  12.270
35934W        W 8194  31.139  37.917   2.944
35935W        W 8195   1.162  26.676   0.368
35936W        W 8196   5.083  19.582  11.214
35937W        W 8197  31.654  28.344   4.121
35938W        W 8198  44.766  32.395   3.668
35939W        W 8199  33.740  15.230   0.372
35940W        W 8200  19.187  43.247  12.486
35941W        W 8201  12.036  37.827  14.827
35942W        W 8202   1.310  30.586  14.392
35943W        W 8203   9.183  29.913  10.909
35944W        W 8204  19.090  40.092   4.692
35945W        W 8205  44.713  42.715   3.722
35946W        W 8206  12.228  23.739   0.919
35947W        W 8207  36.583  33.431  13.863
35948W        W 8208   0.582  34.466  14.450
35949W        W 8209   8.941  24.214  13.853
35950W        W 8210  27.604   6.745  13.435
35951W        W 8211  20.296  21.556   5.503
35952W        W 8212  27.581   9.309   4.961
35953W        W 8213  36.027  22.994   2.688
35954W        W 8214   7.456  36.588   1.502
35955W        W 8215  25.376  22.577  14.304
35956W        W 8216  25.776  32.423   1.371
35957W        W 8217  28.642   4.399   4.957
35958W        W 8218  24.096  13.678  11.835
35959W        W 8219  29.701  32.392   2.136
35960W        W 8220  11.131  22.594  11.439
35961W        W 8221  30.086  18.165  13.604
35962W        W 8222   5.684  14.336  10.806
35963W        W 8223  44.447  17.109  11.793
35964W        W 8224  19.991  36.289  11.632
35965W        W 8225   2.562   6.075  13.354
35966W        W 8226   1.065   4.245  11.247
35967W        W 8227  24.726  43.217   1.892
35968W        W 8228  36.096   8.118  13.151
35969W        W 8229   7.230  13.805   3.423
35970W        W 8230  29.944  21.193   4.959
35971W        W 8231   7.228  39.029   0.398
35972W        W 8232  42.841   4.085  11.621
35973W        W 8233  30.739  14.040   0.777
35974W        W 8234  38.480  10.574   2.479
35975W        W 8235   5.423  28.171  14.019
35976W        W 8236   0.241  36.815   1.913
35977W        W 8237  20.978  37.616  11.149
35978W        W 8238  20.115  26.656  14.375
35979W        W 8239  25.098  44.072   3.413
35980W        W 8240  29.132  39.517   4.111
35981W        W 8241  23.008  11.921   1.147
35982W        W 8242  44.615  31.015   3.862
35983W        W 8243  27.929  21.564  13.925
35984W        W 8244  21.334  12.620   2.152
35985W        W 8245  13.076   1.394   4.249
35986W        W 8246  21.785  41.562   3.193
35987W        W 8247  16.846  33.271   3.349
35988W        W 8248  35.950  26.529  13.540
35989W        W 8249  11.733  22.362   1.542
35990W        W 8250  42.908  40.919  13.381
35991W        W 8251  30.876  27.729  13.123
35992W        W 8252   8.014  32.134   3.665
35993W        W 8253  33.152  31.828  14.792
35994W        W 8254  42.990   8.259  12.126
35995W        W 8255  21.902  31.180   2.923
35996W        W 8256  33.631   4.699  11.283
35997W        W 8257  16.577  19.331   0.550
35998W        W 8258  17.119  15.224  13.253
35999W        W 8259   9.869  31.746   2.900
36000W        W 8260  13.802   5.446   4.006
36001W        W 8261  21.333   1.525  10.778
36002W        W 8262  14.947  18.617   0.491
36003W        W 8263   0.954  24.560  12.936
36004W        W 8264  15.780  27.154  14.278
36005W        W 8265  21.384  11.820   4.529
36006W        W 8266   8.838  21.922   4.567
36007W        W 8267  31.389  17.810  13.892
36008W        W 8268  15.735  10.693  10.883
36009W        W 8269  21.108   1.731  12.843
36010W        W 8270  38.408  43.102   1.276
36011W        W 8271   7.523   6.317  13.665
36012W        W 8272   7.703  33.383  13.313
36013W        W 8273  36.079  15.862  14.705
36014W        W 8274  35.068  41.757  10.652
36015W        W 8275  44.223   7.995   3.525
36016W        W 8276   4.766  26.901  12.906
36017W        W 8277  34.847   7.028  10.574
36018W        W 8278  17.773  26.227  12.422
36019W        W 8279  37.041  40.627   0.654
36020W        W 8280  12.851  32.416   1.409
36021W        W 8281  17.601  18.666   1.374
36022W        W 8282  12.350   4.312  13.223
36023W        W 8283   4.713  22.283  12.013
36024W        W 8284  38.491   6.197   0.337
36025W        W 8285  19.778   8.643   2.056
36026W        W 8286  43.519  33.092  12.006
36027W        W 8287   0.458  36.941   4.886
36028W        W 8288  24.740  25.572   4.306
36029W        W 8289  34.981  20.817   9.750
36030W        W 8290   3.908  25.750  11.502
36031W        W 8291  38.398  20.166   2.911
36032W        W 8292  20.088   3.893   4.025
36033W        W 8293  42.223   8.831  11.076
36034W        W 8294  10.903   2.289  11.635
36035W        W 8295  16.711  19.789  13.540
36036W        W 8296  42.533   5.332   3.802
36037W        W 8297  16.436  22.680   2.760
36038W        W 8298   3.256  13.646   3.390
36039W        W 8299  37.594  26.543   3.758
36040W        W 8300   9.449  14.756   4.512
36041W        W 8301  29.891  19.647  13.703
36042W        W 8302  34.999  28.700   2.459
36043W        W 8303  13.156  42.786   2.833
36044W        W 8304  17.403   1.958  13.598
36045W        W 8305  21.566   4.693   1.769
36046W        W 8306   8.906  41.554   0.830
36047W        W 8307  13.044  12.891  13.604
36048W        W 8308  18.787  34.915  14.859
36049W        W 8309   5.361  21.538   2.391
36050W        W 8310  15.762  13.041  11.126
36051W        W 8311  26.604   5.869  13.496
36052W        W 8312  27.418   7.358  14.958
36053W        W 8313   5.655   1.258   3.211
36054W        W 8314  27.574  37.807   4.282
36055W        W 8315  18.115  25.544   0.524
36056W        W 8316  23.406   1.802   3.016
36057W        W 8317  37.037  22.093   1.322
36058W        W 8318  25.605  33.561  11.879
36059W        W 8319  32.958  18.165   4.801
36060W        W 8320  22.781  28.529   1.983
36061W        W 8321   7.384  24.519   1.959
36062W        W 8322   8.705  28.886  12.962
36063W        W 8323  20.850  30.718  14.300
36064W        W 8324  14.908  16.294  12.952
36065W        W 8325  10.187  35.302  12.790
36066W        W 8326  41.563  31.495  12.623
36067W        W 8327  27.397  23.184  14.895
36068W        W 8328  23.635   7.113  10.990
36069W        W 8329  32.700  25.686   1.547
36070W        W 8330  33.328  36.146   0.263
36071W        W 8331  14.269   4.759   2.271
36072W        W 8332  14.748  29.194   0.604
36073W        W 8333  24.955  37.376  11.794
36074W        W 8334  36.842  11.363   3.347
36075W        W 8335  19.209  20.841   1.846
36076W        W 8336  31.869  10.339  14.424
36077W        W 8337  23.785  12.781   0.338
36078W        W 8338  11.271   6.424   1.498
36079W        W 8339  25.052  11.088  14.194
36080W        W 8340  42.354  22.539  13.381
36081W        W 8341  12.108  13.855   4.338
36082W        W 8342   9.904  14.891   2.751
36083W        W 8343   2.180  29.993   0.473
36084W        W 8344  27.656  39.464  12.096
36085W        W 8345  27.872   6.969  14.403
36086W        W 8346  16.714  34.986   3.265
36087W        W 8347  43.762  38.044   0.952
36088W        W 8348  20.046  41.475   1.352
36089W        W 8349  41.241  27.600  14.941
36090W        W 8350  38.342  15.784   1.700
36091W        W 8351  11.729  33.818   4.545
36092W        W 8352   5.207  25.012  12.520
36093W        W 8353   6.121  27.351  10.388
36094W        W 8354  35.108   9.203   4.298
36095W        W 8355  28.203  42.583   3.672
36096W        W 8356  20.078  14.545  11.106
36097W        W 8357  28.102  21.400   9.852
36098W        W 8358  17.538  18.820  13.625
36099W        W 8359   9.573  42.395   3.294
36100W        W 8360  13.166  11.869   2.299
36101W        W 8361  41.934  14.330  13.402
36102W        W 8362  37.425  41.520  10.450
36103W        W 8363   2.796   0.349   1.663
36104W        W 8364  13.209  12.662  14.845
36105W        W 8365   1.992   2.897  11.682
36106W        W 8366  37.420  16.584   3.242
36107W        W 8367  12.295  28.108  14.530
36108W        W 8368   3.776  34.934   3.686
36109W        W 8369   9.272  17.814  12.035
36110W        W 8370  23.089  41.243   2.636
36111W        W 8371  15.273  13.715  12.060
36112W        W 8372   2.699  11.072   0.790
36113W        W 8373  44.394  29.010   4.625
36114W        W 8374  15.229  17.198   1.438
36115W        W 8375  15.339  36.814   1.543
36116W        W 8376  40.457  25.022   4.243
36117W        W 8377  44.847  18.005  11.679
36118W        W 8378  13.516   5.298  12.503
36119W        W 8379  15.382  39.556   4.749
36120W        W 8380  38.413  41.298  10.429
36121W        W 8381  21.218  36.025   3.216
36122W        W 8382  28.198  23.092   2.223
36123W        W 8383  27.891  35.566   0.892
36124W        W 8384  42.420  32.443  13.764
36125W        W 8385   6.454  36.144   0.398
36126W        W 8386  10.076  43.497  11.574
36127W        W 8387  25.705  35.628   1.629
36128W        W 8388  36.629  25.261   1.319
36129W        W 8389  44.498  15.294  12.181
36130W        W 8390  43.488  15.579   1.633
36131W        W 8391  27.138   6.737  13.230
36132W        W 8392   9.348  33.854   1.839
36133W        W 8393  43.196  13.580   0.226
36134W        W 8394  42.943   5.952  11.666
36135W        W 8395  12.796  11.387   3.357
36136W        W 8396  24.200  41.709   4.161
36137W        W 8397  30.032  16.432  11.099
36138W        W 8398  36.636  17.602  13.797
36139W        W 8399  24.250  15.808   1.382
36140W        W 8400  33.046  37.126   4.271
36141W        W 8401  31.922  20.476  12.480
36142W        W 8402  23.430  15.318   0.292
36143W        W 8403   0.712   3.200  12.554
36144W        W 8404  40.067  30.041  13.372
36145W        W 8405  36.109   2.314   4.591
36146W        W 8406  36.062  36.899  11.759
36147W        W 8407  12.113  35.329  13.481
36148W        W 8408  32.970  19.290   4.186
36149W        W 8409  31.374   4.922   0.034
36150W        W 8410  27.943   6.878   2.743
36151W        W 8411  40.025   9.389  14.861
36152W        W 8412   1.764  15.802  11.122
36153W        W 8413  16.828  40.180  10.717
36154W        W 8414  14.888  11.192   3.114
36155W        W 8415  16.801  12.231  13.849
36156W        W 8416  14.184  17.683   1.460
36157W        W 8417  17.474  37.868   4.308
36158W        W 8418  39.998  34.421   4.023
36159W        W 8419   0.456  37.479   3.266
36160W        W 8420  10.246  19.083  10.853
36161W        W 8421   5.715   9.658  12.015
36162W        W 8422   3.929  12.613   1.328
36163W        W 8423  20.603  42.818   3.167
36164W        W 8424   3.792  18.219  14.209
36165W        W 8425  42.621  39.310   4.199
36166W        W 8426  41.427  16.036  12.006
36167W        W 8427  40.810  31.894  12.058
36168W        W 8428   5.390  19.721  11.617
36169W        W 8429  42.221  20.630   1.097
36170W        W 8430  23.479  13.070  13.069
36171W        W 8431  24.166   1.795   4.235
36172W        W 8432  31.218  30.181  10.170
36173W        W 8433  10.937  12.107  14.365
36174W        W 8434  15.025  20.126   1.467
36175W        W 8435  15.042  20.046   2.961
36176W        W 8436  15.641  11.871  12.056
36177W        W 8437   7.296   6.742   3.384
36178W        W 8438  22.769  22.547  14.518
36179W        W 8439   5.642  30.871  14.979
36180W        W 8440   2.732  26.561   1.233
36181W        W 8441  18.935   8.148   0.306
36182W        W 8442  26.448  12.419   0.801
36183W        W 8443   7.773  10.234  11.053
36184W        W 8444   7.812   8.205  14.221
36185W        W 8445  15.764  44.273  14.077
36186W        W 8446  17.314   4.902   1.098
36187W        W 8447   6.640   5.960   3.189
36188W        W 8448  44.987   6.438  12.889
36189W        W 8449   5.771  35.758  12.481
36190W        W 8450  31.897  41.418   0.868
36191W        W 8451  12.298  42.586   2.713
36192W        W 8452  18.609  40.343   0.507
36193W        W 8453  41.894   2.210  14.367
36194W        W 8454  28.780  23.571   4.492
36195W        W 8455  18.151  11.390  14.802
36196W        W 8456  28.584  29.946   0.859
36197W        W 8457  11.788  20.856   4.750
36198W        W 8458   9.786  40.297  14.790
36199W        W 8459  25.101   5.988   5.112
36200W        W 8460  15.298  36.042   1.102
36201W        W 8461   1.020  38.312   4.198
36202W        W 8462  34.436  29.931  13.423
36203W        W 8463  31.153  23.786  13.819
36204W        W 8464   9.795  17.110  14.718
36205W        W 8465  42.665   1.469   2.269
36206W        W 8466  21.165  15.578  13.560
36207W        W 8467  42.638  27.732  12.014
36208W        W 8468  31.905   3.311  14.287
36209W        W 8469  14.613  17.036  12.961
36210W        W 8470  23.728  10.310   2.722
36211W        W 8471  37.413  40.863   4.572
36212W        W 8472  22.436  28.464   4.148
36213W        W 8473  17.385  19.343   0.745
36214W        W 8474  23.267  20.820  12.039
36215W        W 8475  17.391   6.768  13.782
36216W        W 8476   2.766  12.751  13.923
36217W        W 8477  31.179   0.195   4.166
36218W        W 8478  40.862  23.190  13.943
36219W        W 8479  19.120   8.755  14.772
36220W        W 8480  13.671  41.184   4.568
36221W        W 8481  35.912   0.193  13.008
36222W        W 8482  26.479  41.690   0.145
36223W        W 8483  11.783   3.886  14.371
36224W        W 8484  19.948  38.974   4.145
36225W        W 8485   8.450  20.143   1.482
36226W        W 8486   4.672   7.962  11.210
36227W        W 8487  27.681  28.499  11.032
36228W        W 8488   5.872  39.449  11.602
36229W        W 8489  25.542   1.298   2.143
36230W        W 8490  13.068  23.103   1.365
36231W        W 8491  33.794  10.357  11.664
36232W        W 8492   1.496  20.749   1.764
36233W        W 8493  29.877  21.294   2.280
36234W        W 8494  38.513  41.858   1.824
36235W        W 8495   7.483  15.648   3.158
36236W        W 8496  40.969  41.310   1.269
36237W        W 8497  37.328  18.950   4.109
36238W        W 8498  24.694  16.149  11.946
36239W        W 8499  26.632  44.823   2.861
36240W        W 8500   7.248  35.996   3.880
36241W        W 8501   0.801  41.386  11.646
36242W        W 8502  33.123  11.214  14.358
36243W        W 8503  39.343   4.685   1.742
36244W        W 8504  34.999  44.645  12.820
36245W        W 8505  22.408   6.059  10.389
36246W        W 8506  35.893  37.315   3.683
36247W        W 8507  25.411  25.190  13.971
36248W        W 8508  22.699  21.486   4.608
36249W        W 8509  27.696  22.876   4.716
36250W        W 8510  14.805  30.266  12.128
36251W        W 8511  22.466   9.848   4.989
36252W        W 8512  24.943  29.684  12.152
36253W        W 8513  16.591  20.097  11.556
36254W        W 8514  31.019   6.687   4.595
36255W        W 8515   8.826   5.400  11.618
36256W        W 8516  40.736   3.532   1.838
36257W        W 8517  18.113  11.849  10.581
36258W        W 8518  29.988  31.546   1.657
36259W        W 8519   5.818  35.865  11.978
36260W        W 8520  43.515  15.710   0.747
36261W        W 8521  38.951  41.144  13.293
36262W        W 8522   3.782  22.656  10.797
36263W        W 8523  22.448  42.118  13.346
36264W        W 8524  34.281  31.798   1.897
36265W        W 8525  42.552  38.487   1.256
36266W        W 8526  34.425   9.295   1.970
36267W        W 8527  42.189  28.575  10.647
36268W        W 8528   7.701  15.061   2.513
36269W        W 8529  36.331  31.895   0.888
36270W        W 8530   4.835  16.662  11.157
36271W        W 8531  40.011  18.248  11.018
36272W        W 8532  32.458  17.682  12.423
36273W        W 8533   9.816  27.356   2.052
36274W        W 8534   4.902  27.099   0.175
36275W        W 8535  43.822  29.068   4.936
36276W        W 8536  24.627   2.921  11.444
36277W        W 8537  26.455   5.143   0.531
36278W        W 8538  36.764  28.873  13.958
36279W        W 8539   8.194  11.643  11.566
36280W        W 8540  41.554  40.520  11.262
36281W        W 8541  11.147  22.645  14.028
36282W        W 8542  14.394  24.041   0.511
36283W        W 8543  34.410   7.493   1.749
36284W        W 8544  30.652  41.979   3.188
36285W        W 8545  24.475  37.156   4.609
36286W        W 8546  15.395  16.227   9.757
36287W        W 8547  15.151  12.881   1.674
36288W        W 8548  24.388  35.389  11.191
36289W        W 8549  38.960  31.326  10.713
36290W        W 8550   4.904   2.810   1.954
36291W        W 8551   3.801   0.002   0.221
36292W        W 8552  38.891  24.046  14.371
36293W        W 8553  24.216  21.744  13.974
36294W        W 8554  12.073  23.143  12.155
36295W        W 8555   1.754  25.381   2.807
36296W        W 8556   0.934  27.083   3.675
36297W        W 8557   4.256  33.644   4.570
36298W        W 8558   3.459  26.720   3.099
36299W        W 8559   4.140   2.871   3.178
36300W        W 8560   1.444   8.219   0.222
36301W        W 8561  17.046  35.881   0.326
36302W        W 8562  36.011  31.116  13.068
36303W        W 8563  24.311  44.315  12.018
36304W        W 8564  36.636   7.281  10.842
36305W        W 8565   4.834   9.214  10.954
36306W        W 8566  20.700  23.558  12.594
36307W        W 8567   8.194  17.935   1.376
36308W        W 8568  37.995  11.096  12.584
36309W        W 8569  16.566  17.781   1.376
36310W        W 8570  29.009   4.619   2.353
36311W        W 8571  29.527   5.699   2.862
36312W        W 8572   5.766   4.674   3.670
36313W        W 8573  13.218   1.028   2.307
36314W        W 8574  26.180   0.115   2.701
36315W        W 8575  40.423  41.504   2.628
36316W        W 8576  13.165  34.459   1.006
36317W        W 8577  24.324  29.802   1.319
36318W        W 8578   9.590  28.221  12.851
36319W        W 8579   5.730  21.754   1.296
36320W        W 8580  21.049  21.760   0.901
36321W        W 8581  31.810  10.612  12.963
36322W        W 8582  13.204  20.150   2.810
36323W        W 8583  42.782  21.116  13.503
36324W        W 8584  25.912  23.571  13.991
36325W        W 8585  34.043  21.723   0.182
36326W        W 8586  20.130  25.595  14.719
36327W        W 8587  21.988  28.001  13.928
36328W        W 8588   3.181   5.620  12.481
36329W        W 8589   8.316   2.668   1.723
36330W        W 8590   0.547  16.180   3.857
36331W        W 8591  10.815   6.715   2.437
36332W        W 8592  38.501  23.000  12.399
36333W        W 8593  17.160  38.452   4.442
36334W        W 8594  40.371  25.479  11.971
36335W        W 8595  17.851  40.889  11.156
36336W        W 8596  25.547  26.556   3.229
36337W        W 8597   8.663  35.169   1.755
36338W        W 8598  22.536  26.204  13.471
36339W        W 8599  15.800  43.509  12.686
36340W        W 8600  37.877   4.018  14.481
36341W        W 8601   9.058  31.124  14.224
36342W        W 8602   0.679  34.018   0.322
36343W        W 8603  29.440  12.260   4.252
36344W        W 8604  14.855  17.853   0.923
36345W        W 8605  23.896  42.998   2.368
36346W        W 8606  44.054  15.403   5.027
36347W        W 8607  14.646  40.932  13.312
36348W        W 8608   4.251  36.042   1.337
36349W        W 8609  14.615  15.335  11.626
36350W        W 8610  32.134  10.120   0.435
36351W        W 8611   6.712  30.035   4.578
36352W        W 8612   3.705  18.224  11.622
36353W        W 8613  40.980   7.016   4.250
36354W        W 8614  18.272   7.197   1.320
36355W        W 8615  26.183  27.311  13.935
36356W        W 8616  21.844  23.180   2.725
36357W        W 8617  26.125  43.785   4.480
36358W        W 8618  17.323  23.551  14.889
36359W        W 8619   6.667  23.900  11.722
36360W        W 8620   7.910  41.417  13.564
36361W        W 8621  11.000  23.787   3.134
36362W        W 8622   6.504  28.270  13.341
36363W        W 8623  39.235  10.509   0.214
36364W        W 8624  23.426  36.875   2.384
36365W        W 8625  34.150  32.158  10.772
36366W        W 8626  17.646  44.475  13.321
36367W        W 8627  39.419   9.403   2.274
36368W        W 8628  36.617  35.624  12.826
36369W        W 8629  14.259  42.339  12.898
36370W        W 8630  12.745  35.823   3.193
36371W        W 8631   3.432  12.526   0.426
36372W        W 8632  11.358  39.347  11.711
36373W        W 8633  16.074  13.784   3.820
36374W        W 8634  31.038  21.619   3.282
36375W        W 8635  30.218  27.968   1.305
36376W        W 8636  42.238   3.345  13.522
36377W        W 8637  22.995  23.777  11.612
36378W        W 8638  21.987  40.994  11.073
36379W        W 8639   2.243  17.040  12.505
36380W        W 8640  36.465  32.082   3.309
36381W        W 8641  31.108  33.641   4.076
36382W        W 8642  24.781   1.271   2.675
36383W        W 8643  12.859   4.371  13.384
36384W        W 8644  15.112   5.739   1.318
36385W        W 8645  33.374  37.229   3.732
36386W        W 8646  18.733  28.137   2.888
36387W        W 8647  11.359   3.824   3.267
36388W        W 8648  18.367  11.905  11.028
36389W        W 8649   9.909   2.874  10.801
36390W        W 8650  10.201  42.060  14.795
36391W        W 8651   3.331  41.085  12.449
36392W        W 8652  15.343   8.611   0.324
36393W        W 8653  18.836  28.584  12.131
36394W        W 8654  25.615  44.237  12.861
36395W        W 8655  21.800  21.271   3.602
36396W        W 8656  28.765  33.489  12.520
36397W        W 8657   4.931  32.623  11.034
36398W        W 8658  23.996   9.886   2.874
36399W        W 8659   1.079   9.016   4.843
36400W        W 8660   0.928  34.417  11.556
36401W        W 8661  10.721  19.128  12.971
36402W        W 8662   7.727  31.875   0.376
36403W        W 8663  25.182  31.984   3.621
36404W        W 8664  23.200  33.948  13.969
36405W        W 8665  11.963  27.627  12.452
36406W        W 8666  44.259  35.862  14.442
36407W        W 8667  17.257  14.567  10.412
36408W        W 8668  29.529  42.881   0.712
36409W        W 8669  16.457  23.780  14.292
36410W        W 8670  26.504  26.971   2.201
36411W        W 8671  33.838  33.528  14.962
36412W        W 8672  23.124  34.393  11.596
36413W        W 8673  14.669  15.794   4.699
36414W        W 8674  22.295  18.635   9.860
36415W        W 8675  11.039   8.233   1.924
36416W        W 8676  20.766  28.645  14.940
36417W        W 8677  36.911  19.301  12.046
36418W        W 8678  37.505  26.167  14.509
36419W        W 8679  30.882  18.091  12.371
36420W        W 8680  17.051  19.118   1.357
36421W        W 8681  43.071  33.391   4.134
36422W        W 8682  17.573  28.923   0.517
36423W        W 8683  13.616  26.576  12.378
36424W        W 8684  16.595   0.479   0.089
36425W        W 8685   1.379   0.813  10.994
36426W        W 8686  35.107   8.377   0.300
36427W        W 8687  37.112  38.566   3.224
36428W        W 8688  38.541   1.660  11.568
36429W        W 8689  11.306  20.623   4.616
36430W        W 8690  18.747  38.528  12.589
36431W        W 8691  36.908  13.786   4.026
36432W        W 8692  22.272   8.889  12.293
36433W        W 8693  36.581  10.875  14.427
36434W        W 8694  41.576  18.304  12.078
36435W        W 8695  26.016  26.580   4.539
36436W        W 8696  12.912   1.335  14.429
36437W        W 8697  18.812  32.336   0.855
36438W        W 8698  38.611  31.276  11.821
36439W        W 8699  10.933  13.531   2.829
36440W        W 8700  33.048  35.903   4.185
36441W        W 8701  11.482  27.588  13.483
36442W        W 8702  32.823  38.021  14.317
36443W        W 8703   4.836   6.491  14.846
36444W        W 8704  13.368  33.098  12.453
36445W        W 8705  15.252  22.395  11.178
36446W        W 8706  42.871  24.406   2.459
36447W        W 8707  36.543  33.449   2.177
36448W        W 8708  35.820  24.752   1.303
36449W        W 8709   5.124  28.017  12.399
36450W        W 8710  14.399  12.971   1.130
36451W        W 8711  16.329  28.547   0.731
36452W        W 8712  26.644  16.874   3.650
36453W        W 8713  25.004  31.065   4.615
36454W        W 8714  39.592  44.706  13.274
36455W        W 8715   6.258  34.026   2.304
36456W        W 8716  15.238   3.301   2.644
36457W        W 8717  44.446   5.995   1.889
36458W        W 8718  25.138  29.459   4.526
36459W        W 8719  23.650   0.591  13.522
36460W        W 8720   9.314   7.175  14.888
36461W        W 8721  25.162  19.744  13.567
36462W        W 8722   0.828  29.599  14.448
36463W        W 8723  36.211  32.193  14.013
36464W        W 8724  29.185  23.238   3.598
36465W        W 8725  37.503  22.548   0.255
36466W        W 8726  10.770   5.455   3.690
36467W        W 8727  24.901  36.306   1.491
36468W        W 8728  24.690  42.028  13.083
36469W        W 8729  32.255   7.779   4.882
36470W        W 8730  36.136  36.441  13.117
36471W        W 8731   8.917  28.976   1.243
36472W        W 8732  17.961   2.756   0.331
36473W        W 8733  25.209  30.407   0.277
36474W        W 8734   9.433  41.025   4.523
36475W        W 8735  23.718  40.522  10.660
36476W        W 8736   0.302   0.108  12.982
36477W        W 8737   8.177  39.941  12.999
36478W        W 8738  30.542   1.367  12.518
36479W        W 8739  11.849  13.152   1.801
36480W        W 8740  13.924  42.883   0.428
36481W        W 8741  13.212  12.288  10.462
36482W        W 8742   5.827  26.174   2.960
36483W        W 8743  36.772   8.611   0.681
36484W        W 8744   7.258  19.274   0.378
36485W        W 8745  17.704  33.459   3.076
36486W        W 8746  35.418  32.089  13.421
36487W        W 8747  31.784  37.037   4.571
36488W        W 8748  42.389  27.024  13.997
36489W        W 8749  25.450  20.815  13.807
36490W        W 8750  16.548  20.444  11.953
36491W        W 8751  34.066   7.469  11.042
36492W        W 8752   5.853  28.988  13.244
36493W        W 8753   0.487  42.108  13.401
36494W        W 8754   1.627  38.490   0.812
36495W        W 8755  10.747  17.795  11.531
36496W        W 8756  28.642  11.889  12.425
36497W        W 8757  44.011  13.797   1.341
36498W        W 8758  12.721   6.476   0.793
36499W        W 8759  39.567  13.760  12.105
36500W        W 8760  22.576   0.746  13.415
36501W        W 8761   8.149  15.293   4.797
36502W        W 8762  11.784   0.839   4.080
36503W        W 8763  11.398   0.438  12.623
36504W        W 8764  40.958  27.187  13.379
36505W        W 8765  13.154   0.942   0.364
36506W        W 8766   6.448   9.800   4.578
36507W        W 8767  10.254   3.969   2.177
36508W        W 8768   2.186  11.775   4.085
36509W        W 8769  12.236  41.561   1.811
36510W        W 8770  13.094  30.987  13.518
36511W        W 8771  19.209   9.501  14.355
36512W        W 8772  39.909   5.011  12.425
36513W        W 8773  28.061   9.217   3.164
36514W        W 8774  32.721  30.879  12.902
36515W        W 8775  13.246  22.792   2.777
36516W        W 8776  22.609  24.959   0.450
36517W        W 8777  34.834  27.407  13.386
36518W        W 8778  39.077  42.028  12.382
36519W        W 8779  20.284  39.922   3.898
36520W        W 8780  44.169  33.413   1.804
36521W        W 8781  32.291   0.384  14.573
36522W        W 8782  40.605   6.198   1.600
36523W        W 8783  12.735  22.298   3.378
36524W        W 8784  12.695  16.720  10.148
36525W        W 8785  24.689  16.125   0.598
36526W        W 8786  32.518  31.145   5.035
36527W        W 8787  32.600   5.146   4.486
36528W        W 8788   0.214  41.095   4.841
36529W        W 8789  42.796  27.559   4.732
36530W        W 8790  24.227  33.041  11.781
36531W        W 8791  28.874   0.521   1.770
36532W        W 8792  35.621  15.976   2.467
36533W        W 8793  18.623  31.375  12.663
36534W        W 8794  24.020  44.523  11.428
36535W        W 8795  39.293  14.656  14.012
36536W        W 8796  38.519  15.397  14.032
36537W        W 8797  36.827  26.215  14.944
36538W        W 8798   3.359  43.574   1.311
36539W        W 8799   8.087  15.347  13.826
36540W        W 8800   9.941  30.040   0.804
36541W        W 8801  29.904  15.257  12.019
36542W        W 8802  22.296  38.907  11.516
36543W        W 8803  30.395  13.977   0.373
36544W        W 8804  10.783  12.099   2.781
36545W        W 8805  16.218  19.550   2.223
36546W        W 8806  38.407  19.311  11.008
36547W        W 8807   3.525  43.527  12.045
36548W        W 8808   6.358  39.253   2.264
36549W        W 8809   1.212  16.401   1.395
36550W        W 8810  23.312  40.532   0.827
36551W        W 8811  20.278   0.175  12.547
36552W        W 8812  44.532   0.188   1.845
36553W        W 8813  19.094  43.885   1.720
36554W        W 8814   5.354   5.409   0.755
36555W        W 8815  41.198  24.650   4.554
36556W        W 8816  38.852  26.453  14.576
36557W        W 8817  39.575  34.581   3.700
36558W        W 8818  34.863  37.366  11.547
36559W        W 8819  27.506   0.957   1.804
36560W        W 8820   9.324   5.917  14.107
36561W        W 8821  20.611   4.381  12.015
36562W        W 8822  24.140   8.334   3.606
36563W        W 8823  43.712  21.428   2.417
36564W        W 8824  28.515  12.694   1.086
36565W        W 8825   3.555  10.417  14.198
36566W        W 8826   4.740   8.404  12.202
36567W        W 8827  29.402  28.871  12.292
36568W        W 8828  34.031  38.086  13.416
36569W        W 8829   8.129  34.532   0.235
36570W        W 8830  13.264   3.757  12.625
36571W        W 8831  40.778  25.029   0.458
36572W        W 8832  27.106  32.056  11.565
36573W        W 8833  28.121  38.201   4.993
36574W        W 8834   8.347  39.316   2.815
36575W        W 8835  16.660   1.763  13.829
36576W        W 8836  21.581  28.403  11.663
36577W        W 8837  33.686   6.186   3.220
36578W        W 8838  10.725  43.592  14.374
36579W        W 8839  22.576   8.894   0.914
36580W        W 8840   5.449   0.868   1.338
36581W        W 8841  42.420  14.112   0.439
36582W        W 8842  38.028  11.112  14.869
36583W        W 8843  11.108  10.340  13.750
36584W        W 8844   2.402  41.836   2.257
36585W        W 8845  10.659  31.865   1.806
36586W        W 8846  21.210  33.075  13.072
36587W        W 8847  39.576  38.288   3.501
36588W        W 8848  41.484  11.929   1.854
36589W        W 8849  27.682  12.182   4.879
36590W        W 8850  30.202  34.338   4.880
36591W        W 8851   4.179  44.741   0.490
36592W        W 8852  13.997   6.823  14.528
36593W        W 8853  11.421  32.913  11.039
36594W        W 8854  43.499  25.013   4.648
36595W        W 8855  39.126  43.072  10.754
36596W        W 8856  22.158  25.180  13.636
36597W        W 8857  14.713  29.721  10.349
36598W        W 8858  11.203   6.403  12.323
36599W        W 8859  37.055  36.387  14.173
36600W        W 8860  18.146  43.369  11.429
36601W        W 8861   4.260  14.810   1.098
36602W        W 8862  35.336  16.209  10.554
36603W        W 8863   1.837  44.302   4.492
36604W        W 8864  43.077  17.770   2.770
36605W        W 8865  16.532   4.253  14.927
36606W        W 8866  35.346   9.766   4.067
36607W        W 8867  27.003  27.518   3.098
36608W        W 8868  28.561   6.805  12.899
36609W        W 8869  36.137  30.194  12.229
36610W        W 8870  16.356   6.380   2.329
36611W        W 8871  18.062  24.137  14.823
36612W        W 8872  10.717  32.358  11.638
36613W        W 8873  19.250   7.674  12.457
36614W        W 8874  14.216   8.345  10.593
36615W        W 8875  37.417  12.401  12.135
36616W        W 8876  29.656  12.595   4.556
36617W        W 8877  19.710   9.988   3.224
36618W        W 8878  20.649  44.754   0.684
36619W        W 8879  18.751   0.406   0.761
36620W        W 8880  43.965  11.261  11.884
36621W        W 8881  26.980  31.946   0.402
36622W        W 8882  17.467  41.849   0.774
36623W        W 8883   9.660   5.427  11.946
36624W        W 8884  34.535  17.605  12.171
36625W        W 8885  29.677  44.973  14.004
36626W        W 8886  37.278   9.434  13.544
36627W        W 8887  10.374  12.403   3.891
36628W        W 8888  14.204  17.726  14.516
36629W        W 8889  29.932   2.011   1.611
36630W        W 8890   8.810  16.776   3.246
36631W        W 8891  14.436  30.125   0.450
36632W        W 8892  39.935  13.776   0.483
36633W        W 8893  12.402  35.075   3.176
36634W        W 8894  23.871  27.502  11.954
36635W        W 8895  30.534  33.992   2.847
36636W        W 8896  21.542  26.985   1.982
36637W        W 8897  32.597  10.359   1.029
36638W        W 8898  22.061  37.494  14.428
36639W        W 8899  14.245  41.865   4.257
36640W        W 8900   8.420  42.473  11.102
36641W        W 8901  21.178  25.680   4.911
36642W        W 8902   3.987  36.472  10.561
36643W        W 8903  11.854  24.071  14.101
36644W        W 8904  21.433  27.434  11.968
36645W        W 8905  14.396   9.884  14.361
36646W        W 8906  22.322  33.304   4.007
36647W        W 8907  16.467  40.878   4.523
36648W        W 8908  14.919  29.525  13.379
36649W        W 8909  27.546  30.039   0.541
36650W        W 8910  12.162   6.498  10.743
36651W        W 8911   6.404  12.418   4.104
36652W        W 8912  32.544   7.860   2.547
36653W        W 8913  32.617   8.385  13.505
36654W        W 8914  18.753  18.188   1.267
36655W        W 8915  19.584  43.443   3.391
36656W        W 8916  34.581  11.642   4.425
36657W        W 8917  22.978  35.483   4.770
36658W        W 8918   9.813  35.215  11.685
36659W        W 8919  30.486  40.051   2.347
36660W        W 8920  39.018  30.147   4.506
36661W        W 8921  21.570   7.850   0.920
36662W        W 8922   8.376  17.570  11.850
36663W        W 8923  23.471  38.842  12.840
36664W        W 8924  29.129  13.240   3.311
36665W        W 8925  12.298  19.301   4.909
36666W        W 8926  21.214  44.880   0.509
36667W        W 8927  39.287  43.337  14.822
36668W        W 8928  42.945   5.195  14.401
36669W        W 8929  21.436  19.599  14.956
36670W        W 8930  26.027  21.630   3.199
36671W        W 8931  32.521  13.699  13.754
36672W        W 8932  38.943  35.353   2.432
36673W        W 8933  26.982  27.989  11.254
36674W        W 8934  20.965  39.063   4.996
36675W        W 8935  20.651  27.557   4.911
36676W        W 8936  34.470  11.404   3.563
36677W        W 8937   5.603  41.958   3.610
36678W        W 8938  33.506  29.078   1.737
36679W        W 8939  21.383  17.347  12.579
36680W        W 8940  31.524  32.101  10.318
36681W        W 8941  25.723   7.447  10.605
36682W        W 8942   4.731  32.220  13.977
36683W        W 8943  11.754  31.056  12.019
36684W        W 8944  37.699  26.414  11.182
36685W        W 8945  16.050  33.060   2.392
36686W        W 8946   2.504   3.491   2.255
36687W        W 8947  37.531  22.814  12.916
36688W        W 8948  15.794   0.960  11.560
36689W        W 8949   7.840  35.374  11.989
36690W        W 8950  21.270  30.561   4.475
36691W        W 8951   4.063  34.167  13.595
36692W        W 8952  16.293  40.499   0.789
36693W        W 8953   7.787   2.913   0.747
36694W        W 8954   5.279   1.843   1.788
36695W        W 8955   9.631  40.101   2.235
36696W        W 8956  33.430   4.851   3.297
36697W        W 8957  36.314   6.347   4.636
36698W        W 8958  36.800  30.640   0.892
36699W        W 8959   7.710   3.959   0.884
36700W        W 8960  19.327  14.109   2.889
36701W        W 8961  30.489  33.365  14.924
36702W        W 8962  36.919  13.976  10.910
36703W        W 8963  12.169  23.049   1.177
36704W        W 8964  32.346  41.478  14.359
36705W        W 8965   7.901  31.507   1.366
36706W        W 8966  38.449  41.510  14.551
36707W        W 8967  19.502  32.849   2.353
36708W        W 8968  19.020  23.809  13.012
36709W        W 8969  13.392   4.251   1.168
36710W        W 8970  19.142  30.963   1.188
36711W        W 8971  27.540   6.878   4.067
36712W        W 8972   0.521  30.628  11.077
36713W        W 8973  34.359  16.510   2.309
36714W        W 8974  27.704  33.607  11.471
36715W        W 8975  24.698  35.985   2.413
36716W        W 8976  27.376  25.531  14.720
36717W        W 8977   9.831   9.053   0.220
36718W        W 8978  25.891  26.956  11.573
36719W        W 8979  11.319   5.323  12.169
36720W        W 8980  12.324  31.440   3.295
36721W        W 8981  23.507  29.853   4.568
36722W        W 8982  17.068  31.433   4.828
36723W        W 8983  42.460  37.998   1.145
36724W        W 8984   7.217  44.345  11.221
36725W        W 8985  21.124   1.541   3.708
36726W        W 8986  43.935  26.156   2.422
36727W        W 8987  37.478  33.589   4.516
36728W        W 8988  12.641  18.896  11.114
36729W        W 8989  23.695   2.268  14.970
36730W        W 8990   8.744  22.917   2.381
36731W        W 8991  22.512  31.498  12.999
36732W        W 8992  43.890  26.238   3.315
36733W        W 8993   3.377  28.475   4.090
36734W        W 8994  17.213   0.747  14.517
36735W        W 8995  43.546  25.521   1.113
36736W        W 8996  16.449  29.819  13.377
36737W        W 8997  42.801  33.157   2.743
36738W        W 8998   6.667  39.981  13.083
36739W        W 8999  11.707  40.005   1.547
36740W        W 9000  43.201  38.847   2.233
36741W        W 9001  23.128  14.989   1.500
36742W        W 9002  19.801  34.989   3.200
36743W        W 9003  11.782   4.899   2.216
36744W        W 9004  10.154  30.072   2.127
36745W        W 9005  24.606  11.420  13.010
36746W        W 9006  34.985  19.152  13.354
36747W        W 9007  43.938   1.325   0.786
36748W        W 9008  27.247   2.549  11.132
36749W        W 9009   1.974  44.806   0.590
36750W        W 9010  14.323  19.146   3.762
36751W        W 9011   4.902   7.896   1.686
36752W        W 9012  41.608  27.654  13.143
36753W        W 9013  44.883  23.317   1.758
36754W        W 9014   8.741   4.065   4.393
36755W        W 9015  33.142  42.966   5.002
36756W        W 9016  20.757  32.568   2.428
36757W        W 9017  15.205  20.944  13.050
36758W        W 9018  42.378   5.046  13.935
36759W        W 9019  26.487  31.931   3.810
36760W        W 9020  18.295   6.112  10.278
36761W        W 9021  33.579  24.463   4.537
36762W        W 9022  24.988  40.783   1.371
36763W        W 9023  42.554  32.748  13.343
36764W        W 9024  22.171  10.833  10.697
36765W        W 9025  25.172  37.085   2.000
36766W        W 9026  35.938  41.890   4.237
36767W        W 9027  38.976  43.830  14.010
36768W        W 9028  44.587  44.968   0.517
36769W        W 9029  36.367   3.890  11.847
36770W        W 9030  44.266  18.731   4.455
36771W        W 9031  28.168   8.248   3.649
36772W        W 9032  25.996  12.044   2.784
36773W        W 9033  25.695  12.361   4.862
36774W        W 9034  40.814  15.259  14.630
36775W        W 9035  24.939  10.034   1.901
36776W        W 9036   5.777   5.694  14.086
36777W        W 9037  27.169   6.825  12.723
36778W        W 9038  18.702   3.983  12.961
36779W        W 9039  18.510  14.300   2.223
36780W        W 9040  12.820  16.494   3.077
36781W        W 9041  39.603  38.510   4.481
36782W        W 9042   4.880  25.641  10.401
36783W        W 9043  10.730  26.522  11.514
36784W        W 9044  22.187  32.627  14.930
36785W        W 9045   1.417  27.881  12.402
36786W        W 9046   9.751  44.340   1.485
36787W        W 9047  24.603  11.820  11.271
36788W        W 9048   3.213  39.954  14.459
36789W        W 9049  13.656  29.042  10.712
36790W        W 9050  32.014  44.891  13.637
36791W        W 9051  14.136  42.832  12.652
36792W        W 9052  22.397  37.294  14.808
36793W        W 9053   1.651   4.077   3.611
36794W        W 9054  15.833  15.484  10.922
36795W        W 9055   7.915   2.403  12.975
36796W        W 9056  40.369   5.109   2.904
36797W        W 9057  29.714  22.474  14.355
36798W        W 9058  10.346   6.093  11.806
36799W        W 9059  19.665   8.544  11.642
36800W        W 9060  12.880  14.418  12.401
36801W        W 9061  15.215  16.367  12.140
36802W        W 9062  22.927   6.268  14.362
36803W        W 9063  42.729  13.335  14.966
36804W        W 9064  22.907   9.772  14.821
36805W        W 9065  38.967  36.001   3.345
36806W        W 9066  43.937  34.874  14.495
36807W        W 9067  31.968   0.949   4.238
36808W        W 9068   5.243  16.164  11.620
36809W        W 9069  19.739  14.268  12.629
36810W        W 9070  32.062   0.449  11.108
36811W        W 9071  14.022  43.696   2.341
36812W        W 9072  13.731  17.662   3.193
36813W        W 9073   1.263  12.543  11.292
36814W        W 9074  16.611   3.834  13.951
36815W        W 9075  16.193  29.551  11.158
36816W        W 9076  38.726  11.688   5.020
36817W        W 9077   7.716  11.081   3.215
36818W        W 9078   7.239  19.123   0.872
36819W        W 9079  39.389   2.952   1.229
36820W        W 9080  39.048  15.671   0.959
36821W        W 9081  43.914  28.154   2.075
36822W        W 9082  15.748  27.760   4.034
36823W        W 9083  36.602  11.732  13.812
36824W        W 9084   7.957  38.413   3.632
36825W        W 9085   0.844  35.641   3.358
36826W        W 9086   2.844  29.599   3.056
36827W        W 9087  29.880  14.376   2.662
36828W        W 9088   7.833  22.728  14.859
36829W        W 9089  31.136   1.794   0.891
36830W        W 9090  16.151   2.495   1.984
36831W        W 9091   4.272   6.324  10.645
36832W        W 9092  26.036  40.930  10.647
36833W        W 9093   5.402  42.227  14.454
36834W        W 9094   3.256  12.145  12.367
36835W        W 9095  44.880  15.799  11.205
36836W        W 9096   1.549   2.954  14.781
36837W        W 9097  19.676  14.694   4.829
36838W        W 9098   4.742  12.233  14.004
36839W        W 9099  11.866  31.773   5.172
36840W        W 9100  10.773  13.646  11.112
36841W        W 9101  10.747  20.175   1.968
36842W        W 9102   9.212  20.955   2.891
36843W        W 9103  27.535  30.981  10.291
36844W        W 9104   8.649  44.438  14.885
36845W        W 9105  13.725  20.696   1.486
36846W        W 9106  17.282  20.721  13.962
36847W        W 9107   3.511  41.860  11.180
36848W        W 9108  30.925   1.374   3.545
36849W        W 9109  11.406  18.341   3.392
36850W        W 9110  33.432  10.333   2.160
36851W        W 9111  30.854  15.761   4.217
36852W        W 9112   7.624  30.464   3.548
36853W        W 9113   1.575  29.409  13.918
36854W        W 9114   9.438  38.881  10.121
36855W        W 9115  32.051  10.446  11.144
36856W        W 9116  18.226  36.045   2.745
36857W        W 9117  26.372  17.596  10.698
36858W        W 9118   4.302  16.556   2.416
36859W        W 9119  42.247  35.998   1.210
36860W        W 9120  40.225   4.704   2.598
36861W        W 9121  24.006  43.955  14.469
36862W        W 9122  18.180  17.566  13.527
36863W        W 9123  36.861  44.546   3.170
36864W        W 9124  43.385  17.304  11.346
36865W        W 9125  33.558  41.977   3.575
36866W        W 9126  30.819   8.402  13.348
36867W        W 9127  28.130  27.469  10.684
36868W        W 9128  25.407  16.122   0.205
36869W        W 9129  27.533  11.705   2.553
36870W        W 9130  44.545  30.949  13.997
36871W        W 9131  20.940   6.416  14.463
36872W        W 9132  22.729  41.798  11.757
36873W        W 9133  26.433   8.723  10.676
36874W        W 9134  19.565  15.720  12.479
36875W        W 9135  34.381  30.851  14.491
36876W        W 9136  43.453  22.060   0.251
36877W        W 9137  19.114  15.115  11.153
36878W        W 9138  21.331   0.165  10.753
36879W        W 9139  17.825   3.707  12.988
36880W        W 9140  22.971   0.900   1.417
36881W        W 9141  24.962   6.365  14.407
36882W        W 9142  34.040  32.982  11.948
36883W        W 9143  12.218  37.683  13.932
36884W        W 9144  24.202  18.572   3.279
36885W        W 9145  33.395  32.406  13.081
36886W        W 9146  40.397  36.939   3.255
36887W        W 9147  18.868  36.470  13.913
36888W        W 9148  20.357  41.811   1.903
36889W        W 9149  15.049  21.517  10.561
36890W        W 9150  37.939  16.248   4.076
36891W        W 9151   8.873  35.082  14.060
36892W        W 9152  33.683  11.821   4.115
36893W        W 9153  25.600  19.585   3.597
36894W        W 9154   5.143  18.855  10.726
36895W        W 9155  23.545  27.074   0.905
36896W        W 9156  23.219  17.061   2.273
36897W        W 9157  20.172  15.537  14.994
36898W        W 9158  33.909  31.135   0.904
36899W        W 9159  16.778  32.015  14.851
36900W        W 9160  22.601  12.141   0.936
36901W        W 9161  34.289  39.922  11.557
36902W        W 9162  41.750  41.299   2.301
36903W        W 9163  14.870   4.144  10.521
36904W        W 9164  33.963  14.404  14.446
36905W        W 9165  19.765  44.839   1.219
36906W        W 9166  33.633  20.003   3.324
36907W        W 9167  28.419   4.382  10.397
36908W        W 9168  27.621  27.974  11.908
36909W        W 9169  31.338  21.812  14.902
36910W        W 9170  25.560   5.746  12.472
36911W        W 9171  15.814  42.537  11.921
36912W        W 9172  44.193  36.706  12.881
36913W        W 9173   2.925  44.548  10.102
36914W        W 9174  13.376   9.857  13.584
36915W        W 9175  39.570  34.705   0.562
36916W        W 9176  32.180  27.591   0.689
36917W        W 9177  32.528   1.034   0.851
36918W        W 9178  10.877  11.588  12.077
36919W        W 9179   3.384   8.172   2.494
36920W        W 9180   9.928  18.291   3.264
36921W        W 9181  18.243   6.955  13.591
36922W        W 9182  19.503  23.544  12.156
36923W        W 9183  18.245  23.275  14.340
36924W        W 9184  11.621  24.797   4.939
36925W        W 9185  37.920  32.975   2.851
36926W        W 9186  29.590  23.092  10.485
36927W        W 9187  43.580  30.865   1.291
36928W        W 9188  26.886  23.625   0.336
36929W        W 9189  29.008  25.681   3.645
36930W        W 9190   0.285  31.042  11.590
36931W        W 9191   1.384  37.266  14.425
36932W        W 9192  11.188   3.296  12.575
36933W        W 9193  29.533  22.917   4.131
36934W        W 9194   3.235   5.727   3.712
36935W        W 9195  14.707  44.031  12.607
36936W        W 9196  24.906  38.102   2.193
36937W        W 9197  41.387   9.926  13.418
36938W        W 9198  14.372  14.645   4.291
36939W        W 9199  37.948  27.367   1.221
36940W        W 9200  36.472  19.043  13.946
36941W        W 9201  18.976  34.952  10.336
36942W        W 9202  16.667  14.722   9.775
36943W        W 9203   3.500   1.269  12.905
36944W        W 9204   6.171  32.477   4.807
36945W        W 9205  29.467   8.741   1.235
36946W        W 9206  39.922  42.011  11.586
36947W        W 9207  38.617  22.730   2.352
36948W        W 9208  33.800   0.365   0.843
36949W        W 9209  25.013  16.334  14.821
36950W        W 9210  38.384  15.930  12.527
36951W        W 9211  44.246  14.275   2.800
36952W        W 9212  23.317  22.083  11.031
36953W        W 9213  34.124  43.451   0.417
36954W        W 9214  18.313   3.380   1.264
36955W        W 9215   3.969  42.461  13.055
36956W        W 9216  38.625  43.246  13.795
36957W        W 9217   6.926  37.324   2.137
36958W        W 9218   3.778  14.261   0.287
36959W        W 9219  26.959   4.373  13.564
36960W        W 9220   0.046  44.725  11.554
36961W        W 9221   2.991  29.142  10.650
36962W        W 9222  43.421  29.852   1.482
36963W        W 9223  19.307  31.908   1.973
36964W        W 9224   6.347  42.798   3.268
36965W        W 9225   0.920  16.774  13.300
36966W        W 9226  16.995  17.270   3.160
36967W        W 9227  15.926  23.165   4.058
36968W        W 9228  44.741  31.993  14.547
36969W        W 9229  41.271  33.610   2.063
36970W        W 9230  25.293  33.053  13.496
36971W        W 9231  41.862  19.568  14.915
36972W        W 9232  26.970  27.592  10.443
36973W        W 9233  23.747  41.979  14.425
36974W        W 9234  24.643  31.444   1.966
36975W        W 9235  13.611  20.842   1.993
36976W        W 9236  13.781  43.568  12.367
36977W        W 9237  41.708   1.352   2.405
36978W        W 9238  28.521   8.632   2.372
36979W        W 9239  36.981   4.196   3.910
36980W        W 9240  10.655  28.192   1.696
36981W        W 9241  13.669  24.658   2.448
36982W        W 9242  34.467  18.369  10.078
36983W        W 9243  15.831  13.550   0.856
36984W        W 9244  36.046  32.111  12.959
36985W        W 9245   8.172  14.977  12.580
36986W        W 9246  29.405   0.003  11.695
36987W        W 9247  32.487  34.361   4.049
36988W        W 9248  30.510  33.359  13.079
36989W        W 9249  18.731  31.362  12.152
36990W        W 9250  28.156   9.941   1.503
36991W        W 9251  44.933  24.963   4.224
36992W        W 9252   8.357  30.646   2.624
36993W        W 9253   2.300  31.397   1.786
36994W        W 9254  35.084  43.471  12.075
36995W        W 9255  27.542  36.083  11.187
36996W        W 9256  23.192  13.524   4.768
36997W        W 9257  39.511  27.158  12.041
36998W        W 9258  30.664  30.974   0.258
36999W        W 9259  42.342  40.969  11.532
37000W        W 9260  35.467  27.453   1.501
37001W        W 9261  43.915  44.534   3.676
37002W        W 9262  28.533  35.447  13.810
37003W        W 9263   4.230   6.841   3.629
37004W        W 9264   8.911  19.615   3.108
37005W        W 9265   6.671  18.563   1.962
37006W        W 9266   0.425   7.674   2.886
37007W        W 9267  21.046  11.880   4.954
37008W        W 9268  13.328  14.807   2.855
37009W        W 9269  37.451  32.437  13.610
37010W        W 9270  44.799   5.313  11.432
37011W        W 9271  19.440  36.931  14.424
37012W        W 9272  14.154  44.863   1.852
37013W        W 9273  15.637   5.942  13.105
37014W        W 9274  33.631  15.773  13.155
37015W        W 9275  31.987  20.994   1.878
37016W        W 9276  28.997  35.336   3.287
37017W        W 9277  13.902  36.105  13.589
37018W        W 9278  41.436  23.322  14.173
37019W        W 9279  27.141  22.461   3.333
37020W        W 9280   4.836  27.575  12.110
37021W        W 9281  23.024  10.449   0.429
37022W        W 9282  40.446  26.056  11.078
37023W        W 9283  40.687  40.807   2.048
37024W        W 9284  42.125   0.198  10.430
37025W        W 9285   1.323  13.060  13.908
37026W        W 9286  22.001  39.755  14.292
37027W        W 9287  30.377  37.708   2.275
37028W        W 9288  14.195   6.817  13.006
37029W        W 9289  13.828  20.690   0.964
37030W        W 9290  25.510  23.010  14.546
37031W        W 9291   6.723  17.357  11.727
37032W        W 9292   9.040   9.541   0.321
37033W        W 9293  10.700  20.993  11.884
37034W        W 9294  17.770  33.166  14.347
37035W        W 9295  32.535  34.436  11.616
37036W        W 9296   7.483   3.003  13.440
37037W        W 9297  28.497  13.514  13.470
37038W        W 9298   6.565   0.299   3.458
37039W        W 9299  12.341  25.564  14.021
37040W        W 9300  42.248  33.151   1.831
37041W        W 9301  25.089  11.372   4.649
37042W        W 9302  13.043  37.949  13.756
37043W        W 9303  40.436  20.763   1.765
37044W        W 9304   8.573  38.482  11.282
37045W        W 9305  37.810  20.859  11.992
37046W        W 9306  34.981  13.612   1.360
37047W        W 9307   7.411  26.886   2.681
37048W        W 9308  39.315  35.569  14.560
37049W        W 9309  38.216  23.626   2.077
37050W        W 9310   6.258  27.077   1.640
37051W        W 9311  19.173  13.521  13.865
37052W        W 9312  15.187   9.550   4.768
37053W        W 9313   0.479   4.442   2.269
37054W        W 9314  40.866   2.235   2.737
37055W        W 9315  22.087   4.378  10.962
37056W        W 9316  19.740  28.029   0.477
37057W        W 9317   9.287  43.505  10.861
37058W        W 9318  24.983  20.330   4.640
37059W        W 9319   0.284  31.505  13.070
37060W        W 9320  36.860  15.046   0.285
37061W        W 9321  12.505  20.483   4.048
37062W        W 9322   2.607  14.700  11.592
37063W        W 9323  13.267  30.802   1.914
37064W        W 9324  39.836  18.914   2.870
37065W        W 9325   5.766  21.087   1.753
37066W        W 9326   2.007  37.535  12.959
37067W        W 9327  42.906  19.653  12.876
37068W        W 9328  17.681  37.333  13.263
37069W        W 9329   4.992  36.342   1.421
37070W        W 9330  36.448  23.609   0.931
37071W        W 9331   2.212  44.234  14.235
37072W        W 9332  23.631  38.599  11.514
37073W        W 9333  31.997  17.105   0.548
37074W        W 9334  39.448  16.085  13.878
37075W        W 9335  14.227  22.839  10.737
37076W        W 9336  11.399  11.405  12.454
37077W        W 9337  10.440   8.668  11.025
37078W        W 9338  22.290  20.379  11.133
37079W        W 9339  30.225  44.770   4.840
37080W        W 9340  29.625  36.855   4.439
37081W        W 9341  14.686   6.399  11.830
37082W        W 9342   6.788  16.708   2.264
37083W        W 9343  22.821  17.719  14.432
37084W        W 9344   1.960  20.266   3.830
37085W        W 9345  42.780  38.554   2.099
37086W        W 9346  25.020   9.247  14.453
37087W        W 9347  15.672  41.467   2.152
37088W        W 9348  42.513  42.522  12.127
37089W        W 9349  24.509  38.425   2.332
37090W        W 9350  21.128  18.475   1.390
37091W        W 9351  25.787  13.411  10.931
37092W        W 9352  11.913  34.185  14.380
37093W        W 9353   4.620  32.185   4.194
37094W        W 9354  15.595   2.850  11.298
37095W        W 9355  34.693  21.817   2.312
37096W        W 9356  36.560  39.832  12.429
37097W        W 9357  18.031  17.415   3.066
37098W        W 9358  19.549  29.575  11.608
37099W        W 9359   1.317   4.082   2.798
37100W        W 9360  29.203   5.343   0.253
37101W        W 9361  12.278  29.206   3.199
37102W        W 9362  37.444  33.079   0.365
37103W        W 9363  28.903   1.298   2.634
37104W        W 9364  14.570  42.765  12.923
37105W        W 9365  34.408  41.766   0.728
37106W        W 9366  21.954  44.701  14.833
37107W        W 9367   4.306  31.053   2.338
37108W        W 9368  12.552  16.654  13.124
37109W        W 9369  18.571  12.041  13.239
37110W        W 9370  44.317  29.853  13.370
37111W        W 9371  42.033   7.836   0.447
37112W        W 9372  15.299  44.243  13.823
37113W        W 9373  28.186   7.374   1.924
37114W        W 9374  20.533  21.006   1.862
37115W        W 9375  44.290  38.303  13.358
37116W        W 9376   8.695  18.010  13.459
37117W        W 9377  31.308  35.892   2.648
37118W        W 9378  17.210  15.701  13.421
37119W        W 9379   8.616  12.115  12.895
37120W        W 9380  26.562  16.024   2.467
37121W        W 9381  20.168  13.259   1.422
37122W        W 9382  20.993   0.559   1.653
37123W        W 9383  28.536  41.071   2.470
37124W        W 9384  44.354  21.275   3.162
37125W        W 9385  16.258  32.651   0.328
37126W        W 9386  30.860  33.622   1.737
37127W        W 9387  14.949   8.727  14.328
37128W        W 9388  31.193  23.118   1.831
37129W        W 9389  41.801  19.112  11.539
37130W        W 9390  23.236  18.068  13.232
37131W        W 9391  31.207  27.028  11.115
37132W        W 9392  30.572  31.942   4.087
37133W        W 9393   3.413   7.192  11.127
37134W        W 9394  34.543  27.261   1.667
37135W        W 9395  14.813  30.467  13.341
37136W        W 9396   2.142  26.368  12.037
37137W        W 9397  35.254  37.622  12.409
37138W        W 9398  23.738  26.104   2.880
37139W        W 9399  34.109  28.348  12.045
37140W        W 9400   2.822   3.891   0.492
37141W        W 9401  20.952   7.943   3.152
37142W        W 9402  22.630  20.609  14.434
37143W        W 9403  42.833  37.451   4.700
37144W        W 9404  38.056  15.233   3.726
37145W        W 9405  17.549  31.491   4.178
37146W        W 9406  41.322   2.318  11.169
37147W        W 9407  22.712  25.611   4.547
37148W        W 9408  37.220   9.141  10.264
37149W        W 9409  44.047  44.215  10.016
37150W        W 9410  16.025  35.619  14.934
37151W        W 9411   1.864  23.430  11.446
37152W        W 9412   8.178  44.300  12.794
37153W        W 9413  10.914  10.543   3.682
37154W        W 9414  44.344  20.240   2.100
37155W        W 9415  32.492  24.288  12.646
37156W        W 9416  36.050  13.403   3.686
37157W        W 9417  43.504  38.490   5.032
37158W        W 9418   9.970  13.918   3.164
37159W        W 9419  13.719   3.370  13.865
37160W        W 9420  16.641   0.418   2.582
37161W        W 9421  33.217  29.718   1.866
37162W        W 9422  32.010  29.947   0.486
37163W        W 9423  17.637  43.405   0.567
37164W        W 9424  12.973  35.047   4.858
37165W        W 9425  36.270   7.742   5.138
37166W        W 9426   5.407   4.252  11.472
37167W        W 9427  11.692  30.920   2.263
37168W        W 9428  16.547   2.490  14.412
37169W        W 9429  23.466  40.397  14.050
37170W        W 9430  31.404  41.855  11.709
37171W        W 9431  21.022  35.210  11.996
37172W        W 9432  35.345  12.119   1.855
37173W        W 9433  20.588  20.620   0.034
37174W        W 9434  14.571  42.934   1.282
37175W        W 9435  43.998   6.353   2.904
37176W        W 9436  29.038  19.213  12.004
37177W        W 9437  18.258  31.533   0.859
37178W        W 9438  38.665   9.903   4.963
37179W        W 9439  25.865   8.741   0.892
37180W        W 9440  33.815  23.008  11.886
37181W        W 9441  43.965  42.511   1.880
37182W        W 9442  23.647   8.656  12.743
37183W        W 9443  37.059  16.712  12.763
37184W        W 9444  27.753  24.597   3.172
37185W        W 9445  22.171  44.409  12.068
37186W        W 9446  29.739  40.238   1.914
37187W        W 9447  22.499  16.841  14.309
37188W        W 9448  18.771  18.754  10.442
37189W        W 9449  29.387  43.352   0.874
37190W        W 9450  40.592  23.087   3.225
37191W        W 9451  26.020   3.695  14.367
37192W        W 9452   3.167  19.590   1.336
37193W        W 9453  35.427  15.724  13.133
37194W        W 9454   1.837   9.676  11.166
37195W        W 9455  22.956  35.824   4.043
37196W        W 9456  37.640  34.867   4.703
37197W        W 9457  32.378  10.871  11.172
37198W        W 9458  15.057  39.333  11.518
37199W        W 9459  44.310  24.094   1.427
37200W        W 9460  18.005  16.569  13.347
37201W        W 9461  10.371  20.629  12.118
37202W        W 9462  21.760  42.905   3.080
37203W        W 9463  36.315  33.000   4.580
37204W        W 9464  20.935  10.853  13.764
37205W        W 9465   2.826  30.615   1.276
37206W        W 9466  22.725  27.258  10.969
37207W        W 9467   1.272  33.947  13.139
37208W        W 9468  42.188   7.222  13.141
37209W        W 9469  16.693   1.976   1.310
37210W        W 9470   0.362  32.049  13.055
37211W        W 9471  41.916   0.901  11.565
37212W        W 9472  14.108   8.594  14.480
37213W        W 9473  18.537   6.390   1.217
37214W        W 9474  18.363  11.193   1.814
37215W        W 9475   2.621  37.109   2.177
37216W        W 9476  26.141  37.354   2.609
37217W        W 9477  26.671   7.960  12.666
37218W        W 9478  30.661  43.111  12.074
37219W        W 9479   6.473  34.544  10.059
37220W        W 9480  37.978  12.334  13.266
37221W        W 9481  26.133  14.837   4.600
37222W        W 9482  20.038   2.714   4.642
37223W        W 9483  35.137  32.664  12.262
37224W        W 9484  18.477   9.106  12.983
37225W        W 9485  10.326  23.586   1.830
37226W        W 9486   5.000  14.018  14.383
37227W        W 9487   9.092  23.501   0.756
37228W        W 9488   1.446  18.087  11.230
37229W        W 9489  25.950  25.234  14.033
37230W        W 9490   3.254  30.168  14.333
37231W        W 9491  35.075  43.408   2.203
37232W        W 9492  33.215  32.428  10.984
37233W        W 9493   0.390  19.588   0.664
37234W        W 9494  36.160   0.822   0.875
37235W        W 9495   1.276   0.498  10.549
37236W        W 9496  23.232  19.813   2.733
37237W        W 9497   0.372  40.313   4.774
37238W        W 9498  15.030  30.923  13.297
37239W        W 9499  44.781  18.698  10.793
37240W        W 9500  39.605  34.785   4.195
37241W        W 9501  44.276  44.269  12.446
37242W        W 9502   8.852  38.809   3.968
37243W        W 9503  14.263  12.684   3.187
37244W        W 9504  14.266  37.003  10.353
37245W        W 9505  34.099  44.744   1.786
37246W        W 9506  16.606  15.690  14.297
37247W        W 9507  11.314  25.264   3.149
37248W        W 9508  37.446   9.882  11.908
37249W        W 9509  33.437   3.409   4.787
37250W        W 9510  13.642  42.643   2.804
37251W        W 9511  12.689  27.200   0.374
37252W        W 9512  19.963   8.525   4.334
37253W        W 9513  29.618  33.672   5.171
37254W        W 9514  17.371  36.940   1.374
37255W        W 9515   5.195  13.373   4.514
37256W        W 9516  26.488  43.089  11.510
37257W        W 9517  21.598  37.343  12.663
37258W        W 9518  32.493  30.745  14.255
37259W        W 9519  19.182  38.616  14.658
37260W        W 9520  30.963  33.068   2.586
37261W        W 9521  16.754   6.541  12.458
37262W        W 9522   5.594  13.171   4.936
37263W        W 9523  16.799  13.336  12.143
37264W        W 9524  18.742   4.848  10.809
37265W        W 9525  32.492   2.783  13.417
37266W        W 9526  33.156  19.157  13.882
37267W        W 9527  14.079  13.365   0.982
37268W        W 9528  18.861   5.981  12.958
37269W        W 9529  36.055  43.814   4.546
37270W        W 9530  36.065   6.478   1.716
37271W        W 9531  26.066  20.225   0.366
37272W        W 9532  12.510  37.831  12.337
37273W        W 9533  17.321  26.370   0.387
37274W        W 9534  25.992  25.640  10.663
37275W        W 9535  31.857  34.119  12.576
37276W        W 9536  31.280  26.929  12.123
37277W        W 9537  22.131  36.599   1.351
37278W        W 9538  18.511  18.513   3.197
37279W        W 9539  11.819  16.782   3.127
37280W        W 9540  40.046  19.697  13.471
37281W        W 9541  10.399   6.492   2.221
37282W        W 9542  44.022  30.071  14.461
37283W        W 9543  18.559  39.574   2.584
37284W        W 9544  30.955   2.703   1.390
37285W        W 9545   1.560  11.278   0.393
37286W        W 9546  16.232  41.577  11.014
37287W        W 9547  29.545   7.268  10.777
37288W        W 9548  41.014  38.778  13.309
37289W        W 9549  21.183  43.978  14.985
37290W        W 9550  25.786  11.730  10.667
37291W        W 9551  14.163  37.008  14.837
37292W        W 9552  41.294  28.978   1.347
37293W        W 9553  16.813  41.920   2.185
37294W        W 9554  36.941  31.628  12.010
37295W        W 9555  15.648  44.463   0.354
37296W        W 9556  40.270  34.960  11.033
37297W        W 9557  22.433  25.537  10.534
37298W        W 9558  41.980  17.730  12.868
37299W        W 9559  39.276  11.233  10.541
37300W        W 9560   0.802   5.036   2.920
37301W        W 9561  17.123  13.233   1.050
37302W        W 9562  14.431  42.098   3.722
37303W        W 9563  25.988  20.119   4.863
37304W        W 9564  21.123  15.330  12.040
37305W        W 9565  25.251   2.859   1.459
37306W        W 9566  27.625  27.686  11.381
37307W        W 9567   7.329  26.913  10.137
37308W        W 9568  13.340  26.164  11.555
37309W        W 9569  12.206  33.873  11.412
37310W        W 9570  30.013  11.407   4.240
37311W        W 9571  21.586   9.886  11.033
37312W        W 9572  10.577  41.969  10.392
37313W        W 9573  29.358  20.559   2.126
37314W        W 9574  20.641  10.702  12.776
37315W        W 9575   9.302   1.868   3.817
37316W        W 9576  25.573  19.038  14.317
37317W        W 9577  20.671  42.539   4.550
37318W        W 9578  14.878  40.912   4.578
37319W        W 9579   0.843  15.165   0.752
37320W        W 9580  26.749  43.402  14.390
37321W        W 9581  12.067  31.131   3.980
37322W        W 9582  22.310  18.226  13.545
37323W        W 9583  44.858  39.799   0.272
37324W        W 9584  18.645  31.173   2.780
37325W        W 9585  18.012  34.048   1.907
37326W        W 9586   4.215  21.247   0.758
37327W        W 9587  37.817  40.409  12.669
37328W        W 9588   4.373  20.549  14.362
37329W        W 9589  20.354   5.151  13.359
37330W        W 9590   8.348  17.562   3.716
37331W        W 9591  29.645  44.558  11.808
37332W        W 9592  21.083  39.122  11.132
37333W        W 9593  20.478  42.550   2.554
37334W        W 9594  26.834  33.788   3.469
37335W        W 9595  26.836   4.236  14.581
37336W        W 9596  31.586   2.407   3.308
37337W        W 9597  32.607   0.661   4.032
37338W        W 9598  36.893  38.456   0.489
37339W        W 9599   5.876   2.346  14.696
37340W        W 9600  13.048   8.567  13.744
37341W        W 9601   1.905   7.845  14.504
37342W        W 9602  17.607   2.921   2.879
37343W        W 9603   8.821  42.150   2.627
37344W        W 9604  16.856  33.177   2.296
37345W        W 9605  39.436  35.584   3.739
37346W        W 9606  38.488  23.471  11.492
37347W        W 9607  23.211  37.143  12.088
37348W        W 9608  14.353   7.467   1.307
37349W        W 9609  32.149  30.657  11.193
37350W        W 9610  43.065  27.382   2.709
37351W        W 9611   1.327  18.353  11.713
37352W        W 9612  21.615  43.156   2.186
37353W        W 9613  40.490  35.075  13.865
37354W        W 9614   7.784  40.392  14.610
37355W        W 9615  42.820  10.706  10.702
37356W        W 9616   5.820   4.144   0.323
37357W        W 9617  15.151   9.931  11.521
37358W        W 9618   1.845  19.715   2.998
37359W        W 9619   3.025   6.815   1.244
37360W        W 9620  35.445  13.117   2.141
37361W        W 9621  22.841  20.102   4.761
37362W        W 9622  32.007   0.023   3.772
37363W        W 9623   5.332  28.821   2.901
37364W        W 9624  13.802  32.435   3.238
37365W        W 9625  26.306  27.467  12.704
37366W        W 9626  32.181  13.222   1.276
37367W        W 9627   7.123   4.504  13.780
37368W        W 9628   8.368  36.353  14.424
37369W        W 9629  43.309  34.432   0.480
37370W        W 9630  43.101  15.174  12.361
37371W        W 9631  35.588  11.859  10.595
37372W        W 9632  10.709   2.187  14.057
37373W        W 9633  43.233  18.468   0.209
37374W        W 9634  33.824   0.790   0.018
37375W        W 9635  21.149   4.685   0.986
37376W        W 9636  27.187  42.531  11.924
37377W        W 9637  41.351  43.372   2.667
37378W        W 9638  19.070  24.912   2.654
37379W        W 9639  10.946  40.073  14.482
37380W        W 9640  21.776   1.870   0.696
37381W        W 9641  38.545  34.694  10.645
37382W        W 9642  17.099  29.954   0.410
37383W        W 9643  38.106  25.296   2.336
37384W        W 9644  11.585  15.409   2.190
37385W        W 9645   2.468  13.168  13.836
37386W        W 9646  19.486  12.096   2.313
37387W        W 9647  19.927  35.077   4.252
37388W        W 9648  41.858   1.432   4.721
37389W        W 9649   0.452   3.930   2.216
37390W        W 9650   0.618   8.701   2.476
37391W        W 9651  22.694   2.964   4.565
37392W        W 9652  12.023  34.656   2.759
37393W        W 9653  41.080  37.785   0.396
37394W        W 9654  17.711  38.733   4.610
37395W        W 9655  40.863   4.481   0.409
37396W        W 9656   6.960   8.195  12.239
37397W        W 9657   0.255  28.947  14.800
37398W        W 9658  20.596  26.555   1.783
37399W        W 9659   6.425   5.283  11.467
37400W        W 9660  31.857  30.653   4.128
37401W        W 9661  11.187  23.972  14.315
37402W        W 9662  13.714  43.305   0.211
37403W        W 9663  21.088  34.875   2.277
37404W        W 9664  36.264   0.800  13.786
37405W        W 9665   5.102   1.232  13.983
37406W        W 9666  14.329   0.737   3.792
37407W        W 9667  29.121   4.264  14.761
37408W        W 9668  29.314  28.120   0.534
37409W        W 9669  39.312  32.929   2.048
37410W        W 9670   7.147  13.345  13.288
37411W        W 9671  15.747  42.353  14.233
37412W        W 9672  42.249  44.105   3.333
37413W        W 9673  39.802  38.993  14.784
37414W        W 9674   8.822  35.944   3.371
37415W        W 9675  25.039  40.258  11.558
37416W        W 9676  16.695  40.523   1.737
37417W        W 9677  16.991   4.841   0.314
37418W        W 9678  10.700  25.229  12.010
37419W        W 9679  29.243  18.533   1.795
37420W        W 9680  44.237   1.342  13.907
37421W        W 9681  26.039  16.300  10.824
37422W        W 9682  19.119  44.271  13.455
37423W        W 9683  43.936   5.337   0.432
37424W        W 9684  19.966  26.329   5.077
37425W        W 9685  31.665  35.313  14.379
37426W        W 9686   6.848   0.964  13.603
37427W        W 9687  12.042   8.183  10.297
37428W        W 9688  31.005  37.155   2.321
37429W        W 9689  26.451  44.287   0.965
37430W        W 9690   7.933  21.311   1.623
37431W        W 9691  17.582  31.776  13.912
37432W        W 9692  17.009  13.113   2.064
37433W        W 9693  15.199  22.605   4.016
37434W        W 9694  40.373  14.077   0.539
37435W        W 9695  36.505  18.352  11.955
37436W        W 9696   4.382  33.970   1.863
37437W        W 9697  16.710  10.171   3.670
37438W        W 9698   1.052  22.499   2.775
37439W        W 9699  28.725  44.329   0.423
37440W        W 9700  36.938  15.878   0.892
37441W        W 9701  32.640  27.264   4.703
37442W        W 9702  14.727  20.950   0.328
37443W        W 9703  24.005  33.446   1.145
37444W        W 9704  38.568  18.102   1.442
37445W        W 9705   4.813  14.614   0.001
37446W        W 9706   6.422  25.985  10.668
37447W        W 9707   3.926  30.393   2.330
37448W        W 9708  18.909  12.535  13.823
37449W        W 9709  11.730   5.051  11.583
37450W        W 9710   3.704   4.443  13.134
37451W        W 9711  33.499  10.768  10.908
37452W        W 9712   1.805  23.985  12.501
37453W        W 9713  24.328  40.642   1.987
37454W        W 9714  30.713   4.236   0.159
37455W        W 9715  39.991  20.561   0.331
37456W        W 9716   4.656  31.930   2.342
37457W        W 9717  42.177  25.637   2.190
37458W        W 9718  12.283  40.439  13.033
37459W        W 9719  42.963  13.647   3.392
37460W        W 9720  16.560  38.816   2.811
37461W        W 9721  30.054   0.200   3.628
37462W        W 9722   0.004  31.193  13.990
37463W        W 9723  37.880   7.455   4.493
37464W        W 9724  20.437   9.797   3.684
37465W        W 9725  36.884  23.163   0.415
37466W        W 9726  22.775  35.039  12.568
37467W        W 9727  14.590   9.049  12.641
37468W        W 9728   8.081  19.007   2.242
37469W        W 9729   5.446  20.336   1.240
37470W        W 9730  31.193  11.380  14.947
37471W        W 9731  19.959  14.584   0.020
37472W        W 9732  21.096  25.562  11.366
37473W        W 9733  25.564  33.375   4.818
37474W        W 9734  16.806  27.049  14.760
37475W        W 9735  41.299   0.902   4.515
37476W        W 9736  21.810  21.546   4.491
37477W        W 9737  30.737  41.903   4.968
37478W        W 9738   9.726   9.004  11.539
37479W        W 9739  22.793  32.284  13.483
37480W        W 9740  39.804  11.175   1.490
37481W        W 9741   6.279  43.399  13.802
37482W        W 9742  28.520  29.504  14.892
37483W        W 9743  20.492  11.804  14.229
37484W        W 9744  16.605  36.156   1.967
37485W        W 9745  17.479   6.399  13.166
37486W        W 9746  10.820   0.929  13.808
37487W        W 9747  39.756   1.277   0.351
37488W        W 9748  38.924  44.780   3.727
37489W        W 9749  42.566  17.895  13.881
37490W        W 9750  10.326  41.009  11.630
37491W        W 9751   2.373  17.048   4.594
37492W        W 9752  20.059  31.777   3.191
37493W        W 9753   4.264  28.654   0.833
37494W        W 9754  39.859  30.861   1.390
37495W        W 9755  17.627   1.791  10.690
37496W        W 9756  34.608  12.765   3.682
37497W        W 9757  44.855  30.391  11.986
37498W        W 9758  35.635  16.768   1.887
37499W        W 9759  26.488  12.907  13.412
37500W        W 9760  12.783  26.956   3.140
37501W        W 9761  10.531   8.179   3.783
37502W        W 9762  10.735  40.982  13.447
37503W        W 9763   6.743   0.928   1.848
37504W        W 9764  27.889  13.558   0.304
37505W        W 9765  17.565  43.403  13.289
37506W        W 9766  31.796  22.264   1.358
37507W        W 9767  22.088   9.199   3.890
37508W        W 9768   5.782  11.852  13.351
37509W        W 9769  20.074  44.309  14.506
37510W        W 9770   3.293  19.774   2.727
37511W        W 9771  28.698  23.036   3.145
37512W        W 9772  31.377   0.239   2.308
37513W        W 9773  21.835  27.996  11.542
37514W        W 9774  21.312   8.395   3.187
37515W        W 9775   8.181  14.705  10.736
37516W        W 9776  22.837  40.901   1.834
37517W        W 9777  24.286  35.070   3.668
37518W        W 9778  35.416   4.767   2.419
37519W        W 9779  24.361  39.073  11.606
37520W        W 9780  16.270  44.501   0.860
37521W        W 9781  42.505  26.492   4.682
37522W        W 9782  40.360   9.419   2.373
37523W        W 9783  41.409   9.798  11.479
37524W        W 9784  36.691  42.458  12.521
37525W        W 9785  10.953  34.395  13.332
37526W        W 9786  20.863  11.675   4.012
37527W        W 9787  27.586  28.928  11.943
37528W        W 9788   6.724  29.072  13.363
37529W        W 9789  26.644  17.072  14.553
37530W        W 9790  24.935  36.545  12.368
37531W        W 9791  25.441  23.116  11.987
37532W        W 9792  30.117   7.794  13.554
37533W        W 9793   3.915  34.065   2.160
37534W        W 9794  15.281   4.299  11.147
37535W        W 9795  40.992  14.797  14.857
37536W        W 9796  11.165  40.958  14.815
37537W        W 9797  42.207  42.832  14.309
37538W        W 9798  32.133  12.639  12.033
37539W        W 9799   0.194  21.679   4.705
37540W        W 9800  30.544  28.351  14.931
37541W        W 9801  13.998  12.230  14.468
37542W        W 9802  25.473  32.319  12.197
37543W        W 9803   8.949  23.577   3.592
37544W        W 9804  17.064  20.272   3.668
37545W        W 9805  37.470  33.752   2.206
37546W        W 9806  29.073  36.627   4.315
37547W        W 9807  43.435  32.767   3.694
37548W        W 9808  29.919  13.010   4.084
37549W        W 9809  40.041  27.198  12.031
37550W        W 9810  27.296  26.503   4.672
37551W        W 9811  10.967  16.430   3.495
37552W        W 9812   0.476  42.179   0.849
37553W        W 9813   5.847   8.863   2.155
37554W        W 9814  25.694  37.185  13.073
37555W        W 9815  35.275   2.223  14.361
37556W        W 9816   4.909   7.476  13.063
37557W        W 9817   8.769  28.926  11.152
37558W        W 9818  29.108  19.200   2.833
37559W        W 9819  35.990   5.951  14.540
37560W        W 9820  23.126  30.066   0.088
37561W        W 9821   7.155  38.506   4.754
37562W        W 9822  35.399  18.199   9.750
37563W        W 9823  25.426  42.349  12.075
37564W        W 9824  42.267  32.153   2.049
37565W        W 9825  26.625   0.283   1.929
37566W        W 9826  42.344  16.635   4.331
37567W        W 9827  36.261  33.890   2.237
37568W        W 9828  23.707  42.258   3.477
37569W        W 9829  35.008   7.285  11.480
37570W        W 9830  12.610  44.906   3.619
37571W        W 9831   2.797  13.379  11.199
37572W        W 9832  44.337  28.553   1.303
37573W        W 9833  17.716  17.746  11.236
37574W        W 9834  43.262  42.426   2.710
37575W        W 9835  23.216   1.628   1.760
37576W        W 9836  17.505  16.552  13.487
37577W        W 9837  35.408  30.542   0.336
37578W        W 9838  44.723  35.455  10.950
37579W        W 9839  15.877  20.280  14.814
37580W        W 9840   2.970  34.858  11.118
37581W        W 9841  36.098  13.039   4.715
37582W        W 9842  40.370  28.826   4.287
37583W        W 9843  38.998  33.929   3.295
37584W        W 9844  31.523  15.358  14.778
37585W        W 9845  11.479  34.465  13.408
37586W        W 9846   7.383  29.468   3.648
37587W        W 9847  19.115  20.780   0.834
37588W        W 9848  35.940  19.123  13.728
37589W        W 9849   9.397  10.781   4.099
37590W        W 9850  44.345  21.961   5.044
37591W        W 9851  18.184  12.558  13.128
37592W        W 9852   0.237   4.733   0.918
37593W        W 9853  25.638  30.048   0.332
37594W        W 9854  26.521   2.459   3.121
37595W        W 9855   1.442  33.148   2.156
37596W        W 9856  10.915  43.739  10.439
37597W        W 9857  28.992  26.720   3.236
37598W        W 9858  38.920  22.587   4.095
37599W        W 9859   6.775   4.069   0.983
37600W        W 9860  37.224  35.955   1.980
37601W        W 9861  41.078  23.000  11.184
37602W        W 9862  43.939   9.839  10.534
37603W        W 9863  14.381  44.239  14.314
37604W        W 9864  39.831   0.830   3.291
37605W        W 9865  35.136  18.650  11.194
37606W        W 9866  27.256  21.535  11.486
37607W        W 9867  20.722  14.531   0.262
37608W        W 9868   4.215  33.823  10.724
37609W        W 9869   2.148  40.420   4.592
37610W        W 9870  41.426  28.346   3.159
37611W        W 9871  10.323  38.525   0.795
37612W        W 9872  35.735   1.338   2.645
37613W        W 9873  26.595  44.886   4.783
37614W        W 9874  20.423  29.412  12.018
37615W        W 9875  21.166  22.467  10.023
37616W        W 9876  34.644  16.697  11.488
37617W        W 9877  24.024  34.453  12.017
37618W        W 9878  42.227  31.681  14.918
37619W        W 9879  26.113  41.316  14.389
37620W        W 9880  13.360  10.106   9.999
37621W        W 9881  13.095  18.222  14.284
37622W        W 9882  12.605   0.037   2.603
37623W        W 9883  21.384  20.746   0.440
37624W        W 9884  27.925  23.207  11.951
37625W        W 9885  27.032  18.587  13.990
37626W        W 9886   6.378   3.691  12.176
37627W        W 9887   1.847  18.247  12.105
37628W        W 9888  31.579  35.303  13.477
37629W        W 9889  23.125  22.177  14.379
37630W        W 9890  42.393  36.432  11.119
37631W        W 9891  27.181   9.662   0.133
37632W        W 9892   9.859  13.751  13.626
37633W        W 9893  37.121  32.521   4.573
37634W        W 9894  14.910  30.017   0.659
37635W        W 9895   2.125   0.895  13.895
37636W        W 9896   1.824   1.002  12.501
37637W        W 9897   2.893  44.741   4.726
37638W        W 9898  33.916   6.171  12.880
37639W        W 9899  26.544   5.908  11.202
37640W        W 9900  21.381  19.204  12.472
37641W        W 9901   2.210  12.792   2.335
37642W        W 9902   0.147  42.205  11.168
37643W        W 9903  39.613  13.250  11.122
37644W        W 9904  16.986  30.828  10.634
37645W        W 9905   6.424  25.175   4.634
37646W        W 9906  21.010  32.346  14.043
37647W        W 9907  31.593  37.042  10.777
37648W        W 9908  20.911  34.394   2.151
37649W        W 9909  22.797  17.654   0.303
37650W        W 9910  18.701   5.577   9.803
37651W        W 9911  32.054  30.763   2.843
37652W        W 9912  38.460   4.697   1.722
37653W        W 9913  30.530  36.497  14.798
37654W        W 9914  12.335  34.904  14.414
37655W        W 9915  17.211  38.276   2.240
37656W        W 9916  33.939   8.861  14.872
37657W        W 9917  24.541  26.573  14.941
37658W        W 9918  11.190  42.992   3.982
37659W        W 9919  10.556   4.320  11.251
37660W        W 9920   0.153  14.084  12.813
37661W        W 9921   2.707  31.680   4.751
37662W        W 9922  36.682  27.164   0.745
37663W        W 9923  44.826  24.534   2.342
37664W        W 9924   8.664  37.245  13.654
37665W        W 9925  44.044  43.317  14.095
37666W        W 9926  12.983  24.567  11.646
37667W        W 9927   6.363  19.252   0.856
37668W        W 9928  32.065  12.286   4.828
37669W        W 9929  41.780  24.294   2.256
37670W        W 9930   7.435  42.881  11.139
37671W        W 9931  27.008  41.629   3.296
37672W        W 9932  26.459   7.210   1.237
37673W        W 9933   8.372  30.913   4.398
37674W        W 9934   5.549  25.344   4.949
37675W        W 9935  29.488  40.584  12.332
37676W        W 9936   5.008  40.790  12.717
37677W        W 9937  19.067  30.135  12.887
37678W        W 9938   4.657  37.463  11.009
37679W        W 9939  12.250  32.027   0.677
37680W        W 9940  33.557   5.328  12.904
37681W        W 9941   2.284  20.151   2.135
37682W        W 9942   0.524  12.701  12.043
37683W        W 9943  22.492  16.325  13.347
37684W        W 9944   2.259  39.140   2.497
37685W        W 9945  22.246   7.840   2.180
37686W        W 9946  34.066  26.213   1.308
37687W        W 9947  25.727  28.195  14.577
37688W        W 9948  23.817  36.354  14.496
37689W        W 9949   2.787  42.445   4.317
37690W        W 9950  25.646  41.908   0.453
37691W        W 9951   1.702  10.732  11.992
37692W        W 9952   6.913  29.950  11.515
37693W        W 9953  11.811  15.780   0.638
37694W        W 9954  29.179  12.341   4.721
37695W        W 9955   2.839   8.241  12.401
37696W        W 9956  21.878  14.722   4.060
37697W        W 9957   2.770  40.037  11.977
37698W        W 9958  31.685  14.604   0.232
37699W        W 9959   1.599   5.177  12.934
37700W        W 9960  20.630  32.099   2.136
37701W        W 9961  11.120  37.266  14.534
37702W        W 9962  23.240  15.024   4.148
37703W        W 9963  34.022  12.765   1.012
37704W        W 9964  10.101   7.826  14.895
37705W        W 9965  40.169   5.688   3.637
37706W        W 9966  43.928  23.585  11.820
37707W        W 9967  15.881  24.021   4.236
37708W        W 9968  27.429  37.399   4.570
37709W        W 9969  44.648   8.710  14.460
37710W        W 9970  31.169  10.114   4.669
37711W        W 9971  31.999  32.454   1.425
37712W        W 9972   2.730  27.116  11.153
37713W        W 9973  14.276  35.645   4.520
37714W        W 9974  43.472   1.635  11.965
37715W        W 9975  37.017   7.948   4.036
37716W        W 9976  32.206  32.963  13.520
37717W        W 9977  14.158  17.444  14.974
37718W        W 9978  23.059  30.727   0.406
37719W        W 9979  36.563   3.494   3.625
37720W        W 9980  10.913   0.734   2.727
37721W        W 9981  35.497  21.681   2.972
37722W        W 9982  17.755  13.795   1.813
37723W        W 9983  39.570  41.725  10.870
37724W        W 9984  39.412  15.809  12.610
37725W        W 9985  12.347  34.688  11.496
37726W        W 9986  19.713  14.824  12.023
37727W        W 9987   4.847  30.114   1.687
37728W        W 9988  28.559   3.745   1.794
37729W        W 9989  33.982  42.532  12.967
37730W        W 9990   2.725  13.836  14.353
37731W        W 9991  27.461  39.324  13.859
37732W        W 9992  33.185  40.892  11.685
37733W        W 9993  13.120  10.315  10.634
37734W        W 9994  16.182  41.536  14.836
37735W        W 9995  28.400  33.765  10.669
37736W        W 9996  19.283  31.410   0.825
37737W        W 9997  35.530  41.526  11.175
37738W        W 9998  29.807  17.215  12.470
37739W        W 9999   2.794  12.353  12.323
37740W        W10000   7.387  38.031   1.811
37741W        W10001  34.087  17.656   2.789
37742W        W10002  23.781   4.471  10.688
37743W        W10003  43.606  10.331   4.330
37744W        W10004   1.908  34.839  12.349
37745W        W10005   0.874  25.257   2.243
37746W        W10006  42.332  11.575  13.115
37747W        W10007  28.188  36.073   1.966
37748W        W10008  14.076  16.315   2.581
37749W        W10009  16.725  27.145  13.263
37750W        W10010   9.852   2.346  11.695
37751W        W10011  44.709   4.799  10.778
37752W        W10012  29.613  27.976  14.704
37753W        W10013   7.783  25.367   5.389
37754W        W10014   2.261  35.148  11.077
37755W        W10015  40.937   7.600   1.352
37756W        W10016  14.529  22.538  14.453
37757W        W10017  13.666  15.066   5.528
37758W        W10018  38.922   5.656  13.113
37759W        W10019   3.040  42.410   3.866
37760W        W10020  32.516  35.818  14.467
37761W        W10021  22.483  22.126   1.963
37762W        W10022  31.898  22.540   3.126
37763W        W10023  31.658  11.359  11.894
37764W        W10024   1.352   1.240  13.772
37765W        W10025   4.469  20.179   2.143
37766W        W10026   7.360  14.347   1.206
37767W        W10027   7.525  11.075   3.706
37768W        W10028  31.109  34.877   1.411
37769W        W10029  24.959  33.119   1.255
37770W        W10030  32.479  43.530   2.662
37771W        W10031  37.325  39.043   3.366
37772W        W10032  42.289  39.808   3.659
37773W        W10033  42.980  24.750   0.050
37774W        W10034   1.528   6.444  14.052
37775W        W10035   4.803  26.200  13.480
37776W        W10036   1.457  26.146  10.640
37777W        W10037  10.345  23.599  13.077
37778W        W10038   8.824  18.547   2.350
37779W        W10039   6.097   8.915   3.368
37780W        W10040   4.420  26.512   3.091
37781W        W10041  33.786   5.317   1.246
37782W        W10042  15.796  19.488   0.796
37783W        W10043  41.834  35.978  10.341
37784W        W10044  17.663  36.909   3.707
37785W        W10045  29.965  24.601   3.370
37786W        W10046  41.572  26.668   1.775
37787W        W10047   9.711  38.971   1.390
37788W        W10048   5.381  32.081   0.378
37789W        W10049  36.353  33.880  13.860
37790W        W10050  31.623  29.424  14.212
37791W        W10051  29.432  35.002   1.405
37792W        W10052  15.659  34.051  11.445
37793W        W10053  28.289  21.458  11.330
37794W        W10054  25.211  30.525   0.784
37795W        W10055   3.891   9.675  12.962
37796W        W10056   3.162  21.656   3.587
37797W        W10057  25.241  28.887   4.705
37798W        W10058  19.074  30.642  12.872
37799W        W10059  41.392  24.203  13.848
37800W        W10060  36.604  15.060  13.910
37801W        W10061  31.560  24.971   0.906
37802W        W10062  36.061  22.142  11.001
37803W        W10063  10.268  30.443   2.471
37804W        W10064   2.254  41.988   3.661
37805W        W10065   7.813  10.824   2.784
37806W        W10066  41.850  12.315   2.039
37807W        W10067  30.250  33.587   2.690
37808W        W10068  31.969   9.245  10.412
37809W        W10069  39.431  16.105  11.663
37810W        W10070  11.938   4.470  12.184
37811W        W10071  37.779  40.014   0.422
37812W        W10072  19.131  16.880   4.641
37813W        W10073  18.212  39.455   3.759
37814W        W10074  17.686  15.992   1.321
37815W        W10075  28.695  33.079   3.241
37816W        W10076   9.428  29.571   2.960
37817W        W10077  11.269  14.067   1.053
37818W        W10078  39.606  13.496  13.442
37819W        W10079  27.116  33.808  14.524
37820W        W10080  22.318   9.261  13.530
37821W        W10081  19.863  25.959  14.454
37822W        W10082  34.940  30.505  13.157
37823W        W10083  11.322  40.757  12.969
37824W        W10084   4.856  42.943   4.199
37825W        W10085  26.780   5.763  10.764
37826W        W10086  42.879  28.908   4.670
37827W        W10087  36.189  27.916  13.491
37828W        W10088  44.778   2.501  13.545
37829W        W10089  18.835  13.779   4.165
37830W        W10090  27.679  27.542   0.722
37831W        W10091   2.868  12.760   4.035
37832W        W10092  25.782   5.386   0.617
37833W        W10093   5.301  19.952  13.046
37834W        W10094  12.211   3.035  11.957
37835W        W10095  40.369  32.539  13.915
37836W        W10096   3.369   7.276   4.495
37837W        W10097   0.776  17.703  10.311
37838W        W10098  19.716  24.870   1.515
37839W        W10099  28.406  31.232   0.566
37840W        W10100  19.301   7.866   5.396
37841W        W10101  25.939  30.572   2.236
37842W        W10102  19.702  37.815  13.698
37843W        W10103   5.741  28.152   9.849
37844W        W10104   4.018  12.877   4.080
37845W        W10105  20.184   5.986  14.966
37846W        W10106   3.771  41.720   2.218
37847W        W10107  36.587  21.164  13.789
37848W        W10108  18.675  16.622   2.381
37849W        W10109   1.519   3.469   1.366
37850W        W10110  34.585  14.184  11.058
37851W        W10111  35.225  18.182   0.553
37852W        W10112  24.131  24.395   1.489
37853W        W10113  23.731  31.349   2.295
37854W        W10114  35.456  19.711   4.182
37855W        W10115  18.058  13.881   3.753
37856W        W10116   5.700  25.540  14.490
37857W        W10117  32.872  15.936  14.763
37858W        W10118  33.727  32.200   4.606
37859W        W10119  20.240  35.024  12.432
37860W        W10120  30.197  44.946  13.923
37861W        W10121  20.111  18.523  14.385
37862W        W10122   9.452  19.248   3.840
37863W        W10123   9.754  31.473  14.676
37864W        W10124   0.001  34.869   0.905
37865W        W10125  43.373  13.797  12.275
37866W        W10126   9.134  24.434  14.537
37867W        W10127  44.242  33.381   3.783
37868W        W10128   8.386   8.266   1.773
37869W        W10129  31.842  21.556  14.473
37870W        W10130  15.823  28.535   0.857
37871W        W10131   5.437   5.113   1.757
37872W        W10132   2.411  44.779  14.896
37873W        W10133  44.966   9.205  13.297
37874W        W10134  15.478  31.944   1.498
37875W        W10135  18.539   7.229  11.126
37876W        W10136   8.679  16.359   0.420
37877W        W10137  19.536  35.092   0.336
37878W        W10138   6.193   8.000   2.924
37879W        W10139  35.478   0.452   1.333
37880W        W10140   8.904   1.433  14.980
37881W        W10141   3.822  36.301  11.973
37882W        W10142  17.642  34.335   4.153
37883W        W10143  20.159  37.540   4.963
37884W        W10144  23.099   6.180   1.373
37885W        W10145  37.158  39.156  12.396
37886W        W10146  41.044  36.963  13.365
37887W        W10147  41.892  35.584  10.687
37888W        W10148   7.825  26.246   2.315
37889W        W10149  29.927  22.480   4.043
37890W        W10150  36.521  18.258   1.239
37891W        W10151  19.652   2.024   0.775
37892W        W10152  21.677  43.200   4.524
37893W        W10153  19.832  41.417   4.529
37894W        W10154  33.918  36.047   4.105
37895W        W10155   1.712   6.184  12.380
37896W        W10156  27.877  26.030  11.365
37897W        W10157   1.366  44.269   0.269
37898W        W10158  23.761   3.729  13.872
37899W        W10159  24.019  26.699   5.460
37900W        W10160   5.895  16.530  12.175
37901W        W10161  17.604  14.295   1.877
37902W        W10162  35.423  20.141  12.445
37903W        W10163  40.730   3.261   2.812
37904W        W10164  16.288  16.559   3.335
37905W        W10165  44.905  25.408   0.515
37906W        W10166  30.636  35.440   4.534
37907W        W10167  17.498  26.702  12.991
37908W        W10168  11.734   3.786   3.638
37909W        W10169  27.323  35.297  13.388
37910W        W10170  36.865  16.508  10.973
37911W        W10171  25.606   4.323  11.619
37912W        W10172  30.726  41.087  12.533
37913W        W10173  22.025   9.880  13.840
37914W        W10174   8.685  17.344  10.578
37915W        W10175   3.693  21.201  10.890
37916W        W10176  22.271   9.629   4.123
37917W        W10177  13.772  44.713   0.868
37918W        W10178  35.208  43.116  13.640
37919W        W10179   5.820  44.082   3.711
37920W        W10180  40.148  44.009   1.851
37921W        W10181  12.687   3.397  14.882
37922W        W10182   8.783  30.569  10.439
37923W        W10183  19.346   0.736  13.827
37924W        W10184  35.826  43.945   2.272
37925W        W10185  38.461   2.137   4.745
37926W        W10186  13.305  17.865  11.534
37927W        W10187  26.204  23.713   3.236
37928W        W10188  42.319  40.308   3.651
37929W        W10189   8.821  28.309  11.994
37930W        W10190  28.675  13.170  11.831
37931W        W10191  15.362   2.233   0.694
37932W        W10192   3.953  10.402  11.108
37933W        W10193   2.258  37.463   1.641
37934W        W10194  30.696  42.817  12.517
37935W        W10195  24.261  14.269  10.611
37936W        W10196   6.803   2.162   1.381
37937W        W10197  18.611  31.884   0.741
37938W        W10198   5.255  39.793   0.454
37939W        W10199  35.744  40.734  11.950
37940W        W10200  21.970  25.193   5.029
37941W        W10201  24.569  13.806   0.048
37942W        W10202  13.285  32.838  11.949
37943W        W10203  30.314  17.407  12.484
37944W        W10204  24.526  15.216  12.866
37945W        W10205  19.381  27.664   0.763
37946W        W10206  37.423  43.896   0.911
37947W        W10207  25.346  14.401   1.488
37948W        W10208  23.545  17.718   3.368
37949W        W10209  32.426  38.140  11.575
37950W        W10210  10.200   8.678  13.299
37951W        W10211  17.635   0.242   3.290
37952W        W10212   8.994  11.442  14.814
37953W        W10213  13.604   1.984   0.299
37954W        W10214   3.760   7.660  10.871
37955W        W10215  29.242  35.391   0.415
37956W        W10216   1.456  21.619   3.694
37957W        W10217  28.143  13.166   4.595
37958W        W10218  31.787  29.354   4.066
37959W        W10219  26.158  41.667   2.363
37960W        W10220  14.645   5.139   1.761
37961W        W10221  32.805  39.117  11.456
37962W        W10222  10.703  27.673   1.647
37963W        W10223  43.925  12.532  12.162
37964W        W10224  42.006  40.282   2.336
37965W        W10225  42.084  21.826  12.473
37966W        W10226  16.309  15.038   0.856
37967W        W10227  31.052  32.701   0.406
37968W        W10228  32.943   3.199   4.738
37969W        W10229   1.348  44.285  13.355
37970W        W10230  23.288  29.239   0.745
37971W        W10231  27.917  32.117   2.835
37972W        W10232  23.293  25.783  11.719
37973W        W10233  22.434   5.354   1.852
37974W        W10234  24.124   4.048   3.424
37975W        W10235  24.921  14.198  13.878
37976W        W10236  28.935  22.875  12.844
37977W        W10237  19.044  20.877   1.342
37978W        W10238  25.401  36.176   2.791
37979W        W10239  24.537   7.619  14.072
37980W        W10240  39.959  30.656  12.513
37981W        W10241  38.813  37.010   1.182
37982W        W10242  37.650  42.560   0.143
37983W        W10243  12.753   6.374   2.246
37984W        W10244  22.502   7.281   0.224
37985W        W10245  37.649   2.923  11.247
37986W        W10246  32.687  40.906   4.166
37987W        W10247   4.979  23.271   4.165
37988W        W10248   1.879   8.173  14.954
37989W        W10249  26.966  37.612   3.195
37990W        W10250   9.284   2.998  11.450
37991W        W10251  27.119  10.428   3.286
37992W        W10252  24.516  43.456  14.938
37993W        W10253   6.082  21.963   0.770
37994W        W10254  10.774   2.771  14.312
37995W        W10255  19.678  35.664   2.685
37996W        W10256  24.912  14.775   2.295
37997W        W10257   1.527  43.234  14.700
37998W        W10258  32.725  37.446  13.539
37999W        W10259  26.101  28.920  14.845
38000W        W10260  42.164  32.394  11.039
38001W        W10261  20.662  22.133  14.825
38002W        W10262  30.707  21.000   2.220
38003W        W10263  28.659  24.651   2.018
38004W        W10264  19.875  19.988   2.256
38005W        W10265   0.796  20.039   4.107
38006W        W10266  11.255  24.566   3.617
38007W        W10267  44.625  43.427   0.051
38008W        W10268  44.056  11.425  11.393
38009W        W10269   2.952  28.221  10.664
38010W        W10270  15.792  42.966   4.734
38011W        W10271  30.052  31.397  13.781
38012W        W10272  17.181  40.396   1.843
38013W        W10273  36.456  34.806   1.040
38014W        W10274  31.627  19.257   4.895
38015W        W10275  36.987  22.203   2.145
38016W        W10276  32.609  10.075   1.687
38017W        W10277   4.913   7.915   0.305
38018W        W10278  26.581  43.965   0.421
38019W        W10279  11.312  22.640  11.937
38020W        W10280  22.120  13.413   3.906
38021W        W10281  29.357  36.366  11.858
38022W        W10282  22.197   8.187  12.094
38023W        W10283  40.476  13.703  13.033
38024W        W10284   9.187  38.624  10.536
38025W        W10285  43.027  20.163   3.686
38026W        W10286   2.929  27.409   0.719
38027W        W10287   1.936  16.345  10.408
38028W        W10288  44.486  42.879   0.725
38029W        W10289  10.095  21.566  14.032
38030W        W10290   4.869  40.478  13.948
38031W        W10291  17.222   5.535   5.666
38032W        W10292  28.925  41.556  11.625
38033W        W10293   5.798  22.926   4.491
38034W        W10294   6.785   4.252  13.460
38035W        W10295  13.688  39.404  10.681
38036W        W10296   8.712  34.664   4.193
38037W        W10297  26.410   6.586  13.335
38038W        W10298  12.598   5.269   2.211
38039W        W10299  22.147  24.390   4.987
38040W        W10300  27.431  17.122   2.644
38041W        W10301  10.058   4.165   4.233
38042W        W10302   6.376  20.576   1.217
38043W        W10303  17.998  12.837  12.135
38044W        W10304  33.439  25.861  11.524
38045W        W10305  12.810  36.025  12.595
38046W        W10306  25.748  19.706  10.654
38047W        W10307  35.845  25.718  12.366
38048W        W10308  42.817  39.250   4.674
38049W        W10309  12.727  36.310   4.070
38050W        W10310  10.342  11.055  13.386
38051W        W10311   8.340  23.456  14.181
38052W        W10312   1.258  40.766  13.973
38053W        W10313  30.166  16.191   1.740
38054W        W10314   8.216  24.250   4.579
38055W        W10315  44.228  26.499  12.368
38056W        W10316  15.599  26.562  12.120
38057W        W10317  22.044  17.460   3.916
38058W        W10318   8.882  23.281   0.350
38059W        W10319  10.410  25.569   3.612
38060W        W10320  20.799  27.554  10.273
38061W        W10321  17.611   8.139  12.063
38062W        W10322  33.626  21.549   0.516
38063W        W10323  41.572  32.923  11.808
38064W        W10324  12.193  11.809   2.236
38065W        W10325  27.706   8.625  12.947
38066W        W10326   0.907  11.349   5.052
38067W        W10327   5.941  40.796  14.196
38068W        W10328  28.906  37.945   3.648
38069W        W10329   6.805   0.783   4.891
38070W        W10330  33.560   1.154  12.965
38071W        W10331  14.810  22.737  14.840
38072W        W10332  11.573  33.527  13.494
38073W        W10333   4.607   7.826   2.665
38074W        W10334  23.575  36.221  12.516
38075W        W10335  21.118  31.503  12.379
38076W        W10336  14.728  32.436  14.205
38077W        W10337  41.381  37.361  11.545
38078W        W10338  29.639  44.943   0.127
38079W        W10339  40.343  16.169   3.174
38080W        W10340   9.624  28.938  12.003
38081W        W10341  42.442   5.738  12.542
38082W        W10342  13.029  23.102  13.466
38083W        W10343  17.038  44.257  12.534
38084W        W10344   2.872  24.183  13.536
38085W        W10345  23.394  39.729   2.614
38086W        W10346   1.408   2.872   3.208
38087W        W10347  30.567  29.623   9.836
38088W        W10348  17.961   3.486   3.550
38089W        W10349  15.899   6.143  13.708
38090W        W10350  42.705  10.347   4.184
38091W        W10351  41.925   0.177  14.376
38092W        W10352   6.318   2.003   2.740
38093W        W10353  42.582  16.088   2.315
38094W        W10354  14.492   0.833   3.254
38095W        W10355  30.092  37.349  11.635
38096W        W10356   5.326  22.018   3.130
38097W        W10357  19.303  43.043  13.894
38098W        W10358  38.158  37.009  13.689
38099W        W10359   2.214  24.509   2.257
38100W        W10360  44.226  22.263   2.241
38101W        W10361  11.095   4.820   4.690
38102W        W10362  31.032  24.712  13.477
38103W        W10363  29.498  14.063   1.430
38104W        W10364  17.761  17.276   0.810
38105W        W10365  29.104  10.826   4.067
38106W        W10366   8.145  33.173   0.292
38107W        W10367   1.322  34.629   1.134
38108W        W10368  29.724   6.256  14.458
38109W        W10369   2.406  23.506   1.450
38110W        W10370   2.435  24.867  10.358
38111W        W10371   9.899   1.180   2.141
38112W        W10372   8.071  27.225   2.413
38113W        W10373  11.918  32.627   1.848
38114W        W10374  22.468  11.838   4.628
38115W        W10375  13.696  29.975   1.877
38116W        W10376  20.136  37.604  11.966
38117W        W10377  28.081  20.178   4.214
38118W        W10378  23.492   7.154  14.362
38119W        W10379  43.848  38.918  11.570
38120W        W10380  30.981  30.442  10.536
38121W        W10381  35.043  38.056  13.997
38122W        W10382  16.276   9.750   0.072
38123W        W10383  43.987  29.171  14.412
38124W        W10384  40.881   4.620  14.891
38125W        W10385  35.368  32.040  11.189
38126W        W10386  42.823   6.317  10.673
38127W        W10387  38.352  31.595  11.502
38128W        W10388   5.312  33.936   0.056
38129W        W10389  28.182  30.154  14.775
38130W        W10390  16.820  42.964   4.668
38131W        W10391  14.816  39.333  14.773
38132W        W10392   2.400  39.921  12.529
38133W        W10393  15.725  10.176  10.074
38134W        W10394  43.769  36.375   4.928
38135W        W10395  10.345   4.202   3.813
38136W        W10396   8.169  26.034  10.238
38137W        W10397  38.403  10.684  11.594
38138W        W10398   2.182  31.009   2.859
38139W        W10399   2.578   2.105   4.163
38140W        W10400  38.041  41.337  12.962
38141W        W10401  39.667   5.823   3.752
38142W        W10402  39.018   4.312   1.899
38143W        W10403  29.126  40.116  11.024
38144W        W10404  29.121   7.728   0.027
38145W        W10405  38.953  32.019   2.868
38146W        W10406   2.689  25.187  10.697
38147W        W10407  17.781  20.346  14.943
38148W        W10408  34.868  23.522   0.317
38149W        W10409  43.039  41.375   1.805
38150W        W10410  23.267  24.377  11.098
38151W        W10411  29.880  25.648  12.041
38152W        W10412  43.816  37.486   1.036
38153W        W10413  20.985   7.072  12.047
38154W        W10414  21.740  22.585  12.316
38155W        W10415  38.582  42.616   1.323
38156W        W10416  15.761  12.605   2.616
38157W        W10417  11.873  19.623   0.873
38158W        W10418   1.358   2.245  11.744
38159W        W10419   5.905  21.179   4.211
38160W        W10420  44.148  17.283  11.413
38161W        W10421  41.711  36.892  14.774
38162W        W10422  17.805  44.447  11.983
38163W        W10423  34.498  18.888  14.884
38164W        W10424  29.104  11.363   2.172
38165W        W10425  28.969  25.064   4.518
38166W        W10426  10.267  16.615  10.510
38167W        W10427  14.630  34.015  13.957
38168W        W10428  44.555  17.457   4.170
38169W        W10429  42.418  14.073  14.540
38170W        W10430  29.307  21.790  11.346
38171W        W10431  24.142  23.026  14.806
38172W        W10432  42.006   2.251   1.699
38173W        W10433  11.468  12.787   2.617
38174W        W10434  25.908  43.360   4.160
38175W        W10435  28.733   9.622  11.964
38176W        W10436   2.304   6.252   2.104
38177W        W10437   4.244  20.256   1.118
38178W        W10438  39.320  18.603   1.632
38179W        W10439   3.229  21.211   3.866
38180W        W10440   9.249  12.558  12.518
38181W        W10441  10.546  37.814   1.171
38182W        W10442  10.403  40.938  12.535
38183W        W10443  23.049  37.905   1.858
38184W        W10444   1.856   9.674  13.860
38185W        W10445  40.972   8.476  13.483
38186W        W10446  16.256  23.243  12.027
38187W        W10447  18.314  17.564  10.716
38188W        W10448  36.984  10.601  14.011
38189W        W10449  42.116  23.270  12.553
38190W        W10450  24.982  32.706  10.766
38191W        W10451  28.595  20.071   3.383
38192W        W10452  11.330  15.059   3.761
38193W        W10453  44.928  13.272  11.650
38194W        W10454  14.373  28.820  12.371
38195W        W10455  14.169  44.642  14.545
38196W        W10456  39.027  19.901   4.365
38197W        W10457  28.304  26.698   3.687
38198W        W10458  42.889  16.104  13.948
38199W        W10459  33.575  30.178  12.612
38200W        W10460  40.459  26.558   0.582
38201W        W10461   1.184  27.489   2.374
38202W        W10462  32.013  41.270  13.363
38203W        W10463  10.113   6.988  14.267
38204W        W10464  30.558  37.024   1.321
38205W        W10465  28.384   4.758   3.137
38206W        W10466  18.392  25.544  11.201
38207W        W10467   7.171   5.932  14.860
38208W        W10468  29.870  27.646   4.513
38209W        W10469  44.762   0.884   9.834
38210W        W10470  10.477  17.169   5.208
38211W        W10471  23.442  29.992  14.701
38212W        W10472  16.768  31.504   1.071
38213W        W10473  38.389  33.574   1.027
38214W        W10474  30.932  19.754   3.786
38215W        W10475  25.593  22.730  13.373
38216W        W10476   4.219  31.388  12.987
38217W        W10477  11.355  34.650   3.671
38218W        W10478  22.274   5.839  10.833
38219W        W10479  16.689  11.491   4.612
38220W        W10480  35.466  13.737   2.783
38221W        W10481  21.047   1.824  11.124
38222W        W10482   3.585   8.393  14.828
38223W        W10483  19.770  41.389  10.828
38224W        W10484   2.753  36.416   0.573
38225W        W10485  34.335  41.384   3.891
38226W        W10486  36.584   4.349   0.295
38227W        W10487  17.142  12.453  11.182
38228W        W10488  42.912  32.753  12.728
38229W        W10489   6.725  12.586   0.440
38230W        W10490  41.464  38.995  12.455
38231W        W10491  31.029  42.267  13.368
38232W        W10492  20.506   0.310   3.337
38233W        W10493   4.119  26.007   4.198
38234W        W10494   9.192  44.028   0.057
38235W        W10495  15.856   9.871  10.480
38236W        W10496  44.582  42.033  11.489
38237W        W10497  18.233  40.945  13.064
38238W        W10498  40.992  31.587   3.619
38239W        W10499  31.049  20.366  11.176
38240W        W10500  30.237  43.930   4.037
38241W        W10501  18.055   6.675   3.098
38242W        W10502  30.216   0.753  13.205
38243W        W10503  10.793  27.623  11.108
38244W        W10504  25.439  31.824  11.518
38245W        W10505  18.547   6.755   2.935
38246W        W10506   4.709  23.958  12.990
38247W        W10507  39.838  41.909   2.436
38248W        W10508  38.683   9.886   4.127
38249W        W10509  17.680  19.291  14.510
38250W        W10510  26.208  33.145   0.997
38251W        W10511  28.751  39.082   3.132
38252W        W10512  18.768  16.368  13.120
38253W        W10513  32.297  40.903  11.295
38254W        W10514  32.334  15.052   3.620
38255W        W10515  14.342  14.290  13.063
38256W        W10516   7.596  10.335  13.833
38257W        W10517  16.497  28.953  14.784
38258W        W10518  34.363   3.387   1.390
38259W        W10519   0.431   8.115  11.163
38260W        W10520  29.635   5.714  11.381
38261W        W10521  29.709  13.902   3.554
38262W        W10522  12.949  35.816   4.131
38263W        W10523  19.113  29.417   2.660
38264W        W10524  22.399  36.543  14.208
38265W        W10525  28.143  24.818  11.076
38266W        W10526  40.791  36.903   0.263
38267W        W10527  21.470  29.155  12.840
38268W        W10528  38.223  12.670   3.702
38269W        W10529  23.786  32.523   0.777
38270W        W10530   1.834  19.081   2.731
38271W        W10531  17.211  43.232   0.808
38272W        W10532  29.893  25.853   1.915
38273W        W10533  44.529  20.961   1.776
38274W        W10534  11.525   8.906   4.428
38275W        W10535  39.002   0.946   2.889
38276W        W10536  38.863  42.414   0.224
38277W        W10537  18.166   5.794   1.039
38278W        W10538  32.862  28.693  14.051
38279W        W10539  18.640   9.053   3.127
38280W        W10540  12.684  20.810   4.903
38281W        W10541  32.492  31.626  12.781
38282W        W10542  19.704  18.621   4.648
38283W        W10543  21.384  31.728  10.685
38284W        W10544  21.497  27.393  14.897
38285W        W10545  18.057  37.934   1.876
38286W        W10546  28.181  29.452  12.312
38287W        W10547  29.144  34.507  11.668
38288W        W10548  43.464  37.374  13.291
38289W        W10549  10.597  17.711   0.253
38290W        W10550  20.347  41.065   1.512
38291W        W10551  38.143  10.778  10.318
38292W        W10552  14.674  17.195  13.445
38293W        W10553  16.001  22.035   0.517
38294W        W10554  35.810  11.118  11.515
38295W        W10555  23.229   8.863   3.332
38296W        W10556  36.500   9.732  12.079
38297W        W10557  44.519  11.726  10.550
38298W        W10558   0.766  32.516  14.051
38299W        W10559  13.328  33.639  11.080
38300W        W10560  38.132   2.269  10.838
38301W        W10561  12.207  30.870  11.318
38302W        W10562  35.048  21.066   0.315
38303W        W10563  37.491   1.519  11.068
38304W        W10564  19.537   7.788  13.790
38305W        W10565  24.443  23.115   2.912
38306W        W10566  34.160   0.709   3.184
38307W        W10567  44.158   6.580   4.948
38308W        W10568  28.474  21.505   1.265
38309W        W10569   5.243   0.775   1.808
38310W        W10570  12.119   7.651  13.394
38311W        W10571  36.036  35.081  12.005
38312W        W10572  24.076  40.367   4.484
38313W        W10573  27.128  24.116  14.531
38314W        W10574  26.121   0.319  12.489
38315W        W10575   6.152   8.242   1.475
38316W        W10576  32.626   8.716  10.672
38317W        W10577  36.850  19.124   2.306
38318W        W10578   0.406  16.740  13.403
38319W        W10579  35.566  21.536  13.905
38320W        W10580  33.365  40.262  12.906
38321W        W10581  14.857  36.699  14.516
38322W        W10582  43.823  25.522  11.527
38323W        W10583  41.988  14.726   3.738
38324W        W10584  35.025  33.478   1.735
38325W        W10585   6.875  16.629  11.246
38326W        W10586  17.214  44.804  13.103
38327W        W10587   3.724  13.311   0.184
38328W        W10588  14.190  19.384  13.379
38329W        W10589  23.137  20.163  11.067
38330W        W10590   4.676   4.912   3.309
38331W        W10591  26.581  26.369   3.239
38332W        W10592  22.015   9.399  11.640
38333W        W10593   0.459  44.368  12.369
38334W        W10594  43.016  22.729  13.389
38335W        W10595  30.588  32.818   1.114
38336W        W10596   0.080   5.753   2.219
38337W        W10597  24.574  13.605   0.984
38338W        W10598   0.418  15.280   4.249
38339W        W10599  21.935  23.896   4.931
38340W        W10600  15.158  11.703  12.068
38341W        W10601   8.280  38.051  13.550
38342W        W10602  42.793  30.654  14.617
38343W        W10603  15.700   4.355  13.936
38344W        W10604  28.504  36.806   0.476
38345W        W10605  11.838  34.034  12.386
38346W        W10606  32.345   8.334   1.006
38347W        W10607  19.793  21.700   3.013
38348W        W10608  38.404   5.870  12.811
38349W        W10609  32.091  10.687  14.032
38350W        W10610  30.100  34.142   4.025
38351W        W10611  12.836  22.179   0.331
38352W        W10612   6.422  40.849   4.629
38353W        W10613  41.277   1.679   3.915
38354W        W10614  24.155  16.203   4.291
38355W        W10615  43.973  35.688   0.556
38356W        W10616  10.036  43.286  12.910
38357W        W10617  26.364  18.484   1.092
38358W        W10618   4.625  35.671  13.458
38359W        W10619  10.467  41.827  14.415
38360W        W10620   4.204  25.292   1.302
38361W        W10621  34.174   3.832  13.485
38362W        W10622  37.601  38.107   3.534
38363W        W10623  40.609  38.402  12.445
38364W        W10624  44.801   8.146  12.620
38365W        W10625  11.673  21.293   2.394
38366W        W10626   3.089  19.492   2.300
38367W        W10627  25.861  24.848  12.045
38368W        W10628  25.695   7.372  12.360
38369W        W10629  14.186  41.255   4.613
38370W        W10630  12.694  25.934   0.715
38371W        W10631  16.396   2.204  12.926
38372W        W10632  35.020  30.119   0.956
38373W        W10633  28.547  24.761  11.531
38374W        W10634  32.785  18.662   0.112
38375W        W10635  30.337   2.268  12.865
38376W        W10636  38.727   9.778   9.815
38377W        W10637  35.595  35.027   4.802
38378W        W10638  32.024  16.677   0.869
38379W        W10639  31.409  36.842   2.216
38380W        W10640   2.068   5.609  14.424
38381W        W10641  34.958  33.004  13.447
38382W        W10642  40.806  25.239  15.000
38383W        W10643  10.309  27.974   4.619
38384W        W10644   1.849  19.133   2.199
38385W        W10645  43.741  17.906   3.852
38386W        W10646  12.564   3.897  14.837
38387W        W10647  42.084  44.211  12.855
38388W        W10648  25.549  13.213  12.111
38389W        W10649  26.469  36.123   4.877
38390W        W10650  15.404  39.816  12.446
38391W        W10651   8.201  23.951  10.587
38392W        W10652  42.820  24.597  13.940
38393W        W10653  15.864   0.413   4.726
38394W        W10654   4.732  32.637   1.786
38395W        W10655  20.219  24.791  14.469
38396W        W10656  40.004  32.539   0.654
38397W        W10657  20.502   3.854  13.227
38398W        W10658   2.809   5.224  14.942
38399W        W10659  11.811  25.599  10.762
38400W        W10660  21.589   7.385   1.187
38401W        W10661  20.811  30.552   3.104
38402W        W10662  25.896  42.081  14.444
38403W        W10663   9.720  33.910  13.302
38404W        W10664  41.567  30.628  14.134
38405W        W10665  19.243   2.406   4.304
38406W        W10666  31.526  36.941   3.131
38407W        W10667  23.458  32.430   0.375
38408W        W10668   2.932  41.979  12.007
38409W        W10669  29.451  13.224   4.069
38410W        W10670  22.782   9.180   2.359
38411W        W10671   9.555   4.243   4.077
38412W        W10672  15.087   6.823   4.760
38413W        W10673   8.337  25.087  10.905
38414W        W10674  31.103   8.887  12.089
38415W        W10675  16.011  21.830  10.720
38416W        W10676  11.358  26.657  12.277
38417W        W10677  27.931  30.208   1.300
38418W        W10678  13.125  24.425  13.461
38419W        W10679  44.463  43.053  14.258
38420W        W10680  10.152  21.217   3.747
38421W        W10681  17.629  12.195  12.030
38422W        W10682  36.809  31.476  14.438
38423W        W10683  18.564  10.874   0.485
38424W        W10684  28.573  40.982   1.963
38425W        W10685  41.434  27.035   2.804
38426W        W10686   0.535  28.633  14.406
38427W        W10687   0.680  16.825   2.200
38428W        W10688  35.183  21.028  10.576
38429W        W10689  39.576  35.675   0.194
38430W        W10690  12.820  31.230  14.768
38431W        W10691  22.505  15.890   3.504
38432W        W10692  30.516  36.300   1.938
38433W        W10693  20.986  20.751   9.828
38434W        W10694  38.460  33.202   2.420
38435W        W10695  40.801   6.171  11.569
38436W        W10696  30.976  39.820  12.397
38437W        W10697  39.535  41.109   4.967
38438W        W10698  29.677  38.887  14.503
38439W        W10699  41.182  18.157   0.987
38440W        W10700  22.682  30.676  10.668
38441W        W10701   4.153  41.235   3.870
38442W        W10702   3.496  37.530   0.263
38443W        W10703   1.695  11.134  11.168
38444W        W10704  12.951  38.406  14.027
38445W        W10705  25.619  40.424   4.673
38446W        W10706  19.188  16.476   3.398
38447W        W10707  33.510  10.861  14.022
38448W        W10708  29.165   4.412   0.256
38449W        W10709  37.451   3.416   4.099
38450W        W10710  42.503  23.085  11.110
38451W        W10711  31.380  16.133  11.556
38452W        W10712  43.807   2.358  10.992
38453W        W10713  43.308  36.901   0.921
38454W        W10714  25.699  14.313  14.361
38455W        W10715  32.713  37.983   1.174
38456W        W10716  16.819  15.073  14.867
38457W        W10717   0.469  26.231   2.413
38458W        W10718  18.304   9.600  11.923
38459W        W10719  40.953  19.762  12.502
38460W        W10720  43.833  12.702  14.306
38461W        W10721  15.002   4.971   4.200
38462W        W10722  23.908  22.785  10.820
38463W        W10723  42.481   0.993   2.206
38464W        W10724  27.170   7.007   0.807
38465W        W10725  15.339  32.965  12.596
38466W        W10726  23.448  23.449  11.603
38467W        W10727  15.789   3.172   4.574
38468W        W10728   3.239   5.356  11.163
38469W        W10729  44.842  27.063   1.268
38470W        W10730   7.811  16.242   0.449
38471W        W10731  24.798  22.180  13.455
38472W        W10732  20.945  26.529  11.076
38473W        W10733  18.745  25.970   0.720
38474W        W10734  33.324  18.924   2.874
38475W        W10735  10.677  41.902  14.951
38476W        W10736  16.745  30.861   0.431
38477W        W10737   6.426  27.879  13.700
38478W        W10738  17.871  19.814   5.099
38479W        W10739  19.124  37.560   2.474
38480W        W10740  23.139   7.839   2.252
38481W        W10741  20.545  19.559   4.018
38482W        W10742   7.158   7.858  11.900
38483W        W10743   4.959  25.767  14.993
38484W        W10744  30.385  30.184  12.304
38485W        W10745  23.630  22.977  11.478
38486W        W10746  26.593  41.163  12.503
38487W        W10747  17.891  35.777  14.331
38488W        W10748   3.428  10.316   4.130
38489W        W10749  11.445  17.560  14.362
38490W        W10750  24.965  36.090  12.631
38491W        W10751  39.073  20.418  14.254
38492W        W10752  41.809  40.383   4.465
38493W        W10753  14.255  21.689  12.755
38494W        W10754  18.456  20.924  10.118
38495W        W10755  10.663   8.797   2.664
38496W        W10756   5.682  12.612   3.208
38497W        W10757  41.588  25.543   1.258
38498W        W10758  16.196  18.971   0.578
38499W        W10759  14.327   3.929  13.440
38500W        W10760   4.428  29.798   1.859
38501W        W10761  38.331  33.574   3.392
38502W        W10762  40.465  42.044  12.020
38503W        W10763  14.962   4.336   3.738
38504W        W10764  11.750   2.474  13.388
38505W        W10765  23.530  24.626  14.796
38506W        W10766  29.895  16.111   2.707
38507W        W10767   7.437  20.202  14.446
38508W        W10768  44.057  32.097   4.246
38509W        W10769  20.523  38.579   1.768
38510W        W10770  43.263   3.499  13.434
38511W        W10771   1.192  42.706  14.002
38512W        W10772   5.846  32.416   3.815
38513W        W10773  30.048  16.126   2.227
38514W        W10774  19.197   0.104   3.763
38515W        W10775   3.294  41.427   1.267
38516W        W10776  41.872  27.988   4.631
38517W        W10777   8.477   9.197   4.193
38518W        W10778   9.708  40.770  12.253
38519W        W10779  22.198   7.650  13.451
38520W        W10780  15.639  31.600   2.648
38521W        W10781   2.860  38.967   0.229
38522W        W10782  21.634  20.696  13.601
38523W        W10783  26.119  25.666  13.115
38524W        W10784   1.858   8.524   5.030
38525W        W10785  26.659  21.450  11.607
38526W        W10786  34.868  28.616  11.569
38527W        W10787  10.077  38.187  10.002
38528W        W10788  24.096  17.038  11.185
38529W        W10789  35.010   5.306  12.921
38530W        W10790   4.376  41.795   4.253
38531W        W10791  30.103  29.058   0.298
38532W        W10792  38.907  26.456   0.605
38533W        W10793   2.422   9.714  13.446
38534W        W10794  21.484  18.059  10.828
38535W        W10795  29.195   9.862  13.883
38536W        W10796  15.942  10.391   0.768
38537W        W10797   6.377  24.992   2.165
38538W        W10798  26.489  36.007  11.656
38539W        W10799  44.832  16.589  11.236
38540W        W10800  33.365  11.717  11.786
38541W        W10801  18.117  41.484  14.272
38542W        W10802  29.688  28.208  11.978
38543W        W10803  17.686  15.805   4.718
38544W        W10804  30.854  29.540   0.334
38545W        W10805  15.153  33.547   0.401
38546W        W10806  19.312  14.430  12.894
38547W        W10807   1.227  39.673   4.276
38548W        W10808  40.783  39.029  12.916
38549W        W10809  23.738  17.642  11.585
38550W        W10810   6.614  30.402  11.531
38551W        W10811   0.070   0.415   2.788
38552W        W10812   5.182  25.221  10.594
38553W        W10813   3.163  10.238   4.607
38554W        W10814  37.862  29.419   1.759
38555W        W10815   3.033  24.079  14.998
38556W        W10816  13.645  28.135  13.923
38557W        W10817  20.080  25.583   2.268
38558W        W10818   2.721  11.821   1.258
38559W        W10819  35.475  29.984   2.805
38560W        W10820  33.557  43.236  14.873
38561W        W10821  31.143  11.249   2.881
38562W        W10822  12.647  35.014   4.440
38563W        W10823  24.192  12.595  12.564
38564W        W10824  14.333  31.287  10.613
38565W        W10825  17.981  21.702   4.528
38566W        W10826  11.446  31.370  11.078
38567W        W10827  32.973  23.643  14.434
38568W        W10828  42.552  41.441   1.919
38569W        W10829   2.307   2.441   4.459
38570W        W10830  20.860  32.075  14.788
38571W        W10831   8.678  26.701  10.641
38572W        W10832  29.840   8.955  10.734
38573W        W10833   2.297   2.389   3.399
38574W        W10834  37.553  13.098  12.954
38575W        W10835  21.186  44.392  13.474
38576W        W10836  18.954  15.421   3.374
38577W        W10837  41.305  37.923  10.890
38578W        W10838   6.854  17.721   1.431
38579W        W10839   3.611   8.449   4.139
38580W        W10840   3.650  27.534   3.799
38581W        W10841  29.968  16.378  14.861
38582W        W10842  25.683  38.764   0.883
38583W        W10843  28.366   4.236   1.847
38584W        W10844   0.064   3.518   1.306
38585W        W10845  44.311  29.435  14.944
38586W        W10846  14.088  36.201   2.989
38587W        W10847  33.417  17.515  13.837
38588W        W10848  27.400  43.874  14.338
38589W        W10849  19.801  33.938   4.469
38590W        W10850  39.998  22.175  10.714
38591W        W10851  14.647  30.725   3.723
38592W        W10852  13.769  31.456  12.178
38593W        W10853  25.389  44.516  14.848
38594W        W10854  20.068   3.914   3.134
38595W        W10855  30.850  17.637  13.833
38596W        W10856   2.470  43.309   4.760
38597W        W10857  35.794  37.945   2.357
38598W        W10858  36.023  17.189   4.393
38599W        W10859   8.288  29.829  14.761
38600W        W10860  39.446  23.176   2.348
38601W        W10861  38.766  40.931   1.887
38602W        W10862  26.696  20.567   3.627
38603W        W10863  23.963  17.292   5.013
38604W        W10864   7.274  34.817   1.705
38605W        W10865  16.710  43.382   3.747
38606W        W10866  37.558   2.596   3.481
38607W        W10867  38.644  35.639   4.959
38608W        W10868  20.184  28.733   2.201
38609W        W10869  24.012   1.180  10.625
38610W        W10870  39.325  42.900  13.094
38611W        W10871  35.099  18.459   5.091
38612W        W10872  21.625   6.713  12.948
38613W        W10873   5.293  42.520  11.970
38614W        W10874  28.398  43.088  14.360
38615W        W10875  14.773  11.084  11.156
38616W        W10876  26.099  12.736  12.568
38617W        W10877  22.173  13.346  11.504
38618W        W10878  32.907  18.597  13.731
38619W        W10879  11.356  30.967  12.627
38620W        W10880  34.676  36.760   1.257
38621W        W10881   0.215  42.822  13.910
38622W        W10882  32.534  35.141   2.241
38623W        W10883  21.577  20.082   2.698
38624W        W10884  42.092   8.222  12.846
38625W        W10885  36.124  43.394  14.814
38626W        W10886  30.762   9.439   4.201
38627W        W10887  38.068   9.662  13.796
38628W        W10888  13.633  10.200   2.286
38629W        W10889  39.418   1.732  11.878
38630W        W10890  25.647  19.798   2.139
38631W        W10891  27.478   4.390   0.374
38632W        W10892   6.441  16.444   3.140
38633W        W10893  15.344   3.374  13.911
38634W        W10894  42.087  32.480   2.411
38635W        W10895   4.199   7.694  14.844
38636W        W10896  11.677  35.890   0.385
38637W        W10897  42.995  33.432  10.459
38638W        W10898  23.794  14.060   3.030
38639W        W10899  12.588  27.335   3.473
38640W        W10900   9.729  31.035   2.216
38641W        W10901  32.954  28.975  12.731
38642W        W10902  11.691   4.190  13.963
38643W        W10903  42.940  31.077   1.865
38644W        W10904  18.234  14.887   2.822
38645W        W10905  30.324  37.345  11.097
38646W        W10906  40.350  35.632   4.340
38647W        W10907   1.381  40.318  14.247
38648W        W10908  32.456  39.238   0.908
38649W        W10909  42.976   7.011   0.816
38650W        W10910  28.575  38.922   3.598
38651W        W10911  32.588  44.380  12.103
38652W        W10912  12.919  24.021   0.450
38653W        W10913  27.982   4.853   2.818
38654W        W10914  34.310  25.768  13.063
38655W        W10915  15.546  33.490  13.452
38656W        W10916   8.650  34.556  12.480
38657W        W10917  22.423  37.055   3.176
38658W        W10918  16.294  21.136  13.299
38659W        W10919   0.381  29.095  10.893
38660W        W10920  23.691  21.703   1.994
38661W        W10921  31.968   1.902   1.985
38662W        W10922  41.045  31.364   2.717
38663W        W10923  30.691  27.442  13.507
38664W        W10924  10.946  37.338   4.267
38665W        W10925  29.518  29.349   5.453
38666W        W10926  13.660  26.796  10.537
38667W        W10927  38.400  14.206   5.088
38668W        W10928   1.454  25.219  14.497
38669W        W10929  35.542  32.557  11.939
38670W        W10930   1.664  41.375   2.085
38671W        W10931  38.536  32.632   4.054
38672W        W10932  30.940  38.116  13.309
38673W        W10933   2.924  40.285   2.903
38674W        W10934  14.366  17.132   5.494
38675W        W10935   2.252  31.407  13.820
38676W        W10936  37.876  15.356   4.175
38677W        W10937  42.466  30.564   1.753
38678W        W10938  37.806  38.959   3.622
38679W        W10939  10.792  16.469   4.515
38680W        W10940  32.204  38.824   2.258
38681W        W10941  41.110  26.064   1.839
38682W        W10942  17.235   4.427  12.106
38683W        W10943  31.134  38.145   1.378
38684W        W10944  32.949   0.307  14.016
38685W        W10945  32.187  40.381  11.049
38686W        W10946  32.552  32.943  10.030
38687W        W10947  37.017  34.521   1.689
38688W        W10948   7.301  43.839  13.946
38689W        W10949   7.258  39.357   1.921
38690W        W10950  26.691  14.605  10.633
38691W        W10951  42.363  22.946   2.247
38692W        W10952  42.424  22.993   3.627
38693W        W10953  29.090  28.676  14.531
38694W        W10954  14.366   6.275  10.600
38695W        W10955  37.024   0.025   4.546
38696W        W10956  25.732  28.569  14.937
38697W        W10957  21.378   3.842   2.708
38698W        W10958  19.328  32.588  12.565
38699W        W10959  31.562  23.685   2.150
38700W        W10960  44.501  21.207   5.194
38701W        W10961  41.094  42.043  12.471
38702W        W10962  39.340  43.588   4.656
38703W        W10963  17.210   2.891   9.863
38704W        W10964   0.698  21.753  10.732
38705W        W10965   0.549  26.012   2.875
38706W        W10966  29.592  30.033  14.281
38707W        W10967  11.908  30.464  11.204
38708W        W10968  36.459  43.432   1.888
38709W        W10969   2.494  11.786  13.538
38710W        W10970  12.824   3.186   4.824
38711W        W10971   1.510  42.379   0.241
38712W        W10972   5.789  14.541   0.335
38713W        W10973   7.692   6.259  10.619
38714W        W10974   0.719   8.167   3.205
38715W        W10975  37.386  12.758  12.602
38716W        W10976  24.594  15.460   4.546
38717W        W10977  19.675  18.838  13.938
38718W        W10978  13.980  30.148   4.225
38719W        W10979  21.726   2.272   2.164
38720W        W10980   6.503  11.167   3.730
38721W        W10981  28.373  20.542  12.881
38722W        W10982  38.945   0.459  10.890
38723W        W10983  32.202  27.086   3.619
38724W        W10984  37.505   3.593  13.437
38725W        W10985  44.198  23.209  11.602
38726W        W10986  26.171  20.039  10.657
38727W        W10987  40.395  20.831   3.712
38728W        W10988  22.333  18.316  11.960
38729W        W10989  43.509  27.299   0.843
38730W        W10990  33.513  39.040   2.894
38731W        W10991   5.776   6.925  11.460
38732W        W10992  30.844  16.195  13.300
38733W        W10993  36.658  29.066  12.530
38734W        W10994  15.123  17.704  11.909
38735W        W10995  27.874  11.142  13.391
38736W        W10996  34.039  36.621  14.847
38737W        W10997  30.133  11.732  14.003
38738W        W10998  25.246  44.964  14.494
38739W        W10999  31.105  34.861  11.606
38740W        W11000  34.818   0.947   4.624
38741W        W11001  18.600  14.767   1.331
38742W        W11002   3.662  33.792  13.797
38743W        W11003   0.935  39.411  11.458
38744W        W11004   2.253  22.084  12.651
38745W        W11005  17.631  38.273  12.118
38746W        W11006  34.005  34.023  14.823
38747W        W11007   7.484  10.145  12.956
38748W        W11008  38.961  12.007  13.022
38749W        W11009  31.784  31.462   2.759
38750W        W11010   2.764  29.035  13.040
38751W        W11011  22.317  34.914  14.930
38752W        W11012   8.939   3.300  13.246
38753W        W11013   9.644  28.026  13.309
38754W        W11014  23.109  27.199  11.319
38755W        W11015  18.658  20.021   0.964
38756W        W11016  33.462  18.060  12.529
38757W        W11017   7.177  42.860  12.513
38758W        W11018  33.411  39.577   0.809
38759W        W11019  30.197  16.166  12.440
38760W        W11020   8.191  32.099   0.333
38761W        W11021  11.958  26.483   3.201
38762W        W11022  39.009  15.259   1.953
38763W        W11023  12.793  23.998  13.396
38764W        W11024  20.825  21.620  13.936
38765W        W11025  44.465   8.221   4.218
38766W        W11026   8.942   8.274   0.197
38767W        W11027  27.868   8.674   3.733
38768W        W11028  44.580  23.047  13.127
38769W        W11029   8.294  25.025  13.389
38770W        W11030  28.894  33.423   4.183
38771W        W11031  10.215   5.444   5.031
38772W        W11032  41.662   1.848  10.067
38773W        W11033   8.853  39.477   1.036
38774W        W11034   8.823  37.377   3.951
38775W        W11035  29.102  14.240  10.617
38776W        W11036   4.238  26.129   2.549
38777W        W11037  30.036  29.102   5.033
38778W        W11038   0.512   4.775   4.053
38779W        W11039  33.062  10.580  10.657
38780W        W11040  43.228   4.090   0.457
38781W        W11041  28.895  15.279   2.651
38782W        W11042   0.344  19.964  12.787
38783W        W11043  29.061  15.197   2.177
38784W        W11044  37.150  42.640  10.401
38785W        W11045  32.179  20.206   1.412
38786W        W11046  36.428  32.133  13.457
38787W        W11047  29.553  27.471   1.241
38788W        W11048   0.170  28.944   0.741
38789W        W11049  17.297   6.145   1.985
38790W        W11050  23.137  14.816  13.725
38791W        W11051   3.848  44.233  10.413
38792W        W11052  43.604  23.404  13.996
38793W        W11053  22.402  39.782  10.795
38794W        W11054   2.312  32.453  13.151
38795W        W11055  13.703  38.310  11.862
38796W        W11056  31.671  40.611   2.615
38797W        W11057  23.207   2.319   4.007
38798W        W11058   1.197  21.189   3.555
38799W        W11059  29.602  19.497  14.547
38800W        W11060  21.014  30.568  12.652
38801W        W11061  11.320  38.936  14.772
38802W        W11062  37.831  10.568   4.287
38803W        W11063  12.555  32.902   0.739
38804W        W11064  10.541  15.883   2.197
38805W        W11065  17.784  15.075  12.915
38806W        W11066  29.037  32.368   0.811
38807W        W11067  12.714  20.458   4.529
38808W        W11068  33.714  28.471  13.883
38809W        W11069  14.264  22.064   2.540
38810W        W11070  18.995  13.546  11.964
38811W        W11071   1.789  23.499   0.274
38812W        W11072  21.733  24.831   0.315
38813W        W11073  23.861   8.972   4.362
38814W        W11074  22.788   0.439  11.610
38815W        W11075  24.934  39.235  11.774
38816W        W11076  22.456   6.360  10.909
38817W        W11077  31.355  40.695  12.980
38818W        W11078  38.331  24.286  11.089
38819W        W11079  35.875  13.658  14.103
38820W        W11080   4.897  22.074  10.780
38821W        W11081   6.239  20.021  11.933
38822W        W11082  38.799  28.324   0.517
38823W        W11083  22.963  18.829  14.896
38824W        W11084  23.369  18.784  11.034
38825W        W11085  38.999  14.207  11.549
38826W        W11086   0.545   7.943  11.626
38827W        W11087  24.625  39.847   9.814
38828W        W11088  17.374  33.531   4.788
38829W        W11089   2.193  18.030  13.408
38830W        W11090  39.031  20.166  13.806
38831W        W11091  37.857  11.100   5.004
38832W        W11092  25.050  17.255   2.755
38833W        W11093   9.968  27.404   0.819
38834W        W11094  35.581  42.065  11.483
38835W        W11095  14.681  17.741  12.190
38836W        W11096  38.568  10.232   3.312
38837W        W11097  11.982   2.476   5.011
38838W        W11098   5.812  14.534   0.851
38839W        W11099  42.351  21.814   4.336
38840W        W11100   4.196  26.298   3.493
38841W        W11101  20.781  19.108  10.656
38842W        W11102  36.773   9.359  13.423
38843W        W11103  13.265  38.985  10.078
38844W        W11104  41.285   4.268  14.339
38845W        W11105   6.775  18.146   0.852
38846W        W11106  13.298  25.941   4.544
38847W        W11107  32.911  11.544   0.365
38848W        W11108  34.125  31.535   4.043
38849W        W11109  16.998   2.979  10.919
38850W        W11110  31.017   3.226   0.399
38851W        W11111  12.165  14.661  14.793
38852W        W11112  31.379  22.000   1.161
38853W        W11113  21.654  22.095  13.473
38854W        W11114  29.507  38.864  13.550
38855W        W11115  13.970  24.201   1.262
38856W        W11116  35.961   7.915   1.901
38857W        W11117   3.938  17.657  12.406
38858W        W11118  31.231  17.704   2.096
38859W        W11119  41.059  38.587  14.415
38860W        W11120  13.646   6.935  10.757
38861W        W11121   3.256  12.916   0.712
38862W        W11122  10.864  42.430  11.160
38863W        W11123  21.813   7.197   2.630
38864W        W11124  20.921  18.055  11.547
38865W        W11125  11.181  26.565  13.572
38866W        W11126  33.893  15.343  14.872
38867W        W11127  13.561   0.903   4.886
38868W        W11128  27.161  12.636  11.710
38869W        W11129  12.378   2.319  11.182
38870W        W11130  41.367  43.204  10.055
38871W        W11131  31.627  13.918   1.239
38872W        W11132  29.505  39.912  10.624
38873W        W11133   2.741  42.913  10.533
38874W        W11134  20.285  32.500   0.469
38875W        W11135  30.729  42.420  12.934
38876W        W11136  11.147   2.483  14.074
38877W        W11137   0.895  28.762  12.926
38878W        W11138  38.991  13.658   3.877
38879W        W11139  22.052  12.922   2.825
38880W        W11140  18.687  13.855  11.126
38881W        W11141   7.433   2.685   2.915
38882W        W11142  25.067  37.894   3.039
38883W        W11143  22.764  25.555   1.843
38884W        W11144  20.995   3.009  13.426
38885W        W11145  12.251  15.583   0.381
38886W        W11146  41.600  40.459  14.867
38887W        W11147  24.115  30.173  14.447
38888W        W11148  44.354  19.183   0.263
38889W        W11149   6.646  21.577  11.851
38890W        W11150  31.991  32.307  14.496
38891W        W11151  16.072  18.822   4.154
38892W        W11152   3.934  13.278   3.324
38893W        W11153   2.819  17.375   4.579
38894W        W11154   4.822  11.866   2.827
38895W        W11155  13.784  21.158  11.221
38896W        W11156  44.079  30.098   2.283
38897W        W11157   9.374  17.852   4.625
38898W        W11158   2.675  13.442   3.482
38899W        W11159  44.972  33.829   2.692
38900W        W11160   3.435  36.632  11.760
38901W        W11161  23.429  29.026  14.383
38902W        W11162  18.085  17.266   4.049
38903W        W11163  33.138  26.677   2.679
38904W        W11164  10.167   5.246   1.791
38905W        W11165  16.246  31.915  14.868
38906W        W11166   3.311  17.714   1.226
38907W        W11167  17.820  19.725  13.821
38908W        W11168  24.147  25.561  13.037
38909W        W11169  22.341  43.217  12.437
38910W        W11170  37.032   4.395  13.451
38911W        W11171  22.050  20.742  10.734
38912W        W11172   8.942  25.767   4.999
38913W        W11173   4.742  41.316  13.460
38914W        W11174  10.220  12.601  14.301
38915W        W11175  30.964  32.085  14.386
38916W        W11176  34.573  30.551   4.500
38917W        W11177  32.570   1.178   1.999
38918W        W11178   0.252  16.989   0.229
38919W        W11179  34.843  29.506   4.226
38920W        W11180  12.503  19.203  12.365
38921W        W11181  15.411  11.740   0.837
38922W        W11182  11.441  28.411   4.177
38923W        W11183  39.279   8.570  12.893
38924W        W11184   4.015  14.730   4.940
38925W        W11185   5.069  25.614   5.483
38926W        W11186  16.056   1.483   0.808
38927W        W11187   5.631  13.602   2.381
38928W        W11188  38.824  12.637  10.271
38929W        W11189  43.002  43.397  14.912
38930W        W11190   7.482   2.908  12.502
38931W        W11191  33.141   5.851  13.284
38932W        W11192   3.394  44.322  10.688
38933W        W11193   7.686  33.791  14.261
38934W        W11194   6.822  35.987  12.377
38935W        W11195   3.641  38.108   3.831
38936W        W11196  22.116  14.273   3.340
38937W        W11197   8.897  41.323  14.907
38938W        W11198  13.122  24.508   0.294
38939W        W11199   3.728   4.914   1.253
38940W        W11200  28.919   6.620   0.737
38941W        W11201   7.608   3.372  10.345
38942W        W11202  22.650  11.222   2.883
38943W        W11203   8.519  43.307   4.986
38944W        W11204  40.345   9.886  13.310
38945W        W11205  22.973  16.067   0.839
38946W        W11206  26.051  21.441  13.447
38947W        W11207   3.656  16.068  12.589
38948W        W11208  34.152  19.256  14.792
38949W        W11209   0.416   8.692   4.182
38950W        W11210   3.890  33.085   2.268
38951W        W11211  35.877  17.302  13.392
38952W        W11212  22.648  14.568   2.660
38953W        W11213  15.970  23.016  12.414
38954W        W11214  26.745  32.436  14.330
38955W        W11215  28.687   1.696   2.353
38956W        W11216  13.947  27.100   5.567
38957W        W11217  23.443  11.312  10.766
38958W        W11218  19.279  16.065   0.700
38959W        W11219  40.258  44.598  12.035
38960W        W11220  31.680  10.132  10.073
38961W        W11221   1.803  12.604  12.597
38962W        W11222   0.415  25.441   4.787
38963W        W11223  21.698  20.771  14.536
38964W        W11224  42.299  38.902  11.708
38965W        W11225  19.099  41.852  11.982
38966W        W11226  20.809  24.738  10.754
38967W        W11227  39.790  26.079  13.330
38968W        W11228  33.094   6.871   4.938
38969W        W11229  36.346  11.378   3.210
38970W        W11230  27.133   1.137   4.595
38971W        W11231   4.967  26.163   0.671
38972W        W11232  14.203  35.423   1.240
38973W        W11233   3.243  12.208   3.924
38974W        W11234  36.805  24.125   4.048
38975W        W11235   3.730  39.396   4.149
38976W        W11236  35.327  25.507  10.702
38977W        W11237  18.332  10.572   3.236
38978W        W11238  26.548  19.778   3.179
38979W        W11239   5.327  35.367   3.264
38980W        W11240  26.536  38.293   9.978
38981W        W11241  23.719  41.204  12.493
38982W        W11242   8.118  38.761  14.528
38983W        W11243   5.768  13.150   0.837
38984W        W11244  23.290   5.739   3.805
38985W        W11245  44.416  33.390   0.452
38986W        W11246  11.130  39.874  14.926
38987W        W11247  40.156  24.156   1.247
38988W        W11248   0.851  23.430   3.758
38989W        W11249  21.558  43.956  14.397
38990W        W11250  35.290  13.248   4.112
38991W        W11251   5.408   5.907  12.468
38992W        W11252  12.836  20.156  14.496
38993W        W11253  22.333  22.218   4.962
38994W        W11254  32.687  28.793  13.546
38995W        W11255  17.662  44.553   1.259
38996W        W11256  44.338  25.240   0.377
38997W        W11257   7.327  27.466  11.045
38998W        W11258  22.146  25.102  10.023
38999W        W11259  13.651   5.275  13.606
39000W        W11260  10.757   8.651   3.679
39001W        W11261  27.757  21.662  12.208
39002W        W11262  42.225  38.377   2.258
39003W        W11263   0.070  29.497  12.354
39004W        W11264  31.632  25.514  11.634
39005W        W11265  15.193  29.234   5.394
39006W        W11266   5.444   8.357  11.008
39007W        W11267  10.815  28.016   4.698
39008W        W11268  10.035  28.403   4.456
39009W        W11269  40.741  30.708   4.225
39010W        W11270  17.886  37.373   2.646
39011W        W11271  27.733  14.441  12.661
39012W        W11272  21.569  14.189   1.352
39013W        W11273  19.542   3.598   2.218
39014W        W11274  41.028  42.568   2.368
39015W        W11275   7.686  16.787  13.141
39016W        W11276  23.750  20.701   4.341
39017W        W11277  28.424  15.614   0.277
39018W        W11278  12.210  12.261  13.426
39019W        W11279   8.586   4.492  11.985
39020W        W11280  39.883   1.024   1.798
39021W        W11281  22.003  29.941   3.358
39022W        W11282   0.296  32.945  12.828
39023W        W11283  44.385  19.825  14.407
39024W        W11284  23.519  30.899   4.554
39025W        W11285  32.871  44.671   2.581
39026W        W11286  40.047  13.084   1.868
39027W        W11287  36.663  28.113  11.469
39028W        W11288  39.637  15.603  13.848
39029W        W11289  35.909  33.977   3.138
39030W        W11290  31.907  44.310   1.168
39031W        W11291  37.375  22.468  13.495
39032W        W11292  19.079  15.139  12.150
39033W        W11293  28.884  24.061  13.940
39034W        W11294  15.140  39.086  11.064
39035W        W11295  34.876  19.320   2.295
39036W        W11296  30.986  37.282  11.610
39037W        W11297   9.420   5.878  10.504
39038W        W11298  32.955  25.608  11.924
39039W        W11299  43.035  42.589  12.177
39040W        W11300  26.577  44.936   0.261
39041W        W11301  37.821   3.857  14.994
39042W        W11302  39.022  25.706   3.172
39043W        W11303  26.663  37.576  14.252
39044W        W11304  21.660   3.989  11.497
39045W        W11305  13.745  37.910  14.520
39046W        W11306  23.702   4.812   4.599
39047W        W11307  25.224  31.407  14.352
39048W        W11308   5.109  10.816  12.558
39049W        W11309  22.419  32.557   0.389
39050W        W11310  44.844  37.152   0.181
39051W        W11311  13.091  27.527  10.195
39052W        W11312   5.372   9.465  14.558
39053W        W11313  26.423  20.771  13.025
39054W        W11314  14.954  40.200   2.249
39055W        W11315  12.580  11.442  12.404
39056W        W11316  27.882   0.364   4.446
39057W        W11317  21.647   6.505  13.912
39058W        W11318  39.515  41.864  11.878
39059W        W11319  16.445  17.096  11.948
39060W        W11320  35.551  30.536   3.470
39061W        W11321   4.997  40.850   4.981
39062W        W11322   6.967   8.345  11.717
39063W        W11323   6.963  17.013   3.385
39064W        W11324  22.461   0.909   2.788
39065W        W11325  39.313  18.217  13.406
39066W        W11326  35.030  19.793   3.398
39067W        W11327   1.287  12.892   3.222
39068W        W11328  24.975   1.388   3.534
39069W        W11329  43.881  27.105  11.558
39070W        W11330  13.282  25.274   0.585
39071W        W11331  41.924  19.948   5.036
39072W        W11332  30.369  23.674   2.765
39073W        W11333  23.118  17.384  12.572
39074W        W11334  18.445  11.851   3.719
39075W        W11335  21.824  26.196  10.696
39076W        W11336  24.057   0.187  10.131
39077W        W11337  36.884  24.636  13.311
39078W        W11338  15.540  38.143   1.963
39079W        W11339  29.193   1.698   2.428
39080W        W11340   4.202  43.373  11.565
39081W        W11341  41.155  18.345   1.676
39082W        W11342  19.147  17.603  10.675
39083W        W11343  27.194  28.000   2.316
39084W        W11344   1.732  23.294   2.797
39085W        W11345   2.952  35.681  14.466
39086W        W11346  26.965   3.511   1.756
39087W        W11347  28.877  10.408   3.817
39088W        W11348  31.218  32.025  13.457
39089W        W11349  42.793   6.204  14.483
39090W        W11350  15.658  37.517   0.524
39091W        W11351  20.141  21.061  10.621
39092W        W11352  40.580   6.467   2.082
39093W        W11353  11.316  12.699   0.326
39094W        W11354  34.436  37.877  14.907
39095W        W11355   7.200  37.818   3.110
39096W        W11356  29.243  16.827   2.478
39097W        W11357  23.560  24.920  12.622
39098W        W11358  17.840  16.165  10.453
39099W        W11359  41.339  25.224   2.250
39100W        W11360  39.794   7.936   0.777
39101W        W11361   0.704   8.433   3.744
39102W        W11362  38.804  15.231   0.935
39103W        W11363  33.478   3.482  14.727
39104W        W11364  38.509   3.697  12.342
39105W        W11365  13.155  13.693   3.235
39106W        W11366  43.805  17.159  10.580
39107W        W11367  31.616  13.720  11.074
39108W        W11368   3.527  33.015  12.113
39109W        W11369  12.087  36.041   2.637
39110W        W11370  22.875   7.860   5.565
39111W        W11371  38.411  22.927  10.688
39112W        W11372  30.674  39.948  14.008
39113W        W11373  31.223  14.758   4.384
39114W        W11374  14.928  37.466   1.864
39115W        W11375   3.336  42.902  13.937
39116W        W11376  24.604  27.577  12.630
39117W        W11377  42.339  37.553   3.824
39118W        W11378  33.153  10.722   1.133
39119W        W11379   4.910   0.118  13.521
39120W        W11380  16.518  39.629   3.819
39121W        W11381   6.286   3.237  11.957
39122W        W11382   7.534  19.304  14.152
39123W        W11383  42.323  14.622   0.421
39124W        W11384  32.988  34.656   1.142
39125W        W11385  30.089  13.099  12.123
39126W        W11386  32.693  28.979  12.166
39127W        W11387  10.643  27.871   3.242
39128W        W11388  10.728  23.738   4.417
39129W        W11389  35.507  44.324   3.340
39130W        W11390  19.620   5.471   4.086
39131W        W11391  40.533  29.570  11.056
39132W        W11392  25.509  39.574   1.281
39133W        W11393  23.473  11.111   3.432
39134W        W11394  17.615  16.741   3.580
39135W        W11395  44.742  44.496  12.200
39136W        W11396   1.908  27.533   2.859
39137W        W11397   2.947  44.352  12.079
39138W        W11398  32.527  28.414   2.831
39139W        W11399   0.457  19.146   0.926
39140W        W11400  14.080   8.735   4.997
39141W        W11401  40.786  24.281   4.235
39142W        W11402  10.077  42.030  14.026
39143W        W11403  30.567  36.023  13.038
39144W        W11404   2.341  31.378   3.247
39145W        W11405  10.837  23.237   4.471
39146W        W11406   7.928   3.893  11.448
39147W        W11407  22.172  16.669   3.149
39148W        W11408  12.598  16.727  12.603
39149W        W11409  20.722  10.459  10.990
39150W        W11410  17.203  26.977  11.509
39151W        W11411   0.767  16.271  12.477
39152W        W11412  22.106  26.072  12.511
39153W        W11413   0.379  20.478  11.513
39154W        W11414  25.031  31.524  12.887
39155W        W11415  17.267  34.633  14.905
39156W        W11416  13.336  39.821   1.891
39157W        W11417  17.722   3.906  14.728
39158W        W11418  16.964  15.501  10.229
39159W        W11419  17.226  22.150   4.361
39160W        W11420  13.165  21.460   4.776
39161W        W11421  16.694  35.200   0.948
39162W        W11422  42.742   7.974  11.213
39163W        W11423  10.352  40.060  12.585
39164W        W11424  21.217   3.229  12.124
39165W        W11425  32.443  26.990  10.411
39166W        W11426   6.855  44.448   0.465
39167W        W11427  22.115   4.745   2.325
39168W        W11428   7.291  39.339  12.914
39169W        W11429  42.849   3.250  14.346
39170W        W11430   5.234  15.848  14.725
39171W        W11431  41.619  33.038   4.246
39172W        W11432  17.379  12.653   4.146
39173W        W11433  32.950   2.257   4.724
39174W        W11434  21.951  33.859   2.503
39175W        W11435  34.392  20.507  11.956
39176W        W11436   9.372  34.327   1.638
39177W        W11437  20.460  21.973   0.996
39178W        W11438  42.093  21.732   3.773
39179W        W11439  16.763  10.631   1.766
39180W        W11440  27.665  35.889   3.118
39181W        W11441  12.888   8.433  12.081
39182W        W11442  10.171  37.873   3.828
39183W        W11443   9.722  40.766   2.807
39184W        W11444  37.082  44.772  12.400
39185W        W11445  23.100  30.449  11.549
39186W        W11446   8.270  40.251  14.742
39187W        W11447  35.502  14.424  10.662
39188W        W11448  23.428  30.118   2.942
39189W        W11449  41.073  12.078  13.444
39190W        W11450  44.473   6.417  11.997
39191W        W11451  42.997  41.586   5.089
39192W        W11452  24.281  23.674   3.752
39193W        W11453   5.725   7.811   3.598
39194W        W11454  34.426   4.865   2.245
39195W        W11455  11.387   8.595   2.123
39196W        W11456  28.156  12.362   1.258
39197W        W11457  33.025  31.669   0.288
39198W        W11458  20.556  19.334   2.268
39199W        W11459  37.826   3.820   4.159
39200W        W11460  39.090  14.770  14.977
39201W        W11461   9.857  21.004  12.351
39202W        W11462  39.086  41.189  11.980
39203W        W11463  44.039  34.523   4.151
39204W        W11464  23.021  20.643   1.994
39205W        W11465  40.330  42.684  14.214
39206W        W11466  44.478  36.901  11.104
39207W        W11467   6.954  44.414   2.899
39208W        W11468  32.880  26.758  13.908
39209W        W11469  36.358  42.273   4.803
39210W        W11470  32.987  33.183  12.223
39211W        W11471  20.585  23.457  11.359
39212W        W11472  44.671  25.284   1.789
39213W        W11473  33.389   5.145  10.600
39214W        W11474   9.110  15.005   0.811
39215W        W11475  26.492  16.498   2.284
39216W        W11476  15.469  30.817   3.223
39217W        W11477  38.431  22.061   0.843
39218W        W11478   9.331  27.654   3.524
39219W        W11479  20.873  27.515  12.418
39220W        W11480  41.613  10.230   0.366
39221W        W11481  32.671  43.230   2.223
39222W        W11482  10.431   6.221  13.366
39223W        W11483   7.992  29.784   2.879
39224W        W11484   8.117   9.771  11.684
39225W        W11485   2.537   5.812  14.286
39226W        W11486   5.885  17.937  11.565
39227W        W11487  16.865  13.889   4.136
39228W        W11488  12.187  20.702  10.625
39229W        W11489   8.167   6.820  13.389
39230W        W11490  14.545  18.521  12.153
39231W        W11491   8.874   4.129   3.653
39232W        W11492  44.530  27.929  10.446
39233W        W11493  28.936  43.987  13.358
39234W        W11494  17.668  41.326  10.926
39235W        W11495   7.927  22.761   3.679
39236W        W11496  31.730  34.462   2.382
39237W        W11497  34.522  16.575   0.419
39238W        W11498   7.222   9.134  10.738
39239W        W11499  41.704  25.095  13.525
39240W        W11500   9.178  11.653  12.409
39241W        W11501   9.369  21.205  12.438
39242W        W11502  10.688  38.411   2.395
39243W        W11503  36.062  27.662  14.970
39244W        W11504   7.580  44.384   1.769
39245W        W11505   1.185  37.190   4.253
39246W        W11506  32.811  12.914   3.219
39247W        W11507  21.650  17.311  14.853
39248W        W11508  31.717  15.995   0.269
39249W        W11509  12.927  25.582   3.889
39250W        W11510  14.950  11.517   0.789
39251W        W11511  16.325   5.259  14.030
39252W        W11512  37.924   6.460  12.502
39253W        W11513   4.344  13.788   2.651
39254W        W11514  40.670   1.507   2.219
39255W        W11515   4.341   2.594   4.576
39256W        W11516   2.002  29.545  11.064
39257W        W11517   7.910   1.370  12.985
39258W        W11518  31.121  16.060  11.104
39259W        W11519  27.831   9.260  14.460
39260W        W11520  25.659  22.124  14.410
39261W        W11521  26.040  15.642   1.270
39262W        W11522  20.604  36.887  11.569
39263W        W11523  28.900  43.722   3.292
39264W        W11524  24.668  40.682  12.440
39265W        W11525  16.560  22.448  14.174
39266W        W11526  12.882  11.169   9.743
39267W        W11527   5.754  30.078  10.157
39268W        W11528  11.804   5.742   1.651
39269W        W11529  11.276  11.392  10.827
39270W        W11530  39.861   4.671  13.244
39271W        W11531  42.401  23.244  12.975
39272W        W11532  24.901   2.670  14.841
39273W        W11533  43.435  36.531   2.422
39274W        W11534   3.519   6.167  14.448
39275W        W11535  11.678  37.033  11.944
39276W        W11536  13.235  21.130  11.173
39277W        W11537  27.516  39.852  14.122
39278W        W11538  12.100  21.775   0.907
39279W        W11539  37.734   6.434   1.042
39280W        W11540  42.274  10.763  10.540
39281W        W11541  18.689  18.513  14.689
39282W        W11542  31.947  30.487  10.726
39283W        W11543   7.231   6.313   1.816
39284W        W11544  30.830   8.918   0.806
39285W        W11545  38.605   8.739  14.387
39286W        W11546  30.955   9.491   0.720
39287W        W11547  16.013  44.418  11.096
39288W        W11548  23.667  34.953   2.244
39289W        W11549  24.138  43.087   3.234
39290W        W11550  17.010  44.232  11.044
39291W        W11551  30.071  15.699   4.604
39292W        W11552   1.985   5.499  12.890
39293W        W11553  34.746  28.625  14.716
39294W        W11554  44.942  21.252  11.257
39295W        W11555  37.961  30.073   0.050
39296W        W11556  30.956  30.879  13.863
39297W        W11557  35.800   5.345   1.451
39298W        W11558  10.866  39.582  10.893
39299W        W11559  20.809  16.899   1.506
39300W        W11560   5.781  32.331   2.039
39301W        W11561  29.824  25.994   0.172
39302W        W11562   6.168  28.957  14.973
39303W        W11563  39.343   1.942  13.440
39304W        W11564  34.316  38.035   3.127
39305W        W11565  11.693  23.035   1.407
39306W        W11566  17.062  36.135   4.086
39307W        W11567  26.338   3.713   2.255
39308W        W11568  23.521  33.064   0.866
39309W        W11569   8.263  18.052  12.009
39310W        W11570  40.000  12.320  14.897
39311W        W11571  35.467  28.474   2.486
39312W        W11572  19.510  17.742   3.608
39313W        W11573  39.768  20.284   1.629
39314W        W11574  34.486  18.788   5.486
39315W        W11575  30.348  16.392  13.321
39316W        W11576  33.788  21.206  11.976
39317W        W11577  18.669  33.056  13.838
39318W        W11578  16.897  14.315  11.015
39319W        W11579   2.786  25.684   0.739
39320W        W11580  13.411  23.652   3.335
39321W        W11581  42.507  11.598   4.447
39322W        W11582   2.812  23.391  13.807
39323W        W11583  37.376   0.863  11.558
39324W        W11584  31.456  20.237   1.796
39325W        W11585   1.328   3.230  13.984
39326W        W11586  38.433   0.719   4.563
39327W        W11587  43.474   5.419  13.479
39328W        W11588  18.422   7.717   2.084
39329W        W11589  42.767  12.848  14.118
39330W        W11590  22.041  36.557   2.768
39331W        W11591   5.835  13.201   3.901
39332W        W11592  19.804   7.692  14.257
39333W        W11593  36.422   5.881   4.155
39334W        W11594  19.569  20.749   1.475
39335W        W11595  19.585  21.238  12.323
39336W        W11596  34.036  33.193  13.326
39337W        W11597  44.723  19.244  13.020
39338W        W11598   1.947  10.788  12.508
39339W        W11599  19.652  31.136   4.564
39340W        W11600  11.658  20.475   3.436
39341W        W11601  30.559   5.878   0.451
39342W        W11602  33.425  40.802  13.422
39343W        W11603   3.707  34.611   4.657
39344W        W11604  23.140  25.463   9.789
39345W        W11605   1.482  14.441  12.617
39346W        W11606   1.450  14.633  14.467
39347W        W11607   7.391   5.061   4.522
39348W        W11608   8.817  12.284   2.967
39349W        W11609   4.889  18.002   2.768
39350W        W11610   8.998  22.614  12.380
39351W        W11611  35.563  14.167  14.741
39352W        W11612  33.639   7.118  13.346
39353W        W11613  36.862  40.778   4.823
39354W        W11614  27.540   3.859  12.388
39355W        W11615  10.162  36.581   3.823
39356W        W11616  25.736   6.786   4.605
39357W        W11617  23.971  36.095   4.168
39358W        W11618  27.742  19.520  12.920
39359W        W11619  22.085   9.834  10.737
39360W        W11620  33.383   9.612   2.819
39361W        W11621  35.078  44.997  11.930
39362W        W11622  25.433  38.872   4.846
39363W        W11623  39.083  41.356   4.926
39364W        W11624  29.602  11.772  10.631
39365W        W11625  40.541   8.419   1.453
39366W        W11626  12.048  24.691  11.404
39367W        W11627   2.720  36.576  12.349
39368W        W11628  21.650  40.351  12.425
39369W        W11629  32.287   2.368   4.677
39370W        W11630   6.235  33.666  13.275
39371W        W11631  14.632  28.149   2.660
39372W        W11632   6.205   5.443   4.889
39373W        W11633  24.561   2.219  13.084
39374W        W11634  37.737  15.174   0.988
39375W        W11635  10.767  30.164   3.851
39376W        W11636   9.748  16.316   4.502
39377W        W11637   0.450   6.330   2.795
39378W        W11638  27.743  40.352  10.213
39379W        W11639   7.101   6.790  10.864
39380W        W11640  37.649  24.271   5.104
39381W        W11641  12.233   9.166  14.657
39382W        W11642  21.223  43.016  12.825
39383W        W11643   5.037   0.685  13.875
39384W        W11644   9.251  33.706  12.529
39385W        W11645   0.368  30.250  13.375
39386W        W11646  32.214  16.232  11.403
39387W        W11647  25.066   4.148   3.982
39388W        W11648  13.744  36.448   2.653
39389W        W11649  43.704  36.007   2.049
39390W        W11650  17.271  40.836  10.029
39391W        W11651  35.913   0.766   3.786
39392W        W11652  18.497  34.971   1.699
39393W        W11653  17.358  44.332  10.070
39394W        W11654  11.734  25.573   1.689
39395W        W11655  32.066  44.434   3.607
39396W        W11656  38.528  22.952  13.305
39397W        W11657  42.480   3.810  13.623
39398W        W11658  22.792   2.272  10.927
39399W        W11659  36.512   7.154   0.900
39400W        W11660  38.093   3.413   3.142
39401W        W11661  35.162  31.520  10.968
39402W        W11662  44.065  24.660   3.795
39403W        W11663  11.221  44.504   3.246
39404W        W11664  18.822  13.387  13.031
39405W        W11665  13.364  17.303  12.434
39406W        W11666  29.563  11.119   2.240
39407W        W11667  14.805  27.325   5.157
39408W        W11668  18.558   6.902   3.427
39409W        W11669  29.869  20.564  13.192
39410W        W11670  13.608  10.334  13.473
39411W        W11671  10.135   0.782   3.382
39412W        W11672   2.501   7.929   0.766
39413W        W11673  24.084  39.769  13.581
39414W        W11674  32.316  16.545   3.252
39415W        W11675  26.645  27.910   0.969
39416W        W11676  33.167  21.948   4.671
39417W        W11677   3.724  27.383   2.865
39418W        W11678  10.596  32.059  13.420
39419W        W11679  10.168  33.442   0.214
39420W        W11680  32.012  20.528   4.584
39421W        W11681  18.414  15.155   0.130
39422W        W11682  28.144  29.862   4.172
39423W        W11683  41.461   2.285   0.230
39424W        W11684   5.493  38.358  10.648
39425W        W11685  13.246  33.940  13.393
39426W        W11686   8.677  20.504  14.840
39427W        W11687  25.873   5.430  12.978
39428W        W11688  33.147  34.161  13.483
39429W        W11689  41.460   7.665  11.553
39430W        W11690  19.796  38.800   3.684
39431W        W11691   5.262  12.872  12.565
39432W        W11692  42.964  10.780  11.616
39433W        W11693  41.071  35.398   4.713
39434W        W11694  43.924  23.675   1.892
39435W        W11695   0.739   4.904   0.457
39436W        W11696  13.236   5.650   4.115
39437W        W11697   0.158  21.686   0.751
39438W        W11698   3.885  27.136  11.884
39439W        W11699  16.133  36.465  12.581
39440W        W11700  33.658  30.655  13.634
39441W        W11701   3.446  20.289   2.401
39442W        W11702  40.155  41.969   2.008
39443W        W11703   8.587   6.874  12.566
39444W        W11704  40.443  37.850   2.376
39445W        W11705  40.010  13.762   2.376
39446W        W11706  41.010  41.265   3.356
39447W        W11707  39.581  25.003   2.100
39448W        W11708  44.399  39.700  10.446
39449W        W11709   6.797  18.492  13.454
39450W        W11710  12.493  21.106  12.454
39451W        W11711  20.536  20.634  10.575
39452W        W11712  37.326  31.153  12.141
39453W        W11713   3.304   8.626  13.934
39454W        W11714  34.035  22.768  11.169
39455W        W11715  10.328  24.599  11.545
39456W        W11716   0.222  30.581   2.436
39457W        W11717  32.556  13.299  14.118
39458W        W11718  16.196  28.197   2.922
39459W        W11719  41.884  18.189   4.703
39460W        W11720  20.218  43.535  12.941
39461W        W11721  30.846  37.968  11.315
39462W        W11722  11.347  32.649  10.577
39463W        W11723  39.115   5.889  13.532
39464W        W11724  20.064  10.427   4.178
39465W        W11725  27.065  23.281   4.219
39466W        W11726  11.303  29.743   4.529
39467W        W11727   8.776  37.072  11.332
39468W        W11728  31.219  31.158  14.337
39469W        W11729  37.878  33.167  11.573
39470W        W11730  31.902  37.435  10.627
39471W        W11731  28.037  32.814  11.573
39472W        W11732   4.304  17.258  14.146
39473W        W11733  39.746  42.598   3.831
39474W        W11734  16.975  34.800  10.767
39475W        W11735  23.696   9.397  14.872
39476W        W11736   8.453  37.615  13.292
39477W        W11737  25.523  18.075   0.615
39478W        W11738  23.986   7.890   4.217
39479W        W11739  28.207  35.666   0.282
39480W        W11740   8.869  44.932   4.109
39481W        W11741  37.297  14.720   5.034
39482W        W11742  22.272  13.685  13.715
39483W        W11743  42.303  20.135   0.433
39484W        W11744   2.289  31.971  14.918
39485W        W11745   7.138  21.041  14.633
39486W        W11746  15.282  16.737   1.695
39487W        W11747   5.981   8.285  11.233
39488W        W11748  16.048  11.231   2.896
39489W        W11749  19.744  25.820  14.975
39490W        W11750   6.222   6.157  14.899
39491W        W11751   8.794  43.679  14.325
39492W        W11752  16.200  36.469   3.257
39493W        W11753   0.647  13.925   1.323
39494W        W11754  42.416  24.032  14.983
39495W        W11755  40.944  13.422   0.245
39496W        W11756  32.483  23.669   3.264
39497W        W11757   6.950  13.696  14.475
39498W        W11758  35.847  23.670  11.176
39499W        W11759  37.302  38.381  14.031
39500W        W11760  22.468  43.937  13.378
39501W        W11761   8.392   6.522   2.187
39502W        W11762   2.234  31.971  12.929
39503W        W11763   2.622   9.355   3.140
39504W        W11764  11.049  29.437   3.640
39505W        W11765   7.722  44.903  11.193
39506W        W11766  12.115  31.056   1.810
39507W        W11767  23.173  41.985   3.354
39508W        W11768  12.601  30.408  10.238
39509W        W11769  43.012  34.103  11.093
39510W        W11770  35.959   2.162  13.839
39511W        W11771  13.514  40.714   4.349
39512W        W11772  13.374  44.264  12.574
39513W        W11773  16.966  17.753  14.273
39514W        W11774  24.683   4.313   1.910
39515W        W11775   8.147  39.580  12.054
39516W        W11776  43.406  26.076   3.176
39517W        W11777   3.293  43.543  12.525
39518W        W11778  36.081  26.209   4.596
39519W        W11779  21.700  36.187   2.560
39520W        W11780  23.424  40.138  14.475
39521W        W11781  27.144  44.764   1.330
39522W        W11782  29.598  27.111  10.700
39523W        W11783  20.873  19.101  10.104
39524W        W11784  24.015  30.891   1.400
39525W        W11785  35.498   5.847  14.264
39526W        W11786  25.199  41.033   0.998
39527W        W11787  40.150  37.814  12.671
39528W        W11788  37.645  15.815   9.986
39529W        W11789  23.628   4.913  12.002
39530W        W11790  32.984  20.100  10.376
39531W        W11791  27.250  21.246  14.954
39532W        W11792   8.436  20.207  11.048
39533W        W11793   6.148  26.968  12.610
39534W        W11794  41.219  20.256  13.054
39535W        W11795  37.951  21.756   0.742
39536W        W11796   6.662  38.615  14.432
39537W        W11797  29.479  10.584  11.086
39538W        W11798  31.675  12.804   0.767
39539W        W11799   1.011  12.696  12.188
39540W        W11800   8.403  43.998  14.487
39541W        W11801  12.795  25.263  12.811
39542W        W11802  12.887  39.308   3.185
39543W        W11803  32.812   0.738   1.879
39544W        W11804   3.886  15.164   1.189
39545W        W11805  23.645  28.535   1.996
39546W        W11806  32.657  44.546  14.330
39547W        W11807  17.046  21.015  12.952
39548W        W11808  37.972   2.430   3.166
39549W        W11809  22.447  40.796  12.510
39550W        W11810   0.522  14.339   2.237
39551W        W11811  18.112   9.777   3.910
39552W        W11812  39.936   9.203   4.077
39553W        W11813   6.118  16.912  14.498
39554W        W11814  33.798  38.807   4.377
39555W        W11815  33.617   5.835   1.291
39556W        W11816  13.193  11.845  13.361
39557W        W11817  30.528  11.411  13.888
39558W        W11818  11.012  17.069   1.021
39559W        W11819  19.631  26.811   4.964
39560W        W11820   5.733  30.195   1.237
39561W        W11821  42.779  17.627  12.466
39562W        W11822  21.992  11.555   1.798
39563W        W11823   5.113   8.635   0.882
39564W        W11824   3.964   8.634  13.267
39565W        W11825  17.241  20.096  14.479
39566W        W11826  14.350  44.984  14.883
39567W        W11827  40.594  16.708  12.124
39568W        W11828  14.884  10.609  13.478
39569W        W11829  33.581  21.575  14.945
39570W        W11830  15.208  11.463   1.250
39571W        W11831  38.903  40.998  12.424
39572W        W11832   6.938   9.844   1.422
39573W        W11833  16.714  35.348  13.567
39574W        W11834  19.824  30.506  13.569
39575W        W11835  40.278  41.511   3.601
39576W        W11836  18.728  13.464   1.910
39577W        W11837  37.145  30.398  14.079
39578W        W11838  12.320  15.556   2.370
39579W        W11839  41.509  19.726   0.251
39580W        W11840  19.519  16.750   3.753
39581W        W11841  26.081  13.117   1.906
39582W        W11842  22.962  36.304  10.919
39583W        W11843   8.717  23.954  12.429
39584W        W11844   0.790   4.781  10.687
39585W        W11845   2.246  20.819  14.345
39586W        W11846  24.409  10.282  14.033
39587W        W11847   7.192  37.933   1.156
39588W        W11848   0.904  16.662  10.348
39589W        W11849   3.717  43.289  11.628
39590W        W11850   2.774  38.874   1.683
39591W        W11851  11.207  43.360  11.653
39592W        W11852  31.084  36.148   4.097
39593W        W11853  10.439   9.505   3.197
39594W        W11854  16.723   5.318  12.835
39595W        W11855  24.685  35.113  12.946
39596W        W11856  23.618  16.900  13.781
39597W        W11857  44.529  16.652  12.507
39598W        W11858  43.943  21.201   1.187
39599W        W11859  36.060  38.915  12.121
39600W        W11860  41.982  42.567   2.187
39601W        W11861  26.964  40.168  13.043
39602W        W11862  28.410  36.346   0.232
39603W        W11863  19.347   6.276  14.033
39604W        W11864  24.340  25.746   4.592
39605W        W11865   2.446  43.518  12.172
39606W        W11866  33.571   5.947  12.262
39607W        W11867   4.917  25.021   2.326
39608W        W11868  38.822  43.396  12.434
39609W        W11869   8.172   9.881  10.755
39610W        W11870  38.836  36.889  14.254
39611W        W11871   6.389  13.675   2.825
39612W        W11872  26.571  12.203   0.348
39613W        W11873  18.637  37.341  11.935
39614W        W11874  41.456  30.480  14.799
39615W        W11875  27.445  31.501  14.717
39616W        W11876   4.248   4.176  14.783
39617W        W11877  32.451  36.466   4.812
39618W        W11878  32.744   1.420   2.405
39619W        W11879   6.492  36.688   0.387
39620W        W11880  21.606  36.214  14.760
39621W        W11881  11.697  12.983  10.202
39622W        W11882  18.806   7.011  12.807
39623W        W11883  39.546   9.934   1.392
39624W        W11884  16.044  22.461  14.065
39625W        W11885  25.750  34.174   1.890
39626W        W11886  11.024  16.562  12.108
39627W        W11887  33.649  15.809   4.946
39628W        W11888  40.781  11.670  13.443
39629W        W11889   3.324   1.788  12.843
39630W        W11890   3.762   0.385   4.636
39631W        W11891  37.177  28.396   3.590
39632W        W11892  40.088  13.877  12.109
39633W        W11893  18.577  11.411   0.440
39634W        W11894  30.896   8.329  14.495
39635W        W11895  37.797  33.857  14.905
39636W        W11896  36.902  28.600  13.027
39637W        W11897  14.719  15.684  13.563
39638W        W11898   9.336  16.528   4.171
39639W        W11899  42.589  32.982   4.698
39640W        W11900  26.679  31.376  14.223
39641W        W11901  31.872  15.691   3.194
39642W        W11902  43.515  32.377  10.972
39643W        W11903  15.869   0.450   0.554
39644W        W11904  27.388  24.941   2.456
39645W        W11905   4.735  13.072   1.071
39646W        W11906  34.007  14.574   1.505
39647W        W11907   5.547   7.332  11.687
39648W        W11908  32.588   6.888   2.789
39649W        W11909  34.600   2.833  10.627
39650W        W11910  22.213  13.078   1.886
39651W        W11911  42.245  35.925   0.659
39652W        W11912  16.399  39.017  11.547
39653W        W11913   6.884   3.380  14.594
39654W        W11914  33.088  25.898  13.624
39655W        W11915  35.078   6.186   0.771
39656W        W11916  37.037  34.363   0.281
39657W        W11917  12.251  28.875   1.258
39658W        W11918  41.976  36.290  12.428
39659W        W11919  10.712  11.783  12.532
39660W        W11920  35.421  24.060  14.863
39661W        W11921  28.464  20.747  14.442
39662W        W11922  40.486  35.250   9.859
39663W        W11923  12.136  32.205   1.142
39664W        W11924  20.910  27.123   3.167
39665W        W11925  17.105  27.355   0.323
39666W        W11926  17.334  22.572   5.002
39667W        W11927  32.121  35.689   3.007
39668W        W11928  18.052  10.513  10.941
39669W        W11929  16.176  43.946  11.136
39670W        W11930  18.499  38.756   1.399
39671W        W11931  25.797  22.285  13.518
39672W        W11932  15.753  39.946   1.906
39673W        W11933   9.975  44.778   1.635
39674W        W11934  34.019  15.659   0.287
39675W        W11935  44.771  14.361  13.030
39676W        W11936  18.451  44.712   0.042
39677W        W11937  21.234  31.179  12.768
39678W        W11938  29.146  10.642  10.674
39679W        W11939  24.538  24.254  12.035
39680W        W11940  34.120  12.782  12.914
39681W        W11941  35.010   4.709   4.748
39682W        W11942  10.284  28.504  11.370
39683W        W11943   5.156  25.947  13.785
39684W        W11944  18.223   4.522   2.586
39685W        W11945  44.970  20.501  14.258
39686W        W11946  11.246   1.576   4.007
39687W        W11947  36.364   8.406   4.609
39688W        W11948  23.004  18.246  12.467
39689W        W11949  14.481  15.733  14.930
39690W        W11950  33.817   5.769  13.914
39691W        W11951  30.063  36.003  14.350
39692W        W11952  22.501  32.876  12.430
39693W        W11953  25.777  43.512   1.311
39694W        W11954  35.347  30.082  13.975
39695W        W11955   7.760  44.218  11.917
39696W        W11956  42.779  16.082  14.478
39697W        W11957  35.052  44.719  14.704
39698W        W11958  17.781  36.989   2.304
39699W        W11959  31.620  11.885   3.214
39700W        W11960   7.297  27.613   3.759
39701W        W11961  30.442  31.892   0.254
39702W        W11962  28.234  14.677   1.228
39703W        W11963  14.344  44.454   3.317
39704W        W11964  13.579  23.201   3.571
39705W        W11965   9.312  32.582   0.272
39706W        W11966  17.601   2.439   1.172
39707W        W11967  22.116  25.626   3.195
39708W        W11968  11.722  13.367  12.190
39709W        W11969  17.287   7.654  12.829
39710W        W11970  15.591  15.914  12.452
39711W        W11971  14.530  10.811  14.338
39712W        W11972  42.308  14.404  12.081
39713W        W11973   2.292  26.287  12.985
39714W        W11974  34.804  29.371  14.688
39715W        W11975  42.221  33.524   2.371
39716W        W11976   7.161  40.815  14.036
39717W        W11977   1.196   9.537   4.871
39718W        W11978  35.749  20.740  13.624
39719W        W11979  37.384  21.450  13.424
39720W        W11980  22.026   4.484   1.901
39721W        W11981  17.546   8.261   0.371
39722W        W11982  24.532  35.802  13.928
39723W        W11983  26.407  39.479   0.461
39724W        W11984  17.544  24.284  13.225
39725W        W11985   4.808   0.305  11.619
39726W        W11986  27.001  32.774   1.676
39727W        W11987  23.462  34.949  14.588
39728W        W11988   0.505  36.019   3.235
39729W        W11989  15.356   7.912   1.677
39730W        W11990  31.065  40.125  10.477
39731W        W11991   8.033  17.697  10.516
39732W        W11992  10.074  38.477   4.129
39733W        W11993  33.956  20.845  13.364
39734W        W11994  42.842  26.162   1.143
39735W        W11995  31.341  36.351  13.584
39736W        W11996  16.844  27.608  14.044
39737W        W11997   3.082  11.218  14.204
39738W        W11998  44.230   7.377   3.671
39739W        W11999  36.798  17.677  12.484
39740W        W12000  23.712  40.048   3.614
39741W        W12001  20.030  19.091  14.265
39742W        W12002  11.235  19.655  14.357
39743W        W12003  15.548  43.403   4.855
39744W        W12004  31.673  11.399  13.346
39745W        W12005  17.492   6.436  14.890
39746W        W12006  36.481  23.732   2.776
39747W        W12007  32.040   3.723   2.916
39748W        W12008  41.247  36.097   3.710
39749W        W12009  32.461  15.755  12.071
39750W        W12010   3.649  13.803  12.242
39751W        W12011  30.493  34.915  12.856
39752W        W12012  34.954   5.778   1.622
39753W        W12013   5.387  11.771   0.231
39754W        W12014  22.616  28.619   2.853
39755W        W12015  24.069  36.905  11.495
39756W        W12016  44.789  33.941  13.476
39757W        W12017  27.368  32.636   3.055
39758W        W12018   8.685  41.488  12.507
39759W        W12019   6.882  20.724   4.324
39760W        W12020  44.356   6.412  14.732
39761W        W12021   7.637  35.864  12.024
39762W        W12022  23.734  13.112   0.770
39763W        W12023  16.574  22.961  14.050
39764W        W12024  28.628  43.861   0.812
39765W        W12025  26.927  19.233  11.023
39766W        W12026  44.793  13.615  13.903
39767W        W12027  30.869  36.913  12.392
39768W        W12028  27.186  12.324  14.058
39769W        W12029  38.913  22.857   0.818
39770W        W12030  29.009  28.745   2.282
39771W        W12031  39.623   7.118  11.094
39772W        W12032  29.998  35.462   0.883
39773W        W12033  11.823  12.343  13.097
39774W        W12034   4.113  37.797   4.555
39775W        W12035  27.859  20.543   0.307
39776W        W12036   4.074  29.409  11.914
39777W        W12037   0.608  11.709  10.255
39778W        W12038  28.125  38.972   1.388
39779W        W12039   3.157  38.981   3.709
39780W        W12040  38.366  28.243   2.192
39781W        W12041  39.515  27.902   3.044
39782W        W12042  15.055  38.821  14.884
39783W        W12043  37.061   1.055   0.757
39784W        W12044   1.242  16.509  13.645
39785W        W12045  42.912  17.165  12.657
39786W        W12046  18.017   1.879  11.027
39787W        W12047  25.767  19.210   5.003
39788W        W12048  11.418  17.639  11.092
39789W        W12049   6.424  26.983   4.569
39790W        W12050  18.877  13.154  11.371
39791W        W12051  42.258  26.579  11.641
39792W        W12052  10.768  30.705  12.582
39793W        W12053  38.138  30.127  11.058
39794W        W12054  13.180  18.268   3.635
39795W        W12055  39.747   0.960  14.004
39796W        W12056  43.306  38.869   4.030
39797W        W12057   9.042   6.263  13.841
39798W        W12058  14.568  37.262   4.965
39799W        W12059  15.582  31.089   1.469
39800W        W12060   5.197  43.550  13.267
39801W        W12061  17.756   1.198  14.844
39802W        W12062   5.016  21.396  12.987
39803W        W12063  17.149  24.108  11.126
39804W        W12064  12.950  32.755   1.027
39805W        W12065  17.172  27.647  11.667
39806W        W12066  11.161  44.241  10.168
39807W        W12067  23.114   9.771  13.830
39808W        W12068  20.849   9.716   0.880
39809W        W12069  23.580  34.455   2.353
39810W        W12070   0.287  42.529   1.672
39811W        W12071  23.198  15.519  13.008
39812W        W12072   4.607  39.387  12.586
39813W        W12073  23.038   3.389  11.805
39814W        W12074  18.726  36.299   1.297
39815W        W12075  11.343   3.265   3.459
39816W        W12076  18.109  30.658  12.563
39817W        W12077   6.530  43.482   2.743
39818W        W12078  11.272  33.635   0.970
39819W        W12079   7.647  22.760   0.404
39820W        W12080   5.815   8.702   3.729
39821W        W12081  32.359  21.187   1.526
39822W        W12082  24.252  33.336   0.697
39823W        W12083  15.713  42.786   9.907
39824W        W12084   2.518  34.792  11.359
39825W        W12085  23.297   1.829   4.091
39826W        W12086  39.049  41.858   3.095
39827W        W12087  10.772   0.173   3.391
39828W        W12088  17.084  14.156  11.492
39829W        W12089   3.159  21.646   4.318
39830W        W12090  31.894  41.865   1.489
39831W        W12091  35.161  35.967   4.616
39832W        W12092  11.755  15.683   1.169
39833W        W12093  34.027  31.390   2.689
39834W        W12094   3.399  40.985   4.501
39835W        W12095   8.897  27.722   4.906
39836W        W12096  10.391   0.506   2.613
39837W        W12097  40.331  35.925   2.300
39838W        W12098  35.915  34.155  13.814
39839W        W12099  13.746  42.067   4.153
39840W        W12100  10.132  37.322  10.963
39841W        W12101   1.019  32.841   2.163
39842W        W12102  30.940  18.535  11.539
39843W        W12103  18.676  17.206   0.248
39844W        W12104  39.462  25.496   3.367
39845W        W12105  27.420  21.625  12.587
39846W        W12106   9.631  38.876  13.840
39847W        W12107   4.797  11.283  10.467
39848W        W12108  23.526  37.117  12.516
39849W        W12109  11.305  22.645   1.410
39850W        W12110  10.271  43.942   4.735
39851W        W12111  40.721  11.681   4.535
39852W        W12112  38.652  37.407   4.448
39853W        W12113  31.761  42.982   4.181
39854W        W12114  20.394  19.155  10.254
39855W        W12115  14.173  32.941   1.233
39856W        W12116  23.539  34.929   4.609
39857W        W12117  13.998  12.800  13.333
39858W        W12118  36.174  19.558  13.947
39859W        W12119  35.473  33.067   4.241
39860W        W12120  25.544  12.393  12.701
39861W        W12121  20.171  19.527   0.311
39862W        W12122  38.112  37.314   1.441
39863W        W12123   4.106  32.433  11.559
39864W        W12124   6.878  44.523  12.409
39865W        W12125  14.798  15.622   4.209
39866W        W12126   6.725  13.497  11.647
39867W        W12127  27.991  40.033  12.818
39868W        W12128  36.881  39.378  12.008
39869W        W12129  30.681  36.240  11.149
39870W        W12130   5.750  15.056   4.107
39871W        W12131  15.630  17.190   3.648
39872W        W12132  10.679   8.208  11.101
39873W        W12133  30.057   0.930  14.127
39874W        W12134  13.082  16.298   5.505
39875W        W12135  16.142  15.181   1.349
39876W        W12136  30.369  36.906  12.196
39877W        W12137  37.096  20.621   2.418
39878W        W12138  29.546  40.955   0.739
39879W        W12139  13.072   2.530   1.348
39880W        W12140  26.046  19.651  14.869
39881W        W12141  31.414  31.434  11.399
39882W        W12142  40.502  25.206  12.384
39883W        W12143  12.699  19.074   1.707
39884W        W12144  32.446  40.091  13.980
39885W        W12145  27.514  41.444   1.261
39886W        W12146   4.137  36.436   4.260
39887W        W12147  36.895  42.274  14.825
39888W        W12148   8.657  42.022  13.789
39889W        W12149  10.469  25.742  13.327
39890W        W12150  27.434  42.280   4.091
39891W        W12151  23.045   9.656  13.294
39892W        W12152   5.289  40.718  10.786
39893W        W12153  35.874  28.971   4.543
39894W        W12154  28.988  24.433  11.706
39895W        W12155  44.493  39.292  13.106
39896W        W12156  24.019   5.321   4.034
39897W        W12157  37.889  26.634   4.828
39898W        W12158  23.146   0.409  13.021
39899W        W12159  24.692  16.661   2.683
39900W        W12160   3.629  34.383   1.776
39901W        W12161   0.383  10.149  14.194
39902W        W12162   5.047  31.876   1.319
39903W        W12163  27.711   6.685  11.403
39904W        W12164  20.787  43.854   0.302
39905W        W12165  27.566   9.421  14.885
39906W        W12166   5.969  39.102  12.862
39907W        W12167   8.879  44.372   4.440
39908W        W12168  39.834  32.931  11.791
39909W        W12169   4.880  38.442  11.952
39910W        W12170   4.260   8.107  11.536
39911W        W12171  35.865  31.043   1.440
39912W        W12172  32.647  27.984  11.769
39913W        W12173  37.527   0.981   3.704
39914W        W12174  42.315   3.617  12.529
39915W        W12175  42.707  44.676  11.619
39916W        W12176  34.469  13.072   0.841
39917W        W12177  18.283  43.518   3.167
39918W        W12178  36.859  40.570  13.845
39919W        W12179  13.392  22.806   5.147
39920W        W12180  32.284  14.135   0.154
39921W        W12181   8.448   7.510  11.915
39922W        W12182  16.822  32.195   4.515
39923W        W12183  35.031  15.363   4.612
39924W        W12184   3.681  35.666   4.683
39925W        W12185  33.355  19.993   1.708
39926W        W12186  21.997  35.586  12.649
39927W        W12187  23.827  13.444   1.728
39928W        W12188  30.709  18.087   1.701
39929W        W12189  34.490  34.829  13.436
39930W        W12190  19.082  15.641   4.163
39931W        W12191  34.293  15.754   3.324
39932W        W12192  16.877  34.901   2.328
39933W        W12193  27.207  38.917  11.063
39934W        W12194  36.178  35.625   4.239
39935W        W12195  32.424   8.074  11.051
39936W        W12196   5.835  20.504  14.945
39937W        W12197   3.459  43.345  14.719
39938W        W12198  36.382  23.023  11.178
39939W        W12199   5.701  29.055  14.718
39940W        W12200  38.066   6.898   3.291
39941W        W12201  39.419  20.092   1.957
39942W        W12202  19.703   0.544  11.533
39943W        W12203  25.059  15.120   1.176
39944W        W12204  30.178  12.586  10.700
39945W        W12205  28.074  22.618   0.050
39946W        W12206  23.038  12.844   0.790
39947W        W12207   7.820  29.609  14.041
39948W        W12208   8.171   6.768  10.701
39949W        W12209  39.404  14.898  12.222
39950W        W12210  43.093  32.892   0.499
39951W        W12211  29.695  18.567   0.521
39952W        W12212   5.499   1.084   4.487
39953W        W12213  31.594  39.523   0.973
39954W        W12214  18.268   2.318  11.573
39955W        W12215  21.660  35.540  10.451
39956W        W12216  10.721  29.578   0.588
39957W        W12217  40.214  14.219  13.029
39958W        W12218  33.978   0.553  11.877
39959W        W12219  17.775  35.049  11.090
39960W        W12220   7.627   7.685   3.626
39961W        W12221  24.625  18.052   0.592
39962W        W12222   4.396  40.952  14.381
39963W        W12223  30.352  33.884  12.495
39964W        W12224  11.828  20.195  14.864
39965W        W12225  17.585  17.112   3.991
39966W        W12226  25.838  39.369   2.493
39967W        W12227  22.486  15.622   4.099
39968W        W12228  36.519  43.220  11.023
39969W        W12229  24.911  28.453  13.708
39970W        W12230   0.421   8.869   1.955
39971W        W12231  19.087  24.476  12.238
39972W        W12232  13.292   9.932   0.402
39973W        W12233  23.197  17.804  12.258
39974W        W12234  34.194  28.485   4.613
39975W        W12235  43.362   4.664  14.037
39976W        W12236  29.375  20.937  10.262
39977W        W12237   3.984  22.081  13.462
39978W        W12238  38.299  36.967  11.974
39979W        W12239  37.388   6.702   4.968
39980W        W12240  15.811  19.000  13.403
39981W        W12241   8.249  37.331  14.799
39982W        W12242  40.355  36.540  11.475
39983W        W12243  39.555  32.376   2.754
39984W        W12244  13.418  10.924  12.113
39985W        W12245  30.970  29.963  14.035
39986W        W12246  35.393  16.535  13.888
39987W        W12247   8.883  41.079   1.262
39988W        W12248  33.946   1.248   2.650
39989W        W12249  37.519  28.103  11.567
39990W        W12250  28.140   6.171   0.015
39991W        W12251  42.415  39.845  13.815
39992W        W12252  16.112  31.302   2.588
39993W        W12253  10.297   2.905   1.592
39994W        W12254  19.373  31.001  14.723
39995W        W12255  27.071  22.016   3.767
39996W        W12256  38.472  38.926  13.138
39997W        W12257  30.595  20.286  11.951
39998W        W12258   2.476  10.667   3.280
39999W        W12259   7.277  39.958  12.061
40000W        W12260  18.314  32.377  12.575
40001W        W12261  15.378   9.972  14.592
40002W        W12262  38.957  18.960   2.842
40003W        W12263   7.603   6.230   4.959
40004W        W12264   1.669  39.374  12.352
40005W        W12265   8.754  12.645   3.335
40006W        W12266  32.643  34.532  14.750
40007W        W12267  36.089  32.408   1.730
40008W        W12268  27.083  43.984   4.502
40009W        W12269  14.588  35.679   5.096
40010W        W12270  25.315  12.859  12.881
40011W        W12271  24.189  22.429   1.888
40012W        W12272  42.251  36.077   2.710
40013W        W12273  34.890  33.537   0.170
40014W        W12274  44.850  23.750  11.609
40015W        W12275  24.991  33.145  13.901
40016W        W12276   3.467  43.532   2.741
40017W        W12277  13.930  21.322   3.819
40018W        W12278  27.069  10.398   0.439
40019W        W12279  21.081   9.435  11.661
40020W        W12280  30.901  35.970   3.653
40021W        W12281  25.947   0.904  13.468
40022W        W12282  33.005  15.657   4.254
40023W        W12283  12.585  20.431  13.032
40024W        W12284  32.816  19.147   3.698
40025W        W12285  20.848  12.359   0.866
40026W        W12286   2.810   9.925  12.078
40027W        W12287   1.637   6.405   1.366
40028W        W12288  25.948   3.436   1.806
40029W        W12289  14.182  14.292   1.983
40030W        W12290  29.161   2.824   3.187
40031W        W12291  26.469  28.193  13.875
40032W        W12292  43.084  31.267  11.278
40033W        W12293  38.174  43.528   3.492
40034W        W12294   6.810   1.496  10.339
40035W        W12295  29.635  28.434   3.120
40036W        W12296  34.009  25.701   4.125
40037W        W12297  43.017   7.689  10.870
40038W        W12298  22.824  31.483  11.542
40039W        W12299  22.334  40.357   4.814
40040W        W12300  40.026  11.779   3.099
40041W        W12301  31.860  18.181  14.721
40042W        W12302   5.387   8.940  10.484
40043W        W12303   7.931  29.850  10.617
40044W        W12304  11.712  16.066   2.687
40045W        W12305  17.102  34.203  11.369
40046W        W12306   2.835  24.593  12.602
40047W        W12307  14.306  11.975  11.992
40048W        W12308  30.370  32.409   1.364
40049W        W12309   1.423  26.736   0.818
40050W        W12310  33.532  33.724  10.707
40051W        W12311  39.318   1.009  10.468
40052W        W12312  43.483  13.086  10.687
40053W        W12313  16.208  22.207  10.422
40054W        W12314  40.062  28.402  14.987
40055W        W12315   7.538   2.290   2.027
40056W        W12316   0.386  38.552  12.154
40057W        W12317  44.561   0.834   1.133
40058W        W12318  30.018  27.112  11.627
40059W        W12319  32.087  18.347   0.218
40060W        W12320   0.915  33.918  12.052
40061W        W12321  13.135  29.014  14.323
40062W        W12322  26.312  18.498   0.054
40063W        W12323  16.198  25.479  11.602
40064W        W12324  23.189   4.253   0.651
40065W        W12325  16.603  28.993   1.916
40066W        W12326  43.633  36.372   4.403
40067W        W12327   3.758  27.614   2.400
40068W        W12328  16.341   8.555  11.792
40069W        W12329  21.401  31.323   2.910
40070W        W12330   8.687  41.911   0.521
40071W        W12331  13.732  31.136  14.975
40072W        W12332  18.177  12.647  11.591
40073W        W12333  42.318  25.134   0.381
40074W        W12334  29.036  12.584  12.779
40075W        W12335  16.686  40.939   1.297
40076W        W12336   2.893   1.194   0.724
40077W        W12337   7.800   7.000   2.710
40078W        W12338  16.984  34.828  11.530
40079W        W12339  26.230  29.713   3.640
40080W        W12340  12.202   7.670  12.417
40081W        W12341   9.380   7.459   3.129
40082W        W12342  10.450  20.815   1.336
40083W        W12343  34.888  17.793  12.566
40084W        W12344  11.080  26.360   0.799
40085W        W12345  21.212  17.878   4.289
40086W        W12346  37.415  26.309   3.242
40087W        W12347  42.499  41.962  14.787
40088W        W12348  33.516  41.791   0.417
40089W        W12349   2.524  26.668   4.702
40090W        W12350   9.427   3.453   0.442
40091W        W12351  33.982  24.265  12.538
40092W        W12352  26.141  22.435  13.168
40093W        W12353  30.721   6.394  14.205
40094W        W12354   0.131   4.289   0.158
40095W        W12355  20.228  13.782  11.497
40096W        W12356  40.945  22.680  13.835
40097W        W12357  15.343  16.301  10.307
40098W        W12358  25.254  21.543  10.531
40099W        W12359  21.259  12.045   0.824
40100W        W12360   7.464  35.413  10.894
40101W        W12361  32.865  19.185   0.415
40102W        W12362  24.528  33.885  14.566
40103W        W12363  42.959  18.529  11.914
40104W        W12364  41.289   4.890  14.993
40105W        W12365  36.797  25.830  14.011
40106W        W12366  25.663  42.343   5.035
40107W        W12367   8.895  36.229  11.650
40108W        W12368   2.181  20.593   4.434
40109W        W12369   1.523   9.729   0.275
40110W        W12370   5.358  15.907  11.162
40111W        W12371  19.667  42.239  11.547
40112W        W12372  12.261  28.406  13.907
40113W        W12373  40.302  37.640  11.447
40114W        W12374  42.002  27.176   2.852
40115W        W12375  39.061   5.551   3.231
40116W        W12376  43.501   3.812   2.776
40117W        W12377   8.666  14.249  11.082
40118W        W12378  44.956  21.686  10.946
40119W        W12379  25.629  25.929   4.293
40120W        W12380  22.503   1.294   4.036
40121W        W12381   4.759  27.040  10.654
40122W        W12382  38.069   3.324   1.347
40123W        W12383  20.522  26.023  13.907
40124W        W12384  23.667  29.517  12.966
40125W        W12385  44.392   6.631   1.190
40126W        W12386   3.257   0.875  13.175
40127W        W12387  25.793  41.043  10.197
40128W        W12388  23.028  31.722   4.656
40129W        W12389  14.539  40.059  11.943
40130W        W12390  37.449  11.745  10.533
40131W        W12391   7.117  27.569  10.587
40132W        W12392  15.207  10.262  11.061
40133W        W12393   5.892  34.558   0.174
40134W        W12394   5.587  35.786  12.989
40135W        W12395  36.077  42.826  14.897
40136W        W12396  11.341  35.975  14.577
40137W        W12397  12.421  19.306   0.773
40138W        W12398  32.524  23.535  11.825
40139W        W12399  34.696  30.999  11.580
40140W        W12400  36.971  26.887   1.583
40141W        W12401  19.764  27.547   1.164
40142W        W12402  14.371  43.488  13.413
40143W        W12403   0.805  12.412  12.722
40144W        W12404  44.431   9.311   4.913
40145W        W12405  39.598   9.176  14.665
40146W        W12406  36.927  34.663  11.237
40147W        W12407  28.510   0.206  13.975
40148W        W12408  18.346  43.915  12.098
40149W        W12409   0.406  28.578   2.327
40150W        W12410   1.027  41.193   5.183
40151W        W12411   8.129  41.524   1.926
40152W        W12412  30.858   2.086  12.684
40153W        W12413   5.056  43.878  14.178
40154W        W12414  44.970  37.523   3.474
40155W        W12415  40.392   6.999   0.258
40156W        W12416  19.772  43.745  14.906
40157W        W12417  36.151  10.120   5.071
40158W        W12418  13.210  25.118   4.526
40159W        W12419  11.812  20.543   1.971
40160W        W12420  43.549  24.604  14.321
40161W        W12421  43.690  40.458  10.469
40162W        W12422  34.153  30.498   3.700
40163W        W12423  17.814   1.344  11.081
40164W        W12424  38.916  24.688  10.557
40165W        W12425   3.241  33.822   4.606
40166W        W12426  43.960  30.683  11.507
40167W        W12427  39.448  19.968   3.576
40168W        W12428   0.743   7.810   2.295
40169W        W12429  28.679  26.798   0.681
40170W        W12430  10.316   8.648   5.128
40171W        W12431  39.517  31.062  11.374
40172W        W12432  15.131  21.802   1.007
40173W        W12433   3.261   5.792  13.803
40174W        W12434  44.281  29.446   0.594
40175W        W12435   0.402  27.713   0.934
40176W        W12436  40.399  27.059   2.592
40177W        W12437   3.221  18.136   0.942
40178W        W12438  34.071   3.640   3.295
40179W        W12439   1.794  24.505   0.703
40180W        W12440   0.898  37.927   1.906
40181W        W12441  23.729  29.878   3.712
40182W        W12442  21.643  35.268  11.464
40183W        W12443   6.417  44.511  10.917
40184W        W12444  16.797  34.321   3.624
40185W        W12445  35.439  41.448   0.014
40186W        W12446  30.353   7.331  12.965
40187W        W12447   8.826  18.818   1.161
40188W        W12448  21.237  35.073   3.854
40189W        W12449  38.886   9.078   4.207
40190W        W12450  20.608  19.058   3.854
40191W        W12451  23.568  44.006  10.654
40192W        W12452  13.306  23.774   0.803
40193W        W12453  43.140  27.735  14.115
40194W        W12454  43.491   9.929  12.550
40195W        W12455  23.520  34.797   2.751
40196W        W12456  41.063  36.758  12.376
40197W        W12457  15.021  17.644   9.968
40198W        W12458  19.048  22.678   1.619
40199W        W12459  14.037  30.911   3.088
40200W        W12460  11.842  22.097   0.516
40201W        W12461   7.443  19.737   4.568
40202W        W12462  43.342  37.322   1.243
40203W        W12463  17.790   3.477  11.053
40204W        W12464  33.511   5.935  11.717
40205W        W12465  29.546   4.413   3.418
40206W        W12466  41.736  28.627   3.936
40207W        W12467  24.162   3.698  12.109
40208W        W12468   9.689  11.713   1.399
40209W        W12469   1.093   4.852  13.935
40210W        W12470   4.846  35.232  13.324
40211W        W12471  12.831  42.839   3.226
40212W        W12472  22.259  14.235   4.475
40213W        W12473  15.285  43.037   3.111
40214W        W12474  35.841  27.497  13.520
40215W        W12475   6.017  17.435  13.272
40216W        W12476   7.625   3.969   2.735
40217W        W12477  20.834  20.809   5.009
40218W        W12478  26.751   6.617  10.511
40219W        W12479   2.516  42.854   4.160
40220W        W12480  25.798  18.335  13.868
40221W        W12481  10.080   3.314   1.823
40222W        W12482  26.946  34.554   0.714
40223W        W12483  42.222  27.250   4.284
40224W        W12484   6.494  34.575   1.953
40225W        W12485  20.319  26.613  10.746
40226W        W12486  15.632  38.516  10.776
40227W        W12487  10.845   7.167   4.830
40228W        W12488  31.913  18.097   1.340
40229W        W12489  10.130   2.999   2.534
40230W        W12490  33.058   2.186  14.166
40231W        W12491  33.916   4.181   2.432
40232W        W12492  41.466  30.614   4.600
40233W        W12493  30.882  36.300   3.250
40234W        W12494   9.453  16.754  14.952
40235W        W12495   2.989  21.970   3.933
40236W        W12496  39.302  13.652  12.708
40237W        W12497  16.819  36.459  11.178
40238W        W12498  18.007  33.957   4.130
40239W        W12499  38.829   0.341  12.985
40240W        W12500   3.580   1.006  10.607
40241W        W12501  37.270   2.012  13.352
40242W        W12502   7.961  20.555   3.251
40243W        W12503  16.245   6.415  12.442
40244W        W12504  30.158   9.575   0.762
40245W        W12505   2.451  17.812  12.374
40246W        W12506   3.409  27.921  11.922
40247W        W12507  15.195  16.687   0.277
40248W        W12508  28.193   0.581  13.766
40249W        W12509  39.948   8.469  14.077
40250W        W12510  27.215  39.773  11.154
40251W        W12511  23.409   3.890   3.725
40252W        W12512  40.809  37.971  10.803
40253W        W12513  25.733   7.118  11.362
40254W        W12514  40.704  23.985  11.174
40255W        W12515  26.953  19.670  13.437
40256W        W12516  14.173  27.905   0.005
40257W        W12517  37.024  29.680  12.096
40258W        W12518   1.346  27.979   4.177
40259W        W12519  17.185  30.017  12.076
40260W        W12520  40.444  26.133   0.853
40261W        W12521  34.492  13.820   3.567
40262W        W12522  22.089  11.410  12.498
40263W        W12523  13.051  22.243   0.924
40264W        W12524  13.278  16.161   3.997
40265W        W12525   8.308   4.538   2.120
40266W        W12526  25.935  14.614   3.232
40267W        W12527   2.202  32.032   1.352
40268W        W12528  30.891  21.654  12.032
40269W        W12529  13.339   8.494   2.411
40270W        W12530   8.090  26.429   9.895
40271W        W12531  34.305  20.092  11.068
40272W        W12532  14.767  25.646   4.898
40273W        W12533  41.276   7.764   1.746
40274W        W12534  16.834  42.109  13.080
40275W        W12535  19.350   7.799   4.645
40276W        W12536  20.704  23.750  14.785
40277W        W12537  30.745  17.478   3.965
40278W        W12538  28.593  10.604  11.917
40279W        W12539  31.853  15.933  11.567
40280W        W12540  28.003  18.303   0.075
40281W        W12541  16.257  44.217  14.833
40282W        W12542  26.671  29.878  12.479
40283W        W12543   9.881  13.656  14.133
40284W        W12544   0.643  23.191   0.452
40285W        W12545   8.096   5.409   2.629
40286W        W12546   5.382  21.035  12.086
40287W        W12547  39.337  28.739   3.584
40288W        W12548  38.724  24.180   2.005
40289W        W12549  42.927  34.927   4.529
40290W        W12550  13.371  19.407  13.819
40291W        W12551   4.022  19.743  13.407
40292W        W12552   5.894  42.892   3.020
40293W        W12553  12.188  11.716  13.320
40294W        W12554  30.292  35.874   4.551
40295W        W12555  21.750  42.880  12.001
40296W        W12556   3.456  27.703   3.180
40297W        W12557  42.245  26.338  10.992
40298W        W12558  38.024  26.567  11.978
40299W        W12559  17.796  27.496   3.668
40300W        W12560  32.054  11.594   1.300
40301W        W12561  27.142  13.398  11.120
40302W        W12562   6.432  14.950  13.420
40303W        W12563  33.687  21.683  12.145
40304W        W12564  24.478  18.367  12.880
40305W        W12565  41.786  15.310  12.440
40306W        W12566  31.958  16.938  14.432
40307W        W12567  41.080   2.858  14.399
40308W        W12568  12.491  27.202   1.753
40309W        W12569  30.862  23.781   2.592
40310W        W12570  14.222  38.963  13.301
40311W        W12571  16.114  37.587   0.754
40312W        W12572  38.926  44.321  14.309
40313W        W12573   9.742  22.069   2.161
40314W        W12574  24.385  24.512  13.488
40315W        W12575   1.844  30.837  14.337
40316W        W12576  36.102  41.974  11.372
40317W        W12577  38.709  10.531   2.921
40318W        W12578   5.341  10.420   4.119
40319W        W12579  27.643   3.886  11.897
40320W        W12580  36.279   4.810   4.325
40321W        W12581  39.422  18.136  12.890
40322W        W12582   8.761   4.596   4.455
40323W        W12583  39.294   0.976  13.051
40324W        W12584   8.825   5.389  14.117
40325W        W12585   4.491  11.867   1.760
40326W        W12586  30.521  16.562  12.340
40327W        W12587  44.470  38.215  11.526
40328W        W12588  12.280   0.826   1.163
40329W        W12589  34.822   0.325   2.132
40330W        W12590   4.531  15.159  13.059
40331W        W12591  10.966  19.598  13.042
40332W        W12592  38.557  16.696   2.144
40333W        W12593  37.449   6.375  13.003
40334W        W12594   7.134  26.980  11.082
40335W        W12595  19.595  17.615   4.552
40336W        W12596   3.575   7.361   1.489
40337W        W12597  44.985   9.725   3.748
40338W        W12598   4.349  19.845  11.551
40339W        W12599  18.540   0.404   4.615
40340W        W12600  32.908  15.641   3.224
40341W        W12601  12.834   8.338  13.320
40342W        W12602   8.518  44.512   4.780
40343W        W12603  41.270  34.068   4.124
40344W        W12604   1.114  16.523   2.213
40345W        W12605  30.522  37.210   3.577
40346W        W12606  40.513  25.738  13.674
40347W        W12607  12.209  42.109  11.950
40348W        W12608  14.583  29.747   2.348
40349W        W12609  41.085  38.243  12.588
40350W        W12610  21.933   2.000   2.910
40351W        W12611   2.953  26.193   0.420
40352W        W12612   4.459   3.215   3.687
40353W        W12613   8.697  37.897   0.019
40354W        W12614  16.149  32.873   2.862
40355W        W12615  17.646  33.434   0.252
40356W        W12616  13.418  22.485  12.524
40357W        W12617   8.474  44.524   2.693
40358W        W12618  30.878  11.763   4.597
40359W        W12619  40.242  10.117  13.777
40360W        W12620  35.645  15.563   4.850
40361W        W12621  40.697   7.875  11.136
40362W        W12622  21.785  12.296   1.493
40363W        W12623  33.037   9.854   4.698
40364W        W12624  20.224   4.652   5.322
40365W        W12625  22.319  37.958  14.471
40366W        W12626  19.087  16.113  11.221
40367W        W12627  35.328  20.543   2.311
40368W        W12628  44.029  40.504   3.112
40369W        W12629  14.991  32.570   3.844
40370W        W12630  36.985  31.472   4.496
40371W        W12631   6.735   3.754  13.095
40372W        W12632  26.113  32.146  12.832
40373W        W12633   4.201   8.704   3.719
40374W        W12634  27.537  30.700   9.798
40375W        W12635  36.302  18.724  10.549
40376W        W12636  18.247   0.205  13.419
40377W        W12637  14.186  23.432  14.401
40378W        W12638   3.783   0.838  13.308
40379W        W12639  12.273  44.090   2.771
40380W        W12640  18.906   7.298  12.394
40381W        W12641  11.870  42.743   1.803
40382W        W12642  15.380  33.286   1.576
40383W        W12643  39.056   9.433  12.832
40384W        W12644  38.899   4.867  14.959
40385W        W12645  27.109  41.514  11.864
40386W        W12646  25.540   9.248   2.279
40387W        W12647   7.252  32.175  12.473
40388W        W12648   0.032  14.049   0.379
40389W        W12649  36.615  16.141   3.349
40390W        W12650  39.318   6.750  14.161
40391W        W12651  41.953  20.932   4.114
40392W        W12652   1.462  28.631  12.032
40393W        W12653  20.793  18.534   0.990
40394W        W12654  11.609  34.402   3.133
40395W        W12655  41.398  44.787   1.800
40396W        W12656  19.745   7.460  12.525
40397W        W12657  14.392   6.166   1.018
40398W        W12658  16.657   4.046  13.488
40399W        W12659  43.897   9.757   1.514
40400W        W12660  38.552  23.021  14.335
40401W        W12661   8.429  29.898  10.413
40402W        W12662   0.505  33.011  11.044
40403W        W12663  34.668  11.101   4.525
40404W        W12664  17.168  14.754   9.932
40405W        W12665  43.720  26.011  14.383
40406W        W12666  23.804  31.863   3.587
40407W        W12667  40.297  24.097   0.349
40408W        W12668  34.828  14.420   1.730
40409W        W12669  16.580  11.894  11.763
40410W        W12670  44.200  29.571  12.921
40411W        W12671  15.916  44.487  14.529
40412W        W12672  18.839  34.420  14.076
40413W        W12673  15.117   6.399   1.934
40414W        W12674  11.614  16.748  12.719
40415W        W12675  31.610  26.278  14.454
40416W        W12676   9.295   6.309  10.236
40417W        W12677  39.096  44.699  13.453
40418W        W12678  24.611   7.932  13.658
40419W        W12679  31.655  23.372   1.709
40420W        W12680   6.911  11.394   2.019
40421W        W12681  43.384  25.353  13.870
40422W        W12682   4.192  31.979   1.001
40423W        W12683  27.597   8.771   1.480
40424W        W12684  27.155  42.040  12.871
40425W        W12685  39.281  43.346  13.348
40426W        W12686  38.143   4.363   2.331
40427W        W12687  36.326  21.859  14.510
40428W        W12688  23.170  38.578   4.441
40429W        W12689  39.236   7.787   3.661
40430W        W12690   1.832   4.391  11.598
40431W        W12691   2.937  20.917   9.938
40432W        W12692   6.897   5.067   0.961
40433W        W12693  37.819  24.655   1.764
40434W        W12694   5.010  15.717  11.485
40435W        W12695  31.456   4.213   2.281
40436W        W12696  33.603  11.086   2.668
40437W        W12697  31.481  38.070  12.894
40438W        W12698  43.811  31.231   2.842
40439W        W12699  17.572  16.496   1.229
40440W        W12700  32.607  17.291  11.140
40441W        W12701  27.223   4.743   4.064
40442W        W12702  19.197  41.185  12.660
40443W        W12703  27.090  17.067   1.329
40444W        W12704  40.082  44.256   2.790
40445W        W12705  16.145   3.878  10.404
40446W        W12706  14.493   7.747   4.509
40447W        W12707  25.455  27.989   4.710
40448W        W12708  25.941   0.247   1.326
40449W        W12709  42.278  22.331  12.454
40450W        W12710  31.464  40.802   3.920
40451W        W12711  13.859  40.870   2.921
40452W        W12712  27.170   1.422  13.550
40453W        W12713  28.060  11.645   1.817
40454W        W12714  17.278  16.361   3.158
40455W        W12715  19.927  27.909   4.439
40456W        W12716  32.090  42.280   2.864
40457W        W12717   3.346  20.467  13.791
40458W        W12718   1.412   8.368   2.214
40459W        W12719  40.820   7.569  14.674
40460W        W12720   8.051  22.273  14.751
40461W        W12721   8.043  44.804  12.912
40462W        W12722   1.196   2.641   2.714
40463W        W12723   8.669   8.210   1.286
40464W        W12724  44.700   6.701  10.460
40465W        W12725  25.140   2.372   0.190
40466W        W12726  23.148  40.821   0.393
40467W        W12727  31.047   5.895   3.270
40468W        W12728  40.997  19.782   3.290
40469W        W12729  32.166  16.705   1.384
40470W        W12730  17.297   4.864  10.702
40471W        W12731  23.032  20.773  14.725
40472W        W12732  17.540  43.920  12.594
40473W        W12733  26.282  34.206  10.970
40474W        W12734  16.766   2.300   4.348
40475W        W12735  29.710  19.248   4.277
40476W        W12736  34.121  31.620   3.149
40477W        W12737   5.712   4.747  14.953
40478W        W12738  27.473  39.093   2.147
40479W        W12739   7.281   8.875  11.936
40480W        W12740  14.265   5.984   1.695
40481W        W12741  22.588   9.220   4.090
40482W        W12742  40.213  38.076  11.695
40483W        W12743  36.048   2.690  14.513
40484W        W12744  38.620  15.609  11.555
40485W        W12745  40.433   2.234   4.648
40486W        W12746  38.135  16.075   0.880
40487W        W12747  24.110  41.069  14.023
40488W        W12748  24.520  18.105  12.402
40489W        W12749   3.007  28.464  11.129
40490W        W12750   7.875  18.104  12.634
40491W        W12751  29.533  22.390  12.553
40492W        W12752   2.262   1.347  11.794
40493W        W12753   9.710  15.126   1.677
40494W        W12754   3.895  37.764   0.986
40495W        W12755  32.531  26.285   3.197
40496W        W12756   3.699  30.842  14.072
40497W        W12757  39.586  38.029   4.726
40498W        W12758  39.846  24.000  12.855
40499W        W12759  28.660  37.897   2.718
40500W        W12760  10.652  15.744  11.572
40501W        W12761  17.647  42.427  14.375
40502W        W12762   9.392  35.053   1.812
40503W        W12763  12.320  41.973   1.517
40504W        W12764  27.066  12.196  12.572
40505W        W12765   5.302  17.374   1.157
40506W        W12766  19.217  36.529   1.254
40507W        W12767  18.925  33.615  12.620
40508W        W12768  35.868  44.749   2.334
40509W        W12769  21.701  21.770  14.649
40510W        W12770  30.956   9.692   0.055
40511W        W12771  27.683   9.597   0.348
40512W        W12772  16.280  39.980   0.069
40513W        W12773  30.586  14.249   4.320
40514W        W12774   2.422  22.002   0.606
40515W        W12775  15.677  22.230   1.304
40516W        W12776   6.017   2.506   1.794
40517W        W12777   2.321  31.097  11.134
40518W        W12778  24.540   1.442   4.286
40519W        W12779   0.688   1.494   3.153
40520W        W12780  41.399   8.400   4.335
40521W        W12781  43.956   5.744   3.693
40522W        W12782  14.968   0.912   2.327
40523W        W12783  25.989  38.439  11.160
40524W        W12784   9.750  40.712  13.296
40525W        W12785  11.860  38.724   9.788
40526W        W12786   1.615  15.669   2.411
40527W        W12787  28.505  15.024   4.471
40528W        W12788  21.185   2.760   2.781
40529W        W12789  43.385  43.467   2.778
40530W        W12790  33.076  23.201   0.373
40531W        W12791   4.445  28.213   4.979
40532W        W12792   2.258   0.280  11.513
40533W        W12793   5.667   6.326  12.374
40534W        W12794   0.717  20.168   1.889
40535W        W12795  26.921   4.686  14.349
40536W        W12796  22.048  18.888  11.299
40537W        W12797  35.123  27.600   2.912
40538W        W12798  11.343   9.875   3.371
40539W        W12799  27.208  29.033   3.727
40540W        W12800  41.397   4.436   4.563
40541W        W12801  26.164   5.776   2.198
40542W        W12802   3.406  39.484  11.545
40543W        W12803   5.806  44.006  11.007
40544W        W12804  33.571  26.639   4.122
40545W        W12805   1.490   3.002  13.550
40546W        W12806  44.556  30.627   1.218
40547W        W12807  28.616  28.047   4.873
40548W        W12808  36.375  19.768  11.829
40549W        W12809  39.943  37.573   4.183
40550W        W12810  27.213  16.611  13.817
40551W        W12811   7.305  44.769  14.473
40552W        W12812  18.140  14.355   2.790
40553W        W12813  16.457  19.966  10.655
40554W        W12814  32.129   2.793   2.841
40555W        W12815   3.814  17.336   0.377
40556W        W12816  19.555  42.274   2.315
40557W        W12817   7.586   2.698  10.675
40558W        W12818  33.144  24.253  12.033
40559W        W12819  24.221  31.194  12.563
40560W        W12820  32.088   5.112   3.934
40561W        W12821   4.370  44.372   0.872
40562W        W12822  28.153  40.259   3.308
40563W        W12823   0.483  39.821  13.880
40564W        W12824  16.751  32.404  12.873
40565W        W12825  44.972  13.801  13.217
40566W        W12826  16.804  42.701   0.908
40567W        W12827   7.663   5.262   2.870
40568W        W12828   5.574  37.702   3.646
40569W        W12829  13.564  10.077  10.799
40570W        W12830  26.177  12.496   1.925
40571W        W12831  26.484  44.793  12.920
40572W        W12832  16.091  22.655   1.384
40573W        W12833  12.813  24.265  13.881
40574W        W12834  41.491  38.622   0.222
40575W        W12835  42.598  32.706   3.689
40576W        W12836  12.824  37.534   3.881
40577W        W12837  14.770  36.579  13.581
40578W        W12838  24.631   2.218   0.070
40579W        W12839  12.711   3.757   2.265
40580W        W12840  44.485  13.299  13.625
40581W        W12841  21.649  16.952   4.201
40582W        W12842  12.086  37.831   1.719
40583W        W12843   2.298  30.868   3.360
40584W        W12844  26.589  38.046  11.638
40585W        W12845   7.868  43.907   3.662
40586W        W12846  27.935   2.573  11.384
40587W        W12847  15.273  13.880  12.933
40588W        W12848  14.140   6.440   1.924
40589W        W12849  34.383  11.805  12.537
40590W        W12850  23.626  32.485   1.703
40591W        W12851  11.675  33.286   4.583
40592W        W12852  14.141  17.928  11.424
40593W        W12853   2.860  10.867  10.994
40594W        W12854  22.964  25.961   4.181
40595W        W12855  15.378   9.780  12.801
40596W        W12856  31.170   3.167  10.741
40597W        W12857  32.017  44.635   2.102
40598W        W12858  24.519  37.425  12.056
40599W        W12859  32.841  28.425   4.371
40600W        W12860  11.160  18.329   1.710
40601W        W12861  30.014  17.467  11.119
40602W        W12862   9.309  13.859  12.898
40603W        W12863  30.451  19.563   3.683
40604W        W12864   4.695  41.069  13.015
40605W        W12865   5.179  38.175  13.080
40606W        W12866  10.142  17.757  10.805
40607W        W12867   5.926  38.360   1.212
40608W        W12868  17.839  13.363  11.636
40609W        W12869  12.740  42.406  14.841
40610W        W12870  17.359  22.056   0.357
40611W        W12871   2.011  16.602   4.928
40612W        W12872  15.626  29.315  11.882
40613W        W12873  11.522  26.617   4.435
40614W        W12874  33.781  35.522  13.364
40615W        W12875  14.345  30.485  12.095
40616W        W12876  31.457  44.584   1.181
40617W        W12877  38.012   3.525   2.276
40618W        W12878  38.481  27.192   1.261
40619W        W12879  25.345  26.870   2.698
40620W        W12880  25.596  36.583  14.958
40621W        W12881   9.355  31.550  14.320
40622W        W12882  35.305  17.139  11.238
40623W        W12883   3.712  32.000  12.572
40624W        W12884  10.360  16.531   1.427
40625W        W12885  14.871  30.410  14.333
40626W        W12886  42.064  38.896  14.609
40627W        W12887  43.321  32.888  12.442
40628W        W12888  20.729  19.529  10.964
40629W        W12889  19.729  19.627  11.175
40630W        W12890   3.686  41.431  14.349
40631W        W12891  36.539  10.395   2.270
40632W        W12892  38.574   6.020   3.866
40633W        W12893  16.668  26.876  11.446
40634W        W12894  21.268   6.421   4.130
40635W        W12895  42.977  13.412   1.304
40636W        W12896  26.774   2.766  13.809
40637W        W12897   9.907  43.932  12.498
40638W        W12898  13.126   4.812   2.947
40639W        W12899  29.850   8.219   4.076
40640W        W12900  44.299  27.062  10.367
40641W        W12901  27.206  34.772   4.326
40642W        W12902  27.701  28.227  12.351
40643W        W12903  34.633  35.031   0.471
40644W        W12904  31.704   1.855  10.612
40645W        W12905  16.766  37.549   1.921
40646W        W12906  17.433   4.941   0.585
40647W        W12907  25.945  33.183  14.418
40648W        W12908  17.537  43.980   4.579
40649W        W12909  12.396  30.312   5.592
40650W        W12910   4.739  40.041   5.112
40651W        W12911  41.785   6.495  13.476
40652W        W12912  15.301  30.532  13.535
40653W        W12913  17.571  40.437   2.808
40654W        W12914  24.556  41.910   1.153
40655W        W12915  29.164   3.163  11.313
40656W        W12916  27.745  29.722   3.900
40657W        W12917  31.988  12.220  12.291
40658W        W12918  37.664  28.589  14.728
40659W        W12919  40.581  42.896  13.431
40660W        W12920  23.308   1.562  11.519
40661W        W12921  34.035   2.824   3.839
40662W        W12922  18.027  35.238   0.072
40663W        W12923  40.818  27.988  12.196
40664W        W12924   7.715  24.998  12.606
40665W        W12925  10.859   1.345  13.460
40666W        W12926  15.575  41.892  13.075
40667W        W12927  41.441  23.976   2.687
40668W        W12928   4.109   9.284  12.159
40669W        W12929  41.385  34.590   4.600
40670W        W12930  15.264  23.220   2.845
40671W        W12931  10.873  37.322   0.334
40672W        W12932  25.211  35.628   4.652
40673W        W12933  34.913   3.660  10.542
40674W        W12934  37.863  28.746  11.159
40675W        W12935  34.387  23.775  10.718
40676W        W12936  18.534  17.571  13.948
40677W        W12937  21.911  10.297   0.492
40678W        W12938  11.780   8.293   2.294
40679W        W12939  24.450  21.230   4.637
40680W        W12940  34.074   9.858  14.792
40681W        W12941  40.903  33.710  10.929
40682W        W12942  33.929  44.001  11.949
40683W        W12943  43.315  39.904  12.828
40684W        W12944  10.305  22.983   3.689
40685W        W12945  25.409   0.267  12.005
40686W        W12946  34.923  31.613  14.108
40687W        W12947  25.215   2.479   1.849
40688W        W12948  28.196  24.674   0.078
40689W        W12949  41.820   3.679   4.297
40690W        W12950  41.291  24.566  12.148
40691W        W12951  37.144  32.052  12.215
40692W        W12952  39.045   7.198  11.028
40693W        W12953   6.824  44.791   1.281
40694W        W12954   5.836   5.657   0.542
40695W        W12955  16.892   1.504   1.163
40696W        W12956  21.934  19.133   4.523
40697W        W12957  32.079  12.176  11.786
40698W        W12958  35.961   5.927   3.940
40699W        W12959  18.691  28.578   4.649
40700W        W12960  32.843  30.824   0.019
40701W        W12961  43.408  35.087   3.635
40702W        W12962  31.539  40.508   4.508
40703W        W12963  15.814  14.421   0.425
40704W        W12964  41.506  16.265   4.590
40705W        W12965  24.192  35.638   4.328
40706W        W12966  29.228  37.918   1.725
40707W        W12967  30.667  20.316  12.798
40708W        W12968  37.078  13.806  12.017
40709W        W12969  17.500  21.477   3.286
40710W        W12970   6.318   2.849   2.944
40711W        W12971  28.663  41.570  11.100
40712W        W12972  16.040  36.960  12.796
40713W        W12973  16.751   5.016   4.807
40714W        W12974  20.183  44.732   2.730
40715W        W12975  40.440   1.976  13.488
40716W        W12976  21.182   0.886  13.103
40717W        W12977  18.783  38.410  11.086
40718W        W12978   7.446  31.182  13.172
40719W        W12979  12.287  39.059  13.830
40720W        W12980  20.832  33.908   0.933
40721W        W12981  40.842  24.729  14.976
40722W        W12982  31.397  21.572  12.057
40723W        W12983   8.245  44.162  11.062
40724W        W12984  30.417   0.472   2.800
40725W        W12985  35.432  17.814  12.990
40726W        W12986  44.698   9.343  11.578
40727W        W12987  23.651  36.345   3.751
40728W        W12988  11.386  32.667  14.289
40729W        W12989   5.246  22.308  12.675
40730W        W12990  36.762  23.721   3.624
40731W        W12991  11.921  23.208  14.112
40732W        W12992  27.513  39.887  10.218
40733W        W12993  22.234   8.933   1.299
40734W        W12994  31.165  29.550   1.713
40735W        W12995   4.789   4.442  13.942
40736W        W12996   5.521   5.247  13.835
40737W        W12997  12.439   6.949   0.378
40738W        W12998   1.501  24.239   2.403
40739W        W12999   1.341  26.247   4.568
40740W        W13000  13.302   5.162   4.276
40741W        W13001  37.307   5.484   0.491
40742W        W13002  36.783  40.291  11.159
40743W        W13003  41.356  14.022  12.038
40744W        W13004   6.240  14.045   1.209
40745W        W13005  19.556  28.834   4.252
40746W        W13006  11.236   3.588  13.010
40747W        W13007  40.974   9.005   4.048
40748W        W13008  33.208  21.210  14.898
40749W        W13009   9.593  10.907   0.439
40750W        W13010   9.721  19.110   2.218
40751W        W13011  10.436  26.078   4.758
40752W        W13012   0.830  33.157  10.663
40753W        W13013  27.724   6.796  10.481
40754W        W13014  39.270  18.067  11.528
40755W        W13015  16.966  23.655   1.664
40756W        W13016  28.559  12.835  12.821
40757W        W13017  19.162  15.410  10.734
40758W        W13018  35.636  24.619  11.973
40759W        W13019   2.767  21.991   2.325
40760W        W13020   1.617   9.288  12.099
40761W        W13021   8.891  41.325   2.193
40762W        W13022  20.765  10.117   2.318
40763W        W13023  20.845  30.488   4.179
40764W        W13024  29.011  34.496  13.827
40765W        W13025  38.496  27.152   4.133
40766W        W13026   0.489  25.884   3.360
40767W        W13027  41.500  40.051   3.252
40768W        W13028  25.202  19.575  11.458
40769W        W13029  42.432   3.466  10.939
40770W        W13030  21.641  27.522   1.386
40771W        W13031   1.960  20.280  11.584
40772W        W13032  14.657   1.182   4.160
40773W        W13033  37.883  20.474  14.970
40774W        W13034  21.047  29.123  10.778
40775W        W13035   2.512  18.738  12.859
40776W        W13036   3.430  42.791  11.692
40777W        W13037  24.849  20.191  13.510
40778W        W13038  22.452   2.052   5.191
40779W        W13039  28.986  43.459  14.074
40780W        W13040  35.026   3.545  12.468
40781W        W13041  42.080  43.338   2.006
40782W        W13042   2.924  11.430  11.970
40783W        W13043  17.016  23.688  11.811
40784W        W13044  11.672  41.994  12.488
40785W        W13045  27.410  19.037  11.953
40786W        W13046   6.241  43.358   2.306
40787W        W13047  41.915   5.896  10.667
40788W        W13048   6.241  43.309  14.921
40789W        W13049   3.165   4.913   4.442
40790W        W13050  38.574  13.349   4.636
40791W        W13051  16.130   7.842   1.792
40792W        W13052  36.442  35.478   1.825
40793W        W13053  15.239  17.176   1.961
40794W        W13054  44.740  40.958   3.146
40795W        W13055  10.829  26.066   4.412
40796W        W13056  27.647  39.977   5.415
40797W        W13057  23.468  15.781   4.478
40798W        W13058  11.233  41.361  12.376
40799W        W13059  31.874  44.316  11.510
40800W        W13060   7.234  12.610  10.707
40801W        W13061  16.701  21.351  10.680
40802W        W13062   8.350  13.724  11.809
40803W        W13063  37.413  42.985  13.537
40804W        W13064  24.379  19.142  13.891
40805W        W13065  31.610  43.893  11.623
40806W        W13066   6.261  30.642  14.252
40807W        W13067  10.325  24.882  13.876
40808W        W13068  15.120  39.865   4.202
40809W        W13069  27.514   5.709  12.526
40810W        W13070  26.741   2.390  11.111
40811W        W13071  20.472  43.986  12.147
40812W        W13072  22.601  38.051  13.461
40813W        W13073  44.234  20.944   4.166
40814W        W13074   9.154   2.448   0.128
40815W        W13075  23.895   1.734  11.761
40816W        W13076  19.988  33.583  12.920
40817W        W13077   7.670  30.122  13.970
40818W        W13078  20.013  15.540  13.904
40819W        W13079  21.010   6.682  12.408
40820W        W13080   1.281  30.897  13.029
40821W        W13081  10.912  38.933   0.219
40822W        W13082  27.949  39.419  10.171
40823W        W13083  42.993  40.447   0.034
40824W        W13084  31.212  22.286   4.187
40825W        W13085  11.589  23.542   0.475
40826W        W13086  18.380  34.742  12.669
40827W        W13087  26.056  17.275  13.873
40828W        W13088  22.186  27.496  13.738
40829W        W13089  33.337  25.382  11.578
40830W        W13090  31.512   3.639   4.521
40831W        W13091  44.201  13.709  13.756
40832W        W13092  26.971   0.243  12.606
40833W        W13093  26.521  25.785   4.405
40834W        W13094   1.727  20.733  11.623
40835W        W13095   5.685  20.179   4.416
40836W        W13096  21.735  18.684  14.358
40837W        W13097   6.041  31.087  11.656
40838W        W13098  29.259   2.054   2.794
40839W        W13099  29.464   0.852  10.698
40840W        W13100  39.949  41.204   4.162
40841W        W13101  21.823   2.817  13.817
40842W        W13102  29.294  20.678   4.637
40843W        W13103   3.922  27.957   3.668
40844W        W13104  16.306  13.167  11.555
40845W        W13105  42.287  42.942  11.961
40846W        W13106  40.839  16.217   2.975
40847W        W13107  44.441  44.912  13.803
40848W        W13108  42.341  25.975  12.691
40849W        W13109   6.671   0.742   3.886
40850W        W13110  40.841  37.385  11.546
40851W        W13111  28.993  38.508  12.278
40852W        W13112  41.292   8.884   2.327
40853W        W13113  16.622  10.723  14.149
40854W        W13114  42.321   7.893   4.325
40855W        W13115  35.043  27.680  12.985
40856W        W13116  32.192  24.122   5.027
40857W        W13117  42.393  22.695   1.332
40858W        W13118  29.941   5.690   0.776
40859W        W13119  17.643  12.432   3.211
40860W        W13120   6.835  30.769   3.168
40861W        W13121   3.606  10.630  11.962
40862W        W13122  26.928  23.727   4.429
40863W        W13123  21.237  33.273  13.565
40864W        W13124  39.031   1.277  10.973
40865W        W13125  10.659  34.530  12.315
40866W        W13126  40.437   6.690   3.765
40867W        W13127  43.882  19.724   1.866
40868W        W13128  33.179  38.084   4.147
40869W        W13129  21.090  19.450   4.703
40870W        W13130  36.605   4.915   2.903
40871W        W13131  34.798   1.244  12.042
40872W        W13132  39.943  21.971  11.217
40873W        W13133   9.250  42.976   4.645
40874W        W13134  42.172  32.035  14.072
40875W        W13135   3.264   9.152   1.448
40876W        W13136  28.097  39.065   3.795
40877W        W13137   0.914  13.596  12.891
40878W        W13138   6.754  39.841  14.927
40879W        W13139  19.028   2.017  11.960
40880W        W13140  19.996   4.101  10.867
40881W        W13141   7.336  28.931   1.189
40882W        W13142   7.931  33.634  10.738
40883W        W13143   1.763  14.120  11.603
40884W        W13144  32.869  30.013  12.821
40885W        W13145   3.184  41.449  14.114
40886W        W13146  29.995  21.380   1.433
40887W        W13147  25.478  31.017   2.422
40888W        W13148  31.057   7.115   0.750
40889W        W13149   3.348  42.606  12.467
40890W        W13150  30.783  36.895  11.894
40891W        W13151  26.525  10.595  13.857
40892W        W13152  11.411   5.151  12.633
40893W        W13153   7.756   9.708   4.060
40894W        W13154  10.277  39.795   1.361
40895W        W13155  42.529   9.329   1.726
40896W        W13156  32.765  37.529  14.462
40897W        W13157  15.033  22.793  11.448
40898W        W13158  42.875  11.480  10.487
40899W        W13159  33.887  25.697   3.206
40900W        W13160   6.554  32.816   3.600
40901W        W13161   5.133  28.131  11.060
40902W        W13162   4.472  15.332   3.839
40903W        W13163   4.246  22.875  13.769
40904W        W13164   2.983  20.034   0.417
40905W        W13165  13.759  21.970   0.215
40906W        W13166  30.871  44.076  11.127
40907W        W13167  21.705  21.747  11.540
40908W        W13168  33.036  30.474  13.047
40909W        W13169  20.739  36.321   2.442
40910W        W13170  24.555  17.574   2.498
40911W        W13171  37.630  16.113   3.243
40912W        W13172  38.516   2.582  10.784
40913W        W13173  34.518  40.364  11.497
40914W        W13174  26.952  33.883  13.479
40915W        W13175   3.923  24.122   1.933
40916W        W13176  25.953  32.022   0.443
40917W        W13177  18.392  41.231  10.517
40918W        W13178   8.616  36.805  12.781
40919W        W13179   7.294  26.141   1.240
40920W        W13180   1.381   1.619  10.489
40921W        W13181  28.894   0.719  11.903
40922W        W13182  31.938  35.301   2.194
40923W        W13183   5.407  39.769   3.662
40924W        W13184   7.169   4.306  14.670
40925W        W13185  42.549   8.434  12.845
40926W        W13186  37.730  18.639   4.308
40927W        W13187   4.250  37.599   3.655
40928W        W13188   4.777  37.343  11.892
40929W        W13189   8.264  20.622  11.270
40930W        W13190  41.034  41.026  11.624
40931W        W13191  17.559  39.676  12.918
40932W        W13192  30.557  24.133   1.401
40933W        W13193  12.412  15.778  13.852
40934W        W13194   7.589  14.691  14.859
40935W        W13195  33.151  24.645  12.979
40936W        W13196  43.724   5.232  14.959
40937W        W13197  22.200  30.505  12.195
40938W        W13198   0.724   5.204   3.408
40939W        W13199  44.796  26.340   1.901
40940W        W13200   0.224  21.647   2.158
40941W        W13201  42.186  35.357  12.483
40942W        W13202  30.011   4.753  12.069
40943W        W13203   7.448  17.027   5.025
40944W        W13204  33.470  33.855   3.644
40945W        W13205  13.839  14.655   2.160
40946W        W13206   3.899  38.959  11.102
40947W        W13207  20.607  31.515  12.514
40948W        W13208  20.283  40.821   4.230
40949W        W13209  20.051  11.353   4.231
40950W        W13210  23.081  33.787  13.008
40951W        W13211   1.449  10.464   1.915
40952W        W13212  16.503  27.534  14.488
40953W        W13213  14.587   8.282   1.709
40954W        W13214  17.428   6.968   5.034
40955W        W13215  36.911  36.464   4.611
40956W        W13216   5.728  37.833  12.532
40957W        W13217   2.851   5.328   1.223
40958W        W13218  37.036  36.362   1.702
40959W        W13219  30.896  12.553  14.452
40960W        W13220  43.250  19.637   1.377
40961W        W13221  35.838   4.041  11.792
40962W        W13222  28.477  38.078   3.258
40963W        W13223  31.122  21.601   1.815
40964W        W13224  41.579   5.711   2.271
40965W        W13225  16.646  22.563   4.272
40966W        W13226  40.131  36.459   1.415
40967W        W13227  31.217  11.586  14.470
40968W        W13228  31.602  28.677  12.686
40969W        W13229  41.056  42.788   1.002
40970W        W13230   4.638  43.286   9.990
40971W        W13231  21.028   7.214  14.021
40972W        W13232  36.784   1.831  13.339
40973W        W13233   0.040  30.031  14.480
40974W        W13234  25.107  43.995  14.537
40975W        W13235  40.241   2.720   4.661
40976W        W13236  20.702   3.247   4.196
40977W        W13237   0.729  22.740  12.456
40978W        W13238   7.624  16.671   1.192
40979W        W13239   9.963  19.828   4.588
40980W        W13240  17.652  42.681   4.903
40981W        W13241  42.189  36.341   2.249
40982W        W13242  28.964  28.040   1.997
40983W        W13243   1.514  15.783   5.095
40984W        W13244  39.022  10.765  12.884
40985W        W13245   5.446   1.939   4.034
40986W        W13246  13.538  29.163   1.035
40987W        W13247  41.578   2.956   3.229
40988W        W13248   8.595   2.975  14.594
40989W        W13249  26.480   6.741  10.952
40990W        W13250   3.993  12.134  12.805
40991W        W13251   2.231  13.720   3.363
40992W        W13252   1.120  16.730  14.182
40993W        W13253  20.479  24.522  12.032
40994W        W13254  27.575  39.277  14.863
40995W        W13255  23.609  10.080   5.038
40996W        W13256  42.497  19.505   0.567
40997W        W13257  37.896   0.208   3.612
40998W        W13258  15.619  28.342  11.995
40999W        W13259  12.659  36.802   3.208
41000W        W13260  44.906   0.404   0.484
41001W        W13261  38.511   5.000   0.876
41002W        W13262   8.871  13.388   4.550
41003W        W13263  10.705  16.974   4.738
41004W        W13264   5.323  20.658   0.187
41005W        W13265  44.321  27.905  11.809
41006W        W13266  35.040  34.435   2.236
41007W        W13267  35.804   3.763   4.718
41008W        W13268  36.893  30.591  14.506
41009W        W13269  22.000  19.357  14.164
41010W        W13270  43.250  28.577  10.734
41011W        W13271  39.485   8.391   1.438
41012W        W13272  43.842   3.364  10.380
41013W        W13273  17.161  31.218   4.363
41014W        W13274  21.213  26.124   0.238
41015W        W13275   3.236  13.544   1.866
41016W        W13276  37.533  19.987  10.687
41017W        W13277  11.618  35.719  11.221
41018W        W13278   9.654  10.468  11.724
41019W        W13279  14.377  30.665  12.964
41020W        W13280  19.050  44.792  12.591
41021W        W13281  26.034  24.614   3.035
41022W        W13282  37.477  38.630  14.464
41023W        W13283   4.176  11.785   0.002
41024W        W13284  33.690  33.266  13.730
41025W        W13285  41.273  21.892  11.538
41026W        W13286  16.299   1.706   3.190
41027W        W13287  42.303  28.560   3.089
41028W        W13288  20.571  35.458  12.520
41029W        W13289  17.675  14.564   0.352
41030W        W13290  34.516  43.954  13.629
41031W        W13291  25.674  22.199   1.738
41032W        W13292  14.897  37.447   4.573
41033W        W13293   1.959  19.550  12.920
41034W        W13294  36.504  24.985  13.782
41035W        W13295   6.006  24.525   4.203
41036W        W13296  16.999  37.447   0.869
41037W        W13297  44.012  17.198  13.099
41038W        W13298   4.622  31.189   0.438
41039W        W13299   1.046  26.699  11.137
41040W        W13300  10.702  12.329   4.321
41041W        W13301  31.975  11.849   2.819
41042W        W13302  44.953  42.364  14.014
41043W        W13303   7.930   7.660  11.675
41044W        W13304  15.218  12.818   0.638
41045W        W13305  10.876  13.606   4.837
41046W        W13306  12.640  14.658  13.391
41047W        W13307   4.412   8.415  14.459
41048W        W13308  17.837   1.292   3.151
41049W        W13309   0.523  16.027  12.859
41050W        W13310  13.353   6.403  12.925
41051W        W13311  35.107  13.606  10.682
41052W        W13312  13.821  19.212   3.849
41053W        W13313   8.251  12.821   4.892
41054W        W13314  41.345  32.962  14.604
41055W        W13315  29.592  11.249   4.606
41056W        W13316  26.141  29.439  11.202
41057W        W13317   1.025   5.632  14.432
41058W        W13318   6.136  39.272   2.738
41059W        W13319  32.948  44.341  12.526
41060W        W13320  39.048   6.720   0.685
41061W        W13321  18.574  13.815   4.604
41062W        W13322  38.830  11.760  11.085
41063W        W13323   2.709   5.798   3.683
41064W        W13324  18.820  35.882  11.925
41065W        W13325   1.305  42.015  10.573
41066W        W13326  22.927  22.514  11.441
41067W        W13327  33.971   3.949   1.995
41068W        W13328  20.248  17.268   1.893
41069W        W13329  40.020  24.603   2.181
41070W        W13330   9.843  31.850   2.377
41071W        W13331  34.117  41.360  12.628
41072W        W13332  22.591  13.374   0.404
41073W        W13333  34.106   0.339  13.942
41074W        W13334   5.265  10.304  10.381
41075W        W13335  43.369  15.229   0.921
41076W        W13336   1.739  38.575   3.673
41077W        W13337  42.254  34.054  11.628
41078W        W13338  22.790  32.105   3.723
41079W        W13339  29.207  38.641   1.337
41080W        W13340  27.466  10.442   4.464
41081W        W13341  25.531  10.945  13.985
41082W        W13342   3.963   3.707  13.536
41083W        W13343  40.431   5.333   4.838
41084W        W13344   9.226  23.038  14.528
41085W        W13345  32.854   9.721   0.331
41086W        W13346  30.627  22.107  10.827
41087W        W13347  11.484  17.379   1.431
41088W        W13348  33.410  24.035   0.523
41089W        W13349  21.785  22.299   5.029
41090W        W13350   5.164   4.771  14.926
41091W        W13351   0.345   7.663   3.948
41092W        W13352  22.908  26.852  13.113
41093W        W13353  15.064  22.327   2.735
41094W        W13354  26.393  32.591  12.955
41095W        W13355  35.165  18.717  13.577
41096W        W13356  22.093   6.293  12.145
41097W        W13357  24.649   8.369   3.688
41098W        W13358   0.176  12.225   1.850
41099W        W13359  26.160  13.898   0.098
41100W        W13360   1.802  38.317   0.323
41101W        W13361  40.587  25.249  14.116
41102W        W13362  25.979  15.332  11.014
41103W        W13363  40.511  22.688  12.784
41104W        W13364  13.094  26.886   4.215
41105W        W13365   9.881  10.240   1.845
41106W        W13366  19.099   0.830  13.376
41107W        W13367  28.990  32.794  10.721
41108W        W13368  18.751  28.410  13.889
41109W        W13369  30.622  25.046   1.363
41110W        W13370  24.693  38.688  11.623
41111W        W13371   8.828  11.610   0.279
41112W        W13372  35.326  33.890   0.931
41113W        W13373  21.088  39.401  11.564
41114W        W13374   4.845  34.290  13.052
41115W        W13375  28.895  32.589   3.316
41116W        W13376  19.633  38.800  14.798
41117W        W13377   8.184   8.724   1.716
41118W        W13378  38.821   3.958   3.335
41119W        W13379  21.482  20.048  14.277
41120W        W13380  19.038  13.855  11.551
41121W        W13381   8.166   0.393  11.625
41122W        W13382  44.807   8.249  11.233
41123W        W13383  31.542   1.488   0.831
41124W        W13384  12.605  40.216  12.403
41125W        W13385   6.866   5.458   2.306
41126W        W13386  37.916  38.491   2.844
41127W        W13387   8.420  19.058   1.392
41128W        W13388   0.282  39.304  12.950
41129W        W13389  29.718  13.248   0.290
41130W        W13390  31.982  23.394   2.187
41131W        W13391   6.777  23.723   4.129
41132W        W13392  12.063  29.700   4.970
41133W        W13393  10.529  22.781  14.619
41134W        W13394   4.224  37.268   1.872
41135W        W13395  19.616   1.468  14.914
41136W        W13396  10.728  16.434   2.822
41137W        W13397  12.842  42.493  13.556
41138W        W13398  41.795  34.864  11.149
41139W        W13399  33.062   2.817  10.719
41140W        W13400  40.408  40.472  12.948
41141W        W13401  21.125   9.762   1.329
41142W        W13402  27.895  40.354   0.870
41143W        W13403  14.081   1.114   5.040
41144W        W13404  44.972  34.319  11.876
41145W        W13405  34.898  21.777  10.893
41146W        W13406  30.252  17.686   0.402
41147W        W13407  13.482  30.961   5.568
41148W        W13408  23.946  24.182  11.864
41149W        W13409  42.923   6.248  13.979
41150W        W13410  28.002  37.976   4.538
41151W        W13411  15.650  35.541  13.415
41152W        W13412  11.893   4.607   2.633
41153W        W13413  30.981  23.705  12.064
41154W        W13414  44.556  17.551  12.619
41155W        W13415  22.264  24.984   1.428
41156W        W13416  15.739  16.258   4.662
41157W        W13417  12.652  26.909   0.848
41158W        W13418  28.093  39.298   0.706
41159W        W13419  29.508  28.207  13.753
41160W        W13420  19.432  17.631   1.868
41161W        W13421  23.006  17.109  12.139
41162W        W13422   7.368   8.262  14.643
41163W        W13423  38.632   2.456  13.451
41164W        W13424  43.972   9.798  13.511
41165W        W13425  10.806  33.943   3.557
41166W        W13426  25.184  32.729  12.356
41167W        W13427  33.033  27.182  13.005
41168W        W13428  23.281  11.845  14.468
41169W        W13429  23.735  26.639  12.078
41170W        W13430  10.683  10.003   4.074
41171W        W13431  33.736  25.236  11.011
41172W        W13432  31.468  37.308  10.356
41173W        W13433   9.711  43.844  13.369
41174W        W13434  40.451  38.264  13.374
41175W        W13435   5.619   2.184  12.074
41176W        W13436  38.028  38.964  12.899
41177W        W13437  25.372  43.393   4.195
41178W        W13438  26.536  13.112   2.199
41179W        W13439  30.224  41.647  12.015
41180W        W13440  28.110  20.217   2.626
41181W        W13441  28.397  30.170   3.110
41182W        W13442  36.577  22.810   1.474
41183W        W13443  28.618  22.836   0.780
41184W        W13444  30.472  34.536   1.986
41185W        W13445  21.216  23.302  12.375
41186W        W13446  13.694  29.088   3.296
41187W        W13447   3.826  19.127  14.530
41188W        W13448  11.591   4.701  11.222
41189W        W13449  28.295  11.579  12.599
41190W        W13450  19.913   9.858   3.685
41191W        W13451  14.027   5.192  13.978
41192W        W13452  35.795  44.416  11.911
41193W        W13453  21.218  31.169  11.523
41194W        W13454   5.259  40.996  14.882
41195W        W13455  23.665  18.567   3.946
41196W        W13456   6.213   2.216  10.701
41197W        W13457  38.476  39.272   4.242
41198W        W13458  31.864  16.647   3.486
41199W        W13459  31.893  26.656  10.896
41200W        W13460   5.719  32.926   0.842
41201W        W13461  20.041  27.554   2.922
41202W        W13462  41.120  22.512  11.024
41203W        W13463   0.901  40.112  14.093
41204W        W13464  44.995  16.192  13.994
41205W        W13465   1.379  23.645  11.901
41206W        W13466  31.898  30.484  11.610
41207W        W13467  33.333  16.710   3.253
41208W        W13468   9.662  33.887  13.820
41209W        W13469  15.584  44.736  14.869
41210W        W13470  11.767  39.892   0.569
41211W        W13471  27.242  41.801   0.550
41212W        W13472   3.940   0.548   4.176
41213W        W13473  10.249  13.601  13.295
41214W        W13474  33.312   3.428   3.189
41215W        W13475   7.481   4.041  13.752
41216W        W13476  38.118  19.058  12.692
41217W        W13477  37.975   7.943   1.139
41218W        W13478  38.370  35.781  13.252
41219W        W13479  29.578  38.267   1.813
41220W        W13480  28.628  44.726   3.635
41221W        W13481  15.984  43.200   1.380
41222W        W13482  15.044  19.688   1.751
41223W        W13483  20.952  31.842  13.866
41224W        W13484  19.121  36.904  14.025
41225W        W13485   2.740  37.263  11.985
41226W        W13486  29.465   1.468  11.436
41227W        W13487  20.749  26.730   0.054
41228W        W13488  19.756   8.738  13.245
41229W        W13489  37.559  30.682   3.139
41230W        W13490  43.300  39.974   4.601
41231W        W13491  39.431   2.069  12.712
41232W        W13492  14.414  31.661   3.411
41233W        W13493   4.674  32.574  11.946
41234W        W13494  31.001  22.090   4.613
41235W        W13495  42.842  43.221  13.854
41236W        W13496  39.927   2.655   0.015
41237W        W13497  15.784  20.888   4.841
41238W        W13498  12.832  23.617  12.061
41239W        W13499  21.053  44.080  14.486
41240W        W13500  25.943   8.351  13.957
41241W        W13501  11.277  44.982  10.421
41242W        W13502  14.943   5.736   0.038
41243W        W13503  43.567  30.013   3.163
41244W        W13504  20.748  32.001  13.346
41245W        W13505  35.132  41.648   1.160
41246W        W13506  21.467   6.359  13.452
41247W        W13507  27.431  28.440  11.908
41248W        W13508  17.089  44.879   3.566
41249W        W13509   0.552  31.443  11.759
41250W        W13510  19.156   5.250   1.347
41251W        W13511  31.127  16.701   0.315
41252W        W13512   3.661  37.537  11.088
41253W        W13513  11.585  25.099  10.809
41254W        W13514  25.446  29.952  11.943
41255W        W13515   1.794  21.540   3.274
41256W        W13516  30.497  25.457  14.317
41257W        W13517  17.124   9.058   2.791
41258W        W13518  14.826  35.765   2.424
41259W        W13519  24.827  35.470  11.981
41260W        W13520  21.607  24.748   1.719
41261W        W13521  41.939  26.438  14.501
41262W        W13522  41.229  14.483   3.076
41263W        W13523  35.589  43.754   4.261
41264W        W13524   4.537   4.963  14.428
41265W        W13525  17.275   8.349   3.209
41266W        W13526  23.280  27.094   4.237
41267W        W13527  13.506  13.771  12.850
41268W        W13528   7.981  36.544  14.065
41269W        W13529   2.336   6.351  11.447
41270W        W13530  38.885  40.527  11.580
41271W        W13531  34.097  27.199   3.598
41272W        W13532   7.939   6.342  11.911
41273W        W13533  15.726  38.050   1.500
41274W        W13534  33.832  33.548   3.175
41275W        W13535  26.593  22.826  11.505
41276W        W13536  12.820  19.682   2.146
41277W        W13537  42.416   4.225   2.901
41278W        W13538  37.558   9.245   3.125
41279W        W13539  42.678   4.907   4.114
41280W        W13540  32.090   8.785  10.639
41281W        W13541  34.039  33.605   2.717
41282W        W13542  15.390   1.910  11.686
41283W        W13543  31.537  43.682   3.674
41284W        W13544  16.304   7.308   3.309
41285W        W13545  35.099  34.372  13.833
41286W        W13546  44.801  40.930   4.527
41287W        W13547   2.764  24.364  11.168
41288W        W13548  17.719  24.657  14.965
41289W        W13549  30.852  22.588   4.502
41290W        W13550  41.276  19.216  11.520
41291W        W13551  40.106  36.365  13.567
41292W        W13552  11.706   0.082   1.215
41293W        W13553   3.365   2.351  14.165
41294W        W13554  13.357  26.189   3.202
41295W        W13555  30.736   5.329  11.970
41296W        W13556  37.369  13.057   2.766
41297W        W13557  38.977  31.880   3.349
41298W        W13558  12.801   0.172   1.148
41299W        W13559  29.058  24.879   2.271
41300W        W13560  31.132  11.585   0.968
41301W        W13561  44.773  31.934  11.504
41302W        W13562  19.378  24.341   0.322
41303W        W13563  10.121  35.594   0.773
41304W        W13564  29.577  33.369   3.200
41305W        W13565  32.480  16.209  11.851
41306W        W13566  27.526  27.391   1.233
41307W        W13567   3.252   7.445  14.994
41308W        W13568  44.740   7.221  11.123
41309W        W13569  27.417  37.929   0.536
41310W        W13570  30.607  22.688   2.373
41311W        W13571   9.318  44.660   3.279
41312W        W13572  20.033  16.767   2.719
41313W        W13573  31.172  20.745  10.630
41314W        W13574  15.944  26.020  14.859
41315W        W13575  40.262  11.712  13.504
41316W        W13576  31.543  40.507  14.434
41317W        W13577  36.528  30.574  10.558
41318W        W13578  30.673  35.142   1.376
41319W        W13579  13.672   8.843  11.854
41320W        W13580  37.626  28.008   4.121
41321W        W13581   8.149  11.139   4.291
41322W        W13582  43.345  24.243  12.588
41323W        W13583  27.491   7.788  13.476
41324W        W13584  32.152  17.304   4.721
41325W        W13585  18.988  39.619  11.543
41326W        W13586  19.306  32.854  13.634
41327W        W13587  23.662  30.928  11.871
41328W        W13588  22.739  10.906  13.078
41329W        W13589  41.246  23.163   0.234
41330W        W13590  38.024  39.575  13.546
41331W        W13591   9.182  37.733   0.757
41332W        W13592  10.790  25.555  10.647
41333W        W13593  33.145  22.691  12.965
41334W        W13594   6.115   5.836  13.415
41335W        W13595  10.948  32.962   3.918
41336W        W13596  30.683   9.796   4.629
41337W        W13597  34.084   2.917   1.206
41338W        W13598  33.393  41.320  14.893
41339W        W13599   7.737  36.638  10.770
41340W        W13600  39.602   2.537  12.581
41341W        W13601  29.041  37.794   0.548
41342W        W13602  43.299  22.768   1.356
41343W        W13603  27.149  11.177   0.859
41344W        W13604  33.442   7.785   0.469
41345W        W13605  18.043  34.877  11.497
41346W        W13606  40.446  26.154  10.546
41347W        W13607   0.004   9.172  14.892
41348W        W13608  22.068  35.072   2.751
41349W        W13609   7.318  22.289  13.441
41350W        W13610  28.642  31.455  13.306
41351W        W13611  29.215  13.379   0.127
41352W        W13612   9.418  14.037   0.825
41353W        W13613  24.575  11.532  14.098
41354W        W13614  24.889  25.192  14.004
41355W        W13615  11.879  23.056   3.379
41356W        W13616  16.941  44.969  14.809
41357W        W13617   1.454  39.919   1.289
41358W        W13618   7.459  17.568  12.110
41359W        W13619  27.196  32.005  12.432
41360W        W13620  27.630  32.036   3.293
41361W        W13621   0.434  34.514  13.593
41362W        W13622  18.244   0.003   4.483
41363W        W13623  27.405  14.729   0.441
41364W        W13624  11.526  18.133   0.325
41365W        W13625  42.275   8.266   0.281
41366W        W13626  32.691  35.349  14.322
41367W        W13627  32.032  32.377   3.609
41368W        W13628  12.897  32.510   0.578
41369W        W13629   8.702  28.228  10.566
41370W        W13630  11.560  25.668   4.216
41371W        W13631  44.117  20.692   1.961
41372W        W13632  31.913  36.759   2.208
41373W        W13633   9.456  11.218  12.387
41374W        W13634  35.880  17.215   1.818
41375W        W13635  17.866  23.275   4.439
41376W        W13636   1.418  11.708  10.696
41377W        W13637  37.513  43.473   3.536
41378W        W13638  32.344  40.860  13.383
41379W        W13639   2.902  28.009   2.476
41380W        W13640  15.941   0.694  11.999
41381W        W13641  31.418  30.662   2.464
41382W        W13642  29.031  35.631   4.594
41383W        W13643   8.773  20.546  13.409
41384W        W13644  13.542   5.998   3.146
41385W        W13645  44.910  20.254  10.698
41386W        W13646  37.471  33.787   3.633
41387W        W13647  28.384  41.720  12.376
41388W        W13648  37.562  19.756   2.108
41389W        W13649  23.608  11.204   1.967
41390W        W13650  11.296  29.386   3.193
41391W        W13651   6.662  34.859   1.118
41392W        W13652  44.213  42.540   3.766
41393W        W13653   6.407   3.471   0.323
41394W        W13654  37.086   9.311   2.889
41395W        W13655  26.395  22.212   2.076
41396W        W13656  38.557  14.649  13.299
41397W        W13657  43.505  41.032  10.682
41398W        W13658  24.509  27.661  13.959
41399W        W13659  22.537   0.800   3.740
41400W        W13660  27.003  19.719   2.394
41401W        W13661  40.860  37.806   0.872
41402W        W13662  34.528  32.374  14.453
41403W        W13663  37.480   9.771   0.542
41404W        W13664  32.896  39.466  10.690
41405W        W13665  17.003   0.782   4.237
41406W        W13666  30.270   3.822  11.934
41407W        W13667  12.734  29.518   1.744
41408W        W13668  34.965   8.174  12.471
41409W        W13669   8.753  28.377  12.991
41410W        W13670  21.116  28.470   3.576
41411W        W13671   2.961  31.037   0.952
41412W        W13672  35.543  20.578  11.152
41413W        W13673  40.217   9.126   1.954
41414W        W13674  42.389  17.498  11.095
41415W        W13675   1.923  13.148   1.103
41416W        W13676  19.330  43.791   3.813
41417W        W13677  40.847  38.460  11.099
41418W        W13678   4.937  23.961  13.879
41419W        W13679   3.803  41.863   3.260
41420W        W13680   3.323  33.114   0.524
41421W        W13681  10.239  23.760  13.557
41422W        W13682  31.792  35.342   0.769
41423W        W13683  23.918   5.012  11.183
41424W        W13684  24.425  10.336  10.691
41425W        W13685  29.482  32.661   4.215
41426W        W13686   6.395   2.891  12.550
41427W        W13687  19.351   8.384   5.547
41428W        W13688  15.720  26.714   1.430
41429W        W13689  27.198  39.609  14.941
41430W        W13690   0.435  22.613  10.670
41431W        W13691   3.722   0.616   3.255
41432W        W13692  24.648  36.959   1.775
41433W        W13693  11.240  34.799  14.743
41434W        W13694   4.344   5.219   1.568
41435W        W13695  12.580  33.048   1.322
41436W        W13696  16.226  40.902  14.036
41437W        W13697   6.230  25.476   9.896
41438W        W13698  34.416  31.531  14.005
41439W        W13699  43.722  11.462  13.401
41440W        W13700   0.502   4.841  14.960
41441W        W13701  15.140   4.386   1.200
41442W        W13702  25.509  31.091   3.866
41443W        W13703   7.211  30.681   4.252
41444W        W13704  26.147   6.084  13.453
41445W        W13705   7.964  30.344   2.784
41446W        W13706  26.219  43.113   3.154
41447W        W13707  38.407  28.483  11.654
41448W        W13708   6.641  16.642   0.339
41449W        W13709  23.965  14.134   0.776
41450W        W13710  14.729  42.299   0.683
41451W        W13711  29.944  29.175   4.172
41452W        W13712  40.129  30.516  14.733
41453W        W13713  27.349  20.502   0.217
41454W        W13714  41.439  11.700  14.968
41455W        W13715  44.908  37.359   3.947
41456W        W13716  39.330   6.003  13.057
41457W        W13717   0.697  16.389   1.518
41458W        W13718   4.835  18.508   2.827
41459W        W13719  39.846  42.432   0.005
41460W        W13720  20.532  30.077   4.083
41461W        W13721  24.190  34.339   2.537
41462W        W13722  27.305  39.519   2.369
41463W        W13723  36.971  23.944  14.052
41464W        W13724  10.289  25.211   2.239
41465W        W13725  18.590   1.844  12.186
41466W        W13726  25.754  32.197   0.904
41467W        W13727  14.875  18.209  12.921
41468W        W13728  42.010  22.195   2.514
41469W        W13729   7.660  34.413  11.209
41470W        W13730  19.144  20.698   4.147
41471W        W13731  13.268  29.494  14.857
41472W        W13732  20.977  15.139  10.765
41473W        W13733  31.061  41.415   4.689
41474W        W13734   9.622  31.908  11.830
41475W        W13735  35.402  16.636   2.311
41476W        W13736  27.464  10.442  11.160
41477W        W13737  34.889   1.013   5.117
41478W        W13738  18.962   7.496  10.239
41479W        W13739  21.228   1.616  13.682
41480W        W13740  10.402   5.295   0.779
41481W        W13741   5.721  37.826   0.375
41482W        W13742  39.350  19.969  11.878
41483W        W13743  14.755  35.179   5.030
41484W        W13744  29.486  10.692   3.767
41485W        W13745  30.427   7.678  13.931
41486W        W13746  25.399  18.521  11.095
41487W        W13747  15.098  42.326  10.600
41488W        W13748  22.024  34.511  11.221
41489W        W13749  43.924  19.189   1.789
41490W        W13750  10.249  32.438  14.164
41491W        W13751   4.713   2.986   0.400
41492W        W13752   8.619  31.175  11.553
41493W        W13753  38.516   2.252  14.343
41494W        W13754   1.385  37.992   0.430
41495W        W13755  25.826  10.675  10.637
41496W        W13756  14.935  43.248   0.998
41497W        W13757  28.042  19.232  12.372
41498W        W13758  38.622  35.125   2.071
41499W        W13759  38.402  24.204  13.037
41500W        W13760  13.827  33.870  11.228
41501W        W13761  13.180  18.974  14.012
41502W        W13762  18.590  12.727  12.499
41503W        W13763  10.677   4.137  13.434
41504W        W13764  18.786  40.675   1.622
41505W        W13765   6.423   9.069  11.241
41506W        W13766  21.162  13.301   5.100
41507W        W13767  24.944  37.913  14.687
41508W        W13768  35.999   5.203   0.856
41509W        W13769  34.518   7.012   1.913
41510W        W13770  29.150  24.265  11.110
41511W        W13771  38.533  17.178   1.919
41512W        W13772  23.681   4.894  13.326
41513W        W13773  43.349  21.610   4.131
41514W        W13774  38.852  38.423   1.777
41515W        W13775   3.045  29.616  11.988
41516W        W13776  19.149  39.607  13.902
41517W        W13777  34.848   8.135   1.142
41518W        W13778  11.628   9.220   3.886
41519W        W13779   9.312   8.808   5.155
41520W        W13780  37.888  35.293  12.460
41521W        W13781   2.849   4.217  12.384
41522W        W13782  39.660  23.686   0.419
41523W        W13783   7.157  31.537  11.169
41524W        W13784  36.961  21.759  10.760
41525W        W13785  16.244  15.729   3.796
41526W        W13786  35.571  23.248  14.188
41527W        W13787  16.868  27.844  10.548
41528W        W13788  23.119  20.147   3.757
41529W        W13789  14.638  12.375   2.912
41530W        W13790   7.467  17.092  12.782
41531W        W13791  24.450   3.481   2.398
41532W        W13792  27.747  16.797  10.675
41533W        W13793  41.132  40.103   0.398
41534W        W13794  40.381  43.835  11.589
41535W        W13795  10.785  31.817  14.776
41536W        W13796  20.584  30.396   2.662
41537W        W13797  30.389   8.584  14.006
41538W        W13798  37.670  41.296   2.428
41539W        W13799  16.629  13.476  11.259
41540W        W13800   5.892  35.402  13.919
41541W        W13801  42.344   4.479  13.098
41542W        W13802  40.456   8.330  11.041
41543W        W13803  17.520  13.071   2.818
41544W        W13804  10.864  29.186   1.380
41545W        W13805  42.357  16.829   0.459
41546W        W13806  38.139  41.973  10.763
41547W        W13807   3.193  24.658  11.117
41548W        W13808  21.129  19.390   2.809
41549W        W13809  33.989  44.493  12.585
41550W        W13810  20.117  10.255  14.837
41551W        W13811  43.559   5.971   2.083
41552W        W13812  13.664   9.586   0.672
41553W        W13813  38.920  14.493   9.761
41554W        W13814  39.961  32.449   0.074
41555W        W13815  12.331  30.472   2.869
41556W        W13816  35.416   7.204   2.949
41557W        W13817   1.963  26.686  14.861
41558W        W13818  34.804  24.255  13.025
41559W        W13819  19.776  21.639   0.092
41560W        W13820  14.593  24.285  11.142
41561W        W13821  35.463  10.209  13.151
41562W        W13822  21.609  42.803   3.586
41563W        W13823   6.728  22.458  10.969
41564W        W13824  23.736   3.705   1.311
41565W        W13825   6.861  35.576  13.573
41566W        W13826  44.392  25.640  12.156
41567W        W13827   3.974   6.658   4.565
41568W        W13828  43.497  13.895  14.410
41569W        W13829  26.686   9.326   4.384
41570W        W13830  33.880  24.165   1.409
41571W        W13831  23.418  31.089  12.543
41572W        W13832   8.247  29.335  14.825
41573W        W13833  31.392  36.418   3.208
41574W        W13834  10.379  38.496   3.261
41575W        W13835  27.656  34.315   2.251
41576W        W13836  22.243   5.191   0.436
41577W        W13837  19.586  31.343  12.000
41578W        W13838  42.388   9.894  14.167
41579W        W13839  34.135  25.461  14.455
41580W        W13840  25.573   1.683  10.120
41581W        W13841   8.135  13.730   1.670
41582W        W13842  17.408  31.595   2.428
41583W        W13843  25.296  11.429   2.384
41584W        W13844   8.221  17.717   4.599
41585W        W13845  19.784  20.790  12.466
41586W        W13846  15.138   5.361   1.700
41587W        W13847  29.033  19.791  11.917
41588W        W13848   0.737   9.876  11.099
41589W        W13849  34.430   1.071   1.850
41590W        W13850  31.597  33.446   4.663
41591W        W13851  25.287  35.634  12.866
41592W        W13852  25.429  19.602   4.120
41593W        W13853  33.529  27.085  11.193
41594W        W13854  33.025  43.954  10.680
41595W        W13855  10.784   3.339  11.546
41596W        W13856  10.227  12.079   4.269
41597W        W13857  44.207  41.810   2.421
41598W        W13858  21.124   7.424  14.537
41599W        W13859  44.266  36.088   9.634
41600W        W13860   5.297  33.039  14.899
41601W        W13861   4.924  17.983  10.517
41602W        W13862  23.167   3.004  13.950
41603W        W13863  39.493  38.418  13.296
41604W        W13864  15.572  10.558  11.411
41605W        W13865  19.657  26.415  14.341
41606W        W13866  40.230  38.940   3.199
41607W        W13867  16.239  11.280  13.800
41608W        W13868  35.011  19.718  14.995
41609W        W13869  30.548   7.484   4.771
41610W        W13870  13.324   6.709   3.036
41611W        W13871  25.376  17.715   1.950
41612W        W13872  19.725  37.478  10.704
41613W        W13873  44.867  28.107  14.691
41614W        W13874  35.035   8.604   2.450
41615W        W13875  43.042  30.116   3.204
41616W        W13876   7.734  10.079  11.562
41617W        W13877  27.466   5.501   1.864
41618W        W13878  10.083  30.681  14.432
41619W        W13879  22.037   9.453   0.359
41620W        W13880  20.273  25.698  14.237
41621W        W13881   2.026  30.077  14.524
41622W        W13882   7.161  38.357   3.094
41623W        W13883   0.035  11.306   0.826
41624W        W13884  32.465  17.065   0.309
41625W        W13885  24.204   5.729   4.827
41626W        W13886   9.345  34.314  13.960
41627W        W13887  24.122  20.973  14.672
41628W        W13888  41.315   7.501  14.821
41629W        W13889   3.389  43.776  13.428
41630W        W13890  35.796  16.344   1.633
41631W        W13891  29.099  22.500   2.987
41632W        W13892   0.842  14.532  10.527
41633W        W13893  11.572  14.837   3.352
41634W        W13894  31.472   3.533  11.620
41635W        W13895  39.127  26.390   2.042
41636W        W13896   0.785  33.066   0.758
41637W        W13897  11.316   1.788   1.404
41638W        W13898  44.245  44.771   4.600
41639W        W13899  14.636  44.238  14.979
41640W        W13900  41.799  27.665  13.686
41641W        W13901  22.031   3.896  10.765
41642W        W13902   9.632  25.319   2.759
41643W        W13903   6.224  33.685  12.705
41644W        W13904  40.294  20.041  12.000
41645W        W13905  18.555  44.193   1.585
41646W        W13906  22.053  10.625   2.816
41647W        W13907   3.548  22.628  14.545
41648W        W13908   5.812  36.081  14.389
41649W        W13909   4.371  10.849  13.021
41650W        W13910  30.547  38.468   4.015
41651W        W13911   5.437  37.882  14.959
41652W        W13912  18.703  22.266  12.026
41653W        W13913   8.230  33.709   1.171
41654W        W13914  13.750  16.769  14.539
41655W        W13915   5.969   1.329   0.857
41656W        W13916  31.514   8.224   4.502
41657W        W13917  44.875  37.589   2.443
41658W        W13918   7.877  16.323  12.976
41659W        W13919  42.999  32.927   3.931
41660W        W13920  32.675  22.732   0.239
41661W        W13921  10.765  39.418  13.448
41662W        W13922  25.423   3.455  11.588
41663W        W13923  18.062  17.792  14.026
41664W        W13924   7.872   4.210  12.436
41665W        W13925  33.218  15.405   0.739
41666W        W13926  13.727   5.107   0.559
41667W        W13927  36.696   6.637   0.898
41668W        W13928  24.549  18.642  13.853
41669W        W13929   1.177  20.352   1.181
41670W        W13930  42.513  31.031   3.187
41671W        W13931  12.361  31.543   3.802
41672W        W13932  22.299   1.623   2.717
41673W        W13933   6.141   3.129   4.241
41674W        W13934  20.174  32.544  13.610
41675W        W13935  43.640  23.900   4.086
41676W        W13936  32.154  34.951   4.161
41677W        W13937  42.543   0.922   1.277
41678W        W13938  36.579   4.179  13.574
41679W        W13939  10.905  12.332   1.212
41680W        W13940   0.490  12.417   1.432
41681W        W13941  11.769  41.437   0.334
41682W        W13942  42.925  31.986   1.331
41683W        W13943  23.531   3.492  11.552
41684W        W13944  31.600  42.579   0.461
41685W        W13945  21.347   0.235   4.123
41686W        W13946  12.340  41.395  13.523
41687W        W13947  22.169  37.382  12.463
41688W        W13948  32.117   9.430   2.411
41689W        W13949  18.352  16.659  14.337
41690W        W13950   5.877  25.113   1.635
41691W        W13951  20.163  36.356   4.329
41692W        W13952   4.737  26.194   0.173
41693W        W13953  10.282   9.677   4.095
41694W        W13954   8.186  39.437   4.255
41695W        W13955  29.104  40.119  13.410
41696W        W13956   9.731  37.929  12.414
41697W        W13957   0.221  20.274  13.864
41698W        W13958  24.559  25.552  12.406
41699W        W13959  34.046  14.294  13.903
41700W        W13960  36.024   3.299   4.936
41701W        W13961  15.848  38.825   4.162
41702W        W13962   6.908   5.428  14.945
41703W        W13963  13.866   3.195   2.718
41704W        W13964  34.480  11.627  13.425
41705W        W13965  15.230  11.178   3.949
41706W        W13966  41.910  32.449  13.947
41707W        W13967  28.066  44.274  12.386
41708W        W13968  29.616  27.699   2.724
41709W        W13969   5.883  17.292  11.576
41710W        W13970  16.819   0.942  13.343
41711W        W13971  26.092  15.734  13.718
41712W        W13972  39.307   3.503  10.216
41713W        W13973  18.260  30.069  13.964
41714W        W13974  18.792  26.097   1.360
41715W        W13975  35.670  12.704  12.096
41716W        W13976  42.038  17.679   2.748
41717W        W13977   0.499  32.388   0.864
41718W        W13978   0.702  38.189  13.518
41719W        W13979  41.400  18.240   3.263
41720W        W13980   1.621  19.053  14.881
41721W        W13981  11.889  25.666  14.263
41722W        W13982  42.349  40.054   4.574
41723W        W13983  17.073  20.241  13.945
41724W        W13984  43.025  11.018   4.549
41725W        W13985  13.453  13.100   3.197
41726W        W13986  34.995  42.101  13.368
41727W        W13987   3.001  19.736  12.088
41728W        W13988  12.042   6.088   0.022
41729W        W13989   2.970  31.550  11.586
41730W        W13990   3.325  32.808  11.284
41731W        W13991  44.025  44.855   2.316
41732W        W13992  31.043  11.348  14.018
41733W        W13993  42.559  10.275  10.578
41734W        W13994  39.363   8.071   1.028
41735W        W13995  12.573  30.581  12.477
41736W        W13996  18.081  21.115  11.354
41737W        W13997  11.149   1.496   1.816
41738W        W13998  36.063  40.822  14.788
41739W        W13999  32.393   2.438  14.733
41740W        W14000   9.796  33.424  12.514
41741W        W14001   9.257  31.219  12.033
41742W        W14002  25.756   3.406   3.772
41743W        W14003  35.968   6.228   0.460
41744W        W14004   4.951  44.387  10.553
41745W        W14005  15.801  11.574   1.753
41746W        W14006  13.824   6.988   0.104
41747W        W14007  20.660  23.251   3.303
41748W        W14008  41.977  17.598   2.250
41749W        W14009   3.375  39.465   3.714
41750W        W14010  37.375   6.811  11.664
41751W        W14011  10.371  19.406  13.617
41752W        W14012  15.859  27.215   1.398
41753W        W14013  44.305   6.311   2.309
41754W        W14014  31.915   3.741   2.420
41755W        W14015  19.849  30.776  11.295
41756W        W14016  30.920  25.802   1.655
41757W        W14017   1.232  37.364  13.314
41758W        W14018   6.778   4.211   3.716
41759W        W14019  37.139   9.250   1.131
41760W        W14020   0.943  19.516  11.116
41761W        W14021  35.143  41.762  11.474
41762W        W14022  39.282  36.997   0.208
41763W        W14023   9.824  15.365   1.214
41764W        W14024  40.135   2.548   3.433
41765W        W14025  25.611  41.868  13.402
41766W        W14026  28.220  22.402  14.090
41767W        W14027  11.941   7.209   4.066
41768W        W14028  37.001  22.788  10.652
41769W        W14029  38.848  18.648  11.890
41770W        W14030  28.395  23.482   3.951
41771W        W14031  16.253  40.856   4.985
41772W        W14032  19.717   5.372   2.551
41773W        W14033  11.819  22.991   4.849
41774W        W14034   5.386   5.379   2.190
41775W        W14035   3.241  39.749   0.993
41776W        W14036  21.512  37.549  13.133
41777W        W14037  36.126  22.636   3.783
41778W        W14038  39.841   5.605   4.201
41779W        W14039  21.022  29.761   4.088
41780W        W14040  19.043  22.308  12.951
41781W        W14041  32.458  29.169   4.687
41782W        W14042  41.731  41.920   3.791
41783W        W14043  19.024   7.656  13.749
41784W        W14044   5.500  37.946  13.453
41785W        W14045  16.103   6.436   1.485
41786W        W14046   6.962  16.231   3.795
41787W        W14047  40.298   0.831   4.197
41788W        W14048   8.168  12.672   1.759
41789W        W14049  18.185   5.262  14.967
41790W        W14050  22.473  36.112  10.854
41791W        W14051  36.026  10.924   0.111
41792W        W14052  19.260  14.079   3.779
41793W        W14053  24.177  11.558  11.171
41794W        W14054  42.934  21.622  12.735
41795W        W14055   8.346  23.044  13.871
41796W        W14056  37.440   5.384  10.476
41797W        W14057  21.810   9.992   0.897
41798W        W14058  26.234   9.752  14.570
41799W        W14059  36.893   2.233   3.771
41800W        W14060   3.507  44.973  10.943
41801W        W14061   6.164  10.378   3.178
41802W        W14062  19.501  40.401  11.893
41803W        W14063  17.546  11.881  12.848
41804W        W14064  11.739  35.977  10.771
41805W        W14065  32.399   0.099  10.994
41806W        W14066  18.830   9.150   2.335
41807W        W14067  31.229   2.025  10.367
41808W        W14068  24.268  21.487   0.339
41809W        W14069  17.102  24.562  10.412
41810W        W14070  32.675  13.319   2.181
41811W        W14071  16.726   9.432  11.405
41812W        W14072  39.915  42.919   4.536
41813W        W14073  31.421  17.805  11.192
41814W        W14074  14.132  38.090   3.169
41815W        W14075  36.323  20.548   5.011
41816W        W14076  33.163   8.069   1.704
41817W        W14077  38.204  21.628  12.450
41818W        W14078  29.970  40.073   3.178
41819W        W14079   7.282  23.101   3.087
41820W        W14080  27.953   9.555  12.898
41821W        W14081  36.135  31.612   2.149
41822W        W14082  32.533  11.498  14.972
41823W        W14083   6.473   0.546  14.365
41824W        W14084  23.650  11.325  12.603
41825W        W14085  37.520   6.821  10.122
41826W        W14086  20.673  25.074   4.553
41827W        W14087   3.204  39.194   4.287
41828W        W14088  27.572   2.815   0.294
41829W        W14089  20.238   9.178  12.509
41830W        W14090  18.786   8.245  10.272
41831W        W14091  29.942  14.826  12.306
41832W        W14092  20.998  21.275   5.043
41833W        W14093  44.787  40.419  13.905
41834W        W14094  12.500  22.994  11.232
41835W        W14095  41.818  17.079  14.060
41836W        W14096  21.754  37.744   3.348
41837W        W14097  21.521  32.004   4.210
41838W        W14098  42.926   1.738  14.518
41839W        W14099  27.356  33.870   4.272
41840W        W14100  12.995  31.015   5.781
41841W        W14101  13.796  13.153   4.700
41842W        W14102   2.176   7.445  13.507
41843W        W14103   5.734  39.602   0.325
41844W        W14104   2.507  37.987   1.374
41845W        W14105  30.585   0.345  10.986
41846W        W14106  27.232  21.696  12.095
41847W        W14107  10.431  41.630   4.200
41848W        W14108  40.371  37.852   3.302
41849W        W14109  19.008  17.792   1.063
41850W        W14110   9.433   9.930   1.779
41851W        W14111  15.200  15.623  13.792
41852W        W14112  29.455   5.108  13.331
41853W        W14113  40.901  24.975  12.668
41854W        W14114  44.383  43.804  11.604
41855W        W14115  33.623  21.316   3.739
41856W        W14116  16.245  41.446   0.917
41857W        W14117  38.875  17.301  11.725
41858W        W14118  35.174  35.080  14.660
41859W        W14119  23.717   9.781   3.320
41860W        W14120  13.877  35.523   4.113
41861W        W14121  36.746  19.638  12.445
41862W        W14122   1.925  28.123   1.559
41863W        W14123  25.778  26.624  11.067
41864W        W14124  32.861   3.023  12.093
41865W        W14125  41.354   8.693   2.815
41866W        W14126   0.894  44.475   0.416
41867W        W14127  41.487  39.015   3.147
41868W        W14128   9.147  14.299   4.526
41869W        W14129  16.210   9.918   4.217
41870W        W14130   1.980  25.778  10.619
41871W        W14131   2.856  32.254   2.925
41872W        W14132  40.797   9.561  11.516
41873W        W14133  23.842  15.871   4.025
41874W        W14134  31.838  31.295   0.851
41875W        W14135  30.932  14.348  12.843
41876W        W14136   3.617   0.759  12.816
41877W        W14137   0.426  35.474   3.071
41878W        W14138   2.976  32.097   1.651
41879W        W14139  20.664   7.907  13.822
41880W        W14140  12.722  28.402  11.035
41881W        W14141   8.653  36.297   3.040
41882W        W14142  43.334   1.344  12.402
41883W        W14143  39.773  36.194  11.137
41884W        W14144  17.714   8.597   3.354
41885W        W14145  32.958  33.041   3.636
41886W        W14146   0.478  44.446   2.636
41887W        W14147   0.247  24.999  14.549
41888W        W14148   7.913  22.113   1.124
41889W        W14149  22.220  44.860   3.347
41890W        W14150  30.010  12.584  13.454
41891W        W14151  39.730  20.995  13.975
41892W        W14152  34.067  18.774  14.550
41893W        W14153   2.821   7.038   0.830
41894W        W14154  21.751  15.154   4.332
41895W        W14155   8.387   1.551  13.056
41896W        W14156  32.573  28.316   3.926
41897W        W14157  10.496   3.166   2.090
41898W        W14158  13.218  24.274   0.788
41899W        W14159  28.511   9.339  12.586
41900W        W14160  17.746   7.850   2.589
41901W        W14161  39.012  38.550   3.820
41902W        W14162   9.050   3.878   2.873
41903W        W14163  39.736  44.495   1.289
41904W        W14164  33.501  22.094  14.364
41905W        W14165  28.157   5.705  11.502
41906W        W14166   3.692  19.159   1.019
41907W        W14167  25.514   3.127  10.311
41908W        W14168  36.078  29.003   0.934
41909W        W14169   9.387  26.533   0.427
41910W        W14170  28.515   1.874   1.193
41911W        W14171  12.386  43.593  11.099
41912W        W14172  41.340  24.927  13.051
41913W        W14173   7.471  18.843  13.924
41914W        W14174  32.502  11.273   3.079
41915W        W14175  39.837  13.617  12.510
41916W        W14176   3.039   7.348   4.089
41917W        W14177  14.562  21.812   1.234
41918W        W14178  21.478   8.818   3.956
41919W        W14179  43.230  30.471  11.055
41920W        W14180  41.012  43.686   3.758
41921W        W14181  27.899  12.176  13.511
41922W        W14182  24.162  16.763  11.612
41923W        W14183  39.483   3.150   1.722
41924W        W14184  18.707   8.365  14.610
41925W        W14185  44.831  14.015   0.883
41926W        W14186  39.001  25.553   2.343
41927W        W14187  27.636  24.797  11.452
41928W        W14188  27.344  16.665   2.344
41929W        W14189  40.023  20.412   4.596
41930W        W14190   4.596   5.990   3.199
41931W        W14191  18.481   3.983  14.404
41932W        W14192  22.712  37.449   3.332
41933W        W14193  25.686  26.936  13.559
41934W        W14194  10.764  32.566   3.626
41935W        W14195   5.762  17.318   2.774
41936W        W14196  43.988  10.280  13.267
41937W        W14197   8.675  11.225   0.905
41938W        W14198  32.460  32.822   0.112
41939W        W14199  18.338  10.184  14.417
41940W        W14200  27.175  29.350  13.998
41941W        W14201  20.003   6.708  13.528
41942W        W14202   4.826  39.895   1.733
41943W        W14203  43.898  32.534   3.066
41944W        W14204  19.313  44.579   4.467
41945W        W14205   8.945   9.588  12.419
41946W        W14206  12.164   3.846   4.924
41947W        W14207  16.187  32.352   2.876
41948W        W14208  34.616  18.121  14.837
41949W        W14209  35.462  39.007   2.641
41950W        W14210   4.250  18.031   0.886
41951W        W14211   9.939  12.778  10.776
41952W        W14212  20.856  44.494   1.102
41953W        W14213   6.261   1.857  11.548
41954W        W14214  28.461  43.967  14.305
41955W        W14215  35.735   4.375  12.376
41956W        W14216   0.169  28.635  12.354
41957W        W14217  13.893  32.506   0.738
41958W        W14218  27.556  16.071  14.871
41959W        W14219  38.103  33.878   2.873
41960W        W14220  20.942   9.457  13.013
41961W        W14221  43.854  19.460   4.547
41962W        W14222  31.606  25.678  12.499
41963W        W14223   6.171  43.000  12.828
41964W        W14224  14.722  41.674   4.119
41965W        W14225  13.023  33.280  12.106
41966W        W14226  15.731  22.036   3.150
41967W        W14227  38.539  10.599  12.960
41968W        W14228  10.675  19.179   4.574
41969W        W14229  12.283  19.283  14.457
41970W        W14230  29.135   5.829   4.806
41971W        W14231  20.627   6.805  10.780
41972W        W14232  44.370  14.687   3.907
41973W        W14233  36.966  15.388   0.671
41974W        W14234   4.455  30.713  13.912
41975W        W14235  29.102   5.289   5.008
41976W        W14236   1.686   8.854  13.012
41977W        W14237  20.299   9.371   2.252
41978W        W14238  19.231  17.148   1.846
41979W        W14239  34.292   1.575   1.922
41980W        W14240  27.963  29.669  10.303
41981W        W14241  16.182  15.151  10.702
41982W        W14242  13.750  38.108  11.407
41983W        W14243   3.267  24.764   1.329
41984W        W14244   2.266  42.462   3.378
41985W        W14245  44.573   4.498   2.340
41986W        W14246   1.693  37.033   1.355
41987W        W14247  14.222  35.407   2.674
41988W        W14248  37.940  10.629  14.286
41989W        W14249  36.445  18.684   0.901
41990W        W14250  26.701  18.788  11.203
41991W        W14251  20.530  21.466  12.396
41992W        W14252  43.889  39.333   3.530
41993W        W14253  32.510  43.874  11.997
41994W        W14254  33.373   6.372  12.932
41995W        W14255  13.859  22.728  11.086
41996W        W14256   7.873   8.362  14.695
41997W        W14257  40.581  29.034  10.224
41998W        W14258  32.972  39.957  11.259
41999W        W14259  26.587  37.766   0.768
42000W        W14260  13.630   5.995   2.349
42001W        W14261  12.758  20.752  13.413
42002W        W14262  35.551  12.060  12.564
42003W        W14263  20.523  26.097  12.404
42004W        W14264  31.002  21.169  12.112
42005W        W14265  10.128  26.267   3.470
42006W        W14266  11.817  34.997  13.995
42007W        W14267  42.785  23.038   0.450
42008W        W14268   9.669   2.694   3.291
42009W        W14269   0.727  14.822   2.230
42010W        W14270  27.534  31.140  13.855
42011W        W14271   7.748  12.387  11.157
42012W        W14272   8.102   6.679   0.366
42013W        W14273  20.544  40.045  11.108
42014W        W14274  42.544  22.005  12.133
42015W        W14275  10.395  36.402  12.985
42016W        W14276  41.462  16.491  14.777
42017W        W14277  40.965  16.560  14.932
42018W        W14278  44.424  26.159  10.690
42019W        W14279  13.650  43.724   1.988
42020W        W14280  14.122   3.881   2.765
42021W        W14281  27.395  22.795  14.333
42022W        W14282  43.264   6.841   4.917
42023W        W14283  32.398  11.401  12.606
42024W        W14284  24.103  32.597  13.778
42025W        W14285   6.249   4.981   4.670
42026W        W14286   1.048  20.534   2.675
42027W        W14287  29.540   6.170   4.717
42028W        W14288   2.753  42.874   0.380
42029W        W14289  20.807  25.828   3.193
42030W        W14290  34.085   2.474   1.525
42031W        W14291  42.821  44.499   3.780
42032W        W14292  24.064  17.605  13.499
42033W        W14293  20.205  35.431  11.658
42034W        W14294  28.192  24.154  12.104
42035W        W14295  18.842   2.489  11.085
42036W        W14296  19.955  16.755   0.704
42037W        W14297  18.081   7.348  13.302
42038W        W14298  13.632  43.300   1.694
42039W        W14299  14.987  21.734  13.453
42040W        W14300  43.926  37.939  14.247
42041W        W14301   1.791  19.332   1.710
42042W        W14302  27.227  39.729   3.734
42043W        W14303   6.754  42.754  10.605
42044W        W14304  28.128  42.338  11.981
42045W        W14305  14.826  34.342   3.684
42046W        W14306  34.624  37.336   1.388
42047W        W14307   0.153  29.425   0.507
42048W        W14308  39.243  13.797  11.717
42049W        W14309   8.132  44.735   4.486
42050W        W14310  10.935  23.984   0.279
42051W        W14311   4.402   6.020  13.063
42052W        W14312  23.619  39.794   1.701
42053W        W14313  28.195   0.698  11.643
42054W        W14314  14.294  15.225  14.288
42055W        W14315  15.055  26.624   4.692
42056W        W14316   6.356  26.012   1.331
42057W        W14317   7.101   9.867  12.226
42058W        W14318  14.063  42.222   1.253
42059W        W14319   6.325  22.746  12.040
42060W        W14320  36.465  35.803   0.753
42061W        W14321  21.497  17.438   4.147
42062W        W14322  24.004  16.972  12.120
42063W        W14323  38.123  39.439   0.375
42064W        W14324  40.882  12.868  12.391
42065W        W14325  32.871  27.919   3.725
42066W        W14326  29.410  14.125   4.433
42067W        W14327  22.191  27.508  13.222
42068W        W14328   6.971  33.075   3.568
42069W        W14329  18.834   7.464  11.512
42070W        W14330  15.585  17.516   2.177
42071W        W14331  30.238  40.500   3.363
42072W        W14332  43.820   0.749   4.177
42073W        W14333  28.983  40.610  11.149
42074W        W14334  27.193  18.930  11.347
42075W        W14335  14.599  25.630  11.535
42076W        W14336   8.458   1.801   2.586
42077W        W14337  23.940  32.547   1.273
42078W        W14338  38.790  35.090   5.028
42079W        W14339   5.070  22.854  14.357
42080W        W14340   0.918  32.088  11.928
42081W        W14341  37.987  12.832  13.058
42082W        W14342  44.524  10.736   1.372
42083W        W14343  34.607  10.626  11.583
42084W        W14344   1.445  32.541  12.531
42085W        W14345  17.877   9.172  10.509
42086W        W14346  23.970  31.489   3.215
42087W        W14347  41.300  29.228   1.786
42088W        W14348  14.643  33.060  13.392
42089W        W14349  26.029  27.084  11.091
42090W        W14350  37.856  19.506  10.541
42091W        W14351   9.405  24.182   0.354
42092W        W14352  32.420   4.259   3.473
42093W        W14353  29.423  35.468   1.703
42094W        W14354   1.762  16.633  11.703
42095W        W14355   5.379  10.744  13.006
42096W        W14356  25.478  41.070   2.913
42097W        W14357  28.580   9.815   4.261
42098W        W14358  22.135  18.680   1.873
42099W        W14359  22.171   0.997  12.102
42100W        W14360  16.582  16.810  13.795
42101W        W14361  34.127  33.965  11.934
42102W        W14362  14.760  31.232  11.507
42103W        W14363  21.079   5.500   2.645
42104W        W14364  19.814   7.151   3.247
42105W        W14365  39.415   1.228   0.775
42106W        W14366   1.040  10.543  12.435
42107W        W14367  14.777   2.242   3.209
42108W        W14368  21.013  42.495   2.315
42109W        W14369  11.479   2.223   3.601
42110W        W14370   7.359   1.932   1.655
42111W        W14371   8.969  32.580   2.812
42112W        W14372  34.342  36.358   2.820
42113W        W14373  29.137  18.180  12.887
42114W        W14374  35.336  18.125  12.467
42115W        W14375  41.525   3.176   1.845
42116W        W14376   1.326  33.969   4.415
42117W        W14377   0.818  36.280  12.339
42118W        W14378   8.168  15.262   0.226
42119W        W14379  36.408   7.189  13.470
42120W        W14380  39.985   5.997   0.903
42121W        W14381  38.533  25.181   4.593
42122W        W14382  42.438   8.785   1.707
42123W        W14383  43.733  12.843  12.528
42124W        W14384  20.199   6.568  12.173
42125W        W14385  13.803  33.888  13.533
42126W        W14386  30.317  40.821   4.722
42127W        W14387  20.945  33.669   0.436
42128W        W14388  13.020  33.923  11.793
42129W        W14389  41.635  39.934   0.408
42130W        W14390  34.645  42.627   0.791
42131W        W14391  43.825  22.142   1.858
42132W        W14392  13.850   4.912   3.134
42133W        W14393  35.276  22.546   3.293
42134W        W14394  10.766  40.996   4.553
42135W        W14395   5.000   8.823  12.360
42136W        W14396  22.201  18.804  14.106
42137W        W14397   0.990  21.472  12.044
42138W        W14398  35.544  40.608  12.410
42139W        W14399  33.912  40.453   3.647
42140W        W14400  39.620  22.201   2.938
42141W        W14401  31.333  19.245   1.691
42142W        W14402   0.592  38.021  14.332
42143W        W14403  20.802  13.706   3.411
42144W        W14404  23.792  44.323  13.325
42145W        W14405  24.398  30.523  10.244
42146W        W14406  14.559  44.005   4.417
42147W        W14407  13.633  29.723   0.139
42148W        W14408  24.040  39.420  11.810
42149W        W14409   8.905  37.191   1.660
42150W        W14410  14.096  32.877   3.348
42151W        W14411  36.117   1.686   1.273
42152W        W14412  38.334  30.154   4.113
42153W        W14413  28.445  20.497   4.876
42154W        W14414  13.310  33.398   2.758
42155W        W14415  22.772   3.645  11.173
42156W        W14416  10.212  13.103   4.078
42157W        W14417  18.990  28.189   1.610
42158W        W14418   2.879  41.622   4.180
42159W        W14419  34.992  28.041   3.128
42160W        W14420  18.668   0.803   2.878
42161W        W14421   4.958  28.763   4.117
42162W        W14422  15.830   1.036   2.805
42163W        W14423  23.048  26.665  12.638
42164W        W14424  32.051   6.555   3.148
42165W        W14425  38.599  26.292  14.036
42166W        W14426  21.216  43.295   1.675
42167W        W14427  41.545   5.200  11.653
42168W        W14428  13.746  39.899   0.532
42169W        W14429  37.894  20.420   1.262
42170W        W14430  31.845  37.110  14.397
42171W        W14431  41.913   6.150  13.847
42172W        W14432  25.775  14.223  10.590
42173W        W14433  17.410  38.773   3.147
42174W        W14434  33.852  17.182   2.884
42175W        W14435   3.349  19.390  13.408
42176W        W14436   6.152  25.765  11.078
42177W        W14437  14.767   3.453  12.012
42178W        W14438  22.019  35.987   1.427
42179W        W14439  29.147  21.178   4.630
42180W        W14440  32.106  24.369  11.053
42181W        W14441  11.414  22.124   3.685
42182W        W14442  11.892  15.110   1.840
42183W        W14443  27.936   3.578  11.610
42184W        W14444  26.605  18.253  14.700
42185W        W14445  10.581   9.151  12.530
42186W        W14446  23.476  25.038  12.122
42187W        W14447  13.612  21.484   2.457
42188W        W14448  15.739  36.124  12.563
42189W        W14449   5.668  14.200  13.597
42190W        W14450  14.636   1.452  13.060
42191W        W14451  25.744  27.369   1.799
42192W        W14452  22.911  42.502  13.385
42193W        W14453   3.457   7.458  14.470
42194W        W14454  36.508   2.145  12.431
42195W        W14455  32.029  25.542   2.309
42196W        W14456  24.424  22.845   0.228
42197W        W14457   8.308  37.075  11.574
42198W        W14458  17.592  19.968  12.017
42199W        W14459  10.262  18.616  11.752
42200W        W14460  38.356  27.757   2.979
42201W        W14461  32.549  24.476   0.962
42202W        W14462   1.036  30.606   0.349
42203W        W14463  27.680   9.301  11.209
42204W        W14464   7.097   0.286  11.621
42205W        W14465  18.213  18.890  11.488
42206W        W14466  21.595  38.315  12.397
42207W        W14467  37.690   1.075   4.189
42208W        W14468  20.138   0.208  11.696
42209W        W14469   7.259  27.733   9.760
42210W        W14470  18.812  18.759   4.661
42211W        W14471  35.152  32.842  11.105
42212W        W14472  11.789  26.180  14.257
42213W        W14473  26.486  11.683  13.040
42214W        W14474   0.750   8.872   0.384
42215W        W14475  12.241  27.417  13.991
42216W        W14476  32.587  42.298  11.657
42217W        W14477  19.950  26.903  11.014
42218W        W14478   8.955   6.252  12.025
42219W        W14479   8.858   1.345  13.119
42220W        W14480   4.292  10.791  11.170
42221W        W14481  10.135   4.342  12.568
42222W        W14482  16.010  36.393   2.319
42223W        W14483  12.688  26.441   1.696
42224W        W14484  40.332   0.630  13.049
42225W        W14485  12.173  35.988   3.146
42226W        W14486  44.206   2.541   4.110
42227W        W14487  28.399  23.516  11.960
42228W        W14488   9.206  18.360   2.881
42229W        W14489  44.533  13.811   1.280
42230W        W14490  24.955  10.793  11.140
42231W        W14491   9.571  18.817  13.266
42232W        W14492   2.906  17.111  11.764
42233W        W14493   0.355  21.688   1.635
42234W        W14494  31.197   0.493  12.163
42235W        W14495  29.738  10.811  10.693
42236W        W14496  18.586  24.964   0.862
42237W        W14497  37.785  24.314   3.165
42238W        W14498   5.945  20.277   0.455
42239W        W14499  38.848   7.315  13.480
42240W        W14500   5.904   7.227   1.355
42241W        W14501   3.853  41.037   4.265
42242W        W14502   3.196  17.553  11.974
42243W        W14503  37.530  28.928   3.070
42244W        W14504  35.304  11.142  11.629
42245W        W14505  30.192  43.459   2.590
42246W        W14506  35.054  11.826   1.551
42247W        W14507  24.814  36.978  11.155
42248W        W14508  33.583  20.607   2.980
42249W        W14509  24.437  16.155  12.903
42250W        W14510   8.985   9.211   4.119
42251W        W14511  44.291  20.602  12.073
42252W        W14512  31.140   3.447  14.931
42253W        W14513  39.866  30.724   2.174
42254W        W14514   4.591  35.642  11.278
42255W        W14515  42.069  25.913   0.864
42256W        W14516  25.279  44.868   2.312
42257W        W14517   7.677  21.109  14.840
42258W        W14518  44.232   1.161  12.375
42259W        W14519  15.068  34.356  14.984
42260W        W14520  17.811  35.566  11.043
42261W        W14521  13.679   1.318   2.138
42262W        W14522  23.276  19.724   1.733
42263W        W14523  26.163  40.175   2.113
42264W        W14524   7.358  17.010   3.723
42265W        W14525  36.475  20.347  12.668
42266W        W14526  42.890   9.454  11.078
42267W        W14527   8.828  42.276  14.711
42268W        W14528  22.197   2.925  11.902
42269W        W14529  35.837  35.985  11.913
42270W        W14530  43.989   5.842   4.570
42271W        W14531  32.357  40.559  12.952
42272W        W14532   4.149  10.623  12.619
42273W        W14533  21.038  13.731  12.545
42274W        W14534  25.505  28.397  11.229
42275W        W14535   3.844  20.772   3.232
42276W        W14536   7.967   1.039   1.342
42277W        W14537   7.454  17.242  11.607
42278W        W14538  10.121  19.965  14.991
42279W        W14539  34.986  21.041   5.456
42280W        W14540  31.076  35.915  11.888
42281W        W14541   4.428  32.425   2.159
42282W        W14542  27.182  26.505  12.479
42283W        W14543  38.436  37.787   4.101
42284W        W14544  34.832  24.532  12.424
42285W        W14545  21.567  40.448  13.308
42286W        W14546  36.204  27.578   2.650
42287W        W14547   0.160  33.048  12.336
42288W        W14548  29.673   4.237   4.357
42289W        W14549  42.494  31.093  12.488
42290W        W14550  44.256   0.940   1.992
42291W        W14551  22.308  10.969  11.568
42292W        W14552   9.601  27.455  10.733
42293W        W14553   0.830  16.356   0.505
42294W        W14554   9.249  10.762  12.339
42295W        W14555   2.890   6.166   2.807
42296W        W14556   8.718  22.226  13.768
42297W        W14557  43.437  16.217  10.561
42298W        W14558  19.080   9.768   1.155
42299W        W14559  42.579  13.629  14.325
42300W        W14560  43.824   2.457   1.392
42301W        W14561  30.964  35.641  14.930
42302W        W14562   9.657  39.346   4.176
42303W        W14563  11.797  27.207  14.541
42304W        W14564  33.066  31.673   3.206
42305W        W14565  12.811  30.342  11.623
42306W        W14566  23.771  39.748  14.495
42307W        W14567  27.675  20.231   3.879
42308W        W14568  27.485  38.628   1.175
42309W        W14569  12.558  29.824  11.651
42310W        W14570  19.019  36.864   1.715
42311W        W14571  12.788  38.253  11.591
42312W        W14572  43.745  16.820  13.841
42313W        W14573  35.521  42.488   0.193
42314W        W14574  27.441   8.881  12.089
42315W        W14575  41.591  28.454  12.849
42316W        W14576   3.959  42.490   0.886
42317W        W14577  31.633  26.702   1.331
42318W        W14578  15.314  41.498  14.274
42319W        W14579   5.234   8.849  10.986
42320W        W14580  25.422   3.570   0.235
42321W        W14581  44.818  24.973   1.375
42322W        W14582  17.623  41.445  13.460
42323W        W14583  24.459  18.833   1.334
42324W        W14584  16.566  12.400   0.324
42325W        W14585   3.838  43.830   1.336
42326W        W14586   9.140  37.401  14.948
42327W        W14587  41.735  21.167   3.700
42328W        W14588   5.489  24.721   1.855
42329W        W14589  33.496   8.125  14.301
42330W        W14590  20.272  42.429  14.069
42331W        W14591   5.080  37.758   3.786
42332W        W14592   7.862  18.065   1.977
42333W        W14593   4.642   6.163  11.529
42334W        W14594  18.684  43.497  13.529
42335W        W14595  10.635  38.793  12.358
42336W        W14596  36.326  44.956  13.473
42337W        W14597   7.178  28.359   1.632
42338W        W14598   4.519  29.770  11.091
42339W        W14599  11.973  34.790  11.183
42340W        W14600  13.743  13.627  11.058
42341W        W14601   2.393  36.231  10.215
42342W        W14602  22.933   3.159  11.194
42343W        W14603   7.750  34.603  11.669
42344W        W14604  15.683   2.410   3.397
42345W        W14605  42.553  33.899  12.495
42346W        W14606  13.674  44.686  10.925
42347W        W14607  36.859  24.625  12.447
42348W        W14608   5.830  33.163  14.433
42349W        W14609  42.796  42.829  12.636
42350W        W14610  44.444  10.150  13.473
42351W        W14611  43.265  15.243  10.749
42352W        W14612  29.511  29.187  13.993
42353W        W14613   8.834  39.058  11.671
42354W        W14614  28.685  10.830  12.370
42355W        W14615  37.663  40.593  14.348
42356W        W14616  12.781  28.975   2.570
42357W        W14617  39.243  10.237   1.716
42358W        W14618   1.919  10.365  12.803
42359W        W14619   0.704  17.720  11.388
42360W        W14620   9.832  10.947  13.207
42361W        W14621  33.038  35.843  14.443
42362W        W14622  39.846   5.537  12.489
42363W        W14623  37.952  38.716  12.052
42364W        W14624  38.384   4.121  13.776
42365W        W14625  36.526  34.956  12.057
42366W        W14626  11.710  33.560  12.106
42367W        W14627   1.743  36.978   4.156
42368W        W14628  22.581   2.189  10.466
42369W        W14629  39.909   8.881   0.797
42370W        W14630  25.380  31.905  10.672
42371W        W14631  20.956   2.235  11.982
42372W        W14632  30.510  20.552  10.646
42373W        W14633  26.087  14.703  12.648
42374W        W14634  18.723  28.584   3.713
42375W        W14635  20.574  31.140   2.426
42376W        W14636   7.283  12.762  13.815
42377W        W14637  18.782  11.710  11.261
42378W        W14638  44.892  38.973   2.916
42379W        W14639   2.754  10.055  12.566
42380W        W14640  13.593   2.368  12.885
42381W        W14641  31.851   7.557  10.546
42382W        W14642   5.687  10.201   0.028
42383W        W14643  35.481  39.442   1.495
42384W        W14644  14.830   8.893   3.818
42385W        W14645  22.150  40.692   0.271
42386W        W14646  28.164  17.324  13.100
42387W        W14647  10.448  41.683   1.291
42388W        W14648  42.118  37.695  11.171
42389W        W14649   9.333   0.951   0.496
42390W        W14650   7.311  14.398   4.257
42391W        W14651  38.447  38.538   0.917
42392W        W14652   1.263  24.476   3.371
42393W        W14653  28.661   1.374  10.896
42394W        W14654  33.572  31.974  12.792
42395W        W14655  35.401  16.288  13.064
42396W        W14656   4.420  39.089   2.377
42397W        W14657  40.909  19.295  12.811
42398W        W14658  35.394  12.260  12.071
42399W        W14659  10.163  27.497  12.822
42400W        W14660  13.610   3.533   0.992
42401W        W14661  21.040  21.749   2.768
42402W        W14662   8.813  43.684   0.303
42403W        W14663   3.662  19.240   4.888
42404W        W14664  23.963  37.851   2.874
42405W        W14665  28.153  41.973   2.829
42406W        W14666  24.576  23.675   4.201
42407W        W14667   3.618   3.172   1.294
42408W        W14668  17.445  35.129  14.701
42409W        W14669  27.406  28.662   2.850
42410W        W14670  10.924  10.780   3.205
42411W        W14671  10.202  21.048  13.852
42412W        W14672  25.187  29.002  10.704
42413W        W14673  23.608  39.581  13.551
42414W        W14674  20.769   1.891   2.980
42415W        W14675  11.715  26.559   1.872
42416W        W14676  39.782   6.400  14.189
42417W        W14677  36.902   6.327   1.274
42418W        W14678  43.467  24.682  11.274
42419W        W14679  19.142  15.366   4.619
42420W        W14680  43.305   0.813  13.475
42421W        W14681   3.265  13.297   1.043
42422W        W14682  17.154  12.551  12.171
42423W        W14683  26.738  23.650   1.681
42424W        W14684  37.141   0.820  10.688
42425W        W14685  15.320   4.176  14.281
42426W        W14686  17.525   3.775  10.716
42427W        W14687  42.856  27.280  13.870
42428W        W14688   8.882   5.681   2.636
42429W        W14689  28.558  10.824   0.775
42430W        W14690  41.523   1.947  13.393
42431W        W14691   4.705  39.067  13.350
42432W        W14692   9.264  30.743  14.999
42433W        W14693  29.195  37.919   2.668
42434W        W14694  21.529  34.974   2.057
42435W        W14695  41.962  18.806  10.997
42436W        W14696  42.986  26.882  10.992
42437W        W14697  36.443  20.323  14.846
42438W        W14698  43.573  23.220  13.155
42439W        W14699  43.432  23.678   2.617
42440W        W14700   3.041  41.913   2.727
42441W        W14701  19.893  40.660  14.340
42442W        W14702  15.410  41.057  11.162
42443W        W14703  14.365   7.782  11.546
42444W        W14704  35.900  11.128   3.210
42445W        W14705  30.422  10.107   3.237
42446W        W14706  29.419  18.001   2.343
42447W        W14707  37.431  26.688  14.412
42448W        W14708   7.818  33.619   1.544
42449W        W14709  19.493  35.396   2.270
42450W        W14710   7.100  15.217  14.191
42451W        W14711  41.533   5.172  10.924
42452W        W14712   8.874  17.158  14.880
42453W        W14713  39.311   1.541  14.555
42454W        W14714  40.132  22.233   2.887
42455W        W14715  42.165  13.726   2.327
42456W        W14716   7.536  43.752   4.040
42457W        W14717  41.731  40.055   2.781
42458W        W14718  12.653  10.264   4.203
42459W        W14719  15.130   4.691  11.925
42460W        W14720   2.975  10.594   4.239
42461W        W14721  20.996  13.764  12.037
42462W        W14722  36.903   9.654  11.096
42463W        W14723  32.435  20.695  14.419
42464W        W14724   6.416  24.507  14.432
42465W        W14725   2.873  37.364  10.696
42466W        W14726  44.754  26.709   4.235
42467W        W14727  29.521  17.309  11.107
42468W        W14728  40.577  21.033  12.148
42469W        W14729  11.305  40.064   4.228
42470W        W14730   7.429  15.558   1.848
42471W        W14731  36.813  34.517  12.018
42472W        W14732   8.703  11.855  13.601
42473W        W14733  12.983  44.085   5.177
42474W        W14734  28.995  18.141  10.996
42475W        W14735   1.011   8.417   0.423
42476W        W14736  12.176  38.438  14.439
42477W        W14737  10.805  11.330   4.156
42478W        W14738  30.465  29.928   2.176
42479W        W14739  35.660   8.038  13.963
42480W        W14740   1.707  28.954   0.700
42481W        W14741   0.561   9.655   0.529
42482W        W14742  39.790  32.487   1.916
42483W        W14743  19.544  44.467   0.377
42484W        W14744  40.324  12.843   9.833
42485W        W14745   0.246  16.940  12.875
42486W        W14746  15.786   5.747   1.154
42487W        W14747  11.563  22.615   5.131
42488W        W14748  13.347  10.329  14.326
42489W        W14749  42.141   2.893   0.524
42490W        W14750   7.158   2.332  11.639
42491W        W14751   1.900  13.340  12.040
42492W        W14752  12.179   5.051   0.001
42493W        W14753  22.427  42.839  14.306
42494W        W14754   8.179  28.689   4.111
42495W        W14755  10.431  34.507  13.360
42496W        W14756  20.244  36.118   0.017
42497W        W14757  27.063  27.174   3.928
42498W        W14758  21.969  24.576  14.876
42499W        W14759  25.953  25.718   3.777
42500W        W14760  14.574   8.741   4.791
42501W        W14761   1.387  31.952   4.635
42502W        W14762  26.501  41.330  14.755
42503W        W14763   1.927  42.825  10.573
42504W        W14764  15.758   7.772  14.416
42505W        W14765  11.355  28.837  14.359
42506W        W14766   0.596  30.066   2.178
42507W        W14767  23.901  29.996  11.005
42508W        W14768  29.077   5.881  12.032
42509W        W14769   9.387  13.244  11.518
42510W        W14770  38.212  36.201  13.536
42511W        W14771  30.527  15.871  11.589
42512W        W14772  39.461  28.425   4.908
42513W        W14773  32.535  16.617   2.777
42514W        W14774  22.343  23.169   2.680
42515W        W14775  32.838   8.776   0.568
42516W        W14776   8.476  39.130   0.853
42517W        W14777   8.375   2.487   3.915
42518W        W14778  15.400  18.083  12.915
42519W        W14779  27.207   9.234   3.663
42520W        W14780  20.217  27.079   2.730
42521W        W14781   0.234  26.700  12.310
42522W        W14782   3.598  38.902   4.203
42523W        W14783  29.463   3.424   0.483
42524W        W14784  11.912  22.129   3.759
42525W        W14785  22.146  27.522   4.476
42526W        W14786  16.061  30.477   1.490
42527W        W14787   0.083   5.238  12.899
42528W        W14788  29.047  41.127  13.389
42529W        W14789  31.656  22.577   0.367
42530W        W14790   5.149  21.183   4.576
42531W        W14791  26.941  24.601  14.528
42532W        W14792  24.176  20.718  11.542
42533W        W14793  38.873  44.109  10.651
42534W        W14794   5.932   8.197   4.805
42535W        W14795   7.272  41.817   3.407
42536W        W14796   2.894  20.696   3.157
42537W        W14797  16.577  14.270  10.586
42538W        W14798  16.727  10.226  13.349
42539W        W14799  44.540  11.334  14.275
42540W        W14800  10.873   3.406   4.060
42541W        W14801  33.968   2.375  11.591
42542W        W14802  36.490  15.055   4.554
42543W        W14803  16.532  15.079   3.697
42544W        W14804  36.524   4.418   4.605
42545W        W14805  34.874  17.887  13.062
42546W        W14806   2.636  34.610   2.104
42547W        W14807  31.528  29.659   1.350
42548W        W14808  18.679  38.233  13.017
42549W        W14809  17.042  13.755   0.327
42550W        W14810  42.776  27.973   5.097
42551W        W14811  43.531  27.840   4.438
42552W        W14812  28.457   9.144   2.239
42553W        W14813   0.593   2.829   4.399
42554W        W14814   1.895  41.846   2.165
42555W        W14815  10.152  24.618   2.625
42556W        W14816  15.162  37.381  13.550
42557W        W14817   8.244   0.780   3.250
42558W        W14818  20.611  35.887  13.773
42559W        W14819  20.627  19.092  11.193
42560W        W14820  32.602  34.086  10.807
42561W        W14821  41.216  30.537  11.698
42562W        W14822  36.620  12.184  10.697
42563W        W14823  24.483  32.081  11.468
42564W        W14824  29.042  31.913  14.363
42565W        W14825   3.817  20.625  13.623
42566W        W14826   2.840  42.731  12.414
42567W        W14827   7.907  22.575  11.605
42568W        W14828  25.090  44.018   2.897
42569W        W14829  13.104   1.941  11.845
42570W        W14830  25.289  26.999  13.886
42571W        W14831  12.718  15.750  14.280
42572W        W14832  36.941  39.510   3.203
42573W        W14833  29.848  39.623   0.978
42574W        W14834  25.273  11.883   4.026
42575W        W14835  34.086  18.312  12.102
42576W        W14836  14.618  26.562   1.808
42577W        W14837  13.101   5.860   2.306
42578W        W14838   0.131  28.099  11.632
42579W        W14839  25.246  26.111   3.295
42580W        W14840   0.207   7.323   3.593
42581W        W14841  44.901  43.719   2.261
42582W        W14842  31.115  32.923  14.790
42583W        W14843  20.606  11.673  13.742
42584W        W14844  41.032   8.900   3.249
42585W        W14845  41.266  14.591  12.883
42586W        W14846  32.455  15.571  10.452
42587W        W14847  33.840  41.358   3.785
42588W        W14848   9.103  26.971   0.356
42589W        W14849  35.917  43.146   1.247
42590W        W14850  32.134  33.297   4.055
42591W        W14851  13.600  27.147  13.510
42592W        W14852  36.612  19.219   2.855
42593W        W14853  43.296  27.046  13.560
42594W        W14854   2.404   8.352   3.780
42595W        W14855  41.429  32.214   2.250
42596W        W14856  11.862  13.185  13.934
42597W        W14857  17.218  13.511  11.897
42598W        W14858  33.823  27.700  13.545
42599W        W14859  41.104   5.770  11.099
42600W        W14860  35.899  30.866   4.112
42601W        W14861  17.215  10.719   1.492
42602W        W14862  28.514  17.064   0.224
42603W        W14863  41.534  34.644  14.450
42604W        W14864   5.673  40.436  12.532
42605W        W14865  28.147  13.040  10.996
42606W        W14866  15.669  35.338  12.887
42607W        W14867  24.528  40.341  14.359
42608W        W14868  16.292   2.746   3.317
42609W        W14869  39.388  31.012   1.239
42610W        W14870   8.945  10.346  10.678
42611W        W14871  24.166  11.509  14.799
42612W        W14872  37.567   8.386   0.219
42613W        W14873  34.865  34.721  12.859
42614W        W14874  34.952  15.788  11.099
42615W        W14875  10.227   1.168   0.115
42616W        W14876  19.853  32.788   0.451
42617W        W14877  44.225   4.309  12.898
42618W        W14878  31.191  27.408   2.670
42619W        W14879  17.497  17.395   3.094
42620W        W14880  44.230  41.022  13.043
42621W        W14881  19.605  40.786   2.360
42622W        W14882  39.384   0.701   0.736
42623W        W14883  35.468  17.760  14.803
42624W        W14884  43.981  20.244  13.461
42625W        W14885   4.217  22.146  12.613
42626W        W14886  43.878  34.393   2.770
42627W        W14887  40.935  10.825   3.872
42628W        W14888   0.252   5.621   0.931
42629W        W14889  41.732   5.649  13.825
42630W        W14890   3.364  30.583   4.089
42631W        W14891  11.566  36.502   3.675
42632W        W14892  22.312  32.146  14.752
42633W        W14893  34.119   1.708  14.441
42634W        W14894   3.876  36.443  12.878
42635W        W14895  13.212  21.276  12.042
42636W        W14896  31.463  36.071  12.686
42637W        W14897  10.732  10.436  13.044
42638W        W14898  20.294  28.307   1.649
42639W        W14899  25.015  33.519   0.292
42640W        W14900   3.233  40.189  13.989
42641W        W14901  32.011  41.732   1.972
42642W        W14902  40.762   4.098  12.694
42643W        W14903  43.036  14.329   3.816
42644W        W14904  18.161  37.484  12.060
42645W        W14905  13.884  31.853  12.570
42646W        W14906  18.174  32.024   2.608
42647W        W14907  35.047   0.256   1.127
42648W        W14908  39.945  44.143  11.548
42649W        W14909  26.156  33.034   1.501
42650W        W14910  21.194  41.767  13.670
42651W        W14911  38.156  18.405   2.255
42652W        W14912   4.300   1.764   0.434
42653W        W14913  20.954  26.701   5.091
42654W        W14914  17.790  34.689  14.832
42655W        W14915  18.670  11.084  10.625
42656W        W14916   4.527  22.503  13.969
42657W        W14917   1.703  22.639   0.827
42658W        W14918   5.380   0.380  13.552
42659W        W14919  34.448  23.990  14.922
42660W        W14920   4.944  21.541   2.711
42661W        W14921   1.565  31.964   4.144
42662W        W14922  36.504   1.410  12.701
42663W        W14923  35.064   2.138  13.902
42664W        W14924  37.252   3.468  12.180
42665W        W14925  32.741   0.975   1.409
42666W        W14926  11.495  27.136  10.987
42667W        W14927  28.149  41.279  13.329
42668W        W14928  16.795  42.348  11.083
42669W        W14929  18.012  13.358  13.894
42670W        W14930   5.505  33.994   4.315
42671W        W14931  16.631  27.620  11.947
42672W        W14932  31.122  22.044  13.484
42673W        W14933  35.837  19.577  13.510
42674W        W14934  44.454  11.233  10.724
42675W        W14935   1.824  37.080  14.905
42676W        W14936  36.231   9.999   2.395
42677W        W14937  14.838   5.559  12.930
42678W        W14938  36.300   2.587  11.145
42679W        W14939  42.142  14.841   2.727
42680W        W14940  22.083  34.371  11.712
42681W        W14941   4.946  38.129   4.124
42682W        W14942  14.675   5.232  13.312
42683W        W14943  44.026  38.442  11.640
42684W        W14944  23.002  33.013  12.481
42685W        W14945  13.369  30.567  10.325
42686W        W14946  17.300  37.822   3.141
42687W        W14947  29.740  38.277  11.710
42688W        W14948   8.388   8.863   4.649
42689W        W14949  40.938  37.587   1.348
42690W        W14950  30.999  38.006  14.259
42691W        W14951  20.130   9.266   2.731
42692W        W14952  17.527  28.605   0.099
42693W        W14953  43.566   0.504   4.870
42694W        W14954  30.566  31.404  11.663
42695W        W14955  10.518  17.288   3.930
42696W        W14956  21.545  24.991   1.252
42697W        W14957  20.210   6.164   2.316
42698W        W14958   5.172  32.547   4.573
42699W        W14959   1.670  32.101   1.438
42700W        W14960  19.565   2.842   1.944
42701W        W14961  44.802   7.918   0.405
42702W        W14962  42.597  13.922   0.897
42703W        W14963   2.733  44.304   0.377
42704W        W14964  26.043  17.043   4.625
42705W        W14965  20.021  37.476  14.561
42706W        W14966  42.833  35.089   1.400
42707W        W14967   0.348  13.223   1.852
42708W        W14968  40.259  22.419   4.480
42709W        W14969  11.236  30.944   2.598
42710W        W14970  32.994  36.090   2.748
42711W        W14971   7.919  40.851  12.530
42712W        W14972  26.163  24.027  10.665
42713W        W14973  17.176  40.766  13.002
42714W        W14974   5.387  10.815   2.214
42715W        W14975   5.831  44.921  12.002
42716W        W14976  21.772  39.363   4.694
42717W        W14977  31.677  40.297  11.026
42718W        W14978  10.346  42.875   1.945
42719W        W14979   5.793   9.993  11.143
42720W        W14980  31.923  22.046  10.983
42721W        W14981  16.296  28.648   3.155
42722W        W14982  30.236  22.955  13.046
42723W        W14983   0.713  17.167   0.435
42724W        W14984   5.398  13.710   2.835
42725W        W14985   5.161   1.786  14.759
42726W        W14986   9.756  32.813   2.161
42727W        W14987  22.051  25.582   4.186
42728W        W14988  44.823  15.772   4.641
42729W        W14989  10.737  30.016  12.049
42730W        W14990  13.125  25.200  12.227
42731W        W14991  38.403   6.774   1.786
42732W        W14992  35.544   4.217  13.355
42733W        W14993  37.621  32.124  12.035
42734W        W14994  19.315  30.445  13.460
42735W        W14995  44.242  15.382  13.638
42736W        W14996  26.574  16.504   3.303
42737W        W14997   0.912  35.746   1.324
42738W        W14998  10.407  31.722   3.101
42739W        W14999   9.352  22.567  10.512
42740W        W15000  44.809  17.518   2.275
42741W        W15001  43.471  36.365  13.539
42742W        W15002  16.620   7.148   9.748
42743W        W15003   5.254  44.313  13.937
42744W        W15004   1.543  30.107  14.351
42745W        W15005  10.267  17.460   3.013
42746W        W15006   6.369  37.830  13.065
42747W        W15007  10.343  35.857   4.585
42748W        W15008  22.499  32.706   2.433
42749W        W15009   2.810   1.787  12.618
42750W        W15010  31.195  16.532  14.634
42751W        W15011  19.582  29.154   2.875
42752W        W15012  15.841  40.457   0.550
42753W        W15013   8.115  33.991  13.986
42754W        W15014   0.683  36.486   4.770
42755W        W15015  14.167  26.078  13.061
42756W        W15016   5.464   6.745  12.230
42757W        W15017  38.134  21.688   1.760
42758W        W15018  32.094  12.838   2.604
42759W        W15019  25.212  31.208  13.881
42760W        W15020  42.742  27.296  14.824
42761W        W15021  16.655  31.292  13.820
42762W        W15022  32.890  27.410  13.442
42763W        W15023  24.479  30.876   4.709
42764W        W15024   5.653  33.812   2.585
42765W        W15025  41.138   1.241   4.160
42766W        W15026  17.746   4.855  14.939
42767W        W15027  43.506  17.799  13.961
42768W        W15028   6.963  27.988   2.397
42769W        W15029  27.237  15.511   4.807
42770W        W15030  15.172  33.141   2.694
42771W        W15031   1.950  19.076  12.334
42772W        W15032  26.534   2.769   2.440
42773W        W15033  23.713  16.288   0.308
42774W        W15034  29.348   7.299   1.385
42775W        W15035  10.248  24.932  12.925
42776W        W15036  33.585  35.340  14.936
42777W        W15037  30.106  43.443   3.819
42778W        W15038  41.984  32.093   2.913
42779W        W15039   9.231  33.673  11.092
42780W        W15040  40.923  23.521  11.171
42781W        W15041  24.264  12.017  14.822
42782W        W15042  13.225  20.252  11.832
42783W        W15043  23.726  23.170   0.834
42784W        W15044  10.070  18.906  14.057
42785W        W15045  25.769  17.846   3.268
42786W        W15046  22.515  25.857   2.685
42787W        W15047  28.712   9.848   3.757
42788W        W15048  26.731   5.939   3.314
42789W        W15049  41.786  16.564  11.161
42790W        W15050  25.546  13.655   3.207
42791W        W15051   4.839  36.497  12.894
42792W        W15052   0.980  42.069   0.811
42793W        W15053  38.619  13.233   3.140
42794W        W15054  38.686  34.426   0.812
42795W        W15055  20.260  25.051   0.788
42796W        W15056   0.202  26.713   0.466
42797W        W15057  28.245  37.514   0.868
42798W        W15058  37.079   6.691   3.324
42799W        W15059   3.913   8.608  14.401
42800W        W15060  21.541   0.060   2.816
42801W        W15061   6.162  43.448  13.284
42802W        W15062  11.062  44.758  12.390
42803W        W15063  28.327  40.339  13.064
42804W        W15064   5.434  27.509   3.880
42805W        W15065  20.655  34.539   1.693
42806W        W15066  11.316  38.006   2.245
42807W        W15067  12.932  19.550   0.833
42808W        W15068  26.193  20.039  11.570
42809W        W15069  39.960  40.994   2.755
42810W        W15070  32.179  14.844  12.527
42811W        W15071  15.622   2.715   0.463
42812W        W15072  12.485   0.027  14.004
42813W        W15073  44.518  40.523   4.669
42814W        W15074  28.280  36.002   4.096
42815W        W15075  33.890  21.972   0.669
42816W        W15076  10.811  12.397   2.072
42817W        W15077  15.944  37.274  11.993
42818W        W15078   9.906  11.664  11.005
42819W        W15079  21.473  18.283  14.595
42820W        W15080  44.739  14.131   2.700
42821W        W15081  33.298   0.802   4.780
42822W        W15082  20.508  19.158  14.440
42823W        W15083  30.482  22.342   0.792
42824W        W15084  24.300  41.444   3.677
42825W        W15085  42.871  24.112  13.765
42826W        W15086  31.979  23.576   3.145
42827W        W15087  42.401  10.294   3.756
42828W        W15088  44.837  30.367  11.129
42829W        W15089  16.064  12.617   1.254
42830W        W15090  44.144  39.166  11.193
42831W        W15091  32.154  44.525  14.844
42832W        W15092  41.506  17.655   2.780
42833W        W15093  37.370  29.888  11.706
42834W        W15094   8.776  26.524  11.121
42835W        W15095  23.645   9.816   1.937
42836W        W15096  17.220   0.251   2.959
42837W        W15097  26.230  28.503   0.789
42838W        W15098  35.731  14.329   3.752
42839W        W15099  15.228   7.893   2.212
42840W        W15100  15.856  17.136  13.612
42841W        W15101   5.839  12.827  13.510
42842W        W15102  34.417  36.049   3.658
42843W        W15103  13.554   6.348  12.431
42844W        W15104  44.702  19.728  12.433
42845W        W15105  33.603  11.196  12.107
42846W        W15106   1.161  25.085  14.001
42847W        W15107  26.568  35.593   4.934
42848W        W15108  11.408  36.182  12.341
42849W        W15109  26.481  17.071  10.860
42850W        W15110   5.775  29.633   4.108
42851W        W15111  28.633  21.010   3.266
42852W        W15112   9.093  19.288   0.326
42853W        W15113  14.235   3.262   3.777
42854W        W15114  35.896  21.710  14.747
42855W        W15115  40.406  39.025   0.988
42856W        W15116  25.303  32.214   1.406
42857W        W15117  31.945  17.268   2.878
42858W        W15118  44.721  23.771  13.137
42859W        W15119   9.376  43.407  13.879
42860W        W15120  19.712  30.912  10.706
42861W        W15121  12.919  37.040   2.822
42862W        W15122  44.320  27.121   4.381
42863W        W15123   9.616  14.391  11.055
42864W        W15124  40.697  15.413  12.632
42865W        W15125  35.407  34.907   1.688
42866W        W15126  40.451   6.808   0.746
42867W        W15127  18.784   7.642   0.502
42868W        W15128   8.915   2.834  13.738
42869W        W15129  27.846   4.636   1.812
42870W        W15130   9.333  27.914  13.994
42871W        W15131   3.364  25.090   0.413
42872W        W15132  27.162   8.256   0.456
42873W        W15133  29.839  41.978  11.921
42874W        W15134   3.267  41.967   4.029
42875W        W15135  27.178   3.352   4.567
42876W        W15136  20.312   1.853   5.037
42877W        W15137   6.939  43.521   4.699
42878W        W15138  25.514  13.747  12.923
42879W        W15139  14.967  17.003   0.611
42880W        W15140  40.012  31.942   3.224
42881W        W15141  42.255  16.226  12.338
42882W        W15142   0.686  21.685   0.762
42883W        W15143  26.933  28.126  14.764
42884W        W15144  27.376  40.001  11.599
42885W        W15145  38.935  15.503   4.861
42886W        W15146  14.338  32.502  13.786
42887W        W15147  30.735  11.179  14.758
42888W        W15148  18.776  37.818  14.826
42889W        W15149  44.938  37.690   4.893
42890W        W15150  41.510  22.768  13.052
42891W        W15151  16.767  41.423  14.043
42892W        W15152  13.230  14.236  13.029
42893W        W15153  15.061  42.851  11.615
42894W        W15154  11.338  43.023   2.984
42895W        W15155  11.737  10.470   1.837
42896W        W15156   2.517   6.889   3.572
42897W        W15157  17.762  15.792   3.704
42898W        W15158  13.727   0.615  13.545
42899W        W15159  40.888  22.255   1.768
42900W        W15160  28.102   5.670   5.024
42901W        W15161  37.639  41.596   3.348
42902W        W15162  41.438  20.526   2.171
42903W        W15163  11.761  18.467  12.457
42904W        W15164  18.808  41.823   3.270
42905W        W15165  11.915  11.081   2.890
42906W        W15166  40.866  43.575   2.587
42907W        W15167   6.214  12.336  12.073
42908W        W15168  30.554  12.448  14.056
42909W        W15169  26.733  19.232  13.605
42910W        W15170  19.968  36.061  10.561
42911W        W15171  10.692  20.541  11.656
42912W        W15172  34.933  13.310  13.315
42913W        W15173  18.550   2.070  11.218
42914W        W15174  42.893  43.933   4.880
42915W        W15175   6.868  24.752  14.488
42916W        W15176  28.637  21.666   0.430
42917W        W15177   5.262  43.222   4.305
42918W        W15178  33.935  34.381   4.248
42919W        W15179   9.294  29.474   0.921
42920W        W15180   3.828  31.738  14.023
42921W        W15181  10.873  28.915  13.034
42922W        W15182  26.774  36.146   2.276
42923W        W15183  13.584  19.308  10.786
42924W        W15184  20.919   0.302   0.537
42925W        W15185  12.768  19.507   4.947
42926W        W15186  17.792  16.195  13.896
42927W        W15187  12.969   8.725   2.123
42928W        W15188   7.598  28.767   2.816
42929W        W15189   1.195   6.589  14.471
42930W        W15190  21.064  11.209   2.284
42931W        W15191  24.626  19.333  12.553
42932W        W15192  18.648  29.639   2.831
42933W        W15193  38.269  43.246  14.805
42934W        W15194  44.926   8.467   4.208
42935W        W15195   3.620   5.743   2.342
42936W        W15196  29.272  14.152   3.299
42937W        W15197  35.036  12.209   3.253
42938W        W15198  38.936  10.685   0.738
42939W        W15199   2.308  36.996   3.315
42940W        W15200   8.241  29.166   3.734
42941W        W15201   1.521   2.589   1.529
42942W        W15202  28.834   4.127  10.580
42943W        W15203  33.883   5.853  10.427
42944W        W15204  18.071  13.795   2.839
42945W        W15205  43.920   8.230  12.583
42946W        W15206  17.320   1.624   4.254
42947W        W15207  44.279   9.092   1.257
42948W        W15208  13.244   5.423   0.262
42949W        W15209   4.649  16.023  12.261
42950W        W15210   6.228  13.856   3.273
42951W        W15211  21.628  15.978   4.023
42952W        W15212  24.044  19.520  11.964
42953W        W15213   9.026  29.999   4.135
42954W        W15214   8.787  30.576  14.713
42955W        W15215  24.084  17.763  10.782
42956W        W15216   1.250  10.398  11.257
42957W        W15217  11.854  11.600  12.322
42958W        W15218   2.265  17.402  14.762
42959W        W15219  26.493  27.436  11.981
42960W        W15220   5.264  22.806  11.649
42961W        W15221   9.812   3.226  13.085
42962W        W15222   2.397  40.201  14.961
42963W        W15223  40.365  42.267  11.565
42964W        W15224  16.605  30.102  11.608
42965W        W15225  41.913  10.101   9.904
42966W        W15226   0.131  26.632  10.137
42967W        W15227  19.844  39.415  14.400
42968W        W15228  32.697  22.662   4.408
42969W        W15229   7.110  43.745   1.309
42970W        W15230  32.024   1.808  11.429
42971W        W15231  10.606  43.804   0.237
42972W        W15232  29.593  28.429   0.875
42973W        W15233  29.130   5.124   2.409
42974W        W15234   6.396   3.446  14.775
42975W        W15235  16.068  22.687  11.631
42976W        W15236   1.428   4.648  11.339
42977W        W15237   3.864  44.863   3.790
42978W        W15238  13.895  34.600   3.172
42979W        W15239  28.783  25.164   1.949
42980W        W15240   4.713  13.698   0.373
42981W        W15241  30.927  20.053  13.140
42982W        W15242  24.826  14.181  11.930
42983W        W15243   8.832   3.862   5.201
42984W        W15244  26.566  13.854  12.493
42985W        W15245   4.275  40.648  10.725
42986W        W15246  21.885  15.222  12.509
42987W        W15247  10.208  26.437  13.962
42988W        W15248  33.719  39.963   3.726
42989W        W15249  11.159  23.177   4.046
42990W        W15250  34.012  44.359   4.800
42991W        W15251  37.316  20.217  14.318
42992W        W15252   5.729  27.207  11.136
42993W        W15253  15.292  27.559  13.581
42994W        W15254  21.536  24.659  13.566
42995W        W15255   6.281   0.219   4.660
42996W        W15256  12.856   5.177   4.538
42997W        W15257  15.855  38.777  13.358
42998W        W15258  42.012   5.420  11.561
42999W        W15259  33.566  23.202  10.826
43000W        W15260  37.660  21.563   1.877
43001W        W15261  25.496  18.011  11.180
43002W        W15262  25.068   7.420  11.993
43003W        W15263   8.244   9.573   0.939
43004W        W15264  34.962  12.854  13.535
43005W        W15265   5.143   0.475   2.212
43006W        W15266  35.006  31.105  13.343
43007W        W15267  34.888   7.648  11.865
43008W        W15268  14.606   1.686   4.147
43009W        W15269  36.043  21.105  12.179
43010W        W15270   4.841  30.643   2.635
43011W        W15271  34.561  18.927   1.500
43012W        W15272  40.259  26.591   2.753
43013W        W15273  20.064  41.290   0.866
43014W        W15274  39.461  14.530  10.727
43015W        W15275  20.533  28.496  14.480
43016W        W15276  26.411  36.454  12.983
43017W        W15277  21.148   8.576  12.002
43018W        W15278  29.112   2.220  11.634
43019W        W15279  16.695  18.093  10.339
43020W        W15280   2.175  10.276  10.008
43021W        W15281  25.942  27.650   2.448
43022W        W15282  23.180  40.429  14.817
43023W        W15283  36.024  44.719  13.895
43024W        W15284   2.215  11.556  13.126
43025W        W15285  13.840  17.112   4.337
43026W        W15286  35.542  44.091  12.387
43027W        W15287   9.081  36.689  11.525
43028W        W15288  44.598  16.610  14.573
43029W        W15289  30.072  13.396  11.721
43030W        W15290  21.195  10.715   2.383
43031W        W15291  30.625  29.944   0.717
43032W        W15292   8.378  33.359  10.712
43033W        W15293  44.751  33.069  12.939
43034W        W15294  13.231  38.520  12.316
43035W        W15295  42.547  36.285   0.912
43036W        W15296  38.401  23.423   1.259
43037W        W15297  23.074   2.282  14.706
43038W        W15298  19.530  20.491   3.270
43039W        W15299  44.420  36.030   0.509
43040W        W15300  18.635  38.823   3.120
43041W        W15301  39.271  13.984   3.559
43042W        W15302  23.563  41.598   4.171
43043W        W15303  34.083  14.787   3.783
43044W        W15304  11.932  34.404  10.713
43045W        W15305  42.171  43.789  13.448
43046W        W15306  17.194  44.332   3.376
43047W        W15307  24.183  41.453  12.441
43048W        W15308   0.008  22.105  14.392
43049W        W15309  18.403   9.749   0.597
43050W        W15310  14.710  30.209   4.606
43051W        W15311   9.409  15.742   2.018
43052W        W15312   9.605  21.618  11.655
43053W        W15313  32.535  26.922   0.840
43054W        W15314   2.919   4.432   4.437
43055W        W15315  32.107  20.583  12.948
43056W        W15316  40.021  21.700  14.734
43057W        W15317  37.356  18.089  14.946
43058W        W15318  29.504  27.268   4.259
43059W        W15319  19.773   0.888   0.466
43060W        W15320  13.763  33.030   2.027
43061W        W15321  44.830  18.022   0.980
43062W        W15322  16.523  29.184  11.389
43063W        W15323   4.747  10.842   1.254
43064W        W15324  26.444   6.408   4.663
43065W        W15325  13.869  35.087  13.533
43066W        W15326  11.741  43.054   4.645
43067W        W15327  17.060  18.572   4.108
43068W        W15328  39.533  21.979  12.138
43069W        W15329  21.420  31.062   1.487
43070W        W15330  31.001  20.958   2.667
43071W        W15331  13.452  22.553   0.299
43072W        W15332  17.853  40.300   1.775
43073W        W15333  42.707  10.669  14.396
43074W        W15334  35.080  38.731  11.973
43075W        W15335   9.881   9.859  12.861
43076W        W15336  36.515  40.480  11.558
43077W        W15337  38.629  41.879  14.861
43078W        W15338  29.177  31.983  10.190
43079W        W15339  10.275  29.924   2.779
43080W        W15340  30.076  26.599  11.826
43081W        W15341  13.316   8.083  11.599
43082W        W15342  29.208  40.928   0.231
43083W        W15343  27.533  14.630  13.118
43084W        W15344  16.642  29.821  11.176
43085W        W15345  30.165  31.450   0.256
43086W        W15346  22.902  14.634   4.086
43087W        W15347  31.016  42.407  12.472
43088W        W15348  30.221  41.854  10.665
43089W        W15349  14.857  38.351   2.392
43090W        W15350   5.459  13.070  10.648
43091W        W15351   0.776  35.340  11.004
43092W        W15352  15.593  39.115  13.741
43093W        W15353  20.165  13.223  13.067
43094W        W15354   4.027  19.588   5.031
43095W        W15355  27.727  34.615   3.113
43096W        W15356  14.897  33.359   1.370
43097W        W15357  27.031  18.282   3.897
43098W        W15358  37.443  13.334   0.598
43099W        W15359   1.235  17.314   2.835
43100W        W15360  15.289  16.507   4.061
43101W        W15361  26.926  41.409   2.821
43102W        W15362  12.051  25.948  13.840
43103W        W15363  11.838  26.006   1.186
43104W        W15364  41.540  27.020   4.792
43105W        W15365  11.697   4.790   3.678
43106W        W15366  43.030  20.917   1.557
43107W        W15367  44.224  27.513  12.149
43108W        W15368  23.678  23.812   2.190
43109W        W15369  15.548  26.083   1.260
43110W        W15370  28.025   9.386  10.846
43111W        W15371  24.569  17.927   4.824
43112W        W15372  37.345  24.866  13.381
43113W        W15373  16.792  33.331   1.346
43114W        W15374   1.418  23.970  10.688
43115W        W15375  12.873  27.942   0.654
43116W        W15376  29.892  31.527   1.147
43117W        W15377  20.191  40.492   2.193
43118W        W15378  31.030  30.454   2.777
43119W        W15379  31.139   3.751  12.363
43120W        W15380  44.040  31.521  10.463
43121W        W15381  17.579  20.491   3.248
43122W        W15382   6.683  14.064   1.478
43123W        W15383   2.192  17.178  10.651
43124W        W15384  42.032  21.000  11.930
43125W        W15385  32.508  14.993  14.769
43126W        W15386  21.541  28.232  10.181
43127W        W15387  40.006  34.178  12.845
43128W        W15388  23.914   1.452   0.322
43129W        W15389  43.562  43.807  11.154
43130W        W15390  14.037   8.700  13.977
43131W        W15391  19.442  10.194  13.765
43132W        W15392  17.722  26.434  13.431
43133W        W15393  38.920   1.633   3.131
43134W        W15394  30.976   0.811  10.428
43135W        W15395  11.410  21.611  11.878
43136W        W15396  40.597  34.380  14.667
43137W        W15397   0.770  10.984   4.114
43138W        W15398  17.597   9.785   4.701
43139W        W15399  18.761  34.033   3.686
43140W        W15400  17.204  29.063   3.086
43141W        W15401   0.252   3.759  12.588
43142W        W15402  44.346  34.612   2.697
43143W        W15403  20.997  23.572   0.448
43144W        W15404  39.202  27.326   1.825
43145W        W15405  42.775  37.714  11.267
43146W        W15406  33.224  36.158   9.969
43147W        W15407   0.246  32.604  13.209
43148W        W15408  39.827   9.899  12.043
43149W        W15409   3.508  41.567   5.094
43150W        W15410  18.320  29.669  11.139
43151W        W15411  16.287   5.220   3.164
43152W        W15412  29.242  42.447   0.838
43153W        W15413  19.174  34.791   2.059
43154W        W15414   7.509   3.785   0.438
43155W        W15415  11.353  20.823  11.947
43156W        W15416  26.359  12.229   3.715
43157W        W15417  10.228  25.555  14.806
43158W        W15418  30.778  38.071  14.738
43159W        W15419  24.578  23.451   2.266
43160W        W15420  11.682   6.932  14.910
43161W        W15421   0.866  20.177  10.697
43162W        W15422  14.555   6.266  14.396
43163W        W15423  34.527  32.685   2.686
43164W        W15424  31.072  40.459   3.275
43165W        W15425  10.951  36.967  14.935
43166W        W15426  10.132  39.320  10.701
43167W        W15427  22.185   4.220   2.323
43168W        W15428  33.144  23.979  13.419
43169W        W15429  40.633  11.568  13.932
43170W        W15430   3.811   2.471  13.902
43171W        W15431  19.990  25.259  14.336
43172W        W15432  17.049   1.296   2.751
43173W        W15433  11.444   2.103   0.447
43174W        W15434   0.746  40.438  12.868
43175W        W15435  30.491  17.656  11.157
43176W        W15436   5.688   9.639   3.301
43177W        W15437   3.673   2.090   3.306
43178W        W15438  21.709  29.325  11.564
43179W        W15439  35.440   3.474   2.772
43180W        W15440  14.196  36.898  12.871
43181W        W15441  24.084  13.908   1.736
43182W        W15442  42.861  39.755   3.294
43183W        W15443  42.509   8.634  13.331
43184W        W15444  27.013  39.927   1.231
43185W        W15445   4.963  21.046   2.313
43186W        W15446   7.404  13.613   0.362
43187W        W15447  28.293  23.674   4.954
43188W        W15448  10.483  11.534   5.026
43189W        W15449  22.050  15.794   1.800
43190W        W15450  22.367  10.893   0.204
43191W        W15451  25.885  44.497   0.334
43192W        W15452  16.148   1.423  10.710
43193W        W15453  12.133   9.191   1.783
43194W        W15454  32.054  27.170  10.739
43195W        W15455  32.437  24.920  14.032
43196W        W15456  30.044   3.702   3.325
43197W        W15457  11.606   1.779   2.706
43198W        W15458  40.924  32.085  13.406
43199W        W15459  37.997  28.863   4.626
43200W        W15460   6.329   5.898   2.757
43201W        W15461  17.173  29.937  14.561
43202W        W15462  32.124  18.332  12.863
43203W        W15463  27.999   0.576   0.756
43204W        W15464   6.771   0.300   1.200
43205W        W15465  40.980   6.068  12.487
43206W        W15466  23.584   2.843  14.257
43207W        W15467  29.065  26.528   1.942
43208W        W15468   6.617  43.870   1.158
43209W        W15469   0.011  34.576  13.298
43210W        W15470  39.640  37.947   0.347
43211W        W15471   5.613  38.673   0.751
43212W        W15472   6.971  16.229   4.811
43213W        W15473   6.750  21.793   0.530
43214W        W15474  32.673  28.133   1.414
43215W        W15475   6.285  24.472  13.582
43216W        W15476  15.047   4.339  14.756
43217W        W15477  34.444  41.623  13.880
43218W        W15478  20.999  21.983  10.180
43219W        W15479  37.409   5.358   3.964
43220W        W15480  37.001  43.324  12.899
43221W        W15481  39.431  34.144  13.494
43222W        W15482  23.420  26.751   2.199
43223W        W15483  32.263   7.621  10.867
43224W        W15484  40.466  16.231   4.262
43225W        W15485  12.152  30.865  12.280
43226W        W15486  35.671  36.293  11.306
43227W        W15487  13.725  20.302   3.985
43228W        W15488  25.620  33.642  11.030
43229W        W15489  43.860  31.594   4.236
43230W        W15490   1.858  41.025   2.427
43231W        W15491  27.645  29.543   2.966
43232W        W15492  41.816  44.322   4.497
43233W        W15493   7.013  31.932  10.865
43234W        W15494  44.517   4.302  14.269
43235W        W15495  23.784   0.907  11.494
43236W        W15496  35.777   7.719  11.081
43237W        W15497  24.908   9.831   1.177
43238W        W15498  14.817   5.349  13.788
43239W        W15499  18.687  17.503   4.112
43240W        W15500  23.035   2.775  12.575
43241W        W15501  24.547  32.545   2.578
43242W        W15502   6.867  29.182   5.087
43243W        W15503  22.538  20.611  11.576
43244W        W15504  27.926   7.233   4.119
43245W        W15505  13.802   0.307  13.111
43246W        W15506  12.817  12.787  12.661
43247W        W15507  16.659   7.671   5.178
43248W        W15508   4.485  20.830  13.938
43249W        W15509   2.987  30.397  12.085
43250W        W15510   5.416  37.113   1.080
43251W        W15511  26.199   0.982   0.862
43252W        W15512  17.227  10.653   2.021
43253W        W15513  30.977  27.441  14.752
43254W        W15514  18.171  27.643  11.378
43255W        W15515  18.512  22.156  10.539
43256W        W15516   2.566  12.502  13.496
43257W        W15517  40.879  16.695  11.280
43258W        W15518  33.058  11.302   1.798
43259W        W15519  29.665  24.266  11.135
43260W        W15520  43.352  30.454   3.893
43261W        W15521  30.006  37.993  10.359
43262W        W15522  18.024  39.774  11.127
43263W        W15523  28.033  14.336   0.873
43264W        W15524  19.159   4.122   0.322
43265W        W15525  35.986  23.013   1.533
43266W        W15526  27.376  42.098  11.024
43267W        W15527  14.177  44.745  10.892
43268W        W15528  30.685  41.026  10.433
43269W        W15529  24.017   2.875  13.555
43270W        W15530  44.371  32.496   3.345
43271W        W15531  10.753  23.252  12.427
43272W        W15532  38.355  30.559  13.344
43273W        W15533  40.042  37.598  12.143
43274W        W15534   5.344  34.130   2.865
43275W        W15535  16.132  41.463   2.377
43276W        W15536  10.644  30.901  10.856
43277W        W15537  20.838  25.218   1.858
43278W        W15538   5.972   5.873   1.730
43279W        W15539  22.092   2.028   2.440
43280W        W15540  17.180  42.042  12.109
43281W        W15541  31.202  24.977  14.320
43282W        W15542  29.948  26.141  12.012
43283W        W15543  26.627   1.076  12.403
43284W        W15544  23.149  23.426  11.183
43285W        W15545  17.120  15.854   2.391
43286W        W15546  18.702  28.186  10.846
43287W        W15547   8.718  25.790   0.965
43288W        W15548  16.077  14.200  10.579
43289W        W15549   0.949   8.467   1.506
43290W        W15550  17.243   3.748  12.081
43291W        W15551   4.624  39.656  10.305
43292W        W15552  11.384  30.918  14.858
43293W        W15553  26.088   2.252   2.358
43294W        W15554  39.999   4.284  11.849
43295W        W15555  40.223  41.059   1.921
43296W        W15556  18.838   6.345  13.980
43297W        W15557  10.986  11.187  11.187
43298W        W15558  22.119  40.363  11.516
43299W        W15559  10.894  37.556   2.908
43300W        W15560  33.189  21.340   4.033
43301W        W15561  35.005  27.540   3.937
43302W        W15562  29.529  13.190  13.762
43303W        W15563  30.433  10.596   3.403
43304W        W15564  42.269   8.481  13.807
43305W        W15565  17.469  12.887   0.224
43306W        W15566  19.264  16.882  13.855
43307W        W15567   3.362  20.783  12.438
43308W        W15568   3.799  31.288   0.481
43309W        W15569  22.144   2.455   1.888
43310W        W15570  34.522  42.612   1.694
43311W        W15571  26.546   6.159   0.239
43312W        W15572  42.344  16.316  14.657
43313W        W15573   8.348   4.893  12.544
43314W        W15574   3.010   3.989   2.616
43315W        W15575   9.266  26.372   4.874
43316W        W15576  41.838  38.997   0.064
43317W        W15577  22.845  16.443   0.123
43318W        W15578  40.010  39.792  11.990
43319W        W15579  12.321  10.808   2.698
43320W        W15580  11.557  19.463  12.421
43321W        W15581  14.615  28.137  13.840
43322W        W15582  31.453  35.145  12.995
43323W        W15583  41.616   4.008  14.927
43324W        W15584  41.345  14.822   4.312
43325W        W15585  27.149  43.490   4.721
43326W        W15586  37.617  18.306   1.200
43327W        W15587  33.979  41.333   4.663
43328W        W15588  44.110  14.761  14.830
43329W        W15589   3.435   3.762  13.545
43330W        W15590  13.164  31.336   5.412
43331W        W15591   2.692  36.613   2.400
43332W        W15592   6.237  16.719   2.393
43333W        W15593  17.656   6.231   2.889
43334W        W15594  29.409  33.585  11.107
43335W        W15595  37.383   2.267   0.519
43336W        W15596  28.354  37.906  11.979
43337W        W15597  15.474  20.389  12.383
43338W        W15598   8.582  25.244   0.024
43339W        W15599  15.925  25.034  11.609
43340W        W15600  40.160   6.342   1.837
43341W        W15601   2.525   1.565   4.251
43342W        W15602  34.296  24.985   2.688
43343W        W15603  12.124  19.909  10.280
43344W        W15604  36.089   6.907  14.435
43345W        W15605  29.306  35.050  12.982
43346W        W15606  22.127  32.937  13.394
43347W        W15607  14.093  10.255  10.686
43348W        W15608  20.917  19.727   3.180
43349W        W15609  37.079   9.713   0.239
43350W        W15610  22.797  44.805   3.106
43351W        W15611  38.682  32.900  14.696
43352W        W15612  35.426  11.072   2.708
43353W        W15613   4.785  22.117  12.506
43354W        W15614  14.511   4.905   4.526
43355W        W15615  31.328  26.496   9.920
43356W        W15616  37.082   5.429  11.107
43357W        W15617  34.057  16.624   1.798
43358W        W15618  33.635  14.657   4.172
43359W        W15619  36.913  17.289   2.882
43360W        W15620   6.893  13.500   2.808
43361W        W15621  39.047   7.095   4.700
43362W        W15622  31.945  25.090  11.598
43363W        W15623  44.230  39.545   4.625
43364W        W15624   7.199   9.695   0.977
43365W        W15625  28.660  27.003  14.154
43366W        W15626  31.661  27.889  14.493
43367W        W15627  12.742   5.048  14.064
43368W        W15628  31.686  43.470  12.977
43369W        W15629   4.234  34.576   4.141
43370W        W15630  25.588  41.420   2.379
43371W        W15631   4.736  23.129  10.979
43372W        W15632  41.852  43.208  11.090
43373W        W15633  27.736   7.419   3.655
43374W        W15634  39.796  30.743  13.796
43375W        W15635  11.531  37.911  14.716
43376W        W15636  14.134  28.976  14.970
43377W        W15637  19.337  36.038   3.454
43378W        W15638  26.265  18.113  10.758
43379W        W15639   5.181   7.710  13.432
43380W        W15640   3.795  12.225   0.661
43381W        W15641   5.469  21.583   4.897
43382W        W15642  18.993  22.169   2.361
43383W        W15643  35.850  25.556  13.881
43384W        W15644  36.320   3.479  13.946
43385W        W15645  29.987  30.513  10.665
43386W        W15646   1.117  33.274  14.804
43387W        W15647  27.631  33.612  14.600
43388W        W15648   7.873   7.872  12.570
43389W        W15649   6.652  11.827   2.176
43390W        W15650   0.843  18.040  12.139
43391W        W15651  25.178  35.432   4.190
43392W        W15652  41.523  16.160   2.296
43393W        W15653   7.196  10.670   0.559
43394W        W15654  37.027  28.378   1.625
43395W        W15655  32.164  18.230  14.281
43396W        W15656  35.553   7.333  11.578
43397W        W15657  25.628  11.328   4.786
43398W        W15658   2.897  29.088  14.019
43399W        W15659   0.807   6.696  12.478
43400W        W15660  40.696  17.905  12.821
43401W        W15661  27.642   8.671  13.982
43402W        W15662  29.819  17.753   3.753
43403W        W15663  43.415   1.216  10.533
43404W        W15664  11.028   3.220  14.471
43405W        W15665  16.703  39.514   1.346
43406W        W15666  31.824  13.327  11.382
43407W        W15667   0.944  35.413  13.070
43408W        W15668   1.241   3.928   0.354
43409W        W15669  40.104  22.395   3.909
43410W        W15670  38.930  44.366   0.272
43411W        W15671   2.737  25.160  14.037
43412W        W15672  18.209  41.608   1.259
43413W        W15673   2.865  10.865   2.137
43414W        W15674  40.045  38.881  11.046
43415W        W15675  20.702  29.646  12.874
43416W        W15676  30.791  30.883   4.153
43417W        W15677  25.545   5.888  13.845
43418W        W15678  19.499  17.776  12.896
43419W        W15679  26.224  12.399  12.027
43420W        W15680  14.347  40.810   0.051
43421W        W15681  12.293   7.447   3.748
43422W        W15682   5.456  26.657   0.777
43423W        W15683   9.407  14.813  14.208
43424W        W15684   4.712  16.752   4.563
43425W        W15685  18.498  22.685   4.176
43426W        W15686  16.062  20.880   1.130
43427W        W15687  30.011   0.120   2.882
43428W        W15688  25.993   8.914   0.431
43429W        W15689   6.663   7.446   0.858
43430W        W15690  34.291   8.725   3.208
43431W        W15691  20.231  11.154  11.102
43432W        W15692  10.696  16.636  12.902
43433W        W15693  26.039  13.742  11.674
43434W        W15694  32.728  28.178  13.998
43435W        W15695  15.614  23.057  12.816
43436W        W15696  35.339  15.737  10.751
43437W        W15697   6.836  41.581   3.657
43438W        W15698   7.879  28.442   0.643
43439W        W15699  41.603   1.654   2.823
43440W        W15700  43.752  32.491   0.039
43441W        W15701  40.817  44.899  13.893
43442W        W15702  10.573  12.282  12.540
43443W        W15703  35.740  21.234   2.960
43444W        W15704  22.158   0.257   4.452
43445W        W15705  30.981   8.908   2.815
43446W        W15706  24.066  31.664  13.349
43447W        W15707   5.369   4.884   3.116
43448W        W15708  31.017   0.456   3.720
43449W        W15709  19.787  11.232   3.736
43450W        W15710  43.181  23.181  10.638
43451W        W15711  28.166  21.929  11.484
43452W        W15712   7.299  44.713   1.449
43453W        W15713   9.652   1.403   4.782
43454W        W15714   0.794  28.006  13.379
43455W        W15715  35.884   1.318   2.148
43456W        W15716   7.343  28.686   3.704
43457W        W15717   9.311  39.949   2.649
43458W        W15718  28.293   4.640   2.182
43459W        W15719  33.807  10.725   2.153
43460W        W15720  40.603  35.215  10.647
43461W        W15721   3.315   3.388  13.960
43462W        W15722  32.434  33.054  13.992
43463W        W15723  41.766  17.061  12.657
43464W        W15724   4.344   5.737  10.580
43465W        W15725  27.544  28.009  13.097
43466W        W15726  25.917  40.275   4.282
43467W        W15727   5.887  27.539   3.626
43468W        W15728  26.047  38.599   3.158
43469W        W15729  11.832  15.183   3.653
43470W        W15730   0.248  21.539  10.546
43471W        W15731  27.677  23.254  12.935
43472W        W15732   4.414   5.993  11.030
43473W        W15733  23.906  21.174   3.659
43474W        W15734  21.598  16.698   0.469
43475W        W15735  22.651  11.797   0.226
43476W        W15736  37.325  10.365  14.366
43477W        W15737  14.735   0.492   1.734
43478W        W15738  30.879   8.987   5.086
43479W        W15739  17.697  17.294  14.278
43480W        W15740  10.158  37.590   4.681
43481W        W15741  42.800  44.886   4.779
43482W        W15742  32.597  37.932  13.420
43483W        W15743  44.246  25.762   2.334
43484W        W15744  28.787   2.140  12.977
43485W        W15745  39.208  19.024  11.105
43486W        W15746  30.525   1.304   1.777
43487W        W15747  19.901  10.897  12.103
43488W        W15748  44.259  41.039   1.812
43489W        W15749  16.775  44.809   1.858
43490W        W15750  13.984  43.167   4.405
43491W        W15751  43.667  25.144   9.977
43492W        W15752   3.386  35.880  12.459
43493W        W15753   4.495  40.768   1.573
43494W        W15754  32.107  36.212  13.264
43495W        W15755  22.320  26.285   3.827
43496W        W15756  33.367  22.060   1.332
43497W        W15757  16.010  21.684   4.612
43498W        W15758  29.068  21.483  11.697
43499W        W15759   6.608   1.409  13.741
43500W        W15760  37.855  42.790  12.892
43501W        W15761  11.017  14.171   3.747
43502W        W15762  16.312   8.335  14.480
43503W        W15763  21.157  29.600   4.960
43504W        W15764   4.826  38.711   3.156
43505W        W15765  29.661  38.565   0.485
43506W        W15766  28.979  36.676  12.067
43507W        W15767  23.974  43.877   1.403
43508W        W15768  15.652  33.914  13.743
43509W        W15769  14.662  21.846  11.695
43510W        W15770  37.847   8.835   4.525
43511W        W15771   1.946  21.802   3.726
43512W        W15772   4.457  21.846   3.564
43513W        W15773  23.753   8.370  11.077
43514W        W15774  29.879   2.250  14.924
43515W        W15775  12.864  20.201   3.800
43516W        W15776   7.176  19.260  13.798
43517W        W15777  12.350   6.456   1.484
43518W        W15778  18.744  44.198  12.305
43519W        W15779   7.719   5.407   0.433
43520W        W15780  38.520  24.228   4.861
43521W        W15781  29.898  37.053  12.044
43522W        W15782  37.293  13.715  10.646
43523W        W15783  27.058   6.689   1.254
43524W        W15784  36.441  24.225  12.904
43525W        W15785  31.626  42.564   2.595
43526W        W15786  14.503  43.451   1.274
43527W        W15787  27.606  41.986   1.319
43528W        W15788  42.450  12.086  11.622
43529W        W15789  23.236  43.464  11.677
43530W        W15790  11.191  26.502   9.963
43531W        W15791  26.749  18.319   2.883
43532W        W15792  30.519  42.566  11.172
43533W        W15793  30.564  28.894   2.229
43534W        W15794  21.590  20.118   4.390
43535W        W15795   7.083  40.862   2.636
43536W        W15796  31.339  26.719  14.420
43537W        W15797  38.038   8.114   0.496
43538W        W15798  14.773  13.651   1.651
43539W        W15799  14.707   8.150  12.571
43540W        W15800  34.902  15.489  13.018
43541W        W15801  16.801  30.625  14.283
43542W        W15802  27.157   8.697   0.192
43543W        W15803  19.028  37.136  11.662
43544W        W15804  36.008  27.516   3.143
43545W        W15805  35.940  41.174   2.786
43546W        W15806  11.121  10.130  13.242
43547W        W15807  21.161   2.480   4.450
43548W        W15808  43.701  43.925   0.933
43549W        W15809   3.365  10.562   2.166
43550W        W15810  33.717  31.881  11.587
43551W        W15811  17.742   7.445   2.253
43552W        W15812  44.458  22.169  12.982
43553W        W15813  44.950  10.412  14.676
43554W        W15814  38.017   4.835   0.941
43555W        W15815   6.187  39.752   2.893
43556W        W15816  44.375   8.376  12.378
43557W        W15817   0.658   9.630   3.248
43558W        W15818  19.228  44.758   3.366
43559W        W15819  31.520  15.113   0.275
43560W        W15820   1.654  31.981   2.283
43561W        W15821   0.275  13.160  12.031
43562W        W15822  11.895  35.157   3.077
43563W        W15823  44.971   3.921   3.872
43564W        W15824  30.224   1.365  14.853
43565W        W15825  31.899  23.491   3.637
43566W        W15826  19.574   1.182  14.017
43567W        W15827  30.530   8.193   1.778
43568W        W15828  26.494  30.831  13.330
43569W        W15829  24.683  14.256   0.289
43570W        W15830   5.656  18.832  10.678
43571W        W15831  42.998  15.969   4.143
43572W        W15832  39.426  30.571   2.686
43573W        W15833  31.832   9.126   0.928
43574W        W15834  18.517   7.917   9.488
43575W        W15835   7.402  17.694  11.247
43576W        W15836  10.094  18.998  14.956
43577W        W15837  43.300  44.250  13.416
43578W        W15838  34.428  10.704  14.995
43579W        W15839  24.665  35.849   1.382
43580W        W15840   7.449  40.312   0.001
43581W        W15841  34.479   8.206   3.259
43582W        W15842   0.902   2.864   3.080
43583W        W15843  35.898  22.935   1.019
43584W        W15844   6.796  21.256   4.123
43585W        W15845  39.671   0.038  10.688
43586W        W15846  35.097   2.354   4.080
43587W        W15847  24.058  36.083  13.229
43588W        W15848   1.197  35.549  14.994
43589W        W15849   3.592  22.566   3.761
43590W        W15850  28.058  29.866  12.001
43591W        W15851  42.490  39.363  11.614
43592W        W15852  21.235  28.980  12.419
43593W        W15853  35.260  28.596  14.761
43594W        W15854  25.175   2.968  14.524
43595W        W15855  16.618  10.052   1.736
43596W        W15856   6.556  32.768   2.729
43597W        W15857  22.019  12.314  14.333
43598W        W15858  19.518  29.260   2.314
43599W        W15859   5.860  20.314   3.963
43600W        W15860  44.883  13.770  11.540
43601W        W15861  14.668  32.106   3.517
43602W        W15862  43.231  28.127  14.459
43603W        W15863   9.673  11.844   3.217
43604W        W15864  10.640  33.834  10.685
43605W        W15865  43.212  27.456   3.554
43606W        W15866  20.234  19.484   1.722
43607W        W15867   0.184  37.038   2.376
43608W        W15868  21.023  26.582  12.860
43609W        W15869  37.804  41.807  12.046
43610W        W15870   4.942   3.873   2.437
43611W        W15871  44.728  40.051   0.920
43612W        W15872  13.165  30.045  14.014
43613W        W15873  29.227  34.455   1.398
43614W        W15874   2.397  19.147  14.515
43615W        W15875  27.678   9.990   2.267
43616W        W15876  32.525  13.788   1.376
43617W        W15877  34.996  25.666   4.099
43618W        W15878  28.892  29.184  14.589
43619W        W15879  38.485  10.755  10.712
43620W        W15880  31.074   5.138   0.623
43621W        W15881  11.368  34.847   2.189
43622W        W15882  31.953   0.344   2.761
43623W        W15883  38.386   0.185   1.669
43624W        W15884  37.371  40.821   3.128
43625W        W15885  12.041   5.485  10.691
43626W        W15886  22.616  30.456   4.682
43627W        W15887  31.542  44.272  10.677
43628W        W15888   8.969  20.919  14.792
43629W        W15889   8.523   3.462  12.967
43630W        W15890  35.074  42.236  14.444
43631W        W15891  36.780  10.881  13.533
43632W        W15892  24.672  23.029   4.765
43633W        W15893  23.912  27.884  14.407
43634W        W15894  15.683  27.419   3.645
43635W        W15895  31.523  27.593   3.534
43636W        W15896  39.604  26.494   1.823
43637W        W15897  40.619  13.097   0.943
43638W        W15898  20.305  20.691  13.808
43639W        W15899  43.050  11.424  13.471
43640W        W15900  30.541  28.931  11.029
43641W        W15901  41.333   9.225  13.874
43642W        W15902  25.025   9.268  11.660
43643W        W15903  43.996  24.112   4.537
43644W        W15904  14.869  24.842  12.454
43645W        W15905  11.869  15.825   2.227
43646W        W15906  44.453  22.609   5.518
43647W        W15907  41.972  41.383   3.080
43648W        W15908  22.540  25.529  12.873
43649W        W15909  41.392  31.621   1.919
43650W        W15910   8.343  17.631   0.967
43651W        W15911  39.250  18.554  14.826
43652W        W15912  31.178  35.128  14.951
43653W        W15913  23.070   2.876  12.074
43654W        W15914  17.721  43.670  11.028
43655W        W15915  25.691  18.777  11.476
43656W        W15916   9.419  39.373  11.495
43657W        W15917   2.811  36.792   4.213
43658W        W15918  35.654   6.527   0.745
43659W        W15919  38.524   2.436   2.220
43660W        W15920  21.893   5.871   3.665
43661W        W15921  39.887  12.295   2.282
43662W        W15922  40.026  18.763  14.435
43663W        W15923  40.694  39.575  14.332
43664W        W15924  28.724  40.859   0.472
43665W        W15925  21.681  39.528  11.893
43666W        W15926  15.154  28.437   0.335
43667W        W15927   0.511  12.170  12.386
43668W        W15928  32.596  23.958   1.040
43669W        W15929  30.283  41.202   3.305
43670W        W15930  43.366   9.396  12.606
43671W        W15931   9.301   7.364  12.904
43672W        W15932  27.712  36.566  11.522
43673W        W15933   6.388  20.018   1.357
43674W        W15934   2.865  27.029  11.998
43675W        W15935  33.468  40.853  14.447
43676W        W15936  35.019   2.279  13.411
43677W        W15937  22.031  26.610   2.587
43678W        W15938  38.686  12.234  10.955
43679W        W15939  34.184  25.818   2.740
43680W        W15940  35.426  23.251   3.475
43681W        W15941  23.121  37.006  14.384
43682W        W15942  15.131  12.187  13.064
43683W        W15943  39.864  40.597   3.833
43684W        W15944  14.376  24.328   3.637
43685W        W15945   4.927  12.841  12.173
43686W        W15946  12.605  28.457   2.796
43687W        W15947  15.178  15.588  12.445
43688W        W15948  26.126  39.044   0.804
43689W        W15949  14.957   9.129   1.130
43690W        W15950  36.484  41.327  12.948
43691W        W15951  38.819  22.108  14.178
43692W        W15952   2.093  14.217  14.974
43693W        W15953  43.925  22.761   3.294
43694W        W15954  22.155  15.207  11.978
43695W        W15955   2.294   8.967  10.474
43696W        W15956   5.699  25.542   0.405
43697W        W15957  39.283  36.503  12.190
43698W        W15958   4.788  25.699  13.400
43699W        W15959  12.779  36.204   1.763
43700W        W15960  35.515  25.035   3.263
43701W        W15961  43.760  41.958   2.626
43702W        W15962  38.562  42.438   2.825
43703W        W15963   1.800   4.943  10.733
43704W        W15964  12.753  37.469  12.641
43705W        W15965  31.214   6.338  13.602
43706W        W15966  33.054  24.202   2.752
43707W        W15967  11.354  17.272  13.095
43708W        W15968   4.777  32.897   3.160
43709W        W15969  10.780   1.157  10.798
43710W        W15970  37.024  34.129  13.048
43711W        W15971  29.965  44.855  12.937
43712W        W15972  28.443  30.392  12.500
43713W        W15973  19.203  40.272  13.505
43714W        W15974  40.909  21.639  13.803
43715W        W15975  18.613  34.602   0.300
43716W        W15976  20.826   7.875  14.341
43717W        W15977   5.166   1.421   4.230
43718W        W15978  15.804  34.534  12.429
43719W        W15979  27.938  11.941   2.761
43720W        W15980  36.447  14.834  10.679
43721W        W15981  40.520  36.756  13.356
43722W        W15982   4.658  28.114   5.680
43723W        W15983  23.876   7.166   1.364
43724W        W15984  21.373  19.975  13.554
43725W        W15985  31.140   1.262   0.161
43726W        W15986  23.918  12.963   4.773
43727W        W15987  41.494  18.719  11.705
43728W        W15988  37.615  14.770  11.721
43729W        W15989  40.586   5.675   2.292
43730W        W15990   6.510  27.632   0.859
43731W        W15991  40.572   1.253  13.937
43732W        W15992  11.331  35.455   2.432
43733W        W15993   6.157  37.529  14.458
43734W        W15994  32.028  22.233  11.622
43735W        W15995  25.511  19.480  11.057
43736W        W15996  37.799  28.937   1.259
43737W        W15997  13.787   4.298  11.896
43738W        W15998   8.659  25.779  12.933
43739W        W15999   9.737  41.808  11.417
43740W        W16000  25.882  44.527   4.730
43741W        W16001  28.869  10.573   0.438
43742W        W16002  40.555  42.016  12.534
43743W        W16003   4.170  44.755  14.477
43744W        W16004  37.798  38.052   0.391
43745W        W16005  44.059   1.231   2.374
43746W        W16006  15.558   0.850  11.131
43747W        W16007  24.976  22.501   3.447
43748W        W16008   4.527   0.845  11.538
43749W        W16009  26.149  41.524   4.663
43750W        W16010   0.419  26.663  14.997
43751W        W16011  22.727   4.688  13.281
43752W        W16012   5.586  18.697   3.223
43753W        W16013  32.421  13.222   4.665
43754W        W16014  12.789   0.696   2.426
43755W        W16015  23.613  16.465  14.075
43756W        W16016  14.190  25.002   0.710
43757W        W16017  34.840  26.241  12.937
43758W        W16018   2.394  26.834  12.941
43759W        W16019  18.304  42.720   0.412
43760W        W16020  33.467  27.492  13.866
43761W        W16021  40.475  33.671   4.250
43762W        W16022   1.317   7.585   2.874
43763W        W16023  31.056  44.107  14.925
43764W        W16024  27.030  17.320   1.766
43765W        W16025  41.420  20.685  10.702
43766W        W16026  11.284  29.447  11.139
43767W        W16027   0.335   9.821   4.207
43768W        W16028  18.811  17.068   2.166
43769W        W16029  34.024  37.318   0.402
43770W        W16030  19.567   5.349  12.132
43771W        W16031  34.545  21.754   9.725
43772W        W16032  27.981   5.945  13.834
43773W        W16033   4.157   0.398   3.361
43774W        W16034  19.510  17.155  14.905
43775W        W16035  26.506  15.585  14.039
43776W        W16036  43.186   6.547  14.471
43777W        W16037  40.053  35.829   2.711
43778W        W16038  22.478  43.983  12.036
43779W        W16039  12.850   1.286  11.894
43780W        W16040  15.694   1.857   0.952
43781W        W16041  34.581  11.287   4.042
43782W        W16042  24.476  13.798  12.140
43783W        W16043   5.951  41.825   0.634
43784W        W16044  37.838  20.188   2.248
43785W        W16045  39.953  33.574  14.785
43786W        W16046  28.935   7.178   0.405
43787W        W16047  34.362   7.120   1.387
43788W        W16048  33.096   1.753  10.725
43789W        W16049   9.656  37.801   3.954
43790W        W16050   7.509  26.869   1.797
43791W        W16051  40.328   2.965   3.177
43792W        W16052  32.373  42.981  14.599
43793W        W16053  35.918  18.560   5.507
43794W        W16054  41.850  36.451  11.647
43795W        W16055   6.020  20.084  12.377
43796W        W16056  32.767  36.613  12.841
43797W        W16057  39.699  20.082  12.821
43798W        W16058  20.729  19.637   1.792
43799W        W16059  29.317   0.808  11.197
43800W        W16060  23.525  17.113  14.723
43801W        W16061  44.184  26.956   0.109
43802W        W16062  32.024  37.500   4.162
43803W        W16063  13.729  19.635  13.284
43804W        W16064  30.494  28.472  13.093
43805W        W16065  26.220  21.640   3.696
43806W        W16066  15.246  37.293   3.701
43807W        W16067  42.999  14.777   5.139
43808W        W16068   7.751   0.928  13.379
43809W        W16069  20.214  19.639  14.303
43810W        W16070  11.858  14.698  11.565
43811W        W16071  29.597  41.726  10.496
43812W        W16072   4.760  18.581  12.130
43813W        W16073  43.063  10.260  10.727
43814W        W16074  15.221  23.976  12.782
43815W        W16075  21.703  33.522  10.764
43816W        W16076  39.149  38.059   3.791
43817W        W16077  38.173  19.476  14.856
43818W        W16078  28.678  30.604  14.235
43819W        W16079  34.037  20.604   2.749
43820W        W16080  40.481   3.280   4.612
43821W        W16081   7.110   8.805   4.149
43822W        W16082  41.513  34.829  13.854
43823W        W16083  12.698   8.228   4.620
43824W        W16084  25.022   4.245  13.915
43825W        W16085  12.621   6.135   1.795
43826W        W16086  28.205   5.501   3.297
43827W        W16087  27.988  14.809   4.690
43828W        W16088  41.827  14.297  10.805
43829W        W16089  15.134  39.074   1.941
43830W        W16090  20.552  34.587   1.174
43831W        W16091  30.668  42.468   0.324
43832W        W16092   7.894  38.790   2.173
43833W        W16093  32.644  38.940   1.338
43834W        W16094  16.086  28.485   4.673
43835W        W16095  20.673   6.872   4.605
43836W        W16096  23.496  13.061  11.215
43837W        W16097  39.446  27.852  10.527
43838W        W16098  15.011  16.393   3.631
43839W        W16099   2.009  22.536   5.185
43840W        W16100  28.637  18.979   2.860
43841W        W16101  34.978   1.260   1.658
43842W        W16102  40.454  11.788   0.145
43843W        W16103  31.766   4.625  11.495
43844W        W16104  21.300  39.432   2.254
43845W        W16105  24.965  42.259   2.752
43846W        W16106  10.255  31.615  14.922
43847W        W16107  38.344  39.799  12.777
43848W        W16108  15.053  22.602  14.409
43849W        W16109  10.252  25.745   2.224
43850W        W16110  30.512  16.330   0.788
43851W        W16111   6.998  34.001   2.719
43852W        W16112   9.032  42.439  13.886
43853W        W16113  44.386  19.289  13.437
43854W        W16114  43.069  37.825   3.731
43855W        W16115  37.604  20.442   5.116
43856W        W16116  40.525  38.081   4.610
43857W        W16117  40.594   7.289  12.112
43858W        W16118   1.277  28.981   1.268
43859W        W16119  38.007  44.848   1.541
43860W        W16120   1.786  14.139  10.747
43861W        W16121  15.054  17.956  11.461
43862W        W16122  30.512  44.404  11.736
43863W        W16123  35.177  19.543   1.932
43864W        W16124   5.838  15.304   1.630
43865W        W16125  27.552  30.489   5.549
43866W        W16126   2.825  15.184  11.514
43867W        W16127  17.123  26.597   3.230
43868W        W16128  22.512  41.583   2.224
43869W        W16129  44.318  25.586  11.660
43870W        W16130  37.312  12.918  14.288
43871W        W16131  11.694  44.339   4.653
43872W        W16132   9.218  16.121  14.655
43873W        W16133   6.888  24.399  10.514
43874W        W16134   2.567  37.554   2.429
43875W        W16135  12.107  12.752  13.256
43876W        W16136  29.525  42.732   1.727
43877W        W16137  31.676  25.495  14.967
43878W        W16138  42.840  34.621   2.424
43879W        W16139  19.756  17.855   2.666
43880W        W16140  19.107  16.897  10.950
43881W        W16141   8.783   6.252  10.628
43882W        W16142  26.155  23.175   0.506
43883W        W16143  17.552  26.996   3.824
43884W        W16144  23.185  18.780  11.969
43885W        W16145  16.556  17.290   1.878
43886W        W16146   0.339   3.762   3.128
43887W        W16147  10.751   6.146  12.611
43888W        W16148  27.184  10.791   3.644
43889W        W16149  24.484  40.462  12.866
43890W        W16150  10.081  41.733   4.966
43891W        W16151  42.389  10.738  14.812
43892W        W16152  31.211  16.987  14.864
43893W        W16153  21.957  24.235   3.623
43894W        W16154   4.295  30.618  13.407
43895W        W16155   5.976  21.362   2.135
43896W        W16156  39.300   3.672  12.013
43897W        W16157  32.988  24.987   3.647
43898W        W16158  40.637   1.364  11.581
43899W        W16159  15.875   9.278  11.243
43900W        W16160  34.825  37.916   3.235
43901W        W16161   2.510   5.868   1.220
43902W        W16162   8.913  30.947  11.148
43903W        W16163  11.583  44.817   3.951
43904W        W16164   0.754  44.297  14.020
43905W        W16165  26.708  21.995   0.771
43906W        W16166  32.870  27.384   1.624
43907W        W16167  30.423  12.291  13.568
43908W        W16168  28.141   4.294   3.206
43909W        W16169  20.779  34.541  12.889
43910W        W16170   9.298  15.227  11.710
43911W        W16171   9.653  18.595   4.053
43912W        W16172  15.185  12.823  10.495
43913W        W16173  34.043  10.036  10.300
43914W        W16174  12.311   1.622  12.512
43915W        W16175  11.393   3.793  12.533
43916W        W16176   2.024  26.966  11.588
43917W        W16177  33.602  23.027   0.366
43918W        W16178   1.314   1.825   2.633
43919W        W16179  36.598   5.237   1.875
43920W        W16180  41.497  18.825  11.210
43921W        W16181  42.829  37.924  12.274
43922W        W16182  18.478   3.720  11.617
43923W        W16183  24.145   2.033  10.856
43924W        W16184  10.250  14.194  12.124
43925W        W16185  37.269  13.193  10.628
43926W        W16186  29.999  26.175  11.159
43927W        W16187  38.438  40.987   0.939
43928W        W16188  28.982  31.072  11.919
43929W        W16189  13.605  23.481   2.886
43930W        W16190   3.888   2.986  10.579
43931W        W16191   3.293  11.267   2.867
43932W        W16192  31.647   6.911  11.697
43933W        W16193  21.518   2.973  13.384
43934W        W16194  41.163   9.142   0.469
43935W        W16195  21.183  44.744   4.033
43936W        W16196   3.946  38.620  12.499
43937W        W16197  13.588  15.423  10.497
43938W        W16198  37.384   1.925   4.629
43939W        W16199  33.549  32.538   1.930
43940W        W16200  37.495  12.219   1.694
43941W        W16201  37.955  38.015   1.415
43942W        W16202  22.992  11.354  13.012
43943W        W16203  30.863  39.911  13.533
43944W        W16204  13.698  29.898  11.937
43945W        W16205  35.481   7.579  12.017
43946W        W16206  15.671  25.494  10.746
43947W        W16207   8.150  35.481  14.410
43948W        W16208  18.289  27.552  13.732
43949W        W16209   4.535  26.742  14.834
43950W        W16210  25.053  16.939  12.533
43951W        W16211  30.945  41.843   2.780
43952W        W16212  19.164  18.165  12.985
43953W        W16213  37.552  21.130  13.778
43954W        W16214  17.280  20.837   2.864
43955W        W16215  13.675   9.652  12.338
43956W        W16216   5.209  27.514   4.356
43957W        W16217   3.000  27.655  14.056
43958W        W16218  40.243  42.805   1.690
43959W        W16219   0.329  25.644   1.731
43960W        W16220   0.747  25.255   3.850
43961W        W16221   6.937  37.415  14.965
43962W        W16222  43.313  14.311   2.262
43963W        W16223   1.475  31.418   4.001
43964W        W16224   4.811  23.405  10.523
43965W        W16225  21.956  23.078  14.071
43966W        W16226  28.425  31.983  13.077
43967W        W16227  15.417  13.804  14.214
43968W        W16228   8.822  25.189  10.729
43969W        W16229   1.472  25.557   1.160
43970W        W16230  31.647  36.901  11.754
43971W        W16231  13.264  17.381   3.776
43972W        W16232   6.218  10.254   1.432
43973W        W16233  19.433  20.626   4.637
43974W        W16234  29.103  10.322   0.855
43975W        W16235  25.550  32.943   3.786
43976W        W16236   8.194  29.455   3.262
43977W        W16237  24.146  22.041   0.370
43978W        W16238  14.138  23.108   2.396
43979W        W16239  21.693  42.300   3.690
43980W        W16240  25.183  10.818   3.047
43981W        W16241  30.156  10.728  13.346
43982W        W16242  33.527   4.185   4.522
43983W        W16243  10.677  37.904   2.190
43984W        W16244  35.222   9.747  12.442
43985W        W16245  42.000  41.553   1.429
43986W        W16246  13.764  40.849   2.423
43987W        W16247  14.031  44.945   3.217
43988W        W16248  44.456   2.776  14.879
43989W        W16249  37.140   2.349   1.775
43990W        W16250   4.428  35.029  13.554
43991W        W16251  28.827  44.858  13.742
43992W        W16252  43.513   5.025   0.388
43993W        W16253  30.761  21.630   4.720
43994W        W16254  31.380  22.818   0.744
43995W        W16255   1.389  36.850   3.564
43996W        W16256  21.107  12.132  12.577
43997W        W16257  20.913  41.870  12.446
43998W        W16258  36.141  20.691   0.843
43999W        W16259  21.367   0.351   0.820
44000W        W16260  31.163  20.712   2.227
44001W        W16261  17.849  25.091   4.085
44002W        W16262  31.904  19.292   0.660
44003W        W16263   9.617  24.281   3.695
44004W        W16264  16.898   7.302  14.988
44005W        W16265   4.800  26.764   5.025
44006W        W16266  14.649  33.536  10.705
44007W        W16267  26.420  10.210   1.761
44008W        W16268  18.882  28.469   2.155
44009W        W16269   9.396  11.839  10.750
44010W        W16270  36.146  18.776   3.761
44011W        W16271  14.367  35.982   0.769
44012W        W16272  34.343  30.248  12.836
44013W        W16273  44.682   0.924  14.446
44014W        W16274  41.245  25.563  10.689
44015W        W16275   9.224  16.199   0.168
44016W        W16276  43.391  30.451   3.384
44017W        W16277  19.252  43.610  14.846
44018W        W16278  31.935  43.366  11.054
44019W        W16279  18.657  22.757  11.331
44020W        W16280  18.818   8.742  10.006
44021W        W16281   3.210  37.020   1.321
44022W        W16282  27.864  11.317   4.098
44023W        W16283  22.399  13.678  14.358
44024W        W16284  13.867  13.849   2.514
44025W        W16285  30.697   0.515   3.274
44026W        W16286  15.796  41.512  12.066
44027W        W16287  11.278   7.800   2.750
44028W        W16288  35.426   9.231   1.954
44029W        W16289  18.516  18.565   0.187
44030W        W16290   4.341  36.668  14.519
44031W        W16291   2.049   9.850  10.752
44032W        W16292  16.211   7.675  10.664
44033W        W16293  15.960   1.265   0.331
44034W        W16294   8.710  37.119  14.177
44035W        W16295   9.852  22.670   1.246
44036W        W16296  27.988  24.627  11.949
44037W        W16297  14.465  26.077   1.626
44038W        W16298   0.863  42.488  11.579
44039W        W16299  12.654  31.918  13.343
44040W        W16300  21.675  18.929   4.075
44041W        W16301  36.513  12.694  10.634
44042W        W16302  35.600  22.675   1.450
44043W        W16303  22.448  33.116  14.313
44044W        W16304  36.226   8.969  11.113
44045W        W16305  15.317  15.815   1.757
44046W        W16306   9.670  38.809  14.447
44047W        W16307  34.817  32.065   2.726
44048W        W16308  26.600   9.409  14.810
44049W        W16309  14.295  25.085  13.306
44050W        W16310  42.347  43.473   2.794
44051W        W16311  23.132  24.131  12.095
44052W        W16312   5.809  31.641   2.690
44053W        W16313   6.325  31.778   0.407
44054W        W16314  42.076  28.935  14.769
44055W        W16315  34.914  25.196  11.357
44056W        W16316  17.566   7.140   3.524
44057W        W16317  32.585   9.195   4.636
44058W        W16318  15.502  34.054   3.700
44059W        W16319  13.292  10.376  11.142
44060W        W16320  15.940  22.631   0.323
44061W        W16321   1.425  35.984   4.518
44062W        W16322  19.011  44.559  14.432
44063W        W16323  16.784  33.145   0.864
44064W        W16324  38.192  34.493  11.580
44065W        W16325  44.723  13.187   2.931
44066W        W16326  35.999  35.573   0.787
44067W        W16327  32.563  14.839   1.279
44068W        W16328  14.756  39.541   0.308
44069W        W16329   0.850  33.920   3.192
44070W        W16330  16.945   7.336   4.134
44071W        W16331   5.914  14.597  14.476
44072W        W16332   8.132  21.588   2.377
44073W        W16333  41.965  22.985  13.014
44074W        W16334  24.538  32.166  12.421
44075W        W16335  36.977   2.398  11.623
44076W        W16336   5.721  30.547  10.809
44077W        W16337   8.443  10.756  11.719
44078W        W16338  19.750  38.308  11.727
44079W        W16339   2.932   2.793   4.649
44080W        W16340  18.605  40.955   3.479
44081W        W16341   6.887  30.456   1.793
44082W        W16342  33.717  34.625  12.418
44083W        W16343  11.203   4.639   3.623
44084W        W16344  41.531  23.487   3.810
44085W        W16345  10.551  16.338   1.925
44086W        W16346  12.277   8.413   2.415
44087W        W16347  24.295  11.597   2.329
44088W        W16348  22.370   0.377   3.409
44089W        W16349  35.462  44.888  13.007
44090W        W16350  28.483  27.135   4.578
44091W        W16351  40.884  26.035  11.353
44092W        W16352  31.976   6.142  12.052
44093W        W16353  20.778  23.194   4.151
44094W        W16354   5.734  38.943  10.381
44095W        W16355  30.228   1.268  13.479
44096W        W16356   1.466  27.541  12.024
44097W        W16357  26.461  26.483  11.955
44098W        W16358  26.174  31.475  14.308
44099W        W16359   9.164  26.178  11.615
44100W        W16360   6.012  29.519  12.562
44101W        W16361  42.040  17.962   0.281
44102W        W16362  43.820  36.170  13.907
44103W        W16363  37.375  35.119  13.925
44104W        W16364  38.641  29.007   0.863
44105W        W16365   7.882  42.628   2.756
44106W        W16366  39.366  20.510  11.043
44107W        W16367  42.565  14.261   3.133
44108W        W16368  16.396  41.096  10.998
44109W        W16369  39.779  44.915  13.779
44110W        W16370  17.710   4.835  13.525
44111W        W16371   0.768  11.839  14.327
44112W        W16372  37.123  17.274   4.650
44113W        W16373   6.550  27.726   5.128
44114W        W16374  10.057  36.918   0.282
44115W        W16375  17.089   3.230  13.537
44116W        W16376   9.159   1.349   2.639
44117W        W16377  22.062  40.778   2.864
44118W        W16378  29.466  32.583   5.114
44119W        W16379  11.996  27.409   2.478
44120W        W16380  39.540  22.218  13.479
44121W        W16381  38.825  28.433  11.031
44122W        W16382   8.651  20.988   3.672
44123W        W16383  44.128  24.071   2.689
44124W        W16384   5.427   3.913  11.116
44125W        W16385  34.067  44.468  13.099
44126W        W16386  21.619   0.386  14.405
44127W        W16387   6.686  26.712   0.372
44128W        W16388   1.892   6.483   1.870
44129W        W16389  22.745  38.140   2.251
44130W        W16390  42.444  43.351  11.682
44131W        W16391  22.892  39.992  11.496
44132W        W16392  16.748  13.837  10.904
44133W        W16393  18.811   4.238  12.470
44134W        W16394   2.002  17.217   3.212
44135W        W16395  40.275   4.318   1.992
44136W        W16396   2.688  39.442   4.920
44137W        W16397  27.819   4.768   2.305
44138W        W16398  36.787  38.986   3.164
44139W        W16399  19.358   4.902   4.786
44140W        W16400   9.756  20.626   3.887
44141W        W16401  21.452  10.871  13.899
44142W        W16402  22.067  37.543   2.414
44143W        W16403  17.366  35.825   2.388
44144W        W16404  15.678  12.572   1.710
44145W        W16405   6.930  39.533   0.585
44146W        W16406  32.963   9.913   2.151
44147W        W16407   8.403   3.484   5.159
44148W        W16408  37.538  32.958  13.520
44149W        W16409  27.604  24.149   1.015
44150W        W16410  43.037  24.494   0.504
44151W        W16411  16.849  42.880  14.486
44152W        W16412  23.749  23.436  11.175
44153W        W16413   8.837  30.718   4.228
44154W        W16414  32.099  22.282   0.485
44155W        W16415  10.660   4.449  10.367
44156W        W16416  19.070  32.968   2.654
44157W        W16417   1.204   3.287   4.168
44158W        W16418  26.743  30.385  11.957
44159W        W16419   0.360  29.666   1.858
44160W        W16420  40.293  39.583   2.887
44161W        W16421   7.948  38.438  14.950
44162W        W16422  16.710   3.754  14.903
44163W        W16423  41.574  43.476   4.578
44164W        W16424  18.262  38.285  13.333
44165W        W16425   0.620  30.713   5.007
44166W        W16426  40.598  22.071   4.679
44167W        W16427  18.343  41.331   3.763
44168W        W16428  39.846   2.703   1.377
44169W        W16429  13.767   0.631   0.449
44170W        W16430  33.523  35.950   1.757
44171W        W16431   4.575  31.796   3.552
44172W        W16432   2.831  35.433  11.596
44173W        W16433   8.256  20.045  12.961
44174W        W16434  29.574  40.492  14.988
44175W        W16435  27.502  41.402   0.738
44176W        W16436  33.417  34.803  11.504
44177W        W16437   5.668  25.745   9.792
44178W        W16438  23.297   2.770   3.760
44179W        W16439  43.798   2.785   3.665
44180W        W16440  18.821  14.723   2.184
44181W        W16441  28.761  15.588  13.427
44182W        W16442  23.437   1.209   0.424
44183W        W16443  42.068   3.261   3.739
44184W        W16444  38.952  10.839  10.483
44185W        W16445  23.691  24.724  13.072
44186W        W16446  27.685  25.975  10.669
44187W        W16447  39.294  30.728  13.686
44188W        W16448   4.536  35.388   3.684
44189W        W16449   4.728  42.855   4.999
44190W        W16450  34.921  27.150  12.887
44191W        W16451   3.111  18.698  14.404
44192W        W16452  33.614  40.602   1.705
44193W        W16453  18.716  15.588  12.005
44194W        W16454   7.376  27.591   1.400
44195W        W16455  27.721  38.133   2.274
44196W        W16456  24.004  27.548   4.264
44197W        W16457  12.812  38.854   4.553
44198W        W16458  25.162  12.803   4.226
44199W        W16459   2.181  25.242  10.620
44200W        W16460  14.364  39.822  12.349
44201W        W16461  40.390   6.855  11.433
44202W        W16462  31.399  40.812  14.963
44203W        W16463  20.101   5.928   0.967
44204W        W16464   1.846   8.691  14.888
44205W        W16465  23.795  11.202   4.766
44206W        W16466  16.677  28.469  13.997
44207W        W16467  31.187  23.735  12.531
44208W        W16468  34.168  38.616  11.955
44209W        W16469  13.210  31.424  14.275
44210W        W16470   1.305  32.779  14.788
44211W        W16471  32.843   4.409  10.939
44212W        W16472   4.746  21.181  14.526
44213W        W16473  23.145  19.085   1.328
44214W        W16474  24.127  24.249   4.615
44215W        W16475  17.047  31.153  11.011
44216W        W16476  35.126  33.955   0.450
44217W        W16477  36.720   9.145  11.203
44218W        W16478  16.050  28.995   1.031
44219W        W16479  27.119  29.465   2.799
44220W        W16480  14.596   5.893   3.797
44221W        W16481  11.833   9.176   0.448
44222W        W16482  12.810  36.842   0.320
44223W        W16483  36.245  15.353  14.626
44224W        W16484   7.439   9.435  14.691
44225W        W16485   6.112  43.570  14.476
44226W        W16486  38.428   1.258   4.528
44227W        W16487  18.522  22.010   3.165
44228W        W16488  13.936  41.953   3.711
44229W        W16489  14.626  32.927   1.525
44230W        W16490  23.292   2.281   2.846
44231W        W16491  19.311  36.581   4.561
44232W        W16492  31.703  18.533  12.496
44233W        W16493  18.089  18.129  14.469
44234W        W16494   4.021  32.999  12.073
44235W        W16495   8.286  25.197   0.448
44236W        W16496  36.607  12.695  14.792
44237W        W16497  34.276   9.428   1.291
44238W        W16498  30.746  30.436  12.977
44239W        W16499  29.648  11.649  14.420
44240W        W16500   3.656  29.542   1.426
44241W        W16501  44.331  29.483   2.433
44242W        W16502   3.114  29.542  14.007
44243W        W16503  36.955   7.480   9.700
44244W        W16504   3.251   2.395  13.157
44245W        W16505  32.571  15.101  11.638
44246W        W16506  14.790  20.648  14.806
44247W        W16507  39.133   5.766   3.776
44248W        W16508  17.618  41.057   0.438
44249W        W16509  22.576  30.205   1.326
44250W        W16510  11.113  12.399  12.463
44251W        W16511  19.101   2.768   1.668
44252W        W16512  40.419  23.274  14.858
44253W        W16513  30.671  15.364  11.438
44254W        W16514  23.288  23.439   0.791
44255W        W16515  35.273   1.814  10.843
44256W        W16516  39.315  43.863  10.534
44257W        W16517  24.645  27.508   3.395
44258W        W16518   7.949   3.900   1.331
44259W        W16519  29.841  17.312  13.375
44260W        W16520  38.347  43.193  13.304
44261W        W16521  34.991   5.965   0.267
44262W        W16522   3.121  11.739   4.559
44263W        W16523  32.535  24.059  14.976
44264W        W16524   4.999  10.688  11.638
44265W        W16525  23.499  22.133  12.866
44266W        W16526  20.661  15.627  11.401
44267W        W16527  12.836  12.339   0.724
44268W        W16528  41.324  15.130  10.961
44269W        W16529  12.319  22.210   0.235
44270W        W16530  32.822  31.625  10.515
44271W        W16531  19.750  33.000   3.226
44272W        W16532  22.498  27.653   2.676
44273W        W16533   5.846  15.794   2.231
44274W        W16534  37.519  14.587  12.198
44275W        W16535  17.488  17.777  14.231
44276W        W16536  11.601  27.398  10.430
44277W        W16537  15.288  14.129   2.843
44278W        W16538  42.356  31.865  11.826
44279W        W16539  29.884  32.485   1.628
44280W        W16540  43.103  31.545   0.179
44281W        W16541  15.659   3.191   1.884
44282W        W16542  11.069  42.273   3.236
44283W        W16543  35.462  28.034  13.947
44284W        W16544  23.186  23.068   3.743
44285W        W16545  21.626  10.188  12.745
44286W        W16546  36.836  12.636  13.420
44287W        W16547  44.973   5.674   4.917
44288W        W16548   0.228   3.292   2.638
44289W        W16549  42.719  43.895   0.649
44290W        W16550  35.146  25.634  14.317
44291W        W16551  14.572  38.836   4.116
44292W        W16552  25.154  34.472  12.525
44293W        W16553  33.750  13.551  11.537
44294W        W16554  34.615   5.712   1.255
44295W        W16555  36.824  21.928   4.030
44296W        W16556  31.044  31.774   3.264
44297W        W16557  43.457  28.534  13.157
44298W        W16558  32.126  31.007   4.500
44299W        W16559  13.823  14.052  14.288
44300W        W16560   2.712  39.930   0.292
44301W        W16561  38.554  42.356  11.524
44302W        W16562  35.232  25.068   2.371
44303W        W16563  41.799  35.671   0.491
44304W        W16564  15.601  12.629  10.207
44305W        W16565  23.289  19.083  13.963
44306W        W16566  24.377  18.872  12.950
44307W        W16567  10.249  12.640   4.322
44308W        W16568   1.446  13.162   2.625
44309W        W16569  11.694  20.791   1.038
44310W        W16570  30.032  10.419   2.393
44311W        W16571  21.538  22.414   4.597
44312W        W16572  40.340  25.957   2.177
44313W        W16573   2.925  23.527   1.413
44314W        W16574   5.679  32.494   4.630
44315W        W16575   9.057   1.352  13.735
44316W        W16576   1.260  17.101  11.085
44317W        W16577  24.568  39.904   3.291
44318W        W16578  44.490  38.387   2.146
44319W        W16579  13.822  16.158   1.400
44320W        W16580  44.080  24.078  11.809
44321W        W16581  39.768  28.522  12.369
44322W        W16582  43.555  41.107  13.780
44323W        W16583  23.815  43.350   1.371
44324W        W16584  14.670   5.242   3.068
44325W        W16585  13.642  35.953   2.949
44326W        W16586  39.519   4.846  10.942
44327W        W16587  33.481  18.828   4.685
44328W        W16588  44.725  23.248  11.597
44329W        W16589  38.764  18.261   0.962
44330W        W16590  26.086  20.543  10.726
44331W        W16591  14.284  38.543  11.044
44332W        W16592  32.244  36.276  14.574
44333W        W16593  23.755  22.609  12.908
44334W        W16594  21.828   7.993  13.426
44335W        W16595   6.253  18.485   1.627
44336W        W16596   3.945  18.079  14.688
44337W        W16597  44.477  37.833  11.130
44338W        W16598   9.752  28.087   4.121
44339W        W16599  38.175  32.956  14.671
44340W        W16600  28.559  32.482  13.128
44341W        W16601  31.099   6.175   4.604
44342W        W16602   5.960  38.901   4.543
44343W        W16603   7.907   5.910   0.844
44344W        W16604  41.319  13.386   3.684
44345W        W16605  21.009  21.478  12.586
44346W        W16606  10.168   8.804   4.133
44347W        W16607  24.513  12.807   3.456
44348W        W16608   1.461   5.490   0.060
44349W        W16609  43.948  28.480   1.667
44350W        W16610  14.196  25.784   4.229
44351W        W16611  33.676  10.183   3.641
44352W        W16612  38.556  32.104   4.210
44353W        W16613  30.456  42.939   1.211
44354W        W16614  30.924  22.868   0.984
44355W        W16615  14.552  14.245   1.221
44356W        W16616  43.711   5.460  12.051
44357W        W16617  43.338  34.872   2.300
44358W        W16618  40.126  35.356  12.013
44359W        W16619  41.827   9.275   0.991
44360W        W16620  20.437  14.528   2.841
44361W        W16621  23.616   2.991  10.507
44362W        W16622  20.759  33.296   4.070
44363W        W16623   8.269   9.426  10.939
44364W        W16624  24.601  13.823  14.078
44365W        W16625  27.489  12.876  13.214
44366W        W16626  13.823  10.013   0.457
44367W        W16627   4.454  24.495  12.924
44368W        W16628   5.500  43.838  13.871
44369W        W16629   0.978  43.493   2.743
44370W        W16630  26.777  11.799  10.852
44371W        W16631  34.020   1.202  10.604
44372W        W16632  43.883   1.384  14.599
44373W        W16633  17.531   3.874   4.276
44374W        W16634  39.877  31.607  13.466
44375W        W16635  23.948  23.509  14.774
44376W        W16636   5.793  21.064  14.383
44377W        W16637  12.860   6.581   4.532
44378W        W16638   2.000   6.285  11.074
44379W        W16639   5.908  19.192  10.942
44380W        W16640   6.312  35.012   2.219
44381W        W16641  23.582  41.376   0.884
44382W        W16642  34.036  37.414   3.219
44383W        W16643  21.180   8.210  11.023
44384W        W16644  34.090  24.842  10.926
44385W        W16645   2.474  14.565  10.757
44386W        W16646  20.944  13.640  13.866
44387W        W16647  35.485  40.617  11.540
44388W        W16648   9.547  35.881  12.893
44389W        W16649  36.460  33.605  14.337
44390W        W16650  39.366   5.008   1.317
44391W        W16651  23.698  33.873   1.149
44392W        W16652  22.982  27.757   1.876
44393W        W16653  34.710   8.711  10.756
44394W        W16654  35.982  24.078  14.936
44395W        W16655  44.851   3.449   4.023
44396W        W16656  36.635  27.693   0.731
44397W        W16657  29.578  42.116   4.602
44398W        W16658   7.761  34.936   1.797
44399W        W16659  19.679  20.063  13.694
44400W        W16660  21.026  19.868  10.206
44401W        W16661  13.672  21.549  11.975
44402W        W16662  41.869  36.084  14.654
44403W        W16663   5.210  25.558   4.589
44404W        W16664  38.860  41.135   2.380
44405W        W16665  19.396  14.762   0.825
44406W        W16666   4.275   7.352  12.097
44407W        W16667  11.223  22.766  13.509
44408W        W16668  38.575  38.264  14.976
44409W        W16669  29.772  21.408  14.311
44410W        W16670   5.623  15.251   4.579
44411W        W16671  32.958  33.551   4.566
44412W        W16672  13.244   7.692  13.872
44413W        W16673  18.078  24.151   4.921
44414W        W16674  33.703  21.066  14.991
44415W        W16675  28.233  33.221  10.458
44416W        W16676  44.082  23.118  13.132
44417W        W16677  23.461   2.337   2.362
44418W        W16678  29.914  14.345  13.562
44419W        W16679  38.870   8.487  13.878
44420W        W16680   0.261  40.981   3.103
44421W        W16681  19.508  15.609   0.864
44422W        W16682  38.929  15.077  13.961
44423W        W16683  43.371  17.586  10.630
44424W        W16684  12.954  35.458   0.012
44425W        W16685  31.391  37.392  14.408
44426W        W16686  26.539  32.419  10.709
44427W        W16687  23.078  34.437   4.049
44428W        W16688  26.587  10.161   0.403
44429W        W16689  19.664  31.480  14.751
44430W        W16690  38.095  26.116   4.719
44431W        W16691  42.419  15.357  13.987
44432W        W16692  32.200  18.705  12.514
44433W        W16693   1.979  36.562  14.809
44434W        W16694  13.284  19.521   1.275
44435W        W16695  43.143   3.422  14.812
44436W        W16696   1.845  27.731  13.093
44437W        W16697  37.404  18.399   4.024
44438W        W16698   3.049   5.767  14.282
44439W        W16699  22.043  21.279   5.011
44440W        W16700  18.197  10.870  14.799
44441W        W16701   3.006   8.873  13.538
44442W        W16702  20.817   3.862  13.963
44443W        W16703   8.901  25.503   2.270
44444W        W16704   5.438  37.187  13.024
44445W        W16705  19.810  38.058  12.163
44446W        W16706  29.950  28.865   1.717
44447W        W16707  18.262  14.527  10.713
44448W        W16708  38.109  30.916  10.796
44449W        W16709  39.403  27.217   1.137
44450W        W16710  42.362   3.053  14.379
44451W        W16711  22.143  12.807   0.791
44452W        W16712  34.872  24.222   1.377
44453W        W16713   6.891   1.406   2.692
44454W        W16714  11.256  35.741   1.654
44455W        W16715  40.458  25.878   4.865
44456W        W16716  15.156  31.122  11.027
44457W        W16717  34.605  34.826   4.901
44458W        W16718   8.409  28.000   0.063
44459W        W16719  18.429  39.136   4.112
44460W        W16720  43.348  38.543   1.840
44461W        W16721  13.188  42.776  11.703
44462W        W16722  23.730  33.732   3.105
44463W        W16723   7.366  10.182  10.558
44464W        W16724  15.882   5.452  13.098
44465W        W16725   9.626  39.907  12.095
44466W        W16726   9.085  27.998   9.981
44467W        W16727   8.183  12.345   3.622
44468W        W16728  36.450  10.299  10.208
44469W        W16729  22.458  19.158   4.644
44470W        W16730  20.529   4.182  11.564
44471W        W16731   5.377  23.067  12.053
44472W        W16732  22.174   1.848  10.905
44473W        W16733  38.507  35.636  13.724
44474W        W16734  37.508   6.678   4.256
44475W        W16735  35.268   5.335   1.379
44476W        W16736  13.168   6.654  14.802
44477W        W16737   4.236   0.310   1.445
44478W        W16738  24.091  11.408  14.299
44479W        W16739  20.070  39.041  12.059
44480W        W16740  13.414  44.451  11.567
44481W        W16741  19.964  10.952   0.305
44482W        W16742  29.423   7.516   2.333
44483W        W16743   8.986   9.356   1.585
44484W        W16744  28.737  40.399   1.886
44485W        W16745  31.408  36.973   3.662
44486W        W16746  12.762   1.487   0.716
44487W        W16747  29.938  22.763   2.279
44488W        W16748  16.159  14.457   4.597
44489W        W16749  11.390  38.359  13.062
44490W        W16750  40.424  27.979  11.034
44491W        W16751  24.267   0.267  14.437
44492W        W16752  23.065   3.240   3.749
44493W        W16753  12.625  43.315  12.893
44494W        W16754   2.196  37.290  12.530
44495W        W16755   9.540   0.417  11.488
44496W        W16756  11.145  28.911  10.508
44497W        W16757  34.757  17.084   3.125
44498W        W16758   0.941  30.050  10.956
44499W        W16759  10.844  22.454  12.658
44500W        W16760  28.589  27.551   0.188
44501W        W16761  44.001   7.937  13.813
44502W        W16762  35.329   2.198   2.229
44503W        W16763  22.111  39.352  12.112
44504W        W16764  28.807  35.184  12.956
44505W        W16765  42.736  22.176   1.763
44506W        W16766  18.226  40.067  11.491
44507W        W16767   2.319  16.724   0.568
44508W        W16768   1.297   9.951   1.892
44509W        W16769  17.709  43.173   5.071
44510W        W16770  24.651  43.007   0.186
44511W        W16771  30.655  10.340   2.812
44512W        W16772  14.936  17.238  12.063
44513W        W16773  41.378  10.757  13.334
44514W        W16774  43.508  14.545  13.656
44515W        W16775  38.960  38.555   9.965
44516W        W16776  39.330  40.499   1.170
44517W        W16777  27.217  44.507   3.605
44518W        W16778  36.782   4.837  14.806
44519W        W16779  22.160  25.648  13.819
44520W        W16780  26.192   5.030  13.121
44521W        W16781  36.429   0.978   3.793
44522W        W16782  20.953  36.940   3.229
44523W        W16783  24.176  15.559   3.205
44524W        W16784  11.095  24.542  13.720
44525W        W16785  18.852  24.541   4.621
44526W        W16786  23.070  13.601   2.693
44527W        W16787  15.667  30.803  12.778
44528W        W16788  36.594  24.713  12.887
44529W        W16789  33.482   2.205  10.397
44530W        W16790   7.363  37.159   0.613
44531W        W16791   1.774  42.071  11.679
44532W        W16792  41.091  35.975   4.185
44533W        W16793  21.785  14.760  13.995
44534W        W16794   7.664   9.865  12.042
44535W        W16795  32.065  11.799  12.561
44536W        W16796   4.369  32.589   3.303
44537W        W16797  33.486  18.777   1.292
44538W        W16798  38.441  43.544   0.262
44539W        W16799   8.348   8.754  13.910
44540W        W16800   1.220  25.890  12.810
44541W        W16801  22.592  22.571   2.708
44542W        W16802  39.534  25.003   3.147
44543W        W16803  12.654  12.555   1.827
44544W        W16804  29.237  40.379   1.945
44545W        W16805  14.182  13.854   3.322
44546W        W16806  27.271   3.063  11.856
44547W        W16807  39.143  36.483   3.244
44548W        W16808  41.319  21.228   2.349
44549W        W16809  44.507  27.347   3.381
44550W        W16810  26.069  38.769   2.242
44551W        W16811  31.434  36.441   3.734
44552W        W16812  19.018  40.750   0.254
44553W        W16813  28.558  27.498   2.679
44554W        W16814  15.283  29.400  14.799
44555W        W16815  37.211  35.282   1.248
44556W        W16816  29.750  30.622   0.353
44557W        W16817  28.945  34.015   1.242
44558W        W16818  36.512   5.121  12.642
44559W        W16819  28.511  34.688   4.101
44560W        W16820  41.199   0.730   0.376
44561W        W16821   6.442  17.133   2.057
44562W        W16822  16.344  25.002   2.767
44563W        W16823  15.106  24.207  13.230
44564W        W16824   2.964  24.612  13.868
44565W        W16825   6.840  13.640  13.566
44566W        W16826  25.259  17.969  13.496
44567W        W16827   7.758  14.336   4.554
44568W        W16828  33.419  19.396   9.664
44569W        W16829  25.568  40.084  14.218
44570W        W16830   8.940  36.818  13.810
44571W        W16831  39.500  28.092   4.514
44572W        W16832  28.702   4.259   4.402
44573W        W16833   6.978  44.824  12.852
44574W        W16834  17.758  37.795  11.954
44575W        W16835   1.864  19.159  14.409
44576W        W16836  13.399  41.250  11.189
44577W        W16837  13.520  44.984  14.858
44578W        W16838  32.213  16.108   0.364
44579W        W16839  12.243  35.435  12.935
44580W        W16840  15.397  14.382   5.506
44581W        W16841  10.708   0.732   4.650
44582W        W16842   3.207  29.983   0.228
44583W        W16843   9.091  21.285  12.006
44584W        W16844  42.406  17.445  11.997
44585W        W16845  26.063   9.817  12.213
44586W        W16846  38.079  11.663  11.541
44587W        W16847  35.413  32.236   0.979
44588W        W16848  25.060  43.655  14.930
44589W        W16849  44.236  34.901   0.474
44590W        W16850  27.323  26.930   0.531
44591W        W16851  26.390  36.430   1.057
44592W        W16852   8.222  39.771   4.631
44593W        W16853  13.502   1.209  11.211
44594W        W16854  26.076  14.323   3.639
44595W        W16855   1.465  25.492   1.672
44596W        W16856   5.237  30.437   3.730
44597W        W16857  18.423  17.777   1.836
44598W        W16858  23.079  17.500   1.349
44599W        W16859  16.803  22.933   2.442
44600W        W16860  27.255  35.045  14.945
44601W        W16861  18.608  32.914   2.899
44602W        W16862  43.244   0.055   1.914
44603W        W16863  17.184  22.986  11.168
44604W        W16864  18.392  10.115   2.365
44605W        W16865  18.257   6.103  11.653
44606W        W16866  22.824  33.126   3.121
44607W        W16867  24.593  20.241  11.652
44608W        W16868  26.749  11.745  11.553
44609W        W16869  37.116  26.703  13.563
44610W        W16870  13.755  24.016   4.114
44611W        W16871  21.586  30.532  14.873
44612W        W16872  38.370  22.562   0.706
44613W        W16873  41.507  36.409   1.001
44614W        W16874  14.351  10.681   1.931
44615W        W16875  43.334  33.830   4.139
44616W        W16876   0.794  40.847   4.279
44617W        W16877  43.744  36.974   1.208
44618W        W16878  25.288  16.778   0.049
44619W        W16879  16.837  31.108  11.569
44620W        W16880  37.519  18.662  13.309
44621W        W16881  30.780  21.618  14.166
44622W        W16882  40.929  40.412  12.972
44623W        W16883  20.799   5.807  11.069
44624W        W16884  19.773  36.999   1.847
44625W        W16885  27.262  21.136  13.801
44626W        W16886  29.660   4.211  12.883
44627W        W16887  42.785  41.426  13.477
44628W        W16888   9.300  42.559  12.488
44629W        W16889  41.512  37.576   0.146
44630W        W16890   1.778  26.213  13.139
44631W        W16891  35.804  29.135   4.049
44632W        W16892  16.386  39.698  13.352
44633W        W16893  29.269  33.046   5.116
44634W        W16894  29.617  25.506  14.333
44635W        W16895  29.510  36.900  13.352
44636W        W16896  28.962  33.958  12.394
44637W        W16897  11.507   5.446  13.578
44638W        W16898  18.290   3.786   3.828
44639W        W16899  14.299  17.085   1.621
44640W        W16900  42.772   3.621   0.888
44641W        W16901  40.497  18.998  14.475
44642W        W16902  27.627  38.985  11.429
44643W        W16903  26.097  23.373  12.021
44644W        W16904   7.815  13.811   4.627
44645W        W16905  25.127   7.524   3.728
44646W        W16906  24.967  25.160   0.341
44647W        W16907   3.693  12.462   4.077
44648W        W16908  31.879  19.767  11.988
44649W        W16909   9.314  22.200  12.468
44650W        W16910   8.733  14.534   1.743
44651W        W16911  41.894  16.015  14.967
44652W        W16912  44.602  12.333  12.077
44653W        W16913   7.664  16.541  13.580
44654W        W16914  39.231  24.628   3.332
44655W        W16915  41.020  20.782   2.299
44656W        W16916  33.104  13.747   4.237
44657W        W16917  39.545   4.739  12.203
44658W        W16918  14.128  18.743  13.022
44659W        W16919  33.850   7.750   4.524
44660W        W16920  26.054  35.497   2.601
44661W        W16921  23.519  37.482   3.597
44662W        W16922  13.307  36.779   0.515
44663W        W16923  36.098  44.831   2.789
44664W        W16924  22.588  39.532  11.789
44665W        W16925  40.938  26.616   0.331
44666W        W16926  34.517  41.981  14.283
44667W        W16927  19.022   1.998  11.027
44668W        W16928   9.200  31.860  12.979
44669W        W16929  31.545  12.406   2.245
44670W        W16930  36.021  36.122   4.432
44671W        W16931  15.625  42.447   3.645
44672W        W16932   3.412  42.436   0.989
44673W        W16933   8.515  13.341   1.291
44674W        W16934  23.162  17.798   1.771
44675W        W16935  38.454  36.414   0.877
44676W        W16936   0.359  42.667   4.069
44677W        W16937  34.335  28.446  12.948
44678W        W16938  31.591   1.638  13.821
44679W        W16939   2.979  25.919   3.192
44680W        W16940  31.432  21.656  12.983
44681W        W16941  11.082   8.124   0.059
44682W        W16942  27.108   7.787  12.470
44683W        W16943  29.708  39.891   2.753
44684W        W16944  39.918   7.783  11.862
44685W        W16945  17.598   5.102   4.710
44686W        W16946   6.759  19.663   0.447
44687W        W16947  22.756  12.844  12.041
44688W        W16948  43.009  27.857   2.527
44689W        W16949  42.412  13.970   2.725
44690W        W16950   0.408  13.837  12.415
44691W        W16951  42.351  26.753   2.836
44692W        W16952  40.461  34.362   1.223
44693W        W16953  37.406  25.726   1.215
44694W        W16954  11.281   2.459   3.176
44695W        W16955  20.671   8.291  11.022
44696W        W16956  15.261  41.780   4.872
44697W        W16957  37.375  44.116   4.589
44698W        W16958   3.838  26.813   0.300
44699W        W16959  23.686  27.170  13.040
44700W        W16960   8.715  11.633  12.675
44701W        W16961   7.163  42.764   0.673
44702W        W16962  14.635  38.025   2.812
44703W        W16963   6.829  33.158  12.104
44704W        W16964  43.417  40.402   3.729
44705W        W16965  35.406  11.274   0.892
44706W        W16966  15.082   8.149   0.264
44707W        W16967   2.489  22.630   1.412
44708W        W16968  31.571  37.759   4.260
44709W        W16969  19.096   9.226   3.286
44710W        W16970  26.971  38.630  11.465
44711W        W16971  37.792  43.924   1.829
44712W        W16972  32.156   9.669  10.653
44713W        W16973  27.979  43.577   1.280
44714W        W16974  19.874   1.346  10.907
44715W        W16975   4.450   2.335  11.033
44716W        W16976  24.296  36.409  12.003
44717W        W16977  38.018   2.691  10.490
44718W        W16978  38.038  17.084   1.746
44719W        W16979   8.335  21.526  12.886
44720W        W16980  23.583   0.187   0.351
44721W        W16981  33.157  35.747  12.397
44722W        W16982  40.089  44.731  10.792
44723W        W16983  18.121  12.138   0.419
44724W        W16984  44.924  21.727   1.234
44725W        W16985  15.865  27.001  10.959
44726W        W16986  42.008  35.878  13.719
44727W        W16987  41.225   0.555   1.544
44728W        W16988   6.357  25.633   0.973
44729W        W16989  26.785  16.178  12.465
44730W        W16990  34.540   4.670  11.260
44731W        W16991   3.928  21.733  10.650
44732W        W16992  15.475  38.476   0.550
44733W        W16993  33.843  43.567   3.905
44734W        W16994  24.971  44.974  12.289
44735W        W16995   7.320  21.994  11.621
44736W        W16996  41.464  34.897  14.912
44737W        W16997  32.408   3.150   4.776
44738W        W16998   2.674  21.839   4.326
44739W        W16999  31.809  33.989  14.945
44740W        W17000  37.119  19.568   2.299
44741W        W17001   0.333  10.084  12.805
44742W        W17002  43.676  40.472   0.676
44743W        W17003  31.649   6.462  14.451
44744W        W17004  11.681  10.698   0.945
44745W        W17005  42.874  34.475  11.677
44746W        W17006  21.193  15.907   0.094
44747W        W17007  28.775  12.699  14.157
44748W        W17008  12.239  15.268  13.864
44749W        W17009  27.798  36.391   1.265
44750W        W17010  27.371  15.039  12.797
44751W        W17011   0.789   4.266  10.808
44752W        W17012  17.605  44.512   2.864
44753W        W17013   8.896  32.603  11.693
44754W        W17014  23.012   2.001  11.554
44755W        W17015   2.729  28.021   4.305
44756W        W17016  10.949  40.940  14.354
44757W        W17017   0.375   9.327   2.270
44758W        W17018  33.048   1.757   2.680
44759W        W17019  18.608   8.839  14.822
44760W        W17020  39.493  43.804   0.972
44761W        W17021  20.688   3.417  13.521
44762W        W17022  14.132  25.070   4.380
44763W        W17023  37.086  30.167   0.847
44764W        W17024  39.103  16.849  10.626
44765W        W17025  35.995  42.386   4.423
44766W        W17026   9.804   8.383   3.444
44767W        W17027   1.302   4.129   0.859
44768W        W17028  10.928  13.684   3.467
44769W        W17029  37.246  24.782   3.275
44770W        W17030  44.469  10.426  10.378
44771W        W17031  27.033  32.996  12.634
44772W        W17032  11.872  16.058  13.422
44773W        W17033   8.692  25.680  10.626
44774W        W17034   5.301  18.856   4.175
44775W        W17035  11.788   1.921  14.531
44776W        W17036   5.278  23.257  12.937
44777W        W17037   1.203  20.594  11.241
44778W        W17038  43.328  14.097  10.787
44779W        W17039   5.890  37.984  14.329
44780W        W17040   2.911  14.086  12.872
44781W        W17041   4.474  19.263   2.443
44782W        W17042  41.850   7.431   0.700
44783W        W17043  10.636   4.078   2.515
44784W        W17044  18.524  31.662   2.740
44785W        W17045  36.114  39.923  14.920
44786W        W17046  10.719   6.877   3.969
44787W        W17047  38.077  37.006   2.730
44788W        W17048  23.613  26.664  10.268
44789W        W17049  33.329   7.670   2.002
44790W        W17050  36.893  19.824  11.997
44791W        W17051   4.362   1.020   0.925
44792W        W17052   2.968  25.523  13.329
44793W        W17053  22.541   9.533   4.585
44794W        W17054   5.192  13.274  11.029
44795W        W17055   1.062  18.794  13.330
44796W        W17056  43.067  19.913   5.009
44797W        W17057  28.104  31.132  10.321
44798W        W17058  19.679  21.812  10.631
44799W        W17059  11.241  42.758  13.435
44800W        W17060  38.434  26.237  12.165
44801W        W17061  10.483  39.665  10.562
44802W        W17062  18.051   8.530  13.875
44803W        W17063  16.923   4.276   3.651
44804W        W17064  20.347  26.167  14.443
44805W        W17065  26.637   0.010   2.375
44806W        W17066   4.397  44.934   3.368
44807W        W17067  12.109  35.165   0.395
44808W        W17068  36.536  40.514   0.601
44809W        W17069  14.977  23.874  14.717
44810W        W17070  43.522  40.517   3.229
44811W        W17071  41.441   5.833  12.530
44812W        W17072  14.197  44.375  12.728
44813W        W17073  24.072  14.401   4.045
44814W        W17074   6.928  22.617  14.484
44815W        W17075  21.692  18.257  13.006
44816W        W17076  37.889  32.353  12.441
44817W        W17077  25.674  19.586   1.168
44818W        W17078  28.536  29.572   4.076
44819W        W17079  12.980   1.033  10.018
44820W        W17080  33.989  29.451  14.594
44821W        W17081  14.606  14.080  10.647
44822W        W17082   3.713  12.207   3.629
44823W        W17083  39.847  22.166  14.506
44824W        W17084   4.093   4.796   2.291
44825W        W17085  35.437  25.828  12.638
44826W        W17086   0.448   9.400   0.052
44827W        W17087  34.831  17.862   1.303
44828W        W17088  29.054  19.561  12.347
44829W        W17089  11.899  27.040  11.310
44830W        W17090  20.942  33.989  13.604
44831W        W17091  17.149   9.640   4.484
44832W        W17092  22.260  19.161  12.159
44833W        W17093  43.272  43.569  11.513
44834W        W17094  23.360   7.371   0.712
44835W        W17095  20.597  34.822   2.101
44836W        W17096  21.749  33.842  12.470
44837W        W17097  31.430  43.366  12.539
44838W        W17098  30.651  41.791  13.448
44839W        W17099  40.439   9.870   1.463
44840W        W17100  30.183   7.443  11.538
44841W        W17101  35.508  15.581  11.742
44842W        W17102   9.129   9.508   3.683
44843W        W17103  16.553  36.087  11.442
44844W        W17104  38.396  29.602  13.487
44845W        W17105  17.512   1.771  11.203
44846W        W17106  12.313  23.175   3.114
44847W        W17107  31.433   5.428   1.894
44848W        W17108  19.170   9.733  13.905
44849W        W17109  39.796  29.051   1.431
44850W        W17110  11.912   1.460  11.504
44851W        W17111   5.264  33.319  14.424
44852W        W17112  22.451  10.134   1.806
44853W        W17113   5.464  21.632  14.484
44854W        W17114  13.721   5.905  14.448
44855W        W17115  34.952  20.744   5.016
44856W        W17116  21.154   8.128   1.486
44857W        W17117  12.556  10.259  13.973
44858W        W17118  41.507   8.776   4.683
44859W        W17119  29.362  43.950   1.302
44860W        W17120  37.009  22.112   4.484
44861W        W17121  25.682   3.147   0.191
44862W        W17122  39.202  33.352   4.971
44863W        W17123  31.435  12.147   4.624
44864W        W17124  27.030  35.391  11.198
44865W        W17125   7.682  12.594  14.544
44866W        W17126  17.253   9.038   3.826
44867W        W17127  35.888  30.492  12.589
44868W        W17128  22.089  21.787   1.738
44869W        W17129   9.450  29.926  13.005
44870W        W17130  39.146  11.913   2.573
44871W        W17131  40.393   6.197  13.780
44872W        W17132   6.716  18.854  12.213
44873W        W17133  40.292  30.671  13.940
44874W        W17134  14.547  21.452  14.312
44875W        W17135  31.037  10.783  13.021
44876W        W17136  17.087  25.176   3.221
44877W        W17137   1.903  28.426   2.370
44878W        W17138   9.954   2.349  13.019
44879W        W17139  10.251   1.433   2.810
44880W        W17140  16.509  11.225  12.496
44881W        W17141  24.671   6.758  13.341
44882W        W17142  19.271  11.648   2.063
44883W        W17143  26.118   3.696  11.107
44884W        W17144  32.408  17.833   1.290
44885W        W17145  37.959  10.663   9.836
44886W        W17146  32.063  21.534   1.859
44887W        W17147  39.260  38.088   4.310
44888W        W17148  31.984   9.415  11.092
44889W        W17149   1.973   6.736  13.885
44890W        W17150   5.588  14.878  11.604
44891W        W17151  11.559  37.295   0.444
44892W        W17152  12.316  17.730  13.366
44893W        W17153   5.441  12.564   3.686
44894W        W17154  15.513   3.533   0.731
44895W        W17155  31.665  19.011  11.686
44896W        W17156  42.403  40.869   2.815
44897W        W17157  14.011  15.867   3.297
44898W        W17158  29.444  15.207   0.489
44899W        W17159  34.634  16.747   2.723
44900W        W17160  24.682  28.315  14.544
44901W        W17161  10.081  34.398   0.574
44902W        W17162  17.655  43.957  12.070
44903W        W17163  33.658   8.394  11.552
44904W        W17164  35.265  10.722  14.415
44905W        W17165  13.634  18.130   3.393
44906W        W17166   0.307  40.375  13.856
44907W        W17167   4.938  31.663   2.708
44908W        W17168   9.347  20.636   3.567
44909W        W17169  15.178  41.056  13.997
44910W        W17170  11.738  30.302   1.453
44911W        W17171   3.734  18.204   3.044
44912W        W17172  22.638   4.915   4.984
44913W        W17173  11.417  28.933   4.117
44914W        W17174  31.951  28.994  10.688
44915W        W17175  19.210  13.096   0.493
44916W        W17176   8.220   5.288  12.860
44917W        W17177  32.988  19.466  10.994
44918W        W17178  35.594  17.930   0.829
44919W        W17179  28.564  16.078  11.552
44920W        W17180  13.970  40.833   0.408
44921W        W17181  15.406  30.686   2.735
44922W        W17182  21.033   9.149  12.105
44923W        W17183  20.918   2.860   3.220
44924W        W17184  40.473  19.089  12.200
44925W        W17185  28.460   8.577  11.212
44926W        W17186   4.386  32.033  10.907
44927W        W17187  35.918  21.970  14.241
44928W        W17188  27.535   9.749   1.284
44929W        W17189  41.333  37.805  11.796
44930W        W17190  21.457   4.474  11.775
44931W        W17191  12.758  44.035  11.604
44932W        W17192   1.771  30.884  11.528
44933W        W17193   2.842  43.289   2.428
44934W        W17194  22.656  13.718   2.301
44935W        W17195   4.191  20.642   2.132
44936W        W17196  22.130  13.042  13.574
44937W        W17197  12.912  12.617  11.220
44938W        W17198  43.030  41.235  10.490
44939W        W17199   9.674  35.192   2.716
44940W        W17200  40.330  36.583   4.208
44941W        W17201  29.064  37.125  13.507
44942W        W17202  11.816  23.788   1.817
44943W        W17203  40.399  43.062  11.148
44944W        W17204  26.752  28.680  12.409
44945W        W17205  33.646  23.017   2.718
44946W        W17206  35.120  15.442  12.049
44947W        W17207  35.144  18.743   3.861
44948W        W17208  19.211  14.603   3.767
44949W        W17209  41.905  28.676  11.060
44950W        W17210  31.549  19.274   2.163
44951W        W17211  28.898  14.132  11.074
44952W        W17212  14.781   4.153   4.229
44953W        W17213   2.875  38.553  13.115
44954W        W17214   2.298  34.908   1.767
44955W        W17215  18.343  41.118   4.494
44956W        W17216  25.998  29.837   4.068
44957W        W17217   1.575   6.897  11.679
44958W        W17218  13.382  34.727  12.784
44959W        W17219  12.392  11.705   1.742
44960W        W17220  28.376  15.465  10.036
44961W        W17221  14.638  13.004  12.051
44962W        W17222   3.266  26.975   0.744
44963W        W17223  34.118  37.845   0.389
44964W        W17224   1.128  39.815   0.872
44965W        W17225  19.085   6.426  14.476
44966W        W17226  12.892   5.831  13.490
44967W        W17227  27.390   7.481   1.469
44968W        W17228  28.906  17.209   4.246
44969W        W17229  39.428  10.629  10.982
44970W        W17230  40.409   6.823   1.740
44971W        W17231   1.171  32.967  12.456
44972W        W17232  24.681   6.240  13.462
44973W        W17233  14.889  15.632   0.942
44974W        W17234  11.837  33.624   2.687
44975W        W17235  43.391   5.311  11.655
44976W        W17236  29.974  23.863   1.271
44977W        W17237  25.239  16.745  11.371
44978W        W17238  43.659  22.247   2.867
44979W        W17239  14.824  23.964   0.793
44980W        W17240  11.428   1.294  12.151
44981W        W17241  40.351   1.321  14.412
44982W        W17242   5.138  21.074   0.877
44983W        W17243   2.580  17.664  13.446
44984W        W17244  17.525  29.951  10.844
44985W        W17245   6.893  37.073   0.411
44986W        W17246  10.602  30.048   2.393
44987W        W17247  14.257   3.466   0.266
44988W        W17248  41.271  18.984  12.555
44989W        W17249  18.956  44.192   3.789
44990W        W17250  25.962  39.839  14.451
44991W        W17251  33.418  31.482   2.169
44992W        W17252   8.161  40.994   0.671
44993W        W17253  22.006  13.342   1.507
44994W        W17254  26.778  39.565   2.335
44995W        W17255  28.615  18.975  14.939
44996W        W17256   7.477  40.979  11.578
44997W        W17257  10.853   7.297  14.038
44998W        W17258  41.514  20.676   1.158
44999W        W17259   5.656  24.225  14.795
45000W        W17260  29.717  42.545   1.064
45001W        W17261  19.416  28.096  11.446
45002W        W17262   5.334   9.824  10.549
45003W        W17263   9.134   7.474   0.329
45004W        W17264  33.443  14.217  14.423
45005W        W17265  25.111  22.283  12.470
45006W        W17266   5.421  13.216   0.423
45007W        W17267  33.920  34.403   1.420
45008W        W17268  28.965  37.997  13.020
45009W        W17269  42.168  41.639  12.556
45010W        W17270  34.262  28.002  13.303
45011W        W17271  38.689  16.352  12.584
45012W        W17272  13.646  30.185  13.347
45013W        W17273  36.155  26.165  12.418
45014W        W17274  13.703  22.486   1.868
45015W        W17275   8.594  21.568   1.045
45016W        W17276   1.995  28.226  10.594
45017W        W17277  10.593   0.911   3.654
45018W        W17278  26.738   1.242  10.586
45019W        W17279  43.422   7.720   0.123
45020W        W17280   6.805   3.546  11.937
45021W        W17281  35.688  28.036  12.024
45022W        W17282  30.984  40.116   2.395
45023W        W17283  28.403  18.363  11.573
45024W        W17284   7.728  20.025   0.844
45025W        W17285  42.535  19.116   0.194
45026W        W17286  12.897  11.275   1.216
45027W        W17287  35.590   4.117  14.472
45028W        W17288  14.074  34.606  14.618
45029W        W17289   9.124   4.308  11.464
45030W        W17290  13.240  18.657   0.692
45031W        W17291  31.635  27.144  14.547
45032W        W17292  33.190  21.781  12.162
45033W        W17293  34.287  44.499  14.739
45034W        W17294  38.928  39.711   2.170
45035W        W17295  33.019  15.801   0.328
45036W        W17296  17.250  19.596   1.350
45037W        W17297  23.757  42.778  14.881
45038W        W17298  25.329  36.447   3.235
45039W        W17299  27.981  44.112  11.117
45040W        W17300  28.587   8.940  12.949
45041W        W17301  10.324  31.904   4.091
45042W        W17302  39.292   4.910  14.414
45043W        W17303  19.464  29.984   0.197
45044W        W17304  25.975  21.783   1.822
45045W        W17305  17.752  33.486   4.343
45046W        W17306  14.336  17.231   3.545
45047W        W17307   8.315  13.040  11.596
45048W        W17308  18.589  14.717  13.828
45049W        W17309  36.982  28.870   1.718
45050W        W17310   0.410  42.038   1.822
45051W        W17311  37.835  36.280  11.079
45052W        W17312  39.938  37.922   1.297
45053W        W17313  20.515   1.839   1.931
45054W        W17314  22.117   7.596   3.681
45055W        W17315  14.536  30.003  14.202
45056W        W17316  17.089   5.413  12.005
45057W        W17317  31.145   0.340   0.308
45058W        W17318  15.850  33.568  11.506
45059W        W17319  43.712   9.269   3.782
45060W        W17320  29.059  31.636  10.589
45061W        W17321  40.875  41.807   1.160
45062W        W17322  35.281  36.979   2.365
45063W        W17323   8.620  13.319  11.926
45064W        W17324  15.725  18.780   3.240
45065W        W17325  36.951  28.529  14.399
45066W        W17326  24.065  19.649   0.553
45067W        W17327   0.048  39.513   2.188
45068W        W17328  20.303  12.844  10.646
45069W        W17329  26.939  25.066   3.186
45070W        W17330   7.547  12.850   4.982
45071W        W17331  10.060   8.861  11.934
45072W        W17332  20.296  19.095  12.981
45073W        W17333  10.692  28.864  10.784
45074W        W17334  16.715  34.872   1.347
45075W        W17335  26.897  24.782  12.439
45076W        W17336  16.855  16.645  14.548
45077W        W17337  40.936  35.860   2.735
45078W        W17338   5.884  34.911  10.939
45079W        W17339  20.217  19.065   2.607
45080W        W17340   1.429  38.161  14.067
45081W        W17341  43.045   8.732  14.251
45082W        W17342  19.094   6.336   0.356
45083W        W17343   2.794   1.192  13.406
45084W        W17344   3.415  34.589   2.789
45085W        W17345  24.307  33.512  11.540
45086W        W17346  35.770  39.403  12.949
45087W        W17347  43.346  19.194   3.639
45088W        W17348  18.103  14.012  12.399
45089W        W17349  27.368   1.751   1.229
45090W        W17350  40.963  42.157   1.535
45091W        W17351  32.398  32.366  12.278
45092W        W17352  33.274  33.105   2.664
45093W        W17353  24.713  25.701  11.886
45094W        W17354  41.572  32.001   3.274
45095W        W17355  11.410  37.956  13.426
45096W        W17356  20.953  29.554   0.419
45097W        W17357  37.883  18.160  11.775
45098W        W17358  31.555  32.426   3.798
45099W        W17359   0.776  17.854   2.340
45100W        W17360  11.949  42.680  14.846
45101W        W17361  20.196   1.767  13.116
45102W        W17362   4.518  41.409   3.345
45103W        W17363  12.772  37.813   4.332
45104W        W17364  25.524   3.896  10.865
45105W        W17365   6.158  35.196   1.239
45106W        W17366  34.573   5.427   0.035
45107W        W17367  12.301   8.901   1.241
45108W        W17368  28.573  22.283  12.606
45109W        W17369  35.118   3.270   4.280
45110W        W17370  19.393  20.271  11.686
45111W        W17371   0.909  27.957  14.848
45112W        W17372  31.823  18.776  12.957
45113W        W17373  40.293  24.175   4.082
45114W        W17374  34.349   4.359   4.253
45115W        W17375  33.417  27.997  12.972
45116W        W17376   2.450  29.117  12.292
45117W        W17377  13.687  32.979  14.459
45118W        W17378  17.607  29.886   1.948
45119W        W17379  36.857   9.723  13.064
45120W        W17380  34.361  31.023  11.977
45121W        W17381   8.215  38.826  10.863
45122W        W17382  10.276  43.904   3.422
45123W        W17383   9.821   2.018  13.384
45124W        W17384  13.106  43.576   1.517
45125W        W17385   1.421   2.562   0.462
45126W        W17386  24.748  14.071  10.778
45127W        W17387   5.342  39.749   1.408
45128W        W17388  22.168   9.222   4.414
45129W        W17389  34.924  33.898   4.590
45130W        W17390   0.308   2.259   0.346
45131W        W17391   2.681  44.289  13.521
45132W        W17392  15.265  18.495  12.478
45133W        W17393  40.324   8.591   4.564
45134W        W17394  11.334   2.929  11.993
45135W        W17395  26.950   9.343   2.679
45136W        W17396  24.971  18.813   1.818
45137W        W17397   2.008   9.670   1.247
45138W        W17398   1.826  41.537   4.063
45139W        W17399   4.779  14.077   3.592
45140W        W17400   9.149  10.568   3.691
45141W        W17401  21.065  14.654   4.553
45142W        W17402  25.992  10.807   1.211
45143W        W17403  32.033   2.159   3.433
45144W        W17404  31.455  14.065  14.375
45145W        W17405  15.841  18.566   0.615
45146W        W17406  14.658  26.099   3.635
45147W        W17407   0.268   8.223  13.823
45148W        W17408  31.375  28.701   0.266
45149W        W17409  40.795  41.979  11.584
45150W        W17410  27.924   9.719  12.422
45151W        W17411  10.942  41.471   1.975
45152W        W17412  29.800  40.861   4.896
45153W        W17413  34.938  21.536  11.560
45154W        W17414  28.204  31.134  12.507
45155W        W17415  35.067  35.126   3.766
45156W        W17416  29.329   1.760  14.677
45157W        W17417  42.984  19.671   1.850
45158W        W17418  39.584   8.792  14.288
45159W        W17419   8.534  37.428   1.320
45160W        W17420  29.080   9.429   3.834
45161W        W17421  42.412  21.730   1.841
45162W        W17422  13.140  43.328   4.157
45163W        W17423   5.782  26.580   0.359
45164W        W17424  32.743  38.402   2.514
45165W        W17425  32.814   7.144   4.526
45166W        W17426   5.217  13.830  12.248
45167W        W17427  38.196  19.741   4.913
45168W        W17428   9.488   8.825   2.395
45169W        W17429  13.457  19.815  14.128
45170W        W17430   5.365  20.623   0.718
45171W        W17431   9.469  19.617  11.476
45172W        W17432   7.294  44.381   4.730
45173W        W17433  17.877   5.221   1.923
45174W        W17434  34.782   2.089  11.415
45175W        W17435   1.034   0.845   0.697
45176W        W17436  22.703   2.989   0.454
45177W        W17437   9.428   9.911   0.219
45178W        W17438   5.658  28.524   4.647
45179W        W17439  38.099   9.343   0.961
45180W        W17440  12.339   7.628  11.489
45181W        W17441  24.634   4.780  13.466
45182W        W17442  35.889  10.605  13.752
45183W        W17443  34.608  36.687   3.098
45184W        W17444  23.621   4.022  11.561
45185W        W17445  20.816  19.350   1.351
45186W        W17446  29.597  13.800  13.528
45187W        W17447  25.580  21.953   0.401
45188W        W17448  32.427  33.262  11.762
45189W        W17449  24.464  23.712   1.291
45190W        W17450  22.721  41.262  14.439
45191W        W17451  16.687   4.905  11.641
45192W        W17452  44.363  34.654  13.408
45193W        W17453  26.980  13.659  14.402
45194W        W17454  31.129  44.833   3.806
45195W        W17455  27.701  26.372  11.016
45196W        W17456  25.476  40.377  13.795
45197W        W17457  26.560  43.560  11.160
45198W        W17458  28.966  25.247   0.018
45199W        W17459  16.616   6.291   2.759
45200W        W17460  38.381  15.278  14.948
45201W        W17461   8.240  20.743  14.968
45202W        W17462  24.073  25.659  14.022
45203W        W17463  31.106  12.877   1.696
45204W        W17464  18.280   0.396  12.028
45205W        W17465  10.113   2.781  11.628
45206W        W17466  22.020  17.766  13.435
45207W        W17467  29.232  13.885   1.829
45208W        W17468  42.681  39.571   0.881
45209W        W17469  20.025  43.340   3.035
45210W        W17470  35.532  33.947  10.784
45211W        W17471   4.646  27.746   4.114
45212W        W17472  43.929  42.441  10.700
45213W        W17473  32.408  31.414   3.734
45214W        W17474  41.450   0.958  11.817
45215W        W17475  26.434  11.840  14.525
45216W        W17476  29.082  16.436  12.500
45217W        W17477  22.645  29.988  11.932
45218W        W17478   5.000  33.033   4.500
45219W        W17479   8.816   4.146   9.950
45220W        W17480  17.193   0.684  12.545
45221W        W17481  27.516  27.063   3.695
45222W        W17482  22.704   7.295  12.297
45223W        W17483  13.281  28.531  12.877
45224W        W17484  25.161  41.146   3.574
45225W        W17485  17.125  14.162  14.924
45226W        W17486  27.484  16.605   3.546
45227W        W17487   5.864  37.980  10.630
45228W        W17488  19.094  29.099   4.193
45229W        W17489  16.171  36.331   0.288
45230W        W17490  24.217  37.785   0.727
45231W        W17491  43.776  14.193  11.067
45232W        W17492  27.045  31.014   4.749
45233W        W17493  19.789  39.999  11.464
45234W        W17494   0.847  35.130   4.584
45235W        W17495  15.751  32.674  11.640
45236W        W17496  28.128   0.033   3.640
45237W        W17497  37.745  11.428  12.920
45238W        W17498  14.866  37.592  14.779
45239W        W17499  18.282  43.963   2.308
45240W        W17500  26.589  16.125  11.198
45241W        W17501   3.573  38.491   1.960
45242W        W17502   2.479  24.712  14.022
45243W        W17503  19.340  21.731  11.368
45244W        W17504   9.596  11.329   3.265
45245W        W17505   0.710  38.846  14.972
45246W        W17506  37.953   8.110  14.988
45247W        W17507  31.406  23.528  10.937
45248W        W17508  17.763  26.657   0.466
45249W        W17509   4.309  39.978  13.403
45250W        W17510  12.230  43.286   0.111
45251W        W17511   7.831  29.237  10.724
45252W        W17512   2.171  14.080  13.451
45253W        W17513  44.460  32.901   2.217
45254W        W17514  11.763  41.808   0.916
45255W        W17515  14.758  41.314  11.136
45256W        W17516  42.388  39.527  12.503
45257W        W17517   5.717  22.960   0.870
45258W        W17518  37.893  28.963  11.646
45259W        W17519   3.484   3.477  14.948
45260W        W17520  11.269  29.989  12.928
45261W        W17521  37.230  14.984  11.968
45262W        W17522   4.010  41.426   3.423
45263W        W17523  14.064  17.984   1.889
45264W        W17524  36.906  21.058   4.182
45265W        W17525  28.307  27.219  11.118
45266W        W17526  26.970  41.848  10.902
45267W        W17527  30.640  33.322  11.718
45268W        W17528  22.229  17.112   4.880
45269W        W17529  32.352   2.859   0.890
45270W        W17530  37.666  20.580   0.836
45271W        W17531   8.655  29.905   2.390
45272W        W17532   1.502  10.960  13.424
45273W        W17533  13.896   7.197   1.289
45274W        W17534  26.994  35.580   3.170
45275W        W17535  41.400  22.624  10.600
45276W        W17536  21.950   1.987  14.576
45277W        W17537  11.789  35.784  12.014
45278W        W17538  27.073  10.166  14.981
45279W        W17539  44.865   0.638  14.867
45280W        W17540  42.455  30.557  13.947
45281W        W17541  26.114  22.593  14.855
45282W        W17542  19.812  28.470  11.221
45283W        W17543  28.519  25.351  10.731
45284W        W17544  19.242   0.890   4.995
45285W        W17545  37.576  23.668   1.223
45286W        W17546  10.135  30.471  13.932
45287W        W17547   0.227  34.670   1.767
45288W        W17548   2.678   3.397  11.126
45289W        W17549  20.055  43.426  14.286
45290W        W17550  32.614  12.573   0.800
45291W        W17551  23.047  11.222   0.765
45292W        W17552  18.710   4.894   0.436
45293W        W17553  17.310  18.074  11.605
45294W        W17554   8.694  25.207  11.659
45295W        W17555   4.430   9.833  10.680
45296W        W17556  40.227  32.069   3.680
45297W        W17557  35.416  22.094  12.510
45298W        W17558   3.959  39.451   0.028
45299W        W17559  27.639  18.381   3.098
45300W        W17560   2.127  15.785   3.341
45301W        W17561  11.109  30.009   2.226
45302W        W17562  40.038   8.876  12.444
45303W        W17563  40.301  40.681  11.606
45304W        W17564  36.797  34.220  12.589
45305W        W17565  13.648  13.360  12.545
45306W        W17566  36.864   5.175  13.021
45307W        W17567  36.545  41.736  13.256
45308W        W17568  40.833  37.068  10.682
45309W        W17569   8.147  30.732  13.084
45310W        W17570  29.550  42.783  12.581
45311W        W17571  34.961  38.981   0.936
45312W        W17572  31.554   0.767  12.620
45313W        W17573  24.543  11.591   4.552
45314W        W17574  44.384  38.870   2.261
45315W        W17575   7.211  30.961  13.557
45316W        W17576  34.774   2.273   2.086
45317W        W17577  43.045  37.785   5.098
45318W        W17578   2.216  23.634   4.838
45319W        W17579   5.358  17.581   3.621
45320W        W17580  27.042  34.833  12.998
45321W        W17581  28.914   8.845  13.995
45322W        W17582  26.135   9.912   0.463
45323W        W17583  13.108  16.612   4.235
45324W        W17584  23.108   0.643  13.495
45325W        W17585  33.010  20.054  14.072
45326W        W17586  20.748  29.453  11.047
45327W        W17587  30.031  29.374   5.484
45328W        W17588  20.224  34.258   1.780
45329W        W17589   1.023   1.646  13.797
45330W        W17590  18.238  12.904  13.504
45331W        W17591  42.387   8.601  14.402
45332W        W17592   2.853   6.616  14.902
45333W        W17593   9.252  12.928   2.346
45334W        W17594  19.696  31.193   3.700
45335W        W17595   1.213  24.715   2.401
45336W        W17596  40.705  44.507   3.709
45337W        W17597  14.338  33.280  11.800
45338W        W17598   9.323  36.120  13.518
45339W        W17599  38.487   9.646  11.615
45340W        W17600  27.789  31.090  10.721
45341W        W17601  34.276  18.786   3.351
45342W        W17602  11.200  23.470  14.471
45343W        W17603  38.962  28.444   3.396
45344W        W17604   9.394  42.566  11.974
45345W        W17605   3.536  27.055   1.177
45346W        W17606  19.782  31.983   4.900
45347W        W17607  26.591  23.043   1.841
45348W        W17608  43.672  19.984  14.836
45349W        W17609  22.292   6.857  12.074
45350W        W17610  13.686  21.728   4.167
45351W        W17611  12.553  26.080  13.828
45352W        W17612  35.224  22.722  12.976
45353W        W17613  24.566   8.130  14.155
45354W        W17614   9.383   7.944   2.301
45355W        W17615  24.193  40.943   3.775
45356W        W17616  21.347   6.728   1.741
45357W        W17617   4.061   8.777  12.493
45358W        W17618   9.253  29.496   0.171
45359W        W17619  39.924  10.056   4.521
45360W        W17620  44.357  10.650  12.081
45361W        W17621  26.788   3.694  13.939
45362W        W17622   4.409  40.080  11.595
45363W        W17623   7.648   8.114   0.108
45364W        W17624  19.354  17.086   5.076
45365W        W17625  19.721  32.120   3.878
45366W        W17626   6.231  10.900  11.897
45367W        W17627   6.196  30.151   3.387
45368W        W17628   4.102  38.479  12.001
45369W        W17629  44.182  35.003   4.161
45370W        W17630  13.609  15.572   2.594
45371W        W17631  17.574  41.733  13.949
45372W        W17632   2.804  27.411  14.469
45373W        W17633   2.785   3.267  14.778
45374W        W17634  14.429  42.162  12.104
45375W        W17635   4.986  20.225  12.411
45376W        W17636  15.181  35.147   4.143
45377W        W17637  39.329  23.787  11.036
45378W        W17638  42.737  30.562   0.286
45379W        W17639  44.867   1.646   0.756
45380W        W17640  14.807  28.676  11.097
45381W        W17641  23.656   0.251  11.011
45382W        W17642   4.273  31.540   0.675
45383W        W17643   3.896  29.569  12.776
45384W        W17644  31.394  14.312   0.547
45385W        W17645  30.988   2.166  14.037
45386W        W17646  30.180  33.497  11.576
45387W        W17647  16.676   3.282   1.921
45388W        W17648  18.891  28.739   1.691
45389W        W17649   0.418  43.566  14.478
45390W        W17650  40.415  43.850   2.739
45391W        W17651  31.494  35.814  13.546
45392W        W17652  39.176  18.544  10.933
45393W        W17653   7.804  11.339   2.748
45394W        W17654   1.898   6.204   0.024
45395W        W17655  44.345   8.705   4.183
45396W        W17656  18.101  38.458   1.231
45397W        W17657  31.941   4.494   3.322
45398W        W17658   9.362  42.729  13.093
45399W        W17659  36.667  25.558  12.566
45400W        W17660  17.012  30.301  10.726
45401W        W17661  40.401  28.489   3.900
45402W        W17662  16.047  38.306   1.854
45403W        W17663  37.579   7.749   1.914
45404W        W17664  20.773  14.188  12.488
45405W        W17665   4.970  34.868  11.875
45406W        W17666  31.728  20.708  12.067
45407W        W17667   0.705  27.749   2.413
45408W        W17668  43.785   5.005   1.892
45409W        W17669   5.821  10.143   4.135
45410W        W17670  36.078  20.330  11.989
45411W        W17671   3.756   4.450   1.471
45412W        W17672   9.765  32.486  11.066
45413W        W17673   4.623  41.662  12.373
45414W        W17674   0.936  14.913   3.634
45415W        W17675   0.330  27.102   2.849
45416W        W17676  38.426  16.189   3.890
45417W        W17677  12.613  15.329   0.674
45418W        W17678  32.874   1.689   1.974
45419W        W17679  33.982   6.495   2.675
45420W        W17680  44.896  36.087   1.339
45421W        W17681  23.814   3.923  12.437
45422W        W17682   3.974  18.729   1.905
45423W        W17683  37.347   9.748   2.911
45424W        W17684   2.416  26.023   1.375
45425W        W17685   7.924  12.381  12.449
45426W        W17686   2.542  42.048  14.670
45427W        W17687  25.739  37.981  12.609
45428W        W17688  18.487  16.975   4.182
45429W        W17689  10.633  41.480   2.916
45430W        W17690  40.234  30.590  11.709
45431W        W17691  30.061   8.943   1.937
45432W        W17692  13.353  40.833   2.750
45433W        W17693  42.960  26.875   2.727
45434W        W17694  22.586   6.189   5.076
45435W        W17695  24.396  27.633  11.101
45436W        W17696  43.945  42.003   3.095
45437W        W17697  11.264  38.825  11.735
45438W        W17698  37.348  37.693  12.577
45439W        W17699  36.924  36.058   0.753
45440W        W17700  14.086  32.363  13.325
45441W        W17701   2.984  26.686   4.965
45442W        W17702  24.223  26.754   3.842
45443W        W17703  19.447  25.778  12.553
45444W        W17704   2.125  22.039  13.515
45445W        W17705  33.087  21.072   3.012
45446W        W17706  27.761  27.816   4.102
45447W        W17707   6.158  25.468  13.535
45448W        W17708  30.995  33.427  14.799
45449W        W17709  21.535  35.914   4.109
45450W        W17710  40.636  34.542   3.473
45451W        W17711  43.753  24.271   3.619
45452W        W17712  37.865  10.638  12.790
45453W        W17713  40.984  25.809  13.394
45454W        W17714  40.087  25.488  12.925
45455W        W17715  16.558   0.444  10.673
45456W        W17716   3.147  37.634   2.719
45457W        W17717   6.528  25.884  11.587
45458W        W17718  24.959   7.238  10.722
45459W        W17719  18.068  22.195  10.834
45460W        W17720  19.145  40.097  13.982
45461W        W17721   5.362  26.600  12.485
45462W        W17722  16.664  44.997   4.880
45463W        W17723  19.165   3.431  13.541
45464W        W17724  31.277  31.621  12.211
45465W        W17725  26.475  14.692  11.624
45466W        W17726  29.817  25.639  11.129
45467W        W17727  31.000  26.001  14.914
45468W        W17728  38.126  16.174  10.818
45469W        W17729  21.682  30.669  13.919
45470W        W17730  13.128  13.343   0.937
45471W        W17731  18.543  12.317   4.245
45472W        W17732   0.246  30.480  14.325
45473W        W17733  14.511  27.090  12.371
45474W        W17734   0.984  18.142  14.002
45475W        W17735  25.463   8.023  13.984
45476W        W17736  21.534  15.546  14.897
45477W        W17737  43.359   0.290  13.462
45478W        W17738  18.297  40.010  12.485
45479W        W17739  37.970  44.635  10.461
45480W        W17740  39.498  24.728  12.961
45481W        W17741  14.526  39.021   2.706
45482W        W17742  31.442  27.211   0.455
45483W        W17743   4.632  10.097   2.363
45484W        W17744  40.695  17.993   0.859
45485W        W17745   1.347  31.868   3.678
45486W        W17746  33.619   6.789   4.826
45487W        W17747  22.246   1.151  13.507
45488W        W17748  22.615   1.209  13.931
45489W        W17749  20.655   9.642  11.427
45490W        W17750  20.167  13.293  11.610
45491W        W17751  22.313  29.733   2.104
45492W        W17752   5.402  20.729  14.191
45493W        W17753  21.775  34.849  14.937
45494W        W17754  31.040  23.901  13.334
45495W        W17755  36.289  10.242  13.734
45496W        W17756  31.823   8.550  12.408
45497W        W17757  22.728  30.529  12.041
45498W        W17758  10.186  17.239   1.044
45499W        W17759  13.187  27.637  11.102
45500W        W17760  21.098  40.786  13.118
45501W        W17761   0.872  44.807  11.774
45502W        W17762   6.693  34.494  11.406
45503W        W17763   8.690  18.362  10.771
45504W        W17764  26.467  14.443  14.971
45505W        W17765   3.793  15.866  13.069
45506W        W17766  21.586  30.917   3.232
45507W        W17767   7.436  39.883   4.178
45508W        W17768  35.953  20.535   4.054
45509W        W17769  37.401  31.729   4.327
45510W        W17770  38.710  13.339  12.876
45511W        W17771  35.817  15.470  14.909
45512W        W17772  16.740  14.345  13.098
45513W        W17773  39.821  44.952  14.342
45514W        W17774   5.189  16.162   2.727
45515W        W17775   4.759  17.099   0.405
45516W        W17776  13.103  43.841  13.383
45517W        W17777   7.112  23.269  12.046
45518W        W17778  33.344  42.852   0.441
45519W        W17779  44.893  29.120   4.805
45520W        W17780  25.559  38.254  14.052
45521W        W17781  37.272  25.590  12.544
45522W        W17782  31.907   0.046  10.819
45523W        W17783  28.089  37.362   1.922
45524W        W17784  29.899  27.578  14.504
45525W        W17785  35.945  14.198   3.206
45526W        W17786  33.562   1.999   2.668
45527W        W17787  29.683  17.543   2.386
45528W        W17788  40.061   7.872   5.018
45529W        W17789  40.569   0.370  13.983
45530W        W17790   1.031  15.375   3.457
45531W        W17791  16.181  21.189   4.607
45532W        W17792   9.228  39.019   3.113
45533W        W17793  24.117   2.494   3.386
45534W        W17794  32.379   0.954  13.812
45535W        W17795  39.790  33.730   2.476
45536W        W17796  42.344   9.950   4.162
45537W        W17797  38.361  32.599  12.428
45538W        W17798  29.191  31.421  13.314
45539W        W17799  13.961   5.591  12.698
45540W        W17800   2.943  34.497   3.001
45541W        W17801  19.686  16.052   3.197
45542W        W17802  36.599  10.186  12.321
45543W        W17803  40.803  16.353  12.941
45544W        W17804  13.927  44.361  13.455
45545W        W17805  17.295  36.380   4.507
45546W        W17806  10.729   4.428   2.878
45547W        W17807  21.567   2.443  10.641
45548W        W17808  18.145  10.318  13.525
45549W        W17809  21.262  43.517   0.673
45550W        W17810  33.490  37.552  13.122
45551W        W17811   6.530  43.816  13.415
45552W        W17812  21.010  13.217  14.210
45553W        W17813  25.510  17.045   3.638
45554W        W17814  42.795   5.586   4.641
45555W        W17815  13.060  44.057  12.919
45556W        W17816  41.937  18.388   1.219
45557W        W17817  42.271  15.277  10.767
45558W        W17818  28.111  10.428  13.164
45559W        W17819  31.661  39.680  13.964
45560W        W17820  17.865  34.463  13.466
45561W        W17821  44.683  24.551   4.394
45562W        W17822  16.326  29.128  14.281
45563W        W17823   5.849  24.623   3.733
45564W        W17824   8.722  12.881  13.612
45565W        W17825  30.765  44.204   0.472
45566W        W17826  32.162   1.276  14.159
45567W        W17827  44.087  41.111  14.847
45568W        W17828   2.413   9.437   4.981
45569W        W17829   3.939  27.861   0.474
45570W        W17830  44.693  39.005   4.843
45571W        W17831  23.350   6.391   3.420
45572W        W17832   7.804   3.800  14.771
45573W        W17833   8.560  15.377  11.963
45574W        W17834  38.164  42.848   4.164
45575W        W17835   6.860  28.558  12.590
45576W        W17836  27.216  26.653   2.379
45577W        W17837  25.187   6.369   4.160
45578W        W17838   1.474  39.421   1.181
45579W        W17839  21.203  15.327   3.986
45580W        W17840   1.293  42.216  14.262
45581W        W17841   8.812  26.744   3.244
45582W        W17842  43.403  38.361  10.861
45583W        W17843   9.314  19.220  14.452
45584W        W17844   3.797  27.682   1.453
45585W        W17845  14.105  26.415  14.806
45586W        W17846  15.063  27.927   0.523
45587W        W17847  37.464  27.544   1.929
45588W        W17848  26.235   9.960   4.185
45589W        W17849   0.090   0.846   0.280
45590W        W17850  37.932  18.153   4.231
45591W        W17851  25.408  29.168   3.968
45592W        W17852  33.847  20.477   3.803
45593W        W17853  12.399  17.054  10.684
45594W        W17854  36.345  13.588  13.917
45595W        W17855  41.157  13.372  12.809
45596W        W17856   1.337  18.715   4.985
45597W        W17857  40.577  16.769  14.383
45598W        W17858   3.777  21.530   2.388
45599W        W17859   8.128   7.146  11.651
45600W        W17860  25.221   0.960   1.853
45601W        W17861  14.694  23.946  13.405
45602W        W17862  40.684  39.349   4.209
45603W        W17863  19.262  18.529  13.443
45604W        W17864  44.661  27.840   9.923
45605W        W17865  28.467   3.806   4.272
45606W        W17866  19.553  25.027   1.052
45607W        W17867  23.917  27.619  11.282
45608W        W17868   7.855  23.608  14.478
45609W        W17869  43.055  24.686  11.714
45610W        W17870  20.453  16.233   0.473
45611W        W17871  37.755  44.539  11.795
45612W        W17872  42.882   3.311   2.145
45613W        W17873  31.852  17.835   4.156
45614W        W17874  11.914  24.246   2.541
45615W        W17875  13.123   0.694   3.171
45616W        W17876  33.786  41.843   2.734
45617W        W17877  24.630  12.130  12.229
45618W        W17878  25.200  31.196   1.351
45619W        W17879  31.428  11.113   3.710
45620W        W17880  44.376   6.971   4.024
45621W        W17881   3.148   8.705   4.596
45622W        W17882  25.948  29.291   4.066
45623W        W17883  42.302   3.296   0.214
45624W        W17884  15.475  35.598   0.950
45625W        W17885  20.163  15.796   1.413
45626W        W17886  31.180  24.113   1.352
45627W        W17887  24.703  44.309  14.421
45628W        W17888  37.901   5.951  13.807
45629W        W17889  12.470  22.494   4.014
45630W        W17890  21.759  26.022   2.332
45631W        W17891  39.559  43.911  12.671
45632W        W17892  21.015  11.087   4.105
45633W        W17893   7.910  20.925  10.227
45634W        W17894  17.695  14.554  14.798
45635W        W17895  12.423  27.602  13.321
45636W        W17896  26.989  30.978   1.711
45637W        W17897  25.026  12.364  12.023
45638W        W17898  19.025  20.156   4.096
45639W        W17899   1.243  26.534   2.074
45640W        W17900  25.179  38.385   3.984
45641W        W17901  21.792  43.011  10.729
45642W        W17902  25.478  23.572   1.248
45643W        W17903  26.591  18.534  14.251
45644W        W17904  28.117   7.316   5.117
45645W        W17905  11.908  35.285  11.158
45646W        W17906  37.554  12.454   2.146
45647W        W17907  29.924  43.891  14.414
45648W        W17908  15.858  15.964   3.106
45649W        W17909   6.166  11.820   2.395
45650W        W17910  43.631   5.591  13.959
45651W        W17911  35.873  40.146  11.121
45652W        W17912  30.210   9.403   2.669
45653W        W17913  43.526   8.684   3.126
45654W        W17914  36.750  29.193  13.565
45655W        W17915  24.006  39.255  13.759
45656W        W17916   1.166  30.774   5.080
45657W        W17917  38.635  36.038  10.657
45658W        W17918  26.069  19.955  13.489
45659W        W17919  16.078  23.615  11.614
45660W        W17920  19.531  11.940  12.951
45661W        W17921  31.607  36.477  11.459
45662W        W17922  24.609  10.694   4.715
45663W        W17923  11.656   8.799   2.906
45664W        W17924  12.077  11.959  12.004
45665W        W17925   5.366  11.999   4.165
45666W        W17926   7.696  21.978   4.659
45667W        W17927  29.530  16.228   3.670
45668W        W17928   3.643   7.792   2.264
45669W        W17929  32.668  23.691  11.030
45670W        W17930  34.629  28.371   2.340
45671W        W17931  24.643  25.880   1.795
45672W        W17932  35.842  40.238  12.044
45673W        W17933   5.815  27.056  13.866
45674W        W17934  31.482  35.778   4.309
45675W        W17935  44.740  35.594   1.833
45676W        W17936  31.903  25.579  12.919
45677W        W17937   3.269  44.191   2.335
45678W        W17938   9.253  18.086   1.434
45679W        W17939  13.138  43.951  14.249
45680W        W17940  38.453  36.082   4.691
45681W        W17941  30.279  30.965   4.246
45682W        W17942   2.861  22.339   4.267
45683W        W17943  38.047  27.708  14.850
45684W        W17944  43.506  32.842   1.313
45685W        W17945  12.808   0.969   4.138
45686W        W17946   3.683   7.719  14.859
45687W        W17947  42.962   1.663   2.933
45688W        W17948  26.981  35.890  11.862
45689W        W17949  35.148  21.922  11.302
45690W        W17950  34.621  35.752  14.170
45691W        W17951   6.702  38.309   4.984
45692W        W17952   6.347  20.010   2.246
45693W        W17953  34.900   2.786   3.635
45694W        W17954  24.740  21.784   1.019
45695W        W17955  35.938  18.519   2.852
45696W        W17956   8.288  33.005  14.369
45697W        W17957  29.197   2.670  11.459
45698W        W17958  28.777  29.942  12.533
45699W        W17959  34.859  39.788   4.486
45700W        W17960  22.683   4.279  12.391
45701W        W17961  31.055  29.921   2.897
45702W        W17962  10.456  24.847  11.065
45703W        W17963  21.659  12.011  10.198
45704W        W17964  12.882  27.433  14.924
45705W        W17965  19.428  42.973   4.530
45706W        W17966  21.510   6.826   3.958
45707W        W17967  11.078  42.296  11.621
45708W        W17968  31.428  35.532  13.985
45709W        W17969  30.515  41.310  14.866
45710W        W17970   5.319  35.138  11.603
45711W        W17971  11.942  38.066   0.727
45712W        W17972  17.180  24.740   2.830
45713W        W17973   8.302  10.295  11.019
45714W        W17974  33.607  22.001   0.247
45715W        W17975  40.368  22.254  11.070
45716W        W17976   9.940   3.921   1.761
45717W        W17977  42.526  14.415   3.713
45718W        W17978  14.361  14.058  10.200
45719W        W17979  10.949  42.504   4.123
45720W        W17980  29.662  14.148  12.669
45721W        W17981  21.074  44.459   0.228
45722W        W17982  27.677   9.693  10.620
45723W        W17983  14.917  18.607  14.373
45724W        W17984  37.085  15.201  13.487
45725W        W17985   8.895  31.586  12.469
45726W        W17986   9.658  33.834  12.235
45727W        W17987  43.418  29.013  13.708
45728W        W17988   2.983  36.493   4.615
45729W        W17989  13.601  44.381   4.644
45730W        W17990  42.104  16.074   3.137
45731W        W17991  25.822  26.597   3.673
45732W        W17992   0.212  28.187  12.117
45733W        W17993  24.692  16.202  10.397
45734W        W17994  44.474  30.083   4.786
45735W        W17995  26.542  42.289   1.798
45736W        W17996  15.299  41.073   0.853
45737W        W17997  36.520  29.119   1.792
45738W        W17998  35.376   2.701  13.513
45739W        W17999  26.513  32.493  14.814
45740W        W18000  13.794  19.157   4.379
45741W        W18001   7.971  33.571  10.208
45742W        W18002  22.485  30.577  13.907
45743W        W18003  25.442  13.197   4.018
45744W        W18004  23.368  25.362   0.565
45745W        W18005  30.627  16.790   1.013
45746W        W18006  32.418  17.806  14.481
45747W        W18007  37.397   3.456   0.983
45748W        W18008  14.128   2.427  10.720
45749W        W18009  17.582  16.059  13.434
45750W        W18010  32.109   1.406   1.894
45751W        W18011  27.915  31.607  11.450
45752W        W18012  16.320  44.253   2.995
45753W        W18013   0.999  35.798  11.131
45754W        W18014  16.625   8.457   3.612
45755W        W18015  33.616  33.497  10.027
45756W        W18016  40.796  29.894  12.957
45757W        W18017  22.043  13.045  13.046
45758W        W18018  10.454  33.075   9.795
45759W        W18019   1.454  24.825   0.472
45760W        W18020  39.403  18.853   3.148
45761W        W18021  22.095  42.742  12.405
45762W        W18022  12.694  37.507  13.140
45763W        W18023  42.984  31.540  14.374
45764W        W18024   5.803  36.261  12.374
45765W        W18025  41.036   3.135  14.994
45766W        W18026  34.357  22.221   3.643
45767W        W18027  33.015  40.460   3.614
45768W        W18028  34.639  10.313   3.814
45769W        W18029  14.038  20.521   4.332
45770W        W18030   8.581  15.280  12.475
45771W        W18031  39.873   1.751   3.672
45772W        W18032   6.804  18.668   3.427
45773W        W18033   6.172  42.508   2.780
45774W        W18034  42.850  43.739   4.391
45775W        W18035   0.467  19.018   3.612
45776W        W18036  44.790   8.978   4.214
45777W        W18037  36.098   1.753  12.894
45778W        W18038  19.153   1.761   1.278
45779W        W18039  38.109  39.835  11.509
45780W        W18040  32.119  20.671   3.723
45781W        W18041  26.034  21.302   0.500
45782W        W18042   7.431  40.515  11.830
45783W        W18043   3.791  16.495   1.734
45784W        W18044   0.680  18.238  14.862
45785W        W18045  32.153  11.334  11.217
45786W        W18046   5.631  40.567  10.413
45787W        W18047  41.075  40.798   2.374
45788W        W18048  15.642  42.823  14.014
45789W        W18049  20.609  23.960  11.546
45790W        W18050  40.815  41.271  11.204
45791W        W18051  35.716  27.952  11.137
45792W        W18052  16.302  18.295  11.918
45793W        W18053  37.065  27.893  11.700
45794W        W18054  37.853  40.601   0.577
45795W        W18055  14.486  38.366   0.369
45796W        W18056  39.071   5.825  11.145
45797W        W18057  41.035   0.234  14.240
45798W        W18058  21.238   5.270   0.392
45799W        W18059  21.701  21.622   9.788
45800W        W18060  42.862  40.526   3.688
45801W        W18061  18.485  43.935  10.390
45802W        W18062  21.564  11.045  13.022
45803W        W18063  21.292  26.339  10.627
45804W        W18064  25.021  40.446   2.377
45805W        W18065  12.769  41.368  12.443
45806W        W18066   1.753  24.468  10.953
45807W        W18067   0.046  40.977  12.508
45808W        W18068  33.839   9.697   3.827
45809W        W18069  32.730   9.696  12.966
45810W        W18070   4.652  20.057  13.884
45811W        W18071  17.670  39.506   2.924
45812W        W18072  34.201  14.082  14.910
45813W        W18073  35.862  38.146   1.646
45814W        W18074  28.810  16.195   3.611
45815W        W18075   8.355   5.472  13.319
45816W        W18076  26.430  31.336   4.633
45817W        W18077  30.516  34.953   4.363
45818W        W18078  42.871   2.756  12.562
45819W        W18079  20.251  36.914   3.758
45820W        W18080  10.853  13.882  14.467
45821W        W18081  16.524  37.011   0.335
45822W        W18082  26.543  17.802  11.324
45823W        W18083  20.212   9.223  14.873
45824W        W18084  20.348   3.780  12.195
45825W        W18085  23.302  22.023   2.200
45826W        W18086  19.256  11.618   1.030
45827W        W18087  35.045  24.942   3.530
45828W        W18088  40.033   1.423  10.750
45829W        W18089  23.884   9.289   4.741
45830W        W18090  43.247  32.624   0.921
45831W        W18091  13.661  25.192   2.209
45832W        W18092  21.137  42.373   4.658
45833W        W18093  25.637  39.546  13.485
45834W        W18094  10.408  26.707  13.174
45835W        W18095  34.870  29.004  12.393
45836W        W18096   9.735   7.893   3.290
45837W        W18097  16.681  37.030   0.822
45838W        W18098  41.485   7.857  12.031
45839W        W18099  38.888  37.856   1.531
45840W        W18100  27.002  34.270  11.938
45841W        W18101  34.061  24.140   3.609
45842W        W18102  43.464  22.937   3.161
45843W        W18103  33.175  24.616   2.414
45844W        W18104  44.362  40.832   0.702
45845W        W18105  24.554   4.404  12.528
45846W        W18106   4.924  19.257  12.427
45847W        W18107   1.399  34.891  11.062
45848W        W18108  26.916  21.725   4.260
45849W        W18109  23.313  12.803  14.417
45850W        W18110  43.017  17.199  11.689
45851W        W18111  28.620  37.031  12.181
45852W        W18112  38.972  26.885   1.947
45853W        W18113  24.068  16.341  14.912
45854W        W18114  14.756  26.692  11.673
45855W        W18115  38.542  26.019   3.310
45856W        W18116  25.059  38.395  13.988
45857W        W18117  32.555   6.411  14.333
45858W        W18118  44.378  39.640  11.231
45859W        W18119  23.619  26.586   3.169
45860W        W18120  27.712   2.505   3.443
45861W        W18121  17.435  19.000  11.562
45862W        W18122  34.948   0.315   4.517
45863W        W18123  33.414  13.719  12.092
45864W        W18124   8.710   1.488  14.518
45865W        W18125  15.221  21.485  11.052
45866W        W18126   7.255   1.513  12.059
45867W        W18127  12.590  29.686   5.073
45868W        W18128  39.861  11.168   2.428
45869W        W18129  39.838   1.932  13.966
45870W        W18130  19.102  40.610   4.857
45871W        W18131  19.082  34.077  10.467
45872W        W18132   0.969  30.882  14.889
45873W        W18133  43.558   2.183   1.804
45874W        W18134  15.108  35.958  11.364
45875W        W18135  14.454  14.651  11.882
45876W        W18136  33.007   3.031  11.182
45877W        W18137  36.996   0.914   3.077
45878W        W18138  39.735   5.828   1.876
45879W        W18139   0.884  14.694   4.845
45880W        W18140   1.860  31.903   3.708
45881W        W18141  22.242  16.852   2.671
45882W        W18142   6.971  16.917  11.643
45883W        W18143  33.052  30.508   4.770
45884W        W18144  27.095  18.486  11.028
45885W        W18145  14.405  39.425  14.473
45886W        W18146   0.028  30.904   3.568
45887W        W18147  18.979   1.561  10.759
45888W        W18148  11.484   6.898   1.222
45889W        W18149  33.620  27.962  13.984
45890W        W18150  22.325  26.106  13.932
45891W        W18151  36.948   0.572  12.877
45892W        W18152  21.182  30.130  11.668
45893W        W18153  37.644  28.483   3.289
45894W        W18154  39.834   9.839   0.030
45895W        W18155  18.998   4.721  13.120
45896W        W18156  43.186  22.533   2.260
45897W        W18157  34.438  15.202  11.146
45898W        W18158   9.835   0.696   1.983
45899W        W18159  20.761  26.956   5.498
45900W        W18160  39.148  27.956  10.090
45901W        W18161  24.134  41.274   5.056
45902W        W18162  17.304  32.411  14.485
45903W        W18163  15.107   2.005  12.126
45904W        W18164  34.053   3.107   3.388
45905W        W18165  20.943  43.777   1.834
45906W        W18166  17.023  10.299  11.514
45907W        W18167  43.937  29.095   0.476
45908W        W18168  14.944  27.139  13.339
45909W        W18169  28.994  12.947  14.969
45910W        W18170  18.501  30.032  10.786
45911W        W18171   8.169  29.478  12.162
45912W        W18172  20.791  29.625   3.288
45913W        W18173   8.143   8.690   0.866
45914W        W18174  31.280  19.110  12.423
45915W        W18175  37.355  36.019  11.925
45916W        W18176   2.260  41.607  10.042
45917W        W18177   3.067  44.819  12.904
45918W        W18178  17.636  25.257   4.526
45919W        W18179   4.063  42.452   3.815
45920W        W18180  27.683  13.768   1.846
45921W        W18181   0.657  14.666   3.289
45922W        W18182   5.308   7.824   4.093
45923W        W18183  25.529   3.864   4.167
45924W        W18184  22.052  21.553   3.256
45925W        W18185  30.042  28.284  13.287
45926W        W18186  44.679   6.726  10.985
45927W        W18187  26.118   0.330  14.458
45928W        W18188   0.832  20.030   3.318
45929W        W18189   0.415  31.002  13.145
45930W        W18190  17.657  14.944  11.111
45931W        W18191  36.798   3.918  14.817
45932W        W18192   5.962  17.699  14.901
45933W        W18193  39.084   1.529   2.220
45934W        W18194  38.757  40.279   0.314
45935W        W18195   6.342  29.364   3.880
45936W        W18196  44.765  22.072  14.852
45937W        W18197  37.990  33.464   4.636
45938W        W18198   8.322  27.323   2.854
45939W        W18199   0.328  10.685   1.896
45940W        W18200  27.010  32.276   3.197
45941W        W18201  33.028  43.691   2.879
45942W        W18202  15.818  34.094   0.814
45943W        W18203  22.531  22.076  12.127
45944W        W18204  13.821  43.064   3.196
45945W        W18205   1.794  28.469   0.461
45946W        W18206  15.301  11.244   3.438
45947W        W18207   9.736  39.047  10.522
45948W        W18208  42.368   2.707   1.919
45949W        W18209  23.499  32.025   2.745
45950W        W18210  44.682  21.476  14.883
45951W        W18211  43.558  27.239   2.813
45952W        W18212  19.278  17.736  11.987
45953W        W18213   6.140   5.909   2.236
45954W        W18214  10.543  37.448   2.421
45955W        W18215   2.932  36.132  12.506
45956W        W18216  18.900  20.230  11.513
45957W        W18217  33.399  40.917   2.604
45958W        W18218   2.477  27.550  14.853
45959W        W18219   7.654  11.092  14.916
45960W        W18220   0.470  22.186  10.934
45961W        W18221  31.900  17.647  13.845
45962W        W18222  30.881  10.724   3.185
45963W        W18223  17.825   3.831  12.488
45964W        W18224  17.336  20.810   0.738
45965W        W18225  24.687  32.985   4.528
45966W        W18226  29.059  18.661  11.148
45967W        W18227  32.916   8.228  11.001
45968W        W18228  28.864  27.835   0.545
45969W        W18229   0.487  25.320  12.001
45970W        W18230  15.566  28.971  14.768
45971W        W18231  21.928  10.421   1.232
45972W        W18232  41.862  41.525  12.060
45973W        W18233  33.188  30.232  11.737
45974W        W18234  38.971  42.385   3.239
45975W        W18235  34.933  38.467  12.398
45976W        W18236  36.457  42.470   0.062
45977W        W18237   8.654   8.628  11.214
45978W        W18238  25.770  15.316   4.646
45979W        W18239  40.343  35.519   1.962
45980W        W18240  33.618  37.291  14.437
45981W        W18241  32.139  11.754  10.534
45982W        W18242  22.307  32.497   3.272
45983W        W18243  41.412  37.570   2.696
45984W        W18244  10.526   2.800   3.372
45985W        W18245   4.346  18.809   3.900
45986W        W18246  34.495   5.820   2.569
45987W        W18247   2.521  27.974  11.662
45988W        W18248  14.116   2.907   3.310
45989W        W18249   8.807  13.672  12.973
45990W        W18250  40.237  24.490   0.857
45991W        W18251   5.262  33.057  11.460
45992W        W18252  32.884   8.770   2.186
45993W        W18253   9.857  44.103  14.279
45994W        W18254  44.740  16.649  14.066
45995W        W18255  17.387  31.158  14.926
45996W        W18256  31.412  12.798   1.253
45997W        W18257  15.303  37.872   0.778
45998W        W18258  43.996  32.970   1.246
45999W        W18259  14.349  18.377  10.143
46000W        W18260   0.361  35.805  11.445
46001W        W18261   5.791  11.071  14.815
46002W        W18262  13.556   6.887  12.586
46003W        W18263  26.754  27.198  10.693
46004W        W18264  44.422  36.532   1.960
46005W        W18265  30.658  17.591   1.375
46006W        W18266  28.145  23.230  11.114
46007W        W18267  19.053  39.431   2.668
46008W        W18268   2.537  24.659   3.654
46009W        W18269  35.429  41.922  12.026
46010W        W18270  37.645   8.912  12.566
46011W        W18271   3.867   4.329   4.258
46012W        W18272  34.705  25.208   1.704
46013W        W18273  36.358  31.738  14.314
46014W        W18274   3.294  24.580  10.486
46015W        W18275  38.688  25.449  11.608
46016W        W18276  16.630  14.917  12.434
46017W        W18277  40.697  24.743   1.704
46018W        W18278  29.704   7.466  13.443
46019W        W18279  18.712  28.314   4.204
46020W        W18280   7.421  11.388  14.045
46021W        W18281  41.977  21.565  10.578
46022W        W18282  33.990  10.103  12.055
46023W        W18283   4.015  28.943  14.447
46024W        W18284   9.622   0.393  14.954
46025W        W18285  20.025  20.509   3.668
46026W        W18286   2.339  14.206  11.123
46027W        W18287  21.370   0.318  11.238
46028W        W18288  26.303  10.031   0.930
46029W        W18289  17.053  43.749   2.862
46030W        W18290   7.261   3.399   0.208
46031W        W18291   5.575  41.410  14.786
46032W        W18292  13.186  40.331   0.991
46033W        W18293  28.852  32.772   9.881
46034W        W18294  31.849  28.640   0.487
46035W        W18295  19.097   4.226   3.745
46036W        W18296  10.827   6.616   1.873
46037W        W18297  40.816  31.789  14.840
46038W        W18298   2.685   1.533  11.475
46039W        W18299   9.720  29.957  12.165
46040W        W18300  24.688  35.654  10.712
46041W        W18301  29.897  25.108   2.720
46042W        W18302  11.416  43.520   3.682
46043W        W18303  15.096   9.406   3.653
46044W        W18304  11.298  36.580  11.214
46045W        W18305  14.755  11.401   0.314
46046W        W18306  41.024  26.031   2.731
46047W        W18307  23.903  14.670  14.576
46048W        W18308  11.359  30.017  13.861
46049W        W18309   8.274  12.392   3.115
46050W        W18310  12.400   3.778  12.409
46051W        W18311   1.757   9.805   0.757
46052W        W18312  17.969   0.471  12.905
46053W        W18313  37.182  36.263   4.228
46054W        W18314   1.491  15.125  13.275
46055W        W18315  22.146  29.584   4.651
46056W        W18316  10.049  40.919  11.183
46057W        W18317  10.309  33.609  12.493
46058W        W18318   3.884   8.339  12.812
46059W        W18319  41.887  32.403   0.588
46060W        W18320  33.033  34.074   3.793
46061W        W18321   4.739   4.814  10.885
46062W        W18322   0.254  42.891   4.535
46063W        W18323  19.610  28.089  10.949
46064W        W18324  15.357  40.397  10.770
46065W        W18325  12.140   3.859  13.917
46066W        W18326   4.175  39.825  11.188
46067W        W18327  16.509  17.159  11.070
46068W        W18328  18.685  26.992   3.299
46069W        W18329  33.406  15.946  14.209
46070W        W18330  21.039  43.823  10.329
46071W        W18331  41.292  34.098  11.602
46072W        W18332  30.901   2.115  14.621
46073W        W18333  10.784  11.112  10.719
46074W        W18334  28.643  22.740   2.222
46075W        W18335  14.659  20.478   3.696
46076W        W18336  19.311  31.449   2.354
46077W        W18337  32.140  25.709  12.496
46078W        W18338  18.145  39.616   4.237
46079W        W18339  25.089  18.111   0.313
46080W        W18340  15.362  35.910  13.811
46081W        W18341  17.960  12.327  10.681
46082W        W18342  20.805  17.799  14.258
46083W        W18343  32.085   7.885  13.049
46084W        W18344  44.848  26.933  11.984
46085W        W18345  39.344   5.867  10.700
46086W        W18346  17.331  25.597  11.016
46087W        W18347  31.507  14.395   3.449
46088W        W18348   3.601  23.997  14.255
46089W        W18349   4.480  18.105   0.424
46090W        W18350  42.590  19.556   4.206
46091W        W18351   5.045   7.280  12.580
46092W        W18352   7.887  21.552   4.913
46093W        W18353  43.807  17.377   1.735
46094W        W18354  37.565  24.113   2.703
46095W        W18355  35.517   8.786   2.211
46096W        W18356   6.217  44.207  13.310
46097W        W18357  38.577   9.146   4.628
46098W        W18358  12.123  16.262   1.854
46099W        W18359  44.966  43.375   4.470
46100W        W18360  15.683  31.370   3.851
46101W        W18361  13.819   6.518  11.651
46102W        W18362   1.178  44.382   3.761
46103W        W18363  24.190  26.948  10.596
46104W        W18364  40.760   5.749   1.322
46105W        W18365  34.880  23.647   3.784
46106W        W18366  42.589  43.349  12.588
46107W        W18367  43.751  39.979  14.391
46108W        W18368   4.798  44.020  12.687
46109W        W18369   7.155  23.197   0.805
46110W        W18370   2.679  19.449   1.296
46111W        W18371  14.047  20.538  13.633
46112W        W18372  27.979  18.804   3.077
46113W        W18373   1.692   5.351   2.885
46114W        W18374   8.653  44.481   3.401
46115W        W18375  22.991  13.800  12.890
46116W        W18376  20.271  28.080   4.091
46117W        W18377   7.707   9.145   0.028
46118W        W18378  33.363  29.471   0.875
46119W        W18379  38.355  21.919   4.279
46120W        W18380  29.383  42.173  11.189
46121W        W18381  32.357  27.934   4.979
46122W        W18382  31.069  30.959   5.483
46123W        W18383   9.932  37.131  11.395
46124W        W18384   6.404   9.323   0.721
46125W        W18385  32.728   7.418  13.999
46126W        W18386  36.034  24.026   2.764
46127W        W18387  42.742  34.629   4.155
46128W        W18388  13.591   3.001  13.521
46129W        W18389  26.712  19.840  12.995
46130W        W18390  22.767  33.554   2.243
46131W        W18391  10.740  13.322   0.464
46132W        W18392   5.792   4.647   0.473
46133W        W18393  19.013  11.392   4.223
46134W        W18394   1.302  42.004   3.266
46135W        W18395  15.695  11.748   4.554
46136W        W18396   7.110  37.574   0.759
46137W        W18397  25.943  28.191   0.251
46138W        W18398  21.177  39.354  10.664
46139W        W18399  28.013   9.720   1.054
46140W        W18400  29.959  40.512   3.811
46141W        W18401   3.676  20.042   3.623
46142W        W18402  43.385  44.443   0.224
46143W        W18403   7.171  17.165  12.027
46144W        W18404  43.193  30.343  14.533
46145W        W18405   7.221   0.426   4.882
46146W        W18406  36.918  34.988   1.878
46147W        W18407   4.461  13.013  10.452
46148W        W18408  40.598   2.890  13.275
46149W        W18409  42.713  22.561  13.760
46150W        W18410  43.707  30.576   0.235
46151W        W18411  40.616  24.268  12.464
46152W        W18412  25.110  36.959  10.693
46153W        W18413   0.591  15.763   4.154
46154W        W18414  44.923  13.091   4.072
46155W        W18415  36.777  22.742  11.230
46156W        W18416   4.873  31.776  12.131
46157W        W18417  29.241   7.615  11.040
46158W        W18418  14.299  22.193   1.573
46159W        W18419  14.372  16.003  13.799
46160W        W18420  38.130  27.038   3.260
46161W        W18421  38.505  28.476   3.675
46162W        W18422  14.939  13.625  14.327
46163W        W18423  28.141  35.093   0.852
46164W        W18424   8.842  27.552  13.120
46165W        W18425  23.531  17.210  12.891
46166W        W18426   0.904  44.105  11.511
46167W        W18427  36.937  19.326  11.123
46168W        W18428  15.427  27.977   2.301
46169W        W18429  10.881  25.206   2.250
46170W        W18430  15.722  44.964   0.331
46171W        W18431   7.277  28.521  12.300
46172W        W18432   0.508  32.671  10.663
46173W        W18433  23.208   8.854  14.721
46174W        W18434   0.967  24.823   3.630
46175W        W18435  27.590   3.654  13.365
46176W        W18436  20.187   5.782   3.620
46177W        W18437  16.852  21.118  12.464
46178W        W18438  41.760  18.079   2.935
46179W        W18439  42.506  26.188   0.760
46180W        W18440  32.483  21.299  12.600
46181W        W18441  37.090  14.227   4.686
46182W        W18442  26.969  34.650  10.585
46183W        W18443  41.597  18.616  12.476
46184W        W18444   6.397   7.951   4.783
46185W        W18445  43.948  21.831   4.154
46186W        W18446  25.394   7.112  14.277
46187W        W18447  20.587  14.054  14.026
46188W        W18448   5.217  16.354   0.998
46189W        W18449  21.609  36.009   0.300
46190W        W18450  39.374   3.504  10.738
46191W        W18451  20.671  16.969   4.415
46192W        W18452  37.122  19.877   1.876
46193W        W18453  20.868  42.427  12.047
46194W        W18454  10.315  31.839   2.595
46195W        W18455  34.782  10.010   3.395
46196W        W18456  23.611  18.752  13.724
46197W        W18457  18.531  12.453  14.182
46198W        W18458  14.029  19.672  14.277
46199W        W18459  37.517  40.509   3.574
46200W        W18460  41.441   9.855   2.303
46201W        W18461   3.467  21.525  11.379
46202W        W18462  22.195  15.509   0.810
46203W        W18463  12.408  14.324  11.052
46204W        W18464   5.823  33.873   3.717
46205W        W18465   7.280   4.485  12.526
46206W        W18466  17.529   5.648  10.392
46207W        W18467  41.052  21.471   2.944
46208W        W18468  13.803   1.532  14.338
46209W        W18469  12.808  42.298   4.544
46210W        W18470   0.532   8.354  11.965
46211W        W18471  31.019  34.705   0.263
46212W        W18472  12.719  29.935   0.301
46213W        W18473  19.380   1.676  13.994
46214W        W18474  31.905  32.504   4.167
46215W        W18475  41.674   9.214   2.208
46216W        W18476  37.097  22.008  13.001
46217W        W18477  44.882  32.716   4.046
46218W        W18478   5.804   2.787   3.027
46219W        W18479  40.375  15.182  10.459
46220W        W18480  21.519   6.777   4.468
46221W        W18481  13.876  41.086  12.120
46222W        W18482  38.019  31.140   3.731
46223W        W18483  31.030  44.351   3.628
46224W        W18484  14.676   8.287  12.064
46225W        W18485  27.728  28.331   4.158
46226W        W18486  38.400  20.556   4.691
46227W        W18487  27.100  24.147  11.941
46228W        W18488  15.071  17.718  10.480
46229W        W18489  27.974  36.612   0.816
46230W        W18490   8.490   0.810   2.184
46231W        W18491   1.885  34.077   4.112
46232W        W18492   7.026  32.096   2.422
46233W        W18493   6.375  10.583   2.739
46234W        W18494  42.845   5.037   4.575
46235W        W18495   3.779  26.618   1.367
46236W        W18496   1.367   1.992   3.816
46237W        W18497  15.026  32.864   2.271
46238W        W18498  40.479  31.635   1.423
46239W        W18499  15.996   9.704  11.552
46240W        W18500  34.102   6.955   0.186
46241W        W18501  14.661  38.426   4.443
46242W        W18502  31.326  33.222   4.289
46243W        W18503   6.916  39.369   0.101
46244W        W18504   2.673  30.365   1.739
46245W        W18505  22.455  36.566   0.664
46246W        W18506  20.048  34.517   3.644
46247W        W18507  32.128  29.050   4.288
46248W        W18508   5.361  42.887  12.922
46249W        W18509  33.767  44.652   1.371
46250W        W18510   3.999  10.419   1.574
46251W        W18511  27.693  30.945   2.280
46252W        W18512  19.333  10.825  13.399
46253W        W18513  39.457  40.775  13.885
46254W        W18514  36.054   4.207   4.605
46255W        W18515  33.917   1.269  14.786
46256W        W18516  26.997  30.168   1.267
46257W        W18517  21.257  26.083  11.066
46258W        W18518   5.732  11.236  11.528
46259W        W18519  19.207  12.199   0.837
46260W        W18520  31.030  14.327   3.640
46261W        W18521  22.511  17.291  12.664
46262W        W18522  10.095  27.012   3.351
46263W        W18523  14.513   2.062   2.784
46264W        W18524  10.363  39.028   0.906
46265W        W18525  35.443  25.981  11.270
46266W        W18526  11.946  28.370   0.449
46267W        W18527  39.808  22.589   4.299
46268W        W18528  42.263  32.474   1.574
46269W        W18529  24.784  10.870   3.391
46270W        W18530  15.672  38.637   2.035
46271W        W18531  31.791  19.558   3.118
46272W        W18532  32.483   6.874   3.304
46273W        W18533  29.150  22.032  12.549
46274W        W18534  28.355   7.001  14.897
46275W        W18535  34.843  32.470  14.016
46276W        W18536  38.901  26.508  13.033
46277W        W18537  30.120  15.676   2.848
46278W        W18538   5.585  27.077  12.488
46279W        W18539  20.994  38.014   4.513
46280W        W18540  23.702  28.516   4.949
46281W        W18541   6.672  27.257   2.416
46282W        W18542  36.535  21.550  14.144
46283W        W18543   2.802  36.031   1.312
46284W        W18544  37.034   6.464  12.397
46285W        W18545   7.298  37.072  12.447
46286W        W18546   4.747  15.935   2.818
46287W        W18547  39.999   4.822   3.669
46288W        W18548  42.868  28.835   3.661
46289W        W18549   1.068  28.450  14.856
46290W        W18550  43.686  27.661   2.131
46291W        W18551  11.478  15.117  14.498
46292W        W18552  10.188  32.243   9.863
46293W        W18553  37.816  39.897   4.190
46294W        W18554   0.342   5.211  12.467
46295W        W18555  33.608  15.331  11.077
46296W        W18556   7.837  16.503   3.198
46297W        W18557  38.855  28.864   1.827
46298W        W18558  31.602   7.359  14.942
46299W        W18559  23.213  21.230  14.324
46300W        W18560  18.569   1.250  10.661
46301W        W18561  31.533  16.828  11.223
46302W        W18562  38.015  24.145   4.744
46303W        W18563  20.673  35.674  11.110
46304W        W18564  42.004  25.557   0.318
46305W        W18565  13.840  36.077  10.692
46306W        W18566  41.861  21.439   4.128
46307W        W18567   1.134   9.925   3.203
46308W        W18568  25.573  39.646   2.906
46309W        W18569   8.885  11.382   3.759
46310W        W18570  42.527  20.223  10.454
46311W        W18571  38.780  12.330   2.679
46312W        W18572  21.491  12.108  13.425
46313W        W18573  39.037   3.716  11.102
46314W        W18574   9.861  21.047   0.639
46315W        W18575  35.914  11.614  12.901
46316W        W18576  43.005  40.591   2.328
46317W        W18577  39.130  31.090  14.489
46318W        W18578  23.480  13.129   4.563
46319W        W18579  35.813   0.017  13.521
46320W        W18580   5.288  20.928  13.725
46321W        W18581  18.777   3.008  11.150
46322W        W18582  21.206   5.422  13.383
46323W        W18583  10.768  28.312   1.209
46324W        W18584  42.370  24.311   2.314
46325W        W18585   0.892  23.653  12.568
46326W        W18586  23.963   5.437   1.932
46327W        W18587  23.933  22.421   1.407
46328W        W18588  33.082  39.511  13.389
46329W        W18589  24.356   5.153  12.145
46330W        W18590  11.236  15.423  12.593
46331W        W18591  18.179  28.470  14.290
46332W        W18592  29.535  33.681   0.842
46333W        W18593  28.386   9.438   4.537
46334W        W18594   9.136  14.683  12.315
46335W        W18595  11.741  26.371   3.646
46336W        W18596  12.283  28.574   2.282
46337W        W18597  32.907  20.509  12.627
46338W        W18598  31.389  35.396   3.969
46339W        W18599  25.911   7.844   4.912
46340W        W18600  16.848  35.434  12.559
46341W        W18601   5.675  34.618   2.212
46342W        W18602   8.687  41.654  13.013
46343W        W18603  34.683   9.439  14.518
46344W        W18604   0.946  32.347   4.654
46345W        W18605  14.433  30.877   5.628
46346W        W18606  11.802  15.540   4.560
46347W        W18607   4.484  15.091   2.428
46348W        W18608  10.804   9.335   2.262
46349W        W18609  25.946   7.055   2.537
46350W        W18610  41.741  35.105  12.428
46351W        W18611  30.094  40.843  13.921
46352W        W18612  27.265  12.393  13.040
46353W        W18613   9.442  40.406   1.851
46354W        W18614  41.957   0.939  13.922
46355W        W18615  17.886  44.300  12.901
46356W        W18616  16.595  42.664  10.711
46357W        W18617   0.243   1.927   2.413
46358W        W18618  17.803  32.587  13.492
46359W        W18619  10.571   0.318  10.010
46360W        W18620  38.251  30.935   0.503
46361W        W18621  32.621   8.888   3.381
46362W        W18622  36.691  33.595   3.154
46363W        W18623  28.675  19.820   4.114
46364W        W18624  30.161  23.612  14.940
46365W        W18625  22.801  22.292   4.212
46366W        W18626  39.123  14.238   1.857
46367W        W18627  41.442  40.312  11.852
46368W        W18628  13.402   8.809  13.381
46369W        W18629  11.382  18.849  14.066
46370W        W18630   0.810  19.893   0.686
46371W        W18631   0.323   1.494   2.146
46372W        W18632   8.681  40.466  14.991
46373W        W18633  17.012   6.321  12.981
46374W        W18634   7.655  24.910   3.351
46375W        W18635  35.028  22.277  10.927
46376W        W18636   9.097   7.870   3.075
46377W        W18637   3.924  22.968   1.369
46378W        W18638  37.417  28.987  11.395
46379W        W18639  35.349  25.171  14.291
46380W        W18640  26.680  26.008  12.043
46381W        W18641  33.495  20.812   4.702
46382W        W18642   7.914  30.563  13.765
46383W        W18643  17.067  41.936   1.399
46384W        W18644   3.994   7.152   2.330
46385W        W18645  30.533  18.059   2.731
46386W        W18646  43.401  12.088  10.599
46387W        W18647  32.018  23.939   2.215
46388W        W18648  39.829  17.144   0.970
46389W        W18649  16.836  14.245   0.368
46390W        W18650   3.935  41.937  12.905
46391W        W18651  31.718  29.484  11.520
46392W        W18652   6.850  17.178   2.905
46393W        W18653  38.901  20.511  11.561
46394W        W18654  21.189  34.638   1.789
46395W        W18655  10.637   8.502   4.711
46396W        W18656  19.239  34.535  13.600
46397W        W18657  31.671  22.471  11.901
46398W        W18658  20.550  35.415  13.498
46399W        W18659   4.909  37.794   1.243
46400W        W18660   1.123  14.295  14.981
46401W        W18661  11.385  38.900  13.005
46402W        W18662   0.396  34.137  12.816
46403W        W18663  42.832  34.629  10.093
46404W        W18664  27.342  41.046   5.382
46405W        W18665   8.609   4.920  14.008
46406W        W18666   2.496  42.534   1.076
46407W        W18667   4.432  43.208  14.221
46408W        W18668  38.525  28.685   3.174
46409W        W18669  17.692  16.454   4.013
46410W        W18670  24.191  30.220  12.839
46411W        W18671  29.952  30.236  11.570
46412W        W18672  34.437  40.265  10.925
46413W        W18673   6.485  30.485  13.782
46414W        W18674  37.073  15.313   2.792
46415W        W18675  28.650  34.262   1.988
46416W        W18676  13.573  40.126  12.274
46417W        W18677  26.014   6.559  13.661
46418W        W18678   0.635  32.232   5.070
46419W        W18679  14.020  35.897   2.558
46420W        W18680  26.131  40.892  12.410
46421W        W18681  35.018  44.808   0.833
46422W        W18682  28.387  25.544   1.236
46423W        W18683  16.885  42.520   3.797
46424W        W18684   0.294  17.173  12.416
46425W        W18685   5.219  27.554  11.773
46426W        W18686  18.739   0.083  13.623
46427W        W18687  29.370  13.755  10.653
46428W        W18688  44.375  24.996   3.539
46429W        W18689  22.165   2.715   3.266
46430W        W18690   7.306  29.092  11.623
46431W        W18691  13.047   3.269  11.518
46432W        W18692  44.855  11.155  11.428
46433W        W18693   1.154  25.646   2.402
46434W        W18694  35.585  42.231   4.114
46435W        W18695  44.379   4.707  12.551
46436W        W18696  41.299  32.355  13.118
46437W        W18697  10.233  26.982  12.782
46438W        W18698  36.640   8.379   5.488
46439W        W18699  40.262  25.942   3.898
46440W        W18700  39.303  21.330  13.769
46441W        W18701  23.295  19.257   4.390
46442W        W18702  20.838   6.180   4.175
46443W        W18703   3.374  37.836   0.953
46444W        W18704   8.772  42.761  14.900
46445W        W18705  34.631  10.288   5.293
46446W        W18706  18.136  18.175  11.904
46447W        W18707  18.919   5.825  11.023
46448W        W18708  41.069   0.022   2.147
46449W        W18709  24.298   4.811   0.497
46450W        W18710  16.181  16.338   4.990
46451W        W18711  17.112  12.676   4.711
46452W        W18712   3.684  14.221   0.797
46453W        W18713  12.408  24.282   1.668
46454W        W18714   0.277  16.188  14.819
46455W        W18715   1.852   0.784  14.309
46456W        W18716  30.441   7.761  12.338
46457W        W18717  39.448  41.642  14.315
46458W        W18718  29.686  12.695   0.838
46459W        W18719  37.058  17.679  12.941
46460W        W18720  30.868  22.668   3.981
46461W        W18721   3.377  18.863  13.379
46462W        W18722  15.409  28.777   5.116
46463W        W18723  27.468  29.125   2.669
46464W        W18724   2.297  36.085   3.715
46465W        W18725  16.071  33.144  14.356
46466W        W18726  44.352   6.248  13.802
46467W        W18727   7.586  10.764  11.879
46468W        W18728  33.911   6.434   4.570
46469W        W18729  22.653   9.231   1.325
46470W        W18730   0.841  38.980  10.671
46471W        W18731  15.868   5.748  12.117
46472W        W18732  23.150  34.984   1.931
46473W        W18733  40.829  31.389  13.995
46474W        W18734  12.234  21.789   1.805
46475W        W18735   4.505  12.362   1.898
46476W        W18736  11.420  42.339   2.828
46477W        W18737   1.879  28.161   4.862
46478W        W18738  16.566   9.910  11.552
46479W        W18739  12.700  30.258   1.237
46480W        W18740  18.236   9.601  12.874
46481W        W18741  39.828  23.150  13.141
46482W        W18742  36.982  15.757  14.261
46483W        W18743   4.290   5.863  13.918
46484W        W18744   5.635  32.077  13.039
46485W        W18745  21.503  15.785  11.948
46486W        W18746   9.738  28.204  14.742
46487W        W18747  24.677   5.125   0.333
46488W        W18748  17.181  34.400   4.371
46489W        W18749   4.787   8.354   1.924
46490W        W18750  26.224   3.402  10.688
46491W        W18751   9.837  36.828   2.010
46492W        W18752   8.323  21.949   3.681
46493W        W18753  18.272   6.478   3.535
46494W        W18754  22.981  15.803  13.410
46495W        W18755  24.627  21.752  13.681
46496W        W18756  21.837  27.075   3.858
46497W        W18757   6.937  14.282   2.308
46498W        W18758  28.693   2.457  13.557
46499W        W18759   9.867   1.230   1.354
46500W        W18760  37.781  32.148  14.425
46501W        W18761   5.401  24.427  13.374
46502W        W18762  41.573   8.502  14.787
46503W        W18763  33.536  13.114   3.666
46504W        W18764  38.553  37.948   2.658
46505W        W18765   0.711  24.895  13.813
46506W        W18766  36.846  24.639   3.619
46507W        W18767  20.083  31.855   1.988
46508W        W18768   3.645  18.576   0.908
46509W        W18769  36.694  13.113   0.487
46510W        W18770   7.519  40.411  12.683
46511W        W18771  43.094  21.252   0.593
46512W        W18772   5.818  29.926   5.031
46513W        W18773  36.215   7.587  10.816
46514W        W18774  11.823  28.724  13.206
46515W        W18775  24.616  26.310   2.742
46516W        W18776  38.469  26.994   1.808
46517W        W18777   6.285   1.713   4.700
46518W        W18778   2.315  25.286  14.872
46519W        W18779  18.365  18.769   0.705
46520W        W18780  31.648  24.546  11.523
46521W        W18781  42.365  19.754   3.363
46522W        W18782  35.377  13.906  11.479
46523W        W18783   6.351   7.702  11.555
46524W        W18784  19.480   0.411   4.938
46525W        W18785  43.418  12.596   2.735
46526W        W18786  44.976  29.488  10.235
46527W        W18787  28.922  12.161   4.312
46528W        W18788  32.700  37.083  12.062
46529W        W18789  37.578  39.971   3.737
46530W        W18790  39.768   5.254  11.158
46531W        W18791  15.561   7.323  12.847
46532W        W18792   0.320   6.234   2.262
46533W        W18793  43.584  19.000   3.230
46534W        W18794  44.747   5.767  11.215
46535W        W18795  35.331  23.602   0.082
46536W        W18796  31.557   2.611  11.143
46537W        W18797  28.501  29.838   4.530
46538W        W18798  15.372  31.928  13.692
46539W        W18799  22.137   7.245   1.359
46540W        W18800  38.977  16.118   0.092
46541W        W18801  35.910   4.644  11.137
46542W        W18802  28.677  31.923   4.530
46543W        W18803  40.542  17.551   3.823
46544W        W18804   4.913  30.022  14.368
46545W        W18805  20.792  41.000   1.866
46546W        W18806  35.632   8.065  12.913
46547W        W18807  41.479  14.236  14.821
46548W        W18808  23.607  25.537  14.760
46549W        W18809  34.480  42.730   2.221
46550W        W18810  16.703  34.004  13.752
46551W        W18811  26.053   2.723   2.162
46552W        W18812  18.950  30.079  10.498
46553W        W18813   0.986  33.992   0.750
46554W        W18814   2.474  38.434   3.776
46555W        W18815  44.928  42.725  13.063
46556W        W18816  34.685  12.566  12.117
46557W        W18817  22.998  19.992  12.920
46558W        W18818  29.968   7.220   2.230
46559W        W18819  37.261  16.985  13.966
46560W        W18820  27.645   3.984   1.300
46561W        W18821  37.502  35.765  11.480
46562W        W18822  25.242  34.149   0.303
46563W        W18823  16.664  20.576  11.092
46564W        W18824  13.305   5.309   4.777
46565W        W18825   1.277  31.992   2.652
46566W        W18826  34.469  31.656   0.424
46567W        W18827  23.257   8.983   2.815
46568W        W18828  11.178  20.083  13.088
46569W        W18829   6.214  12.197   1.271
46570W        W18830   3.436  20.427  10.638
46571W        W18831  44.323  42.205  13.633
46572W        W18832  20.730  37.539   1.793
46573W        W18833  15.658  44.356   4.690
46574W        W18834  40.440   2.290  12.625
46575W        W18835  18.238  12.342   3.804
46576W        W18836  18.020  37.739  10.677
46577W        W18837  15.233  31.049  13.759
46578W        W18838   1.589  40.355   2.827
46579W        W18839  43.090   0.037  11.443
46580W        W18840  35.154  26.935   2.206
46581W        W18841   5.950  17.700   0.930
46582W        W18842  22.914   9.521  12.013
46583W        W18843  39.959  12.130  12.428
46584W        W18844   3.310  11.591   2.147
46585W        W18845  15.554   9.129  14.777
46586W        W18846  44.543  40.969  12.635
46587W        W18847  23.111  31.392   3.300
46588W        W18848  37.948  25.553  11.971
46589W        W18849  10.593  17.477  14.781
46590W        W18850  35.658   5.897  10.982
46591W        W18851  40.215   7.040  13.723
46592W        W18852  22.501  13.221   3.575
46593W        W18853  15.708  30.043   0.396
46594W        W18854  22.701  41.745  13.835
46595W        W18855  15.787  43.920   3.221
46596W        W18856   9.862  40.710   1.774
46597W        W18857   9.637  35.335   3.277
46598W        W18858   0.874  38.962  11.180
46599W        W18859   5.322  27.691  10.170
46600W        W18860  11.949  36.317   0.509
46601W        W18861  19.717   7.197  10.113
46602W        W18862  42.550  12.093  14.432
46603W        W18863  15.574  18.952   4.155
46604W        W18864  25.702  35.599   0.253
46605W        W18865  37.034  35.479   1.863
46606W        W18866  10.578   0.844  14.270
46607W        W18867  28.975   3.171  13.571
46608W        W18868  34.561  33.380  14.540
46609W        W18869  39.446  33.033  13.928
46610W        W18870  14.902  17.312  13.885
46611W        W18871  11.344  22.695  14.606
46612W        W18872  35.139  13.516  12.482
46613W        W18873  35.037  30.963   0.250
46614W        W18874   3.715  36.033  11.447
46615W        W18875  12.628  24.483   0.435
46616W        W18876  28.463  16.447   3.908
46617W        W18877  13.606   9.679   0.075
46618W        W18878   3.940  30.388   3.227
46619W        W18879  31.369   2.267   2.866
46620W        W18880   9.236  43.515   1.311
46621W        W18881   0.433  30.639   1.485
46622W        W18882  21.084   7.233   0.429
46623W        W18883   2.971  36.534   1.396
46624W        W18884  11.588  38.722   1.845
46625W        W18885  23.374  42.045   2.114
46626W        W18886  12.616  28.358  14.889
46627W        W18887  20.492  37.061   0.900
46628W        W18888  29.508  19.723  12.541
46629W        W18889  34.431  27.893   4.426
46630W        W18890  43.320  20.828  11.166
46631W        W18891  12.439  35.929   1.152
46632W        W18892  14.235   7.292   0.833
46633W        W18893   5.207   6.794  10.762
46634W        W18894  13.124  37.666   0.925
46635W        W18895  15.849  10.103   3.627
46636W        W18896  29.454  29.264  14.770
46637W        W18897  11.238   6.766   4.676
46638W        W18898  30.947  20.691  14.398
46639W        W18899  10.356  23.090   1.977
46640W        W18900  21.734  34.910   0.830
46641W        W18901   2.796  26.118   4.059
46642W        W18902  40.454  44.337  11.638
46643W        W18903  42.413   6.963  14.010
46644W        W18904  42.828  43.068   3.833
46645W        W18905   6.236   7.661   1.470
46646W        W18906  14.650  11.854   2.903
46647W        W18907  23.492  20.645  14.542
46648W        W18908   3.430  30.183  12.622
46649W        W18909  18.536  14.362   3.127
46650W        W18910  33.553  31.702   0.344
46651W        W18911  33.601  35.139  11.155
46652W        W18912  21.528  42.050   0.521
46653W        W18913  39.558  42.778  10.653
46654W        W18914  27.021  27.945   2.823
46655W        W18915   3.354  12.251   0.929
46656W        W18916  23.732   8.911  14.772
46657W        W18917  36.777  35.855  11.091
46658W        W18918  37.118  12.340  13.825
46659W        W18919  12.358  34.080  12.346
46660W        W18920  14.660  41.840  14.313
46661W        W18921  27.488  39.487  11.613
46662W        W18922  36.637  26.594   0.294
46663W        W18923  24.802   6.715   4.058
46664W        W18924  40.325  24.714  12.445
46665W        W18925  27.392  13.410   0.485
46666W        W18926   3.482  37.124   1.972
46667W        W18927  33.573  30.653   4.723
46668W        W18928  17.619  41.199  10.253
46669W        W18929  35.311  11.586  13.505
46670W        W18930  36.588  38.495   3.195
46671W        W18931   2.566   9.805  10.807
46672W        W18932  25.568  12.730  14.748
46673W        W18933  44.736  34.430   0.862
46674W        W18934  14.880   0.375   4.495
46675W        W18935  22.084  18.638  10.333
46676W        W18936   1.202  31.826   1.344
46677W        W18937  43.236  37.518   2.824
46678W        W18938  15.639  34.215   4.605
46679W        W18939  30.669  11.602   2.763
46680W        W18940  14.738  31.939  14.380
46681W        W18941  34.402  17.826   4.692
46682W        W18942  20.428  22.806  13.548
46683W        W18943   9.601   8.620  11.978
46684W        W18944   1.935   1.760   0.932
46685W        W18945  16.364  25.820  11.952
46686W        W18946  14.073   2.550   4.492
46687W        W18947  24.484   3.779  10.690
46688W        W18948  32.184  12.310  13.490
46689W        W18949  37.000  39.910   4.678
46690W        W18950  24.705   5.561  12.085
46691W        W18951  43.700  11.662   0.810
46692W        W18952  38.667  23.502   4.079
46693W        W18953  15.433  27.883  11.945
46694W        W18954  38.474  24.407  11.755
46695W        W18955  30.814  35.925   2.855
46696W        W18956  23.698   2.153  12.009
46697W        W18957  20.923  37.542   3.695
46698W        W18958  38.971   2.825   0.880
46699W        W18959  33.833  20.293  11.118
46700W        W18960  33.398  26.096  13.256
46701W        W18961  25.815  22.003   4.547
46702W        W18962   3.804  32.478  13.424
46703W        W18963  25.990  10.124   4.607
46704W        W18964  39.066  37.188  11.684
46705W        W18965   8.679  13.153   3.190
46706W        W18966  44.447  38.405  12.884
46707W        W18967  28.543  18.364  11.063
46708W        W18968  32.668  17.378  13.538
46709W        W18969  14.263  15.206   1.545
46710W        W18970  28.933  41.398  14.429
46711W        W18971  23.951  38.947  13.024
46712W        W18972  13.352  29.164  10.288
46713W        W18973  23.787  33.999  12.029
46714W        W18974  11.750  39.217   1.874
46715W        W18975   0.484  31.971   3.234
46716W        W18976   3.033  33.992   0.513
46717W        W18977  38.782  44.472   1.116
46718W        W18978  28.036  11.949  12.983
46719W        W18979  21.315  12.367  12.996
46720W        W18980  22.559   0.441   0.271
46721W        W18981   5.838  27.644   2.647
46722W        W18982  19.679  35.510  12.191
46723W        W18983   6.710   6.328   1.827
46724W        W18984  17.661   5.829   3.657
46725W        W18985   6.726  38.998   1.452
46726W        W18986  28.930  20.999  13.441
46727W        W18987   6.766  37.604  11.912
46728W        W18988  16.855  19.936  14.955
46729W        W18989  28.016   5.037   3.407
46730W        W18990  39.762  39.647  14.612
46731W        W18991   6.145  27.961   0.249
46732W        W18992  23.645  22.089   0.181
46733W        W18993   7.790  31.848  14.295
46734W        W18994  10.076  42.812   1.456
46735W        W18995   5.230  23.043   1.720
46736W        W18996  34.527  15.591   0.313
46737W        W18997  26.260  32.962  10.732
46738W        W18998  35.198  28.092   1.690
46739W        W18999  13.042  37.825  12.385
46740W        W19000  14.681  11.669  11.896
46741W        W19001  31.874  23.031   1.318
46742W        W19002  36.509  25.230  11.194
46743W        W19003   8.377  40.919  14.318
46744W        W19004   0.104  14.338  14.743
46745W        W19005   5.192  34.245   0.910
46746W        W19006  15.664  41.485   3.640
46747W        W19007  29.737  31.063   4.286
46748W        W19008  25.174   4.980   0.450
46749W        W19009  21.250  42.765  13.962
46750W        W19010   6.147   8.469   1.958
46751W        W19011  25.137   9.824   3.188
46752W        W19012  20.309  40.107  13.438
46753W        W19013  16.523  35.961  10.949
46754W        W19014  30.394  18.789  11.927
46755W        W19015  20.907   9.889  12.592
46756W        W19016  39.898  40.314  11.016
46757W        W19017  32.355  31.960   1.655
46758W        W19018  33.853  16.349  10.643
46759W        W19019  29.632  38.999   5.136
46760W        W19020  32.318  18.792  13.078
46761W        W19021   2.479   8.483  11.133
46762W        W19022   5.095  14.797   0.764
46763W        W19023  42.335  30.342   2.698
46764W        W19024  22.946   1.819  12.486
46765W        W19025  34.629  28.363  13.432
46766W        W19026  41.464  21.758   0.084
46767W        W19027  14.358  34.910   0.461
46768W        W19028   6.096  16.384   0.895
46769W        W19029  29.437  30.638   1.764
46770W        W19030  32.099  32.763  14.303
46771W        W19031  38.329  36.838   1.174
46772W        W19032  12.280  39.046   0.372
46773W        W19033   1.652  40.293  13.365
46774W        W19034  26.411  30.009  12.906
46775W        W19035   3.796  32.333  13.973
46776W        W19036   7.475  30.508   2.931
46777W        W19037  41.206   2.761   2.780
46778W        W19038   1.862  32.118   0.956
46779W        W19039  34.063   4.818   0.348
46780W        W19040  39.446  15.587   1.312
46781W        W19041  21.908  19.556  12.089
46782W        W19042  23.703  21.055  14.281
46783W        W19043   1.694  27.535  14.356
46784W        W19044   5.821  12.787   4.665
46785W        W19045  32.650  13.131   3.670
46786W        W19046  36.843  12.596  11.453
46787W        W19047   5.675  19.131  14.777
46788W        W19048  21.969   6.347  10.758
46789W        W19049  24.810  12.278   2.058
46790W        W19050  11.599   7.130   0.744
46791W        W19051  38.368  10.640   0.535
46792W        W19052  30.151  25.411   1.821
46793W        W19053  26.013  22.342   0.326
46794W        W19054  13.584  23.324  12.345
46795W        W19055  38.906   1.949  12.634
46796W        W19056  43.344  27.516  12.653
46797W        W19057   1.777  38.935  12.102
46798W        W19058  40.875  35.299   3.739
46799W        W19059  12.628  35.166  13.549
46800W        W19060   1.973   1.680  14.354
46801W        W19061  39.468  16.403  12.095
46802W        W19062  32.480  28.494  14.397
46803W        W19063   6.788  44.311  13.393
46804W        W19064  17.048  21.113  14.860
46805W        W19065   3.524  13.845   3.808
46806W        W19066  38.512  25.664  11.135
46807W        W19067  27.573  13.176  10.705
46808W        W19068  36.479  22.144   4.346
46809W        W19069  34.016  34.870   4.077
46810W        W19070  16.518  27.697   1.519
46811W        W19071  18.603  21.224  11.488
46812W        W19072   6.887   9.577  13.628
46813W        W19073   4.274   0.452  14.932
46814W        W19074   0.377  23.559  10.519
46815W        W19075  38.537  26.299   0.953
46816W        W19076  40.185  19.188   1.676
46817W        W19077  22.335  35.320   2.353
46818W        W19078  29.636  39.586  14.938
46819W        W19079  23.783  32.913  13.087
46820W        W19080   3.672  29.447  13.893
46821W        W19081   7.289  18.314  14.924
46822W        W19082   5.622  41.539   1.417
46823W        W19083  37.838  19.036  13.165
46824W        W19084  41.853  10.801  13.571
46825W        W19085   0.485   1.103  12.931
46826W        W19086  36.986   3.656   2.155
46827W        W19087  14.658  27.143  10.896
46828W        W19088  36.374  14.553   4.641
46829W        W19089   1.281  12.916  12.572
46830W        W19090  15.633  15.879  11.164
46831W        W19091  38.464  38.492   4.563
46832W        W19092  36.429   4.859  11.941
46833W        W19093  26.689  13.250   3.608
46834W        W19094  12.876   8.924  13.423
46835W        W19095  31.399   3.743  13.072
46836W        W19096  13.308  27.941   1.350
46837W        W19097   6.612   1.761  14.902
46838W        W19098   8.880  39.603  10.811
46839W        W19099  25.555   6.503  13.915
46840W        W19100  39.062   1.878   0.807
46841W        W19101  36.499  24.701   1.850
46842W        W19102   3.803  41.883  11.625
46843W        W19103  36.839   6.150  12.041
46844W        W19104  23.578   2.205  12.879
46845W        W19105  12.322  15.740   4.813
46846W        W19106  19.679  38.005   4.208
46847W        W19107  35.392  35.165   1.211
46848W        W19108  35.533   4.256   4.566
46849W        W19109  41.404   1.878   1.748
46850W        W19110  22.916  28.551   9.819
46851W        W19111  13.796  18.256   4.598
46852W        W19112   3.177  44.561   5.126
46853W        W19113  25.463  23.889  14.724
46854W        W19114   8.681  15.450   4.073
46855W        W19115  10.094  35.940   0.368
46856W        W19116  20.541  11.572   2.757
46857W        W19117  44.805  13.874  14.407
46858W        W19118  28.114  10.123  12.138
46859W        W19119  31.203  22.701   0.145
46860W        W19120  41.951  22.713   3.727
46861W        W19121  41.738  35.521   3.755
46862W        W19122  32.107  32.134   3.134
46863W        W19123  25.031   9.590  12.513
46864W        W19124   1.767  17.088  11.920
46865W        W19125   4.671  14.317  13.491
46866W        W19126  40.764  11.448  11.209
46867W        W19127  37.101  34.493  10.724
46868W        W19128  22.550  14.891  11.873
46869W        W19129  41.792  22.502   0.413
46870W        W19130  15.771  30.314  12.857
46871W        W19131   7.405  38.667   2.775
46872W        W19132  30.060  26.143   0.937
46873W        W19133  24.552  13.046  14.016
46874W        W19134  26.928  37.267  13.389
46875W        W19135   1.039  30.072  14.480
46876W        W19136   0.086  29.817   1.383
46877W        W19137   3.971   2.236  11.159
46878W        W19138  38.908   4.792   1.480
46879W        W19139  14.443  23.521   2.402
46880W        W19140  31.992   9.928   1.651
46881W        W19141  35.602  24.108  11.945
46882W        W19142  36.968  19.536  13.350
46883W        W19143   0.735  42.292   4.098
46884W        W19144  22.086  11.218  13.456
46885W        W19145  27.313   4.921   2.174
46886W        W19146   7.206   3.025  14.835
46887W        W19147  10.319  42.914   2.479
46888W        W19148  10.171  29.176   2.079
46889W        W19149  23.908  39.767   2.724
46890W        W19150  24.741  18.042  14.379
46891W        W19151   3.693  37.472   2.774
46892W        W19152  11.472  28.842  11.840
46893W        W19153   7.221   6.731   2.131
46894W        W19154  15.865   2.830   3.605
46895W        W19155  18.171  12.746  14.532
46896W        W19156   3.119  33.527   0.759
46897W        W19157  35.378  23.585  13.162
46898W        W19158  39.406   5.499  13.012
46899W        W19159  13.585  30.271  11.600
46900W        W19160  18.424  27.358   1.200
46901W        W19161  42.366  16.609   3.172
46902W        W19162  17.653   4.913  14.027
46903W        W19163  33.008  14.610   1.441
46904W        W19164  22.025  42.857   4.371
46905W        W19165  16.613  28.444   4.515
46906W        W19166  40.314  40.206  12.094
46907W        W19167   5.423  44.777   2.221
46908W        W19168  27.124  30.084   0.233
46909W        W19169   8.062  24.458  12.915
46910W        W19170  23.565  18.574  14.226
46911W        W19171  21.535  33.616   4.543
46912W        W19172  27.896  17.237  13.563
46913W        W19173   5.293   8.191  13.571
46914W        W19174  33.326   4.724  11.708
46915W        W19175  28.997   9.357   1.420
46916W        W19176  23.122  32.656   1.783
46917W        W19177  22.565  24.056  11.416
46918W        W19178   2.871  16.850   4.635
46919W        W19179   1.280  24.088  11.658
46920W        W19180  17.698  18.198   2.773
46921W        W19181  31.619   3.559  10.761
46922W        W19182  26.603  32.117  12.957
46923W        W19183  24.697  40.213  10.430
46924W        W19184  20.127   1.470   2.798
46925W        W19185  31.167   2.928  11.201
46926W        W19186  13.671  44.790   2.856
46927W        W19187  17.561  22.927   1.252
46928W        W19188  24.128  40.704  14.390
46929W        W19189  42.737  38.378  14.007
46930W        W19190   0.930  19.717   2.480
46931W        W19191   1.296  18.996  14.505
46932W        W19192  32.914  29.635   1.078
46933W        W19193  22.033  30.703   2.768
46934W        W19194  34.087  16.724   1.276
46935W        W19195  35.000  44.285   3.157
46936W        W19196  40.205  22.775   1.389
46937W        W19197  15.331   7.735   3.161
46938W        W19198  44.385   4.345   1.314
46939W        W19199   6.029  35.307   3.573
46940W        W19200   1.225  36.428  13.592
46941W        W19201  29.845  23.578  13.738
46942W        W19202  13.427  27.317   9.853
46943W        W19203  23.065  15.220   3.660
46944W        W19204   2.931  16.673  12.065
46945W        W19205  19.063  24.569  14.079
46946W        W19206  20.354  15.368   0.472
46947W        W19207   6.639   2.693   4.647
46948W        W19208  10.381  15.360   0.325
46949W        W19209  10.843  15.323   0.096
46950W        W19210   3.641   0.006  11.671
46951W        W19211  25.098   6.418   1.723
46952W        W19212  11.874   0.948  11.575
46953W        W19213  33.834  15.903   4.203
46954W        W19214  16.746   1.813  11.410
46955W        W19215   5.234  36.656  12.130
46956W        W19216   2.527   8.683  12.546
46957W        W19217  12.068  31.066   0.426
46958W        W19218  35.689  38.460   0.842
46959W        W19219  21.698  23.987  13.911
46960W        W19220   4.936   2.505  11.069
46961W        W19221   4.237  32.906   0.961
46962W        W19222  42.948   7.517  11.378
46963W        W19223   1.522  20.769  10.858
46964W        W19224   0.997  20.600  13.717
46965W        W19225  23.924  23.726  10.758
46966W        W19226  16.242  18.006   0.480
46967W        W19227  40.461   3.865   1.184
46968W        W19228  36.673  19.554   0.222
46969W        W19229  28.317  34.611  14.344
46970W        W19230  21.628  35.698   1.245
46971W        W19231  14.993  26.093   1.709
46972W        W19232  36.292  22.226  13.314
46973W        W19233  36.353  30.007  11.679
46974W        W19234  37.589  31.222   0.954
46975W        W19235  28.674  16.027   4.168
46976W        W19236  14.431   0.440  11.627
46977W        W19237   7.652  37.978   0.246
46978W        W19238  19.907   1.710  14.055
46979W        W19239  12.152  41.730   2.389
46980W        W19240  38.831  40.409   3.760
46981W        W19241  21.728  23.003  12.642
46982W        W19242  20.069   9.736  14.936
46983W        W19243  21.937  26.547  12.325
46984W        W19244  26.357   8.881   3.716
46985W        W19245   0.783   6.392   2.408
46986W        W19246  40.556  14.284   2.614
46987W        W19247  34.154   3.060  14.855
46988W        W19248  41.362   7.899   1.247
46989W        W19249   6.195   1.294  10.860
46990W        W19250  19.548  43.534  13.545
46991W        W19251  18.095  30.197  14.999
46992W        W19252  40.485  44.288   4.133
46993W        W19253  41.122  37.304  11.094
46994W        W19254  44.994   0.382   4.528
46995W        W19255  41.377  19.781  10.839
46996W        W19256  26.460  19.147  10.871
46997W        W19257  22.633  23.916  13.354
46998W        W19258  35.000  21.677   9.987
46999W        W19259  27.999  36.272  11.028
47000W        W19260  14.186  21.778  10.507
47001W        W19261  19.957  24.866   2.890
47002W        W19262  11.839  23.260   1.852
47003W        W19263  32.544  23.579  14.773
47004W        W19264  10.278  30.609   0.630
47005W        W19265  28.220   9.869  13.232
47006W        W19266  17.768  40.774   3.158
47007W        W19267  19.937  19.639   3.201
47008W        W19268   4.243  14.689   2.629
47009W        W19269   6.848  23.341   0.345
47010W        W19270   0.176   0.084   4.091
47011W        W19271   5.227  28.408  10.655
47012W        W19272  17.799   9.318  14.465
47013W        W19273  28.067  41.287  14.342
47014W        W19274  13.015   9.210   1.959
47015W        W19275   5.689  27.771   0.410
47016W        W19276   8.076   2.891   3.790
47017W        W19277   6.760  17.650  10.985
47018W        W19278  20.379   1.201  12.557
47019W        W19279  25.785   5.707  13.416
47020W        W19280  43.771  44.670  10.905
47021W        W19281   6.428  38.764   2.391
47022W        W19282  18.442  39.969   0.191
47023W        W19283  26.713  35.353   0.451
47024W        W19284  36.294  28.948  13.759
47025W        W19285  33.556  29.508  11.219
47026W        W19286  16.854  16.349  10.696
47027W        W19287  25.200  35.863  14.641
47028W        W19288  32.412   0.037   2.746
47029W        W19289   3.861   1.397   4.608
47030W        W19290  25.682  36.071  14.552
47031W        W19291  22.050  30.160   2.316
47032W        W19292  38.483  16.095  14.292
47033W        W19293   4.395   1.952  11.399
47034W        W19294  17.310   6.570   1.627
47035W        W19295  31.524  22.974  14.067
47036W        W19296   2.773  32.742   2.793
47037W        W19297  37.587  23.666  14.516
47038W        W19298  25.674  16.636  11.645
47039W        W19299  44.687   8.064   3.262
47040W        W19300  19.657   5.924   9.800
47041W        W19301   4.610  22.422  10.529
47042W        W19302   0.887  34.047   4.688
47043W        W19303  32.482   5.246  11.430
47044W        W19304  13.630  27.765  11.896
47045W        W19305  14.150  14.741  10.643
47046W        W19306  43.594   6.890  11.531
47047W        W19307  37.106   0.279  11.632
47048W        W19308  37.616  14.269   1.763
47049W        W19309  40.315   5.036  10.649
47050W        W19310   5.018   6.913  13.924
47051W        W19311   6.374  31.209  12.482
47052W        W19312   3.049  37.482   1.186
47053W        W19313  25.257  37.424  11.398
47054W        W19314  17.524  18.197  11.040
47055W        W19315   5.813  41.499  13.828
47056W        W19316  20.487  40.719  10.528
47057W        W19317  24.614  34.625   2.580
47058W        W19318   7.238  23.729  12.863
47059W        W19319  13.534  25.068   1.318
47060W        W19320  22.724  10.847   0.602
47061W        W19321   7.848  30.534  10.997
47062W        W19322  12.824  15.008   1.750
47063W        W19323  18.685  19.456  12.077
47064W        W19324   5.687   3.957   4.083
47065W        W19325   2.183   3.399   3.207
47066W        W19326  43.879  34.841  13.253
47067W        W19327  28.776  33.585   3.280
47068W        W19328  29.869  44.152  12.473
47069W        W19329   7.861   9.692   3.506
47070W        W19330   8.950  20.254   0.240
47071W        W19331  25.266  28.606  14.688
47072W        W19332  14.166  34.039   3.721
47073W        W19333  11.858  22.713  11.952
47074W        W19334  16.254   0.676  12.414
47075W        W19335  36.573   8.690   1.813
47076W        W19336  15.636  36.646  12.590
47077W        W19337  22.293  33.342   3.256
47078W        W19338  18.101  18.061  13.296
47079W        W19339   2.857  20.653   1.724
47080W        W19340  18.566  10.672   1.817
47081W        W19341   8.397  19.435  11.132
47082W        W19342  15.299  30.086  11.042
47083W        W19343  30.863  28.540  11.174
47084W        W19344  35.124  17.909   4.084
47085W        W19345  19.816  32.935  13.630
47086W        W19346  27.591  19.879  12.581
47087W        W19347  33.811  12.299  12.041
47088W        W19348  39.430  34.201   1.433
47089W        W19349  12.276  10.905   3.705
47090W        W19350   9.381  14.265  10.604
47091W        W19351  19.383  40.786  14.374
47092W        W19352   2.321  43.066  10.811
47093W        W19353  10.206   3.363   0.767
47094W        W19354  13.274  10.675   1.814
47095W        W19355  27.036   1.391   2.324
47096W        W19356   9.840  13.187  14.383
47097W        W19357  42.402   3.940  11.166
47098W        W19358   3.408  23.282  14.859
47099W        W19359  10.449  38.854  11.076
47100W        W19360   8.186  28.553  11.073
47101W        W19361  15.024   4.944  14.035
47102W        W19362   7.452  21.292   1.898
47103W        W19363  30.212  33.380  10.731
47104W        W19364  21.887  28.884  11.808
47105W        W19365  26.415  24.029  12.896
47106W        W19366  24.974  39.459  13.910
47107W        W19367  21.220  40.315  10.614
47108W        W19368  40.027  12.136  13.302
47109W        W19369  21.629  13.213   4.836
47110W        W19370  26.656  37.239   0.461
47111W        W19371  33.387  27.055   4.872
47112W        W19372  23.207   8.336   3.962
47113W        W19373  44.787  17.349  13.534
47114W        W19374  27.985  30.194  12.792
47115W        W19375  20.187  24.606   3.396
47116W        W19376  42.723   4.489   1.134
47117W        W19377  36.840  15.281  12.981
47118W        W19378  18.194   5.537   9.739
47119W        W19379  28.181  32.675   0.286
47120W        W19380  23.237  16.125  14.196
47121W        W19381  14.597  43.956   1.281
47122W        W19382   9.945  41.146  12.498
47123W        W19383  17.920   8.335   3.761
47124W        W19384  41.761  24.975  11.168
47125W        W19385  24.205  39.957  11.058
47126W        W19386  43.899  35.463   1.058
47127W        W19387   7.951  16.758   2.261
47128W        W19388  14.309  23.575  13.402
47129W        W19389  30.705  30.968  14.303
47130W        W19390  30.084  17.355   3.080
47131W        W19391  37.851  30.100   4.567
47132W        W19392  42.964  21.410   1.402
47133W        W19393  33.902  37.281  11.595
47134W        W19394  18.147   2.741   4.630
47135W        W19395  26.091  36.498   3.762
47136W        W19396   6.695  38.551  13.562
47137W        W19397   0.032  22.118   3.275
47138W        W19398  31.857  31.099  11.989
47139W        W19399   6.426  17.045  10.942
47140W        W19400  33.718   4.124   0.819
47141W        W19401  44.692  33.137   3.131
47142W        W19402  41.310  38.775  11.999
47143W        W19403   7.217  19.638  13.401
47144W        W19404  19.401  24.081  12.038
47145W        W19405  33.654  44.559  11.616
47146W        W19406  20.195  38.230  12.497
47147W        W19407  12.884   9.701   2.021
47148W        W19408  35.658  42.974  13.875
47149W        W19409  40.244   9.089   4.535
47150W        W19410   1.948   6.744  10.726
47151W        W19411  44.288   1.411  10.962
47152W        W19412  12.691  43.246   1.297
47153W        W19413  43.514  43.006  13.060
47154W        W19414  33.384  42.935  10.772
47155W        W19415   0.747  38.708  13.616
47156W        W19416  19.674  17.239   3.652
47157W        W19417  42.451  16.180  11.873
47158W        W19418  23.687  25.160   3.401
47159W        W19419  41.777  22.269  12.352
47160W        W19420   8.313   4.321   4.547
47161W        W19421   7.911   8.907  14.126
47162W        W19422  22.492  19.200  14.238
47163W        W19423   6.468  24.220   4.194
47164W        W19424   4.226  22.227   2.271
47165W        W19425  10.848  42.945   4.370
47166W        W19426  43.468  39.351   3.850
47167W        W19427  44.086   1.893  11.119
47168W        W19428  19.108  18.159  14.510
47169W        W19429   4.940  42.145   2.732
47170W        W19430   4.558  24.694  14.178
47171W        W19431   7.783  20.775   1.803
47172W        W19432  40.430  16.254  12.012
47173W        W19433  41.461  40.061   4.689
47174W        W19434  35.742  15.133  13.647
47175W        W19435  38.450  35.050   1.024
47176W        W19436  12.544  30.694  13.926
47177W        W19437  34.510  18.607   4.204
47178W        W19438  21.602  43.250  11.186
47179W        W19439   2.760   4.902   3.592
47180W        W19440  32.166  17.090  12.386
47181W        W19441   5.432  37.993   2.859
47182W        W19442  29.863  31.376  13.297
47183W        W19443  43.455   6.778   0.753
47184W        W19444   5.974  10.204   0.489
47185W        W19445  20.801   0.937   1.339
47186W        W19446  39.317  15.658   4.535
47187W        W19447  21.216  16.306  11.099
47188W        W19448  40.041   2.970  12.050
47189W        W19449  39.917  25.013  13.056
47190W        W19450  27.541  19.470   4.629
47191W        W19451  37.541  42.368   3.333
47192W        W19452  22.154  21.117  10.124
47193W        W19453   7.238  35.070  13.871
47194W        W19454  28.532  22.776  12.481
47195W        W19455  38.749   7.940  12.594
47196W        W19456  35.029  21.532  10.477
47197W        W19457  44.678  36.175  14.359
47198W        W19458  32.625  41.364  11.250
47199W        W19459   6.917  27.982  13.430
47200W        W19460  16.257  17.511   0.629
47201W        W19461   0.378  33.549  10.950
47202W        W19462  23.969  21.063   0.189
47203W        W19463  43.085  24.094   2.791
47204W        W19464  29.659  44.002  10.730
47205W        W19465  39.078  22.080  13.311
47206W        W19466  35.998  26.587   4.931
47207W        W19467  42.374  12.072  13.129
47208W        W19468  15.044  16.995  11.119
47209W        W19469  11.238   0.071   0.450
47210W        W19470  19.219  39.544  12.955
47211W        W19471  38.040  17.153   4.162
47212W        W19472   2.239  22.634  14.941
47213W        W19473  12.827  23.679  14.218
47214W        W19474  19.661  33.693   4.032
47215W        W19475  20.290  41.329   4.200
47216W        W19476  39.465   2.703   3.772
47217W        W19477  35.128  33.693   4.145
47218W        W19478  42.983  43.446   3.414
47219W        W19479  21.771   4.725   3.147
47220W        W19480  10.046  27.524   4.662
47221W        W19481  16.443  43.371   2.873
47222W        W19482  21.682  43.029   1.687
47223W        W19483   7.902  13.677   2.247
47224W        W19484  18.478   3.293  14.992
47225W        W19485  39.020  36.183   4.236
47226W        W19486   2.137  33.499   3.272
47227W        W19487  16.038  40.883   0.327
47228W        W19488  15.546  41.239  12.431
47229W        W19489  27.322  18.199  11.864
47230W        W19490  42.047   2.425  11.425
47231W        W19491   7.983  22.218  10.958
47232W        W19492   9.131  29.167  11.927
47233W        W19493  27.970   6.609  14.771
47234W        W19494   0.257  18.290   2.938
47235W        W19495   1.175  37.473  10.484
47236W        W19496  34.092  11.363  10.974
47237W        W19497  34.036  26.491  13.553
47238W        W19498  20.544  29.065  10.702
47239W        W19499   6.083   3.859  14.570
47240W        W19500  17.577   4.698  12.908
47241W        W19501  10.853  15.453   2.951
47242W        W19502   7.913  14.925   3.773
47243W        W19503  35.197  18.626   9.955
47244W        W19504  24.896  30.986   0.960
47245W        W19505  25.033  43.008   1.280
47246W        W19506   4.695  35.870   2.622
47247W        W19507   0.799  22.393   3.694
47248W        W19508  35.355  14.701   2.912
47249W        W19509  13.362  30.932   1.419
47250W        W19510  18.113  37.903  14.367
47251W        W19511   6.485  37.535   3.062
47252W        W19512  26.210  17.120  12.929
47253W        W19513  30.408   3.304  12.637
47254W        W19514  29.153   0.125  14.036
47255W        W19515  31.569  23.455  13.812
47256W        W19516   7.369  39.571  14.355
47257W        W19517  31.527  19.228   4.383
47258W        W19518  26.718  16.478  12.024
47259W        W19519  16.599  40.925  11.433
47260W        W19520  23.004  26.210   3.699
47261W        W19521  22.658   5.870   3.269
47262W        W19522   3.318  37.331  13.258
47263W        W19523   0.498  12.781   2.685
47264W        W19524  33.485  29.997   3.153
47265W        W19525   8.705  28.359   3.962
47266W        W19526  20.032   6.819   4.961
47267W        W19527  29.605  25.173  11.041
47268W        W19528  33.256  19.010   5.141
47269W        W19529  26.757  42.352  11.597
47270W        W19530  41.641  21.497  12.440
47271W        W19531  34.628  23.169  14.499
47272W        W19532  18.305  32.939   0.124
47273W        W19533  19.318  11.841   4.167
47274W        W19534  34.442   7.325  10.682
47275W        W19535  10.916  13.033   2.835
47276W        W19536  22.579  38.378   3.657
47277W        W19537  33.080  26.576  13.036
47278W        W19538   1.236   8.326   3.672
47279W        W19539  40.735  38.568   2.131
47280W        W19540  27.599  37.828   4.830
47281W        W19541  20.222   7.119   4.571
47282W        W19542   3.249  20.656   4.039
47283W        W19543  38.999  43.917  13.504
47284W        W19544  43.340  40.894   2.917
47285W        W19545   4.510  27.035  13.342
47286W        W19546   7.709   6.030  14.065
47287W        W19547  38.250  23.193  11.095
47288W        W19548   6.572  23.971  14.427
47289W        W19549  36.607   6.236  13.401
47290W        W19550  20.521  25.039   0.317
47291W        W19551   5.304  42.683   4.157
47292W        W19552  29.232  26.045  14.292
47293W        W19553  26.379  20.779   4.764
47294W        W19554   9.360  34.056  14.393
47295W        W19555  26.978  32.822  12.123
47296W        W19556   3.929  20.022  14.674
47297W        W19557  11.749  30.610   4.140
47298W        W19558   1.733  16.547  13.518
47299W        W19559  22.996  29.434  11.530
47300W        W19560  24.510  10.780  12.394
47301W        W19561  42.041  19.757  13.193
47302W        W19562  13.839   8.826   3.591
47303W        W19563   8.911  14.788   0.378
47304W        W19564  34.494  27.082  12.029
47305W        W19565   6.800  35.056   4.551
47306W        W19566  23.224  19.307   0.844
47307W        W19567  12.169  11.599   4.529
47308W        W19568  17.782  41.543   0.498
47309W        W19569  38.171  14.396  11.089
47310W        W19570  18.043  22.741   4.417
47311W        W19571   2.439  25.635  10.852
47312W        W19572  10.605  34.077  14.899
47313W        W19573  27.874  38.020   3.861
47314W        W19574  34.133  31.185  13.073
47315W        W19575  23.175  17.054  10.902
47316W        W19576  43.238  14.254  12.090
47317W        W19577   7.664  41.048   0.947
47318W        W19578  11.239  16.671  10.772
47319W        W19579  28.900  13.760   2.209
47320W        W19580   5.266  33.330   2.612
47321W        W19581  35.810  34.129   0.794
47322W        W19582  37.319  22.578   4.319
47323W        W19583  23.970   7.250  13.006
47324W        W19584  39.990   2.221  11.506
47325W        W19585   5.488  18.124   0.288
47326W        W19586  34.410   1.481  14.825
47327W        W19587  27.613  23.048   4.136
47328W        W19588  18.624  20.878   4.484
47329W        W19589   2.858  12.858  11.188
47330W        W19590  39.358  31.908   2.570
47331W        W19591  43.919   5.959  11.650
47332W        W19592  33.382  41.069   1.773
47333W        W19593  17.218  42.993   2.134
47334W        W19594  29.847  15.327  14.859
47335W        W19595  38.374  18.215   2.892
47336W        W19596   6.193  14.178   0.348
47337W        W19597  42.604  40.756  10.697
47338W        W19598  23.764  29.141  14.784
47339W        W19599  31.903  13.771   2.984
47340W        W19600   7.156  43.511   1.793
47341W        W19601  20.595   5.623   1.888
47342W        W19602  30.897  29.834   2.434
47343W        W19603  11.279  20.189  11.179
47344W        W19604  43.319   8.661  11.969
47345W        W19605  22.813  24.356  13.546
47346W        W19606  17.605  16.449  12.986
47347W        W19607  29.125  27.117  13.903
47348W        W19608  42.030  25.373  14.427
47349W        W19609  27.621  16.611  14.884
47350W        W19610  14.991  10.716   4.165
47351W        W19611  32.825  26.185   1.477
47352W        W19612  27.100  34.385   2.854
47353W        W19613   1.128  29.598  12.662
47354W        W19614  30.979  32.456  12.671
47355W        W19615   4.684  24.347   1.841
47356W        W19616   7.249  19.827  11.554
47357W        W19617  39.202   6.977  12.757
47358W        W19618   1.324  42.588  13.522
47359W        W19619  30.243  42.486  14.365
47360W        W19620  14.965  15.542  14.917
47361W        W19621  30.614  13.842  13.891
47362W        W19622  26.214  38.018  13.339
47363W        W19623   8.685  35.910  11.324
47364W        W19624  12.937  10.821  12.295
47365W        W19625  42.380  26.674  14.369
47366W        W19626   2.437  29.114  10.028
47367W        W19627  19.489  39.417  12.523
47368W        W19628   6.668  20.155  12.174
47369W        W19629   1.829  44.377   0.032
47370W        W19630  22.033   1.835   4.655
47371W        W19631  11.254   0.461  10.610
47372W        W19632   7.782  10.674   0.415
47373W        W19633  43.604  13.483   4.504
47374W        W19634   0.735  14.647   2.748
47375W        W19635   4.791  25.113  11.586
47376W        W19636   5.858  26.204  11.999
47377W        W19637  27.373  18.189  11.343
47378W        W19638  34.991  18.798   1.235
47379W        W19639  32.389   4.926   1.256
47380W        W19640  41.011  19.589   1.981
47381W        W19641  33.202  31.917   3.923
47382W        W19642  17.802  28.222   4.462
47383W        W19643  13.545  29.991  11.163
47384W        W19644  30.170  34.547   4.337
47385W        W19645   3.031  37.506  12.869
47386W        W19646  22.092  37.043   2.177
47387W        W19647  42.719  29.118  12.926
47388W        W19648  25.759  39.422  12.006
47389W        W19649   7.082  15.315   0.935
47390W        W19650  35.496  18.802   5.701
47391W        W19651   0.809  21.270   1.884
47392W        W19652  39.745  15.493   3.135
47393W        W19653  41.334  25.455  11.558
47394W        W19654  33.672  38.778  12.333
47395W        W19655  38.510  34.127   1.201
47396W        W19656  21.780  29.474   4.250
47397W        W19657  25.022  21.896   4.615
47398W        W19658  25.988  32.462  14.726
47399W        W19659  36.948  16.116  12.486
47400W        W19660  20.606   0.235   1.844
47401W        W19661  40.000  29.669   4.166
47402W        W19662  33.169  13.131   1.434
47403W        W19663  27.033  28.144  12.702
47404W        W19664   5.401  26.456   2.156
47405W        W19665   2.232  29.743   4.015
47406W        W19666  37.393  42.311  14.762
47407W        W19667  31.063  23.267  12.328
47408W        W19668  12.331  33.051  11.517
47409W        W19669  30.730  40.283   5.062
47410W        W19670  44.833  23.647  10.655
47411W        W19671  24.320  11.012   3.635
47412W        W19672  25.199  34.546   4.517
47413W        W19673  28.256  30.639  12.927
47414W        W19674  27.674  15.203   4.883
47415W        W19675  44.798  11.907   1.722
47416W        W19676  27.511   5.088  12.137
47417W        W19677  38.863  42.054   2.177
47418W        W19678  13.910  44.417  11.330
47419W        W19679   1.867  39.564   1.496
47420W        W19680  38.118  40.267   4.389
47421W        W19681  14.371   8.733  13.582
47422W        W19682   0.857  36.337  13.951
47423W        W19683  42.815  28.605   3.188
47424W        W19684  13.002  23.567  13.729
47425W        W19685   5.494   0.195   0.500
47426W        W19686  37.393  13.783   1.454
47427W        W19687  18.020  40.987   4.102
47428W        W19688  40.202  32.582  10.707
47429W        W19689  31.022   2.688   2.050
47430W        W19690   3.231  10.181  11.930
47431W        W19691  14.227  21.189   0.268
47432W        W19692   1.250   1.283  14.892
47433W        W19693  12.230  43.979   4.631
47434W        W19694  14.389   8.372   3.124
47435W        W19695  11.661  10.258   3.236
47436W        W19696  12.221   1.907   1.402
47437W        W19697  14.199  13.719  10.567
47438W        W19698  17.837  28.875   1.837
47439W        W19699  14.270   8.924   2.212
47440W        W19700  30.150  29.882   1.474
47441W        W19701  18.563  34.660  14.452
47442W        W19702  11.404  36.845  14.486
47443W        W19703  12.170  14.911   2.804
47444W        W19704  24.488   6.934   3.719
47445W        W19705  19.591  44.221   3.890
47446W        W19706  30.074  13.657   0.876
47447W        W19707  32.934  15.496  11.560
47448W        W19708  19.943  11.397  14.803
47449W        W19709   3.213  25.500   3.666
47450W        W19710  33.892  18.444   0.381
47451W        W19711  44.872   9.449   0.331
47452W        W19712  25.575  22.979   2.222
47453W        W19713  26.647  32.374   1.015
47454W        W19714  43.526  33.092   4.676
47455W        W19715   1.192  30.591   2.814
47456W        W19716  30.014  38.610   3.369
47457W        W19717   4.187  37.344   0.980
47458W        W19718   4.380  18.329   4.133
47459W        W19719  30.664  40.167  12.598
47460W        W19720  37.412  40.381   0.367
47461W        W19721   0.109  22.011  11.754
47462W        W19722  41.926  18.065  11.476
47463W        W19723   8.836   2.731   2.295
47464W        W19724  31.206  19.029  11.436
47465W        W19725  37.005  31.659   4.008
47466W        W19726  23.489  43.927  11.715
47467W        W19727  28.653   6.333   1.109
47468W        W19728  27.253  12.914   0.455
47469W        W19729  17.832  27.032  14.834
47470W        W19730  31.008   3.203   1.969
47471W        W19731  28.019  38.388   0.685
47472W        W19732  27.203  39.283  10.674
47473W        W19733  30.834  30.079   3.676
47474W        W19734  21.460  42.952   0.316
47475W        W19735  43.522  11.461  10.509
47476W        W19736  43.876   2.103   2.218
47477W        W19737  27.569  11.168   3.699
47478W        W19738  38.640  26.404  12.595
47479W        W19739  10.795  29.627   1.632
47480W        W19740  24.712  17.497  12.078
47481W        W19741  10.591  43.391   3.127
47482W        W19742   0.818  17.716   3.285
47483W        W19743  22.169   4.341   3.758
47484W        W19744  36.585   2.988   3.814
47485W        W19745  14.858  30.469   0.347
47486W        W19746   6.027  36.432   3.645
47487W        W19747  25.716  41.308   4.256
47488W        W19748  27.869   4.954  14.233
47489W        W19749   8.944  14.876  14.478
47490W        W19750  26.795   7.590   2.592
47491W        W19751  38.500  42.965   2.918
47492W        W19752  37.433   6.890   1.790
47493W        W19753  22.666   4.310   4.316
47494W        W19754   5.434  10.810   1.013
47495W        W19755  21.761  40.032  13.617
47496W        W19756  38.177  11.339   1.898
47497W        W19757   7.349  42.778   1.163
47498W        W19758   3.408  12.172   4.438
47499W        W19759  13.662  13.180  12.003
47500W        W19760   0.689  22.685   0.848
47501W        W19761  41.696  29.012  14.425
47502W        W19762  17.170   4.760  14.268
47503W        W19763  21.683  41.915  13.630
47504W        W19764   7.663  43.569   3.328
47505W        W19765  29.725  23.278  12.592
47506W        W19766  17.880  33.033   3.321
47507W        W19767  44.457  37.804  12.941
47508W        W19768  20.571  16.230  13.427
47509W        W19769   7.469  10.787   2.349
47510W        W19770  34.057  41.344  14.118
47511W        W19771  34.522  17.498   0.442
47512W        W19772  25.277   5.590  13.476
47513W        W19773   5.329   1.521  11.530
47514W        W19774  29.986  38.542   1.897
47515W        W19775  17.098  10.035   4.093
47516W        W19776   7.556  18.665   1.008
47517W        W19777   2.616  19.657   0.434
47518W        W19778   4.486  32.133  12.119
47519W        W19779   8.930  20.161   2.850
47520W        W19780  41.098   1.274  13.950
47521W        W19781   0.469   1.436  11.116
47522W        W19782  25.497  34.798   2.391
47523W        W19783  34.480  19.701  12.662
47524W        W19784  14.882  20.975   3.707
47525W        W19785   4.653  39.637   3.472
47526W        W19786  30.098  13.842  13.636
47527W        W19787  20.731   6.573  10.152
47528W        W19788   0.244   6.660   4.391
47529W        W19789  37.998  34.708   3.654
47530W        W19790  35.613  23.714   1.808
47531W        W19791  10.417   5.333  12.462
47532W        W19792  14.204  29.436  14.297
47533W        W19793  31.891  22.478   2.606
47534W        W19794   9.678   2.055  11.310
47535W        W19795   3.731  39.867   0.235
47536W        W19796  28.622   1.179  14.270
47537W        W19797   5.967  26.109   4.699
47538W        W19798  35.982  24.325  12.210
47539W        W19799   5.461  17.259  12.801
47540W        W19800  34.881  41.596  13.319
47541W        W19801  13.244  18.961  14.742
47542W        W19802  39.346  35.263  10.775
47543W        W19803  26.428  24.222   3.218
47544W        W19804  13.075   9.715  14.975
47545W        W19805  14.947  30.880   2.901
47546W        W19806  26.551   6.242  10.796
47547W        W19807  38.824   6.922  10.250
47548W        W19808  41.060  30.704   3.803
47549W        W19809  19.535   0.422   0.410
47550W        W19810  33.903  39.675  14.907
47551W        W19811  39.322  20.075   1.437
47552W        W19812  29.567   1.293  14.836
47553W        W19813  22.504  25.804   5.480
47554W        W19814  11.438  22.518   0.175
47555W        W19815  22.730  34.036   1.421
47556W        W19816   0.482  24.698   0.935
47557W        W19817  16.252  26.914  14.478
47558W        W19818  41.131   8.055   3.835
47559W        W19819  24.490  40.412   2.420
47560W        W19820  18.271  37.966   1.408
47561W        W19821  36.025  38.413  13.105
47562W        W19822  11.704  44.131  11.465
47563W        W19823   0.044   0.972  11.888
47564W        W19824  19.165  20.492   2.793
47565W        W19825  29.629  29.108  13.470
47566W        W19826   4.836   3.607   4.867
47567W        W19827   6.008   5.982   0.917
47568W        W19828  15.122  19.181   4.851
47569W        W19829  10.884   7.314  12.137
47570W        W19830   2.984  27.220  10.720
47571W        W19831  19.340  26.015  14.394
47572W        W19832   9.264  44.858  10.847
47573W        W19833   9.882  13.079   2.870
47574W        W19834  33.622  42.320  14.708
47575W        W19835  13.473  35.107   2.428
47576W        W19836  23.737   5.301   1.412
47577W        W19837  27.253   5.402   0.865
47578W        W19838  10.411  10.871   1.583
47579W        W19839  11.761  34.364  13.880
47580W        W19840   6.627  12.539   2.980
47581W        W19841  18.116  10.618  12.779
47582W        W19842  25.700   3.769  11.904
47583W        W19843  35.141   5.436   3.690
47584W        W19844  22.765  22.110   2.899
47585W        W19845   5.102   8.900   3.391
47586W        W19846  17.679  10.883   0.421
47587W        W19847  31.882  35.886  14.925
47588W        W19848  44.414   1.810   2.857
47589W        W19849  18.290  14.223  11.982
47590W        W19850  44.196  42.910  13.815
47591W        W19851  29.243   1.251   5.010
47592W        W19852   2.960  33.841  11.152
47593W        W19853  19.199  19.641   4.340
47594W        W19854   7.798  29.695  11.542
47595W        W19855  11.301  33.978  13.390
47596W        W19856  28.379  39.242  14.930
47597W        W19857   5.992  41.020  13.154
47598W        W19858  24.860  34.889  14.414
47599W        W19859  30.335  27.682   0.248
47600W        W19860  11.223  35.731  10.701
47601W        W19861  29.164  14.926   1.232
47602W        W19862  12.090  37.876  10.705
47603W        W19863  10.316  24.443  14.123
47604W        W19864   4.779  34.063   0.639
47605W        W19865  26.153  28.655   0.298
47606W        W19866  28.438   0.467  14.910
47607W        W19867  27.337  17.746  12.130
47608W        W19868  34.511  19.401  14.009
47609W        W19869  41.595  36.049  11.447
47610W        W19870  39.738  19.325   1.436
47611W        W19871   9.658  21.574  14.912
47612W        W19872  10.905  12.332  11.553
47613W        W19873  18.860  18.967   2.350
47614W        W19874  26.895  36.878   3.674
47615W        W19875  39.321   8.177   2.788
47616W        W19876  36.076  19.355  10.967
47617W        W19877  25.144  34.442  13.550
47618W        W19878  14.607  20.691  11.240
47619W        W19879  15.058  27.544   1.426
47620W        W19880  39.092  38.388   3.328
47621W        W19881  30.587  39.201  12.963
47622W        W19882   5.890  19.673   4.515
47623W        W19883   1.829  13.855  12.939
47624W        W19884  44.470   0.720  12.620
47625W        W19885  31.409  38.933   1.873
47626W        W19886  35.580  31.726  13.797
47627W        W19887  32.384  32.483  12.801
47628W        W19888  11.918  43.349  11.127
47629W        W19889  40.708  21.152  14.004
47630W        W19890  43.078  17.585  14.727
47631W        W19891   7.224   2.948  12.970
47632W        W19892  16.229  36.064   0.884
47633W        W19893  25.543  22.742   4.723
47634W        W19894   7.240  31.570  12.117
47635W        W19895  28.584   9.584  11.099
47636W        W19896  36.271  33.831   0.781
47637W        W19897  22.264   4.295  10.490
47638W        W19898  41.985  27.680   4.142
47639W        W19899  28.050  42.100  11.507
47640W        W19900  19.294  21.508   2.905
47641W        W19901  33.885  16.283   3.754
47642W        W19902  29.931  15.639  10.450
47643W        W19903  28.156  16.667  11.523
47644W        W19904  36.631  15.295   1.845
47645W        W19905  25.432  19.484   0.160
47646W        W19906  40.565   6.209  13.286
47647W        W19907  16.199  34.101  13.034
47648W        W19908  18.689  39.395   3.586
47649W        W19909  18.262  39.455   0.824
47650W        W19910  12.048  17.667  11.914
47651W        W19911   4.360  33.236   3.171
47652W        W19912   6.214  17.196   1.581
47653W        W19913  43.331  41.948  12.034
47654W        W19914   1.682   6.949  12.997
47655W        W19915   0.926  17.678   1.884
47656W        W19916   0.484  23.955  13.540
47657W        W19917  15.641  12.546  13.932
47658W        W19918  42.951   2.565   5.094
47659W        W19919  18.568  32.026   3.892
47660W        W19920  42.548  11.131  11.503
47661W        W19921   4.670  10.444  11.977
47662W        W19922  35.133  35.684   0.939
47663W        W19923   0.368  20.028  10.639
47664W        W19924  25.050   9.346  13.002
47665W        W19925  37.629  39.460   3.555
47666W        W19926  17.268  28.581  14.121
47667W        W19927  33.504  43.982   1.594
47668W        W19928   4.537  17.061   3.371
47669W        W19929  20.225  41.981  13.373
47670W        W19930   7.103  37.607  11.022
47671W        W19931  37.669  29.744   3.668
47672W        W19932   3.400  14.254   2.464
47673W        W19933  27.525  32.645   4.022
47674W        W19934  43.994  15.857   0.959
47675W        W19935  38.527  23.988  14.817
47676W        W19936  15.773  39.095   2.327
47677W        W19937  18.651   8.281  10.772
47678W        W19938   2.525  21.401   1.919
47679W        W19939  39.826  19.992   3.906
47680W        W19940  26.518  33.424   1.366
47681W        W19941  25.626  33.053  11.873
47682W        W19942  19.128  40.120   3.189
47683W        W19943  15.550  21.749   2.324
47684W        W19944   2.312  35.170  13.769
47685W        W19945  43.723  30.498   2.316
47686W        W19946  13.139  38.882   1.699
47687W        W19947  15.731  28.981   4.753
47688W        W19948  11.135   7.327   2.951
47689W        W19949  23.059  41.456   1.214
47690W        W19950  19.124   8.829  12.439
47691W        W19951  34.988   5.215  14.733
47692W        W19952  15.295   2.457  11.101
47693W        W19953  27.694  34.736   4.562
47694W        W19954   4.887  25.287   0.256
47695W        W19955  41.338  21.426   0.462
47696W        W19956  13.573  25.245  12.518
47697W        W19957  28.796  20.275  12.986
47698W        W19958  16.768  17.742  13.481
47699W        W19959   0.232  15.258  13.399
47700W        W19960   3.411  39.332  11.041
47701W        W19961  14.402  13.618  14.447
47702W        W19962  35.305  37.859   2.447
47703W        W19963  43.893  27.964  12.092
47704W        W19964  27.745  39.669   4.616
47705W        W19965  19.127  19.187  12.060
47706W        W19966  39.729  15.173   3.917
47707W        W19967  15.404  25.669  11.159
47708W        W19968   8.068   5.946   3.686
47709W        W19969  32.559  38.072  12.926
47710W        W19970  11.117  32.271   5.032
47711W        W19971  35.346   4.519   0.984
47712W        W19972  33.114  10.217   0.377
47713W        W19973  43.863  44.402  12.780
47714W        W19974  36.042  20.526  12.898
47715W        W19975  41.510  34.132  12.325
47716W        W19976  21.259  20.036   3.605
47717W        W19977   9.870  25.909  14.640
47718W        W19978   0.259   5.680   0.422
47719W        W19979  36.420   6.466  12.945
47720W        W19980  29.169  16.640   2.978
47721W        W19981  31.044   8.585  10.003
47722W        W19982   7.355  43.553  12.275
47723W        W19983  26.431  14.385   1.831
47724W        W19984  11.541  22.705  11.082
47725W        W19985   6.420  20.055  14.364
47726W        W19986  29.921  28.470   4.489
47727W        W19987  23.734  31.947  13.079
47728W        W19988  20.177  44.221  12.499
47729W        W19989  39.154   6.428   1.100
47730W        W19990  23.119   7.470   1.903
47731W        W19991  21.037  39.205  12.885
47732W        W19992  19.533  44.348  14.325
47733W        W19993  36.031  22.466   0.310
47734W        W19994   8.578  44.452  11.501
47735W        W19995  41.959  24.325   0.032
47736W        W19996  41.251  13.774   4.286
47737W        W19997  30.394  22.711  11.570
47738W        W19998  39.463  41.108  14.408
47739W        W19999  29.199   2.365   4.579
47740W        W20000  21.517  36.481  13.585
47741W        W20001  34.117  42.430   1.995
47742W        W20002  35.798  37.304  10.701
47743W        W20003   9.671  12.370  12.077
47744W        W20004  44.055  38.156  11.221
47745W        W20005  11.618   6.178   2.692
47746W        W20006  28.262  27.361  12.572
47747W        W20007  26.158  36.520   4.284
47748W        W20008  23.375   3.717  12.593
47749W        W20009   1.650   9.007   5.013
47750W        W20010  20.538  22.160   2.335
47751W        W20011  20.776  40.276  14.546
47752W        W20012  15.130  12.873  11.946
47753W        W20013   7.718  35.994  11.539
47754W        W20014  17.727  25.622   4.886
47755W        W20015   8.965  39.937  14.295
47756W        W20016  16.079  19.280   1.414
47757W        W20017  23.123  31.955  11.524
47758W        W20018  31.999  42.595  10.661
47759W        W20019  43.497  33.697   0.013
47760W        W20020  15.804  22.177  13.265
47761W        W20021  13.404   3.496   0.534
47762W        W20022  32.837  35.399  11.056
47763W        W20023  31.536   6.958   3.794
47764W        W20024   8.873   9.287   2.096
47765W        W20025  26.191  24.511  13.785
47766W        W20026   4.672  41.323  11.994
47767W        W20027  19.208  24.049  14.030
47768W        W20028  31.165  32.984   3.456
47769W        W20029   1.703  38.210   1.702
47770W        W20030  11.593  35.269  11.542
47771W        W20031  14.618  27.117  11.419
47772W        W20032   6.895  40.924  14.497
47773W        W20033  24.700  44.676  11.929
47774W        W20034  11.558  20.164  11.607
47775W        W20035  17.037  12.679  13.970
47776W        W20036   5.771  42.775  14.404
47777W        W20037  37.496  19.853  12.001
47778W        W20038  32.900  44.596  13.419
47779W        W20039  21.693   5.187  14.514
47780W        W20040  32.166  20.082  13.019
47781W        W20041   8.839  33.116   1.537
47782W        W20042  13.592  43.788  13.550
47783W        W20043  35.338  21.476   3.403
47784W        W20044   6.334  30.356  14.669
47785W        W20045  20.737  40.555   0.858
47786W        W20046  13.078  26.615  12.152
47787W        W20047   4.932  38.038  14.161
47788W        W20048  25.570  36.977  12.461
47789W        W20049  15.670  28.504   5.475
47790W        W20050  12.113  32.653   3.500
47791W        W20051  37.824  32.300   0.854
47792W        W20052  10.209   1.335  12.855
47793W        W20053  43.055  33.538  14.819
47794W        W20054  19.844  30.070  12.111
47795W        W20055  40.474  26.697  13.563
47796W        W20056   1.004  13.033  11.378
47797W        W20057  11.788  18.261   3.734
47798W        W20058   8.259  31.696  13.831
47799W        W20059  41.548  42.050   0.809
47800W        W20060   9.804  22.353   1.718
47801W        W20061  25.442   4.194  12.107
47802W        W20062  14.091   4.172  13.842
47803W        W20063  36.428  21.133   4.586
47804W        W20064   1.317   5.784   3.578
47805W        W20065   4.466  12.332  12.032
47806W        W20066  17.651   8.295  10.594
47807W        W20067  29.538  15.358  10.711
47808W        W20068  21.774  40.315   0.917
47809W        W20069  32.900  23.159  11.953
47810W        W20070   5.439  20.034   2.252
47811W        W20071   6.328  28.937  13.941
47812W        W20072  25.420  27.449  10.479
47813W        W20073  13.183  30.002   0.034
47814W        W20074  33.508  36.801  12.362
47815W        W20075  36.309   9.162   1.750
47816W        W20076  30.162  30.451   0.043
47817W        W20077  25.218  21.203  14.493
47818W        W20078  23.688   9.347  13.348
47819W        W20079  43.948   3.365   1.101
47820W        W20080  21.167  21.764   1.809
47821W        W20081  25.244  21.162  11.276
47822W        W20082  21.325  34.181   3.335
47823W        W20083   3.225  21.168   0.922
47824W        W20084  18.831  27.229   3.753
47825W        W20085  15.974  28.609  14.744
47826W        W20086   8.294  16.998  10.552
47827W        W20087   8.356  34.440  10.575
47828W        W20088  20.515  26.398   5.098
47829W        W20089  30.318  15.755  14.546
47830W        W20090  40.549  28.382   1.201
47831W        W20091  15.252   6.426   4.262
47832W        W20092  40.303   0.228   3.709
47833W        W20093  19.935   2.269   0.289
47834W        W20094   7.665  12.073  10.731
47835W        W20095  21.624  32.616   2.485
47836W        W20096  31.379   5.680  13.812
47837W        W20097  25.344  40.595   2.754
47838W        W20098   9.392  37.037   2.822
47839W        W20099  44.887  20.087   2.281
47840W        W20100  42.233  21.043   3.678
47841W        W20101  42.937   7.393  13.603
47842W        W20102  20.736  18.164  11.078
47843W        W20103  38.667  25.851   2.819
47844W        W20104  10.050  26.600   2.191
47845W        W20105  38.819  20.297   4.592
47846W        W20106  40.806  32.246   0.080
47847W        W20107  42.063  18.328  11.906
47848W        W20108  10.781  37.939   0.273
47849W        W20109  33.957   0.404  12.374
47850W        W20110  42.002   0.929   1.415
47851W        W20111  37.109  26.081   0.962
47852W        W20112  25.436  18.188  12.514
47853W        W20113  10.734   0.165   2.816
47854W        W20114  27.705  42.409  11.207
47855W        W20115   0.000  11.796   0.952
47856W        W20116   5.191  17.512   4.818
47857W        W20117  16.367  12.113  12.206
47858W        W20118   0.082  27.535  11.233
47859W        W20119  22.493  10.927   3.830
47860W        W20120  23.700  14.889  12.519
47861W        W20121  30.677  31.944  11.559
47862W        W20122  29.444  17.273   0.779
47863W        W20123  27.647  19.554   1.335
47864W        W20124  12.354  40.755   3.063
47865W        W20125  37.609   1.969   4.159
47866W        W20126  39.772  17.385  13.026
47867W        W20127   5.859  36.482  10.913
47868W        W20128  41.642  44.670  13.412
47869W        W20129  32.867   2.861   0.872
47870W        W20130   8.728  24.692  14.326
47871W        W20131  35.914  38.092   1.129
47872W        W20132  18.619  23.983   1.223
47873W        W20133  11.617   5.480   3.160
47874W        W20134  29.691  19.152   1.463
47875W        W20135  27.990  20.983  14.511
47876W        W20136   7.775  37.640  11.843
47877W        W20137   3.105   6.577   1.698
47878W        W20138  22.566  13.975  12.009
47879W        W20139  22.084  26.146  10.143
47880W        W20140   3.497  36.602   1.270
47881W        W20141  32.154  18.651   1.731
47882W        W20142  44.528  39.031   3.295
47883W        W20143  25.160  28.437   0.189
47884W        W20144  12.362  29.478   5.477
47885W        W20145   0.339   5.936  10.908
47886W        W20146  19.197  19.823  14.305
47887W        W20147  32.519  34.519   4.555
47888W        W20148  40.117  11.957   1.181
47889W        W20149  12.685   9.858  13.663
47890W        W20150  20.051   7.592  12.008
47891W        W20151  25.553  14.702  10.675
47892W        W20152  20.623  27.707   0.276
47893W        W20153  39.447  15.640  10.698
47894W        W20154  36.078  18.637  11.948
47895W        W20155  22.155  21.801   1.215
47896W        W20156   0.404  17.587   1.039
47897W        W20157  28.949  23.198   1.812
47898W        W20158   7.412  38.620   3.473
47899W        W20159   8.195  17.069   3.795
47900W        W20160  23.781   1.674   4.951
47901W        W20161  43.626   8.795   1.196
47902W        W20162  34.846  14.994  13.154
47903W        W20163  10.574   8.859  11.824
47904W        W20164  26.531  32.357   2.398
47905W        W20165  27.234  33.377  11.542
47906W        W20166  25.276  34.005   4.148
47907W        W20167  20.043   6.784  10.202
47908W        W20168  33.530  41.477   4.361
47909W        W20169  41.024  39.831  12.529
47910W        W20170   2.189  43.949  11.916
47911W        W20171  14.572   9.178   0.133
47912W        W20172  33.582  28.656  10.746
47913W        W20173  28.795   7.210  13.214
47914W        W20174  19.541   0.215  11.896
47915W        W20175  15.590  26.538   3.170
47916W        W20176  10.183  39.405   2.900
47917W        W20177   0.255   6.731   3.039
47918W        W20178  35.583  13.208  14.279
47919W        W20179   8.728  19.606   4.076
47920W        W20180  12.838  41.514  13.567
47921W        W20181   4.924  22.837  10.542
47922W        W20182  39.867  37.024  14.375
47923W        W20183  21.471  43.233  14.859
47924W        W20184  38.897  15.591  11.008
47925W        W20185  12.868  29.666  12.472
47926W        W20186  33.349  44.531   0.424
47927W        W20187  43.414  32.632  12.899
47928W        W20188  15.623  40.951   1.257
47929W        W20189   0.148   6.759  12.426
47930W        W20190  25.915  43.063  14.278
47931W        W20191  36.642  43.274   0.620
47932W        W20192  23.735  21.514  14.002
47933W        W20193  11.747   1.777   3.529
47934W        W20194  15.375   3.675  14.325
47935W        W20195  18.789   7.257   3.106
47936W        W20196  38.620  32.401  12.826
47937W        W20197  44.908  30.160   3.250
47938W        W20198  35.930  37.581   4.131
47939W        W20199  20.024  25.846   2.740
47940W        W20200   4.291  10.598   1.176
47941W        W20201  29.907   2.381  11.077
47942W        W20202  25.292   4.659  14.072
47943W        W20203  33.096  36.805  10.454
47944W        W20204   7.843  24.206  14.262
47945W        W20205  17.613  19.303  13.494
47946W        W20206  33.031  33.396  13.097
47947W        W20207  37.853   9.785   3.660
47948W        W20208  40.281   6.415  12.860
47949W        W20209   2.152  44.131   3.651
47950W        W20210  39.866   8.979   3.600
47951W        W20211  35.537  38.272   4.201
47952W        W20212   0.335  43.990   2.371
47953W        W20213  10.202  29.151   4.606
47954W        W20214   0.260  32.844   2.817
47955W        W20215  14.260  25.600   0.409
47956W        W20216   0.994   5.691  14.936
47957W        W20217  24.113  22.273  10.675
47958W        W20218  36.977  16.685  13.272
47959W        W20219  39.480  22.092   0.895
47960W        W20220  34.814  22.801   3.319
47961W        W20221   1.768  24.200  13.526
47962W        W20222  28.506  21.875  11.110
47963W        W20223  14.676  22.805   1.304
47964W        W20224  15.655   9.806   4.926
47965W        W20225  15.375   6.627   5.134
47966W        W20226   6.263  19.201   2.726
47967W        W20227  35.978  40.907  12.373
47968W        W20228  37.363  13.053   4.141
47969W        W20229  32.582  12.632  13.578
47970W        W20230  25.133  15.739   1.874
47971W        W20231  38.863  37.315   5.000
47972W        W20232   1.915  27.204  12.071
47973W        W20233  36.857  23.198  11.004
47974W        W20234  35.659  40.522  13.565
47975W        W20235  25.098  16.253  11.200
47976W        W20236  25.196  35.440  11.538
47977W        W20237  32.922  30.133   1.744
47978W        W20238  36.356  34.502   1.442
47979W        W20239  21.249  33.141   1.724
47980W        W20240  11.090   0.841  14.325
47981W        W20241  11.716  15.766   3.134
47982W        W20242  44.761  39.692  12.365
47983W        W20243  20.076  22.020  13.414
47984W        W20244   3.942  25.561  14.957
47985W        W20245   5.394   6.832   4.079
47986W        W20246  11.441   1.767  12.406
47987W        W20247  14.263  38.311   4.102
47988W        W20248  32.113  34.897  11.065
47989W        W20249   5.710  29.550   3.137
47990W        W20250  41.029  26.149   4.704
47991W        W20251  19.072  34.254   2.045
47992W        W20252   1.461  18.837  11.563
47993W        W20253  12.371   2.177   4.030
47994W        W20254  14.722  37.123   0.907
47995W        W20255  23.022  26.751   1.793
47996W        W20256  33.174   9.309   0.449
47997W        W20257  36.090  37.269  12.128
47998W        W20258  41.523  37.185   2.322
47999W        W20259  25.744  41.976   1.656
48000W        W20260  20.809  12.789  11.511
48001W        W20261  44.967  19.569   3.664
48002W        W20262  34.682  39.627   3.596
48003W        W20263  29.048  44.550   1.833
48004W        W20264   1.319  25.739   4.381
48005W        W20265   4.240  23.775   4.691
48006W        W20266  43.055  14.756  10.686
48007W        W20267  18.779   0.697  10.369
48008W        W20268  42.231  15.404  14.845
48009W        W20269   5.636   9.497  11.212
48010W        W20270  44.909  10.706   4.787
48011W        W20271  20.749  10.388  14.421
48012W        W20272   8.346  30.298   1.800
48013W        W20273  34.365  10.713   1.922
48014W        W20274  31.351  17.245   2.290
48015W        W20275  20.820  36.876  12.026
48016W        W20276  39.099  22.220   3.724
48017W        W20277  28.929  37.665   1.404
48018W        W20278  37.525  33.930  12.982
48019W        W20279  16.190  42.828   3.266
48020W        W20280   0.241   2.303   1.714
48021W        W20281  12.337  34.916   0.761
48022W        W20282   4.347  44.797   1.345
48023W        W20283  17.982  34.034   3.214
48024W        W20284   4.223   7.430  14.347
48025W        W20285   3.061  15.553  14.045
48026W        W20286  20.115  32.443   3.180
48027W        W20287  14.693  18.343   1.820
48028W        W20288  42.354  37.340   1.742
48029W        W20289  19.983   3.716  13.129
48030W        W20290  33.120  39.541   4.070
48031W        W20291  29.033  36.425  14.781
48032W        W20292  11.089  32.121   0.083
48033W        W20293  40.935   6.922   2.905
48034W        W20294  28.897  26.347  13.001
48035W        W20295  40.462  26.090  12.819
48036W        W20296  25.822   1.761   1.285
48037W        W20297  20.833  25.256  12.943
48038W        W20298   7.344   2.748  13.912
48039W        W20299   0.024  31.625  14.299
48040W        W20300  27.403   5.258   2.897
48041W        W20301  40.318  29.522   0.666
48042W        W20302  44.971  28.190  10.614
48043W        W20303  27.648   6.369   3.158
48044W        W20304  44.261  39.956  14.456
48045W        W20305  30.940   7.304   3.849
48046W        W20306  21.746  27.192  14.475
48047W        W20307   2.643  15.200   0.627
48048W        W20308  28.331   3.393   5.033
48049W        W20309  27.849  10.783   2.789
48050W        W20310  18.625  30.676   2.859
48051W        W20311  24.678  13.873   4.594
48052W        W20312  40.112  25.962   4.400
48053W        W20313   8.865  25.623   3.217
48054W        W20314   7.377  29.623  13.776
48055W        W20315   3.806  38.345  14.083
48056W        W20316   3.623  32.628   0.433
48057W        W20317   7.060  12.577  12.157
48058W        W20318   8.742  29.340   3.681
48059W        W20319  33.092  39.139   3.168
48060W        W20320  11.347  15.910   1.392
48061W        W20321  39.351  33.044  11.675
48062W        W20322  21.962  14.252   2.094
48063W        W20323  33.409  29.933  14.821
48064W        W20324  23.626  37.270   0.734
48065W        W20325  21.074  44.449   3.123
48066W        W20326  15.673   3.161  10.513
48067W        W20327  25.706  36.681   4.121
48068W        W20328  31.076  11.920   2.728
48069W        W20329  31.515  27.917   4.370
48070W        W20330   6.042   7.292  10.819
48071W        W20331  16.772  16.375  12.421
48072W        W20332   2.298  13.335  12.367
48073W        W20333  41.637   7.959  14.066
48074W        W20334  36.312  14.727   3.759
48075W        W20335  23.792  16.843   4.279
48076W        W20336   8.398  34.846   2.399
48077W        W20337  38.954   5.621   0.876
48078W        W20338  23.698   2.235   3.176
48079W        W20339  42.243  22.384   0.041
48080W        W20340  41.988  40.311  14.539
48081W        W20341  41.461  31.571   3.861
48082W        W20342  38.916  32.125   2.367
48083W        W20343  34.031  20.169  10.638
48084W        W20344  25.528  20.037   3.857
48085W        W20345  27.950  37.038  11.569
48086W        W20346   4.081   7.350  12.575
48087W        W20347  17.919  28.010   3.649
48088W        W20348  20.349  17.828  11.123
48089W        W20349  32.420  37.550   1.266
48090W        W20350  41.820  29.582   0.995
48091W        W20351  39.058   6.136   0.679
48092W        W20352  31.135  28.261   1.455
48093W        W20353  29.835  29.188  12.959
48094W        W20354  41.889  13.770   2.803
48095W        W20355   2.983   9.915  13.455
48096W        W20356   5.396  28.053  14.534
48097W        W20357  18.581  41.663   4.142
48098W        W20358  22.487  18.722   0.882
48099W        W20359  44.116   3.704  14.797
48100W        W20360  40.848  39.371   1.039
48101W        W20361  15.715  41.922   2.370
48102W        W20362  24.482  25.432  14.281
48103W        W20363  11.412  22.077   2.813
48104W        W20364  21.821  26.232   3.652
48105W        W20365   4.193   4.246   1.729
48106W        W20366  32.110  12.629  13.047
48107W        W20367  25.248   8.898   4.881
48108W        W20368  31.608  42.027  13.539
48109W        W20369   7.212  25.410  13.919
48110W        W20370  40.063  42.013   1.479
48111W        W20371  25.668  25.137  13.513
48112W        W20372  42.792   5.737   3.145
48113W        W20373  35.036  14.732  14.756
48114W        W20374  41.899  40.821   0.799
48115W        W20375  15.083  16.265   0.912
48116W        W20376  29.708  28.745   4.084
48117W        W20377  41.828   0.854   4.514
48118W        W20378  12.845  42.475  11.302
48119W        W20379  14.579   8.359  14.341
48120W        W20380  11.194  36.921   0.402
48121W        W20381  31.626  32.139   3.370
48122W        W20382  44.235  43.383   0.442
48123W        W20383  17.950  24.871   3.214
48124W        W20384   2.049   4.404  12.565
48125W        W20385   5.192  29.354   4.636
48126W        W20386  10.239  22.149   2.016
48127W        W20387   7.876  40.433  10.810
48128W        W20388  39.448  16.588  11.522
48129W        W20389  36.765  41.767  11.972
48130W        W20390   2.018  35.621   1.792
48131W        W20391   5.198  41.297  14.443
48132W        W20392  15.351  36.882  14.610
48133W        W20393  28.193  42.892  13.943
48134W        W20394   6.448  28.179   0.596
48135W        W20395  34.503   0.534  11.629
48136W        W20396  35.251  20.712   5.743
48137W        W20397   9.634  15.082   0.796
48138W        W20398  34.927  11.806   2.055
48139W        W20399   5.630  29.248  12.824
48140W        W20400  36.011  15.183  11.129
48141W        W20401  38.563  24.717  13.031
48142W        W20402   4.746  32.680  12.459
48143W        W20403  32.700  16.629   4.173
48144W        W20404   9.591  25.538   0.444
48145W        W20405  13.231  22.225   2.672
48146W        W20406  17.757  21.011  14.272
48147W        W20407   9.489  28.600   0.925
48148W        W20408  41.885   8.613   0.296
48149W        W20409  23.263   1.400   2.719
48150W        W20410  42.833  43.523  12.122
48151W        W20411  28.493  20.496  10.551
48152W        W20412  29.164  43.753  12.911
48153W        W20413  13.101  13.916   2.732
48154W        W20414  26.198  15.760   1.738
48155W        W20415   8.421  24.197   2.244
48156W        W20416  16.237  31.772  13.461
48157W        W20417  41.876  21.950   4.197
48158W        W20418  41.895  17.032   0.504
48159W        W20419   7.179   7.432   4.236
48160W        W20420  37.132   5.809   1.272
48161W        W20421  15.187  35.632   1.856
48162W        W20422  44.819   6.970   1.286
48163W        W20423  25.716  32.481   0.475
48164W        W20424  14.036  27.367   2.859
48165W        W20425  21.753  18.069  11.260
48166W        W20426  26.446  19.050   3.498
48167W        W20427  16.184  19.037   2.369
48168W        W20428  38.540  36.570  11.718
48169W        W20429  10.404  13.082   2.843
48170W        W20430  32.218  31.932  14.815
48171W        W20431  17.681  18.254   2.235
48172W        W20432   8.718  38.020  14.475
48173W        W20433  33.353   0.513  12.499
48174W        W20434  15.358  43.922   1.827
48175W        W20435  38.924  12.021  14.542
48176W        W20436  38.244  14.193  11.949
48177W        W20437  15.372   0.304   0.525
48178W        W20438  18.189  15.765  10.537
48179W        W20439  32.731  16.215   0.515
48180W        W20440  17.387  23.351   4.621
48181W        W20441  30.868  28.686   1.219
48182W        W20442  33.055  10.701  14.239
48183W        W20443  36.908  22.508   2.607
48184W        W20444   8.405  10.467  12.127
48185W        W20445   6.662  10.349  13.925
48186W        W20446  26.678  29.411  14.910
48187W        W20447   5.911  13.037   1.881
48188W        W20448  12.425  28.192   0.553
48189W        W20449  35.947  23.255   4.565
48190W        W20450  14.564  29.616   0.329
48191W        W20451   6.727  24.437  12.385
48192W        W20452  44.236   1.289  12.889
48193W        W20453  17.879  19.564   0.628
48194W        W20454   5.051   7.229  11.614
48195W        W20455  13.954  22.616   2.408
48196W        W20456  23.869  10.637  11.092
48197W        W20457  39.367   5.210  14.015
48198W        W20458  23.877  23.079  14.359
48199W        W20459   5.945   4.728  12.620
48200W        W20460  16.903  13.181   4.927
48201W        W20461  33.153  16.778  14.943
48202W        W20462  31.594  20.034  12.325
48203W        W20463  39.307   6.756   4.042
48204W        W20464  14.711  35.007   4.384
48205W        W20465   0.944   5.064   1.934
48206W        W20466  10.781  25.598  12.903
48207W        W20467  30.531  20.320   0.825
48208W        W20468   1.401  15.164   3.738
48209W        W20469  32.035  40.300  12.397
48210W        W20470   5.396  21.219  13.314
48211W        W20471  10.311  44.235   4.279
48212W        W20472  21.295  13.033  11.949
48213W        W20473  10.196  41.829   1.763
48214W        W20474  26.968  11.957  13.027
48215W        W20475  12.750   3.259   0.398
48216W        W20476  26.430   4.988  13.578
48217W        W20477   5.051  34.424   1.388
48218W        W20478  43.732  37.467  11.468
48219W        W20479  44.507  43.960   1.348
48220W        W20480  41.906  15.042   3.144
48221W        W20481  39.347   9.793  14.266
48222W        W20482  19.314  31.954   4.152
48223W        W20483  38.323  17.116  12.041
48224W        W20484   2.905  41.490   0.905
48225W        W20485  22.581   5.133  10.679
48226W        W20486  42.278   1.153   4.541
48227W        W20487  12.629  39.233  11.928
48228W        W20488   1.177  39.011  14.048
48229W        W20489  27.055  10.140  13.056
48230W        W20490  17.163   5.674   3.354
48231W        W20491  11.261  34.489  12.931
48232W        W20492  25.931  31.392   2.937
48233W        W20493   1.440  26.098  13.605
48234W        W20494  11.726  21.214  11.976
48235W        W20495  42.969  30.417   0.934
48236W        W20496  12.802  15.295  10.283
48237W        W20497  36.967  19.370   1.842
48238W        W20498  15.772  21.070  11.095
48239W        W20499   0.448  31.945  11.732
48240W        W20500  38.426  40.996  14.455
48241W        W20501  32.114   5.644  12.115
48242W        W20502  13.885  15.612  12.968
48243W        W20503  36.896  30.064   3.200
48244W        W20504  18.108  35.922   4.916
48245W        W20505  28.118  30.381   4.135
48246W        W20506  20.690  17.180   0.993
48247W        W20507   2.281   8.220   0.317
48248W        W20508  20.465  30.884   2.875
48249W        W20509  26.064  39.882  13.550
48250W        W20510  43.585  17.128  13.367
48251W        W20511  19.494  15.159  14.205
48252W        W20512  29.480  17.733   1.033
48253W        W20513  39.032  31.656   1.177
48254W        W20514   0.850   0.729  12.642
48255W        W20515  41.468  38.357  14.730
48256W        W20516  14.176  42.770   2.208
48257W        W20517  12.200  42.348  11.502
48258W        W20518  40.851  12.443   1.374
48259W        W20519   0.237  33.639   0.363
48260W        W20520  11.530   3.403  14.378
48261W        W20521  19.913   3.195   4.735
48262W        W20522  19.726   8.079   3.258
48263W        W20523  41.366   6.493  13.166
48264W        W20524  18.033  35.815   3.197
48265W        W20525  22.721  12.314   2.419
48266W        W20526  21.478  44.804   0.079
48267W        W20527  30.723  22.786  11.960
48268W        W20528   4.150  13.645  12.682
48269W        W20529   6.881  33.282   4.817
48270W        W20530   4.468  32.991   3.628
48271W        W20531  17.811  24.584  11.654
48272W        W20532  15.633  40.400  14.025
48273W        W20533  12.312  25.487  14.537
48274W        W20534  44.900  33.240   4.069
48275W        W20535  37.614  15.155  14.301
48276W        W20536  24.594  18.424  13.376
48277W        W20537  32.582  27.463   3.696
48278W        W20538   4.507   5.965  14.425
48279W        W20539   6.415  44.181   5.027
48280W        W20540  27.445  42.343  13.188
48281W        W20541  23.002  10.870   3.629
48282W        W20542  16.484  33.997   3.900
48283W        W20543   6.318   0.103   0.413
48284W        W20544  44.876  13.345   4.565
48285W        W20545  16.431   3.869   2.700
48286W        W20546  44.535   4.653   2.905
48287W        W20547  11.923  36.607  12.432
48288W        W20548  29.355   4.371  11.491
48289W        W20549  12.652  38.969   1.279
48290W        W20550  24.712   5.763   4.874
48291W        W20551   4.235  31.430   3.661
48292W        W20552   2.422  15.003   4.642
48293W        W20553  41.431   6.208   0.990
48294W        W20554  21.403  28.363   1.164
48295W        W20555  13.643   1.186  11.710
48296W        W20556   0.863  42.533  12.479
48297W        W20557  30.804  12.269  14.888
48298W        W20558  18.973  34.056   1.078
48299W        W20559  25.911  16.212  12.590
48300W        W20560  25.940  40.553  12.787
48301W        W20561   4.392  25.463  13.653
48302W        W20562  36.114  43.673   1.352
48303W        W20563  27.972  33.900   2.885
48304W        W20564  35.509   8.671   1.145
48305W        W20565  44.951   6.366   0.342
48306W        W20566   6.881  44.068   3.812
48307W        W20567  37.921   1.262   4.659
48308W        W20568   3.705   6.193  11.490
48309W        W20569  10.417  18.936   0.805
48310W        W20570  28.001  32.347  11.348
48311W        W20571   2.234  43.277   4.303
48312W        W20572  30.027  37.103   3.797
48313W        W20573  27.560  18.840   2.765
48314W        W20574  39.400  34.681  10.634
48315W        W20575  44.007  21.588   2.821
48316W        W20576  27.328  44.365  11.943
48317W        W20577  39.398  25.195  13.251
48318W        W20578  15.317  37.531  12.596
48319W        W20579  16.722  13.670  11.763
48320W        W20580  33.835  41.058  13.242
48321W        W20581  29.184  20.093   1.996
48322W        W20582  39.238   1.095   0.298
48323W        W20583  14.816  14.383   2.873
48324W        W20584  29.111   4.297   3.665
48325W        W20585  34.565  41.727   2.323
48326W        W20586   4.032  42.875  11.622
48327W        W20587   6.258  13.415   4.073
48328W        W20588  37.964  15.142   0.508
48329W        W20589  44.969  17.402   1.267
48330W        W20590  23.769  18.095   0.785
48331W        W20591  15.171  13.365   1.887
48332W        W20592  16.229   4.926  12.409
48333W        W20593  42.220   6.281  13.335
48334W        W20594  28.063   8.460  13.483
48335W        W20595  23.123  29.533   4.614
48336W        W20596   8.776  22.154  12.434
48337W        W20597  35.331   2.947   2.735
48338W        W20598  33.605   0.479   1.708
48339W        W20599  37.052  22.015   2.704
48340W        W20600  37.972  36.024  11.531
48341W        W20601  17.117  10.533  14.053
48342W        W20602  21.123   8.341   0.022
48343W        W20603  25.626  37.418  10.052
48344W        W20604  18.771  39.294   2.227
48345W        W20605   7.619   4.452   2.600
48346W        W20606  16.894  22.807   2.941
48347W        W20607  40.963   8.172   2.507
48348W        W20608   6.236  25.942   1.838
48349W        W20609  37.298  36.594  14.989
48350W        W20610  24.023  27.611  12.619
48351W        W20611  42.746   1.994  13.496
48352W        W20612  43.743  32.015  10.684
48353W        W20613  39.327  40.841   4.172
48354W        W20614  44.862  20.201   3.920
48355W        W20615   5.947  44.445  10.759
48356W        W20616  16.326  42.873   0.282
48357W        W20617  34.804  13.281  12.814
48358W        W20618   3.371   1.790   4.148
48359W        W20619  24.239  17.633   4.208
48360W        W20620  34.998  25.948   1.201
48361W        W20621  10.398   7.924  14.484
48362W        W20622  27.048  40.207   3.641
48363W        W20623  14.413  27.585  11.513
48364W        W20624   2.400  29.138  13.953
48365W        W20625  15.589  22.242   0.244
48366W        W20626  42.034  29.932  13.501
48367W        W20627  14.833  14.088  13.457
48368W        W20628  38.607  19.800  13.798
48369W        W20629  44.483   2.839   0.690
48370W        W20630  34.396   5.937  11.753
48371W        W20631  35.563   2.479  12.574
48372W        W20632   8.822  31.479   1.275
48373W        W20633  33.182  42.461   2.345
48374W        W20634   9.632  23.424   2.503
48375W        W20635  21.477  33.174   0.799
48376W        W20636  40.698  14.654  12.155
48377W        W20637  15.755   9.676  14.394
48378W        W20638  18.524  19.108   4.913
48379W        W20639  36.557  14.044   0.034
48380W        W20640  18.753  38.827  14.843
48381W        W20641  29.470   6.999   2.204
48382W        W20642   4.347  30.071   2.316
48383W        W20643  35.789  30.416  11.269
48384W        W20644  38.054  13.268  14.291
48385W        W20645  22.796  10.907   1.114
48386W        W20646  28.157  32.409   0.725
48387W        W20647  34.820  30.093  13.860
48388W        W20648  12.252  27.378  11.524
48389W        W20649   5.324  29.840   2.906
48390W        W20650  12.637   1.758   1.692
48391W        W20651  38.171  11.906  14.708
48392W        W20652  17.508  41.674   3.548
48393W        W20653  22.185  27.990  10.219
48394W        W20654   2.264  21.807  11.480
48395W        W20655  25.028   7.229   2.788
48396W        W20656   5.301  30.642   1.854
48397W        W20657   8.894  38.799  12.116
48398W        W20658  43.385  25.967  12.597
48399W        W20659   0.700  30.438   2.598
48400W        W20660  41.828   7.857   0.997
48401W        W20661  42.322  13.640   1.301
48402W        W20662  38.726  18.674  14.802
48403W        W20663  36.262   1.489   0.427
48404W        W20664  18.509  19.602   5.197
48405W        W20665  40.501  19.828   1.012
48406W        W20666  26.632  28.469   1.119
48407W        W20667  30.056  30.971   4.706
48408W        W20668  18.142  10.848  10.525
48409W        W20669  27.584  27.177  12.323
48410W        W20670  25.090  26.093  13.802
48411W        W20671  39.838  11.610   4.296
48412W        W20672  28.902   7.172  11.488
48413W        W20673  25.271  42.056   1.436
48414W        W20674  19.435  15.669   1.852
48415W        W20675  25.065  24.196   4.102
48416W        W20676  13.048   7.710  14.845
48417W        W20677  43.715  42.560  12.860
48418W        W20678  39.217   9.147  11.041
48419W        W20679   4.764  27.884   1.915
48420W        W20680  23.126  28.747  14.084
48421W        W20681  23.891  35.927   2.809
48422W        W20682  15.753  25.558   3.376
48423W        W20683  36.300  21.677  10.599
48424W        W20684  18.753  13.073   2.699
48425W        W20685  17.081  44.360  13.352
48426W        W20686  13.997  41.635  14.493
48427W        W20687  22.686   6.823  11.087
48428W        W20688   9.381  10.836  11.432
48429W        W20689   4.682   2.248   4.122
48430W        W20690  40.917  16.998   4.349
48431W        W20691  36.643  10.786  11.481
48432W        W20692  17.141  40.388  12.475
48433W        W20693   7.763  25.886  12.987
48434W        W20694   1.748  40.655   1.606
48435W        W20695  25.554   2.230  12.880
48436W        W20696  39.799  32.474  11.607
48437W        W20697   9.445  19.730   4.627
48438W        W20698   0.475  30.146   1.234
48439W        W20699  10.764   8.413  14.761
48440W        W20700  38.046   7.447   1.248
48441W        W20701  35.348  25.661   2.418
48442W        W20702  32.618  36.356   0.449
48443W        W20703   2.797  10.625   3.714
48444W        W20704  29.152  29.819  13.474
48445W        W20705  43.494  27.830   0.801
48446W        W20706  15.882   9.244  13.516
48447W        W20707   0.840  32.902  14.567
48448W        W20708  14.626  38.559  12.875
48449W        W20709  29.008  38.258  11.057
48450W        W20710   3.765  43.316   1.515
48451W        W20711  35.218  35.885  10.772
48452W        W20712   7.303  34.438   4.402
48453W        W20713  29.010  10.671  11.587
48454W        W20714  27.190   1.334   0.330
48455W        W20715   8.603  22.540   1.488
48456W        W20716  27.204  13.146  12.851
48457W        W20717  34.013  41.693  10.934
48458W        W20718  20.477  14.566   4.180
48459W        W20719  31.711   7.311   2.444
48460W        W20720  23.156  15.666  10.637
48461W        W20721  13.078  33.931  13.895
48462W        W20722  37.482  32.160   4.617
48463W        W20723  16.288  10.750  12.479
48464W        W20724  26.247  16.124   4.755
48465W        W20725  20.111  16.372   3.060
48466W        W20726  15.861   8.673  11.045
48467W        W20727  30.830  12.702   3.154
48468W        W20728  18.751  26.013   2.264
48469W        W20729  37.228  12.306  14.462
48470W        W20730  33.315  18.629  13.372
48471W        W20731  13.069  34.846   1.734
48472W        W20732  14.819   7.226  12.347
48473W        W20733  38.513  39.342   1.539
48474W        W20734  32.271  14.119  12.979
48475W        W20735  14.434  23.038  13.388
48476W        W20736  26.542  16.790   9.991
48477W        W20737  39.364  35.549  13.507
48478W        W20738  32.165   2.661   3.342
48479W        W20739  23.256  35.620   2.499
48480W        W20740  31.939  31.921   2.082
48481W        W20741  27.200  20.749  11.030
48482W        W20742  12.635  19.023   0.372
48483W        W20743   8.254   0.539  12.118
48484W        W20744  40.899   8.447   4.097
48485W        W20745   0.310  36.761  11.119
48486W        W20746  23.637   4.302  14.035
48487W        W20747  20.623  14.274   1.111
48488W        W20748  26.511   8.672  14.366
48489W        W20749   1.846  39.986   3.199
48490W        W20750  13.520  11.662  14.067
48491W        W20751  34.959   4.293   1.794
48492W        W20752  44.605  40.926  13.938
48493W        W20753  42.396  40.565   4.515
48494W        W20754   4.681   2.078   0.710
48495W        W20755  44.535  18.288   2.163
48496W        W20756   6.922  21.664  12.693
48497W        W20757  42.035  13.275  11.651
48498W        W20758  26.184  15.310  13.389
48499W        W20759   6.177  34.142   1.787
48500W        W20760  11.965  11.653  12.861
48501W        W20761   4.920  30.340  12.347
48502W        W20762  43.711  23.168   2.744
48503W        W20763  31.121   8.795  12.925
48504W        W20764  20.114   8.352  11.529
48505W        W20765  10.672  32.576   3.095
48506W        W20766  12.151  42.235   2.338
48507W        W20767  37.475   6.974  10.624
48508W        W20768  26.610  10.665   0.481
48509W        W20769   5.326  36.196  13.924
48510W        W20770  24.480  36.626   4.571
48511W        W20771   2.316  13.742   0.017
48512W        W20772  30.155   2.293  11.523
48513W        W20773   3.911  30.077  12.433
48514W        W20774  28.063   0.838   4.568
48515W        W20775  44.392  26.699   0.505
48516W        W20776   4.537  37.348  12.925
48517W        W20777  43.427  19.559  13.592
48518W        W20778  40.556  43.899  14.929
48519W        W20779  41.361   5.406  14.849
48520W        W20780  20.536  37.650   2.766
48521W        W20781  34.077   7.162  13.618
48522W        W20782  40.721  20.549  12.005
48523W        W20783   8.177  39.208   1.838
48524W        W20784  36.025   9.787  11.909
48525W        W20785  26.554  25.668  14.950
48526W        W20786   5.423  43.467   2.719
48527W        W20787  11.677  43.116  11.596
48528W        W20788  16.723  19.166  10.397
48529W        W20789  20.481   9.652   2.778
48530W        W20790  44.524  39.353  10.819
48531W        W20791  44.656  12.701  14.868
48532W        W20792  38.060  24.298  14.925
48533W        W20793  43.804  36.801  12.538
48534W        W20794  16.916   2.268   2.223
48535W        W20795   7.888   2.391  14.452
48536W        W20796  27.417  19.912   2.671
48537W        W20797   7.714  13.141  14.527
48538W        W20798   0.348   6.918  11.751
48539W        W20799   9.865  20.170   3.709
48540W        W20800  24.557  30.337   1.994
48541W        W20801  31.397  16.790   3.698
48542W        W20802  34.958  44.229  14.845
48543W        W20803  38.437  41.439  11.448
48544W        W20804  36.047  13.798   1.334
48545W        W20805  27.118   9.092  13.245
48546W        W20806  10.562  18.678   4.448
48547W        W20807  42.424  25.977  14.892
48548W        W20808  23.451  26.176   0.155
48549W        W20809   2.336   4.644  13.171
48550W        W20810  18.522  40.809   0.304
48551W        W20811  38.729  13.173   1.318
48552W        W20812  18.660  37.265   1.034
48553W        W20813  17.694   6.679   4.722
48554W        W20814   1.183   0.775   4.085
48555W        W20815   5.339  27.894  10.654
48556W        W20816  35.392  11.109   1.855
48557W        W20817  34.814  36.421   2.623
48558W        W20818  22.573   2.702   0.886
48559W        W20819  39.588  18.840  10.762
48560W        W20820  21.210  25.402   0.962
48561W        W20821   2.426  14.244  11.946
48562W        W20822   9.627  14.888  13.602
48563W        W20823  19.947  42.923   0.226
48564W        W20824  26.128  42.730  10.139
48565W        W20825   0.254  25.575   3.000
48566W        W20826  35.613  21.205   5.485
48567W        W20827  23.532   1.670  13.765
48568W        W20828  10.324  29.923   3.747
48569W        W20829  25.611   0.269   2.314
48570W        W20830  33.943  29.085   3.846
48571W        W20831  33.912  40.783   4.640
48572W        W20832  42.485  35.088  12.825
48573W        W20833  41.775  19.877   1.364
48574W        W20834  33.050  12.378  13.360
48575W        W20835  21.705  10.008   2.338
48576W        W20836   5.625  17.462  14.061
48577W        W20837  20.523  38.324  14.397
48578W        W20838  22.603   1.725  13.966
48579W        W20839   8.037  40.337  12.628
48580W        W20840  25.763  42.729  12.110
48581W        W20841  11.702  20.996   3.409
48582W        W20842  22.250  13.559  12.446
48583W        W20843  27.848   5.484  12.164
48584W        W20844  42.194  27.635   1.339
48585W        W20845   1.987   6.354   2.814
48586W        W20846  42.254  31.655   2.214
48587W        W20847  28.429  16.382   4.475
48588W        W20848  35.026  20.972  12.475
48589W        W20849   6.313  40.889   0.379
48590W        W20850  36.113  18.368  10.239
48591W        W20851  17.133  40.796   1.540
48592W        W20852   4.346  34.346   2.276
48593W        W20853  36.927   1.003   4.905
48594W        W20854  11.960  22.595   0.260
48595W        W20855  40.993   7.328   1.780
48596W        W20856  26.593  32.599   4.452
48597W        W20857  37.882  10.661  13.296
48598W        W20858   5.935   3.753  13.827
48599W        W20859  14.668  24.997   4.255
48600W        W20860   1.539  44.470  12.476
48601W        W20861  29.584  26.340   3.272
48602W        W20862  21.288  10.457  11.832
48603W        W20863  21.461  14.803   0.832
48604W        W20864  18.526  16.571  11.628
48605W        W20865  40.256  21.727  11.604
48606W        W20866  32.364   5.244  12.321
48607W        W20867  35.642  16.703   2.760
48608W        W20868  32.553  13.174   4.172
48609W        W20869  44.154   1.584   3.242
48610W        W20870  37.973  25.559  13.418
48611W        W20871  37.790   4.426   3.811
48612W        W20872  31.391   1.505  12.932
48613W        W20873   3.045  40.738  11.451
48614W        W20874  11.246   4.342   4.062
48615W        W20875  37.358  25.920  13.408
48616W        W20876  33.386   7.184  14.510
48617W        W20877  22.943  41.914   3.844
48618W        W20878  43.872  33.431  11.845
48619W        W20879  33.989  33.679  13.556
48620W        W20880   7.701  40.827  10.514
48621W        W20881  23.624  28.788   4.531
48622W        W20882  36.081  44.501   5.034
48623W        W20883   2.123  44.738   4.371
48624W        W20884  17.763  19.966  10.733
48625W        W20885  43.894  20.183  12.516
48626W        W20886   5.763  21.062   2.786
48627W        W20887  41.214   9.440  13.401
48628W        W20888  36.210  14.160  12.844
48629W        W20889  28.151  38.417   2.188
48630W        W20890   2.677  42.249  12.373
48631W        W20891  36.325   4.222   0.746
48632W        W20892  16.013  16.854  13.162
48633W        W20893  21.001  14.955   4.966
48634W        W20894  18.198   9.723   4.936
48635W        W20895  18.442  32.429  14.951
48636W        W20896  19.013  16.771   3.789
48637W        W20897  12.639  32.906   2.301
48638W        W20898  10.165  41.001   2.112
48639W        W20899   0.684  27.698   4.263
48640W        W20900  33.654  21.973   2.762
48641W        W20901  36.044  36.823   4.603
48642W        W20902  44.737  10.436   2.650
48643W        W20903   8.720   3.193   1.310
48644W        W20904   4.814  35.156  12.827
48645W        W20905  39.555  31.965   1.627
48646W        W20906  24.253  15.994  11.160
48647W        W20907  37.778  22.121  10.959
48648W        W20908  13.561  15.034   5.029
48649W        W20909  13.074   4.282  10.675
48650W        W20910  28.149   3.742   4.679
48651W        W20911   4.696  13.243   0.059
48652W        W20912   5.211  29.587  14.309
48653W        W20913  29.985  38.809   4.793
48654W        W20914  13.742  20.495   4.786
48655W        W20915  41.008  36.486  14.120
48656W        W20916  44.598  23.938   1.822
48657W        W20917  32.005  40.900   0.950
48658W        W20918  11.143  13.254   3.242
48659W        W20919  10.653  12.749  11.520
48660W        W20920  19.632  13.287  13.798
48661W        W20921   4.165  10.296   2.456
48662W        W20922  27.639  37.975   3.384
48663W        W20923  35.064  28.410  10.658
48664W        W20924   2.037  21.689  14.300
48665W        W20925  34.876  22.070   3.777
48666W        W20926  18.343  19.526  11.213
48667W        W20927  27.978  32.183  13.532
48668W        W20928  10.673   1.205   3.249
48669W        W20929   3.775  10.763  14.515
48670W        W20930   4.470  22.603   0.570
48671W        W20931  22.622  36.380   1.161
48672W        W20932  19.780   3.974   1.178
48673W        W20933   9.758  38.130   2.277
48674W        W20934   1.362  18.985   2.989
48675W        W20935  14.657  22.009  10.625
48676W        W20936   6.231  34.834   0.838
48677W        W20937  12.195  29.603   4.147
48678W        W20938  44.992  42.306   2.063
48679W        W20939  32.391   1.450   3.766
48680W        W20940  32.932  18.747  11.505
48681W        W20941  28.460   3.138   3.824
48682W        W20942  27.088  17.070   0.300
48683W        W20943  16.568  34.688   0.866
48684W        W20944  12.254  10.122  14.926
48685W        W20945  36.991  33.512   3.562
48686W        W20946  23.152  32.139  14.510
48687W        W20947   5.805  16.183  14.066
48688W        W20948   6.718  32.507  13.429
48689W        W20949  28.694  40.424  14.679
48690W        W20950  28.092  25.011  11.599
48691W        W20951  29.200  25.797   1.412
48692W        W20952   1.846  31.202   3.196
48693W        W20953   7.786  17.988   4.642
48694W        W20954  39.465  33.335  13.016
48695W        W20955  25.901   8.600   2.818
48696W        W20956  41.234  20.089   1.961
48697W        W20957  22.726   6.258   2.379
48698W        W20958   4.881  25.137   4.419
48699W        W20959   1.909  35.050   1.053
48700W        W20960  28.733  34.941   3.121
48701W        W20961  38.517  27.937  14.884
48702W        W20962  24.647  15.515   1.881
48703W        W20963  18.659  28.514  10.459
48704W        W20964  32.176  39.407   0.134
48705W        W20965  14.210  17.468   5.106
48706W        W20966  34.817  29.057  10.043
48707W        W20967  20.689   0.800   3.219
48708W        W20968  17.495  39.909   4.594
48709W        W20969   2.212  10.359   1.324
48710W        W20970  34.357  19.296   3.208
48711W        W20971  32.006  28.958  12.958
48712W        W20972   3.113   5.269  13.445
48713W        W20973   9.748  28.877   4.584
48714W        W20974  12.376  27.106  11.076
48715W        W20975  15.019  26.003   1.114
48716W        W20976  26.286  26.644  10.219
48717W        W20977   7.715  35.065  10.585
48718W        W20978   8.186  22.384   0.755
48719W        W20979  39.742  10.527   5.254
48720W        W20980  27.387   3.181   1.718
48721W        W20981  44.253   4.508  13.798
48722W        W20982   3.143  43.002  10.855
48723W        W20983  10.911  22.452  14.438
48724W        W20984  13.266   0.909   1.290
48725W        W20985  28.429  22.331   4.629
48726W        W20986  19.044  34.123  10.981
48727W        W20987  38.482   1.754   4.392
48728W        W20988  32.017  36.005  13.754
48729W        W20989  44.743   2.740  12.034
48730W        W20990  37.389  12.933   2.261
48731W        W20991  24.532  25.183  12.924
48732W        W20992  25.199  37.515   3.649
48733W        W20993  32.851  27.428   3.176
48734W        W20994  34.668  31.005   3.305
48735W        W20995  10.606  44.077   2.536
48736W        W20996  18.945  21.701   0.418
48737W        W20997   8.773   9.796  11.583
48738W        W20998  18.004  33.718  10.456
48739W        W20999  37.364   9.937   1.064
48740W        W21000  19.806   6.210   3.262
48741W        W21001   3.124  15.323   0.778
48742W        W21002   6.812   3.982  10.783
48743W        W21003  21.789  16.459   0.035
48744W        W21004  30.708  44.498   2.376
48745W        W21005  37.428  11.289  13.408
48746W        W21006  21.151   7.717  10.674
48747W        W21007   7.735  14.127  13.453
48748W        W21008  12.097  13.574   0.701
48749W        W21009  44.893  11.021  10.922
48750W        W21010  23.133  39.560   3.212
48751W        W21011  23.487  34.575  11.938
48752W        W21012  39.796  16.262   1.931
48753W        W21013  18.596  32.754  12.376
48754W        W21014  44.966   3.717  10.775
48755W        W21015   8.423  19.594   3.173
48756W        W21016  13.633  44.009  14.765
48757W        W21017   0.222  14.185  12.032
48758W        W21018   9.309  13.833  12.386
48759W        W21019  36.674  14.373   2.717
48760W        W21020   5.017  28.705  14.399
48761W        W21021  43.759   2.479   0.473
48762W        W21022  13.170   8.183  12.504
48763W        W21023   4.334  37.452   4.168
48764W        W21024  23.360   1.787  14.245
48765W        W21025  34.310  35.980  12.880
48766W        W21026  28.464   4.063  12.761
48767W        W21027  41.534  37.772  14.003
48768W        W21028  10.585   5.257   3.226
48769W        W21029  38.273  24.177   3.296
48770W        W21030  14.048  22.408  14.543
48771W        W21031  18.261  40.489   4.942
48772W        W21032   7.279   1.926   1.142
48773W        W21033  18.909  43.918   0.051
48774W        W21034   8.265  28.090  12.700
48775W        W21035  13.802   5.807   1.886
48776W        W21036  35.585   7.425   3.407
48777W        W21037  23.106  38.936   0.174
48778W        W21038  11.742  40.519  10.704
48779W        W21039  12.901  37.000  12.438
48780W        W21040  22.632  16.985   4.214
48781W        W21041   8.980  23.205   1.941
48782W        W21042  41.377  23.110  10.776
48783W        W21043   4.427  41.557  14.992
48784W        W21044  11.716  43.050   0.232
48785W        W21045  22.271  11.758  10.534
48786W        W21046  13.663   6.622  13.651
48787W        W21047   8.336   3.794  14.776
48788W        W21048  44.893  32.503  14.374
48789W        W21049  27.752  42.438   2.239
48790W        W21050  22.077  33.460  12.283
48791W        W21051   5.270   9.408  14.056
48792W        W21052  14.560  41.369  13.051
48793W        W21053  25.137  13.970  11.113
48794W        W21054  28.286  13.621  13.960
48795W        W21055   3.265  14.066  12.050
48796W        W21056  31.423   9.757   3.951
48797W        W21057  19.043  30.166  10.987
48798W        W21058  12.543  22.170  14.237
48799W        W21059  10.080  12.613   2.755
48800W        W21060  41.371  23.254   1.397
48801W        W21061  43.695   7.167   3.639
48802W        W21062  16.964   5.084  11.041
48803W        W21063  19.126  34.142  13.316
48804W        W21064   5.945  10.747   4.833
48805W        W21065  41.834  18.795  12.058
48806W        W21066  26.867  23.025   4.646
48807W        W21067  21.098   6.618   3.667
48808W        W21068  14.566  43.501   0.741
48809W        W21069   6.063  38.202   0.321
48810W        W21070  36.052  41.540   4.598
48811W        W21071  37.820  23.493  11.094
48812W        W21072  31.594  39.596   0.442
48813W        W21073   6.477  24.378   0.391
48814W        W21074  36.128   4.687   2.889
48815W        W21075   0.803  36.182   0.343
48816W        W21076  18.231  34.318   0.514
48817W        W21077  39.605  28.590  14.808
48818W        W21078  20.649   1.667  13.407
48819W        W21079   4.566  26.695   4.153
48820W        W21080  39.953  26.963   1.833
48821W        W21081  26.606  25.485  12.000
48822W        W21082   2.657  24.484  14.972
48823W        W21083  26.571  18.644  10.723
48824W        W21084  42.002  35.426  14.023
48825W        W21085  19.664   1.020  11.263
48826W        W21086  14.299  39.849   0.390
48827W        W21087  19.561   1.884  14.426
48828W        W21088   2.856   7.805   3.799
48829W        W21089  27.452  32.614  12.014
48830W        W21090  13.166   3.922   2.044
48831W        W21091  44.591  24.046  11.940
48832W        W21092  23.438  37.528  12.907
48833W        W21093  41.146  13.858  10.603
48834W        W21094  30.126  38.407  13.016
48835W        W21095  36.301  43.760  13.886
48836W        W21096  28.475  13.246   4.174
48837W        W21097  40.293   7.478   2.420
48838W        W21098  13.315  26.543  10.236
48839W        W21099   9.954   6.382  12.044
48840W        W21100  31.691   3.264  13.813
48841W        W21101  19.068  15.200   2.921
48842W        W21102  23.691  25.241   0.988
48843W        W21103  43.350  37.338  10.567
48844W        W21104  10.324   2.206  13.328
48845W        W21105  36.995  25.157   0.838
48846W        W21106  35.902  28.851   2.006
48847W        W21107  25.926  24.507  12.512
48848W        W21108  21.964  10.856  14.826
48849W        W21109  17.203  36.634  10.695
48850W        W21110   0.896  40.444   3.978
48851W        W21111  35.334  20.472   5.270
48852W        W21112  21.301  34.948  13.263
48853W        W21113  41.036  26.647   3.105
48854W        W21114   1.394  21.775   0.326
48855W        W21115  21.208  39.799   0.817
48856W        W21116  44.222  20.715   1.435
48857W        W21117  29.615  17.488  12.072
48858W        W21118  16.514  37.912  13.307
48859W        W21119  34.489  14.752   4.598
48860W        W21120  14.529  24.103  12.005
48861W        W21121  15.342  39.013   4.605
48862W        W21122  16.290  35.583  13.127
48863W        W21123  17.060  25.613   4.075
48864W        W21124  16.783  22.649  12.460
48865W        W21125  33.471   7.307   2.790
48866W        W21126  38.679  11.170   1.873
48867W        W21127  19.268  38.542   1.685
48868W        W21128  28.128  26.110  10.894
48869W        W21129  35.025  36.122  14.256
48870W        W21130  21.614   1.354  13.405
48871W        W21131  43.240   5.324  14.833
48872W        W21132   8.269  13.177   0.844
48873W        W21133  16.780   4.786   3.714
48874W        W21134   4.857  29.448  10.603
48875W        W21135  26.519  29.027  14.569
48876W        W21136   6.361  40.790  12.826
48877W        W21137  10.775  10.391   2.230
48878W        W21138  30.737  25.473  14.831
48879W        W21139   6.219  43.941   2.796
48880W        W21140  31.108  26.519   2.428
48881W        W21141  27.566  32.432   2.185
48882W        W21142  16.364  44.185   3.501
48883W        W21143  11.672  34.409   2.171
48884W        W21144  10.234   6.277  14.784
48885W        W21145  42.012  33.874  11.090
48886W        W21146  23.525   4.789  14.364
48887W        W21147   0.619  19.913  11.077
48888W        W21148   7.442  18.339  12.463
48889W        W21149  21.531  17.971   2.646
48890W        W21150  40.913  32.989  11.028
48891W        W21151   2.242  13.574   2.395
48892W        W21152  33.078   6.695   2.819
48893W        W21153  10.212  32.017   1.587
48894W        W21154  37.985   0.854   1.907
48895W        W21155  22.415   3.249  11.161
48896W        W21156   9.272  13.557   4.867
48897W        W21157  22.251  15.677   2.704
48898W        W21158  17.585  31.575  12.529
48899W        W21159  34.899  28.021   2.632
48900W        W21160   4.230  23.796   1.333
48901W        W21161  28.741  13.146   1.579
48902W        W21162  18.261  31.580   2.297
48903W        W21163  38.024  23.753  14.885
48904W        W21164  38.326   1.734   1.847
48905W        W21165  24.514  29.919   0.826
48906W        W21166  42.282  15.691  12.020
48907W        W21167  27.928  23.456  14.098
48908W        W21168  12.036  28.342   5.433
48909W        W21169  10.259  36.026  14.298
48910W        W21170  14.179  29.664  13.833
48911W        W21171   1.521  31.547   2.525
48912W        W21172   5.679   1.854  10.887
48913W        W21173  29.933  22.269   2.152
48914W        W21174  37.816  37.488   4.159
48915W        W21175  42.218  23.684   1.237
48916W        W21176   7.195  31.052  10.936
48917W        W21177  20.500  16.355  12.539
48918W        W21178  13.438  19.720   0.832
48919W        W21179  11.140  21.559  14.026
48920W        W21180  27.976  14.333  14.791
48921W        W21181  26.892  43.398  11.706
48922W        W21182  17.107  34.846  13.245
48923W        W21183  10.940  37.240   5.047
48924W        W21184  12.576  16.561   1.821
48925W        W21185  30.723   1.772   4.136
48926W        W21186  14.658   2.674   1.212
48927W        W21187  38.398  23.909   1.667
48928W        W21188  34.935  24.210   2.243
48929W        W21189  40.972  19.635   0.418
48930W        W21190  33.279  35.338  10.811
48931W        W21191  15.631  12.555  11.178
48932W        W21192   3.422  33.338   4.650
48933W        W21193  27.535  43.348   1.180
48934W        W21194  11.649  20.744  10.339
48935W        W21195  31.171   3.639  10.521
48936W        W21196  17.739  29.643   4.697
48937W        W21197  40.292  31.544  12.497
48938W        W21198   4.289  10.085  13.787
48939W        W21199  10.817  41.405   3.403
48940W        W21200   0.152  34.185  14.495
48941W        W21201  17.113   4.686  14.827
48942W        W21202  10.238  32.451   5.257
48943W        W21203  13.319  44.401   4.199
48944W        W21204  12.270  23.375   2.649
48945W        W21205  15.319  37.798  14.854
48946W        W21206   8.871   1.650   2.321
48947W        W21207  31.012  41.006   1.953
48948W        W21208  21.057  19.708  13.885
48949W        W21209  22.661  24.180   4.220
48950W        W21210  33.342  32.582  14.844
48951W        W21211   3.704  30.673  11.541
48952W        W21212   4.720   2.435  14.002
48953W        W21213   2.659  25.629  13.779
48954W        W21214  42.395   2.464   4.208
48955W        W21215  19.058  22.019  13.817
48956W        W21216  15.647  27.117   2.328
48957W        W21217  13.123  38.892   5.013
48958W        W21218  29.947  14.664  10.444
48959W        W21219  41.935  34.849  12.010
48960W        W21220   2.544   0.653   0.150
48961W        W21221   1.991   9.683   4.288
48962W        W21222  33.305  21.603  14.043
48963W        W21223  19.493   3.807  14.368
48964W        W21224   5.785  33.549  10.959
48965W        W21225   3.500  33.472   2.774
48966W        W21226   7.173   5.956  11.072
48967W        W21227  24.539  19.489   0.371
48968W        W21228  39.367   1.191   1.695
48969W        W21229  21.451   6.238   1.883
48970W        W21230   7.931  29.025  12.227
48971W        W21231  39.000   4.883   3.726
48972W        W21232   7.898  33.359   4.122
48973W        W21233  43.862   3.563   1.578
48974W        W21234  10.703  12.264  13.070
48975W        W21235  41.721  15.604  12.023
48976W        W21236  32.124   3.272   1.730
48977W        W21237  37.873  34.030   4.591
48978W        W21238  19.574  15.212   1.654
48979W        W21239  36.498   5.327  12.194
48980W        W21240  38.976  17.208   4.149
48981W        W21241  20.425  36.544  11.931
48982W        W21242  20.870   2.971   4.633
48983W        W21243  16.553  37.321   2.350
48984W        W21244  43.123  35.061   4.079
48985W        W21245  11.712  20.538   2.901
48986W        W21246  37.482   4.424   3.089
48987W        W21247  14.157  20.524  14.643
48988W        W21248  36.425  44.010   1.620
48989W        W21249  12.125  26.596  10.424
48990W        W21250  32.694  31.681   0.772
48991W        W21251  11.787  39.592   2.376
48992W        W21252   3.891  12.430   4.554
48993W        W21253  14.662  14.328  13.888
48994W        W21254   1.835   0.275  12.120
48995W        W21255  14.239  25.076  14.634
48996W        W21256  43.276  18.231   3.624
48997W        W21257   0.849  35.916  14.892
48998W        W21258  23.598   5.330  13.866
48999W        W21259  42.816  14.548   2.167
49000W        W21260  29.419  22.751  14.801
49001W        W21261  15.813  44.095  11.471
49002W        W21262  12.539  13.575  11.116
49003W        W21263  42.222  28.851   5.124
49004W        W21264  35.825  40.092   0.327
49005W        W21265  30.141  19.311  14.403
49006W        W21266  34.879  33.089   1.420
49007W        W21267  14.868  24.732  11.170
49008W        W21268  33.889  28.158  11.542
49009W        W21269   7.157  30.071   0.782
49010W        W21270  13.887  33.338  14.782
49011W        W21271  11.681   1.651  14.969
49012W        W21272  27.068   1.542  11.128
49013W        W21273  41.011   9.557   4.816
49014W        W21274   0.366  30.034   3.099
49015W        W21275  34.305   5.757   4.070
49016W        W21276  20.952  27.729   2.696
49017W        W21277  11.661   6.997  14.381
49018W        W21278  40.315  41.272  10.321
49019W        W21279  10.722   6.175  10.538
49020W        W21280  31.995  11.473   0.472
49021W        W21281  42.973  38.830  14.506
49022W        W21282  18.037  37.387  14.403
49023W        W21283  38.286  23.130   3.705
49024W        W21284  43.426  13.041  11.578
49025W        W21285  17.341  14.419   3.517
49026W        W21286   4.205  10.436  13.422
49027W        W21287  32.049  15.729  14.986
49028W        W21288  29.055   3.625   1.878
49029W        W21289  14.738   5.847   2.473
49030W        W21290  28.060   6.347   1.861
49031W        W21291   3.527  22.064   3.646
49032W        W21292  16.649  13.387   3.296
49033W        W21293  23.661  20.747   3.821
49034W        W21294  16.279  26.056  13.977
49035W        W21295  26.839  34.717  14.835
49036W        W21296   3.910   8.872   1.163
49037W        W21297   6.143  12.121   3.710
49038W        W21298  23.670  44.569   4.217
49039W        W21299   6.897   6.454   0.831
49040W        W21300  25.575  30.510   1.159
49041W        W21301  16.775  28.095  12.422
49042W        W21302   5.225  22.930   0.205
49043W        W21303  24.996  19.688   0.564
49044W        W21304  23.043  13.261  14.465
49045W        W21305   8.944  21.663  12.323
49046W        W21306   5.896   7.102   3.784
49047W        W21307  24.114  17.091  13.594
49048W        W21308  19.301   5.708   0.321
49049W        W21309  44.066  14.116   3.249
49050W        W21310   1.574  17.199  11.465
49051W        W21311   8.986   2.433   0.948
49052W        W21312  26.629  16.644   1.797
49053W        W21313   9.673  43.663  12.888
49054W        W21314  33.499   4.397  14.130
49055W        W21315  41.418  22.943  13.824
49056W        W21316   0.765  39.419   4.285
49057W        W21317   1.413  37.952  13.568
49058W        W21318  43.669  30.837  14.794
49059W        W21319  22.510  28.513  14.963
49060W        W21320  23.931  41.272  12.024
49061W        W21321  22.541  30.189  12.400
49062W        W21322   0.234   3.231   2.070
49063W        W21323  28.946  35.716  13.668
49064W        W21324  27.539  21.790   1.333
49065W        W21325  12.759   2.872  14.092
49066W        W21326   5.763  40.071  13.842
49067W        W21327   4.363  14.108   0.277
49068W        W21328  38.925   7.153  11.528
49069W        W21329  31.343  25.793  12.931
49070W        W21330  24.894  40.971   4.603
49071W        W21331  42.491  16.095   4.599
49072W        W21332  13.623  15.412  13.900
49073W        W21333  29.959  43.386  12.055
49074W        W21334  18.596  36.897  14.134
49075W        W21335  26.156   5.833  14.391
49076W        W21336  17.483   3.525   3.399
49077W        W21337  29.320  26.587   3.631
49078W        W21338  40.532  25.512  11.121
49079W        W21339  18.733  42.160   4.035
49080W        W21340   9.142  36.074   2.787
49081W        W21341  11.323  36.589   4.571
49082W        W21342  42.389  30.868  14.373
49083W        W21343  25.714  24.582   4.517
49084W        W21344  42.845   2.193   3.094
49085W        W21345  19.683  28.540   0.858
49086W        W21346  28.532  41.327   3.603
49087W        W21347   6.871  28.671   5.027
49088W        W21348   2.926  22.833  13.103
49089W        W21349  36.638  25.734  11.213
49090W        W21350  25.324   1.742  10.611
49091W        W21351  18.526  38.691   4.378
49092W        W21352  29.128  13.209  11.299
49093W        W21353  20.672  13.992  14.554
49094W        W21354  17.486   7.314   2.692
49095W        W21355  20.233   3.256  10.582
49096W        W21356  20.363   9.976  12.460
49097W        W21357  22.980  35.740   2.926
49098W        W21358  38.056  27.289  11.176
49099W        W21359  42.237  18.571  14.963
49100W        W21360  13.667  31.730   1.284
49101W        W21361  23.915  26.615  11.566
49102W        W21362   6.436  20.080   0.457
49103W        W21363  38.126  24.002  13.488
49104W        W21364  14.244  14.852   2.462
49105W        W21365  31.425   6.372   2.400
49106W        W21366  32.515   7.850  13.795
49107W        W21367  18.795  31.538   2.295
49108W        W21368   8.868  35.427   1.339
49109W        W21369  35.371  29.454  13.349
49110W        W21370  18.113   1.758   3.769
49111W        W21371  13.297  27.071  10.853
49112W        W21372  35.878  42.521  13.968
49113W        W21373  34.044  23.517   0.712
49114W        W21374  22.112  19.711   0.909
49115W        W21375  20.815  24.589  12.422
49116W        W21376  22.059   9.269  13.055
49117W        W21377  13.090  42.416   0.288
49118W        W21378  39.032  19.437   4.559
49119W        W21379   2.436  44.980   0.382
49120W        W21380  19.285  39.466  11.159
49121W        W21381  28.429  39.524   0.386
49122W        W21382  10.249  15.599   3.073
49123W        W21383  18.728  33.112   1.889
49124W        W21384  33.815  12.728   3.263
49125W        W21385   2.444  43.444   0.593
49126W        W21386   9.837  43.224   1.228
49127W        W21387  33.116  22.479  13.856
49128W        W21388  16.385   2.611   0.775
49129W        W21389  30.049  34.517   0.308
49130W        W21390  41.381  24.743   3.174
49131W        W21391   4.066   4.980  13.741
49132W        W21392  35.727  19.350  14.439
49133W        W21393  18.886   2.395   3.394
49134W        W21394  18.072  36.517   4.268
49135W        W21395  18.730  36.813  11.920
49136W        W21396  28.628  26.315  12.563
49137W        W21397  43.934  36.063   3.691
49138W        W21398  42.666  36.088   2.285
49139W        W21399  36.749  14.315   0.836
49140W        W21400   0.069   4.771   4.311
49141W        W21401  40.357   7.134   2.818
49142W        W21402  42.438  35.762  13.966
49143W        W21403  12.268  12.667   0.302
49144W        W21404  36.194  21.535   1.767
49145W        W21405  37.277   2.810  12.941
49146W        W21406  32.985  34.864  14.516
49147W        W21407   8.879  18.029   0.755
49148W        W21408  22.011   7.333  12.019
49149W        W21409  27.394   7.547  11.667
49150W        W21410  20.282  38.977   3.753
49151W        W21411  33.069  24.673  11.410
49152W        W21412  22.644   6.705  14.415
49153W        W21413   4.909  31.371   1.309
49154W        W21414  20.758  32.525  12.441
49155W        W21415  31.416  40.948  12.140
49156W        W21416  10.717  33.522   1.687
49157W        W21417  44.467  27.109  12.387
49158W        W21418  36.770  26.664  10.992
49159W        W21419  42.835  16.203  12.899
49160W        W21420   4.301  29.600  12.423
49161W        W21421   7.333  27.399  13.939
49162W        W21422  30.198  31.564  12.948
49163W        W21423   0.004  13.055  12.484
49164W        W21424  19.471  29.840  13.019
49165W        W21425   9.408   1.806  13.581
49166W        W21426  35.548  33.539   4.480
49167W        W21427  26.740  27.007  14.858
49168W        W21428   3.586  43.679  14.321
49169W        W21429  17.975  10.222   4.158
49170W        W21430  14.342  33.707  12.092
49171W        W21431  18.585  37.892   3.181
49172W        W21432  26.122   7.976  11.142
49173W        W21433  38.564   4.161   1.007
49174W        W21434  35.975  39.584   4.068
49175W        W21435  21.590   4.169   1.893
49176W        W21436  30.513   3.297   2.181
49177W        W21437  40.198  13.251  12.984
49178W        W21438   0.981  23.346  14.053
49179W        W21439  18.614  26.595  11.890
49180W        W21440  39.092  19.276   2.453
49181W        W21441  40.481  31.833   0.947
49182W        W21442   1.455  13.399   3.101
49183W        W21443   1.464  38.133  12.230
49184W        W21444  33.831   1.280  11.625
49185W        W21445   1.820  29.889  12.346
49186W        W21446  20.595  18.607  11.371
49187W        W21447  17.107  14.515  11.880
49188W        W21448  20.701  24.538  14.492
49189W        W21449  20.896  23.725  10.581
49190W        W21450  12.260  20.825   1.808
49191W        W21451  10.842  36.009  13.942
49192W        W21452  27.235   4.346   3.734
49193W        W21453  17.712  36.473   0.213
49194W        W21454  40.441  33.421   1.471
49195W        W21455  15.080  25.103   0.002
49196W        W21456  22.151  24.226  10.643
49197W        W21457  16.770  36.074   2.809
49198W        W21458  40.878  30.760  11.109
49199W        W21459  20.697  11.226   0.551
49200W        W21460  36.784  32.508  14.477
49201W        W21461  17.093  30.774   1.729
49202W        W21462  15.668  35.505   3.734
49203W        W21463   5.508  17.827   5.074
49204W        W21464  10.847  30.275  12.939
49205W        W21465  29.934  10.136  11.582
49206W        W21466  44.489  36.643   2.480
49207W        W21467   4.646  33.021  12.876
49208W        W21468   9.389  22.059   1.785
49209W        W21469   7.662   1.438  13.515
49210W        W21470  12.220  24.088  10.650
49211W        W21471  15.758  17.554   0.717
49212W        W21472  29.137  27.596  11.510
49213W        W21473  15.397  43.657   2.321
49214W        W21474  35.493   5.714   0.208
49215W        W21475   7.297  19.561   1.190
49216W        W21476  12.253  10.761  12.856
49217W        W21477   3.021  40.523  13.197
49218W        W21478  15.923  41.856   4.932
49219W        W21479  12.702   7.757   3.681
49220W        W21480  32.610  39.893   2.798
49221W        W21481   9.847   9.724   2.011
49222W        W21482  40.410  38.730   5.101
49223W        W21483  20.446  33.899   2.287
49224W        W21484  43.883  12.891   1.764
49225W        W21485  42.774  38.849  11.486
49226W        W21486  23.521  19.842   1.185
49227W        W21487  27.032  44.989  12.145
49228W        W21488   3.881  34.647   2.124
49229W        W21489  12.365   3.004   0.001
49230W        W21490  21.921  12.352   0.254
49231W        W21491  28.839   3.132  12.685
49232W        W21492  34.878  25.277  15.000
49233W        W21493  42.551  31.145  13.379
49234W        W21494   4.958  33.893   3.209
49235W        W21495  16.856  17.566  13.000
49236W        W21496   7.184  33.545  12.072
49237W        W21497  24.808  19.335  13.599
49238W        W21498  13.867   2.882  10.656
49239W        W21499  10.544  23.671  11.658
49240W        W21500  30.172   8.754  12.053
49241W        W21501  29.571  19.578  13.042
49242W        W21502   2.537  28.520  12.881
49243W        W21503  19.667   4.854   0.329
49244W        W21504  32.372  36.636   3.132
49245W        W21505  43.898  31.290  14.687
49246W        W21506  33.101  14.548  11.253
49247W        W21507  40.898  42.757   4.654
49248W        W21508  19.993  32.455   0.027
49249W        W21509  36.197  35.757   4.763
49250W        W21510  29.459  34.606   2.807
49251W        W21511  33.540   8.582   0.055
49252W        W21512  12.827   6.608  11.976
49253W        W21513  29.747  30.988  13.629
49254W        W21514   4.648  11.655  11.588
49255W        W21515  11.802  39.454  14.457
49256W        W21516  24.086   9.588  12.456
49257W        W21517   0.657  38.426   0.940
49258W        W21518  25.028  16.080  13.852
49259W        W21519   0.970  13.920   3.810
49260W        W21520   1.744  23.685  10.406
49261W        W21521  34.001  35.043  14.633
49262W        W21522  18.223  12.403   1.442
49263W        W21523  35.471  22.603   2.786
49264W        W21524  10.875  12.620  11.054
49265W        W21525  33.664  24.040  13.290
49266W        W21526  11.111  41.053   0.668
49267W        W21527  42.810  14.459   0.284
49268W        W21528  25.199   2.038  13.455
49269W        W21529   6.343  13.332  14.334
49270W        W21530  43.470  22.716  11.233
49271W        W21531  17.492   2.874  14.404
49272W        W21532  32.573  26.463  12.970
49273W        W21533  12.177  42.728   2.236
49274W        W21534  18.165  10.612   0.270
49275W        W21535  43.734  13.806  13.549
49276W        W21536  19.763  39.156  11.545
49277W        W21537   8.897  32.441  12.183
49278W        W21538   0.003   8.363   1.452
49279W        W21539  33.572   1.642  14.963
49280W        W21540  13.125   3.762   1.079
49281W        W21541  36.817  39.751  10.196
49282W        W21542  30.826  12.583  13.541
49283W        W21543  10.007  28.594   0.977
49284W        W21544   8.133  36.673   4.317
49285W        W21545  32.670  17.313  14.448
49286W        W21546   2.407  20.616   1.947
49287W        W21547  28.639  25.069   1.092
49288W        W21548  31.685  14.249  10.913
49289W        W21549   8.836   5.653   1.534
49290W        W21550   3.552  28.620  13.030
49291W        W21551  21.618  21.024   3.160
49292W        W21552  30.709   2.991  10.942
49293W        W21553  11.709  10.873  13.622
49294W        W21554  34.180  44.251  10.677
49295W        W21555  26.002  34.889  13.022
49296W        W21556  23.905  24.191  14.066
49297W        W21557  35.993  27.150  14.782
49298W        W21558  35.844  35.002   1.395
49299W        W21559   4.228   6.415  13.977
49300W        W21560  44.574  44.010  12.065
49301W        W21561  15.519  33.178  10.881
49302W        W21562  14.278  40.674  13.561
49303W        W21563   2.499  32.686   3.809
49304W        W21564  44.553  27.691  13.103
49305W        W21565  19.688  10.753  14.368
49306W        W21566  27.640  17.425   3.056
49307W        W21567   3.946  23.021  13.372
49308W        W21568   0.680  40.084   2.684
49309W        W21569   0.762   9.878  13.083
49310W        W21570  41.559  38.780   3.603
49311W        W21571  30.545  27.475  11.691
49312W        W21572  19.007  18.172  12.029
49313W        W21573  41.229  21.161   3.634
49314W        W21574  34.975  40.349   5.228
49315W        W21575  19.705   4.929  13.386
49316W        W21576  21.258  41.904  12.850
49317W        W21577  21.063  43.365  12.384
49318W        W21578  29.483  25.554   3.763
49319W        W21579  39.294  28.581  11.171
49320W        W21580  15.760  17.660  13.775
49321W        W21581  44.332  12.240   2.896
49322W        W21582  33.804  34.635  11.063
49323W        W21583  25.185  44.951   4.946
49324W        W21584  26.433  10.065   4.968
49325W        W21585  22.590  22.891   1.655
49326W        W21586  37.543  39.547  12.380
49327W        W21587  44.780  35.345   0.979
49328W        W21588  10.815  33.414   3.656
49329W        W21589  27.094   1.100   2.765
49330W        W21590  44.263  26.920  13.248
49331W        W21591  38.358   2.304  10.360
49332W        W21592  37.897  16.038   1.756
49333W        W21593  17.135  23.704  12.350
49334W        W21594  20.254  34.112   2.752
49335W        W21595  16.218  14.654   1.344
49336W        W21596  39.772  22.688  13.362
49337W        W21597  23.763  22.204  13.307
49338W        W21598  24.624  39.375   3.232
49339W        W21599   9.199  32.532   2.308
49340W        W21600  14.029   6.944  13.499
49341W        W21601  33.142  38.015  12.067
49342W        W21602  13.283  21.705  11.685
49343W        W21603   9.119  38.132  10.660
49344W        W21604  34.747  15.088  12.124
49345W        W21605  20.205  40.973  12.203
49346W        W21606  38.463  26.767  13.084
49347W        W21607  31.925   4.748   1.457
49348W        W21608  35.651   4.896  13.840
49349W        W21609  39.021   1.441   1.112
49350W        W21610  25.580  32.347   4.556
49351W        W21611  39.810  23.563   3.236
49352W        W21612  27.029  11.685  14.864
49353W        W21613  24.543  41.808  12.631
49354W        W21614  24.246  35.716  12.940
49355W        W21615   7.980  40.841  11.573
49356W        W21616  10.153  24.415  11.998
49357W        W21617   4.905  17.803  14.766
49358W        W21618  27.492   0.999   1.281
49359W        W21619  18.715  39.406  12.959
49360W        W21620   6.871   7.619  11.543
49361W        W21621  35.730  20.862  11.887
49362W        W21622  25.828  36.175   4.060
49363W        W21623  25.603  39.476  14.432
49364W        W21624  32.557  32.070  13.084
49365W        W21625   7.524  12.175   4.514
49366W        W21626  24.435   2.446   1.436
49367W        W21627  38.559  38.815   0.026
49368W        W21628   6.609  22.295  13.117
49369W        W21629  10.216  16.056   1.285
49370W        W21630  40.374  16.063   3.710
49371W        W21631  30.770  14.883   0.461
49372W        W21632  40.977  37.421   4.356
49373W        W21633  41.802  35.035   3.575
49374W        W21634  35.378  20.612  11.643
49375W        W21635  34.655   9.925  11.617
49376W        W21636   8.557  43.241   0.610
49377W        W21637  34.456   5.279  11.429
49378W        W21638  10.329   0.428  10.493
49379W        W21639  41.447  23.987   3.701
49380W        W21640  10.871  42.956   3.206
49381W        W21641  15.635  10.966   3.715
49382W        W21642   1.411  16.799   0.045
49383W        W21643   1.913  21.317  13.367
49384W        W21644  22.551  41.299   1.329
49385W        W21645  20.607  40.453   3.865
49386W        W21646  20.416   1.423  11.093
49387W        W21647  10.761  12.754  12.395
49388W        W21648  18.991  11.705   3.717
49389W        W21649  20.701   8.042   4.416
49390W        W21650  26.155  39.586   9.959
49391W        W21651  27.327  42.802  11.093
49392W        W21652  20.990  37.488   4.581
49393W        W21653  24.593   1.858   4.573
49394W        W21654   8.640  15.073   2.571
49395W        W21655  11.440  13.806  12.152
49396W        W21656  21.303  23.013  10.917
49397W        W21657  23.279  12.840   0.316
49398W        W21658  39.813   3.568  14.026
49399W        W21659   9.753  12.586  14.561
49400W        W21660  30.423  41.597  13.897
49401W        W21661  11.154   6.916  12.353
49402W        W21662  35.966  20.553  14.070
49403W        W21663  16.810  42.293   4.303
49404W        W21664  14.919  34.001  10.635
49405W        W21665   1.255   7.303   1.056
49406W        W21666  41.493   9.971   4.101
49407W        W21667  37.697   2.333   0.941
49408W        W21668  39.935   4.283  10.344
49409W        W21669   7.683  19.613   1.826
49410W        W21670  12.855  39.847  12.641
49411W        W21671  26.174  32.466   0.224
49412W        W21672  26.011   8.834  14.321
49413W        W21673  39.253  17.148   4.574
49414W        W21674  44.749  19.384  12.064
49415W        W21675  10.159   5.850   1.485
49416W        W21676  14.929   4.441   2.841
49417W        W21677   9.608  15.250   3.541
49418W        W21678  21.187   4.037   2.221
49419W        W21679  11.868  33.669  13.091
49420W        W21680  35.496  30.184  11.635
49421W        W21681  21.774  11.819  12.431
49422W        W21682   8.871  31.298  13.370
49423W        W21683   3.399  22.563  12.540
49424W        W21684  33.640  17.099  14.027
49425W        W21685   8.870  20.741   0.289
49426W        W21686  40.528  22.113   4.155
49427W        W21687  35.440  22.026   3.347
49428W        W21688  35.314   7.533  11.149
49429W        W21689  41.306  24.490  14.961
49430W        W21690  17.377  23.930   5.103
49431W        W21691   4.850   0.040   3.567
49432W        W21692  14.978  16.223   0.228
49433W        W21693  25.117  25.924  12.820
49434W        W21694   2.440  44.585  10.332
49435W        W21695  42.001  30.027  11.603
49436W        W21696   3.450  22.949   0.804
49437W        W21697  21.623  35.799   2.921
49438W        W21698  34.472  33.203   0.446
49439W        W21699  29.131   8.850  14.949
49440W        W21700  38.267   4.019  14.818
49441W        W21701  13.644  44.037   2.392
49442W        W21702  38.392  25.769   0.863
49443W        W21703  16.366  26.934  10.782
49444W        W21704  30.963  18.748  10.502
49445W        W21705  12.070  18.128   2.239
49446W        W21706  32.712   2.325  12.469
49447W        W21707  33.850  19.190   3.884
49448W        W21708  21.859   6.582   1.788
49449W        W21709  33.502  17.656   1.907
49450W        W21710  27.115   5.784  13.448
49451W        W21711   6.329  41.382   3.736
49452W        W21712  28.571  17.148  10.715
49453W        W21713  19.704  43.421   3.914
49454W        W21714  15.451   0.124   2.851
49455W        W21715  22.816  23.628  14.747
49456W        W21716  33.397  42.847  14.553
49457W        W21717  20.419  30.111  11.182
49458W        W21718  39.330  26.197   0.794
49459W        W21719  44.540  29.446  12.181
49460W        W21720  16.379  10.693  13.426
49461W        W21721   5.302  28.993   1.451
49462W        W21722  19.284  36.426  12.736
49463W        W21723  28.232  27.885  14.170
49464W        W21724  37.831   8.738   2.554
49465W        W21725   2.908   3.972   3.126
49466W        W21726  32.542  31.165  12.492
49467W        W21727  20.772  19.878  12.826
49468W        W21728  18.293  27.123  12.988
49469W        W21729  27.962  11.397   0.282
49470W        W21730   3.719  44.534   0.527
49471W        W21731  42.558  13.860  12.976
49472W        W21732  42.634  14.338   1.741
49473W        W21733  14.665  19.039   2.366
49474W        W21734  39.621  28.840  11.858
49475W        W21735  43.459   4.774   3.136
49476W        W21736  35.064  42.396  14.957
49477W        W21737  33.350  33.365   0.862
49478W        W21738  31.023  18.181  13.836
49479W        W21739  18.320  17.244   2.141
49480W        W21740  12.166  11.252  12.611
49481W        W21741   4.999  11.734  10.318
49482W        W21742   2.741  23.799   4.830
49483W        W21743  26.228  32.028  14.980
49484W        W21744  10.106  43.379   1.664
49485W        W21745  15.175   7.434   1.916
49486W        W21746  37.369  35.577   3.618
49487W        W21747  13.804  10.722   1.934
49488W        W21748   3.011  15.851   1.226
49489W        W21749   6.704   2.510   0.516
49490W        W21750  33.910  16.709  13.826
49491W        W21751   4.279   5.465  12.990
49492W        W21752  29.557  16.901  10.783
49493W        W21753  42.041   4.292  10.682
49494W        W21754   0.746   7.920  14.538
49495W        W21755  41.564  11.306  13.583
49496W        W21756  12.903  38.346   2.301
49497W        W21757  18.086  25.902  12.170
49498W        W21758  19.685  38.674  11.363
49499W        W21759  12.649  23.580   4.871
49500W        W21760  31.116  17.075  11.395
49501W        W21761  23.980  10.754  13.775
49502W        W21762   7.463  13.216  13.686
49503W        W21763  16.913   4.491   2.776
49504W        W21764  25.490   2.130   3.646
49505W        W21765   3.303   2.762  11.775
49506W        W21766  14.411  41.217   4.147
49507W        W21767  20.921  37.372   2.955
49508W        W21768  41.617  42.830  11.428
49509W        W21769  37.122  20.625  10.343
49510W        W21770  36.628  39.345  10.948
49511W        W21771  44.047  26.458   0.849
49512W        W21772  19.680  14.860  12.859
49513W        W21773   4.351   5.765   4.456
49514W        W21774   6.265  17.159  11.887
49515W        W21775  14.090  25.031   2.471
49516W        W21776  28.065  26.125   0.717
49517W        W21777  16.708  15.837   2.035
49518W        W21778   0.084  14.650  13.969
49519W        W21779  31.869  17.056  10.882
49520W        W21780  27.686  19.652  14.295
49521W        W21781  12.528   5.890  14.947
49522W        W21782   6.936  21.282  13.995
49523W        W21783  22.118   3.246   4.569
49524W        W21784  42.193  30.449   4.057
49525W        W21785  35.274  29.984   0.236
49526W        W21786   2.343   4.222  11.580
49527W        W21787   9.946  19.235   3.719
49528W        W21788  43.370  28.467   3.249
49529W        W21789  36.019   2.280  12.439
49530W        W21790  31.108  14.061   3.172
49531W        W21791  11.358   8.854   4.932
49532W        W21792  27.607  12.854   0.836
49533W        W21793  32.545  42.483   2.685
49534W        W21794   4.979  25.128  12.069
49535W        W21795  22.703   8.855   2.799
49536W        W21796  23.603  25.645   3.210
49537W        W21797  25.642  26.604  13.957
49538W        W21798  44.706  31.745  10.142
49539W        W21799  12.511  13.717   4.621
49540W        W21800   7.620  31.012   1.731
49541W        W21801  37.062  10.445  13.500
49542W        W21802  37.832   8.870   3.539
49543W        W21803  28.856  35.403   2.788
49544W        W21804   4.037  13.717  11.378
49545W        W21805  23.446   2.777  10.958
49546W        W21806  11.434  42.297  14.394
49547W        W21807  37.617  34.793  13.111
49548W        W21808  26.642   0.317  11.909
49549W        W21809  19.681   8.792   2.566
49550W        W21810   3.444  13.094   2.015
49551W        W21811  42.776  26.665  11.707
49552W        W21812   2.360  25.491   3.494
49553W        W21813   2.223  16.008  11.404
49554W        W21814  17.644  25.692   0.705
49555W        W21815   7.285  14.172  13.208
49556W        W21816  34.347  38.896  14.119
49557W        W21817  21.940   8.429  13.071
49558W        W21818  26.936  30.965  14.458
49559W        W21819  17.656  42.234  12.056
49560W        W21820   2.385   5.862   0.295
49561W        W21821  24.174  37.458  14.293
49562W        W21822  20.053   4.677  12.573
49563W        W21823  39.142  26.546   1.549
49564W        W21824  39.382   0.061   3.209
49565W        W21825  40.838  24.493   2.598
49566W        W21826  43.527   6.467   0.305
49567W        W21827   8.187  24.457   0.023
49568W        W21828  12.450  22.616   2.226
49569W        W21829  13.719  13.597   3.369
49570W        W21830  25.099  22.508  14.950
49571W        W21831  11.105  10.876  14.861
49572W        W21832  15.567   8.726  12.798
49573W        W21833  28.118  17.609  10.916
49574W        W21834  36.127  35.997  13.566
49575W        W21835  21.755  38.829   1.827
49576W        W21836  24.272  10.828  12.846
49577W        W21837  41.742  31.298  13.918
49578W        W21838   6.879  31.880  14.448
49579W        W21839  41.762  13.752  12.267
49580W        W21840  14.547  29.011   2.821
49581W        W21841  37.957  11.716  10.711
49582W        W21842   5.974  12.643   0.928
49583W        W21843   1.790  27.002   2.735
49584W        W21844  36.458  29.212  10.677
49585W        W21845  34.030   4.222   4.648
49586W        W21846   0.541   0.909  12.029
49587W        W21847  42.508  19.615   2.520
49588W        W21848  12.738  43.591  14.380
49589W        W21849  43.500   2.856  11.074
49590W        W21850  33.910  33.575   3.664
49591W        W21851  36.597  33.180  11.828
49592W        W21852   8.001  41.504   4.659
49593W        W21853  35.857  33.681   1.055
49594W        W21854  14.799   0.846   0.930
49595W        W21855  40.879   9.948  10.228
49596W        W21856  25.266   3.303  10.740
49597W        W21857  32.894  31.292   4.669
49598W        W21858  38.446  39.430  12.404
49599W        W21859   2.748  14.140   4.596
49600W        W21860  39.515  39.639   1.625
49601W        W21861  28.616  33.615   0.495
49602W        W21862   6.678  42.776  12.053
49603W        W21863  35.142  39.547   4.070
49604W        W21864   3.195  23.147  12.810
49605W        W21865  26.701   8.355  10.437
49606W        W21866  26.413  21.663   4.308
49607W        W21867  18.500  36.528   0.884
49608W        W21868  22.486  44.425   3.201
49609W        W21869  20.234   4.249   4.390
49610W        W21870   9.138   1.937   0.057
49611W        W21871   2.263  19.363  10.737
49612W        W21872  36.316  11.400  13.240
49613W        W21873  26.402   4.490   4.075
49614W        W21874  19.955  29.125   2.510
49615W        W21875  24.994  14.352   4.110
49616W        W21876  35.686  41.526  12.711
49617W        W21877  18.617  27.650  12.000
49618W        W21878   9.916  33.491  13.052
49619W        W21879   0.882  33.079   4.299
49620W        W21880  12.700  33.036   4.449
49621W        W21881  22.191  39.647   1.051
49622W        W21882  10.181  43.840  11.203
49623W        W21883  29.861  22.558   4.888
49624W        W21884  44.776  16.885   0.447
49625W        W21885  18.723   7.127   0.454
49626W        W21886  35.613  23.919  14.403
49627W        W21887  36.000  25.159  11.067
49628W        W21888  40.326  10.702  12.626
49629W        W21889  23.530  31.848  14.735
49630W        W21890  17.284   6.383   9.996
49631W        W21891   3.935  13.153   2.814
49632W        W21892  20.306  25.142   4.988
49633W        W21893  25.125  16.067   1.187
49634W        W21894  42.467  41.628   3.339
49635W        W21895   1.247  13.799   4.508
49636W        W21896  21.103   4.758   0.474
49637W        W21897  27.226  30.021  13.312
49638W        W21898  38.638  12.732  14.929
49639W        W21899  37.309  19.738   4.566
49640W        W21900  19.374  22.927  14.802
49641W        W21901  12.462  37.724   0.105
49642W        W21902   6.928  16.256   1.545
49643W        W21903  29.420  11.303   1.728
49644W        W21904  23.784  10.711   3.299
49645W        W21905   3.358   4.149   1.361
49646W        W21906  41.888   0.487   0.462
49647W        W21907  28.098  42.940  12.792
49648W        W21908   8.839  20.949   4.636
49649W        W21909  16.105   8.315   2.307
49650W        W21910   7.236  36.406  10.698
49651W        W21911  16.893  26.428   2.164
49652W        W21912   7.325   5.691   3.733
49653W        W21913  36.176  33.039  11.136
49654W        W21914  44.336  22.273   4.574
49655W        W21915  10.664  33.297  10.709
49656W        W21916  29.551  20.090   1.071
49657W        W21917  22.219   6.011  11.733
49658W        W21918   2.204  32.276   3.647
49659W        W21919   9.244  15.231   1.921
49660W        W21920  12.461   3.353   1.409
49661W        W21921  24.608  33.724   3.165
49662W        W21922  10.186  10.848  13.868
49663W        W21923  28.056  10.509   3.683
49664W        W21924   0.944  11.941   3.187
49665W        W21925  23.473  43.151   3.221
49666W        W21926  20.857  12.106  13.084
49667W        W21927  34.066  33.429  11.544
49668W        W21928   7.205  21.664  11.249
49669W        W21929   5.901  19.213  10.415
49670W        W21930  15.752   5.234  12.453
49671W        W21931   9.221  20.597   4.590
49672W        W21932  26.028  30.916  13.536
49673W        W21933  39.262  26.935  12.447
49674W        W21934   4.624  40.322   3.336
49675W        W21935  18.210  22.385  13.161
49676W        W21936   9.244  26.205   3.505
49677W        W21937  19.112  37.790  14.410
49678W        W21938   5.332  42.019  13.239
49679W        W21939  42.997  21.503   3.723
49680W        W21940  34.578  41.069  11.209
49681W        W21941  22.215   5.708   0.695
49682W        W21942  28.960   6.071   1.426
49683W        W21943  14.186  36.232   0.346
49684W        W21944   6.227   1.018  14.470
49685W        W21945  37.337  22.688   2.909
49686W        W21946   3.288  21.167   0.016
49687W        W21947  27.013   9.251   3.200
49688W        W21948  19.552  15.789  13.956
49689W        W21949  26.143   4.514  12.993
49690W        W21950  44.169   5.079  14.778
49691W        W21951  24.446  33.509  12.389
49692W        W21952  18.569  28.891  11.455
49693W        W21953  18.116  27.993   4.120
49694W        W21954  13.999  28.949   2.864
49695W        W21955  11.620   6.467  14.277
49696W        W21956  11.549  27.688   2.034
49697W        W21957  18.151  26.515   0.086
49698W        W21958   8.799  29.170   2.917
49699W        W21959   5.670  12.327  13.568
49700W        W21960   6.883  12.168   4.239
49701W        W21961  15.205   7.679  11.521
49702W        W21962  41.057  44.799   4.758
49703W        W21963   9.704  10.266  14.771
49704W        W21964   7.273  19.270  14.853
49705W        W21965  20.137  38.025  13.409
49706W        W21966  43.072  40.944  14.848
49707W        W21967  39.788  21.630   4.637
49708W        W21968  44.755  18.533   4.376
49709W        W21969  22.212  24.839  11.849
49710W        W21970   9.072  44.193   3.226
49711W        W21971  29.705  21.138   1.803
49712W        W21972  15.782  23.026  11.930
49713W        W21973  43.985   3.597   4.755
49714W        W21974  39.348  20.152   3.084
49715W        W21975  21.175  20.968  11.972
49716W        W21976   2.399  43.770   4.469
49717W        W21977  44.408  28.361   2.891
49718W        W21978  13.883  35.954  12.055
49719W        W21979  24.111  24.078  13.333
49720W        W21980  22.456  29.769   1.613
49721W        W21981  15.979   5.875  11.371
49722W        W21982  38.100   9.739   4.124
49723W        W21983   7.339  24.425  10.744
49724W        W21984   7.637  27.011  13.061
49725W        W21985  39.739  37.066  12.929
49726W        W21986  23.962  44.482   2.251
49727W        W21987  22.650   0.539  10.756
49728W        W21988  37.700  29.091  14.901
49729W        W21989  22.302  31.730   1.326
49730W        W21990  32.072  19.868   4.071
49731W        W21991  43.895  41.501   3.340
49732W        W21992  12.877   0.946  12.684
49733W        W21993  38.931  35.575   1.975
49734W        W21994  19.903  42.417   0.043
49735W        W21995  13.645  36.308  11.105
49736W        W21996  43.690  30.123   1.881
49737W        W21997  18.280  26.578   2.661
49738W        W21998  40.340  37.386  13.781
49739W        W21999  19.645  38.329   0.036
49740W        W22000  14.301  35.008   3.601
49741W        W22001   1.378   8.728   0.190
49742W        W22002   9.872   0.420  12.408
49743W        W22003   6.869  24.506  11.021
49744W        W22004  14.401  42.515   3.250
49745W        W22005  38.407  30.671   4.100
49746W        W22006   0.283  21.130   3.122
49747W        W22007  21.250  31.851   0.494
49748W        W22008  43.230  25.016   4.176
49749W        W22009  32.048  44.902   4.285
49750W        W22010  23.954  44.460   4.711
49751W        W22011  29.937  19.211  10.709
49752W        W22012  35.934  21.671   2.687
49753W        W22013  25.399  14.405   2.707
49754W        W22014  26.259  11.407   0.265
49755W        W22015   9.084  29.114   1.724
49756W        W22016  30.741   8.152   2.271
49757W        W22017   0.724  43.026   2.793
49758W        W22018  40.516  23.512   1.728
49759W        W22019  27.033   6.571  11.879
49760W        W22020  18.728  30.609   2.359
49761W        W22021  40.960  37.798   4.736
49762W        W22022  30.105  23.603  11.861
49763W        W22023  38.870  23.220   4.972
49764W        W22024  35.791  34.049  11.225
49765W        W22025  23.658  28.457  10.107
49766W        W22026   9.704  37.566  11.237
49767W        W22027  33.472  34.952   2.827
49768W        W22028   8.756   3.798  10.810
49769W        W22029  16.768  41.265   0.859
49770W        W22030  12.285  10.636  14.298
49771W        W22031  32.220   3.627   4.918
49772W        W22032  16.644   8.065  13.207
49773W        W22033  12.250  31.026  11.784
49774W        W22034  28.956   3.735   1.283
49775W        W22035  15.817  30.032  12.437
49776W        W22036  35.744  29.593  14.993
49777W        W22037  21.766   6.447   3.221
49778W        W22038  29.826  43.097  13.385
49779W        W22039  42.545   6.413   3.662
49780W        W22040  26.056  31.328  13.833
49781W        W22041  20.844  12.323  11.095
49782W        W22042  39.963  12.149  11.547
49783W        W22043  27.578  15.303  10.555
49784W        W22044   8.387  18.511   1.300
49785W        W22045  30.062   5.838   3.629
49786W        W22046  35.532  24.039   4.485
49787W        W22047  42.917  37.215  11.103
49788W        W22048   7.815  32.052  13.097
49789W        W22049  16.857  34.413  13.458
49790W        W22050  30.183  20.619  14.836
49791W        W22051   4.388   4.356   2.235
49792W        W22052  19.274   4.670   4.077
49793W        W22053  28.824  11.691  11.135
49794W        W22054  22.031  32.534   2.803
49795W        W22055  25.206  38.919   1.691
49796W        W22056  16.361  20.068  14.840
49797W        W22057  28.221   1.418   0.288
49798W        W22058  40.061  34.780  13.846
49799W        W22059  19.229  41.552  14.849
49800W        W22060  27.832   5.307  12.649
49801W        W22061  36.627  19.636  14.215
49802W        W22062   8.439  37.865   4.611
49803W        W22063  31.599  10.651   1.496
49804W        W22064  10.640   6.367   0.391
49805W        W22065   5.847  20.009   1.788
49806W        W22066  14.764   2.952  14.044
49807W        W22067   8.112  14.255   1.515
49808W        W22068  36.816   9.768  12.529
49809W        W22069   8.703   2.215  12.507
49810W        W22070  20.928  18.842   0.072
49811W        W22071  34.588  40.238  14.363
49812W        W22072   3.379   5.287   1.220
49813W        W22073  30.134   9.626  13.369
49814W        W22074  25.980  41.850  11.632
49815W        W22075  21.766   3.148   0.208
49816W        W22076   3.071   5.230   1.701
49817W        W22077  10.378  18.229  10.682
49818W        W22078   5.114  43.854  10.694
49819W        W22079  24.327  35.483  12.096
49820W        W22080  17.594  32.589  10.643
49821W        W22081  28.591  22.694  13.847
49822W        W22082   7.827  10.926  11.082
49823W        W22083   8.422  29.142   0.289
49824W        W22084   7.829  12.841   3.721
49825W        W22085   1.865  38.120  14.843
49826W        W22086  35.610  30.681  11.678
49827W        W22087  25.966  37.577  11.850
49828W        W22088  27.370  20.456  12.917
49829W        W22089   2.767  10.213  14.853
49830W        W22090  14.796  26.178   4.786
49831W        W22091  13.361  40.101   2.336
49832W        W22092   8.350   3.192  12.485
49833W        W22093   8.291  30.505   4.088
49834W        W22094  19.248   0.015  13.046
49835W        W22095  37.292  18.649  10.732
49836W        W22096  35.515  31.073   2.208
49837W        W22097   5.414   8.926   4.506
49838W        W22098  36.074  11.164  11.969
49839W        W22099  36.824  33.836  13.646
49840W        W22100  11.318   1.214   2.213
49841W        W22101  36.522   0.401   1.855
49842W        W22102  28.435  27.911   2.406
49843W        W22103  11.429  40.924  12.502
49844W        W22104  39.625  21.327   2.612
49845W        W22105  42.175  42.945   2.868
49846W        W22106  27.618   9.718  13.832
49847W        W22107  14.080  42.941  11.627
49848W        W22108  19.016  25.531  12.936
49849W        W22109  38.365  35.610   3.915
49850W        W22110  38.504  23.971  10.689
49851W        W22111  16.617  44.906   3.852
49852W        W22112  12.525  40.009  14.795
49853W        W22113  10.443  23.868  14.849
49854W        W22114  44.927  31.046   0.430
49855W        W22115  29.939  15.758   4.109
49856W        W22116  33.032  11.043   0.271
49857W        W22117   9.558  41.892   3.994
49858W        W22118   8.824  36.380  11.168
49859W        W22119  21.744  14.901   0.277
49860W        W22120  26.070  29.400  13.411
49861W        W22121  12.108  42.331  13.764
49862W        W22122  29.447   8.614  10.314
49863W        W22123  35.061   3.601   2.435
49864W        W22124  27.405  13.679   2.280
49865W        W22125  23.447  25.306   1.981
49866W        W22126  36.432  16.586   2.345
49867W        W22127  20.957  16.074   3.282
49868W        W22128  16.231  19.554  14.817
49869W        W22129  40.629   0.469   4.640
49870W        W22130  12.742  10.651  13.063
49871W        W22131  26.990  10.932   1.294
49872W        W22132  23.288  30.131  13.785
49873W        W22133  44.283  38.238   0.792
49874W        W22134  29.431   5.271   3.749
49875W        W22135  38.323  12.811  14.466
49876W        W22136  43.418  40.417  14.191
49877W        W22137  19.208  29.408   3.587
49878W        W22138   9.089  22.124  14.891
49879W        W22139   0.994   5.838   4.073
49880W        W22140  21.437  32.224  10.897
49881W        W22141  18.667  42.298   3.434
49882W        W22142   7.795  41.542   3.266
49883W        W22143   2.900  37.793   3.178
49884W        W22144  38.651  31.992   1.353
49885W        W22145   3.988  20.642   0.863
49886W        W22146  26.720  11.735   4.578
49887W        W22147  18.157  33.122  13.114
49888W        W22148  35.716  29.452  12.037
49889W        W22149  29.233   9.598  13.439
49890W        W22150  28.526  16.651   1.317
49891W        W22151  24.186  43.561   3.668
49892W        W22152  17.295  10.862   2.491
49893W        W22153  43.354  29.120  12.320
49894W        W22154   2.846  24.582  14.418
49895W        W22155  42.581  18.907  14.722
49896W        W22156   0.500  40.936   1.249
49897W        W22157  31.887  27.448   1.872
49898W        W22158  15.583  30.450   1.709
49899W        W22159  44.454  23.054  12.034
49900W        W22160  14.632  25.741  14.434
49901W        W22161  37.288  16.056  13.933
49902W        W22162   9.866  43.202  11.187
49903W        W22163  15.772  10.916   3.212
49904W        W22164  37.457  11.549  11.015
49905W        W22165  12.281  17.663  12.376
49906W        W22166   1.897  26.998   4.190
49907W        W22167   7.899  10.255  10.543
49908W        W22168  35.526  35.378   0.772
49909W        W22169  24.300  44.232  13.398
49910W        W22170   5.750  12.245  12.463
49911W        W22171  32.050  42.710   5.135
49912W        W22172  23.771  44.488  11.886
49913W        W22173   1.649  26.219  11.951
49914W        W22174  43.209  20.994  12.658
49915W        W22175   9.677  29.462  13.075
49916W        W22176  16.120   5.467  14.461
49917W        W22177   1.474  35.323   3.664
49918W        W22178  40.749  28.879   1.280
49919W        W22179  42.065  25.083   2.852
49920W        W22180  41.001  32.156   0.980
49921W        W22181  17.729  38.069  10.950
49922W        W22182  28.683   1.428  13.730
49923W        W22183  23.139  30.932  10.596
49924W        W22184  13.850  14.842   1.355
49925W        W22185  36.024   4.020  13.470
49926W        W22186  39.292  34.621  12.670
49927W        W22187  34.908  20.583  10.620
49928W        W22188  16.134  23.501   2.690
49929W        W22189  12.850  41.209  10.768
49930W        W22190  34.730   1.785   3.326
49931W        W22191  30.989  36.461   0.046
49932W        W22192  24.200  20.940   4.255
49933W        W22193  41.268  17.182   2.609
49934W        W22194   5.968  17.183   3.236
49935W        W22195  19.217   5.377   1.883
49936W        W22196  18.925  36.841  14.551
49937W        W22197   6.821  37.581  13.019
49938W        W22198  24.365  21.048  12.543
49939W        W22199  40.821   2.890   2.416
49940W        W22200  42.237   9.453  10.528
49941W        W22201  38.301  36.425  14.887
49942W        W22202  24.528   2.801   3.182
49943W        W22203  26.964  14.774  13.108
49944W        W22204  12.839  14.277   1.395
49945W        W22205  40.388  41.589  11.149
49946W        W22206  19.212  17.128  10.497
49947W        W22207   4.247  32.040  14.048
49948W        W22208  35.925   7.177   3.102
49949W        W22209  26.030   2.477  14.813
49950W        W22210  16.767  43.920   3.676
49951W        W22211   6.951  10.170   2.810
49952W        W22212  13.745  11.930   2.699
49953W        W22213  27.627  43.079  13.840
49954W        W22214   5.830  27.770  10.274
49955W        W22215  32.540  11.062   1.763
49956W        W22216  24.663  41.455  10.280
49957W        W22217  40.013  42.477  10.687
49958W        W22218  28.061  15.190  10.737
49959W        W22219   2.203  25.968   1.862
49960W        W22220   4.314  41.051  13.377
49961W        W22221   6.630   3.820   4.221
49962W        W22222   7.618  32.059  14.885
49963W        W22223  37.116  25.742  11.349
49964W        W22224   9.327  29.856  13.867
49965W        W22225  31.585  24.253   2.057
49966W        W22226  37.104  23.642   0.402
49967W        W22227  14.770   2.679  10.717
49968W        W22228  15.668  35.782   1.681
49969W        W22229  19.673  36.286  14.546
49970W        W22230  40.985  36.278   0.865
49971W        W22231  30.616  31.873   3.574
49972W        W22232   5.940  31.964  12.645
49973W        W22233   7.366  13.546  12.005
49974W        W22234  32.116  10.759   4.252
49975W        W22235  44.453  27.375  14.852
49976W        W22236   2.361  35.925  10.644
49977W        W22237   8.305  32.819  14.868
49978W        W22238  25.810  16.489  12.167
49979W        W22239  35.629  35.038   3.814
49980W        W22240  10.544  28.613  14.845
49981W        W22241  25.384  33.322  10.628
49982W        W22242  20.556  21.195   3.300
49983W        W22243  43.284   8.837  13.782
49984W        W22244  27.948   4.384  13.655
49985W        W22245  30.938  15.650  10.672
49986W        W22246  28.611   7.480  14.878
49987W        W22247  16.351  40.901   1.713
49988W        W22248  44.323  41.018   4.369
49989W        W22249   0.883   7.634  13.826
49990W        W22250  33.462  34.149   4.121
49991W        W22251  42.884  42.948   0.726
49992W        W22252  21.758   0.671   0.670
49993W        W22253  20.332  25.026   1.771
49994W        W22254  24.947  34.420   2.245
49995W        W22255   7.304  12.659   3.604
49996W        W22256  18.684  35.366  10.545
49997W        W22257  30.574  20.118   2.294
49998W        W22258  30.085  14.242   3.713
49999W        W22259  18.268  11.392  12.034
50000W        W22260   7.547  38.536   1.868
50001W        W22261  19.575   8.924   0.989
50002W        W22262  29.723  35.493   1.304
50003W        W22263  20.966  24.673  14.955
50004W        W22264  35.664   2.706   3.067
50005W        W22265  40.421   2.912   4.219
50006W        W22266  19.652  30.186   2.862
50007W        W22267  11.588   9.765   4.652
50008W        W22268  14.187  30.806  10.535
50009W        W22269  26.556  11.377   3.806
50010W        W22270  27.026  14.273   1.795
50011W        W22271   1.363  18.684   0.127
50012W        W22272  33.179  27.667  10.632
50013W        W22273  31.644  27.532   4.721
50014W        W22274  33.642   1.848   2.175
50015W        W22275  24.627   1.135   4.721
50016W        W22276  23.603  31.132   4.083
50017W        W22277   8.253  37.138  13.376
50018W        W22278  22.844  38.936  10.634
50019W        W22279  21.997  34.095   3.827
50020W        W22280  10.057  34.720  11.499
50021W        W22281  10.916  17.872  14.868
50022W        W22282  44.035  36.893  14.313
50023W        W22283  30.400  20.644   1.243
50024W        W22284  13.422  38.560   1.393
50025W        W22285  35.943  44.064   3.190
50026W        W22286   6.770   4.208  11.247
50027W        W22287  39.510  22.084   4.627
50028W        W22288  44.266  17.067   0.474
50029W        W22289  40.010  33.384  12.462
50030W        W22290  41.727  30.262  10.286
50031W        W22291   3.330  37.106   2.689
50032W        W22292   4.575  38.023   1.555
50033W        W22293  34.710  24.690   0.471
50034W        W22294  15.384  27.969   4.686
50035W        W22295  32.403  22.330  12.848
50036W        W22296  38.910   0.268   1.511
50037W        W22297  38.540  35.097  14.533
50038W        W22298  16.211  23.567  13.481
50039W        W22299  39.560  42.108   0.955
50040W        W22300  28.167  18.051  11.244
50041W        W22301   9.218  29.030  10.430
50042W        W22302  34.497  30.961  13.361
50043W        W22303  26.561  19.779   5.049
50044W        W22304   7.203   0.938   0.862
50045W        W22305  39.781  22.841   0.266
50046W        W22306  43.255   1.652   0.683
50047W        W22307  21.001  28.036   0.426
50048W        W22308  23.566  22.956  12.485
50049W        W22309  13.271  31.410  10.582
50050W        W22310  43.793  28.584   3.576
50051W        W22311  39.970   6.383  10.621
50052W        W22312  17.794  34.004   0.346
50053W        W22313  14.171   1.515   2.247
50054W        W22314  23.543   6.896   3.900
50055W        W22315  26.522   3.876  14.350
50056W        W22316  16.569  23.607   0.691
50057W        W22317  39.026  20.362   1.750
50058W        W22318  17.701  29.258   0.875
50059W        W22319  26.727  39.505  14.451
50060W        W22320  34.284   6.235   2.335
50061W        W22321  18.775  11.526   1.736
50062W        W22322  43.465  26.641  10.893
50063W        W22323  42.937  30.584  14.127
50064W        W22324  18.111   9.276   3.766
50065W        W22325  39.718  25.551   0.001
50066W        W22326  33.287  23.066  14.925
50067W        W22327  11.187  12.198  11.996
50068W        W22328  16.475  36.351  14.442
50069W        W22329  29.445  22.554  11.183
50070W        W22330  31.868  37.627  14.396
50071W        W22331  31.201  42.895  10.824
50072W        W22332  18.818  20.717  13.948
50073W        W22333  38.900  35.039   4.175
50074W        W22334  25.651  26.732  12.530
50075W        W22335   1.115  32.057   5.051
50076W        W22336   4.573  32.482   2.660
50077W        W22337  34.015  22.467   0.782
50078W        W22338  15.303  10.626   4.638
50079W        W22339   5.074  29.937  13.519
50080W        W22340   8.317  12.116   0.891
50081W        W22341  15.886   3.324  11.536
50082W        W22342  36.942   1.298  14.066
50083W        W22343  39.303  15.160   4.716
50084W        W22344  32.162  36.589   0.447
50085W        W22345   6.468  11.136   1.893
50086W        W22346  22.823  23.043   2.761
50087W        W22347  35.568  42.662  11.530
50088W        W22348  39.989  17.581   2.345
50089W        W22349  34.840  41.838  12.857
50090W        W22350  13.909   9.015  13.502
50091W        W22351   3.984  11.160   3.579
50092W        W22352  21.865  10.771   0.323
50093W        W22353  32.607  32.207   2.154
50094W        W22354  42.537  11.283   3.676
50095W        W22355  43.882   3.071   4.905
50096W        W22356  42.304  13.753  13.891
50097W        W22357  36.011  27.689   4.206
50098W        W22358  33.930  33.371  10.679
50099W        W22359  21.131  22.971   3.254
50100W        W22360  38.095   3.376  11.078
50101W        W22361  24.734  43.972   4.737
50102W        W22362  14.783  34.291  12.470
50103W        W22363  26.424  15.944   1.012
50104W        W22364  42.242  26.002   0.369
50105W        W22365   6.262   4.349  14.354
50106W        W22366  27.771  12.431  14.886
50107W        W22367  22.102  28.399   4.533
50108W        W22368  32.691  16.679  10.634
50109W        W22369  44.300  40.341   3.566
50110W        W22370  36.160  43.521   2.361
50111W        W22371  35.161  16.811   4.511
50112W        W22372  44.541  34.583   4.123
50113W        W22373  43.251  21.195  13.781
50114W        W22374  44.241   4.646  11.578
50115W        W22375  14.156  32.923   1.735
50116W        W22376  22.018  31.366  14.490
50117W        W22377  21.473   9.451  12.004
50118W        W22378  40.913   4.718  12.008
50119W        W22379  30.716  22.562  14.246
50120W        W22380  22.084  25.151  10.545
50121W        W22381  28.673  22.505   1.748
50122W        W22382  41.997  16.881   3.428
50123W        W22383   3.689  33.515   1.464
50124W        W22384   0.459   8.934   0.925
50125W        W22385  22.662  27.358   2.287
50126W        W22386   7.943  38.984  12.166
50127W        W22387  32.414  43.847   0.534
50128W        W22388  12.644  30.144  10.704
50129W        W22389   7.230  20.810   1.890
50130W        W22390  23.276  36.964   2.858
50131W        W22391  24.071  35.249   2.006
50132W        W22392  41.016   8.438   1.129
50133W        W22393  21.687  37.157   2.452
50134W        W22394  30.355  10.722   4.771
50135W        W22395  36.390  18.016  11.594
50136W        W22396  38.182   0.977   4.191
50137W        W22397  36.386   9.016   0.739
50138W        W22398   7.243  38.121  11.072
50139W        W22399  37.044  33.846   0.375
50140W        W22400  34.856  31.217  12.035
50141W        W22401   5.645  37.530  14.333
50142W        W22402  11.739  11.584   0.781
50143W        W22403   4.785  28.402  12.436
50144W        W22404  16.131  36.925   4.793
50145W        W22405  22.788  33.039  13.881
50146W        W22406  28.046  28.991  12.158
50147W        W22407  29.430  32.168  12.833
50148W        W22408  10.441  20.736  10.372
50149W        W22409  28.580  34.523  14.805
50150W        W22410   3.504  43.958  13.889
50151W        W22411  40.884  14.720  14.349
50152W        W22412   2.990  18.540  10.760
50153W        W22413   0.503  12.952  11.575
50154W        W22414  33.442  33.518   1.851
50155W        W22415  23.463   3.966   0.983
50156W        W22416  13.515  42.029   0.288
50157W        W22417  34.402  28.911   4.392
50158W        W22418  43.959   0.967   2.827
50159W        W22419  24.111  12.841  10.684
50160W        W22420   2.027   7.243  10.755
50161W        W22421  18.312   8.964  10.163
50162W        W22422  34.433  25.008  14.243
50163W        W22423  44.483  41.455   4.560
50164W        W22424  23.754  25.488   4.172
50165W        W22425  32.206  29.037   1.428
50166W        W22426  36.189   7.015  12.612
50167W        W22427  44.884  40.291   4.971
50168W        W22428  33.548  25.428   1.581
50169W        W22429  39.528  12.757   1.475
50170W        W22430  13.078  39.794   4.064
50171W        W22431  10.758  24.095   1.434
50172W        W22432   3.790  17.382  11.512
50173W        W22433  26.753  33.067  10.602
50174W        W22434  18.707  31.859  11.979
50175W        W22435  12.697   3.182   1.899
50176W        W22436  10.816  31.368   0.615
50177W        W22437  25.020  36.065  13.151
50178W        W22438  42.399  32.225   4.894
50179W        W22439  23.778  42.042  10.333
50180W        W22440  40.112  28.973   4.704
50181W        W22441  36.371  25.975  14.937
50182W        W22442  19.648   5.348   1.082
50183W        W22443  17.184  17.628  11.932
50184W        W22444  26.156   8.354   2.210
50185W        W22445  33.674  36.540   1.711
50186W        W22446  40.874   7.512   0.674
50187W        W22447  13.628  30.122  14.761
50188W        W22448  40.675  22.110   1.153
50189W        W22449  34.500  40.407  10.418
50190W        W22450  44.357  33.503   0.970
50191W        W22451  16.018  28.426   2.145
50192W        W22452  39.045   9.136   3.562
50193W        W22453  12.740  33.067  10.790
50194W        W22454  24.961  11.068  11.574
50195W        W22455  42.766  18.920  12.190
50196W        W22456   1.290  15.395   2.976
50197W        W22457  18.083  24.938  12.968
50198W        W22458  41.589   4.735  11.187
50199W        W22459  38.499  28.656  12.447
50200W        W22460  13.708  25.487   0.331
50201W        W22461  16.263  40.857  13.067
50202W        W22462  22.462   9.125   0.393
50203W        W22463  14.624   2.230  14.777
50204W        W22464  18.552  39.042  14.420
50205W        W22465  36.242  16.022  13.930
50206W        W22466  23.584   0.438   1.193
50207W        W22467  39.964   4.288   2.388
50208W        W22468  31.437   9.815   5.006
50209W        W22469  16.867  27.072   3.301
50210W        W22470   6.653  18.594   0.631
50211W        W22471  37.301  26.994  12.429
50212W        W22472   9.444   8.755  13.927
50213W        W22473   5.160  20.764  12.462
50214W        W22474   5.813   5.587  14.596
50215W        W22475   0.778  34.276  14.891
50216W        W22476  32.154  24.561  11.528
50217W        W22477  24.538  36.155  11.581
50218W        W22478  43.368  39.910  14.043
50219W        W22479  11.943   9.658   4.242
50220W        W22480   6.865  25.725  14.178
50221W        W22481   2.858  11.641  10.563
50222W        W22482  24.290  35.121  14.974
50223W        W22483  27.244  29.619   0.792
50224W        W22484  22.851   5.111   0.790
50225W        W22485   3.182  18.886   2.353
50226W        W22486  15.136  35.073   4.671
50227W        W22487  27.898  42.828   3.331
50228W        W22488  33.107  31.264   2.513
50229W        W22489   1.261  12.016   0.986
50230W        W22490   8.686  23.137  14.857
50231W        W22491   8.876  13.331   0.422
50232W        W22492  41.501  24.413  12.935
50233W        W22493   9.783  42.178   4.855
50234W        W22494  42.305  15.924   1.040
50235W        W22495  11.455   4.365  12.082
50236W        W22496   8.811  20.102   2.338
50237W        W22497   6.843  21.443  10.921
50238W        W22498  35.540  10.923   1.390
50239W        W22499  44.040   8.259   1.753
50240W        W22500  29.543  25.247  13.862
50241W        W22501  34.998  42.120   3.724
50242W        W22502  25.979   2.886  12.546
50243W        W22503  27.970  41.451   0.956
50244W        W22504   0.809  24.706  14.761
50245W        W22505  43.248   4.107  12.936
50246W        W22506  39.681  19.767   2.954
50247W        W22507   6.574  15.892   1.648
50248W        W22508   4.915   9.690  14.311
50249W        W22509  11.474  34.474  11.630
50250W        W22510  36.320  26.215   0.454
50251W        W22511  18.716  39.582   1.785
50252W        W22512  20.101  31.269   3.356
50253W        W22513   1.786   1.261  14.071
50254W        W22514  10.733  42.935  13.596
50255W        W22515  24.867  37.829  12.024
50256W        W22516  13.477  21.131  11.631
50257W        W22517  24.197  28.626   0.681
50258W        W22518  16.028  30.809   2.368
50259W        W22519  29.110  38.490   2.323
50260W        W22520  24.464  34.140  10.782
50261W        W22521  15.060  11.085  13.485
50262W        W22522  35.469  33.608   1.375
50263W        W22523  28.176   7.845  12.281
50264W        W22524  17.269  12.405  14.980
50265W        W22525  37.385   8.430  14.735
50266W        W22526   8.677   0.855  12.099
50267W        W22527   9.247  44.447  11.140
50268W        W22528  40.266  24.525  14.538
50269W        W22529  23.513  14.210   1.251
50270W        W22530   5.091  29.048   3.704
50271W        W22531  16.367  11.220   4.914
50272W        W22532   5.279   0.513   4.059
50273W        W22533   1.283  10.261  10.764
50274W        W22534  11.319  41.818  11.671
50275W        W22535  10.938  21.212  10.523
50276W        W22536   3.248  24.384  12.360
50277W        W22537  24.037  32.946   0.969
50278W        W22538  23.945  18.185  10.514
50279W        W22539   2.999  31.836  12.009
50280W        W22540  20.673  26.615   4.649
50281W        W22541  42.966  25.403  14.492
50282W        W22542  35.977   4.991   0.309
50283W        W22543  20.580   6.645   4.162
50284W        W22544  38.137  35.201   3.685
50285W        W22545  43.421  25.463  11.878
50286W        W22546   9.025  35.635   0.846
50287W        W22547  35.876  17.362  12.455
50288W        W22548  38.879  42.497  10.653
50289W        W22549  33.459  29.566  10.216
50290W        W22550  28.083  11.696  13.430
50291W        W22551  15.535  23.696  14.413
50292W        W22552   0.771  21.991   1.513
50293W        W22553  32.171  40.812   2.490
50294W        W22554  17.998  38.595  11.890
50295W        W22555  20.701  10.492   4.762
50296W        W22556  10.628  34.511   2.748
50297W        W22557   5.715  19.022  13.895
50298W        W22558  14.695  27.788  12.784
50299W        W22559  28.592  43.243   2.123
50300W        W22560  11.435  34.831   1.207
50301W        W22561  11.903   2.955   0.240
50302W        W22562  42.855  13.727   4.781
50303W        W22563  40.880   2.581  10.724
50304W        W22564  17.685   5.629   9.604
50305W        W22565   6.708  21.382   1.121
50306W        W22566  23.539  35.354  13.410
50307W        W22567  25.911   4.646   4.336
50308W        W22568  29.489  42.650   2.673
50309W        W22569  33.435  27.105  10.691
50310W        W22570  23.552  30.900  13.542
50311W        W22571  10.886  29.877  13.277
50312W        W22572   3.962  21.145   2.111
50313W        W22573  25.500  15.555  12.461
50314W        W22574  38.579  18.599   1.283
50315W        W22575  10.096  43.564  10.788
50316W        W22576  20.778  43.402  10.576
50317W        W22577   9.632  11.085  14.255
50318W        W22578  11.830  25.670  11.263
50319W        W22579  17.004   0.995   0.949
50320W        W22580  23.642  40.871  14.044
50321W        W22581   9.682  18.212  13.967
50322W        W22582  39.941   3.940  14.380
50323W        W22583  39.101  31.476   4.206
50324W        W22584  33.437   8.384  13.840
50325W        W22585  17.761  26.992   4.816
50326W        W22586  22.158  30.040  10.685
50327W        W22587   1.874  32.788   4.644
50328W        W22588  28.492  20.059  12.609
50329W        W22589  36.443  38.792  14.375
50330W        W22590   3.904   0.825  14.878
50331W        W22591  37.857  31.617   3.679
50332W        W22592   5.427  15.752  13.242
50333W        W22593  21.449  37.643   3.755
50334W        W22594   5.406  19.927  13.584
50335W        W22595  43.450  29.625   1.940
50336W        W22596  34.860  13.814  11.525
50337W        W22597  30.252   8.118   0.030
50338W        W22598   7.454  33.039   1.426
50339W        W22599  42.936  17.242   4.698
50340W        W22600  44.085  28.182  10.533
50341W        W22601   4.781  33.443  12.044
50342W        W22602  39.490  22.650  11.642
50343W        W22603  13.073  44.074   1.674
50344W        W22604  35.950  12.411  12.551
50345W        W22605   6.227  35.520   0.446
50346W        W22606   5.506  39.261   3.612
50347W        W22607  41.626  30.285  11.893
50348W        W22608  23.679   2.018  10.636
50349W        W22609  39.778  37.542  11.250
50350W        W22610  15.347  24.150  11.627
50351W        W22611   8.826  22.243  14.313
50352W        W22612   4.406  12.089  12.487
50353W        W22613  25.401  34.760   0.717
50354W        W22614  25.321  35.628   1.972
50355W        W22615  26.561  23.495  14.583
50356W        W22616  25.185  14.251  14.362
50357W        W22617  18.361  26.192  14.313
50358W        W22618  36.647  22.741  12.969
50359W        W22619  21.334  30.739  13.047
50360W        W22620  31.520  14.629   1.634
50361W        W22621  16.020   9.403  12.608
50362W        W22622  41.824  13.479   1.265
50363W        W22623   5.244  23.215  10.719
50364W        W22624  15.065   3.472  13.039
50365W        W22625  26.179   3.283   1.281
50366W        W22626   1.455   3.708   4.395
50367W        W22627  19.746  32.717  11.084
50368W        W22628  20.804  20.710   4.195
50369W        W22629  41.898  44.896   1.856
50370W        W22630  17.158  19.840   1.795
50371W        W22631   3.980   4.254  11.142
50372W        W22632   7.491   5.882   1.934
50373W        W22633  34.847  33.459  12.851
50374W        W22634  11.631  11.190   3.306
50375W        W22635  27.028   2.214   0.382
50376W        W22636   3.872  38.892   1.800
50377W        W22637  38.759  24.093  12.063
50378W        W22638   9.799  14.087   1.677
50379W        W22639  28.896  43.632  10.957
50380W        W22640  38.454  12.213   1.650
50381W        W22641  26.100  34.015   4.626
50382W        W22642  24.075   4.142  12.929
50383W        W22643  30.746  18.366  11.116
50384W        W22644  15.794  40.155  12.422
50385W        W22645  22.009  41.367  14.964
50386W        W22646  21.616   7.846   1.445
50387W        W22647  14.832  20.017  13.528
50388W        W22648  43.120  34.332   2.077
50389W        W22649   6.399   8.915  13.943
50390W        W22650  22.314   6.574  14.795
50391W        W22651  44.059  25.203   0.824
50392W        W22652  21.145  20.021  12.025
50393W        W22653  32.408   4.669  14.350
50394W        W22654  12.760  33.115   3.945
50395W        W22655  15.049  31.595  11.947
50396W        W22656  21.940  23.980   0.420
50397W        W22657   7.965   9.266   4.256
50398W        W22658  24.703   2.352   1.886
50399W        W22659  42.585  28.588  14.245
50400W        W22660  25.904  33.376  10.698
50401W        W22661  41.805  12.580  11.129
50402W        W22662   9.384  18.100  14.872
50403W        W22663  28.164  33.914  13.067
50404W        W22664  11.369  39.870  11.660
50405W        W22665   5.137  18.930   3.256
50406W        W22666  25.163  21.030   1.391
50407W        W22667  21.682  31.070   1.006
50408W        W22668   9.615  44.817   1.257
50409W        W22669  27.017   7.770   2.175
50410W        W22670   9.300  15.563   2.926
50411W        W22671  41.586   2.269   2.047
50412W        W22672  43.975  34.996  10.859
50413W        W22673  26.534   8.539   5.139
50414W        W22674   1.539  43.408   1.916
50415W        W22675  34.548   0.998  14.916
50416W        W22676   2.765  37.411   3.511
50417W        W22677  37.059  28.408  11.627
50418W        W22678  36.344  37.793   4.550
50419W        W22679  16.249  40.616  11.205
50420W        W22680  35.416   5.749   3.383
50421W        W22681   4.449  21.281   1.381
50422W        W22682  37.499  34.179  10.246
50423W        W22683   9.096  11.382  12.960
50424W        W22684   6.344  31.483   1.427
50425W        W22685  17.329  15.621   1.471
50426W        W22686  33.927  35.857   3.638
50427W        W22687  28.536  38.183   4.602
50428W        W22688  16.107  12.320   1.871
50429W        W22689  34.367  23.631   3.556
50430W        W22690  36.609  29.980   4.775
50431W        W22691   3.292   9.146  12.608
50432W        W22692  17.801  36.900  13.536
50433W        W22693  36.158  26.730   1.308
50434W        W22694  12.322  20.154  14.393
50435W        W22695   2.343  21.207   3.752
50436W        W22696   8.150  26.970  13.818
50437W        W22697  12.691   3.977   3.650
50438W        W22698   3.669  31.914   2.355
50439W        W22699  18.935  25.730  12.462
50440W        W22700  36.974  27.482   0.394
50441W        W22701  35.861  24.575   4.844
50442W        W22702  40.412  24.517   3.044
50443W        W22703  33.928   3.828  10.389
50444W        W22704  36.920  15.832   4.632
50445W        W22705  44.523  11.327  10.202
50446W        W22706  29.083   5.307   0.752
50447W        W22707  31.490   9.168   2.863
50448W        W22708  42.547   7.485  13.942
50449W        W22709   7.819  13.452  12.955
50450W        W22710  35.520  21.534   1.251
50451W        W22711   3.967  15.206  10.849
50452W        W22712   8.392  11.377   0.451
50453W        W22713  18.406  43.888  14.920
50454W        W22714   6.807  13.919   4.839
50455W        W22715  30.241  16.585  12.779
50456W        W22716  36.403  23.912  11.126
50457W        W22717   9.741  43.170   4.874
50458W        W22718  17.715  12.205  14.728
50459W        W22719  11.277  18.623   0.286
50460W        W22720  24.960  13.315   3.897
50461W        W22721  17.514  21.159  12.629
50462W        W22722  35.394   4.751   4.406
50463W        W22723  30.648  11.694   0.808
50464W        W22724  31.989  33.479  11.908
50465W        W22725  29.982  12.069  13.373
50466W        W22726   0.941  30.280  11.418
50467W        W22727  31.464  44.796  10.661
50468W        W22728   5.160  15.240  14.055
50469W        W22729  25.115   1.403   3.044
50470W        W22730  27.900  44.519   2.776
50471W        W22731  16.335  26.645   0.327
50472W        W22732  41.623  25.040  14.479
50473W        W22733  12.297  30.668   5.240
50474W        W22734   3.510  20.005   0.487
50475W        W22735  42.664  36.078   4.210
50476W        W22736  19.222   3.140  12.921
50477W        W22737  18.191   9.380  12.388
50478W        W22738  18.547  11.663   2.588
50479W        W22739  38.890  34.467   3.748
50480W        W22740   4.450   2.581   2.851
50481W        W22741  33.063  25.076   2.229
50482W        W22742  37.459   2.453   1.382
50483W        W22743  16.571  42.940  11.664
50484W        W22744  20.986  33.911   4.020
50485W        W22745  29.636   9.735  12.659
50486W        W22746  29.752  37.362   3.233
50487W        W22747  12.837  40.400   1.381
50488W        W22748  20.946   8.375   2.817
50489W        W22749   1.065   6.424  10.935
50490W        W22750  11.158  16.194   4.774
50491W        W22751  22.527  43.667  14.746
50492W        W22752  18.248  44.342   1.968
50493W        W22753   0.663  12.747   4.494
50494W        W22754  11.651   0.260   4.701
50495W        W22755   3.986  33.314  11.600
50496W        W22756  19.715  28.096  11.868
50497W        W22757  13.477  11.820  11.251
50498W        W22758  26.666  20.588   4.393
50499W        W22759  44.234  36.020   1.939
50500W        W22760  18.630   8.634   3.419
50501W        W22761   6.341  19.842  10.787
50502W        W22762   2.858  33.080   0.805
50503W        W22763   4.564   6.512  13.093
50504W        W22764  35.542  12.074   0.958
50505W        W22765  27.403  32.165   2.844
50506W        W22766  31.659   1.388  12.028
50507W        W22767   0.325  20.965  14.782
50508W        W22768  30.099  35.382   4.942
50509W        W22769  43.215   8.499   3.928
50510W        W22770  25.989  33.014   4.758
50511W        W22771  14.528  16.584   2.293
50512W        W22772  29.581  34.949   3.893
50513W        W22773  19.516  25.908   3.267
50514W        W22774  27.131  18.150   1.299
50515W        W22775  32.474  40.291  10.622
50516W        W22776  42.831   4.345  14.162
50517W        W22777  34.679  44.841   0.424
50518W        W22778  36.584  33.419  10.269
50519W        W22779   2.953  17.525  13.800
50520W        W22780  11.005   5.072  12.977
50521W        W22781  26.910   3.652   0.347
50522W        W22782  14.349   9.220   4.111
50523W        W22783   8.720  29.151  11.612
50524W        W22784   2.569  13.639   1.360
50525W        W22785  31.279  35.012  13.890
50526W        W22786  16.354   6.206   3.384
50527W        W22787   7.716   6.663  13.124
50528W        W22788  31.608  11.827  14.220
50529W        W22789  36.457  10.296  12.823
50530W        W22790  10.090   3.311  12.275
50531W        W22791  43.581  43.256  13.542
50532W        W22792   7.456  22.019  13.894
50533W        W22793  43.312  19.587   0.058
50534W        W22794  19.678  11.815  12.439
50535W        W22795  44.294  26.116   2.808
50536W        W22796  27.116  26.087   0.368
50537W        W22797  42.520   1.825   2.663
50538W        W22798  25.519  36.884  11.637
50539W        W22799  14.832  30.279  11.073
50540W        W22800  35.458  40.270   0.684
50541W        W22801  26.174   9.603   0.050
50542W        W22802   9.216  34.665  14.423
50543W        W22803  27.022  29.676   2.317
50544W        W22804  23.580   4.293   4.658
50545W        W22805  24.857   6.597   1.270
50546W        W22806  11.867  17.792  10.453
50547W        W22807  27.131  26.165   2.253
50548W        W22808  29.072  42.314   2.757
50549W        W22809  25.719  17.043   4.209
50550W        W22810  10.236   8.653   1.263
50551W        W22811  10.195  35.613  14.977
50552W        W22812  43.874   2.548   3.195
50553W        W22813  43.347  17.139  10.879
50554W        W22814  36.611  22.118  10.979
50555W        W22815  26.039  26.484  14.897
50556W        W22816  37.487   6.753  12.176
50557W        W22817   8.040  21.080   5.047
50558W        W22818   3.713  24.695   4.878
50559W        W22819  41.132  30.529  14.395
50560W        W22820  42.583  19.651  11.586
50561W        W22821  27.593  44.521  10.603
50562W        W22822   7.496  38.792   0.806
50563W        W22823   3.696  37.002   4.720
50564W        W22824  36.837  16.830   4.616
50565W        W22825  40.768   0.355  10.643
50566W        W22826  39.247  20.169   0.440
50567W        W22827  39.740  39.996  13.440
50568W        W22828   2.865  35.843   4.191
50569W        W22829  35.446  34.877  11.364
50570W        W22830  44.913   5.820   1.721
50571W        W22831   3.942  10.754   2.815
50572W        W22832  16.519  38.019  10.710
50573W        W22833   2.053  36.047   3.170
50574W        W22834  13.192   8.869   2.772
50575W        W22835  44.028   2.288   3.692
50576W        W22836   8.693   3.714  12.079
50577W        W22837   9.370   5.340   4.622
50578W        W22838   0.459   7.482  12.234
50579W        W22839  22.450  13.078   3.085
50580W        W22840  35.369  18.600   2.951
50581W        W22841  37.504  32.157  14.938
50582W        W22842  33.132  37.023   0.249
50583W        W22843  27.525   8.540   2.918
50584W        W22844  42.216  26.587   3.786
50585W        W22845   1.202  15.549  14.021
50586W        W22846  10.534   7.077  11.821
50587W        W22847  44.239  33.247  14.464
50588W        W22848  38.631  39.288   3.390
50589W        W22849  37.838  11.741  10.183
50590W        W22850  28.874  43.749   1.318
50591W        W22851  34.728  21.307  12.986
50592W        W22852  33.095  20.279   2.254
50593W        W22853  29.018  10.186   3.384
50594W        W22854  23.852  34.817  11.649
50595W        W22855  23.333  39.043  11.431
50596W        W22856  22.448  32.004   1.811
50597W        W22857  19.181   2.269  12.728
50598W        W22858   2.040  35.764  14.541
50599W        W22859  31.478   5.034  11.645
50600W        W22860   4.226  18.496   3.177
50601W        W22861  40.349  28.089  13.054
50602W        W22862  12.730  20.646  13.917
50603W        W22863  22.026  33.360   1.943
50604W        W22864  18.537  18.029  12.205
50605W        W22865  38.479  15.671   2.707
50606W        W22866  42.019  10.821   2.601
50607W        W22867   0.196  13.790   1.934
50608W        W22868  19.361  39.347  14.277
50609W        W22869   9.733  14.192   2.190
50610W        W22870   3.676  34.685   1.342
50611W        W22871  21.659  43.437   0.300
50612W        W22872   9.604   8.861   3.353
50613W        W22873  34.099  18.039  11.186
50614W        W22874  24.000  40.475   3.927
50615W        W22875  27.138  36.413  11.989
50616W        W22876   0.259   7.131  11.229
50617W        W22877  39.543  12.191   1.753
50618W        W22878  42.485  31.393   2.764
50619W        W22879  23.766  33.579   0.708
50620W        W22880  32.955  24.649   1.937
50621W        W22881  30.039  42.901   0.912
50622W        W22882  11.739  40.319   0.858
50623W        W22883   1.182  14.148  12.998
50624W        W22884   3.288  32.207  10.378
50625W        W22885  25.177  13.347  13.020
50626W        W22886  41.897  38.613   0.893
50627W        W22887  13.854  21.571  12.446
50628W        W22888  19.745  20.793  13.278
50629W        W22889  29.857  33.923   0.039
50630W        W22890   0.829  25.628  13.078
50631W        W22891  27.150  22.996  13.916
50632W        W22892  26.154  22.086  12.800
50633W        W22893   8.215  36.930   0.997
50634W        W22894   4.936  20.733   3.422
50635W        W22895  30.203  37.888   0.207
50636W        W22896  27.016   5.247  13.054
50637W        W22897   1.201  29.605   0.352
50638W        W22898  36.071  15.619   3.930
50639W        W22899  12.688  23.771   4.043
50640W        W22900  40.834  16.154  13.810
50641W        W22901  15.669  21.087  11.948
50642W        W22902  31.956   3.398  11.159
50643W        W22903  24.509  20.550  13.366
50644W        W22904  32.249  42.714   4.250
50645W        W22905  21.483  13.142   3.260
50646W        W22906  42.927  22.992   2.223
50647W        W22907  23.029  30.533  10.236
50648W        W22908  38.032  22.203  14.941
50649W        W22909  21.106  26.918  12.367
50650W        W22910   2.805  26.760  10.483
50651W        W22911   4.650  30.318   1.233
50652W        W22912   2.368   1.880   2.674
50653W        W22913   3.445  23.472   0.765
50654W        W22914  33.134  38.299   2.839
50655W        W22915  40.058  11.603  10.758
50656W        W22916  21.459  43.768  11.221
50657W        W22917  34.087   6.902  11.681
50658W        W22918  34.389   2.550   2.961
50659W        W22919  30.611   5.145  10.664
50660W        W22920  30.082   9.376   1.633
50661W        W22921   6.215  25.426   1.881
50662W        W22922  30.911  11.307   2.430
50663W        W22923  33.608  34.708   5.065
50664W        W22924  43.422   4.936   2.231
50665W        W22925  37.997  10.418  11.419
50666W        W22926   6.946  11.188  13.537
50667W        W22927  37.278  21.797  14.889
50668W        W22928  41.339  25.810  13.967
50669W        W22929  38.458  17.859  13.023
50670W        W22930   5.441  32.160  10.696
50671W        W22931   2.310  25.532   3.996
50672W        W22932  26.205  14.324   4.579
50673W        W22933  32.536  26.485   2.707
50674W        W22934  33.158  11.308   2.320
50675W        W22935  33.511  35.177   4.189
50676W        W22936  43.753  42.397  14.795
50677W        W22937  31.958   0.976  12.387
50678W        W22938   4.154   7.719   2.963
50679W        W22939  44.724  37.963  12.128
50680W        W22940  43.673  34.194   4.170
50681W        W22941  15.931  34.612  11.043
50682W        W22942  18.670  30.126  14.875
50683W        W22943  16.327   3.902   0.820
50684W        W22944  43.888  37.451  14.974
50685W        W22945  23.924  29.542   2.246
50686W        W22946  16.641   1.585   3.596
50687W        W22947   9.255   5.238  10.740
50688W        W22948  13.830  28.068  13.423
50689W        W22949  36.203  39.251   3.683
50690W        W22950  22.258  44.247   0.970
50691W        W22951  23.180  19.583   0.377
50692W        W22952  23.186  18.868  14.431
50693W        W22953   4.469  22.530  12.379
50694W        W22954  44.457   1.650   3.679
50695W        W22955  38.837  36.860  12.025
50696W        W22956  30.452   7.965   2.677
50697W        W22957   0.956   4.689  12.542
50698W        W22958  20.428  13.646  13.726
50699W        W22959  15.794  11.423   3.319
50700W        W22960  31.010  20.081   4.181
50701W        W22961  14.290  25.701   3.136
50702W        W22962   4.464  12.834  11.149
50703W        W22963  44.461  26.101  11.618
50704W        W22964  26.974  20.541  12.420
50705W        W22965  36.916   5.438  12.539
50706W        W22966   8.345  17.014  14.094
50707W        W22967   0.007  34.954  10.661
50708W        W22968   9.248  27.724  11.079
50709W        W22969  13.224  19.236   4.541
50710W        W22970  34.356   2.830  13.587
50711W        W22971  21.590  19.036  10.702
50712W        W22972   1.303  38.617  14.376
50713W        W22973  36.854  25.392   4.026
50714W        W22974  36.322  35.695  10.899
50715W        W22975  42.823  32.891   0.976
50716W        W22976  38.452  15.550   3.676
50717W        W22977  32.578  25.971  11.667
50718W        W22978  19.627  25.916   4.202
50719W        W22979  37.030  43.008  11.248
50720W        W22980  18.406   7.922   0.298
50721W        W22981  39.050  27.640   0.706
50722W        W22982  19.988  38.641   0.840
50723W        W22983  44.770  43.569  13.472
50724W        W22984  28.956   5.331  14.807
50725W        W22985  44.537  25.628   4.193
50726W        W22986  18.387  20.185  11.642
50727W        W22987  24.166  30.270   2.573
50728W        W22988  38.725  35.763   2.963
50729W        W22989  26.148  27.156  13.449
50730W        W22990  10.889  16.459  11.099
50731W        W22991  34.397   2.670   3.484
50732W        W22992  44.330  26.495   3.148
50733W        W22993   9.850   7.672   2.325
50734W        W22994  25.117  43.818   1.962
50735W        W22995  15.685  34.822  12.840
50736W        W22996  29.066  39.099  10.702
50737W        W22997  10.181  33.766  13.921
50738W        W22998  15.554  42.211  11.557
50739W        W22999  43.342   1.311  13.335
50740W        W23000  26.959  17.967  11.593
50741W        W23001  22.281   4.910   3.625
50742W        W23002   9.620   5.159   4.182
50743W        W23003  28.014  41.000   2.210
50744W        W23004  27.866  25.978   4.173
50745W        W23005   2.604  44.129   1.107
50746W        W23006  35.531  37.355   1.198
50747W        W23007   7.913  26.947   0.897
50748W        W23008  17.073  31.051  14.088
50749W        W23009  44.420  22.206   0.907
50750W        W23010   2.526   7.829   4.639
50751W        W23011  34.342  39.019  10.356
50752W        W23012  19.531  28.255   2.762
50753W        W23013  16.534  33.926   2.305
50754W        W23014  18.950  20.481   4.564
50755W        W23015  12.290  17.512   0.802
50756W        W23016  20.619  19.167   0.462
50757W        W23017  42.345   0.663   0.812
50758W        W23018   6.768  22.645   1.008
50759W        W23019  41.018  39.977  14.318
50760W        W23020   9.383   4.352  11.889
50761W        W23021   0.676   0.925   1.927
50762W        W23022  19.888  42.932   2.730
50763W        W23023  17.520  13.844  13.127
50764W        W23024  35.001  34.607   5.152
50765W        W23025   6.329  19.479   2.266
50766W        W23026   5.486  32.635   4.161
50767W        W23027   6.214  30.224  13.432
50768W        W23028  34.042  44.975  12.927
50769W        W23029  27.476  13.353   2.696
50770W        W23030  10.230  27.490   2.359
50771W        W23031  10.212  42.998  13.774
50772W        W23032   9.440  37.970  13.353
50773W        W23033  43.711  13.578  14.031
50774W        W23034   6.750  26.683   2.126
50775W        W23035  18.076   7.912  11.548
50776W        W23036   8.270   8.377  12.492
50777W        W23037  26.510   9.824  11.969
50778W        W23038   9.592  24.956  14.930
50779W        W23039  17.882  27.059   3.418
50780W        W23040  30.181  35.349  11.501
50781W        W23041  34.600   8.337   0.152
50782W        W23042  23.466  23.963  11.732
50783W        W23043  35.023   0.464  10.980
50784W        W23044  43.801  42.456   1.396
50785W        W23045  43.555  32.906   0.283
50786W        W23046  18.029  20.134  11.143
50787W        W23047  44.503  39.330   2.803
50788W        W23048  23.212   2.476   3.327
50789W        W23049   7.218  36.420   0.883
50790W        W23050  22.732  33.209   4.513
50791W        W23051  44.738  16.084   4.216
50792W        W23052  26.703  31.590   0.154
50793W        W23053  27.494   1.276  11.295
50794W        W23054  28.181  20.166  13.929
50795W        W23055  30.654  11.737  14.844
50796W        W23056  36.305  21.673  11.110
50797W        W23057  40.985  22.029   3.760
50798W        W23058   5.904  40.936  12.623
50799W        W23059   8.827  24.922  13.373
50800W        W23060  29.865  28.412   3.691
50801W        W23061  11.730  19.519  14.319
50802W        W23062  12.204  30.117  10.029
50803W        W23063  12.660  13.110   4.397
50804W        W23064  21.041  22.666  11.554
50805W        W23065  22.903  43.988  11.780
50806W        W23066   5.918   6.313   1.406
50807W        W23067   1.004   9.862   0.287
50808W        W23068  12.670  19.538   0.372
50809W        W23069  26.223   8.452   0.338
50810W        W23070   5.686  40.135  11.187
50811W        W23071  40.977   0.938  12.016
50812W        W23072  23.307  28.165   5.011
50813W        W23073  36.822  24.531   3.094
50814W        W23074  41.223  22.253   2.167
50815W        W23075   0.791  44.375   3.056
50816W        W23076  39.788  14.074  11.207
50817W        W23077  24.218  15.456  10.250
50818W        W23078  34.052  27.494  12.600
50819W        W23079  34.119  13.229  13.881
50820W        W23080  35.049  18.711  12.178
50821W        W23081  29.867  24.763  11.271
50822W        W23082   2.856  16.365   1.255
50823W        W23083  26.487  34.112  12.012
50824W        W23084  12.659  30.221   9.759
50825W        W23085  30.813  11.790   2.279
50826W        W23086  12.321  24.540   2.103
50827W        W23087  14.753  36.142  13.284
50828W        W23088  27.114  13.514   4.488
50829W        W23089   7.417   3.384   3.137
50830W        W23090  36.383  35.687   0.224
50831W        W23091  14.847  15.196  10.233
50832W        W23092   7.680  36.016   3.576
50833W        W23093   2.279  37.809  14.953
50834W        W23094  31.016  20.158  11.648
50835W        W23095  34.877  23.176   2.257
50836W        W23096  32.617   8.877  12.013
50837W        W23097  25.965  11.561  14.440
50838W        W23098  21.786  25.623   0.763
50839W        W23099   0.458  29.226  10.391
50840W        W23100  44.516  33.819  11.127
50841W        W23101  20.485  34.382  11.626
50842W        W23102  44.069  20.082   3.789
50843W        W23103  11.083   1.408  12.519
50844W        W23104  27.538  10.147  11.565
50845W        W23105  10.220  29.387   2.796
50846W        W23106  16.083  34.992   4.583
50847W        W23107  30.376  26.108  12.912
50848W        W23108  10.141   7.350  13.400
50849W        W23109  27.106   3.809  14.479
50850W        W23110  11.613   3.324  11.144
50851W        W23111  15.665   9.413  13.958
50852W        W23112  14.731  21.961   2.768
50853W        W23113  30.925  25.895   3.029
50854W        W23114   0.525  29.178  13.020
50855W        W23115  42.614  16.147   3.167
50856W        W23116   3.820   1.650  13.033
50857W        W23117  33.871  13.852  11.918
50858W        W23118  21.007  15.205  12.515
50859W        W23119   8.828   9.164  14.369
50860W        W23120  41.840   9.262  11.199
50861W        W23121   3.916  14.730  11.098
50862W        W23122  10.897  16.242   2.328
50863W        W23123  22.906  11.664   5.118
50864W        W23124  22.842   6.355   3.257
50865W        W23125  22.131  29.940  12.112
50866W        W23126  35.108  12.870   0.914
50867W        W23127  21.072  20.498   3.774
50868W        W23128   4.858  18.952   3.746
50869W        W23129  21.637   6.918   2.139
50870W        W23130   8.335  14.954  12.107
50871W        W23131  22.699   3.512   3.236
50872W        W23132   3.254  26.537  10.263
50873W        W23133  20.214  13.787   1.399
50874W        W23134  28.944  14.754   0.795
50875W        W23135  25.656  23.525  12.241
50876W        W23136  28.593   1.761   0.695
50877W        W23137  37.325  16.398   2.781
50878W        W23138  33.008  24.192   1.709
50879W        W23139  38.511  31.710   2.374
50880W        W23140  16.960   2.436   0.391
50881W        W23141   8.106  37.476   4.738
50882W        W23142  13.529  44.226   1.909
50883W        W23143  41.302   1.759  13.828
50884W        W23144  32.141  21.569  12.900
50885W        W23145  18.117  20.736   3.281
50886W        W23146   5.472  25.787  12.833
50887W        W23147  26.523  12.008   4.976
50888W        W23148   8.201   8.958  12.137
50889W        W23149  34.937   8.356  11.097
50890W        W23150  29.613  23.053   1.199
50891W        W23151   8.023  27.365  14.953
50892W        W23152  33.703  22.492   2.645
50893W        W23153  39.995   9.135  14.336
50894W        W23154   4.296  32.525  11.095
50895W        W23155  44.257  26.047  11.154
50896W        W23156  36.212  44.350   2.346
50897W        W23157   8.786  21.197   2.707
50898W        W23158   3.178  37.542   3.779
50899W        W23159  17.932   6.700   0.913
50900W        W23160   8.722  44.334  13.493
50901W        W23161  19.595  34.340  13.256
50902W        W23162  22.200   3.699   1.434
50903W        W23163  27.555  21.224   2.314
50904W        W23164  11.394   8.601   0.933
50905W        W23165  25.116  24.735   4.165
50906W        W23166  13.658  23.987  14.866
50907W        W23167  22.724  23.127  11.059
50908W        W23168  30.439  42.023   0.382
50909W        W23169  12.237  23.864  11.121
50910W        W23170  35.610   5.563   0.995
50911W        W23171  39.401  36.007  14.284
50912W        W23172  44.850  18.113   3.216
50913W        W23173  20.459   7.757   4.052
50914W        W23174  40.865  43.257   4.479
50915W        W23175   0.431  26.503   0.971
50916W        W23176   9.629  41.098   0.611
50917W        W23177  11.938   2.329   1.880
50918W        W23178   0.179   8.356  12.347
50919W        W23179  17.425  31.453   0.355
50920W        W23180  39.515  27.158  11.159
50921W        W23181  23.451  27.629   2.045
50922W        W23182  33.284  22.015  14.850
50923W        W23183  39.903  32.543  12.591
50924W        W23184  15.298  17.167   5.444
50925W        W23185   3.064  12.559   2.827
50926W        W23186  37.841  31.056  12.157
50927W        W23187  17.155  22.940   1.577
50928W        W23188  13.609  39.361   0.984
50929W        W23189  44.467  44.933   4.162
50930W        W23190  41.970  27.497  12.368
50931W        W23191  16.308  11.616  13.390
50932W        W23192  14.237  13.124  14.968
50933W        W23193  15.098  15.370  11.463
50934W        W23194  18.500  41.042   1.855
50935W        W23195  22.609  37.481  14.350
50936W        W23196  33.603   2.923  14.301
50937W        W23197  18.289  27.683   3.605
50938W        W23198   0.997   4.451   4.124
50939W        W23199  21.492  41.328  13.716
50940W        W23200  43.994  41.524  12.913
50941W        W23201  12.387  10.688   4.165
50942W        W23202  36.776  30.118  10.418
50943W        W23203  30.264  34.351   0.809
50944W        W23204  17.638  28.914  11.631
50945W        W23205  39.407  18.508   4.839
50946W        W23206   4.747   3.667   3.868
50947W        W23207  40.789  28.592  13.393
50948W        W23208  10.229  20.474  14.904
50949W        W23209   3.517  18.366  13.586
50950W        W23210  10.394  40.082  14.491
50951W        W23211  22.790  10.887  14.378
50952W        W23212  37.826   9.850  12.270
50953W        W23213  26.066  37.489  11.037
50954W        W23214  13.110  33.043   1.418
50955W        W23215   2.173  26.073  12.494
50956W        W23216  33.605  26.969   1.401
50957W        W23217  38.773   6.744  10.993
50958W        W23218   4.148  10.309   3.842
50959W        W23219  20.717  27.068   1.864
50960W        W23220  18.651  25.998   3.178
50961W        W23221  30.724  18.020   0.838
50962W        W23222   4.657  16.241   0.511
50963W        W23223  10.863   4.732   4.244
50964W        W23224  40.069  41.438  10.759
50965W        W23225  19.650  23.509   1.335
50966W        W23226   4.756  13.733  12.059
50967W        W23227  15.168  29.420   4.434
50968W        W23228  22.573  24.511  10.578
50969W        W23229  42.930   8.983   1.736
50970W        W23230  29.753  38.244   4.090
50971W        W23231   6.030  18.759  12.571
50972W        W23232  22.590  21.345   0.685
50973W        W23233  44.939  17.592   3.353
50974W        W23234  17.997   8.727   2.618
50975W        W23235   7.771  12.101   3.169
50976W        W23236  31.976  22.062  14.545
50977W        W23237   6.324  13.092   3.646
50978W        W23238  15.355  43.197  12.991
50979W        W23239   8.235  24.436   1.809
50980W        W23240  41.000  37.254  12.557
50981W        W23241  18.512  38.818   2.201
50982W        W23242   9.172  29.851   0.566
50983W        W23243  33.884   5.172  13.855
50984W        W23244  34.365  27.373   2.205
50985W        W23245  39.060  44.561   9.997
50986W        W23246  37.181   1.221   4.086
50987W        W23247  21.325  36.055   4.587
50988W        W23248  25.910  21.890  11.872
50989W        W23249  18.161  20.235   3.223
50990W        W23250  11.091   8.250  12.684
50991W        W23251  37.260  35.423   0.652
50992W        W23252  25.686  39.775  13.001
50993W        W23253  44.762  19.201   3.319
50994W        W23254  24.761   8.937  13.905
50995W        W23255  15.136  25.977  10.705
50996W        W23256   8.584   5.939   3.415
50997W        W23257  14.537   3.372   0.697
50998W        W23258  25.326  14.100  11.977
50999W        W23259  41.561  36.981   3.852
51000W        W23260  35.391  16.248   1.928
51001W        W23261  13.524  15.655   1.576
51002W        W23262  13.004  37.222  13.798
51003W        W23263   1.470  13.569  14.060
51004W        W23264  12.366   5.866  11.693
51005W        W23265  24.485  18.726   4.609
51006W        W23266  31.037   6.694  11.150
51007W        W23267  24.019  38.910  11.953
51008W        W23268  44.401  35.022  11.998
51009W        W23269  25.222  42.569   1.460
51010W        W23270  36.276  31.091   1.116
51011W        W23271  33.298  18.081   2.879
51012W        W23272  31.000   4.307   3.351
51013W        W23273  10.881  38.779   4.181
51014W        W23274  16.360  31.765  12.151
51015W        W23275  17.838  11.692  13.279
51016W        W23276  20.723  32.954  14.873
51017W        W23277  34.348   9.819   3.720
51018W        W23278  40.789  26.893   0.815
51019W        W23279  30.818  15.117  12.468
51020W        W23280   9.269  24.238   1.276
51021W        W23281  30.435  12.811  13.278
51022W        W23282  43.240  14.725   4.661
51023W        W23283   4.880  14.164  12.956
51024W        W23284  40.019  34.165  11.153
51025W        W23285   4.375  14.593   4.608
51026W        W23286  10.350  16.198  14.093
51027W        W23287  38.296  32.385  10.685
51028W        W23288  42.466  39.275   2.255
51029W        W23289  41.305  20.951   1.895
51030W        W23290  22.264  32.889  12.897
51031W        W23291  13.773  40.726  13.036
51032W        W23292  43.317   0.529  14.416
51033W        W23293  14.751  39.519   3.552
51034W        W23294  43.703  32.839   0.790
51035W        W23295  31.010  21.236   0.056
51036W        W23296  38.463  44.051   1.199
51037W        W23297   2.928  13.719   0.891
51038W        W23298  29.751  22.220   2.642
51039W        W23299  30.165  32.740   3.766
51040W        W23300  17.998   9.119  12.802
51041W        W23301  27.423  21.242  12.227
51042W        W23302  15.705  24.006   3.733
51043W        W23303  23.486  37.372  14.337
51044W        W23304  13.172   6.945   3.545
51045W        W23305  13.795  25.210  13.397
51046W        W23306   5.132  42.487   1.268
51047W        W23307  33.261  43.943  12.473
51048W        W23308  39.476  16.090   1.546
51049W        W23309  38.848   7.731   0.690
51050W        W23310  34.144  12.092   4.299
51051W        W23311  16.139  41.851   2.030
51052W        W23312  41.107  35.935  13.526
51053W        W23313  26.040  40.579   0.852
51054W        W23314  32.478  42.488  14.509
51055W        W23315  18.306  21.564  12.153
51056W        W23316  35.890  29.509   4.410
51057W        W23317  43.911  40.784   4.568
51058W        W23318  36.635  39.971  14.942
51059W        W23319  24.307  19.716   3.534
51060W        W23320  36.539  22.977  11.676
51061W        W23321  27.923  12.240  12.084
51062W        W23322  29.848  24.608  12.194
51063W        W23323   8.386  43.591   0.965
51064W        W23324  20.135  40.361  11.304
51065W        W23325  15.732   5.212  10.854
51066W        W23326   2.075  40.255  11.569
51067W        W23327  35.202  21.971  13.191
51068W        W23328  44.773   3.163   0.969
51069W        W23329  37.595   2.865   2.313
51070W        W23330  12.453  27.644  12.330
51071W        W23331  34.947  42.402   1.877
51072W        W23332  20.071  11.279   1.253
51073W        W23333   4.735   3.484   1.726
51074W        W23334   3.135   9.822   2.821
51075W        W23335  29.474  35.027  14.964
51076W        W23336  11.164  41.399  14.516
51077W        W23337  13.427  14.713  14.020
51078W        W23338  14.798  30.630  10.294
51079W        W23339  36.940  25.951   1.958
51080W        W23340   9.165  30.571   1.497
51081W        W23341  13.740  16.392  13.912
51082W        W23342  22.775  44.928   1.350
51083W        W23343  26.645  40.663  12.341
51084W        W23344  11.755  28.987   4.518
51085W        W23345  42.424  21.285   2.654
51086W        W23346  42.533  33.641  12.953
51087W        W23347  20.125  29.971  13.485
51088W        W23348   7.901  30.502  14.273
51089W        W23349  28.385  39.176  12.524
51090W        W23350  36.480  36.540   4.268
51091W        W23351  42.568  12.138   4.231
51092W        W23352  11.225  37.260   2.663
51093W        W23353   5.965  37.821   1.272
51094W        W23354  25.500  26.611  11.528
51095W        W23355  41.486   5.381   1.812
51096W        W23356  41.083  32.643  14.915
51097W        W23357  29.639   9.850  12.170
51098W        W23358   4.535   0.743  14.059
51099W        W23359  21.218  44.737   1.391
51100W        W23360  37.925  38.835  10.765
51101W        W23361  28.203   1.320   3.761
51102W        W23362   1.785  17.515   4.920
51103W        W23363  39.992  40.091   2.756
51104W        W23364  38.915   8.946  13.039
51105W        W23365  19.140  33.595   1.210
51106W        W23366  34.376  14.353   3.717
51107W        W23367  17.618  29.709   4.184
51108W        W23368  40.096  34.901   0.313
51109W        W23369  22.008   6.385   0.209
51110W        W23370  30.710  27.084  11.023
51111W        W23371  43.948  17.148   3.206
51112W        W23372  14.317  15.645   1.821
51113W        W23373   2.942   2.923  11.005
51114W        W23374  18.246  27.068  11.458
51115W        W23375  10.355  19.652  11.408
51116W        W23376  15.565  26.404  13.013
51117W        W23377  44.937  40.796  11.692
51118W        W23378  37.995   5.440  13.822
51119W        W23379  42.697  39.990   2.797
51120W        W23380  28.828  40.684  14.243
51121W        W23381   4.944   1.822   3.962
51122W        W23382  36.410  20.044   3.333
51123W        W23383  13.123  34.278  11.406
51124W        W23384  41.997  37.335   0.393
51125W        W23385  21.330  35.265   1.271
51126W        W23386  30.693   8.048   3.365
51127W        W23387  10.151  18.687  10.551
51128W        W23388  31.050  11.360  11.395
51129W        W23389  34.928  37.589  14.992
51130W        W23390  12.176  44.279  13.964
51131W        W23391  11.926  42.987  10.757
51132W        W23392  33.149   8.372  14.793
51133W        W23393  15.962  17.576  11.611
51134W        W23394   3.470  42.055  13.797
51135W        W23395  41.422  13.093  11.162
51136W        W23396  22.934  37.357  11.159
51137W        W23397  36.974  26.760   4.443
51138W        W23398   7.760  44.599   3.157
51139W        W23399  11.893  20.301  10.526
51140W        W23400  19.950  35.079  12.898
51141W        W23401  13.252  16.512  11.135
51142W        W23402   0.358  11.066  13.140
51143W        W23403   4.839  44.869   1.483
51144W        W23404   5.953  32.893  12.169
51145W        W23405  22.088  44.738   0.918
51146W        W23406  23.655  15.037  10.533
51147W        W23407  18.713  39.784  10.700
51148W        W23408  26.092  25.589  11.656
51149W        W23409  25.408   1.789  11.969
51150W        W23410  27.132  40.168  13.951
51151W        W23411   1.693  37.281  12.441
51152W        W23412  41.434  24.588  13.467
51153W        W23413  29.338  30.088   0.309
51154W        W23414   7.237  44.741   0.041
51155W        W23415   1.362  40.762   2.562
51156W        W23416   3.962  37.075   3.362
51157W        W23417  21.208  20.114  13.048
51158W        W23418  25.033   5.115   1.125
51159W        W23419  17.349  24.203  10.680
51160W        W23420  37.862  26.443  14.246
51161W        W23421  25.323  16.133  12.004
51162W        W23422  19.725  28.038   0.991
51163W        W23423  12.809  42.740   1.251
51164W        W23424  38.477  33.329  14.400
51165W        W23425   9.328  21.152  10.701
51166W        W23426  15.648  26.012  11.875
51167W        W23427  39.030  13.319   4.321
51168W        W23428  26.503  27.677  10.682
51169W        W23429   7.769  43.325  13.025
51170W        W23430  20.606  34.859  11.457
51171W        W23431  27.067   8.282   2.923
51172W        W23432  39.391  23.801   4.575
51173W        W23433   0.777  32.408   1.295
51174W        W23434  29.043   3.655  11.230
51175W        W23435  23.169  15.290   2.479
51176W        W23436  26.545  30.885  11.973
51177W        W23437   3.341  15.180  11.570
51178W        W23438  16.552  12.805  10.605
51179W        W23439   4.887  41.317  11.022
51180W        W23440  26.500   4.697   2.728
51181W        W23441  32.656  36.538  12.343
51182W        W23442   4.344  29.192  14.093
51183W        W23443   7.998  12.278   0.505
51184W        W23444   7.180  36.161  12.903
51185W        W23445  17.052  27.938  11.043
51186W        W23446  39.962  12.618   4.601
51187W        W23447  35.866  42.484   4.922
51188W        W23448   5.486  13.588  13.067
51189W        W23449  12.291  16.303  11.974
51190W        W23450   8.705  29.856   1.371
51191W        W23451   4.975  43.672   1.741
51192W        W23452   4.933  42.471  12.533
51193W        W23453  42.052  15.333  14.351
51194W        W23454  19.721  17.648   4.056
51195W        W23455  41.213  16.259  12.465
51196W        W23456   0.402  35.986  12.408
51197W        W23457   4.838  42.202   3.248
51198W        W23458  16.122  39.557   0.361
51199W        W23459  19.744  27.435   4.284
51200W        W23460   2.473  35.953   2.231
51201W        W23461  32.383  26.867   4.477
51202W        W23462  32.939  33.950  13.925
51203W        W23463  23.903  27.121  10.209
51204W        W23464   5.194  29.653   3.353
51205W        W23465   1.470  13.396   1.090
51206W        W23466  20.309   0.888   3.549
51207W        W23467  19.071  44.930   1.827
51208W        W23468  20.464  34.922  10.832
51209W        W23469  26.966   3.729   4.062
51210W        W23470  11.772   7.891  14.549
51211W        W23471  35.641   8.392   0.318
51212W        W23472  44.182  31.519   1.382
51213W        W23473  40.398  30.457  12.695
51214W        W23474   7.845  17.579   0.184
51215W        W23475   8.723  27.231  13.922
51216W        W23476  14.603  26.617   4.434
51217W        W23477   0.313  25.073  12.999
51218W        W23478   3.951  10.225   1.064
51219W        W23479  44.127  18.292  12.437
51220W        W23480  35.334  39.142   9.989
51221W        W23481  21.193   5.268  12.885
51222W        W23482  14.025  23.491   2.042
51223W        W23483  19.170  17.295   3.737
51224W        W23484  18.891  12.717   3.992
51225W        W23485   4.933  23.760   4.020
51226W        W23486  36.593  23.511  11.831
51227W        W23487  35.749  32.235  13.788
51228W        W23488   8.624  21.279   3.217
51229W        W23489   7.404   8.314  11.987
51230W        W23490  32.416  17.436   3.429
51231W        W23491   7.327  34.464  12.143
51232W        W23492  10.635  16.805   3.691
51233W        W23493  43.476   3.934   1.313
51234W        W23494   4.954  30.402   2.188
51235W        W23495  20.994  24.489   2.949
51236W        W23496   3.873  31.873  10.702
51237W        W23497   1.821  39.902   0.695
51238W        W23498  15.665  18.815  14.743
51239W        W23499  30.202  22.202  11.092
51240W        W23500  13.651  24.358  13.567
51241W        W23501   4.905  17.704   0.802
51242W        W23502  12.299  35.456   0.873
51243W        W23503  11.233  37.726   0.469
51244W        W23504  33.647  10.779   1.328
51245W        W23505   3.297  25.567   0.700
51246W        W23506  35.864  18.583   0.053
51247W        W23507  23.739   0.807  13.974
51248W        W23508   6.322  15.742  12.220
51249W        W23509  14.285  18.076  12.292
51250W        W23510   9.848   1.521  10.666
51251W        W23511  43.582   7.793  11.622
51252W        W23512  25.494  40.577   0.378
51253W        W23513  37.522  35.594   3.123
51254W        W23514   0.948  11.080  12.374
51255W        W23515  17.692  32.999  12.373
51256W        W23516   2.477   4.189  14.434
51257W        W23517   2.001   9.551   0.340
51258W        W23518  24.630  41.278  14.891
51259W        W23519  38.039  36.082   0.787
51260W        W23520  29.967  11.048  12.230
51261W        W23521  19.304   8.786   2.181
51262W        W23522   0.425  43.251   0.843
51263W        W23523   4.310  17.521   3.355
51264W        W23524  15.109   3.985   2.970
51265W        W23525  11.840   0.851   5.017
51266W        W23526   3.406  17.865  13.834
51267W        W23527  26.047  32.422   2.208
51268W        W23528   3.887  31.493  12.449
51269W        W23529   8.441  29.141   4.203
51270W        W23530  20.759  41.875   0.395
51271W        W23531  44.954   1.334   4.197
51272W        W23532  14.742   2.321  11.083
51273W        W23533  44.039  44.837   3.232
51274W        W23534  19.669  17.748  12.414
51275W        W23535  41.834  23.047  11.782
51276W        W23536  43.344   0.672   2.244
51277W        W23537  13.396  38.319  13.769
51278W        W23538  29.630  26.965  14.787
51279W        W23539  27.388  35.579   3.969
51280W        W23540  42.911  44.666   1.810
51281W        W23541  42.023   0.111  10.924
51282W        W23542  30.358   9.768   3.627
51283W        W23543  44.401  18.214   1.192
51284W        W23544   5.029  22.679  12.101
51285W        W23545  16.515  38.917  14.238
51286W        W23546  21.107  13.451   3.091
51287W        W23547   0.037   4.720   2.308
51288W        W23548  20.553   4.972  10.769
51289W        W23549  18.780  42.773  10.548
51290W        W23550   3.285  42.911   4.656
51291W        W23551  15.544   6.379  12.812
51292W        W23552  21.298  23.843  10.097
51293W        W23553  32.248  26.774  11.724
51294W        W23554  23.575  27.163   0.372
51295W        W23555  19.547  35.438  14.909
51296W        W23556  28.986  18.299   2.206
51297W        W23557  38.584  37.509   2.359
51298W        W23558  33.370  41.364  14.367
51299W        W23559  14.922  25.383  13.743
51300W        W23560  11.234  29.627   5.509
51301W        W23561  25.073  35.203  14.074
51302W        W23562   4.275  15.817   1.182
51303W        W23563   4.312  29.575   3.116
51304W        W23564   1.939  12.673   2.764
51305W        W23565  39.006  11.981   0.059
51306W        W23566   9.689  26.129   3.733
51307W        W23567  32.135  32.116  14.037
51308W        W23568  22.004  29.502   9.929
51309W        W23569   0.940  10.652   0.708
51310W        W23570  38.413  40.100   3.775
51311W        W23571  23.996  41.983  11.492
51312W        W23572  38.069   5.753  13.320
51313W        W23573  38.545  39.810   3.348
51314W        W23574  28.582  40.236  11.149
51315W        W23575  22.633  13.377   1.834
51316W        W23576  34.110  41.853   3.746
51317W        W23577  44.910  10.435  14.160
51318W        W23578  13.121   9.206   0.124
51319W        W23579  28.975  44.241  11.983
51320W        W23580  42.722   6.005   0.832
51321W        W23581  40.794  22.101   2.378
51322W        W23582  39.050  27.086   3.424
51323W        W23583  13.892   6.462  10.670
51324W        W23584   4.265  31.425  14.687
51325W        W23585  18.245  17.046  10.805
51326W        W23586  19.056   0.662   3.214
51327W        W23587  38.419  14.153  12.445
51328W        W23588  34.603  27.072  14.808
51329W        W23589   2.774  36.574   3.742
51330W        W23590   2.282  31.141   3.818
51331W        W23591  43.453  10.163   2.994
51332W        W23592   2.758  19.073   1.665
51333W        W23593  37.913  17.062  11.680
51334W        W23594   7.391   9.399  11.142
51335W        W23595   1.181  33.436   0.307
51336W        W23596  10.890  40.005  12.620
51337W        W23597  40.228  13.662  14.717
51338W        W23598  25.651  25.645  13.415
51339W        W23599  35.951  22.052   3.145
51340W        W23600  17.206  17.052   2.750
51341W        W23601   8.321  33.842   2.384
51342W        W23602  15.458  30.188   2.624
51343W        W23603  35.529  40.030   2.339
51344W        W23604  21.467  25.562   2.312
51345W        W23605  32.487   0.338   2.202
51346W        W23606  35.579  24.218   1.820
51347W        W23607  41.608  13.237  13.531
51348W        W23608  31.367  42.318  13.882
51349W        W23609  29.309  21.094   4.145
51350W        W23610  32.174  26.269  11.551
51351W        W23611  43.361  42.952  10.819
51352W        W23612  41.966  30.067   1.158
51353W        W23613  36.083  21.545   3.156
51354W        W23614  24.715  19.803  10.583
51355W        W23615   5.500  39.265   1.440
51356W        W23616   5.439  13.350  12.440
51357W        W23617  14.600   6.027  10.161
51358W        W23618  21.573  25.669   4.408
51359W        W23619  11.059  33.550  13.530
51360W        W23620  36.002  39.891   2.122
51361W        W23621  29.533  40.977  12.005
51362W        W23622   3.943  21.547  11.135
51363W        W23623  17.832   6.618  13.506
51364W        W23624  41.524   6.950  11.173
51365W        W23625  34.334  31.970  13.467
51366W        W23626  27.041  36.438   4.151
51367W        W23627  27.485  30.684   5.083
51368W        W23628  36.279  20.387  10.340
51369W        W23629  15.130  10.790   3.646
51370W        W23630  32.977   0.453  13.158
51371W        W23631   5.185  34.073  10.649
51372W        W23632  36.276  42.265  10.579
51373W        W23633   4.324  38.530   4.104
51374W        W23634  31.661  23.900   1.670
51375W        W23635   8.089  28.900   0.776
51376W        W23636  35.227  12.470  14.758
51377W        W23637  30.106  10.887  14.936
51378W        W23638  18.926   0.947   2.450
51379W        W23639  21.720  16.928  12.615
51380W        W23640  23.971   6.074   0.765
51381W        W23641  38.125  28.962   1.697
51382W        W23642  12.337  37.577   4.118
51383W        W23643  10.749  22.572  13.611
51384W        W23644  40.056  39.091  11.505
51385W        W23645  10.494  37.223   2.897
51386W        W23646  26.710  37.613  14.764
51387W        W23647  12.277  26.579   2.374
51388W        W23648  41.397   0.205  11.252
51389W        W23649  44.621   8.601   2.397
51390W        W23650  14.730  28.500   1.769
51391W        W23651  34.452   7.897   0.382
51392W        W23652  10.861   4.303  14.513
51393W        W23653   7.859  38.303   1.480
51394W        W23654  25.899  41.902  12.506
51395W        W23655  41.474  35.097   4.541
51396W        W23656  21.706   5.231  12.814
51397W        W23657  35.367  26.491  11.220
51398W        W23658  15.371   9.229  13.595
51399W        W23659  20.457   3.415  11.044
51400W        W23660  42.314   8.967  14.798
51401W        W23661  15.236  25.479  12.919
51402W        W23662  28.508   3.361  14.981
51403W        W23663   1.026   7.227  10.585
51404W        W23664  23.920  26.735   4.739
51405W        W23665  28.059  27.999   3.682
51406W        W23666  30.020  25.501  12.521
51407W        W23667  19.278  14.234   1.484
51408W        W23668  40.515  37.509  12.350
51409W        W23669  12.894  21.460   3.075
51410W        W23670   3.669  18.274  12.781
51411W        W23671  25.177   4.224  10.464
51412W        W23672   9.312  29.087  12.398
51413W        W23673  15.183  38.288  10.553
51414W        W23674  43.481  39.605   0.859
51415W        W23675  36.412  14.559   0.024
51416W        W23676  11.825  26.296   2.271
51417W        W23677   8.535  33.953   1.566
51418W        W23678  39.870   0.228  14.816
51419W        W23679  19.850  28.463   1.910
51420W        W23680  16.597  18.298  10.818
51421W        W23681   3.496  13.682  11.732
51422W        W23682   6.190   9.943   1.915
51423W        W23683  35.999  22.134   3.715
51424W        W23684  27.682  41.888   3.835
51425W        W23685  21.182  32.314  11.668
51426W        W23686  22.519  19.148  13.379
51427W        W23687  42.009  13.232   0.125
51428W        W23688  42.324  10.316   1.781
51429W        W23689  13.821  26.612  10.997
51430W        W23690  16.250  40.348  14.699
51431W        W23691  20.674  44.537   2.808
51432W        W23692   4.413  36.895   0.820
51433W        W23693  33.672  21.278  13.377
51434W        W23694  38.309  32.881   0.186
51435W        W23695  36.517  33.262  14.777
51436W        W23696   3.129   1.208   1.183
51437W        W23697  33.517  27.785  11.604
51438W        W23698  21.034  25.891  12.367
51439W        W23699  40.046  31.049   4.553
51440W        W23700   7.453  30.631  13.948
51441W        W23701  26.030  26.753   5.036
51442W        W23702  17.442  28.506   1.892
51443W        W23703  25.180  28.738   1.387
51444W        W23704  25.503   0.826  12.932
51445W        W23705  23.308  42.877   0.170
51446W        W23706  24.002  29.398  13.793
51447W        W23707  13.209   6.644  13.892
51448W        W23708  34.677   2.331   3.743
51449W        W23709  32.897  32.962   0.408
51450W        W23710  24.232   2.007   3.232
51451W        W23711  40.530   3.052  11.946
51452W        W23712  27.094  36.421   0.679
51453W        W23713  11.351  14.706  12.946
51454W        W23714  33.701  39.914  14.480
51455W        W23715  15.052   1.229  12.840
51456W        W23716  36.016  18.079   0.428
51457W        W23717  34.416   3.034   0.789
51458W        W23718   9.966  43.014   0.383
51459W        W23719  12.319  36.586   3.879
51460W        W23720  35.045  33.346  10.472
51461W        W23721  12.433  44.820  14.935
51462W        W23722  21.474  22.768   0.348
51463W        W23723   5.868   9.202   4.488
51464W        W23724   1.356  37.985  14.906
51465W        W23725   2.707  23.793   1.828
51466W        W23726  19.494  17.298  10.924
51467W        W23727  33.398  19.187   0.451
51468W        W23728  40.442  30.933  11.414
51469W        W23729  28.972  42.083  11.746
51470W        W23730  27.501  10.682   0.306
51471W        W23731  43.812  14.215   2.410
51472W        W23732  28.186  19.325   0.048
51473W        W23733  35.725  24.946   2.437
51474W        W23734  19.807  17.072  13.081
51475W        W23735  30.684  23.350   0.779
51476W        W23736  25.417  28.960  11.173
51477W        W23737  27.016  32.841   4.657
51478W        W23738   3.800  16.267  12.123
51479W        W23739  27.513  33.586   0.938
51480W        W23740  29.834   2.786  12.845
51481W        W23741  37.046  17.615  11.994
51482W        W23742  23.098  34.605  14.699
51483W        W23743  28.579   6.727  13.936
51484W        W23744   3.165  18.206   0.030
51485W        W23745  16.807  28.128   1.201
51486W        W23746  10.310  29.179  12.538
51487W        W23747  42.396  14.821   1.821
51488W        W23748  24.692   7.820   1.376
51489W        W23749  35.459   6.676   2.932
51490W        W23750  37.138  41.089   2.429
51491W        W23751  44.422  40.767  13.464
51492W        W23752  42.757  18.514   0.012
51493W        W23753  20.281  35.782   0.807
51494W        W23754  32.254  44.016   4.640
51495W        W23755  34.601   7.655   4.121
51496W        W23756  22.486  44.832  13.484
51497W        W23757  44.404  17.524  13.133
51498W        W23758  12.625   8.635  11.126
51499W        W23759  22.130  24.314  11.168
51500W        W23760  17.276  28.027  14.534
51501W        W23761  28.275  12.494  14.838
51502W        W23762  17.054  24.018  14.877
51503W        W23763   8.658  28.688  14.022
51504W        W23764   1.430  31.054   1.664
51505W        W23765  35.647  26.009   2.181
51506W        W23766  29.272  31.862  12.437
51507W        W23767   1.776   6.489  13.289
51508W        W23768  26.774  31.134   3.121
51509W        W23769  22.165  36.220   0.997
51510W        W23770  42.402  36.739   4.882
51511W        W23771  21.803  41.259   2.749
51512W        W23772   6.798  13.835  10.652
51513W        W23773  24.596  36.456   2.689
51514W        W23774  12.800  35.932  13.998
51515W        W23775  39.345  21.982   3.333
51516W        W23776  39.269  12.382  12.951
51517W        W23777   8.015   7.680  10.746
51518W        W23778  36.797   7.811  13.833
51519W        W23779  27.469  16.419  10.929
51520W        W23780  30.909  41.028   3.871
51521W        W23781   7.019   0.932  14.094
51522W        W23782  25.293   6.754   3.237
51523W        W23783  17.283   3.043  12.604
51524W        W23784  15.797   8.607   3.108
51525W        W23785  40.146  21.682   1.685
51526W        W23786  22.137   6.358  13.894
51527W        W23787   3.332  17.250   0.957
51528W        W23788   7.766  32.029   1.304
51529W        W23789  12.795   1.848  14.322
51530W        W23790   4.689  42.007  10.670
51531W        W23791  38.026  22.022  13.090
51532W        W23792  37.998   8.792  11.100
51533W        W23793  40.769   5.635   0.051
51534W        W23794  18.311  34.977   3.744
51535W        W23795  43.062   3.394   4.878
51536W        W23796   9.619  23.954   0.929
51537W        W23797  15.273  31.365  11.505
51538W        W23798  20.796   1.549  10.740
51539W        W23799  16.155  37.985  12.941
51540W        W23800  10.440  34.863  11.174
51541W        W23801   0.694  24.281   0.022
51542W        W23802  15.811   9.881  14.866
51543W        W23803  44.263  33.652  13.631
51544W        W23804   9.329  28.622   2.372
51545W        W23805  18.172  42.416   0.813
51546W        W23806  26.432  35.607  14.895
51547W        W23807  42.378  25.659  14.163
51548W        W23808  32.027   5.601  11.186
51549W        W23809  37.012   3.007  14.839
51550W        W23810   6.358  30.637  11.089
51551W        W23811  41.527  34.384  14.903
51552W        W23812  14.724  12.696  10.725
51553W        W23813   3.388   8.186  13.647
51554W        W23814  42.128  24.171  12.430
51555W        W23815  18.695  42.191   4.546
51556W        W23816  42.550  23.770   3.193
51557W        W23817  44.657   8.394   5.060
51558W        W23818   5.254  10.930   4.094
51559W        W23819  11.048   5.597  13.399
51560W        W23820  10.937  19.180   3.647
51561W        W23821  42.047  28.679  12.684
51562W        W23822   0.926  12.510   2.647
51563W        W23823  39.925  39.622   1.933
51564W        W23824  34.937  27.340   0.388
51565W        W23825  27.551  44.069  12.926
51566W        W23826  20.078  41.997   1.331
51567W        W23827   1.690   7.407  11.623
51568W        W23828  11.549  23.654  11.653
51569W        W23829   8.318  30.711   1.428
51570W        W23830  23.866  26.067   3.400
51571W        W23831  13.780  15.341   0.204
51572W        W23832   6.708  39.899  13.913
51573W        W23833  37.374  36.878   3.398
51574W        W23834   0.918  32.165  13.706
51575W        W23835  22.643   2.477   3.228
51576W        W23836  31.369  44.253  12.517
51577W        W23837   3.285  22.868  11.403
51578W        W23838  29.510   2.481  12.522
51579W        W23839  22.580  32.214   2.304
51580W        W23840  38.112  41.527   5.035
51581W        W23841   9.991  24.168   4.585
51582W        W23842  13.694  23.190  12.836
51583W        W23843  15.243  14.617   2.649
51584W        W23844  38.334  34.107   3.308
51585W        W23845  22.644  35.476  13.449
51586W        W23846   4.206  42.115  10.452
51587W        W23847   0.783   0.269  10.595
51588W        W23848  29.570  43.150  10.434
51589W        W23849  29.370  26.476  14.561
51590W        W23850  29.775  34.132   1.046
51591W        W23851   7.357  37.292  13.712
51592W        W23852  42.894  17.614  11.963
51593W        W23853  17.225  10.844   4.144
51594W        W23854  38.416   0.752  12.005
51595W        W23855  22.064  23.870  11.528
51596W        W23856   8.598  27.587  14.299
51597W        W23857  37.406   0.415  14.977
51598W        W23858  30.489  13.785  11.902
51599W        W23859  23.271  11.769  10.605
51600W        W23860  10.380  11.882  13.012
51601W        W23861  20.748  18.038   1.979
51602W        W23862   3.760   6.205   4.733
51603W        W23863  15.303  10.091   0.099
51604W        W23864  31.549  41.178   0.440
51605W        W23865   8.784   3.449  12.523
51606W        W23866   6.885  16.502  13.623
51607W        W23867  28.123  40.748  13.334
51608W        W23868  28.486  35.245  11.538
51609W        W23869  16.344   7.959   3.891
51610W        W23870  28.078  18.247  14.584
51611W        W23871  12.360  20.025   1.407
51612W        W23872  16.978  39.172   1.010
51613W        W23873   7.917  10.381  11.936
51614W        W23874   9.111  25.496   0.246
51615W        W23875  44.305  24.949   1.196
51616W        W23876  44.062  15.823  14.934
51617W        W23877  26.950  34.502  11.486
51618W        W23878   5.677  11.701   0.964
51619W        W23879  13.324  39.591   3.185
51620W        W23880  21.179   5.057   2.392
51621W        W23881  35.119  28.227  13.253
51622W        W23882   3.523  35.846  11.948
51623W        W23883   0.429  42.933   2.364
51624W        W23884  21.120  37.918   1.726
51625W        W23885   4.903  11.221  13.542
51626W        W23886  13.694  16.257   3.359
51627W        W23887   7.751  12.699  13.625
51628W        W23888   9.165  36.374   1.878
51629W        W23889  25.535  41.036  11.542
51630W        W23890  11.437  31.010   1.213
51631W        W23891  27.259  42.713  13.905
51632W        W23892   9.180  32.407   3.261
51633W        W23893  38.759  29.484  13.855
51634W        W23894  14.883  19.234  14.907
51635W        W23895   2.294  16.475   1.459
51636W        W23896  34.952  16.820   0.588
51637W        W23897  27.120  22.619   2.827
51638W        W23898  38.933  44.974   1.010
51639W        W23899  21.076  33.872   1.398
51640W        W23900  44.122  12.119   3.730
51641W        W23901  21.588  40.890   3.679
51642W        W23902  19.202  29.217   1.678
51643W        W23903   7.144  33.486   3.329
51644W        W23904  42.187  12.384  12.764
51645W        W23905  11.338  23.521   2.735
51646W        W23906   2.860  32.569   0.875
51647W        W23907  24.434   5.060  11.196
51648W        W23908  37.710  15.792  13.803
51649W        W23909  28.731  28.911   3.872
51650W        W23910  34.393  18.616  12.594
51651W        W23911  29.876  36.563  11.089
51652W        W23912   2.905  31.049  11.560
51653W        W23913   4.972  19.654  13.800
51654W        W23914  32.321  26.579  14.342
51655W        W23915  43.509  20.066  13.463
51656W        W23916  11.895   1.509  13.410
51657W        W23917  15.807  16.977   5.434
51658W        W23918  37.026  26.749  10.554
51659W        W23919  19.811  22.718  10.721
51660W        W23920   4.557   8.705  12.613
51661W        W23921  11.139  18.681   3.691
51662W        W23922   0.495  18.742  10.523
51663W        W23923   2.731  32.026  12.518
51664W        W23924  26.831  35.144   4.742
51665W        W23925  11.302  14.803  10.894
51666W        W23926  42.438  26.453  12.523
51667W        W23927  44.279   7.965  11.153
51668W        W23928  12.663  43.488  11.516
51669W        W23929  25.379  30.434   4.142
51670W        W23930  28.395  32.913  12.380
51671W        W23931   2.708  29.141   0.922
51672W        W23932  36.377  13.852   1.799
51673W        W23933  40.692  28.616  11.514
51674W        W23934   2.881  35.138  14.493
51675W        W23935  23.751  43.669   0.449
51676W        W23936   7.315  12.380   2.264
51677W        W23937  17.835  36.624  11.179
51678W        W23938   1.802  27.542   3.385
51679W        W23939   8.193  36.861  15.000
51680W        W23940  11.171  18.212  13.085
51681W        W23941   2.845  39.897  13.816
51682W        W23942  20.837   1.952  13.802
51683W        W23943  44.512  15.266   0.369
51684W        W23944  22.121  29.860   4.193
51685W        W23945  34.013  35.056   2.780
51686W        W23946   4.590   5.785  13.477
51687W        W23947   1.239  34.370  11.971
51688W        W23948  35.996   3.200  10.786
51689W        W23949  18.486  10.923  12.103
51690W        W23950  40.991   7.862   4.858
51691W        W23951  40.970   4.191   2.768
51692W        W23952   7.841  28.524   3.197
51693W        W23953  20.508   9.675  12.867
51694W        W23954  25.356  22.793  13.837
51695W        W23955  43.956  40.103  14.846
51696W        W23956   4.163  26.691  11.958
51697W        W23957  35.885  25.511  10.708
51698W        W23958  10.628   0.415  11.475
51699W        W23959  42.424  18.698  11.702
51700W        W23960  38.478  37.770  11.135
51701W        W23961  27.961  24.901  12.628
51702W        W23962  22.613  25.866   3.663
51703W        W23963  30.428   4.071  14.745
51704W        W23964   0.438  26.218  10.685
51705W        W23965  16.103  35.847   0.409
51706W        W23966  18.684   2.153  12.598
51707W        W23967  27.644  38.498  14.355
51708W        W23968   7.061  34.574   1.299
51709W        W23969  21.779  13.663  10.733
51710W        W23970  27.752   3.560   4.364
51711W        W23971  44.265   5.009  13.549
51712W        W23972  24.787  37.300   2.300
51713W        W23973  19.753   7.335  13.022
51714W        W23974  42.011  42.132  12.660
51715W        W23975  26.097  37.956   4.387
51716W        W23976  26.018   6.159  13.982
51717W        W23977  21.104  37.003   1.261
51718W        W23978  14.622  32.895  11.988
51719W        W23979   3.058   8.678  12.651
51720W        W23980  12.411  29.360   3.720
51721W        W23981  41.489  25.620   0.380
51722W        W23982  32.464  35.590  13.409
51723W        W23983  24.962  30.361   2.309
51724W        W23984  16.577  43.315  14.566
51725W        W23985  14.075  15.126  13.037
51726W        W23986  12.826  19.008  11.999
51727W        W23987  33.584  16.605   0.828
51728W        W23988  35.369   0.597   4.728
51729W        W23989   6.635   8.274   0.143
51730W        W23990  20.576  11.351   4.279
51731W        W23991  36.522  21.816   1.431
51732W        W23992  33.377  12.710  14.599
51733W        W23993  22.453   2.750   1.450
51734W        W23994  16.583  15.444   4.071
51735W        W23995   5.366  27.982   4.604
51736W        W23996  20.705  44.207   1.948
51737W        W23997  32.101  19.639  14.334
51738W        W23998  36.021  15.135  10.630
51739W        W23999  19.211  35.320  11.858
51740W        W24000   3.859  21.195  12.885
51741W        W24001  26.870   4.353  12.175
51742W        W24002  14.761  32.159  10.329
51743W        W24003   1.032  12.100  13.966
51744W        W24004  16.147   9.979   4.739
51745W        W24005  34.097  40.181  14.144
51746W        W24006  11.547   9.955   4.099
51747W        W24007   6.924  16.731   3.821
51748W        W24008  24.660  41.247  12.473
51749W        W24009  37.424  29.173  14.474
51750W        W24010   4.270  30.430   4.651
51751W        W24011  36.099   4.474  13.164
51752W        W24012  36.353   7.864   4.639
51753W        W24013  10.417  42.156   4.910
51754W        W24014   2.792  20.542   3.635
51755W        W24015   7.779  43.716  11.995
51756W        W24016   5.968  20.464  12.009
51757W        W24017  31.499  17.351  12.128
51758W        W24018   2.616  21.251   0.192
51759W        W24019  40.491  28.885   3.373
51760W        W24020   0.420  16.653   1.164
51761W        W24021  33.896   5.945  14.392
51762W        W24022   1.459  23.309   2.344
51763W        W24023  26.113  38.452  14.853
51764W        W24024  35.972  44.441  14.769
51765W        W24025  36.950  21.304   1.565
51766W        W24026  36.956  39.568  11.547
51767W        W24027  39.877  30.076  10.718
51768W        W24028  16.149  18.172  13.294
51769W        W24029  31.029   7.614   4.624
51770W        W24030  36.991  36.742   1.282
51771W        W24031  11.710  32.537   1.006
51772W        W24032  10.511  33.040   4.930
51773W        W24033  17.042  35.948  12.439
51774W        W24034  31.511  40.425   3.558
51775W        W24035  15.320  30.029  12.328
51776W        W24036  11.880   5.636   0.661
51777W        W24037   8.288   8.962  11.142
51778W        W24038  44.203  23.167   1.350
51779W        W24039  24.789  28.145   4.154
51780W        W24040  21.977  33.580  11.786
51781W        W24041  19.047  31.164  12.876
51782W        W24042  26.114  42.765  11.723
51783W        W24043  21.613  37.396  13.608
51784W        W24044   5.656  16.843   2.634
51785W        W24045   5.740  33.927   4.767
51786W        W24046  44.046  44.347   0.822
51787W        W24047   0.255   3.944  14.031
51788W        W24048   6.289   1.982  13.131
51789W        W24049  42.236  25.145  12.424
51790W        W24050  21.699  18.311   3.535
51791W        W24051  39.444  16.167   2.372
51792W        W24052   3.244  37.393   0.719
51793W        W24053  37.047  18.500   3.215
51794W        W24054   2.683  33.435  10.969
51795W        W24055   7.320  32.642  14.392
51796W        W24056  33.944  38.291   1.766
51797W        W24057  31.097  37.986   4.310
51798W        W24058  27.609  25.205  14.369
51799W        W24059  33.491   5.210   4.582
51800W        W24060  41.325  22.774   2.174
51801W        W24061  18.713  21.212   2.862
51802W        W24062   5.862  25.464  12.646
51803W        W24063   5.795  10.698   0.207
51804W        W24064  21.502  38.528  14.948
51805W        W24065  13.632  26.148  13.899
51806W        W24066   4.679  33.012  14.213
51807W        W24067  44.365  11.606   1.885
51808W        W24068  41.299   5.770   3.669
51809W        W24069   7.132  26.632   1.325
51810W        W24070  41.007  19.789  12.999
51811W        W24071  33.377  27.990   2.834
51812W        W24072  17.241  12.245  12.602
51813W        W24073   2.979   2.845   2.437
51814W        W24074   8.858   8.306   4.118
51815W        W24075  28.511  34.998   2.655
51816W        W24076  12.510   5.742  12.185
51817W        W24077  44.465  13.373  11.112
51818W        W24078  42.439  18.023   2.288
51819W        W24079  31.454  38.835  12.166
51820W        W24080  23.306  25.711   0.936
51821W        W24081  11.124  43.931   3.506
51822W        W24082  28.906  36.655   3.283
51823W        W24083  27.934  16.368  13.095
51824W        W24084  18.004  44.090   3.779
51825W        W24085  22.573  18.289   4.571
51826W        W24086  22.742  39.546  14.872
51827W        W24087   5.603   7.171   1.836
51828W        W24088  39.574  41.997   4.194
51829W        W24089  27.369  15.093  11.459
51830W        W24090  36.089  39.955   0.802
51831W        W24091  40.369  27.408   2.169
51832W        W24092  33.064   4.925   4.603
51833W        W24093  23.543  40.174  12.667
51834W        W24094  29.468  36.911  11.128
51835W        W24095   5.775   6.167   0.472
51836W        W24096  33.988  42.049  13.538
51837W        W24097  43.287  40.920  14.277
51838W        W24098   6.956   5.242   1.846
51839W        W24099  14.610  35.089   0.927
51840W        W24100  23.994  20.173   0.771
51841W        W24101  18.631   5.320  10.582
51842W        W24102  10.187  12.385  12.061
51843W        W24103  20.971  29.413   1.884
51844W        W24104   4.727  21.091  12.568
51845W        W24105   6.829  20.447  11.174
51846W        W24106  34.882   4.626   2.391
51847W        W24107  20.866  28.164   2.402
51848W        W24108  11.158   7.298   0.495
51849W        W24109  15.682  29.602   0.063
51850W        W24110  43.204  28.421  11.708
51851W        W24111  13.818  18.305  10.990
51852W        W24112  30.140  17.425   2.559
51853W        W24113   6.177   1.368  14.025
51854W        W24114  44.289   8.221  11.890
51855W        W24115  43.487   8.916  12.426
51856W        W24116  43.709   5.687   0.752
51857W        W24117   4.361   7.693   3.844
51858W        W24118   5.418  22.755   2.477
51859W        W24119  24.114   5.005   2.155
51860W        W24120  15.133  42.915  14.036
51861W        W24121  34.571  18.092   4.263
51862W        W24122  18.571  11.028  14.041
51863W        W24123  39.012  21.031   0.761
51864W        W24124  26.440  31.595  14.718
51865W        W24125   3.268  34.576  13.843
51866W        W24126  14.067  30.341   9.840
51867W        W24127  33.591  31.084   4.185
51868W        W24128  26.144   7.443   0.201
51869W        W24129  37.126  38.674  11.478
51870W        W24130  34.432  22.614   4.433
51871W        W24131  11.337  18.747  12.847
51872W        W24132  36.767   2.228  14.106
51873W        W24133  29.692  20.098   3.392
51874W        W24134   6.118  22.178  12.987
51875W        W24135  24.182  26.867   1.412
51876W        W24136  25.196  40.040  11.113
51877W        W24137   3.344  23.863  10.610
51878W        W24138  31.400  24.295  13.395
51879W        W24139  31.136  22.069   2.082
51880W        W24140  15.644  14.040   4.155
51881W        W24141  13.601  13.274   4.227
51882W        W24142  12.842  18.511  12.910
51883W        W24143  23.719  44.711   0.485
51884W        W24144   0.634  42.433   1.282
51885W        W24145  16.519  41.894  13.431
51886W        W24146  10.890   3.926  11.132
51887W        W24147  29.704   5.224   3.270
51888W        W24148   8.381  26.183  14.673
51889W        W24149   1.961   7.042   1.974
51890W        W24150  12.278  19.195  13.571
51891W        W24151  39.856   7.270  14.696
51892W        W24152  34.446  32.566  10.666
51893W        W24153  39.389   5.921   4.186
51894W        W24154  22.210  34.471   4.741
51895W        W24155  18.878  14.250   9.910
51896W        W24156  23.483   4.786   2.692
51897W        W24157  14.843  34.881   2.227
51898W        W24158  13.756  13.250  13.433
51899W        W24159  25.756  15.666   2.687
51900W        W24160   3.324   9.347   4.515
51901W        W24161  16.857  31.823  12.097
51902W        W24162  43.003  10.992   3.623
51903W        W24163  37.118  28.482  10.792
51904W        W24164  39.796  32.349   1.389
51905W        W24165  10.316  16.751  13.271
51906W        W24166  19.758  20.159   2.760
51907W        W24167  35.723  44.001  11.606
51908W        W24168  33.364  32.921   1.214
51909W        W24169  17.765  17.672   4.066
51910W        W24170  14.940  14.864  11.962
51911W        W24171  42.423  24.266   3.273
51912W        W24172  21.788  20.432   0.472
51913W        W24173   5.172   2.238   1.454
51914W        W24174  19.990  16.556   3.738
51915W        W24175  43.691  16.873   2.820
51916W        W24176  44.270   6.448  11.145
51917W        W24177  41.978  22.137   0.776
51918W        W24178  30.467  21.075  10.744
51919W        W24179  15.535  21.212   2.298
51920W        W24180  42.791   6.512   0.929
51921W        W24181  26.374   8.745   0.776
51922W        W24182   1.447  17.490  13.302
51923W        W24183   8.734  29.532   0.556
51924W        W24184  37.123  26.109   1.502
51925W        W24185  19.623  41.229   0.591
51926W        W24186  31.153   9.698  12.913
51927W        W24187  36.799  11.762  13.287
51928W        W24188  44.477  18.759   0.018
51929W        W24189  20.660  22.525   1.804
51930W        W24190  37.488  19.600   1.135
51931W        W24191  14.682  10.170   3.324
51932W        W24192  26.989   1.885  13.378
51933W        W24193  37.650  10.888  10.182
51934W        W24194  36.448  27.677   2.197
51935W        W24195  32.666   3.726   1.690
51936W        W24196   7.944  26.437   0.912
51937W        W24197   9.460  24.660  11.200
51938W        W24198  20.509  16.541   2.756
51939W        W24199  11.062  31.042  11.229
51940W        W24200   0.303  33.661  10.455
51941W        W24201  28.421   7.816   2.127
51942W        W24202  13.109  14.183   4.096
51943W        W24203  39.550  44.881   2.368
51944W        W24204  27.521  38.002  11.190
51945W        W24205  38.367  36.854   3.150
51946W        W24206  42.798   8.174   2.118
51947W        W24207   9.229  11.751  11.526
51948W        W24208   9.380   2.636  14.442
51949W        W24209  29.662  32.164   3.363
51950W        W24210  42.041  32.994   2.313
51951W        W24211  43.399  43.708  12.506
51952W        W24212  17.800   2.899   1.040
51953W        W24213  19.226   2.183  13.844
51954W        W24214  18.299  35.021   2.997
51955W        W24215  17.221  42.375   0.432
51956W        W24216  35.918  38.853   0.528
51957W        W24217  19.129  31.434   1.857
51958W        W24218  31.951  41.791   3.755
51959W        W24219  34.037  11.603   1.785
51960W        W24220   5.386  25.484  12.441
51961W        W24221  29.659   2.494  14.002
51962W        W24222   8.150   4.395   2.603
51963W        W24223  30.695  43.346   0.356
51964W        W24224   6.390  21.609  10.646
51965W        W24225  44.840  31.518  12.800
51966W        W24226  40.865   5.745  10.642
51967W        W24227  33.937   4.663   2.225
51968W        W24228  17.739  11.387  12.881
51969W        W24229  21.772   4.287  14.392
51970W        W24230  40.876  38.854   0.903
51971W        W24231   5.519  18.163  13.014
51972W        W24232  17.637   9.310   4.035
51973W        W24233  43.745  32.216  11.593
51974W        W24234  30.120   9.562  13.887
51975W        W24235  30.938  11.142  13.382
51976W        W24236   7.298  24.519   0.486
51977W        W24237  43.964  15.384  12.648
51978W        W24238  38.619  29.091  11.882
51979W        W24239  23.424  26.434  11.695
51980W        W24240   5.745  28.769  11.265
51981W        W24241  19.836  21.236   2.303
51982W        W24242   4.835  36.563   2.317
51983W        W24243  38.141   1.761  12.952
51984W        W24244   6.353   2.726  11.959
51985W        W24245   9.202  30.994  11.567
51986W        W24246  41.538  28.668   2.200
51987W        W24247  15.402  34.053  10.762
51988W        W24248  15.365  28.212   5.146
51989W        W24249   6.820   7.038  14.029
51990W        W24250  25.896  25.519  12.545
51991W        W24251  10.305   7.301  12.850
51992W        W24252  30.828   3.496  11.057
51993W        W24253   4.611  10.871  12.574
51994W        W24254  11.154  22.566   3.671
51995W        W24255   7.066  28.305  14.885
51996W        W24256  23.447  22.568  11.182
51997W        W24257  16.329   2.504  12.525
51998W        W24258  39.347   2.215  11.200
51999W        W24259  33.209  21.682  10.804
52000W        W24260  42.070  18.472  12.404
52001W        W24261  25.418  21.611  13.188
52002W        W24262  44.905  38.672   2.236
52003W        W24263  22.266  17.799   4.228
52004W        W24264  38.074   0.139  12.552
52005W        W24265   3.347  44.530   0.886
52006W        W24266  20.193  22.942   0.896
52007W        W24267  31.904  35.102  12.491
52008W        W24268  16.212   0.331   2.282
52009W        W24269  30.508  35.277   0.909
52010W        W24270  30.985  13.553  13.617
52011W        W24271  14.173  26.381   2.011
52012W        W24272  16.832  17.217  13.452
52013W        W24273  25.840  25.597   3.280
52014W        W24274  32.639  10.146   0.569
52015W        W24275   6.905   1.953  12.500
52016W        W24276   3.074  25.176  12.839
52017W        W24277  44.435  33.121  14.925
52018W        W24278  12.041   4.428   4.793
52019W        W24279  21.261  34.337  13.808
52020W        W24280  33.536  23.601   4.195
52021W        W24281  40.559  32.959  10.620
52022W        W24282  21.663  10.161   2.827
52023W        W24283  30.916  10.527   0.378
52024W        W24284  36.481  37.555  12.842
52025W        W24285  18.186  14.655  14.576
52026W        W24286   9.302   0.411   0.418
52027W        W24287  28.785   2.394   4.272
52028W        W24288  18.819  21.726  11.427
52029W        W24289  22.590  22.497   0.371
52030W        W24290  34.837  24.767  14.940
52031W        W24291  34.142  23.080  13.704
52032W        W24292  35.014  44.264   4.731
52033W        W24293  42.163  35.742  14.412
52034W        W24294   6.378  28.648  12.414
52035W        W24295  37.158  10.709   5.051
52036W        W24296  30.615  33.868  12.945
52037W        W24297   8.187  10.237   4.549
52038W        W24298  40.293  11.731  11.206
52039W        W24299  18.262   2.514  13.873
52040W        W24300  13.370   9.356   2.768
52041W        W24301  16.037  32.923   1.152
52042W        W24302  40.431  29.272   1.566
52043W        W24303  15.824  32.322   4.151
52044W        W24304   5.410  14.770   4.389
52045W        W24305  37.204   0.557   0.733
52046W        W24306  12.090   0.661   3.728
52047W        W24307   4.146  26.637   2.664
52048W        W24308  16.009  25.231   0.397
52049W        W24309  23.635  37.174  11.543
52050W        W24310  12.930  11.817   5.157
52051W        W24311  36.580   4.661  12.411
52052W        W24312  37.144  41.524   3.566
52053W        W24313  18.721  39.667   0.929
52054W        W24314  38.951  17.251  14.792
52055W        W24315  33.670  28.039  12.029
52056W        W24316  32.001  41.487  12.499
52057W        W24317   7.362   7.170   0.878
52058W        W24318   9.214   1.992   4.324
52059W        W24319  24.530  40.011   1.447
52060W        W24320  29.189  25.101  12.878
52061W        W24321  34.466   5.800   3.089
52062W        W24322  11.352  20.138  14.580
52063W        W24323  24.175  15.286   2.283
52064W        W24324   5.251  23.587  12.052
52065W        W24325  39.378  12.038  10.356
52066W        W24326  33.468  33.968  11.162
52067W        W24327  30.414  31.839  10.693
52068W        W24328  26.667  15.717  11.568
52069W        W24329  10.278  28.436   1.945
52070W        W24330   4.623   7.089  14.305
52071W        W24331  30.271   0.934   0.969
52072W        W24332  30.671  25.529   5.042
52073W        W24333  33.944  43.499  11.999
52074W        W24334  18.202   8.293   3.325
52075W        W24335  22.438   1.419   1.340
52076W        W24336   3.545  21.833  11.001
52077W        W24337  33.091  13.692   4.775
52078W        W24338  42.742   5.237   1.113
52079W        W24339  40.514  26.409   4.141
52080W        W24340  26.083  32.465   4.523
52081W        W24341  22.071  44.278  12.554
52082W        W24342  17.171  39.442   2.779
52083W        W24343  29.374  34.924  10.710
52084W        W24344  36.578   3.965   2.790
52085W        W24345  24.691  38.327   4.100
52086W        W24346  29.517  27.536  13.098
52087W        W24347  36.467  25.995  13.505
52088W        W24348  30.232  27.058  12.424
52089W        W24349  29.590  23.607  11.787
52090W        W24350  33.534   9.531  14.847
52091W        W24351  35.855  15.833   1.480
52092W        W24352  11.850  31.606  14.494
52093W        W24353  42.483  41.479   4.985
52094W        W24354  44.241  28.741  10.598
52095W        W24355  26.666  22.934  13.742
52096W        W24356  27.178  15.693  10.754
52097W        W24357   4.895  11.731   4.186
52098W        W24358  34.386   1.487  11.803
52099W        W24359   7.942  17.510   0.682
52100W        W24360  19.520  10.724  13.878
52101W        W24361  29.766  18.803   4.523
52102W        W24362   0.006   4.738   3.808
52103W        W24363  25.166  19.792   1.929
52104W        W24364  37.077   4.178  12.980
52105W        W24365   8.388  21.048  13.059
52106W        W24366   7.815  16.021   4.292
52107W        W24367  19.024  12.184  13.441
52108W        W24368  31.504  11.620   2.760
52109W        W24369  33.098  33.047   3.140
52110W        W24370   9.740   6.033  14.835
52111W        W24371  13.096  11.168   1.788
52112W        W24372  18.292  41.476  14.785
52113W        W24373  32.398   5.546   1.842
52114W        W24374  10.780  16.056   3.182
52115W        W24375  31.021  44.306   4.616
52116W        W24376  22.681  18.722  14.389
52117W        W24377   0.108   8.210   0.904
52118W        W24378   5.725  42.799  13.581
52119W        W24379  44.527  14.189   4.538
52120W        W24380  32.643   4.232  13.389
52121W        W24381   6.324   7.306  14.126
52122W        W24382  28.522  37.758   2.215
52123W        W24383  26.546  43.813   2.810
52124W        W24384  44.853  21.793   1.753
52125W        W24385  10.012  37.952   4.337
52126W        W24386   0.490   0.554   4.547
52127W        W24387  25.000   4.392  13.337
52128W        W24388  12.294  14.488   4.085
52129W        W24389   7.686  31.710   2.923
52130W        W24390   8.718  24.180  14.368
52131W        W24391  31.995  14.294   4.230
52132W        W24392  20.196  25.586  11.404
52133W        W24393  38.787  35.247   2.908
52134W        W24394  11.182   4.677  14.314
52135W        W24395   7.621  14.927  11.605
52136W        W24396  22.984  43.296   1.942
52137W        W24397  15.774  18.090   3.773
52138W        W24398  37.852  15.094  12.971
52139W        W24399  39.569  29.840  13.447
52140W        W24400  19.531  38.852   0.804
52141W        W24401  40.837  12.104  10.646
52142W        W24402  26.385  29.888  14.798
52143W        W24403  15.204  42.035   0.703
52144W        W24404   6.710   8.842  10.855
52145W        W24405  12.684  28.699  13.964
52146W        W24406  17.958  19.979   0.304
52147W        W24407  40.328  10.278  12.945
52148W        W24408  29.492  21.994   2.251
52149W        W24409  12.401   4.860   0.455
52150W        W24410  21.566   1.808  11.155
52151W        W24411  12.382   6.267  12.006
52152W        W24412  36.610  27.592  10.584
52153W        W24413  14.317   4.695  12.626
52154W        W24414  31.995   6.505  14.868
52155W        W24415  34.950   6.935   3.748
52156W        W24416  17.561  13.175   1.338
52157W        W24417  32.757  20.708   2.371
52158W        W24418  21.697   6.954   1.437
52159W        W24419  34.380  34.938   0.973
52160W        W24420  28.285  44.920   1.384
52161W        W24421  29.460  27.939  14.179
52162W        W24422  21.118  43.329   1.155
52163W        W24423  18.518  14.686  13.309
52164W        W24424  22.023  18.672  10.836
52165W        W24425  28.952  40.190   3.854
52166W        W24426  32.109  38.939  14.888
52167W        W24427   1.252  40.971   4.022
52168W        W24428  38.746  12.003  12.039
52169W        W24429  32.536  18.753  14.111
52170W        W24430  42.935  17.827   0.157
52171W        W24431  43.261  41.864   4.718
52172W        W24432  29.974  29.578  12.115
52173W        W24433  22.959  22.126   3.741
52174W        W24434  40.495  27.385   3.377
52175W        W24435  13.735  27.654  13.742
52176W        W24436  25.896  32.600   3.583
52177W        W24437  12.899  38.486   1.382
52178W        W24438  11.070   5.325   2.305
52179W        W24439  23.113  19.694   4.607
52180W        W24440  14.263   4.238   4.103
52181W        W24441  36.587  42.931   1.752
52182W        W24442  26.214  27.522   0.832
52183W        W24443  17.072  30.954  13.598
52184W        W24444   3.720  22.527   0.891
52185W        W24445  26.956  28.280   0.746
52186W        W24446  39.437   0.493  12.868
52187W        W24447  16.305  43.777   3.185
52188W        W24448  35.981  14.178  13.929
52189W        W24449  13.171  16.784   5.233
52190W        W24450  37.639  27.061   3.661
52191W        W24451  12.888   5.471  13.835
52192W        W24452  27.615  23.208   0.752
52193W        W24453  41.541   5.745  14.460
52194W        W24454  28.615   0.073  12.095
52195W        W24455  28.616  40.482  12.107
52196W        W24456  27.430  29.694   1.983
52197W        W24457   4.042   0.018  12.514
52198W        W24458  44.180  29.049  11.165
52199W        W24459  38.175  43.288   0.701
52200W        W24460  41.946   5.915   0.257
52201W        W24461  43.865  10.786  12.131
52202W        W24462  27.494  10.468  14.831
52203W        W24463   7.936  18.648   3.242
52204W        W24464   5.749   1.018  12.439
52205W        W24465   0.872  28.920   2.835
52206W        W24466  14.178  24.652   4.125
52207W        W24467  14.229  33.704  10.936
52208W        W24468   8.122   1.192  12.521
52209W        W24469  25.504  17.343  13.849
52210W        W24470  40.247  36.978  12.972
52211W        W24471  12.578  20.590  14.397
52212W        W24472   4.284  39.993   3.601
52213W        W24473  42.893   8.455   1.679
52214W        W24474  32.950  40.732   1.768
52215W        W24475   4.378  25.242   1.815
52216W        W24476  17.169   8.881   2.000
52217W        W24477  43.920  12.560   0.646
52218W        W24478  21.670  29.548   2.742
52219W        W24479  24.701  40.908  11.079
52220W        W24480  15.498  43.913   2.777
52221W        W24481  41.335   9.795   0.272
52222W        W24482  24.483   1.402  10.603
52223W        W24483  11.652  23.043  12.416
52224W        W24484  15.857  24.656   5.015
52225W        W24485  33.873  25.713   1.264
52226W        W24486  42.313  12.887  14.864
52227W        W24487   2.502  23.685  12.645
52228W        W24488  14.602  29.168   0.076
52229W        W24489  10.828  14.505   2.739
52230W        W24490  18.075  25.848   1.472
52231W        W24491   6.421  25.515   4.150
52232W        W24492  27.129  29.245   4.237
52233W        W24493  39.796  23.054  14.011
52234W        W24494   7.024  30.182  11.051
52235W        W24495   0.457  37.786  13.229
52236W        W24496  17.401   7.327   0.030
52237W        W24497  24.088  33.588  13.955
52238W        W24498   7.345  11.673   0.455
52239W        W24499  28.383  43.857   4.205
52240W        W24500  17.230   3.520   0.723
52241W        W24501  30.053  42.657  14.812
52242W        W24502   0.036  43.357   1.831
52243W        W24503  27.005  38.092  11.344
52244W        W24504  37.269  33.487   4.036
52245W        W24505  16.388  16.695   9.856
52246W        W24506   6.438  36.865  13.406
52247W        W24507   5.686  26.571   1.252
52248W        W24508  18.233   8.431   1.979
52249W        W24509  31.141  15.690  14.742
52250W        W24510   5.755  43.355  13.650
52251W        W24511  11.356  43.949   3.981
52252W        W24512  33.427  39.527  14.281
52253W        W24513  21.207  35.423  13.056
52254W        W24514  43.037  26.987   1.718
52255W        W24515  17.763  42.771   1.670
52256W        W24516  33.662  27.521   3.601
52257W        W24517  27.126  18.730   2.177
52258W        W24518  42.529  33.413  13.939
52259W        W24519   5.428   4.479  14.565
52260W        W24520  25.260  20.749   0.962
52261W        W24521   0.804  17.564   4.635
52262W        W24522  23.854  34.498   0.388
52263W        W24523  39.427  22.526  12.964
52264W        W24524  32.916  13.091  12.303
52265W        W24525  31.114  25.226  10.601
52266W        W24526  33.061  35.356  12.744
52267W        W24527  30.943  23.243  11.828
52268W        W24528  39.349  20.782  11.487
52269W        W24529  29.277  41.358   3.210
52270W        W24530  32.324  13.394  12.548
52271W        W24531  25.689  30.645   5.219
52272W        W24532  29.498   4.608   4.008
52273W        W24533  18.061  44.368  11.051
52274W        W24534  36.075   4.234  10.861
52275W        W24535   2.357  18.385   3.343
52276W        W24536  44.830   6.762   1.808
52277W        W24537  28.545   4.994  13.030
52278W        W24538  24.168   9.208  13.507
52279W        W24539   8.103   1.803  13.403
52280W        W24540   7.163  30.433  12.612
52281W        W24541  21.247   1.944   0.747
52282W        W24542  34.999  42.739  11.668
52283W        W24543  27.192  43.276   2.040
52284W        W24544  27.471  30.644  14.833
52285W        W24545  10.376  42.554  13.493
52286W        W24546  12.316  34.062  13.504
52287W        W24547  43.352  21.617  14.313
52288W        W24548  24.525  13.337  12.912
52289W        W24549  25.827  23.020   5.047
52290W        W24550  13.222  15.832   2.892
52291W        W24551  40.481  39.372  11.567
52292W        W24552  10.384   7.884  12.623
52293W        W24553  15.852  10.800   2.229
52294W        W24554  40.105  11.351   0.562
52295W        W24555  38.802  41.979  13.843
52296W        W24556  30.664   7.843  14.859
52297W        W24557  34.361  40.416  12.883
52298W        W24558   4.568  11.329  12.343
52299W        W24559  34.272  41.703   2.741
52300W        W24560  16.771  26.145  12.547
52301W        W24561  23.300  12.158   4.698
52302W        W24562  32.346   6.499  12.035
52303W        W24563  17.140   2.792   3.082
52304W        W24564  15.253  36.781   3.723
52305W        W24565  14.644   1.750   2.395
52306W        W24566  29.726  26.295  11.578
52307W        W24567  38.473   7.818   3.281
52308W        W24568  23.462  15.569   3.783
52309W        W24569  38.796   9.934  11.992
52310W        W24570  41.969  27.032   5.132
52311W        W24571  24.216  15.382  11.510
52312W        W24572   7.335  24.516  14.433
52313W        W24573  42.225   4.401  11.853
52314W        W24574  16.346  32.103  13.038
52315W        W24575  22.115  31.207   4.590
52316W        W24576  22.577  36.486  12.254
52317W        W24577   1.669  23.197  12.868
52318W        W24578  18.259  30.686   3.246
52319W        W24579  25.101   6.138   1.267
52320W        W24580  23.482   6.860   0.534
52321W        W24581  16.835   3.493   1.446
52322W        W24582  14.829  37.953   1.046
52323W        W24583  18.865  39.462  14.356
52324W        W24584  38.021  29.947  14.517
52325W        W24585   8.162   4.798  14.411
52326W        W24586   2.519   4.335   3.584
52327W        W24587  25.541  25.625  14.911
52328W        W24588  13.125  40.721  10.702
52329W        W24589  32.870   7.750   2.949
52330W        W24590  20.833  25.729  13.614
52331W        W24591  25.592   2.116   3.131
52332W        W24592  37.531  24.436   0.860
52333W        W24593  13.607  30.370   0.841
52334W        W24594   6.296  10.793  12.952
52335W        W24595  31.077  39.329   1.959
52336W        W24596  44.227  34.486  10.270
52337W        W24597  43.312  25.797   3.815
52338W        W24598  21.329   6.253   0.962
52339W        W24599  38.769   9.325  10.819
52340W        W24600   2.691  25.104   1.499
52341W        W24601  24.451  36.786  12.421
52342W        W24602  43.800  11.369   2.757
52343W        W24603  18.681   4.531   2.845
52344W        W24604  29.246   6.371  12.068
52345W        W24605  41.749  17.591  11.415
52346W        W24606  33.400  35.419   3.037
52347W        W24607   1.964  27.285  10.715
52348W        W24608  14.161   9.843  12.355
52349W        W24609  15.539  31.917   2.016
52350W        W24610   2.679  18.225  14.882
52351W        W24611   2.678  44.405  14.021
52352W        W24612  13.702   2.350   2.392
52353W        W24613  14.445  17.718   4.671
52354W        W24614   7.183  36.140   1.337
52355W        W24615  15.995   6.389   1.971
52356W        W24616   0.933  25.255  13.446
52357W        W24617   3.909  24.498   3.899
52358W        W24618  13.329  14.598  14.531
52359W        W24619  39.784  38.072   1.768
52360W        W24620   2.765  41.460   5.072
52361W        W24621   9.579   9.509  11.437
52362W        W24622  28.631  28.930   3.361
52363W        W24623   5.916   3.771   1.402
52364W        W24624   9.580  16.087   4.052
52365W        W24625   1.028  39.989  13.157
52366W        W24626  30.965  21.076   0.914
52367W        W24627   5.309  18.102   3.613
52368W        W24628  26.355   8.165   4.818
52369W        W24629  28.626  31.596  12.806
52370W        W24630  32.638  37.053   3.321
52371W        W24631  39.779  38.057   4.256
52372W        W24632   6.156  20.233   4.674
52373W        W24633  18.131  10.371   2.748
52374W        W24634  16.336  30.738   2.757
52375W        W24635  35.577  17.019  13.730
52376W        W24636  15.327   7.304  14.964
52377W        W24637   6.741  10.719  14.285
52378W        W24638  20.094   7.091   5.416
52379W        W24639   4.467  41.950  11.938
52380W        W24640  13.094  28.341   0.875
52381W        W24641  18.627  36.531   3.600
52382W        W24642   5.675  29.224   5.755
52383W        W24643   8.990  17.049  12.375
52384W        W24644   0.035  33.165  11.082
52385W        W24645  36.546  10.749   4.453
52386W        W24646  26.839   9.079  14.495
52387W        W24647  39.825  42.823  14.072
52388W        W24648  43.301   9.126  11.130
52389W        W24649   3.735  27.941  10.839
52390W        W24650  13.265  20.721  14.747
52391W        W24651   5.276  43.606   3.728
52392W        W24652   7.893   2.448   4.098
52393W        W24653  23.752  11.758  10.930
52394W        W24654  43.777  16.178  12.362
52395W        W24655  11.769   8.686  11.410
52396W        W24656  14.337   9.005  11.032
52397W        W24657  23.933  16.054   1.722
52398W        W24658   4.152  34.642  13.797
52399W        W24659  41.507  43.026   1.173
52400W        W24660   5.970   9.827  13.710
52401W        W24661   2.468  40.770   1.792
52402W        W24662   4.168   7.929   3.433
52403W        W24663  10.615  19.563  12.683
52404W        W24664   3.604  30.756  10.175
52405W        W24665  43.712  14.237  13.212
52406W        W24666  27.012  11.607   2.788
52407W        W24667  16.308  40.376  12.887
52408W        W24668   9.727  20.314  12.919
52409W        W24669  41.369  41.498  14.948
52410W        W24670   3.445  12.481  14.897
52411W        W24671  29.944  42.722   3.438
52412W        W24672  35.954  43.782   3.646
52413W        W24673  31.489  29.903  11.353
52414W        W24674  33.923  27.704  14.549
52415W        W24675   0.872  41.984  14.516
52416W        W24676  23.133  16.564  12.882
52417W        W24677  33.116  40.392  13.361
52418W        W24678  36.348  40.567   3.316
52419W        W24679  44.010  25.044   4.681
52420W        W24680  13.767  36.050   1.481
52421W        W24681  40.525   5.312   1.929
52422W        W24682  41.439   7.295   3.320
52423W        W24683  43.437  33.664   0.891
52424W        W24684  34.952  11.549  11.723
52425W        W24685  13.161  15.162  10.649
52426W        W24686  12.799  18.691  11.574
52427W        W24687  16.170  25.989  11.508
52428W        W24688   4.420  30.542   3.115
52429W        W24689   0.080  25.092   0.920
52430W        W24690  43.587  11.802  12.963
52431W        W24691   4.849   8.465   1.376
52432W        W24692  29.017  34.529  10.770
52433W        W24693   3.720  12.391  12.442
52434W        W24694  15.728   1.048   3.648
52435W        W24695  11.132  14.173  13.949
52436W        W24696  24.496  38.779  12.080
52437W        W24697  31.629  38.172  13.813
52438W        W24698  38.762  22.489  13.437
52439W        W24699  23.935  28.403   4.167
52440W        W24700  30.887  29.218   0.923
52441W        W24701   5.695  26.189   4.271
52442W        W24702  21.931  11.883   4.555
52443W        W24703  22.134  15.559  11.314
52444W        W24704   0.985  21.526   3.922
52445W        W24705  38.265  21.943   3.293
52446W        W24706  11.670  11.554   3.679
52447W        W24707  23.924  14.403  13.791
52448W        W24708  14.269  31.725  10.888
52449W        W24709   3.910  37.726   2.342
52450W        W24710  27.942  14.553  14.052
52451W        W24711   6.668  22.803  13.191
52452W        W24712  23.252  27.061  14.506
52453W        W24713  38.534  19.137   3.382
52454W        W24714  40.435  33.550   1.960
52455W        W24715  39.303  27.229  14.775
52456W        W24716   5.362  22.700  10.762
52457W        W24717   3.977  38.573   3.449
52458W        W24718  35.777  38.284   2.839
52459W        W24719  33.511  33.562   2.782
52460W        W24720  32.648  19.138  14.933
52461W        W24721  11.455  11.822  13.783
52462W        W24722  26.908  26.424   5.037
52463W        W24723   7.335  28.513  12.867
52464W        W24724  24.991   0.081  11.775
52465W        W24725  23.690  38.680  14.418
52466W        W24726  29.711   3.912   2.429
52467W        W24727  20.217  10.116  11.089
52468W        W24728  27.596   0.904  14.391
52469W        W24729  28.410   6.757   2.912
52470W        W24730   4.358  24.963  13.097
52471W        W24731  43.897   6.347  10.450
52472W        W24732  43.545  24.540  13.458
52473W        W24733  35.485  17.845  12.027
52474W        W24734  27.207  36.601  11.512
52475W        W24735   2.972   4.455   3.370
52476W        W24736  34.299   2.013   4.542
52477W        W24737  14.089  10.303  12.572
52478W        W24738  40.002  31.131  11.601
52479W        W24739  40.343   9.208  12.188
52480W        W24740  34.078   8.836  12.357
52481W        W24741  40.089  30.377   0.878
52482W        W24742  11.736  18.809  10.792
52483W        W24743  42.396  12.048   2.666
52484W        W24744  30.443  39.633  11.673
52485W        W24745  42.332  25.900   3.157
52486W        W24746  19.571  35.086   1.841
52487W        W24747  18.999  23.564  12.145
52488W        W24748  14.847  38.272  10.946
52489W        W24749  14.210   0.555   2.898
52490W        W24750  30.496  28.887   0.877
52491W        W24751   1.415   0.814  11.559
52492W        W24752  39.099  27.195  13.905
52493W        W24753  24.477   8.797  13.410
52494W        W24754  33.902  15.241  13.315
52495W        W24755  27.481  36.569  11.064
52496W        W24756  16.153   0.765   0.229
52497W        W24757  17.629  22.738  11.020
52498W        W24758  26.899  30.891  13.002
52499W        W24759  15.840  18.479  11.151
52500W        W24760  42.968   6.683   1.933
52501W        W24761  41.871  10.025  11.608
52502W        W24762  13.044  20.646  11.114
52503W        W24763  13.208   8.800   1.156
52504W        W24764  20.498  25.259  14.412
52505W        W24765  42.383  43.409  13.091
52506W        W24766  14.157  43.409  10.689
52507W        W24767  42.353  32.950  13.787
52508W        W24768  30.851  23.941  12.861
52509W        W24769  26.333  18.755   1.555
52510W        W24770  17.126  34.232  13.925
52511W        W24771  26.478   4.886   1.731
52512W        W24772  24.118  44.051  13.863
52513W        W24773  20.163  19.750   0.830
52514W        W24774   9.925  11.852   1.842
52515W        W24775  25.886  40.147   1.687
52516W        W24776  11.157  27.205   2.718
52517W        W24777   9.469  16.009  14.069
52518W        W24778  24.655  31.427  11.117
52519W        W24779   3.251  34.067  11.518
52520W        W24780  29.572  38.542  14.958
52521W        W24781  40.469  17.816   4.275
52522W        W24782   9.217   6.779  11.008
52523W        W24783  32.999  43.762  13.808
52524W        W24784   2.366  26.496   3.733
52525W        W24785  25.023  20.505  12.567
52526W        W24786  42.618  11.952  11.162
52527W        W24787   4.977  22.045   0.019
52528W        W24788  24.869  21.669   1.785
52529W        W24789  13.681  27.608  11.015
52530W        W24790   8.158  28.589   1.317
52531W        W24791  28.458  24.509   1.075
52532W        W24792  30.375   8.196   3.811
52533W        W24793  40.933  18.744   4.604
52534W        W24794  31.449  13.925  10.588
52535W        W24795  17.918  24.662  13.397
52536W        W24796  10.625   0.388  14.995
52537W        W24797  40.182  14.891   0.946
52538W        W24798  31.641  37.425   1.754
52539W        W24799  11.830   3.456   2.318
52540W        W24800  17.666  27.480   3.171
52541W        W24801  19.434  16.657  14.796
52542W        W24802  42.935  38.359   3.040
52543W        W24803  21.297   3.281   2.801
52544W        W24804   3.480   8.627  11.080
52545W        W24805  16.428  21.574   4.918
52546W        W24806   9.449  34.127  11.169
52547W        W24807  38.602  35.113  11.612
52548W        W24808  40.047  17.510   4.060
52549W        W24809  16.123  33.407   4.591
52550W        W24810  20.750  41.053   0.643
52551W        W24811  10.403  42.946   3.505
52552W        W24812   3.013  14.350   1.681
52553W        W24813  24.491  28.692   2.744
52554W        W24814  16.250   0.851   1.403
52555W        W24815  25.947  34.650   0.976
52556W        W24816  34.553  33.594   2.863
52557W        W24817  44.835   3.307   4.530
52558W        W24818  44.444   3.308   1.346
52559W        W24819  25.865   3.510   0.879
52560W        W24820  23.172  23.928   2.313
52561W        W24821  22.541   6.796  11.578
52562W        W24822  15.854  26.499  12.578
52563W        W24823  24.433  12.060   0.302
52564W        W24824  23.984  41.695   0.799
52565W        W24825  26.538  19.762   2.658
52566W        W24826   7.882  26.954   4.569
52567W        W24827  37.735  11.580   3.253
52568W        W24828  26.767  12.768  10.674
52569W        W24829  32.068  21.993  12.628
52570W        W24830  19.210  26.493  14.020
52571W        W24831  11.982  27.844   1.783
52572W        W24832  10.289  34.703   3.927
52573W        W24833   5.789  29.070   2.840
52574W        W24834  14.592  33.991   0.866
52575W        W24835  43.903  26.590  14.808
52576W        W24836  27.051  33.387   3.056
52577W        W24837  42.871  13.039   4.571
52578W        W24838  25.503   3.020  12.352
52579W        W24839  35.227   2.301   4.593
52580W        W24840   3.219   9.610   0.929
52581W        W24841  33.376  11.209  10.620
52582W        W24842  23.657  17.885  12.028
52583W        W24843  23.566  44.494   0.916
52584W        W24844  23.304  36.153  14.340
52585W        W24845  23.142  28.018   1.429
52586W        W24846  30.576  30.681   2.869
52587W        W24847  36.326  43.930  11.864
52588W        W24848  35.139  24.971  13.669
52589W        W24849  41.891  13.998   1.168
52590W        W24850  23.704  27.156   1.390
52591W        W24851  19.618  35.157   2.742
52592W        W24852   3.980  19.152   3.729
52593W        W24853  21.453  10.322   0.229
52594W        W24854  16.109  23.284  11.096
52595W        W24855   3.813  38.052   1.896
52596W        W24856  20.610  12.244   3.132
52597W        W24857   5.620  24.988   0.701
52598W        W24858  40.020  41.064   3.673
52599W        W24859   6.466  17.113   0.342
52600W        W24860  24.486  44.028   1.425
52601W        W24861  10.316  22.144  10.750
52602W        W24862   8.771   0.932   1.757
52603W        W24863  25.062  17.795   0.743
52604W        W24864  14.320   0.393  12.498
52605W        W24865  30.650  11.681   4.114
52606W        W24866  31.720  15.990  14.212
52607W        W24867  40.316  44.328   2.294
52608W        W24868  10.951  31.455   2.583
52609W        W24869   3.394  28.022   3.746
52610W        W24870  10.848  35.497   1.440
52611W        W24871  27.908  30.393   2.293
52612W        W24872   1.878  35.256   2.514
52613W        W24873  23.520   7.652   2.581
52614W        W24874  11.845  10.694   3.446
52615W        W24875  31.681   2.535  14.446
52616W        W24876  27.490  35.502  14.995
52617W        W24877  26.545  33.501   0.832
52618W        W24878  11.744  36.425   1.683
52619W        W24879   5.957  37.985   1.971
52620W        W24880  37.868  18.157  13.756
52621W        W24881  25.759  15.165  14.828
52622W        W24882  30.016  16.716  14.284
52623W        W24883  17.755   3.039  11.867
52624W        W24884  39.463  40.821  11.020
52625W        W24885  10.638  28.922  13.498
52626W        W24886  15.159  19.198   2.414
52627W        W24887  21.308  27.931  11.558
52628W        W24888  14.121  14.861   3.379
52629W        W24889   1.692  28.960  11.149
52630W        W24890  16.524  15.230  11.090
52631W        W24891  19.299  21.632  11.891
52632W        W24892  16.139  14.528   0.843
52633W        W24893  33.349  16.028   4.107
52634W        W24894  17.760   8.814  13.149
52635W        W24895  11.680  38.321  14.383
52636W        W24896  24.064  42.241  11.965
52637W        W24897  20.754   3.890  11.922
52638W        W24898   1.291  29.857   1.620
52639W        W24899  14.873  28.349   3.332
52640W        W24900  39.505  42.286  11.559
52641W        W24901  30.487  36.877   4.785
52642W        W24902  11.320  18.515   0.812
52643W        W24903  21.301  34.471   4.717
52644W        W24904  43.264  35.464  10.384
52645W        W24905   7.765   4.125  11.888
52646W        W24906  39.072   8.154  11.547
52647W        W24907   0.438   5.886  13.414
52648W        W24908  12.079  17.025   0.839
52649W        W24909  17.600  31.988  11.441
52650W        W24910  28.700  12.842   0.638
52651W        W24911  38.342  25.019  14.255
52652W        W24912  26.340   1.854   2.126
52653W        W24913   1.235  38.827   2.372
52654W        W24914  34.623  39.504   4.099
52655W        W24915  21.675  23.451  13.103
52656W        W24916  13.550   9.349  14.047
52657W        W24917  26.415  41.831  10.697
52658W        W24918  31.130  26.370   2.911
52659W        W24919  22.046  40.579   1.281
52660W        W24920  36.144   5.980   2.639
52661W        W24921   1.314  28.440  12.884
52662W        W24922  41.885  25.926  12.940
52663W        W24923  33.435   6.674   3.876
52664W        W24924  40.019   1.963   0.778
52665W        W24925  43.391  29.625   4.262
52666W        W24926  33.581  21.084   4.262
52667W        W24927  36.242  21.992   0.472
52668W        W24928  40.795  40.561   2.748
52669W        W24929  15.480  24.238   1.297
52670W        W24930  12.254   4.893  12.869
52671W        W24931  17.045  15.865  14.533
52672W        W24932  18.657  43.224  13.966
52673W        W24933  33.650  24.049  10.857
52674W        W24934  23.251  39.429   4.075
52675W        W24935   8.424   1.958  13.785
52676W        W24936  14.791  24.607  13.098
52677W        W24937  28.905  44.118  11.132
52678W        W24938  27.685  33.421   2.450
52679W        W24939   1.410  12.867   4.067
52680W        W24940  44.218  37.285  12.044
52681W        W24941  29.469   9.266  12.505
52682W        W24942  32.161  22.450  11.168
52683W        W24943   5.442  41.759   0.741
52684W        W24944  13.915  10.205  11.641
52685W        W24945  35.926   7.006   0.806
52686W        W24946   3.026  37.290   3.097
52687W        W24947  10.932  20.333  14.777
52688W        W24948  30.683   3.498   5.163
52689W        W24949  16.469  28.003  13.282
52690W        W24950  26.059  32.811  12.063
52691W        W24951  17.652  31.028   3.901
52692W        W24952  17.953  21.891   2.649
52693W        W24953   6.357  19.206   1.799
52694W        W24954  38.818  43.859   0.436
52695W        W24955  15.556  19.483   2.618
52696W        W24956   5.934   7.609  12.931
52697W        W24957  44.033  13.883   1.869
52698W        W24958   4.808  42.304  14.547
52699W        W24959  37.644  17.089   2.432
52700W        W24960  12.878  16.313  13.371
52701W        W24961   5.199  18.162   0.729
52702W        W24962  38.474  34.048   4.178
52703W        W24963  42.244   4.816   2.638
52704W        W24964  30.158  14.530   3.303
52705W        W24965  14.725  10.668  14.811
52706W        W24966   6.753  32.554   4.832
52707W        W24967  15.678  31.114   0.958
52708W        W24968  21.944   5.329  12.362
52709W        W24969  22.188  12.214   2.328
52710W        W24970  12.235  43.440   1.155
52711W        W24971  33.228   0.820   1.556
52712W        W24972  24.761  39.984   2.413
52713W        W24973  32.585  32.587  14.229
52714W        W24974  11.809  38.933   0.626
52715W        W24975  26.559  23.472   4.093
52716W        W24976   2.371  13.239  12.866
52717W        W24977  23.154  40.430  11.426
52718W        W24978  28.221  32.835   4.438
52719W        W24979  33.591  27.006  12.068
52720W        W24980  23.624   4.667   3.205
52721W        W24981  21.758  36.685   3.682
52722W        W24982  44.827  37.871  11.606
52723W        W24983  21.645   1.801   1.970
52724W        W24984  30.847  42.032   1.270
52725W        W24985  35.648  32.384   1.425
52726W        W24986   3.926   6.779   4.062
52727W        W24987   3.343  23.255   1.242
52728W        W24988  16.318  20.552  11.517
52729W        W24989  30.102  13.345   2.749
52730W        W24990   9.394  13.205   2.757
52731W        W24991   1.917  38.283  13.914
52732W        W24992  19.078   5.827   2.147
52733W        W24993  14.633  23.109   0.175
52734W        W24994  35.279  24.698  14.117
52735W        W24995  10.275  21.476   1.868
52736W        W24996  34.797  40.486   4.106
52737W        W24997   1.749   0.502  13.024
52738W        W24998   0.311  18.614  12.051
52739W        W24999  41.355  22.287  12.864
52740W        W25000   7.310  17.197  11.092
52741W        W25001  25.631  40.954  12.493
52742W        W25002  34.771  17.180  11.292
52743W        W25003  14.105  36.758   4.350
52744W        W25004  33.010  27.352   2.118
52745W        W25005  12.205   2.427  13.113
52746W        W25006  14.733   6.289   4.134
52747W        W25007   3.765  15.336  10.389
52748W        W25008  10.568   6.809   3.413
52749W        W25009  31.879  12.309  10.954
52750W        W25010  26.589  44.316   2.825
52751W        W25011   8.795  22.040  10.632
52752W        W25012   4.658  39.067   3.837
52753W        W25013  18.706  41.821   1.239
52754W        W25014   6.437   7.206   1.309
52755W        W25015  14.708   0.927   1.443
52756W        W25016  15.069  28.508   4.206
52757W        W25017  35.885  43.927   1.750
52758W        W25018  10.804   8.190   3.344
52759W        W25019  29.571  40.393   9.935
52760W        W25020  33.070  25.500   1.931
52761W        W25021  28.038   4.909   4.451
52762W        W25022  12.614   7.398   0.540
52763W        W25023  39.442   5.842  12.587
52764W        W25024  39.927   5.481   0.797
52765W        W25025  24.697  24.696   4.459
52766W        W25026  13.010  29.081  13.836
52767W        W25027  17.639   2.012   0.844
52768W        W25028  41.755  15.583  12.869
52769W        W25029  14.251  42.372   4.140
52770W        W25030   9.137  39.854   4.696
52771W        W25031  31.027  35.940  12.422
52772W        W25032  29.454   2.979   1.287
52773W        W25033  10.188  12.806   3.216
52774W        W25034  11.579   2.302   2.767
52775W        W25035  38.097  26.513  13.373
52776W        W25036  18.368  36.508  13.002
52777W        W25037  37.212  21.540   5.164
52778W        W25038   0.272  10.122  10.382
52779W        W25039  41.913  26.441  13.021
52780W        W25040  39.846  31.904   2.745
52781W        W25041  34.347  42.990   0.301
52782W        W25042  26.393  29.513  14.433
52783W        W25043  14.350  40.247  13.270
52784W        W25044  29.029  17.800  14.434
52785W        W25045  38.433  37.841   3.181
52786W        W25046  38.323   9.758   3.236
52787W        W25047  35.488  41.276  13.143
52788W        W25048  10.121   5.481   2.313
52789W        W25049  30.939  27.540  11.065
52790W        W25050  31.519  17.017   2.715
52791W        W25051  30.836  19.975  14.817
52792W        W25052  26.307   3.252  14.507
52793W        W25053  32.006  37.381  14.845
52794W        W25054  12.032  44.760  13.919
52795W        W25055  28.437   6.185  11.536
52796W        W25056  19.165  32.868   1.687
52797W        W25057  28.405  38.857   2.278
52798W        W25058  15.602   7.797  13.503
52799W        W25059  40.944   7.236  14.276
52800W        W25060  22.181  27.677   0.660
52801W        W25061  26.539  17.753  12.816
52802W        W25062  38.834  22.603  12.468
52803W        W25063  14.654  33.842   3.649
52804W        W25064   4.635  40.834   4.602
52805W        W25065  25.071  27.522  11.828
52806W        W25066  35.923  26.063  11.041
52807W        W25067  11.566  34.104   1.260
52808W        W25068  13.777   3.252   0.283
52809W        W25069  22.950   1.398  13.042
52810W        W25070   4.290  18.713   4.478
52811W        W25071   7.382  42.444   4.084
52812W        W25072  37.488  22.114  12.105
52813W        W25073  29.889  19.397  12.423
52814W        W25074  32.855  30.537   4.286
52815W        W25075  34.408  42.253   0.551
52816W        W25076  22.774  40.520  10.702
52817W        W25077   8.312  34.305  14.824
52818W        W25078  32.244  25.753   1.291
52819W        W25079  16.340   2.919  12.888
52820W        W25080  33.002  39.385   4.558
52821W        W25081   0.393  24.938   4.026
52822W        W25082  32.105  33.274  14.324
52823W        W25083  21.121  24.448  13.370
52824W        W25084  29.861  32.408   4.011
52825W        W25085  27.235  21.001   2.743
52826W        W25086   4.761  17.157   0.933
52827W        W25087  34.506   2.405   1.242
52828W        W25088  19.316  10.478  11.264
52829W        W25089  12.360  31.219   1.380
52830W        W25090  12.028   7.962  12.964
52831W        W25091  42.773  18.432  10.885
52832W        W25092  21.834   5.684  11.053
52833W        W25093  24.029  21.326  12.804
52834W        W25094  21.641  12.834   4.136
52835W        W25095   5.232   9.898   3.212
52836W        W25096  20.053  29.900  11.654
52837W        W25097  32.134  24.538   0.540
52838W        W25098  16.398   2.180  11.193
52839W        W25099  37.489   6.153  11.075
52840W        W25100  10.128  37.725   5.217
52841W        W25101  30.930  36.622   4.637
52842W        W25102  33.472   8.484  12.016
52843W        W25103  35.436  33.943   3.302
52844W        W25104  17.122  40.066   0.729
52845W        W25105  12.687  43.888   4.418
52846W        W25106  12.832   2.714   0.437
52847W        W25107  37.519  34.626   0.072
52848W        W25108  11.314  11.252   1.929
52849W        W25109  30.157   8.733  13.288
52850W        W25110  17.375   4.259   2.733
52851W        W25111  32.491   1.704   4.202
52852W        W25112  21.172  36.504  14.910
52853W        W25113  17.284   9.234   1.183
52854W        W25114  43.343  33.415  12.353
52855W        W25115  16.586  15.073   1.653
52856W        W25116  37.947   0.822   2.416
52857W        W25117  40.021  29.584  10.762
52858W        W25118  34.446  42.802  10.822
52859W        W25119   6.672  28.448   4.594
52860W        W25120  19.706   8.256  10.253
52861W        W25121  20.580  27.986  14.454
52862W        W25122  42.351   8.077  14.343
52863W        W25123  43.991  10.650  14.954
52864W        W25124  39.211   9.378  10.572
52865W        W25125   1.555  13.753   2.744
52866W        W25126  38.011  19.966  14.952
52867W        W25127   7.333   2.238   4.325
52868W        W25128   7.858  26.936  12.518
52869W        W25129  13.089  32.857   4.795
52870W        W25130  23.807  36.048  14.945
52871W        W25131   1.895  18.591  14.988
52872W        W25132  17.194   5.785  14.187
52873W        W25133   3.723   8.907  14.789
52874W        W25134  12.072  12.393  12.271
52875W        W25135  35.514  31.988   3.234
52876W        W25136  35.532  23.155   0.708
52877W        W25137   7.265  34.660   0.436
52878W        W25138  40.336  22.723  11.421
52879W        W25139  13.679  38.311   0.982
52880W        W25140  26.732  38.795  13.758
52881W        W25141  39.581  36.165  12.458
52882W        W25142  14.687  22.581   1.773
52883W        W25143  44.236   1.885   4.094
52884W        W25144  35.962  20.142   0.015
52885W        W25145  40.422  18.896   9.989
52886W        W25146  29.122  36.108  14.361
52887W        W25147  10.726  33.926  13.403
52888W        W25148  25.776  40.949  11.099
52889W        W25149  24.040  37.135  12.406
52890W        W25150   1.833  35.991  10.668
52891W        W25151  42.345   0.614   0.248
52892W        W25152  29.467  29.135   2.786
52893W        W25153  13.894   1.827  10.636
52894W        W25154  26.163  25.315   1.506
52895W        W25155  15.043  24.951   2.334
52896W        W25156   9.205  25.588  10.723
52897W        W25157   7.711   6.645   4.638
52898W        W25158  39.621  36.467  14.459
52899W        W25159  19.497  18.057  13.372
52900W        W25160  28.578  39.326   1.393
52901W        W25161  18.040  22.156  13.986
52902W        W25162  23.784  40.318   0.848
52903W        W25163  35.084  17.189   3.567
52904W        W25164  34.170   5.660  14.762
52905W        W25165  21.598  22.056   4.236
52906W        W25166  27.476  14.916   2.383
52907W        W25167  16.102  35.095   2.633
52908W        W25168  40.954  42.777  12.076
52909W        W25169   5.483  41.913  13.824
52910W        W25170  33.153  31.534   1.738
52911W        W25171  44.716  22.023  12.121
52912W        W25172  36.439  23.155   0.153
52913W        W25173   5.393   0.312  12.614
52914W        W25174   2.200   9.825  12.103
52915W        W25175  33.358  17.859  11.254
52916W        W25176  15.089  21.846   4.523
52917W        W25177  41.745  28.059  14.321
52918W        W25178   1.735  41.949   4.638
52919W        W25179  22.547  23.655   4.615
52920W        W25180  43.664  22.661  14.463
52921W        W25181  19.403  10.587   1.367
52922W        W25182  14.821  29.428   1.449
52923W        W25183   5.534  32.094   1.276
52924W        W25184  17.666   7.845  13.113
52925W        W25185  11.769   4.750   3.141
52926W        W25186  10.954  32.740   1.549
52927W        W25187   4.887  24.135   2.278
52928W        W25188  43.353  32.106   2.777
52929W        W25189  37.871   1.907   1.676
52930W        W25190  11.168   9.764  12.201
52931W        W25191  11.613  11.393   0.307
52932W        W25192  41.261  39.136   5.049
52933W        W25193  16.823   3.430   4.550
52934W        W25194  31.950  36.061   1.479
52935W        W25195  40.462  29.687   2.251
52936W        W25196   6.405  11.981   5.034
52937W        W25197  33.666  31.006  11.482
52938W        W25198  11.799   9.758   3.168
52939W        W25199   7.851  14.757  12.052
52940W        W25200  20.559   1.000  14.086
52941W        W25201  38.659  31.516  11.083
52942W        W25202   6.399  23.348   4.073
52943W        W25203  28.407  14.145   1.183
52944W        W25204  14.276  13.911  11.051
52945W        W25205  43.544   6.985   2.178
52946W        W25206  40.978  25.630   4.663
52947W        W25207   6.208  31.427   4.565
52948W        W25208  17.281  30.953   0.404
52949W        W25209  37.249   9.553   5.385
52950W        W25210  39.933  36.171  12.865
52951W        W25211  34.590  40.228  12.439
52952W        W25212  38.364   6.840  14.058
52953W        W25213  32.950  44.753  11.608
52954W        W25214  24.194  37.522   4.382
52955W        W25215  19.984  31.081   2.737
52956W        W25216  10.896  25.477   3.730
52957W        W25217  14.329  16.108   1.598
52958W        W25218  41.461  14.682  11.185
52959W        W25219  13.572  19.778   2.769
52960W        W25220  42.552  10.377  14.006
52961W        W25221  25.467  42.579  10.499
52962W        W25222   1.958  41.448   3.543
52963W        W25223  19.250   1.843  14.857
52964W        W25224   6.829  36.130   3.627
52965W        W25225   8.732  11.097   1.414
52966W        W25226   0.207   8.178   3.185
52967W        W25227  34.406  37.634   2.305
52968W        W25228  39.032  31.176  13.639
52969W        W25229  41.840  28.988  13.935
52970W        W25230  39.788  15.890  12.958
52971W        W25231  24.277  43.496   0.398
52972W        W25232   8.888   9.221   3.164
52973W        W25233   7.584  10.895  13.987
52974W        W25234  33.385  43.307   1.137
52975W        W25235  38.087   9.169   3.888
52976W        W25236   1.805  35.640   2.862
52977W        W25237   2.311  24.624   4.517
52978W        W25238  38.386   9.323  14.790
52979W        W25239  11.370  14.330  11.077
52980W        W25240  24.156   3.773   4.235
52981W        W25241  32.410  31.740   2.210
52982W        W25242  33.392   5.048   5.110
52983W        W25243  37.385   8.564  12.937
52984W        W25244  44.410  21.244   4.618
52985W        W25245  26.540  42.090   3.842
52986W        W25246  43.301  11.201   4.039
52987W        W25247   8.753  33.398   4.914
52988W        W25248  24.060  31.292   2.733
52989W        W25249  15.155  42.530   4.256
52990W        W25250  16.132  30.579  13.799
52991W        W25251  40.026  12.687  11.483
52992W        W25252  33.623  26.188  11.055
52993W        W25253  34.412  12.392   3.359
52994W        W25254  26.409  12.378   2.760
52995W        W25255   1.849  12.699   1.379
52996W        W25256  40.349   9.307   9.804
52997W        W25257  24.965  25.651  14.948
52998W        W25258  16.058  27.567   1.720
52999W        W25259  37.856  35.892  13.300
53000W        W25260  36.945  24.289  12.824
53001W        W25261  12.875   3.984   3.132
53002W        W25262  42.739  22.098  12.609
53003W        W25263  35.031  28.890  10.534
53004W        W25264  11.594  26.287  12.001
53005W        W25265  35.148  21.293   2.896
53006W        W25266  24.780  11.058   4.393
53007W        W25267  22.965  42.556  11.132
53008W        W25268  40.597  19.861  14.339
53009W        W25269  18.802   5.364   4.242
53010W        W25270   1.536   6.855   1.100
53011W        W25271  37.496  18.533   2.638
53012W        W25272  28.600  22.245  11.664
53013W        W25273   8.723  31.035  10.680
53014W        W25274   6.112  41.509   4.185
53015W        W25275  11.641   7.765   3.437
53016W        W25276  41.191  15.959   3.276
53017W        W25277  26.491  10.304   4.499
53018W        W25278  33.348   4.231  11.827
53019W        W25279  25.863  29.113   2.217
53020W        W25280  24.707  32.226  13.378
53021W        W25281  31.357  32.742  12.896
53022W        W25282  36.600  10.667   1.839
53023W        W25283   3.904  17.706   2.877
53024W        W25284  26.754   7.243   2.211
53025W        W25285  19.580  29.661  13.843
53026W        W25286  44.485  21.714   3.685
53027W        W25287  23.467  23.054  11.005
53028W        W25288  15.571  12.241  14.343
53029W        W25289  14.716  14.531  14.365
53030W        W25290  20.230  15.329   4.447
53031W        W25291  41.040  23.248   1.813
53032W        W25292   6.469  13.868   4.065
53033W        W25293  43.456  14.411  11.666
53034W        W25294   6.328   3.030   0.054
53035W        W25295   6.595  17.274  13.895
53036W        W25296  30.246  28.425  11.830
53037W        W25297  42.256   8.649   0.681
53038W        W25298  42.364  19.239   4.585
53039W        W25299  38.084  28.712   0.006
53040W        W25300   0.012  30.676  13.869
53041W        W25301  28.561  28.978  14.985
53042W        W25302   7.235  30.316   3.865
53043W        W25303  11.631  29.888   5.196
53044W        W25304  35.978  35.702   1.927
53045W        W25305  15.035  35.069  11.528
53046W        W25306   0.503   8.200   2.725
53047W        W25307  28.360  25.827  11.306
53048W        W25308  35.010  25.118  13.027
53049W        W25309  42.460  21.971  11.610
53050W        W25310  27.566  28.706  11.487
53051W        W25311  31.327  23.651   2.772
53052W        W25312   0.312  15.742   3.734
53053W        W25313  34.908  12.675  12.634
53054W        W25314  18.368  42.623   1.331
53055W        W25315   3.271  39.705   4.285
53056W        W25316   0.996  39.586   1.315
53057W        W25317  19.513  20.576   3.777
53058W        W25318   9.908   8.731   2.105
53059W        W25319  36.312  11.198  11.500
53060W        W25320   2.138  35.130   3.836
53061W        W25321   7.172  23.170   1.739
53062W        W25322  12.593  27.376  11.918
53063W        W25323  13.915  31.670  13.645
53064W        W25324  12.863  19.172   2.709
53065W        W25325  10.557   1.465   3.685
53066W        W25326   0.468  26.919   3.313
53067W        W25327   6.797  35.846   4.101
53068W        W25328  16.876  41.324   0.349
53069W        W25329   3.253   3.533   4.158
53070W        W25330  36.845  40.973  12.989
53071W        W25331  24.025   3.189   2.269
53072W        W25332  12.633  26.099   2.701
53073W        W25333  26.150  34.152  11.502
53074W        W25334  15.164  19.211   4.336
53075W        W25335  11.599  21.650   1.009
53076W        W25336  36.823   6.969   4.170
53077W        W25337  13.403  32.094  12.482
53078W        W25338  35.871  13.318   1.302
53079W        W25339  39.089  44.821   1.985
53080W        W25340  23.525  20.314   1.967
53081W        W25341  39.609  43.420  12.875
53082W        W25342  24.525  33.645  10.660
53083W        W25343  29.587  28.574  13.400
53084W        W25344  36.088  44.788   3.666
53085W        W25345  16.144   1.779   1.233
53086W        W25346  19.426  37.859  12.454
53087W        W25347  40.330   6.348   4.147
53088W        W25348   4.009  43.007   0.826
53089W        W25349  42.873  19.478   0.923
53090W        W25350  41.930  21.048  10.438
53091W        W25351  24.941   1.158   1.452
53092W        W25352  16.017  44.347   2.073
53093W        W25353  14.881  23.251   1.207
53094W        W25354  18.452  28.151   3.775
53095W        W25355  14.333  34.932   1.362
53096W        W25356  31.534  22.785  11.475
53097W        W25357   0.846  25.619   3.071
53098W        W25358  37.292  42.309   1.741
53099W        W25359  12.945  35.866   1.273
53100W        W25360  39.516  29.482  10.738
53101W        W25361  22.649  27.226  13.407
53102W        W25362  16.707  21.244   4.583
53103W        W25363  41.365  30.597  11.205
53104W        W25364  18.094   7.373  14.381
53105W        W25365  21.704   2.975  11.621
53106W        W25366   4.864   1.576  14.353
53107W        W25367   2.113   3.892  11.928
53108W        W25368  35.342  33.445  13.791
53109W        W25369  28.289  28.604  11.936
53110W        W25370   0.735  21.045  14.423
53111W        W25371  31.068  12.246  12.657
53112W        W25372  17.401  16.905   0.950
53113W        W25373  11.196  13.414  14.330
53114W        W25374  29.646  44.488  10.578
53115W        W25375  23.580   8.348  13.429
53116W        W25376  29.563  38.932   3.689
53117W        W25377   6.900   9.263   0.965
53118W        W25378  18.670  17.152   3.718
53119W        W25379  15.381  21.337  11.500
53120W        W25380   0.279   2.344   3.134
53121W        W25381  16.501  28.122  11.946
53122W        W25382  32.007  13.076   0.233
53123W        W25383  19.301  24.548  12.706
53124W        W25384  37.500   3.190  12.543
53125W        W25385  18.687   6.841   1.420
53126W        W25386  11.081  34.584   0.897
53127W        W25387  35.363   1.592   3.575
53128W        W25388  36.018  10.185  14.570
53129W        W25389  31.456  22.570  12.355
53130W        W25390  24.394  18.045   3.301
53131W        W25391   8.891  31.073   2.716
53132W        W25392  28.494   1.748  10.589
53133W        W25393   6.428  35.784   2.943
53134W        W25394   4.792  32.372   3.125
53135W        W25395  17.192  43.290  12.943
53136W        W25396  28.674  32.355   5.507
53137W        W25397  12.384  39.718  12.441
53138W        W25398  37.792  11.061   3.175
53139W        W25399   3.460  10.261   3.216
53140W        W25400   6.449   3.920  12.618
53141W        W25401  13.263  37.096  11.193
53142W        W25402   4.759  17.157  13.392
53143W        W25403  10.174  31.394  12.048
53144W        W25404  33.584  16.703   4.616
53145W        W25405  30.654  41.587  11.166
53146W        W25406  44.960  19.039   3.751
53147W        W25407   7.583  30.386   4.548
53148W        W25408  40.621  41.416  13.822
53149W        W25409  28.082  10.069  12.783
53150W        W25410  28.949  41.695   4.927
53151W        W25411   5.715  38.589  11.369
53152W        W25412   9.055  13.472   3.049
53153W        W25413   4.457  36.010   4.349
53154W        W25414   3.660  38.986   3.692
53155W        W25415  43.401  35.121   4.537
53156W        W25416   1.305  10.291  13.265
53157W        W25417  44.033  44.863  11.783
53158W        W25418  39.181  10.181   4.121
53159W        W25419  23.720  42.750  13.970
53160W        W25420  17.226  23.414   0.409
53161W        W25421  16.802  43.896  11.402
53162W        W25422   6.499  34.656  13.982
53163W        W25423  11.160  12.372   2.590
53164W        W25424  34.836  33.399  13.952
53165W        W25425   5.250   7.598  11.328
53166W        W25426  43.743  14.609  12.851
53167W        W25427  21.497  40.631  12.835
53168W        W25428  34.450   1.176   3.300
53169W        W25429   5.877  14.605  11.229
53170W        W25430  10.906  36.497   1.381
53171W        W25431  42.299  12.918   4.539
53172W        W25432   3.313   4.687  14.445
53173W        W25433  26.261  30.428   3.270
53174W        W25434  19.538  16.821   2.832
53175W        W25435  44.590  39.766  13.334
53176W        W25436  30.996  36.267  12.876
53177W        W25437  14.044  11.786   0.796
53178W        W25438   7.321  24.056   3.584
53179W        W25439  35.445   7.776  10.696
53180W        W25440  35.825  39.054   1.522
53181W        W25441  27.418   2.347  14.350
53182W        W25442  19.414  28.018   4.655
53183W        W25443  27.444  32.044  10.636
53184W        W25444  29.283  15.659  13.465
53185W        W25445   7.546  27.446  14.763
53186W        W25446  30.858   1.443  12.979
53187W        W25447  27.516  26.860   3.237
53188W        W25448  31.136   9.511  10.962
53189W        W25449  32.066  27.668  14.256
53190W        W25450  23.769  34.031   1.647
53191W        W25451  36.898  39.924  12.852
53192W        W25452   7.016   6.266  13.655
53193W        W25453  19.448   5.367  11.612
53194W        W25454  21.510  34.366   1.483
53195W        W25455  37.572  19.775   4.105
53196W        W25456  14.643  40.995   0.445
53197W        W25457  19.027  21.519  14.524
53198W        W25458  18.956   8.989  11.946
53199W        W25459  12.213  22.038  10.968
53200W        W25460  40.838  38.821   4.160
53201W        W25461  28.095  14.521  11.017
53202W        W25462  19.068  32.630  12.127
53203W        W25463   8.200  18.171   4.320
53204W        W25464  42.309  42.409  10.731
53205W        W25465  30.571   8.849  13.560
53206W        W25466  19.159   7.150  13.751
53207W        W25467  35.128  20.455  13.030
53208W        W25468  15.860   7.660   0.352
53209W        W25469  35.087  35.107  13.573
53210W        W25470   1.889  22.201  14.969
53211W        W25471  30.443  31.330  12.522
53212W        W25472  35.087  28.086   3.643
53213W        W25473  28.511  29.530  10.854
53214W        W25474  12.717  36.141   4.548
53215W        W25475  34.080  20.347   1.367
53216W        W25476   5.690   6.686   0.450
53217W        W25477   5.255  29.910   0.945
53218W        W25478  11.044   3.988   2.841
53219W        W25479  32.426  23.083   4.248
53220W        W25480  33.890  22.544  11.631
53221W        W25481  38.130  11.868   1.985
53222W        W25482  13.828  27.838  12.398
53223W        W25483  41.042  23.089  12.533
53224W        W25484  36.414  43.729  10.887
53225W        W25485  20.006   0.117  13.902
53226W        W25486  39.877  16.284   3.679
53227W        W25487  30.878  24.232  10.673
53228W        W25488  26.661  26.660  12.397
53229W        W25489   1.961  30.183   2.284
53230W        W25490  29.574  26.501  12.021
53231W        W25491  19.190   9.376   5.545
53232W        W25492  39.164  25.892   2.704
53233W        W25493  32.891  24.625  10.922
53234W        W25494  39.038  42.959  12.235
53235W        W25495  42.241  17.319  14.998
53236W        W25496   9.375  35.826  13.933
53237W        W25497  16.314  20.989  10.684
53238W        W25498  25.580  40.397   2.319
53239W        W25499  35.380  32.290   1.852
53240W        W25500  14.489   3.295   3.238
53241W        W25501  28.816  27.306  11.148
53242W        W25502  17.762  13.844  14.074
53243W        W25503  22.606  19.152  14.726
53244W        W25504  18.308  38.082  14.803
53245W        W25505  11.703  19.356  13.346
53246W        W25506  31.647  37.138   0.727
53247W        W25507  24.051  17.652   0.672
53248W        W25508   7.312  11.906  13.468
53249W        W25509  44.698  33.028  13.844
53250W        W25510  35.833  19.129  11.390
53251W        W25511  22.680  30.862   0.045
53252W        W25512   0.945  44.536   4.196
53253W        W25513  44.512  21.603  11.861
53254W        W25514   1.157  36.992   2.129
53255W        W25515  13.906  43.328   3.667
53256W        W25516  26.176  38.792  14.454
53257W        W25517  12.616   5.365  14.919
53258W        W25518  25.454   8.145   0.028
53259W        W25519  18.066  27.507  12.706
53260W        W25520  39.755  30.987   4.078
53261W        W25521  10.463   3.516  11.930
53262W        W25522  34.541  31.996  11.521
53263W        W25523   0.498  25.997   1.208
53264W        W25524  11.749   5.800   2.157
53265W        W25525  40.281  15.196   4.432
53266W        W25526  42.916  13.240  14.461
53267W        W25527  23.751   9.280   3.520
53268W        W25528  30.530  37.830  14.323
53269W        W25529   0.941  23.708  11.561
53270W        W25530  16.140   9.117  13.949
53271W        W25531  44.514  10.150   2.269
53272W        W25532  38.532  12.662   4.106
53273W        W25533  24.178  13.060   1.736
53274W        W25534  18.681  18.206  11.198
53275W        W25535   5.417  40.869  12.438
53276W        W25536  34.055  13.828   3.851
53277W        W25537  18.367   0.243  14.382
53278W        W25538  31.753  44.892   4.720
53279W        W25539  13.933   5.861  13.932
53280W        W25540  39.363  19.299   2.871
53281W        W25541  40.746  41.176   2.420
53282W        W25542  26.412   1.492  14.049
53283W        W25543  39.750  20.467   4.155
53284W        W25544  38.958  44.387   5.033
53285W        W25545  18.054  23.044   1.300
53286W        W25546  21.302  29.583   4.479
53287W        W25547  22.389  22.910  14.392
53288W        W25548  26.204   7.925   0.378
53289W        W25549  19.679  11.342   1.907
53290W        W25550  21.518  35.081  13.837
53291W        W25551  40.628  31.034   0.934
53292W        W25552  24.149  33.301   9.992
53293W        W25553  19.018  32.738   2.158
53294W        W25554   8.407  24.351   3.172
53295W        W25555  26.282  26.114  10.444
53296W        W25556  11.327  40.347  13.821
53297W        W25557  39.549  32.320  12.937
53298W        W25558  11.140  26.960   3.263
53299W        W25559  18.716   6.408   2.132
53300W        W25560  41.070  27.491   2.752
53301W        W25561  22.695  40.271  14.548
53302W        W25562  32.101  29.998  10.706
53303W        W25563  29.650   6.316  13.921
53304W        W25564  25.256   3.732   1.321
53305W        W25565  11.305  44.006   4.502
53306W        W25566   9.837  43.736   3.119
53307W        W25567  44.752  25.790   3.050
53308W        W25568  25.126  11.602  12.431
53309W        W25569  42.323  34.989  11.150
53310W        W25570  44.893  42.807  11.543
53311W        W25571  10.222  32.416  12.024
53312W        W25572  18.565  11.912   0.304
53313W        W25573  31.629  23.588  12.297
53314W        W25574  23.325  13.142  14.885
53315W        W25575  11.779  14.030   5.080
53316W        W25576   7.305  27.914  13.935
53317W        W25577   1.354  24.901  13.038
53318W        W25578  32.246  30.982   3.510
53319W        W25579  35.445  34.902  10.856
53320W        W25580  11.858  36.557  11.167
53321W        W25581   9.162  36.406   2.392
53322W        W25582  38.593   0.777  13.852
53323W        W25583  42.964  32.094  12.081
53324W        W25584   7.292   1.263  14.367
53325W        W25585   5.169  38.780  12.591
53326W        W25586  41.713  10.736   0.368
53327W        W25587  42.076   7.286   4.122
53328W        W25588  41.455   7.246  14.350
53329W        W25589   3.451  37.467  11.540
53330W        W25590  11.459  33.525  10.454
53331W        W25591  22.092  22.846  11.933
53332W        W25592   0.780  34.898  12.846
53333W        W25593  28.518   4.897  12.509
53334W        W25594  31.237  32.565  13.367
53335W        W25595  31.115  40.446   4.784
53336W        W25596  44.747  17.537   0.822
53337W        W25597  16.577  40.061   2.381
53338W        W25598  11.379  13.296  13.006
53339W        W25599   3.278  38.319  12.837
53340W        W25600  34.143  42.503  14.806
53341W        W25601  41.080  36.711  10.979
53342W        W25602   9.580  28.206   3.637
53343W        W25603  37.505  40.348   2.583
53344W        W25604  12.188  36.490   2.914
53345W        W25605   0.589   8.975   4.655
53346W        W25606  13.413  22.183  12.932
53347W        W25607  10.929  36.019   0.638
53348W        W25608  27.400  32.205  12.875
53349W        W25609   6.131   3.322  12.428
53350W        W25610  42.132  41.462  10.434
53351W        W25611  30.843  24.573   1.342
53352W        W25612   2.217  34.674   1.267
53353W        W25613  17.105   2.300   3.414
53354W        W25614  43.835  24.043  12.585
53355W        W25615  18.030   9.732   2.469
53356W        W25616  32.477  15.820  13.409
53357W        W25617  24.057  14.596  13.313
53358W        W25618  27.438  32.974   0.738
53359W        W25619  41.755  27.085  10.455
53360W        W25620   9.631  20.180   4.195
53361W        W25621  23.205  41.265   1.693
53362W        W25622  20.987  41.311  11.616
53363W        W25623  33.737  32.187   5.183
53364W        W25624  29.939  17.967   1.035
53365W        W25625  30.403  28.464   1.293
53366W        W25626   7.193  28.903  11.162
53367W        W25627  28.703  37.883  11.572
53368W        W25628  29.425  36.570   2.684
53369W        W25629   9.359  32.695  11.938
53370W        W25630  37.348  33.428   1.364
53371W        W25631   2.581  38.352   1.743
53372W        W25632  27.507  38.930   2.661
53373W        W25633  31.127  41.413   2.266
53374W        W25634  17.193  43.277  11.354
53375W        W25635  38.175  39.363  11.264
53376W        W25636   0.176  37.052   3.343
53377W        W25637  32.491  14.185  13.443
53378W        W25638  23.127  41.023   4.922
53379W        W25639  15.807  38.737   5.083
53380W        W25640  18.122  36.864   1.889
53381W        W25641  30.177  34.110  14.169
53382W        W25642  16.032   9.613   1.062
53383W        W25643  17.233  27.002  10.990
53384W        W25644  18.627  23.539   3.260
53385W        W25645   2.572  39.328  14.955
53386W        W25646  20.827  27.761  13.302
53387W        W25647   3.954   5.444  13.950
53388W        W25648  33.332  28.844   3.070
53389W        W25649   5.517   2.538  13.426
53390W        W25650  22.193  15.118  14.032
53391W        W25651  13.269   0.679   2.691
53392W        W25652  21.096  42.097  13.293
53393W        W25653   3.971   8.776   2.169
53394W        W25654   9.265  25.144  11.017
53395W        W25655   4.361  21.427   1.901
53396W        W25656  18.204  17.121   0.028
53397W        W25657  15.847  16.145   2.141
53398W        W25658  37.583  33.943   2.716
53399W        W25659  34.845  18.931   5.060
53400W        W25660   9.175  10.147   4.626
53401W        W25661  23.235  44.871  13.928
53402W        W25662  16.287   8.048   4.397
53403W        W25663  26.413  23.681   4.990
53404W        W25664  19.862   6.421   4.143
53405W        W25665   3.515   5.733   0.959
53406W        W25666  33.282   5.836   4.140
53407W        W25667  10.186   1.924   1.926
53408W        W25668  40.380  36.609   3.680
53409W        W25669  24.351  34.809  14.496
53410W        W25670  39.040  13.370  13.466
53411W        W25671   5.608  21.577  11.583
53412W        W25672   7.269  38.244  11.566
53413W        W25673   2.276  21.626   0.288
53414W        W25674  41.329  36.982   2.784
53415W        W25675  41.267   4.766   3.371
53416W        W25676  30.540  21.987  14.459
53417W        W25677  41.497  36.408  14.806
53418W        W25678   4.474  17.081   1.483
53419W        W25679  38.416  39.090  14.578
53420W        W25680   6.855  39.440   4.580
53421W        W25681  39.703   4.206   3.828
53422W        W25682  31.125  29.602  13.312
53423W        W25683  37.471  21.583   0.911
53424W        W25684   7.717  17.376  10.811
53425W        W25685  39.482   4.398  11.638
53426W        W25686  22.686   7.664  13.994
53427W        W25687  16.092  40.576  12.454
53428W        W25688  15.770  39.526  11.146
53429W        W25689  24.478  21.653  14.497
53430W        W25690  25.659  41.279   3.335
53431W        W25691  24.095  32.113  12.147
53432W        W25692  15.530  31.385  11.977
53433W        W25693  29.367  40.528   2.446
53434W        W25694  14.712  25.671   1.904
53435W        W25695   1.260  27.161  11.077
53436W        W25696  22.726  12.168  14.843
53437W        W25697   3.920  35.420   1.705
53438W        W25698  23.863  19.825  13.704
53439W        W25699  29.388  29.921   3.155
53440W        W25700  24.013   0.980   0.559
53441W        W25701   2.156  23.494  10.122
53442W        W25702  31.611  17.842   3.704
53443W        W25703   5.269  34.848   3.333
53444W        W25704  11.966  11.896  13.770
53445W        W25705  30.441  23.703   3.326
53446W        W25706  28.074   6.931  12.065
53447W        W25707  38.156  10.340   2.792
53448W        W25708  33.677  19.288   0.016
53449W        W25709  24.660  44.638  11.099
53450W        W25710  37.110  43.796  11.627
53451W        W25711   7.786  29.638   2.427
53452W        W25712  16.640   8.174  10.736
53453W        W25713  21.159   6.953  12.837
53454W        W25714  14.707  29.436   4.173
53455W        W25715  23.256  14.776  12.200
53456W        W25716  39.122  39.406   3.545
53457W        W25717   0.900  10.124   0.778
53458W        W25718  29.188   6.296  12.993
53459W        W25719  40.708  24.781   4.751
53460W        W25720   8.788  18.155   1.670
53461W        W25721   3.962  27.887  13.083
53462W        W25722  39.864  11.385  11.181
53463W        W25723  36.777  33.725   0.833
53464W        W25724  17.457  30.624   0.934
53465W        W25725  29.970   5.232  13.483
53466W        W25726  22.767  10.279   4.991
53467W        W25727  29.201  31.725  11.555
53468W        W25728   0.023   4.189   2.375
53469W        W25729  29.984  12.877  13.016
53470W        W25730  39.364  33.610  10.684
53471W        W25731  10.183  37.497   0.949
53472W        W25732  41.887  14.835   1.906
53473W        W25733  11.128  17.465  11.993
53474W        W25734  20.405  16.586  14.820
53475W        W25735  20.683   9.936  10.928
53476W        W25736   6.448   4.574   2.186
53477W        W25737  21.740  36.581  12.058
53478W        W25738  42.113  25.220  14.924
53479W        W25739  29.659  30.376   2.171
53480W        W25740  44.445  26.079  12.563
53481W        W25741  24.244  37.596  12.486
53482W        W25742  38.228  18.183  13.367
53483W        W25743  38.980   5.197  12.839
53484W        W25744  19.822  13.103  10.825
53485W        W25745  24.713  31.932   4.750
53486W        W25746  21.188  19.288  10.915
53487W        W25747   3.037  39.241   0.900
53488W        W25748  16.079  24.565  10.557
53489W        W25749  17.102  38.096  12.268
53490W        W25750  17.248   7.608   1.412
53491W        W25751   5.264  26.647  11.534
53492W        W25752  11.758  12.075  10.716
53493W        W25753  34.498  38.202  14.012
53494W        W25754  27.602  22.061   4.452
53495W        W25755  14.992  32.556  12.057
53496W        W25756   7.031  31.578  14.836
53497W        W25757  10.300  19.644  11.911
53498W        W25758  40.929  19.534   0.943
53499W        W25759  41.237  17.736   3.215
53500W        W25760  30.015   3.879   4.142
53501W        W25761  18.083  40.894   3.583
53502W        W25762   1.176  28.443  11.556
53503W        W25763  29.363   7.801   0.498
53504W        W25764  42.829  39.017  10.988
53505W        W25765  20.149   0.974   4.946
53506W        W25766  38.265  20.512   3.276
53507W        W25767  36.396  29.361  12.867
53508W        W25768  14.798   7.681   0.432
53509W        W25769  20.277  22.468  14.774
53510W        W25770  25.175  18.026  10.750
53511W        W25771   1.906  35.598   3.879
53512W        W25772  15.820  41.748  11.585
53513W        W25773  12.077   1.807   1.882
53514W        W25774  30.051  14.505   1.409
53515W        W25775  37.381  27.121   4.129
53516W        W25776  18.213  40.038  13.483
53517W        W25777  10.454   4.765   1.866
53518W        W25778  35.536  12.763   3.849
53519W        W25779  22.950  42.001  13.430
53520W        W25780  23.201   9.379  14.660
53521W        W25781   7.872  42.861   1.587
53522W        W25782   4.678   7.689  13.495
53523W        W25783  20.549  14.559  12.215
53524W        W25784   3.368  28.923   3.841
53525W        W25785  43.143  37.823  13.248
53526W        W25786  19.265  32.035   0.019
53527W        W25787  22.016   4.660  10.185
53528W        W25788  40.803  14.748   2.706
53529W        W25789  18.088   8.301   0.425
53530W        W25790   9.946  11.900  12.047
53531W        W25791   4.951  43.126  13.143
53532W        W25792   0.493  24.028   3.281
53533W        W25793  29.758  16.251  14.371
53534W        W25794  32.636   7.214   3.657
53535W        W25795   2.958   2.811   3.782
53536W        W25796   8.871  42.828   3.222
53537W        W25797  37.441  26.967  13.955
53538W        W25798  41.547  11.873  12.036
53539W        W25799  32.087   2.891   3.830
53540W        W25800  40.351  17.187   5.259
53541W        W25801  37.802  30.193   1.398
53542W        W25802   0.941  44.352   5.057
53543W        W25803   4.686  34.157   0.151
53544W        W25804  30.812  26.025   0.406
53545W        W25805  39.930  35.159   2.243
53546W        W25806  17.539  27.586   0.477
53547W        W25807  34.002  27.008  11.344
53548W        W25808   7.796  37.189   0.875
53549W        W25809  29.781   9.766  11.175
53550W        W25810  24.091   4.376  13.796
53551W        W25811   3.776   6.285   4.175
53552W        W25812  37.316  40.817  12.954
53553W        W25813  29.236  31.006   4.253
53554W        W25814  33.996  24.189  12.019
53555W        W25815  37.593  24.769  12.935
53556W        W25816  28.518  22.598   4.169
53557W        W25817  29.437  16.662   1.631
53558W        W25818  36.106  25.863  14.480
53559W        W25819  42.578  23.789   4.720
53560W        W25820   1.437  32.977  12.917
53561W        W25821  17.311  32.610  11.141
53562W        W25822   6.993  34.622  13.871
53563W        W25823  13.516  10.804  14.234
53564W        W25824  44.346  32.420   2.372
53565W        W25825  31.903   4.878   4.354
53566W        W25826   4.441   2.847  11.165
53567W        W25827  32.846   4.412   1.994
53568W        W25828  36.583  30.153  14.774
53569W        W25829  42.942  10.941  11.144
53570W        W25830  26.595   0.786   3.797
53571W        W25831  20.984  35.063   0.328
53572W        W25832   9.370  25.815  14.800
53573W        W25833  39.257  34.385   3.304
53574W        W25834  39.392   1.187   2.450
53575W        W25835  36.998  14.054   1.211
53576W        W25836   3.646  38.557   4.573
53577W        W25837  36.599  38.058  12.917
53578W        W25838  30.124  18.938   4.142
53579W        W25839  22.224  44.837   2.288
53580W        W25840  28.631  43.252   0.354
53581W        W25841  22.454  14.268   1.712
53582W        W25842  12.924  31.930  12.577
53583W        W25843   8.643  42.503  10.628
53584W        W25844  43.956  44.764   4.158
53585W        W25845  44.712   2.603   2.420
53586W        W25846  19.234   6.813  11.011
53587W        W25847  32.192  15.166  14.325
53588W        W25848  11.919  10.631   3.975
53589W        W25849  36.231   6.751   3.133
53590W        W25850  37.843  29.167   3.680
53591W        W25851  27.547   0.011  11.403
53592W        W25852   0.695   6.658   3.280
53593W        W25853  14.149  37.809   4.190
53594W        W25854  33.974   9.192  14.034
53595W        W25855  15.358  10.054   2.908
53596W        W25856  21.300   3.362  10.364
53597W        W25857  40.036  35.859  13.744
53598W        W25858   7.828  37.521   0.032
53599W        W25859   4.619   8.655  14.871
53600W        W25860  25.905  18.532   4.437
53601W        W25861   7.481  25.642  11.297
53602W        W25862   2.784  26.635   4.243
53603W        W25863   3.290  36.114  10.624
53604W        W25864  17.137   6.762   5.426
53605W        W25865  26.048  29.912   0.711
53606W        W25866  43.520  15.798  14.782
53607W        W25867  42.908  14.839   1.129
53608W        W25868  22.261   9.947   0.335
53609W        W25869   4.744  38.525   1.672
53610W        W25870   1.439  44.234   0.814
53611W        W25871   2.391  28.867   3.935
53612W        W25872  19.772  42.372  13.264
53613W        W25873  10.379  15.650  10.562
53614W        W25874   0.487  42.722   0.815
53615W        W25875  41.384  31.863  10.492
53616W        W25876  17.909  37.016   4.210
53617W        W25877  33.417  25.564  14.975
53618W        W25878  32.165  38.410  11.088
53619W        W25879  38.866  17.313   3.670
53620W        W25880  32.603  12.046   0.809
53621W        W25881  10.224  22.003   3.351
53622W        W25882   0.782  33.571   4.506
53623W        W25883   7.660  33.913   0.577
53624W        W25884  21.264  36.372   2.374
53625W        W25885  14.876   3.977  12.994
53626W        W25886  25.162  37.866  11.620
53627W        W25887  25.021   2.967  13.270
53628W        W25888  40.076  29.934  12.030
53629W        W25889  20.132  14.342   1.343
53630W        W25890  44.322  29.845  11.513
53631W        W25891  33.160  28.582  13.538
53632W        W25892   0.702  32.967   3.227
53633W        W25893  38.429   8.362   5.089
53634W        W25894  13.843  41.485  11.407
53635W        W25895  43.280  32.086   4.638
53636W        W25896  37.867  29.870   3.210
53637W        W25897  15.218  30.905   0.944
53638W        W25898  22.780  13.164   2.695
53639W        W25899   8.836  43.282  10.989
53640W        W25900  20.952  14.393  14.824
53641W        W25901  38.583  11.375  13.992
53642W        W25902  17.751  15.506   0.022
53643W        W25903  17.397  40.957  10.643
53644W        W25904  42.604  31.029   4.812
53645W        W25905  20.104   3.835  12.653
53646W        W25906  26.875  37.893   1.718
53647W        W25907  17.614  16.172   2.775
53648W        W25908  37.785  36.494  14.883
53649W        W25909  41.634   4.211   2.070
53650W        W25910  17.594  40.908   2.315
53651W        W25911  40.385   2.349  14.992
53652W        W25912   4.834  17.563   3.281
53653W        W25913  33.958  31.647  12.342
53654W        W25914  32.972  36.354   4.902
53655W        W25915   5.936  20.821   2.206
53656W        W25916  25.403  37.003   3.712
53657W        W25917  31.855  21.761  14.954
53658W        W25918  30.458  44.869  11.218
53659W        W25919   7.729  36.924  13.787
53660W        W25920  44.227   9.827  13.060
53661W        W25921   7.333   5.228  10.567
53662W        W25922  23.212  11.777  13.169
53663W        W25923  11.891  32.053  13.821
53664W        W25924  11.114  12.403   0.747
53665W        W25925  19.154  19.629  11.435
53666W        W25926  13.797  24.267  11.504
53667W        W25927  39.580  31.641   0.253
53668W        W25928  25.078  17.541  10.509
53669W        W25929  21.981   4.732   1.469
53670W        W25930  23.156  19.248  12.646
53671W        W25931  38.448   3.961  11.053
53672W        W25932  12.976  22.650   0.468
53673W        W25933  43.592   3.944   3.268
53674W        W25934  27.010  17.611  13.020
53675W        W25935  40.111  43.511  13.808
53676W        W25936  21.780  25.064  14.857
53677W        W25937  40.856   9.393  14.522
53678W        W25938  34.390  23.122   4.253
53679W        W25939  30.957  44.283   1.771
53680W        W25940  15.155  24.763   4.947
53681W        W25941  27.946  31.674   9.622
53682W        W25942  15.723   0.562   3.806
53683W        W25943  42.970  21.370  11.852
53684W        W25944  39.430   6.457   3.153
53685W        W25945  34.953  26.509   0.797
53686W        W25946   3.898  36.530  11.536
53687W        W25947  25.311  18.047   3.161
53688W        W25948  14.721   8.291   0.645
53689W        W25949  11.800  14.561   2.825
53690W        W25950  29.104  25.146  10.921
53691W        W25951  37.533  13.388  14.301
53692W        W25952  23.522  22.434  13.837
53693W        W25953   6.910  23.514  10.694
53694W        W25954  16.246  40.076  13.722
53695W        W25955  20.074  26.119  10.782
53696W        W25956  20.452  21.616  12.870
53697W        W25957  29.666  19.220   2.853
53698W        W25958  17.861   0.688  14.871
53699W        W25959  30.561  40.011  10.620
53700W        W25960  18.166  29.692  11.620
53701W        W25961   8.799  12.713   2.426
53702W        W25962  17.158  39.456   4.619
53703W        W25963  24.017  15.016  13.615
53704W        W25964   5.814  28.667  10.258
53705W        W25965  28.423  16.349  11.969
53706W        W25966  13.152  37.801  11.522
53707W        W25967  23.555  41.853  11.200
53708W        W25968  13.825   5.193   3.551
53709W        W25969  11.106  21.690  10.384
53710W        W25970  30.021  35.898  10.634
53711W        W25971  38.835  27.046  14.908
53712W        W25972  10.880  26.224   2.157
53713W        W25973  17.730   6.863  10.967
53714W        W25974  23.748  40.793  12.103
53715W        W25975  38.167   0.405   2.646
53716W        W25976   3.827  10.312   2.066
53717W        W25977  28.442   2.051  13.364
53718W        W25978  17.867   4.257   2.832
53719W        W25979  22.923  20.259   2.861
53720W        W25980  16.096  36.010  14.330
53721W        W25981  37.361  35.803   1.027
53722W        W25982  14.778  23.074   2.238
53723W        W25983  31.474   8.221  12.724
53724W        W25984  20.553  11.747  12.830
53725W        W25985  14.166  38.513  13.541
53726W        W25986  11.538  14.646   1.796
53727W        W25987  30.646  43.941   3.212
53728W        W25988   6.293  35.925   2.445
53729W        W25989   8.225   6.118   3.116
53730W        W25990  42.332  30.993   1.430
53731W        W25991  41.190  33.995   2.895
53732W        W25992  33.014  23.735   1.969
53733W        W25993  25.836  26.767   2.820
53734W        W25994  12.820  36.390  10.815
53735W        W25995   2.691  10.336  10.779
53736W        W25996   0.761  10.058  12.482
53737W        W25997   6.220  38.453  11.734
53738W        W25998   2.870  19.348  11.754
53739W        W25999   3.331  35.560  12.894
53740W        W26000  30.494   9.243   1.950
53741W        W26001  15.067  23.938   2.232
53742W        W26002  13.845  25.552  11.957
53743W        W26003  25.836  13.131  14.878
53744W        W26004  21.419  23.848   0.297
53745W        W26005  12.214  17.220  12.093
53746W        W26006   6.626   6.121   4.089
53747W        W26007  23.560  12.568   3.816
53748W        W26008   9.589  37.127   2.354
53749W        W26009  13.079   9.381  12.954
53750W        W26010  28.463  10.129   2.982
53751W        W26011  42.833  28.614  12.026
53752W        W26012  18.783  21.731   2.814
53753W        W26013  40.946  31.042  14.415
53754W        W26014  13.470  35.975  12.720
53755W        W26015  32.490  13.134   1.716
53756W        W26016  15.476  41.353  10.692
53757W        W26017   6.336  20.604   0.689
53758W        W26018  27.676  22.625   2.769
53759W        W26019  35.484  27.718   3.261
53760W        W26020  21.404  12.727  10.696
53761W        W26021  40.017   3.879  11.233
53762W        W26022  17.180  11.690   0.477
53763W        W26023  39.301  37.430  13.968
53764W        W26024  22.148  10.634   1.674
53765W        W26025   9.108   2.660  10.623
53766W        W26026  14.839  41.441  14.027
53767W        W26027  26.592  39.301  13.748
53768W        W26028   9.306  15.240  14.605
53769W        W26029   6.670  37.041   1.291
53770W        W26030  35.878   7.969   0.041
53771W        W26031  36.725  20.853  11.080
53772W        W26032  10.078   1.076  11.907
53773W        W26033  41.528  20.436  11.700
53774W        W26034  39.138  22.687  12.061
53775W        W26035   6.768  31.054   4.555
53776W        W26036   9.273  36.807   1.637
53777W        W26037  33.436   2.444  14.456
53778W        W26038  12.198  21.080   2.284
53779W        W26039  23.531   9.672   3.800
53780W        W26040  26.651   6.127   2.842
53781W        W26041  31.199  40.401   2.757
53782W        W26042   0.454  12.122   0.991
53783W        W26043  21.184  43.708  10.803
53784W        W26044   8.111  40.073  10.540
53785W        W26045  12.140  35.045   1.725
53786W        W26046  12.658  22.606  11.543
53787W        W26047  37.906  13.894   0.043
53788W        W26048  15.142  31.594  14.455
53789W        W26049  28.636  41.783   0.370
53790W        W26050  25.588  23.540   3.119
53791W        W26051  30.121  21.606   3.835
53792W        W26052  11.872  29.217   4.078
53793W        W26053  14.694  14.849  11.484
53794W        W26054  26.886   0.070   0.940
53795W        W26055  27.195  40.914   0.487
53796W        W26056   4.099  38.978   4.302
53797W        W26057  24.935  14.640   0.514
53798W        W26058  32.710   6.960   0.286
53799W        W26059  31.892  25.209  13.273
53800W        W26060  39.444  10.130  10.165
53801W        W26061  37.117  33.163  11.142
53802W        W26062  15.988   0.853   3.253
53803W        W26063   4.565  29.415  10.128
53804W        W26064  12.140  35.827  13.394
53805W        W26065  37.505  33.018  14.043
53806W        W26066  41.675  42.404   1.769
53807W        W26067  44.235  43.753   4.431
53808W        W26068  39.076  41.278  12.820
53809W        W26069  41.203  18.712  12.128
53810W        W26070  13.757  23.155   0.182
53811W        W26071  35.065  11.372   4.291
53812W        W26072  29.388  37.865  14.349
53813W        W26073  35.192  14.166   2.967
53814W        W26074  16.891  44.042  12.981
53815W        W26075  13.825  17.235   3.464
53816W        W26076  17.902  22.537   1.320
53817W        W26077  37.965  20.586  13.096
53818W        W26078  11.582  35.507  14.514
53819W        W26079  19.484  32.552   1.355
53820W        W26080  44.612  35.140  11.558
53821W        W26081   5.362  29.342   2.796
53822W        W26082  29.972  14.778   3.754
53823W        W26083  33.576  17.646   2.866
53824W        W26084  36.101   0.703  12.007
53825W        W26085  39.309   2.430   2.920
53826W        W26086  26.348   1.557   1.707
53827W        W26087  10.297  13.572  13.819
53828W        W26088  19.822   4.930   0.807
53829W        W26089   4.831   8.855  11.356
53830W        W26090   1.412  29.467  11.637
53831W        W26091  33.652   1.958  12.499
53832W        W26092  12.167  20.203   4.347
53833W        W26093  12.274  23.129  12.637
53834W        W26094  16.734   9.244  10.934
53835W        W26095   6.668   5.906  14.972
53836W        W26096  40.016  19.178  10.725
53837W        W26097   7.840  25.355  14.304
53838W        W26098  25.472  30.191   2.954
53839W        W26099  23.780   2.905   3.869
53840W        W26100  22.510  10.879  11.072
53841W        W26101  30.009   3.762  14.884
53842W        W26102   6.472  12.935   4.114
53843W        W26103  16.116  38.612   0.777
53844W        W26104  33.508   9.852   2.339
53845W        W26105  19.089  38.962   0.493
53846W        W26106  19.038  39.092   3.342
53847W        W26107   8.892  35.980   1.731
53848W        W26108  15.503  15.361  14.923
53849W        W26109   2.808   7.786  10.546
53850W        W26110   8.401  26.228   4.572
53851W        W26111  12.705  28.338  10.153
53852W        W26112  13.587  41.973   1.195
53853W        W26113   5.007  16.628  11.641
53854W        W26114  42.285  41.480  14.750
53855W        W26115  33.848  31.826  11.069
53856W        W26116  31.904  35.746   2.519
53857W        W26117  26.089  27.520   2.936
53858W        W26118  14.312  33.599  14.913
53859W        W26119  24.521   5.331   4.634
53860W        W26120  35.276  24.817  14.662
53861W        W26121   9.376  35.328  11.416
53862W        W26122  23.449  13.220   1.346
53863W        W26123  24.705  44.344   3.644
53864W        W26124  25.994  18.117   0.348
53865W        W26125  39.786   7.827   4.567
53866W        W26126   0.762  36.484   0.766
53867W        W26127  12.528  23.427   1.220
53868W        W26128  25.940   3.455  11.537
53869W        W26129  38.895   1.315  11.463
53870W        W26130  18.320  38.588  14.672
53871W        W26131  30.693  39.991   1.246
53872W        W26132  29.350  41.006   2.286
53873W        W26133   0.074  28.882   1.687
53874W        W26134  30.137  18.812  14.255
53875W        W26135  36.669  35.986  12.445
53876W        W26136   3.153  39.810  11.195
53877W        W26137  32.118  27.184   1.003
53878W        W26138  17.174   4.907   2.656
53879W        W26139  14.628  33.046   1.022
53880W        W26140  36.992  14.733  13.748
53881W        W26141  12.553  42.041  13.563
53882W        W26142  26.553  36.595  11.223
53883W        W26143  38.557  15.757   2.178
53884W        W26144  14.416   9.066  12.156
53885W        W26145   3.487  19.052   0.553
53886W        W26146  25.961  12.593   2.872
53887W        W26147   0.757  29.095   1.205
53888W        W26148   4.945  13.200   3.411
53889W        W26149  31.152   0.046   1.057
53890W        W26150  42.819  42.728  11.714
53891W        W26151  31.325   7.751   3.192
53892W        W26152  15.743  13.247  12.380
53893W        W26153  36.836  14.111   3.152
53894W        W26154  38.181  43.726   1.497
53895W        W26155  43.990  36.521  10.644
53896W        W26156  11.755  24.472  13.775
53897W        W26157  27.743  24.907   5.146
53898W        W26158  37.316  25.249   1.857
53899W        W26159  12.287  21.637   4.591
53900W        W26160  36.291  14.024   0.913
53901W        W26161  24.711  36.766   1.287
53902W        W26162  25.965  44.249  13.627
53903W        W26163   3.278  28.931  11.950
53904W        W26164  16.592   5.299  11.327
53905W        W26165  41.725  16.232  12.436
53906W        W26166  34.436  22.526   0.024
53907W        W26167  31.966   5.754   2.703
53908W        W26168  22.818  28.330   5.031
53909W        W26169  18.354  39.532  14.352
53910W        W26170  38.125  30.594   1.322
53911W        W26171   0.175  12.537   4.557
53912W        W26172  10.354  37.865  13.068
53913W        W26173   5.650  44.488  11.207
53914W        W26174   2.869  30.594  10.671
53915W        W26175  40.675   4.309  13.511
53916W        W26176  18.245  41.238   0.317
53917W        W26177  26.445  12.390  11.560
53918W        W26178  16.673  16.151   2.743
53919W        W26179  22.796   8.259   0.221
53920W        W26180   3.873  27.984   1.896
53921W        W26181  37.371  30.018  12.267
53922W        W26182  35.319  35.010  14.020
53923W        W26183   7.916  42.349   0.716
53924W        W26184  20.696  12.238   4.153
53925W        W26185  15.799   1.830  10.461
53926W        W26186  31.401  14.540  11.236
53927W        W26187  14.488   3.339  12.408
53928W        W26188  28.133  35.068   4.338
53929W        W26189  34.495   4.842   5.060
53930W        W26190  26.984  30.572  13.430
53931W        W26191  38.412  10.957   2.839
53932W        W26192  30.456   9.326   4.692
53933W        W26193  14.964  20.493  12.451
53934W        W26194  24.617  14.325   2.343
53935W        W26195  41.074  22.476   2.617
53936W        W26196  44.700  38.412  14.454
53937W        W26197  11.366  13.216   3.813
53938W        W26198  40.689  26.499  11.195
53939W        W26199  32.110  37.017  10.848
53940W        W26200  43.682  35.914   4.146
53941W        W26201  17.514   3.288  14.735
53942W        W26202  41.341  35.382  14.715
53943W        W26203  43.940  18.253  10.497
53944W        W26204  40.275  31.594   2.233
53945W        W26205  26.610  43.019   4.020
53946W        W26206   4.656  14.381  10.359
53947W        W26207  28.045  27.911  10.308
53948W        W26208  10.234  44.709   0.556
53949W        W26209  40.129  34.339  13.573
53950W        W26210  18.769   1.076  11.143
53951W        W26211  21.711  29.999   0.028
53952W        W26212  16.391  26.527   2.100
53953W        W26213  24.016  31.520  14.226
53954W        W26214   4.835  17.361  10.550
53955W        W26215   8.714   4.413  13.924
53956W        W26216  16.426  23.284  14.472
53957W        W26217  18.235  34.849   2.145
53958W        W26218  30.532  27.453  12.201
53959W        W26219   5.802  22.581  11.525
53960W        W26220  11.378  35.648  14.989
53961W        W26221  36.123  44.995  10.807
53962W        W26222  24.480  25.378   3.229
53963W        W26223  19.542  16.771  12.707
53964W        W26224  41.664   5.840  12.004
53965W        W26225  29.257  34.566   4.538
53966W        W26226   7.399  30.424   0.517
53967W        W26227  19.468  12.815   1.848
53968W        W26228  16.012   3.346  12.751
53969W        W26229  35.465   9.433   2.415
53970W        W26230  24.900  43.192   4.380
53971W        W26231  41.536  31.101   3.653
53972W        W26232  40.790  25.302  10.746
53973W        W26233  10.704  26.427   1.607
53974W        W26234  39.405  16.131   4.228
53975W        W26235  14.193  16.575   4.583
53976W        W26236  44.735   1.354  10.724
53977W        W26237  44.465  25.024  11.911
53978W        W26238  39.033  25.106   4.603
53979W        W26239  35.461  17.665  10.626
53980W        W26240  19.984  15.069  13.228
53981W        W26241  35.018  42.277  12.621
53982W        W26242  34.930  14.478   2.652
53983W        W26243  39.058  14.921   2.335
53984W        W26244  37.475   8.707   5.312
53985W        W26245  44.271  24.899   3.043
53986W        W26246  40.853  34.083  13.064
53987W        W26247   3.096  20.845  14.044
53988W        W26248  39.951  15.362  10.726
53989W        W26249  19.047  15.006  13.963
53990W        W26250  20.502   1.176   4.001
53991W        W26251  24.122   4.135  10.884
53992W        W26252  44.541   5.637   4.233
53993W        W26253  12.612  33.520  12.635
53994W        W26254  40.351   2.424   2.631
53995W        W26255  41.893  34.372  11.037
53996W        W26256   4.761   5.103  10.076
53997W        W26257  37.919  34.352   3.127
53998W        W26258   8.018   8.882   5.066
53999W        W26259  17.193  17.987   2.432
54000W        W26260  21.803  30.419   3.227
54001W        W26261  13.373  31.625   4.204
54002W        W26262  33.850  29.553   2.436
54003W        W26263   5.108   5.828  13.418
54004W        W26264  42.064  11.234   1.439
54005W        W26265  34.257   7.636   1.250
54006W        W26266  36.521  18.038   3.559
54007W        W26267  19.049  15.389   2.424
54008W        W26268   5.433  42.232  11.516
54009W        W26269  35.082  37.078   1.300
54010W        W26270  44.762  31.502   0.233
54011W        W26271  37.506   8.387  14.212
54012W        W26272   8.977  44.180   1.845
54013W        W26273  25.718  16.039  14.481
54014W        W26274   7.190  14.783   0.986
54015W        W26275  37.843  43.284  10.489
54016W        W26276   3.294   2.006  13.798
54017W        W26277   9.303   1.508  11.630
54018W        W26278   9.731  34.672   2.677
54019W        W26279  22.422  44.405  12.923
54020W        W26280  33.909  17.218   3.707
54021W        W26281  41.009  22.628   3.638
54022W        W26282  33.651  28.663  13.391
54023W        W26283   6.368   8.486   4.716
54024W        W26284  26.964  35.647   2.238
54025W        W26285  42.184  33.599   3.773
54026W        W26286  31.689  28.137   0.397
54027W        W26287  14.787  33.610   2.648
54028W        W26288  38.797  26.929  14.380
54029W        W26289  17.981  43.592  12.333
54030W        W26290  17.637  19.791  13.341
54031W        W26291  16.515  37.949   4.109
54032W        W26292  13.555  26.091  11.098
54033W        W26293  37.136  14.722   4.164
54034W        W26294  22.704  36.971  11.455
54035W        W26295   1.570   9.219   1.684
54036W        W26296  24.997   1.926   1.825
54037W        W26297  29.597   4.119  14.926
54038W        W26298  14.610  18.212  14.252
54039W        W26299  39.446   3.874  14.367
54040W        W26300  33.156  20.825  11.159
54041W        W26301   0.849   5.548   2.831
54042W        W26302  28.677   6.660  11.495
54043W        W26303   8.149  42.137  12.003
54044W        W26304   2.965  18.105  11.184
54045W        W26305  13.665  36.409   3.677
54046W        W26306   0.007  40.837   2.222
54047W        W26307   3.306  24.105   2.583
54048W        W26308  10.350   4.345  10.769
54049W        W26309  15.174  41.259   4.889
54050W        W26310  38.423   3.696   2.667
54051W        W26311  37.125  10.768  11.171
54052W        W26312  22.886  29.065  12.863
54053W        W26313   5.759  31.313   2.217
54054W        W26314  23.228  40.302  10.535
54055W        W26315  36.055  41.475  11.511
54056W        W26316  37.738   0.703   1.489
54057W        W26317   4.473  29.580   0.988
54058W        W26318  19.572  23.081   0.242
54059W        W26319  25.735  34.602  14.277
54060W        W26320  13.668  35.453   1.811
54061W        W26321  23.425  20.103  13.802
54062W        W26322  30.515   3.011   3.684
54063W        W26323  19.026  22.284   3.200
54064W        W26324  20.194  37.462   1.460
54065W        W26325  34.410  26.541   3.197
54066W        W26326   1.547   1.935  10.947
54067W        W26327   6.779  15.467  12.548
54068W        W26328  44.260  30.139   0.785
54069W        W26329  41.314  41.628   0.981
54070W        W26330  38.763  38.714  11.106
54071W        W26331   7.722  37.923   2.283
54072W        W26332  12.119  37.971  11.961
54073W        W26333  42.759  18.703  14.063
54074W        W26334  13.054   1.957  13.749
54075W        W26335  17.769  21.781   3.780
54076W        W26336  17.816  24.024  10.574
54077W        W26337  26.008   2.488  12.859
54078W        W26338   0.187  44.249  14.721
54079W        W26339  34.435  17.537   2.427
54080W        W26340  10.306  23.468   2.718
54081W        W26341  20.807  18.071  13.815
54082W        W26342  39.830  13.239   0.496
54083W        W26343  34.298   5.269   1.415
54084W        W26344  17.531   0.436   4.811
54085W        W26345   8.070  38.714   1.705
54086W        W26346  11.450  27.204  14.142
54087W        W26347   7.298  43.569  11.784
54088W        W26348  41.323   8.036  14.890
54089W        W26349  32.571  11.158   0.461
54090W        W26350  15.717  18.152  10.479
54091W        W26351   6.834   1.282   0.685
54092W        W26352  11.583   0.004  14.701
54093W        W26353  36.340  38.980  12.557
54094W        W26354  25.106  13.581   0.825
54095W        W26355  41.502   7.283  12.401
54096W        W26356  13.253  32.156   0.471
54097W        W26357   1.282  42.862   4.542
54098W        W26358  26.212  32.385   0.734
54099W        W26359  28.569  20.531   3.011
54100W        W26360   8.411   2.987   4.170
54101W        W26361  30.993  38.355   0.927
54102W        W26362   7.813   3.466   0.998
54103W        W26363  12.085   5.417   1.339
54104W        W26364  14.599  44.440   3.757
54105W        W26365  17.943   9.914  11.659
54106W        W26366  30.240  25.952   0.461
54107W        W26367  19.253   1.316  11.129
54108W        W26368  17.968  23.148  12.609
54109W        W26369  28.182   8.751   3.344
54110W        W26370  13.102   8.873  11.108
54111W        W26371  30.673  26.730   3.727
54112W        W26372  12.628  39.471   1.500
54113W        W26373  39.681   1.372  10.359
54114W        W26374   1.918  11.848   2.242
54115W        W26375  18.207  12.592   2.316
54116W        W26376  41.449  36.976   1.438
54117W        W26377  35.594  39.032   0.146
54118W        W26378  12.833  12.206  14.800
54119W        W26379  15.059  21.492   5.024
54120W        W26380  25.729   5.899  14.720
54121W        W26381  22.305  29.768   0.294
54122W        W26382   7.848   0.100   1.733
54123W        W26383  31.438  15.009  13.930
54124W        W26384  17.572  37.905   0.433
54125W        W26385  39.568  15.354  12.421
54126W        W26386   6.319  15.356  14.738
54127W        W26387  22.158  40.803  14.252
54128W        W26388   2.973  26.599  14.888
54129W        W26389  11.432  32.396  11.015
54130W        W26390   5.033  33.869  11.980
54131W        W26391   0.403  22.751  14.993
54132W        W26392  12.626   9.419   1.633
54133W        W26393  26.833  35.500   0.928
54134W        W26394  42.376  32.640   0.942
54135W        W26395  42.312  35.827   4.527
54136W        W26396  39.488  21.576   1.415
54137W        W26397   5.232  28.200   9.772
54138W        W26398  34.524  13.883   1.296
54139W        W26399   9.867   5.366   4.670
54140W        W26400  35.858   7.405  12.618
54141W        W26401  39.468  19.080  12.553
54142W        W26402   7.220   3.145  14.275
54143W        W26403   4.038  44.505  13.324
54144W        W26404  32.508  20.933   1.945
54145W        W26405  22.324  38.378   3.193
54146W        W26406   4.315  15.797  11.937
54147W        W26407   8.914  34.171   1.864
54148W        W26408  36.019  35.481   3.763
54149W        W26409  28.858  22.064   1.431
54150W        W26410   6.331  38.390  12.223
54151W        W26411  10.378   3.049  10.691
54152W        W26412  15.722  37.789   3.256
54153W        W26413   0.693  44.213   4.550
54154W        W26414  36.855  33.552  12.107
54155W        W26415  11.627  33.886   2.203
54156W        W26416  43.419  32.551  12.086
54157W        W26417  40.806  13.717   1.902
54158W        W26418   7.639  15.708   4.710
54159W        W26419   4.816  13.299   1.858
54160W        W26420  11.265  38.198   4.792
54161W        W26421  23.781   0.788   4.428
54162W        W26422  27.168  35.581  12.541
54163W        W26423   5.002  18.679  14.940
54164W        W26424  39.303  20.729  12.410
54165W        W26425   4.167  40.370   1.475
54166W        W26426  35.371  23.727   4.057
54167W        W26427  17.952  11.116   4.498
54168W        W26428  20.768  16.599  11.154
54169W        W26429  38.577   2.172  11.621
54170W        W26430  25.078  19.967  14.924
54171W        W26431  44.234  30.515  12.802
54172W        W26432   1.100   5.718   0.964
54173W        W26433  24.128  20.162   3.741
54174W        W26434  41.963   5.346  10.652
54175W        W26435  35.931  19.855  12.144
54176W        W26436  29.026  26.460  11.177
54177W        W26437  41.146  29.459   0.292
54178W        W26438  21.819  38.977  10.635
54179W        W26439  42.041   6.195   2.765
54180W        W26440   1.305   8.220   4.589
54181W        W26441   3.500   6.846   1.465
54182W        W26442  24.404   8.792   3.831
54183W        W26443  21.067  24.191   1.681
54184W        W26444   7.170  28.380   2.139
54185W        W26445  20.759  20.616  13.597
54186W        W26446   2.796  19.806   2.851
54187W        W26447  42.512  18.463  12.151
54188W        W26448  29.499   0.523  13.972
54189W        W26449  42.531  13.579   3.113
54190W        W26450  44.865   8.739   1.937
54191W        W26451   7.436   3.480  12.500
54192W        W26452  36.425  33.105   4.091
54193W        W26453   9.574   6.238   2.668
54194W        W26454  18.471  28.927  14.859
54195W        W26455  28.451  33.179   4.080
54196W        W26456   1.752  30.762  13.196
54197W        W26457  28.181  41.315   3.210
54198W        W26458  30.623  32.985  14.583
54199W        W26459  33.497  28.900   4.019
54200W        W26460  25.244  20.042  12.624
54201W        W26461   2.960  13.008  10.422
54202W        W26462  19.871   1.180   3.182
54203W        W26463  17.842  12.185   2.268
54204W        W26464  36.492  17.121   1.003
54205W        W26465  24.710  40.884   2.342
54206W        W26466  43.969  20.786   0.265
54207W        W26467  34.272  10.254  11.606
54208W        W26468  27.685  14.115  13.054
54209W        W26469  37.532   7.253  12.901
54210W        W26470  44.200  43.686   1.733
54211W        W26471  22.737   5.663  10.636
54212W        W26472  25.164  15.526   0.881
54213W        W26473  33.908  33.029   0.233
54214W        W26474  10.755  29.685   4.043
54215W        W26475   4.158  21.340   3.565
54216W        W26476  33.564  14.189   4.821
54217W        W26477  37.371  39.869   1.709
54218W        W26478  10.406   3.562  10.634
54219W        W26479  35.403  16.569  11.287
54220W        W26480  38.797  42.413   4.672
54221W        W26481  16.942  24.666   3.384
54222W        W26482   3.940  29.417   2.735
54223W        W26483  29.570   0.008   3.585
54224W        W26484  41.805   8.958  14.927
54225W        W26485  25.576  12.280  14.500
54226W        W26486  25.013  43.814   0.915
54227W        W26487  27.807  29.020   2.271
54228W        W26488  10.766  23.200  10.839
54229W        W26489  10.367  30.510   1.955
54230W        W26490  37.568  22.497  11.240
54231W        W26491  17.054  41.230   3.296
54232W        W26492  12.872  31.422  13.335
54233W        W26493  16.298  28.343  10.447
54234W        W26494  21.084  29.483   3.678
54235W        W26495  43.972  26.108   0.467
54236W        W26496  24.890   7.953   3.792
54237W        W26497  10.121   8.638   0.231
54238W        W26498  29.063   7.315   4.884
54239W        W26499  13.115  25.491   2.167
54240W        W26500  23.641  24.294   2.349
54241W        W26501  34.698  38.301  12.945
54242W        W26502  25.859  12.762  12.040
54243W        W26503  26.658  31.123  14.909
54244W        W26504  39.732  40.875   4.499
54245W        W26505  44.957   4.136   3.145
54246W        W26506  31.935   5.135  11.374
54247W        W26507   9.653  31.392   3.230
54248W        W26508  38.530  41.488   4.105
54249W        W26509  37.563  44.945  14.701
54250W        W26510  10.308   7.839  11.161
54251W        W26511   8.707  34.371   4.617
54252W        W26512  43.948  30.622  13.242
54253W        W26513  44.674  35.983  13.547
54254W        W26514  19.702   5.764  11.869
54255W        W26515  35.842  35.901  11.018
54256W        W26516  40.502   4.275  14.014
54257W        W26517  44.808   5.863   0.255
54258W        W26518  11.536  18.652  12.023
54259W        W26519  13.302  38.621  12.867
54260W        W26520  12.794   7.121  12.016
54261W        W26521  41.738   9.262   4.795
54262W        W26522  32.158  36.924   4.205
54263W        W26523  36.028  25.549  13.242
54264W        W26524  32.365  13.069  10.796
54265W        W26525  38.018  42.529   3.140
54266W        W26526  20.534  15.790   3.552
54267W        W26527   3.663  11.357   0.415
54268W        W26528  36.406  29.649  14.824
54269W        W26529  28.243  18.748  12.302
54270W        W26530  30.423   1.402   2.795
54271W        W26531   4.301  20.133  11.116
54272W        W26532   0.283  37.456  12.853
54273W        W26533   7.432  23.990  14.495
54274W        W26534  24.562   4.431   4.131
54275W        W26535  35.768  42.294  12.175
54276W        W26536  15.233   6.176  11.513
54277W        W26537  11.321  37.623  14.211
54278W        W26538  14.091  21.457  10.933
54279W        W26539   9.882  10.826   3.191
54280W        W26540  32.873  21.943  11.153
54281W        W26541  31.404  34.125  11.160
54282W        W26542  37.271   6.556  14.864
54283W        W26543  37.556  11.284   2.763
54284W        W26544   2.887  12.295   0.714
54285W        W26545   5.277   3.473   3.156
54286W        W26546  41.143  40.614   1.851
54287W        W26547  11.729  29.207  13.091
54288W        W26548  35.981  42.753  13.518
54289W        W26549  36.503   5.669  14.881
54290W        W26550  42.344   3.652   0.589
54291W        W26551  21.546   4.971   1.274
54292W        W26552  27.795  30.213  12.295
54293W        W26553  42.400  20.500  10.886
54294W        W26554  36.844   0.393   3.805
54295W        W26555  39.970  39.297   1.012
54296W        W26556   5.284  41.463  13.018
54297W        W26557  23.873  35.498  11.187
54298W        W26558   1.702  41.536  14.032
54299W        W26559  15.253  36.913  14.083
54300W        W26560  36.471   0.037  14.266
54301W        W26561  27.042  27.926   1.773
54302W        W26562  12.764  34.481   2.452
54303W        W26563  11.848   6.487   3.343
54304W        W26564  17.768  35.382  10.561
54305W        W26565  25.648  35.991   1.270
54306W        W26566   8.201  28.390  10.339
54307W        W26567  32.723  21.175   4.200
54308W        W26568  25.881  31.083   2.102
54309W        W26569   4.975  33.901  11.100
54310W        W26570  18.922   2.230  11.521
54311W        W26571  10.611  31.375  13.940
54312W        W26572  14.540  27.462  13.239
54313W        W26573  38.866  42.511   3.729
54314W        W26574   4.871  35.873   1.635
54315W        W26575   4.266  39.137   0.364
54316W        W26576  24.198   1.525   4.694
54317W        W26577  23.273  33.074   2.852
54318W        W26578  34.627  41.530  12.492
54319W        W26579   8.343  41.168  13.456
54320W        W26580  27.761  33.633   4.647
54321W        W26581  38.820  26.036   2.270
54322W        W26582  33.643  17.648  13.388
54323W        W26583   7.635   9.558  11.593
54324W        W26584  39.346  25.047   3.636
54325W        W26585  41.563  30.607   1.704
54326W        W26586  36.618  36.969  12.662
54327W        W26587  17.663   4.731   1.855
54328W        W26588   4.795  38.995  11.010
54329W        W26589  38.137   2.397  13.523
54330W        W26590  21.267  35.932   0.739
54331W        W26591  43.354  34.528  11.919
54332W        W26592  23.728  10.758   0.824
54333W        W26593  34.441  12.837   1.336
54334W        W26594  34.179  23.045  12.774
54335W        W26595  24.690  15.419   1.371
54336W        W26596  22.786   4.801  13.797
54337W        W26597   4.800   0.970   0.332
54338W        W26598  13.628  42.520  10.598
54339W        W26599  42.020  24.953  12.003
54340W        W26600  15.418  23.768   3.369
54341W        W26601  19.220  44.137  14.691
54342W        W26602   2.931   8.252  12.936
54343W        W26603   2.663  36.909  11.602
54344W        W26604  24.672  35.845  11.197
54345W        W26605  28.428  22.973  14.901
54346W        W26606   9.736  43.586   2.622
54347W        W26607   1.748  40.337   4.235
54348W        W26608  40.818  42.508  11.528
54349W        W26609   2.593  36.310   4.129
54350W        W26610  22.690  31.097   3.986
54351W        W26611   1.393  19.523   1.424
54352W        W26612  21.123  25.603  10.874
54353W        W26613  40.452  15.860  12.491
54354W        W26614  33.628   2.953   2.536
54355W        W26615  41.295  29.208  13.066
54356W        W26616  15.529  36.707  11.283
54357W        W26617  20.518  44.517   0.256
54358W        W26618  24.723  17.657   4.379
54359W        W26619  38.323  13.104   2.728
54360W        W26620  23.041  13.656   4.262
54361W        W26621  11.356  36.158  10.448
54362W        W26622  13.137  42.918   0.433
54363W        W26623  29.103  10.852   0.810
54364W        W26624  19.622  25.468   1.375
54365W        W26625  41.004  22.313   0.305
54366W        W26626  22.813   3.281   4.174
54367W        W26627  36.964  27.581   2.143
54368W        W26628   6.459  24.091   2.220
54369W        W26629  12.435  42.885  14.847
54370W        W26630  24.017  32.076   0.548
54371W        W26631  42.566   9.776   0.713
54372W        W26632  18.582  32.108  12.945
54373W        W26633  40.088  37.800   4.630
54374W        W26634  19.813  19.439  10.711
54375W        W26635  35.233   1.371   2.673
54376W        W26636  19.240  26.738  10.230
54377W        W26637  21.172  20.589  12.835
54378W        W26638   4.605  39.308   4.713
54379W        W26639  23.512  33.224  12.473
54380W        W26640  27.506  31.965   9.586
54381W        W26641  36.918  24.505   2.095
54382W        W26642  12.331  25.216   3.307
54383W        W26643  32.352  16.226   1.378
54384W        W26644  15.820  27.243   0.265
54385W        W26645  36.539  15.250  10.976
54386W        W26646   7.230  39.896   3.707
54387W        W26647   2.256  28.759   4.435
54388W        W26648  12.516   6.209   2.698
54389W        W26649  21.345  38.095   3.385
54390W        W26650  23.264  26.108  10.554
54391W        W26651   3.669   7.791   3.217
54392W        W26652  38.386  37.150   4.847
54393W        W26653  33.860  38.826   0.868
54394W        W26654  30.089  29.333  13.391
54395W        W26655  23.942  13.715   0.288
54396W        W26656   7.344  42.386  13.980
54397W        W26657  30.537   2.416  12.383
54398W        W26658  20.070  14.010  13.953
54399W        W26659   1.416  39.432  14.293
54400W        W26660  33.497  19.964   2.226
54401W        W26661  12.825  16.841  14.545
54402W        W26662  33.017  14.489  12.276
54403W        W26663  15.208  41.431   2.916
54404W        W26664  11.378  36.911  10.534
54405W        W26665  37.567  27.398  10.989
54406W        W26666  23.147  13.863  13.407
54407W        W26667  43.379   2.794  13.790
54408W        W26668  43.398   4.599  10.618
54409W        W26669   7.442  32.436  11.619
54410W        W26670  16.256   7.248   4.576
54411W        W26671  44.219  37.216   1.309
54412W        W26672  37.131  29.852   3.647
54413W        W26673  31.503  40.863   0.852
54414W        W26674  42.642  35.537  12.640
54415W        W26675  39.456   4.713   4.595
54416W        W26676  17.283   5.140   0.016
54417W        W26677   2.849  43.040  11.976
54418W        W26678  19.581   1.807  12.037
54419W        W26679  22.237   8.391   3.932
54420W        W26680  22.487  19.553   3.287
54421W        W26681  18.866  26.928  14.798
54422W        W26682  11.577   7.142  12.206
54423W        W26683  36.962  43.881  11.119
54424W        W26684  18.633  38.921  12.050
54425W        W26685  41.389  37.315   1.841
54426W        W26686  28.172  19.538   1.322
54427W        W26687  31.625   0.507   4.311
54428W        W26688  16.214  28.030   1.875
54429W        W26689  11.921  12.777  11.183
54430W        W26690   2.202   9.389   2.730
54431W        W26691  35.863   1.824   4.651
54432W        W26692  37.166  20.630   0.909
54433W        W26693  36.550  36.364   1.976
54434W        W26694   6.733   5.632   4.838
54435W        W26695  28.862  43.368   0.799
54436W        W26696  27.610  37.906  14.521
54437W        W26697  15.407  38.936  11.466
54438W        W26698  13.848  32.504   0.199
54439W        W26699   3.974  27.172   1.407
54440W        W26700   2.259  26.719  13.900
54441W        W26701   3.451  30.054   1.524
54442W        W26702  17.523  42.874  13.426
54443W        W26703  33.589  10.496   0.876
54444W        W26704  15.625   8.461   3.577
54445W        W26705  39.521  39.083   4.561
54446W        W26706  23.598   3.270  12.762
54447W        W26707  42.042   5.810  14.222
54448W        W26708  33.605  23.455   0.046
54449W        W26709  16.221   0.681   2.815
54450W        W26710  17.325   7.323   4.567
54451W        W26711  29.565  15.760  11.619
54452W        W26712  32.445   9.282  14.024
54453W        W26713  43.521  44.833  10.463
54454W        W26714   8.223   1.814   4.577
54455W        W26715   5.577  10.220   4.578
54456W        W26716  17.648  44.492   4.654
54457W        W26717  43.242   8.170   2.929
54458W        W26718  16.300   3.403  11.246
54459W        W26719  34.794   0.738   0.915
54460W        W26720  24.528  21.061  13.452
54461W        W26721  39.086   3.874   1.633
54462W        W26722  34.498  28.228   0.019
54463W        W26723  14.207  27.228   0.776
54464W        W26724  44.438   0.798   3.011
54465W        W26725  26.177  23.205  11.556
54466W        W26726  37.134   8.425  13.419
54467W        W26727  14.828  14.889   0.448
54468W        W26728  37.195  13.787  14.407
54469W        W26729  39.665  37.516   4.667
54470W        W26730  17.626  22.877   2.600
54471W        W26731  14.698  34.935  13.022
54472W        W26732  23.952  22.640  13.536
54473W        W26733  40.847  39.804   0.727
54474W        W26734   7.343  18.279   4.568
54475W        W26735   2.249  42.181   1.917
54476W        W26736   6.344  22.497   1.239
54477W        W26737  22.673   7.051  10.627
54478W        W26738  13.570  21.173  14.743
54479W        W26739  38.508  10.889   5.599
54480W        W26740  17.261   7.875   1.876
54481W        W26741  33.823  11.695  12.031
54482W        W26742  23.106  26.593   0.002
54483W        W26743  27.179  39.941  12.617
54484W        W26744   5.242  35.323   1.501
54485W        W26745  18.094  10.891  13.857
54486W        W26746   6.253  21.470   0.084
54487W        W26747  15.263  15.920  12.869
54488W        W26748  27.263   9.961  13.495
54489W        W26749  41.492  23.570  11.954
54490W        W26750  27.217  14.742   1.932
54491W        W26751  26.164  26.971  14.325
54492W        W26752  26.961  39.088   2.352
54493W        W26753  20.300  41.026  14.337
54494W        W26754  30.736  29.066   4.512
54495W        W26755  17.042  36.885  14.053
54496W        W26756  41.526  38.834  10.236
54497W        W26757  20.088  42.969   2.248
54498W        W26758  26.507   9.725  11.450
54499W        W26759  24.955  31.048   3.700
54500W        W26760   8.281  28.132   0.534
54501W        W26761  23.053  38.055   4.301
54502W        W26762  24.180  33.931   2.911
54503W        W26763  21.110  27.949   4.366
54504W        W26764  27.681  41.718   2.759
54505W        W26765   6.605   4.450  13.909
54506W        W26766   1.181  34.391  11.115
54507W        W26767  26.151  10.254   2.226
54508W        W26768  34.096  25.371   2.346
54509W        W26769  25.788  28.876  10.366
54510W        W26770  19.010  32.627  13.995
54511W        W26771  26.011  15.080  12.969
54512W        W26772  33.363  44.485   3.371
54513W        W26773   8.734  11.629   4.203
54514W        W26774  32.130   8.191  11.461
54515W        W26775  31.389  44.409   2.691
54516W        W26776   6.817  40.500   4.515
54517W        W26777  38.977  30.084  14.693
54518W        W26778  35.435  26.649  12.128
54519W        W26779  26.461  33.840   3.065
54520W        W26780  41.020  32.043   1.984
54521W        W26781  14.085   9.289   3.656
54522W        W26782  16.705   1.232   2.377
54523W        W26783  42.593   3.942   3.309
54524W        W26784   0.516  19.105   0.414
54525W        W26785   7.280  16.932  14.907
54526W        W26786  10.099  42.769   5.015
54527W        W26787   2.025  33.951   2.201
54528W        W26788  17.297  20.647   3.916
54529W        W26789  28.038   9.419  14.019
54530W        W26790  15.381  18.738   0.772
54531W        W26791  37.728   2.263  14.554
54532W        W26792  33.388   4.316   0.459
54533W        W26793  39.240  18.807  13.975
54534W        W26794  27.934  35.295   3.278
54535W        W26795   6.386  28.009   3.733
54536W        W26796   4.528   5.503   1.972
54537W        W26797  21.312  22.468   4.134
54538W        W26798  35.107  30.372   3.671
54539W        W26799   6.215  28.932  11.098
54540W        W26800   4.400  29.158  12.720
54541W        W26801  31.442  21.666   2.225
54542W        W26802   1.598  14.913  12.451
54543W        W26803  35.667  35.255  12.962
54544W        W26804  38.606  18.375  13.056
54545W        W26805   5.943  12.509  14.436
54546W        W26806  31.388  13.542  11.513
54547W        W26807  14.763  41.990  12.467
54548W        W26808  27.394  24.010  14.974
54549W        W26809  13.387  33.738   4.058
54550W        W26810   8.584  25.706  12.079
54551W        W26811  45.000  12.686   0.761
54552W        W26812  43.527  30.631  12.351
54553W        W26813  26.756  37.229   2.861
54554W        W26814  12.567  27.952   2.938
54555W        W26815  34.534  30.944   1.822
54556W        W26816  11.214  36.397  14.305
54557W        W26817  27.399  32.417   1.713
54558W        W26818  37.884  29.514  13.455
54559W        W26819  30.487  12.267   3.187
54560W        W26820  22.430   5.312   2.878
54561W        W26821  19.782   7.517  11.558
54562W        W26822  18.518  21.502  14.439
54563W        W26823  27.000  24.795   2.768
54564W        W26824  18.516  25.001  13.427
54565W        W26825  40.752  31.264  11.157
54566W        W26826  18.135  31.896   0.500
54567W        W26827  21.081   6.244  11.076
54568W        W26828   0.229  25.624   0.873
54569W        W26829  37.854   8.824  11.605
54570W        W26830  25.477  24.031   2.334
54571W        W26831  20.115  23.707   3.723
54572W        W26832  10.900  23.067  13.850
54573W        W26833  39.741  36.037  13.327
54574W        W26834  22.832  34.257   0.405
54575W        W26835   8.209  33.641  12.482
54576W        W26836  29.985   5.733  12.131
54577W        W26837  41.410  40.409  13.828
54578W        W26838  40.426  18.503  13.385
54579W        W26839  15.894  25.705   4.151
54580W        W26840   0.757   6.663   1.944
54581W        W26841  39.833  43.879  11.978
54582W        W26842  42.204  19.427  12.440
54583W        W26843  25.533   2.375  14.084
54584W        W26844  36.815   0.168  14.886
54585W        W26845  31.151  41.769  13.492
54586W        W26846  19.167  22.556  12.507
54587W        W26847  38.065   2.671   0.743
54588W        W26848  38.617  16.587  14.455
54589W        W26849  22.321   7.634  14.346
54590W        W26850  24.151  24.620  12.081
54591W        W26851   0.310  10.215   1.370
54592W        W26852  23.266  31.160  13.926
54593W        W26853  33.503  36.571  11.225
54594W        W26854  26.389  40.854  14.942
54595W        W26855  17.258  23.550  14.326
54596W        W26856  21.459   0.372   3.244
54597W        W26857  16.548   7.114   1.766
54598W        W26858  21.649  25.613   1.833
54599W        W26859  38.822  43.949  11.951
54600W        W26860  37.953  10.780   3.558
54601W        W26861  26.499  35.596   2.901
54602W        W26862  24.052  33.470  11.072
54603W        W26863  25.793   8.465  11.935
54604W        W26864  12.377  24.967   0.419
54605W        W26865  12.831  30.002  12.042
54606W        W26866  38.783  26.956  13.550
54607W        W26867  34.033  30.633   4.201
54608W        W26868  33.485  24.482   2.818
54609W        W26869   9.141  40.808  11.054
54610W        W26870  12.903  41.770   2.835
54611W        W26871   3.496  23.599   2.648
54612W        W26872  43.920  30.600  13.927
54613W        W26873  23.111  29.953  10.596
54614W        W26874  42.447  43.860   2.455
54615W        W26875   6.357  30.404  12.964
54616W        W26876  26.470  33.085  13.891
54617W        W26877  11.564  44.738  12.284
54618W        W26878  15.702  32.865   1.527
54619W        W26879  29.623  36.932   2.364
54620W        W26880  14.354   8.616  12.416
54621W        W26881  27.493  44.517   2.397
54622W        W26882  41.084  20.249   3.724
54623W        W26883  15.339  12.661  12.948
54624W        W26884  32.879   0.955  11.098
54625W        W26885  16.058   9.130  13.041
54626W        W26886   9.845  38.573   1.034
54627W        W26887  39.919  38.823   2.383
54628W        W26888  10.882  31.922   2.833
54629W        W26889  29.489  42.847   0.159
54630W        W26890   0.901  14.098  13.840
54631W        W26891  10.977  17.762   4.625
54632W        W26892  25.649  11.763   0.917
54633W        W26893  14.074  19.130  10.696
54634W        W26894  12.184  31.347  11.125
54635W        W26895  31.407   8.654   4.109
54636W        W26896  32.625  21.983   3.652
54637W        W26897  22.519  17.855  14.823
54638W        W26898   6.674  20.610  12.526
54639W        W26899  39.870  23.551  10.504
54640W        W26900  34.116   9.631   0.801
54641W        W26901   7.734  19.157   2.745
54642W        W26902   9.280  20.619   4.076
54643W        W26903  43.442  13.355  14.421
54644W        W26904  11.699  34.935  13.493
54645W        W26905  14.617  10.748   3.825
54646W        W26906   7.360  16.612  13.982
54647W        W26907   6.348  23.417   3.100
54648W        W26908  32.755   8.955   4.200
54649W        W26909  20.288  22.508  10.174
54650W        W26910   9.843  10.031   0.524
54651W        W26911  20.045  10.028   1.930
54652W        W26912  26.945  11.295  10.352
54653W        W26913  18.767  17.309  12.731
54654W        W26914  28.961   3.266  12.210
54655W        W26915  10.293  27.734   2.826
54656W        W26916  42.367  18.117  13.043
54657W        W26917  41.003  17.233   0.447
54658W        W26918  36.385   6.339   2.329
54659W        W26919  42.527  21.146  14.920
54660W        W26920   1.212   3.889   1.379
54661W        W26921  43.375  43.455   0.269
54662W        W26922  31.169  31.873  13.955
54663W        W26923  15.155  44.865  14.617
54664W        W26924  15.703  29.190   3.780
54665W        W26925  15.267  34.687  14.597
54666W        W26926  30.543  27.461  10.711
54667W        W26927  37.993  37.790   5.011
54668W        W26928   9.368  34.484  10.689
54669W        W26929  19.622  36.976   4.380
54670W        W26930  40.504   2.250  11.561
54671W        W26931  19.475   8.257   5.068
54672W        W26932  34.781  18.336   0.300
54673W        W26933  32.642  10.773   4.270
54674W        W26934  24.047   8.462  14.507
54675W        W26935  25.221  41.934  13.011
54676W        W26936  44.495  15.342  14.403
54677W        W26937  27.556  42.967  11.972
54678W        W26938  31.455  32.901   1.905
54679W        W26939  22.555  19.754  10.513
54680W        W26940  31.461   5.619   1.376
54681W        W26941  22.084  26.668   3.580
54682W        W26942  31.389   9.226  13.034
54683W        W26943   6.336  39.253  11.453
54684W        W26944   6.545  30.315   4.993
54685W        W26945  28.114   8.849  14.304
54686W        W26946  44.423  20.262  12.502
54687W        W26947  40.521   9.917   2.400
54688W        W26948  40.765  15.727   1.376
54689W        W26949  24.454  10.669  11.136
54690W        W26950  22.901  11.509  13.530
54691W        W26951  29.876   9.179  13.123
54692W        W26952  13.776  16.567   2.941
54693W        W26953   9.222  43.051   1.127
54694W        W26954  22.613  34.112  10.786
54695W        W26955  36.909  21.172  13.372
54696W        W26956  18.873  26.222  14.305
54697W        W26957  43.724   0.924   3.706
54698W        W26958  32.099  19.627  13.280
54699W        W26959  17.580   9.292  13.055
54700W        W26960   4.476   8.855   4.110
54701W        W26961  16.298  35.546  14.480
54702W        W26962  30.647  34.197  13.916
54703W        W26963  43.467  44.188   3.920
54704W        W26964  31.625  11.323  14.672
54705W        W26965  18.422   9.423   4.570
54706W        W26966  43.413  44.364  10.611
54707W        W26967  40.173  21.280   4.633
54708W        W26968  43.010  35.746  11.086
54709W        W26969  21.583  40.457   1.471
54710W        W26970   3.010   4.899  11.966
54711W        W26971  28.097  18.624  13.286
54712W        W26972  32.311  39.921   1.895
54713W        W26973  38.744  10.492  11.930
54714W        W26974   5.285  29.197   0.356
54715W        W26975  23.178  37.430  11.597
54716W        W26976   2.364  22.608   4.803
54717W        W26977   2.382  24.591  11.814
54718W        W26978  42.470  41.814  11.461
54719W        W26979  12.277   9.110   3.155
54720W        W26980  35.555  34.138   1.304
54721W        W26981  43.018  29.491   2.842
54722W        W26982   5.797  21.523  13.414
54723W        W26983  26.466  25.908  12.817
54724W        W26984  28.566  14.193   3.813
54725W        W26985  40.017  29.525   2.752
54726W        W26986  21.262   8.700  11.177
54727W        W26987  31.038  44.250   1.238
54728W        W26988  20.654  39.194  12.025
54729W        W26989  19.650  39.799  14.717
54730W        W26990  28.003  19.216   1.736
54731W        W26991  29.206   3.799   2.920
54732W        W26992  44.721  29.646  10.697
54733W        W26993  28.523  23.987   1.243
54734W        W26994   0.724   6.801   2.788
54735W        W26995  19.615  12.671   2.904
54736W        W26996  25.426   1.254  11.997
54737W        W26997  12.778   1.551  13.499
54738W        W26998  29.191   5.096   3.320
54739W        W26999  29.634  24.211   4.433
54740W        W27000  16.231  20.366   2.830
54741W        W27001  44.872  23.282  13.483
54742W        W27002  26.136  10.640   1.686
54743W        W27003  11.657  35.528   3.365
54744W        W27004  44.712  38.866   1.795
54745W        W27005  25.056   1.452  12.965
54746W        W27006   5.344   8.623  12.693
54747W        W27007  23.825  16.627  14.538
54748W        W27008  12.830  27.949  13.326
54749W        W27009   6.891  24.167   3.877
54750W        W27010  44.672   6.121  14.430
54751W        W27011  13.838  34.000   2.925
54752W        W27012  20.250   3.860  14.859
54753W        W27013   6.111   5.931   4.097
54754W        W27014  23.130  36.403   1.017
54755W        W27015  38.821  43.051  13.162
54756W        W27016  33.180  28.836  12.284
54757W        W27017  10.622  40.742   2.342
54758W        W27018  42.731  12.088   1.184
54759W        W27019   3.823   9.181   4.557
54760W        W27020   2.837   8.838   1.375
54761W        W27021  25.540  22.795   0.620
54762W        W27022  41.994  36.472   3.364
54763W        W27023  14.706   5.723  13.455
54764W        W27024  17.561  28.878   3.416
54765W        W27025  17.613  14.955  12.438
54766W        W27026   8.670  40.029   4.529
54767W        W27027  22.504  19.609  13.606
54768W        W27028  13.387  15.154  13.425
54769W        W27029  25.610   4.027   0.514
54770W        W27030   4.047  35.996   0.843
54771W        W27031  16.176  38.379  11.011
54772W        W27032  27.430  24.985   3.567
54773W        W27033   0.808  33.371  11.695
54774W        W27034  15.920  28.552  11.007
54775W        W27035  35.448  44.248   4.277
54776W        W27036  37.406   6.117  13.873
54777W        W27037  13.919  41.998  12.120
54778W        W27038  33.407   0.116   2.216
54779W        W27039  31.468  24.485  12.879
54780W        W27040  16.108   6.350   2.927
54781W        W27041  13.734  27.261   0.027
54782W        W27042  13.683  13.273   2.735
54783W        W27043  10.756  34.616  11.819
54784W        W27044  18.603  18.051  14.443
54785W        W27045   0.456   3.860   3.630
54786W        W27046  27.978  11.176  10.711
54787W        W27047  37.339  44.818  11.960
54788W        W27048   1.389  25.392  12.867
54789W        W27049   6.384  23.551  10.711
54790W        W27050  38.344  36.802   2.333
54791W        W27051  40.356   8.772   1.014
54792W        W27052  18.925  19.110   3.034
54793W        W27053  27.455  20.652  13.887
54794W        W27054  19.675   9.730  13.787
54795W        W27055   9.353  38.562  14.785
54796W        W27056  38.923  24.738   3.738
54797W        W27057  16.520  19.096   4.270
54798W        W27058   8.393  24.939   0.893
54799W        W27059  22.247  36.802  12.983
54800W        W27060  18.112  39.268   0.359
54801W        W27061  28.676  13.206   0.264
54802W        W27062  36.321  43.041   2.196
54803W        W27063  15.505  11.952   4.983
54804W        W27064  15.685  17.186  10.628
54805W        W27065  29.654   9.321  11.999
54806W        W27066  34.273  30.488   2.378
54807W        W27067   5.100  41.340   0.672
54808W        W27068   6.663  22.000   4.700
54809W        W27069  16.193  10.336   1.814
54810W        W27070  36.430  42.072  14.748
54811W        W27071  19.533  21.132  14.835
54812W        W27072  11.793   2.952  14.329
54813W        W27073  31.535  26.020  12.073
54814W        W27074  33.071   0.063  12.211
54815W        W27075  29.114  40.891  10.730
54816W        W27076  26.277  19.286   2.839
54817W        W27077  44.824   2.690   1.382
54818W        W27078   5.801   9.113  10.924
54819W        W27079   4.350  29.676  13.593
54820W        W27080   4.708   4.472  14.777
54821W        W27081  19.588  19.825  14.629
54822W        W27082  34.301  44.639  10.310
54823W        W27083   0.243   9.266   1.449
54824W        W27084  27.665  10.763   3.383
54825W        W27085  17.708  44.887  11.723
54826W        W27086  43.943  44.913  12.905
54827W        W27087  12.696  24.137  14.993
54828W        W27088  37.008  18.752   2.761
54829W        W27089   8.097   7.886  11.208
54830W        W27090  43.338  39.996   3.188
54831W        W27091  29.354   5.617   1.993
54832W        W27092  36.808  42.497   2.025
54833W        W27093   5.479  37.099  12.135
54834W        W27094  14.805  14.267  11.972
54835W        W27095  36.209  20.534   3.230
54836W        W27096  44.954   7.960   2.812
54837W        W27097  34.435  29.449  14.342
54838W        W27098   4.858  43.448  10.464
54839W        W27099  44.453   4.826  13.069
54840W        W27100  16.716   4.807  13.183
54841W        W27101  41.281  40.791  14.610
54842W        W27102   2.400   3.278   2.723
54843W        W27103   4.720  40.915  14.792
54844W        W27104   4.861  16.431  14.201
54845W        W27105  32.269  40.424   1.772
54846W        W27106  13.894  28.847   3.737
54847W        W27107  35.509   2.200  13.516
54848W        W27108  10.835  35.527   0.068
54849W        W27109  42.733  26.132  12.994
54850W        W27110   1.755   6.018   1.679
54851W        W27111  22.930  41.301  12.009
54852W        W27112  14.069  44.682   4.599
54853W        W27113  44.454  31.015  12.652
54854W        W27114  13.079  35.907   2.078
54855W        W27115  28.070  34.131   1.806
54856W        W27116  30.935  10.875  12.036
54857W        W27117   8.455  41.761   2.784
54858W        W27118  35.500  31.539   2.952
54859W        W27119  12.319  29.400   1.274
54860W        W27120  43.361  20.459   1.686
54861W        W27121   1.475   4.765  14.760
54862W        W27122  38.345  26.172   2.476
54863W        W27123  24.543  22.131   4.617
54864W        W27124   5.764   1.818  13.350
54865W        W27125  15.862   6.434   2.474
54866W        W27126   3.399  10.080   2.330
54867W        W27127  13.070  26.245  13.829
54868W        W27128  32.864  11.605  13.062
54869W        W27129   9.089  35.149  14.511
54870W        W27130  42.337  18.476   4.770
54871W        W27131  37.183  31.918  11.208
54872W        W27132   7.432  31.261   2.806
54873W        W27133  23.450  19.532   3.118
54874W        W27134  33.958  33.028   4.237
54875W        W27135  26.741  29.122   3.919
54876W        W27136  30.440   3.718   1.246
54877W        W27137  13.295  42.526  13.797
54878W        W27138  19.610  30.025  13.467
54879W        W27139   0.893  33.297   2.377
54880W        W27140  40.466  16.427   2.686
54881W        W27141   0.644  39.329   9.958
54882W        W27142  27.060  44.811   0.509
54883W        W27143  42.300  26.747   4.276
54884W        W27144  12.785  17.118  13.255
54885W        W27145  42.576  34.140  12.031
54886W        W27146  39.573  14.995   2.268
54887W        W27147   0.729  24.171  11.680
54888W        W27148   1.470  44.484   4.169
54889W        W27149  24.988  20.760   3.683
54890W        W27150  32.473  22.113  10.852
54891W        W27151  23.758  27.964   3.292
54892W        W27152  41.416   5.713   1.377
54893W        W27153  29.534  23.682  11.284
54894W        W27154  13.678  18.927   0.529
54895W        W27155  16.659  42.900   1.397
54896W        W27156  24.749  36.170   4.633
54897W        W27157  15.549  30.470  14.836
54898W        W27158  30.030  19.118   1.906
54899W        W27159  10.591  24.507   2.846
54900W        W27160  40.272  32.673  11.775
54901W        W27161   6.240  20.801  14.299
54902W        W27162  10.081  38.872   4.527
54903W        W27163  26.872  24.283  14.961
54904W        W27164   4.357   8.406   3.315
54905W        W27165  23.644  33.106  14.935
54906W        W27166   9.832  12.238   4.571
54907W        W27167  38.151   5.933   3.418
54908W        W27168   1.977   6.675  12.125
54909W        W27169  21.552  23.158  14.391
54910W        W27170   8.033  13.443   1.225
54911W        W27171  40.257  27.848   4.637
54912W        W27172   6.716  13.541  14.052
54913W        W27173  26.097  25.445  13.598
54914W        W27174  28.042  34.480  13.134
54915W        W27175  38.024  42.863   1.001
54916W        W27176   9.263  25.703   4.436
54917W        W27177  24.635   9.900  12.524
54918W        W27178   8.765  30.959   2.209
54919W        W27179  28.130  44.714   1.847
54920W        W27180  43.235   1.847  12.415
54921W        W27181  33.745  37.300  10.838
54922W        W27182  43.085  22.434  11.055
54923W        W27183  39.555  12.792   2.309
54924W        W27184  17.032  21.648   4.221
54925W        W27185  17.975  26.597   3.611
54926W        W27186  42.784  42.233   4.218
54927W        W27187  34.848   2.821   4.148
54928W        W27188  16.997   0.907   3.248
54929W        W27189   5.995  10.066  12.099
54930W        W27190   8.823  21.099  10.235
54931W        W27191   2.971  26.477   3.128
54932W        W27192  11.446  31.361   2.398
54933W        W27193  20.017  20.608  12.879
54934W        W27194  40.814  28.803   3.766
54935W        W27195  15.961  17.082   4.037
54936W        W27196  24.626  20.727   4.036
54937W        W27197  39.259  19.102   1.469
54938W        W27198  44.676  33.995  14.522
54939W        W27199  20.127  27.735   2.397
54940W        W27200   2.289  43.061   0.988
54941W        W27201  15.137  16.555   2.684
54942W        W27202  24.484  10.326   0.392
54943W        W27203   5.328   0.076  11.924
54944W        W27204  12.924   4.665   0.408
54945W        W27205  44.261  37.259  12.951
54946W        W27206  21.210  21.273  13.999
54947W        W27207  26.448  13.807   2.343
54948W        W27208  16.452  36.996  12.028
54949W        W27209   4.447  44.459   2.679
54950W        W27210  32.470  40.981  14.222
54951W        W27211  11.915  12.883  12.227
54952W        W27212   8.701  44.689   1.314
54953W        W27213  21.993  21.400  11.875
54954W        W27214  34.049  35.959  13.379
54955W        W27215  43.871  12.482  14.766
54956W        W27216  33.492  21.231   2.208
54957W        W27217  37.366  28.158   1.266
54958W        W27218  11.445   0.769   0.782
54959W        W27219  26.188   7.747  12.804
54960W        W27220   4.238  37.594  14.391
54961W        W27221   3.291   7.755   4.710
54962W        W27222   9.490  42.922   3.662
54963W        W27223  11.254  28.400   0.946
54964W        W27224  40.724   9.856   3.002
54965W        W27225   2.992  27.118   0.296
54966W        W27226   3.998  37.509   1.436
54967W        W27227  13.534  23.833  11.657
54968W        W27228  24.022  30.617   3.555
54969W        W27229  23.919  21.183  11.507
54970W        W27230  15.319   5.474  10.673
54971W        W27231  24.404  38.430  14.219
54972W        W27232  36.027  25.561   3.127
54973W        W27233   8.839  30.139   1.802
54974W        W27234  43.922  23.544   3.839
54975W        W27235  20.196  15.014  12.024
54976W        W27236  40.793  11.705   0.544
54977W        W27237   7.504  31.071   4.089
54978W        W27238  30.178  16.910  12.369
54979W        W27239  20.068  38.143   0.905
54980W        W27240  35.132   4.063  12.545
54981W        W27241  11.709   7.174  11.067
54982W        W27242   4.679  11.727  14.848
54983W        W27243  30.116  36.777  14.956
54984W        W27244  19.015  20.532  11.973
54985W        W27245  41.896  37.024   1.783
54986W        W27246  21.264   4.894  11.317
54987W        W27247   7.754  27.967  13.344
54988W        W27248   6.190  34.515  11.567
54989W        W27249  16.470  41.015   3.631
54990W        W27250   1.553  20.760  14.790
54991W        W27251  37.393   7.065  14.870
54992W        W27252   7.307  36.770  13.552
54993W        W27253  31.915  36.615   1.408
54994W        W27254  30.039   4.269   2.598
54995W        W27255  43.677  29.369  12.791
54996W        W27256  11.237  11.897  10.677
54997W        W27257  13.608  39.000   3.813
54998W        W27258  14.362  11.687  14.178
54999W        W27259  38.617  40.991  14.947
55000W        W27260   1.322  38.535   0.361
55001W        W27261  13.232  17.345  13.404
55002W        W27262  44.529  34.180   4.808
55003W        W27263  20.009  17.090  10.816
55004W        W27264  35.133  10.681  11.515
55005W        W27265  10.197  13.934   3.705
55006W        W27266   4.408  13.796   1.252
55007W        W27267  24.625  15.271  10.562
55008W        W27268  24.985  12.228   2.841
55009W        W27269  13.278  33.579   0.721
55010W        W27270  11.605  11.625  14.806
55011W        W27271   6.642  37.022   3.286
55012W        W27272  34.013  20.489  12.492
55013W        W27273   3.830   5.778  10.741
55014W        W27274  20.752  22.667  13.912
55015W        W27275  41.635  20.617  11.212
55016W        W27276  28.985  20.984   3.709
55017W        W27277  19.105   8.556   1.719
55018W        W27278  27.221  18.229  12.371
55019W        W27279  18.777  32.439   3.623
55020W        W27280  11.874  26.985   4.584
55021W        W27281  22.113  14.736   4.510
55022W        W27282  20.904  28.038  12.561
55023W        W27283  23.323  36.399  11.834
55024W        W27284  40.118   7.237  11.091
55025W        W27285  33.988  43.830   4.812
55026W        W27286  21.019  31.417   1.408
55027W        W27287  25.929  10.666  13.300
55028W        W27288  33.418  31.402   4.587
55029W        W27289  40.269  30.342   4.148
55030W        W27290  14.119  22.018  12.355
55031W        W27291  41.956  26.196  10.581
55032W        W27292   2.003  25.770  14.413
55033W        W27293  22.018  41.300  11.491
55034W        W27294  25.422  41.063   4.619
55035W        W27295  19.287   4.952   0.762
55036W        W27296  13.155  36.067  11.084
55037W        W27297  20.201  27.112  10.631
55038W        W27298  42.846  14.652  14.379
55039W        W27299  22.803  40.592   4.879
55040W        W27300   8.169  11.915   2.239
55041W        W27301  14.627  13.587  10.840
55042W        W27302  13.910  24.615   2.901
55043W        W27303  36.473   4.722   1.311
55044W        W27304   9.275   9.390  11.045
55045W        W27305  37.842  37.598   1.083
55046W        W27306  32.953  24.196   0.704
55047W        W27307  25.467   2.729   0.476
55048W        W27308   7.885  29.916  12.035
55049W        W27309  18.107  44.332   2.901
55050W        W27310   5.699  17.075   1.332
55051W        W27311  20.460  33.596   2.726
55052W        W27312   6.177  25.591   3.684
55053W        W27313  42.513  27.901   2.309
55054W        W27314  12.403   1.017  13.950
55055W        W27315  26.968  20.464  10.642
55056W        W27316   0.288  30.398   0.093
55057W        W27317  25.307  22.089  13.407
55058W        W27318  11.230  26.227   3.614
55059W        W27319  10.284   9.226   2.439
55060W        W27320  37.875  41.809  11.190
55061W        W27321  37.261  11.673   3.069
55062W        W27322  31.620  34.483  13.889
55063W        W27323  39.809   9.801   0.568
55064W        W27324  28.872  19.054  13.447
55065W        W27325  24.940  39.948   1.797
55066W        W27326  13.197  29.703   3.402
55067W        W27327   0.901  27.179  12.876
55068W        W27328   7.216  36.925  14.037
55069W        W27329  33.833  19.719  10.488
55070W        W27330  39.377  23.386  10.672
55071W        W27331  28.414  22.041   3.322
55072W        W27332  38.403  16.811   1.084
55073W        W27333  21.992  11.316   2.247
55074W        W27334  26.929  19.087  11.759
55075W        W27335  39.276  15.609   0.262
55076W        W27336  25.202  44.737  13.473
55077W        W27337  21.256   5.802  12.276
55078W        W27338  26.664  22.238  14.403
55079W        W27339  44.838  44.789  10.632
55080W        W27340  17.274  33.913  10.516
55081W        W27341  20.984  21.297  11.606
55082W        W27342   2.384  17.853   3.278
55083W        W27343  18.941  18.582   0.515
55084W        W27344  37.819  43.389   3.107
55085W        W27345  30.987  24.399   4.720
55086W        W27346  21.251  15.802  11.108
55087W        W27347  26.625   1.951   0.824
55088W        W27348  15.241  44.755   0.493
55089W        W27349  22.045  13.817   4.230
55090W        W27350   8.962  14.614   2.740
55091W        W27351  23.591  42.425  12.053
55092W        W27352  35.318   1.446  10.463
55093W        W27353   7.366   7.239  13.636
55094W        W27354   2.491  28.043  10.223
55095W        W27355  27.536  14.743   4.415
55096W        W27356  10.161  26.280  13.331
55097W        W27357  29.595  22.388   0.640
55098W        W27358  34.885  40.667   1.450
55099W        W27359  43.944   9.254   4.729
55100W        W27360  39.742   9.311  10.622
55101W        W27361  28.467   6.969   3.404
55102W        W27362   6.792   0.042  12.395
55103W        W27363  18.507  38.516   3.897
55104W        W27364  10.076   6.146   2.004
55105W        W27365  15.848  38.362  13.066
55106W        W27366  14.094  32.986   0.198
55107W        W27367  31.688   6.945   1.700
55108W        W27368  32.952  33.383   1.741
55109W        W27369  29.016  26.138  14.784
55110W        W27370  32.497  36.111  10.486
55111W        W27371  27.665  40.447   3.258
55112W        W27372  31.151  35.052  12.071
55113W        W27373  30.104   1.242   4.611
55114W        W27374   9.729  32.223  10.163
55115W        W27375  29.008   8.519   2.516
55116W        W27376  14.533  42.534  14.695
55117W        W27377  13.246   5.801   4.610
55118W        W27378  37.823  16.782  13.485
55119W        W27379  24.459   8.603  12.929
55120W        W27380   5.155  17.827   1.652
55121W        W27381  16.082  12.057  14.313
55122W        W27382   0.812   6.855  13.116
55123W        W27383  11.193  30.633   4.437
55124W        W27384   8.515   7.657  10.933
55125W        W27385  40.559  23.782  14.927
55126W        W27386  17.905  42.864  14.414
55127W        W27387  35.828  33.463   2.994
55128W        W27388  12.178  42.797   0.304
55129W        W27389  27.069   9.379  14.129
55130W        W27390  13.727   8.195  10.670
55131W        W27391   0.401  12.388   0.546
55132W        W27392  19.014   0.442   0.314
55133W        W27393  28.235   2.695  12.109
55134W        W27394   1.761   3.010   1.308
55135W        W27395  42.552  36.070   0.238
55136W        W27396   2.014  15.340   2.376
55137W        W27397  17.276  39.930  10.708
55138W        W27398  10.269  17.612  13.531
55139W        W27399  27.312  40.566  11.894
55140W        W27400  19.405  31.107   4.105
55141W        W27401  35.112  37.423   4.514
55142W        W27402  25.558  10.355  14.751
55143W        W27403  16.188  24.780  12.075
55144W        W27404  10.384  20.169   4.550
55145W        W27405  44.285  11.969   0.357
55146W        W27406  35.456  35.598  11.915
55147W        W27407  11.125  24.965  11.952
55148W        W27408  19.991  12.819   0.020
55149W        W27409  26.058   1.817   4.276
55150W        W27410  38.428  11.377   1.438
55151W        W27411  30.961  32.901   4.404
55152W        W27412  36.412  44.177  14.833
55153W        W27413  39.846  39.312  11.942
55154W        W27414  38.460   6.921  11.649
55155W        W27415  18.182  22.081   3.611
55156W        W27416  16.949  17.173  12.036
55157W        W27417  35.381  30.464  12.662
55158W        W27418  19.722  24.996  12.929
55159W        W27419  41.033   4.649  13.986
55160W        W27420   2.483  42.856  14.945
55161W        W27421  28.085  17.727   4.620
55162W        W27422   5.882  24.246  11.157
55163W        W27423  21.129  33.023  12.094
55164W        W27424  22.470  14.482  10.468
55165W        W27425   0.935   1.957   1.600
55166W        W27426  17.334  11.705   4.024
55167W        W27427  38.079  18.158  12.278
55168W        W27428  19.183  10.965  11.364
55169W        W27429  19.734  18.963   0.004
55170W        W27430  15.268  34.499   3.468
55171W        W27431  17.807  29.754   0.761
55172W        W27432   5.967  44.479   0.866
55173W        W27433  18.041  29.609  13.889
55174W        W27434  30.920   9.152   4.605
55175W        W27435  44.397  21.296   2.637
55176W        W27436   0.290  27.459   3.334
55177W        W27437  22.684  11.304   0.377
55178W        W27438  32.727  19.085   5.146
55179W        W27439  20.915  42.392   2.811
55180W        W27440  13.748  15.946   3.786
55181W        W27441  14.764  15.788   0.434
55182W        W27442  36.822  41.014   2.937
55183W        W27443  24.730  37.026  12.966
55184W        W27444  33.641  21.187  13.908
55185W        W27445  43.268  16.615   4.122
55186W        W27446  26.600  19.371   4.734
55187W        W27447  19.640   4.264   3.699
55188W        W27448  17.090  10.337   3.345
55189W        W27449  42.829   6.770   3.430
55190W        W27450  33.507   3.926   2.636
55191W        W27451  27.168  36.072  13.810
55192W        W27452  24.675  27.228  11.965
55193W        W27453  43.922   3.398  14.409
55194W        W27454  44.814  23.758   3.581
55195W        W27455   7.726  18.032  13.531
55196W        W27456  29.091  39.387  11.652
55197W        W27457  28.012  21.668  10.943
55198W        W27458   3.692  42.938   0.423
55199W        W27459   2.411   4.675  14.270
55200W        W27460  42.111  25.510   1.194
55201W        W27461  18.259  40.601   4.409
55202W        W27462  32.795  24.118  14.267
55203W        W27463  44.333  23.713  11.444
55204W        W27464   3.050  24.810   1.830
55205W        W27465  20.214  26.489  11.663
55206W        W27466  21.008  10.444   1.976
55207W        W27467  24.456  14.301   3.675
55208W        W27468  41.944  19.285  13.021
55209W        W27469  20.067  23.735   4.582
55210W        W27470   3.998  13.157  10.665
55211W        W27471   0.589  24.451   3.800
55212W        W27472  44.243   6.687   3.187
55213W        W27473  21.433  10.287   0.733
55214W        W27474  43.803  28.637   0.308
55215W        W27475   2.672  42.776   5.081
55216W        W27476  43.376  14.640   1.287
55217W        W27477  36.099   2.912   4.583
55218W        W27478  15.615  37.077   0.239
55219W        W27479  31.583   1.478   1.822
55220W        W27480  14.921  19.504  10.728
55221W        W27481  40.572  31.953   5.028
55222W        W27482  18.810   7.316   1.296
55223W        W27483  28.536  31.167   4.022
55224W        W27484  43.543  14.333   4.758
55225W        W27485   0.928   4.309  14.702
55226W        W27486  27.386   6.433   2.176
55227W        W27487  14.611  10.180  13.494
55228W        W27488   7.948  41.488   3.880
55229W        W27489  37.909  26.990   2.795
55230W        W27490  35.813  23.697  14.000
55231W        W27491  28.995  27.638  10.621
55232W        W27492  36.537  25.092   3.755
55233W        W27493  10.849   4.432  10.855
55234W        W27494  18.676  19.317  13.950
55235W        W27495  38.654  16.505   0.352
55236W        W27496   5.757  17.684  12.902
55237W        W27497  42.982  17.266   3.537
55238W        W27498  39.031  31.089  11.182
55239W        W27499  36.445  10.312   0.300
55240W        W27500  27.560  28.739   1.916
55241W        W27501  26.624  11.377  13.422
55242W        W27502  17.658  18.054  13.818
55243W        W27503  43.506  26.616   3.434
55244W        W27504   2.029  19.656   2.055
55245W        W27505  26.077  27.903  14.838
55246W        W27506   3.171  21.689   0.009
55247W        W27507  40.348  23.775  13.615
55248W        W27508   1.946  25.209   2.317
55249W        W27509  30.167  41.948  12.442
55250W        W27510  43.957  20.212  14.371
55251W        W27511  29.829  18.160  12.184
55252W        W27512  22.055  38.328  12.171
55253W        W27513   1.610  36.454   4.348
55254W        W27514  44.702  16.717  10.273
55255W        W27515  28.444   3.192  12.340
55256W        W27516   6.799  12.706  14.009
55257W        W27517   7.195  12.125   3.671
55258W        W27518  28.005  20.476  14.337
55259W        W27519   9.748  37.722   0.264
55260W        W27520  23.929  15.802  11.534
55261W        W27521  40.260  40.551   2.788
55262W        W27522  41.939  29.065   3.699
55263W        W27523  17.255   0.698  13.448
55264W        W27524  15.919  20.716  12.430
55265W        W27525  21.744   4.400  10.556
55266W        W27526  33.459  24.202   2.386
55267W        W27527   9.288   1.329  10.734
55268W        W27528  44.709   3.361   2.555
55269W        W27529   6.124  11.059   2.720
55270W        W27530   2.801  18.004   2.319
55271W        W27531   8.945   2.230   5.152
55272W        W27532  24.778  39.094  11.311
55273W        W27533   9.376  38.581   3.348
55274W        W27534  29.705  20.219   1.963
55275W        W27535  21.230  29.489  13.167
55276W        W27536  39.258  38.068  10.745
55277W        W27537  11.640  43.804  11.014
55278W        W27538  34.330  40.494   4.406
55279W        W27539  19.596   9.312  14.085
55280W        W27540  32.963  14.687  14.529
55281W        W27541  10.431  28.564   3.805
55282W        W27542  35.445  29.944  11.187
55283W        W27543  33.366   4.369  10.931
55284W        W27544  37.873  41.531   0.218
55285W        W27545  10.126  39.452   3.417
55286W        W27546  36.841   1.504   2.286
55287W        W27547  28.287  15.551   3.399
55288W        W27548  38.567  25.065  12.510
55289W        W27549  35.333  26.367  14.395
55290W        W27550  36.997  17.228  11.677
55291W        W27551   3.862   2.330  14.841
55292W        W27552   5.777   4.733   2.710
55293W        W27553   1.481  34.407   4.159
55294W        W27554  10.586  22.409   4.257
55295W        W27555  32.687  38.812  12.536
55296W        W27556   8.845  21.816   1.421
55297W        W27557  37.798  19.230   0.659
55298W        W27558   1.783  40.464  11.211
55299W        W27559  35.990  13.759   4.096
55300W        W27560  44.503   3.809   3.080
55301W        W27561  33.022  10.927  11.032
55302W        W27562  32.871  37.522   0.960
55303W        W27563   8.972  21.304  14.461
55304W        W27564  32.135  42.515   0.838
55305W        W27565   6.619  42.812  13.040
55306W        W27566  29.369  13.626   4.633
55307W        W27567  16.782   9.610  10.592
55308W        W27568  41.775  17.617  14.941
55309W        W27569   3.165  22.033  12.413
55310W        W27570  19.554  39.330   0.978
55311W        W27571  38.917  15.741  11.941
55312W        W27572   0.769  21.139   5.030
55313W        W27573  39.938  29.152   4.232
55314W        W27574  36.288  18.941   5.506
55315W        W27575  39.356  38.594  10.609
55316W        W27576   3.684  10.776   1.816
55317W        W27577  24.077  15.264  13.147
55318W        W27578  20.270   8.841   2.142
55319W        W27579  20.142  36.280   2.978
55320W        W27580  39.143  26.145   4.747
55321W        W27581  19.078  43.510  13.892
55322W        W27582  14.517  21.262   2.452
55323W        W27583   1.405  41.906   1.050
55324W        W27584   6.186  31.567   0.859
55325W        W27585   2.302  13.670  13.152
55326W        W27586  33.853  30.746  14.537
55327W        W27587  25.122   7.498   1.567
55328W        W27588  44.450  23.554  11.922
55329W        W27589  32.396  32.387   3.997
55330W        W27590  13.724  17.081   2.955
55331W        W27591  44.993  31.503  10.525
55332W        W27592  23.465  15.318  12.365
55333W        W27593   4.266  41.471   2.884
55334W        W27594  44.517   3.399  11.927
55335W        W27595  16.700   2.496   1.363
55336W        W27596   5.810  27.233   0.299
55337W        W27597  37.509   7.101   4.578
55338W        W27598  20.170  21.994  14.984
55339W        W27599  24.815  25.184   1.267
55340W        W27600  29.225  12.816   1.773
55341W        W27601   4.107  35.625  11.102
55342W        W27602  42.737   8.458   1.174
55343W        W27603  36.019  18.255   3.618
55344W        W27604   0.447  18.014   0.267
55345W        W27605  23.461  24.991  14.039
55346W        W27606  20.687   0.158  13.365
55347W        W27607   1.272   7.676  10.662
55348W        W27608   4.002   1.877   4.831
55349W        W27609  25.170  40.417  10.498
55350W        W27610   2.686  29.018   4.342
55351W        W27611  30.647  25.240   2.239
55352W        W27612  16.061  35.603   2.728
55353W        W27613  12.582  44.046  12.092
55354W        W27614   8.793  19.045   2.203
55355W        W27615  21.938  26.471   1.340
55356W        W27616   0.388   5.712  12.411
55357W        W27617  37.509  32.934   3.175
55358W        W27618  36.583   1.027   2.301
55359W        W27619  11.383  17.558  13.529
55360W        W27620  12.431  17.352   2.837
55361W        W27621  12.149  16.772  13.492
55362W        W27622   6.250  40.547  11.882
55363W        W27623  16.559  23.528  11.679
55364W        W27624   1.487  41.988   4.185
55365W        W27625   1.900  13.306  13.897
55366W        W27626  37.326  44.607   4.415
55367W        W27627  23.246  21.984   4.158
55368W        W27628  25.454  20.787  14.311
55369W        W27629  36.342   3.310  14.442
55370W        W27630  33.434   5.783   0.312
55371W        W27631  23.074  23.070   1.681
55372W        W27632  21.019   9.664  12.111
55373W        W27633  33.604   3.998   1.611
55374W        W27634   3.482  35.008   4.097
55375W        W27635  44.936  21.177   4.676
55376W        W27636   4.196  19.077  12.905
55377W        W27637   3.713  11.947  11.093
55378W        W27638  18.755  21.057  12.961
55379W        W27639  37.922   9.276  12.993
55380W        W27640  43.283   0.371   1.382
55381W        W27641  33.561  18.564  12.526
55382W        W27642  16.705  24.136   3.371
55383W        W27643   9.671  26.616   4.603
55384W        W27644  24.293  12.301   0.713
55385W        W27645  39.399   2.512   0.188
55386W        W27646  38.966  11.280  11.265
55387W        W27647  37.376  23.150   3.814
55388W        W27648  44.532   0.755   4.758
55389W        W27649  24.114   5.266  13.902
55390W        W27650  11.090  16.266  13.008
55391W        W27651  43.362  16.023   1.902
55392W        W27652  18.644  40.263   2.483
55393W        W27653  22.360  15.855  12.560
55394W        W27654  28.222  28.566   2.598
55395W        W27655   2.172  18.535   1.510
55396W        W27656  21.905  36.452  13.963
55397W        W27657  40.056  29.405  13.936
55398W        W27658  15.225  22.075   0.561
55399W        W27659  36.018  22.098   2.122
55400W        W27660  34.656  30.637   3.668
55401W        W27661  29.205  42.407  13.098
55402W        W27662  37.423  14.157   4.254
55403W        W27663   7.689  21.325  11.978
55404W        W27664   6.831  43.774  12.995
55405W        W27665  28.396  28.514   0.240
55406W        W27666   4.440  30.000   4.915
55407W        W27667  35.486  19.163  13.458
55408W        W27668  40.905  17.666   2.208
55409W        W27669  40.730  44.847   2.853
55410W        W27670   4.969   4.684  14.376
55411W        W27671  12.936  34.394   1.472
55412W        W27672  20.726  33.111   1.685
55413W        W27673  37.983  21.406  13.835
55414W        W27674  11.304  37.420  11.171
55415W        W27675   5.388  24.437   3.615
55416W        W27676  42.737  23.302   4.210
55417W        W27677   2.676  44.691  13.200
55418W        W27678   7.398  19.063   4.044
55419W        W27679   2.111  22.408  14.230
55420W        W27680   3.753   7.858   1.271
55421W        W27681  14.773  12.875  12.584
55422W        W27682  40.672  15.602  12.086
55423W        W27683   2.629  19.109   0.115
55424W        W27684  37.423  37.161   4.350
55425W        W27685   1.978  20.967  10.693
55426W        W27686  14.296  26.477  11.635
55427W        W27687  20.839  23.679  11.928
55428W        W27688   4.249  44.038  11.984
55429W        W27689  44.744  13.202   2.420
55430W        W27690   4.394  30.067   3.382
55431W        W27691  29.070  44.717  14.694
55432W        W27692  38.287  15.538   0.402
55433W        W27693  36.636  13.610   0.807
55434W        W27694  30.096   0.886  14.661
55435W        W27695  32.690  22.575   1.224
55436W        W27696  19.020  21.093  14.819
55437W        W27697  41.886  38.978  11.436
55438W        W27698  31.073   1.277   1.713
55439W        W27699  23.502   6.687   1.006
55440W        W27700  21.649  22.496   9.802
55441W        W27701   6.855   5.374  11.196
55442W        W27702  31.560  25.521  10.780
55443W        W27703  33.557  14.680   1.791
55444W        W27704   5.403  14.661   2.670
55445W        W27705  24.932   1.674  13.853
55446W        W27706  24.095  32.070  10.641
55447W        W27707   6.065  41.371   3.271
55448W        W27708  30.452  29.538   1.187
55449W        W27709   7.109  16.995   4.211
55450W        W27710   2.020  40.541  14.774
55451W        W27711  13.267  39.163  13.530
55452W        W27712  38.298  30.095   0.462
55453W        W27713  29.660  15.741   0.158
55454W        W27714  33.080  14.188   3.923
55455W        W27715  24.132   0.394  12.241
55456W        W27716  11.895   0.478  13.506
55457W        W27717  35.929  29.121  12.905
55458W        W27718  22.704  27.736  13.421
55459W        W27719  15.616  18.700  11.571
55460W        W27720  26.405  43.992  13.580
55461W        W27721   0.085  24.558   3.876
55462W        W27722  24.931  16.153   3.640
55463W        W27723   4.251  38.342   1.813
55464W        W27724  35.093  14.264  14.485
55465W        W27725  41.051  27.052  11.948
55466W        W27726  16.518  29.028   0.803
55467W        W27727  19.089  13.265  14.668
55468W        W27728  18.235   7.244   2.238
55469W        W27729  44.069  15.850  13.579
55470W        W27730  22.492  25.091  12.620
55471W        W27731  31.642   4.171  13.921
55472W        W27732  24.488   6.171  12.969
55473W        W27733   9.278   5.395  13.314
55474W        W27734  35.523  26.188  11.755
55475W        W27735  39.480  18.703   4.221
55476W        W27736   0.260  32.542  11.095
55477W        W27737  44.533  13.955   3.145
55478W        W27738  25.502   0.753  11.905
55479W        W27739  31.466  42.272   1.735
55480W        W27740  25.770  14.048   4.521
55481W        W27741  42.534  14.474   2.625
55482W        W27742  19.446  10.659  12.144
55483W        W27743  42.291  28.101   4.344
55484W        W27744   9.830   9.285  11.024
55485W        W27745  27.125  32.592  13.497
55486W        W27746  35.279  31.802   1.817
55487W        W27747  12.818   9.925  11.495
55488W        W27748  44.850  26.020  14.990
55489W        W27749  37.350  40.982  14.239
55490W        W27750  34.544  41.069   1.734
55491W        W27751  26.122   5.941   3.747
55492W        W27752  34.149  17.655  13.523
55493W        W27753  37.391  38.347   2.835
55494W        W27754  37.110  30.169  13.523
55495W        W27755  23.205  14.657   4.533
55496W        W27756  34.359  37.321  13.838
55497W        W27757  38.366  30.923  12.123
55498W        W27758  23.200  34.899   3.280
55499W        W27759   7.242   6.757  13.869
55500W        W27760  23.271  30.601   2.373
55501W        W27761  18.414   3.398  10.246
55502W        W27762  42.683  25.085   5.116
55503W        W27763   4.403  36.278   2.320
55504W        W27764  11.322  18.071  13.545
55505W        W27765   0.876   8.538   4.650
55506W        W27766  34.196  21.187  10.754
55507W        W27767  44.005  14.246  12.595
55508W        W27768  22.578  15.658  14.772
55509W        W27769   0.035  18.522   2.353
55510W        W27770  22.939  24.093   1.314
55511W        W27771  30.420  10.726   1.226
55512W        W27772  12.229  35.170  11.578
55513W        W27773  35.396  28.686  11.588
55514W        W27774  15.700   6.668  11.075
55515W        W27775  14.936  10.100   2.010
55516W        W27776  12.264   5.806  11.202
55517W        W27777   3.964  16.007   1.751
55518W        W27778  44.566  23.559  14.742
55519W        W27779  12.542   3.818   4.279
55520W        W27780   8.746  43.941  14.846
55521W        W27781  37.559  17.819  12.028
55522W        W27782  12.001  13.896  12.907
55523W        W27783   4.005  27.785  14.952
55524W        W27784  27.922  19.859   4.598
55525W        W27785  29.442   0.891   4.553
55526W        W27786   0.432  19.201   1.433
55527W        W27787  10.382   6.273   3.658
55528W        W27788  40.872   8.084  14.611
55529W        W27789   3.828  13.365   4.189
55530W        W27790   1.334  16.099  11.075
55531W        W27791  27.590   6.186   4.271
55532W        W27792  18.618  27.769   1.469
55533W        W27793   5.237   1.640  11.032
55534W        W27794  19.343  19.165  11.583
55535W        W27795  10.793  15.614   4.174
55536W        W27796   8.845   4.332   2.718
55537W        W27797  13.184  17.634  11.036
55538W        W27798  36.465  22.730  14.365
55539W        W27799  23.343   8.077   3.062
55540W        W27800  27.224  29.413  11.923
55541W        W27801  43.362  18.260  11.711
55542W        W27802   6.361  39.301   3.767
55543W        W27803  10.820  16.998  11.942
55544W        W27804  41.792  28.144   4.124
55545W        W27805  22.523  20.881   1.934
55546W        W27806   3.414  39.749  10.755
55547W        W27807  16.797  11.652  11.330
55548W        W27808   8.231  39.943  11.617
55549W        W27809   4.352   1.436  14.463
55550W        W27810  25.521  12.310  12.193
55551W        W27811  32.349   9.204   0.933
55552W        W27812   8.718  21.608  13.628
55553W        W27813  20.196  26.128   2.355
55554W        W27814  32.939  17.735  14.522
55555W        W27815  17.236  42.158   3.618
55556W        W27816  38.079  20.473  10.848
55557W        W27817  29.485  29.681  11.939
55558W        W27818  30.382   1.755   1.510
55559W        W27819  27.892   3.342   1.762
55560W        W27820   9.324  19.273   1.882
55561W        W27821   0.821  23.849  10.695
55562W        W27822  32.631  29.731  12.445
55563W        W27823   0.497  42.024   2.698
55564W        W27824   9.129   3.328   0.033
55565W        W27825   7.482  28.032   2.367
55566W        W27826  14.454  20.633  12.487
55567W        W27827  37.959  26.474  12.876
55568W        W27828  20.449  44.529  13.949
55569W        W27829   3.773  13.296  14.632
55570W        W27830  32.552   2.991   2.648
55571W        W27831   2.879   6.294   4.950
55572W        W27832  16.505  17.234   4.184
55573W        W27833  21.422  41.826  11.038
55574W        W27834  42.035  37.887   3.561
55575W        W27835   9.819  35.579  12.067
55576W        W27836  39.761  32.648   4.590
55577W        W27837   8.512   0.972   4.936
55578W        W27838  41.225   5.273  14.328
55579W        W27839  15.850  20.805  14.838
55580W        W27840  31.002  28.458   2.638
55581W        W27841   3.992   7.024   1.417
55582W        W27842  20.239  38.795  12.482
55583W        W27843  33.319  26.220   4.337
55584W        W27844  23.300   8.813   1.902
55585W        W27845  22.306  19.870  12.013
55586W        W27846  20.635  26.644  10.112
55587W        W27847   3.439  17.441  13.528
55588W        W27848   2.942  42.589   0.778
55589W        W27849   1.497  24.610  11.706
55590W        W27850  16.789  15.390   4.951
55591W        W27851  26.410  21.014   3.698
55592W        W27852  42.550   3.382   9.876
55593W        W27853  42.532  28.260  13.803
55594W        W27854  30.465   4.909  11.114
55595W        W27855  29.919  43.374   0.799
55596W        W27856  22.241   5.043  12.050
55597W        W27857  40.093  21.142  12.212
55598W        W27858  36.009  44.819   0.128
55599W        W27859  42.343  16.393  12.804
55600W        W27860  10.229  22.393   0.885
55601W        W27861  36.078   6.010  12.460
55602W        W27862  32.223  24.189  11.864
55603W        W27863  11.160  13.222   0.952
55604W        W27864  20.681  37.781   1.340
55605W        W27865  11.139   9.073  12.835
55606W        W27866  30.431  13.104  11.530
55607W        W27867   4.188  27.169   4.943
55608W        W27868  30.040  21.725   4.851
55609W        W27869  35.384  28.540  12.925
55610W        W27870  26.289  35.107  13.849
55611W        W27871  43.386  18.038  14.955
55612W        W27872  37.499  18.720   1.485
55613W        W27873  23.626   4.274  11.130
55614W        W27874  32.116  12.646   4.408
55615W        W27875  38.974  13.387  12.417
55616W        W27876  39.481  32.612  14.894
55617W        W27877  13.375  20.069   4.864
55618W        W27878  22.541  24.474  13.990
55619W        W27879  37.928  34.411  11.146
55620W        W27880  30.849  27.582   0.236
55621W        W27881  18.759  13.111  11.868
55622W        W27882  30.931  43.308  10.701
55623W        W27883  18.011  15.367   2.862
55624W        W27884   5.945   7.951   0.204
55625W        W27885  31.213  37.559   4.569
55626W        W27886  38.111  40.609  13.607
55627W        W27887  10.877  41.478  13.241
55628W        W27888  25.096  12.078  14.489
55629W        W27889  43.478  26.189   2.680
55630W        W27890  13.120  31.094   2.914
55631W        W27891  37.097  29.147   3.226
55632W        W27892  28.380  21.510  12.883
55633W        W27893  17.192  43.147   3.948
55634W        W27894   9.265  33.211  10.013
55635W        W27895   3.728  18.085   3.552
55636W        W27896  13.877   4.290   4.501
55637W        W27897   1.768   5.227  14.687
55638W        W27898  41.997  12.550   0.873
55639W        W27899  17.373   7.410  13.289
55640W        W27900  19.408  28.433   0.388
55641W        W27901   1.200  26.639  13.794
55642W        W27902   5.158  41.978   0.333
55643W        W27903  34.812  28.006   4.076
55644W        W27904  20.994  33.372   1.286
55645W        W27905  37.418  16.982  11.477
55646W        W27906  38.310  22.719  13.716
55647W        W27907   7.382   7.923   2.299
55648W        W27908  16.065   7.660   0.838
55649W        W27909  36.658  37.012  10.596
55650W        W27910   7.054  27.798   5.555
55651W        W27911   4.748  20.745  12.166
55652W        W27912  15.136  20.486  14.353
55653W        W27913  36.342  20.580   3.712
55654W        W27914  39.073  37.315  12.191
55655W        W27915  43.805   7.813   1.584
55656W        W27916  43.672  25.571   1.610
55657W        W27917  13.702  11.632   0.442
55658W        W27918  15.700   9.087   2.855
55659W        W27919  22.724  33.857  12.205
55660W        W27920  26.517  15.261  10.923
55661W        W27921   7.384  44.486  12.182
55662W        W27922  19.645  39.393   4.949
55663W        W27923   3.448  26.413  12.539
55664W        W27924  16.580  27.672   1.010
55665W        W27925  43.237   7.102   1.751
55666W        W27926  14.123   1.492  14.940
55667W        W27927   2.932  35.514   1.348
55668W        W27928  32.556   9.665   0.782
55669W        W27929   4.928  42.973  11.645
55670W        W27930  12.701  15.332  11.711
55671W        W27931  19.631   4.147  13.956
55672W        W27932   7.123  28.104  12.566
55673W        W27933  43.211  28.652   0.486
55674W        W27934   3.657  11.798  11.601
55675W        W27935  38.838  31.733   3.816
55676W        W27936  44.869  21.011   0.053
55677W        W27937   0.018  15.856  13.165
55678W        W27938  26.421  33.417   4.289
55679W        W27939   8.222  36.633  13.520
55680W        W27940  41.283   7.188  11.555
55681W        W27941  39.140   3.470   1.954
55682W        W27942  37.467   2.200  11.618
55683W        W27943  30.691   0.391   4.251
55684W        W27944  29.902   7.454   0.243
55685W        W27945  12.721   9.706   2.529
55686W        W27946   5.761  15.806   3.223
55687W        W27947  34.424  23.185   3.231
55688W        W27948  24.150  13.561  13.381
55689W        W27949   7.101  16.415  11.655
55690W        W27950   7.920  12.505   4.094
55691W        W27951   4.028  32.008   1.509
55692W        W27952  44.718  12.723   3.226
55693W        W27953  44.074  28.213   4.086
55694W        W27954   5.777   3.656   4.502
55695W        W27955   6.188  37.416  11.248
55696W        W27956   2.856  22.751   2.722
55697W        W27957  14.329  40.581  10.731
55698W        W27958  20.212  15.069   0.875
55699W        W27959  17.270  37.508   1.811
55700W        W27960   1.981  27.575  13.915
55701W        W27961  42.959  39.994   1.159
55702W        W27962  42.888  12.078   1.912
55703W        W27963  35.846  35.603  12.237
55704W        W27964  31.682  34.564  12.405
55705W        W27965  22.095   8.337   0.337
55706W        W27966  23.933   6.816   4.213
55707W        W27967  25.882   5.458   1.902
55708W        W27968  23.303   5.268  13.443
55709W        W27969  42.417  22.471   3.560
55710W        W27970   9.349  31.030   1.313
55711W        W27971  37.561  22.094   1.260
55712W        W27972   4.671  15.641  13.046
55713W        W27973  40.594  32.386   2.635
55714W        W27974  33.791   7.279   4.273
55715W        W27975   2.400  12.124  11.248
55716W        W27976  32.381   8.310  13.041
55717W        W27977  19.587  27.439   3.204
55718W        W27978  29.870  34.764  10.719
55719W        W27979  21.040  39.404   1.675
55720W        W27980  31.047  43.451   3.693
55721W        W27981  15.647  14.397  11.530
55722W        W27982  29.576  44.645   5.147
55723W        W27983  37.285  34.067  12.557
55724W        W27984   2.228  35.094   5.307
55725W        W27985  42.972  37.854  12.768
55726W        W27986  26.123  30.074   2.142
55727W        W27987  11.054   5.859  14.622
55728W        W27988   9.065  29.456  11.142
55729W        W27989   6.811   5.649   3.794
55730W        W27990  33.044   1.886   3.889
55731W        W27991   9.107  12.651   1.748
55732W        W27992  18.661   1.641  12.655
55733W        W27993  28.756  22.922   1.396
55734W        W27994  34.556  11.756   1.680
55735W        W27995   7.846  15.625  11.914
55736W        W27996   8.774  30.131  11.621
55737W        W27997  27.857   5.500   4.578
55738W        W27998  10.256  33.561   1.085
55739W        W27999  41.075  26.468  14.387
55740W        W28000  36.640   4.195  12.692
55741W        W28001   9.333  39.510   1.429
55742W        W28002  42.462  26.711   1.980
55743W        W28003  25.264  14.264  12.876
55744W        W28004  38.865   3.523  10.639
55745W        W28005  20.717  25.540   2.771
55746W        W28006   6.669  23.050  11.819
55747W        W28007  20.021  11.636   2.754
55748W        W28008   1.473  40.412  14.810
55749W        W28009  43.325  43.420  13.954
55750W        W28010  35.472   6.717  13.847
55751W        W28011   3.870   9.337   1.586
55752W        W28012  10.010  33.366   4.656
55753W        W28013  25.086   7.991  11.419
55754W        W28014  27.514  23.316  10.540
55755W        W28015   3.191  43.536   3.186
55756W        W28016   2.922  30.052  11.667
55757W        W28017  37.460  33.574   0.198
55758W        W28018  21.678  37.177   3.827
55759W        W28019  30.159  32.335  12.445
55760W        W28020  19.273   7.291   2.242
55761W        W28021  40.886  36.404   1.603
55762W        W28022  24.814   2.386  13.522
55763W        W28023   7.495  18.096  14.442
55764W        W28024  32.048  11.596  13.035
55765W        W28025  39.064  43.502  12.011
55766W        W28026  12.588  42.939  13.561
55767W        W28027  28.368  14.243  12.347
55768W        W28028  17.817  42.814   2.865
55769W        W28029  31.092  23.020  14.423
55770W        W28030   5.789  41.421   0.948
55771W        W28031   1.101   2.494  13.111
55772W        W28032   5.282  11.181  11.788
55773W        W28033   2.777  36.970  13.965
55774W        W28034  21.639  35.594  10.974
55775W        W28035  12.686  12.220   1.386
55776W        W28036  24.159  10.115   3.733
55777W        W28037  14.366  43.088   3.029
55778W        W28038  19.535  22.685  11.166
55779W        W28039   1.363  20.302  10.723
55780W        W28040  35.567  19.591  11.519
55781W        W28041  44.838  39.411  10.385
55782W        W28042  17.109  29.447   3.407
55783W        W28043   4.720   1.972   0.195
55784W        W28044   2.419  34.454  14.487
55785W        W28045  19.509  11.313   2.397
55786W        W28046  20.667   4.349  14.092
55787W        W28047  32.458  43.189   3.051
55788W        W28048   5.888   1.295  12.894
55789W        W28049  14.663  26.445   0.837
55790W        W28050  13.336   7.444  13.418
55791W        W28051  34.541  29.112   3.462
55792W        W28052  24.980  15.676   2.377
55793W        W28053   7.454  41.351  11.934
55794W        W28054  35.666  40.037   4.685
55795W        W28055   3.728  21.758  14.188
55796W        W28056  25.677  16.870  14.668
55797W        W28057  24.936   4.279   0.072
55798W        W28058  29.916  20.342  12.655
55799W        W28059  14.147  29.960   2.154
55800W        W28060  34.463  12.847  11.644
55801W        W28061  33.380  22.615  14.428
55802W        W28062  22.506  39.356   2.100
55803W        W28063   4.458  25.927  11.628
55804W        W28064  36.072  36.822   3.711
55805W        W28065  19.374  20.958   5.046
55806W        W28066   3.024   3.724   1.283
55807W        W28067  18.485   3.308  13.629
55808W        W28068  28.791   8.186   2.190
55809W        W28069  28.485  31.139  12.062
55810W        W28070  34.539  28.859  13.520
55811W        W28071  42.437  10.611  12.365
55812W        W28072  36.840  12.425   3.729
55813W        W28073  35.854   9.705   2.220
55814W        W28074  25.022  24.980  11.051
55815W        W28075  22.094  36.325  14.972
55816W        W28076  39.527  15.702   0.765
55817W        W28077  43.482  39.509   2.834
55818W        W28078  18.076   0.984   1.931
55819W        W28079  22.661  35.466  14.324
55820W        W28080  29.651  40.169  12.584
55821W        W28081  34.036  28.682   2.329
55822W        W28082  16.718  22.043  14.487
55823W        W28083  35.567  13.727   0.034
55824W        W28084  16.815   5.360  13.906
55825W        W28085   3.324  29.265   1.872
55826W        W28086  41.554  13.847   4.702
55827W        W28087   5.443  38.983  12.200
55828W        W28088   8.439  28.530   0.857
55829W        W28089  39.849  43.967  13.854
55830W        W28090  18.048  33.553  13.917
55831W        W28091  15.307  19.239   1.924
55832W        W28092   3.489  26.937   4.691
55833W        W28093  42.271  30.989  12.973
55834W        W28094  34.171  25.940   0.865
55835W        W28095  12.218   7.778  10.621
55836W        W28096   9.643   4.881   4.650
55837W        W28097   1.751   4.724   2.276
55838W        W28098  13.205  26.564  12.682
55839W        W28099  14.488  39.070   3.639
55840W        W28100  25.194  13.111   1.960
55841W        W28101  15.841  30.958   2.852
55842W        W28102   9.783  34.668   0.909
55843W        W28103  33.638  34.239  10.743
55844W        W28104   2.409  26.159  11.392
55845W        W28105   0.218  43.888   0.438
55846W        W28106  16.677  12.864   1.463
55847W        W28107  13.164  17.857  13.363
55848W        W28108  20.999  19.721  13.287
55849W        W28109  17.524  23.330  10.120
55850W        W28110  41.941   2.703   4.291
55851W        W28111  25.260  26.878   2.200
55852W        W28112  13.710  44.175  10.911
55853W        W28113   0.329  36.351   0.500
55854W        W28114   1.308  23.636   1.945
55855W        W28115  14.635  11.845   0.044
55856W        W28116  21.946  14.682   0.707
55857W        W28117  14.778   0.015  14.014
55858W        W28118  29.790  11.329  14.824
55859W        W28119   6.713   3.353  14.104
55860W        W28120   9.978  16.677   2.314
55861W        W28121  41.992  28.372  11.850
55862W        W28122  33.641  18.761   3.660
55863W        W28123  19.056  15.962   3.343
55864W        W28124   9.763  34.560  13.804
55865W        W28125   8.007  30.942   4.035
55866W        W28126  14.161  15.813  13.370
55867W        W28127  15.917  33.750  12.761
55868W        W28128   3.452  42.098   2.984
55869W        W28129   2.954  14.904  11.930
55870W        W28130   3.796   6.442   1.856
55871W        W28131  31.119  31.605   0.479
55872W        W28132  20.604  40.625  14.184
55873W        W28133   3.386  43.536  11.047
55874W        W28134  37.936   0.855  11.695
55875W        W28135  32.077  32.999  12.096
55876W        W28136  41.270  16.625  11.602
55877W        W28137  38.473  32.903  12.909
55878W        W28138  28.530  32.360   9.717
55879W        W28139   0.701  17.060   2.801
55880W        W28140  44.843  12.826  10.682
55881W        W28141  27.562  41.465  12.108
55882W        W28142  23.986   2.184   2.401
55883W        W28143  24.049  14.167   1.292
55884W        W28144  23.974  34.337   4.205
55885W        W28145   9.141  20.455  14.581
55886W        W28146  39.344  34.007   4.584
55887W        W28147  11.613   5.685  12.377
55888W        W28148  30.446  43.284   0.816
55889W        W28149   0.366  34.901  11.066
55890W        W28150  15.156   1.821  11.239
55891W        W28151  39.644  10.287  10.644
55892W        W28152  23.178  39.443  12.470
55893W        W28153   5.274   0.947  12.227
55894W        W28154   7.148  42.768   2.912
55895W        W28155  35.084   7.952  12.932
55896W        W28156  44.537  15.717   0.111
55897W        W28157  30.248  32.256  11.555
55898W        W28158  14.218  39.094   3.140
55899W        W28159  13.267  40.485  12.076
55900W        W28160  16.806  29.090   1.233
55901W        W28161  41.363  37.115  10.648
55902W        W28162  20.957  42.755  12.441
55903W        W28163  22.707   7.773   1.937
55904W        W28164  23.427   2.662  14.727
55905W        W28165   0.774   3.773   1.647
55906W        W28166  16.234  24.235   0.435
55907W        W28167  29.039   3.861   0.084
55908W        W28168  27.943  32.951  12.643
55909W        W28169  34.054  22.183   4.479
55910W        W28170  35.581   7.116   3.816
55911W        W28171  19.519   4.141  14.872
55912W        W28172  17.016  38.831  11.119
55913W        W28173   5.472  10.701  10.662
55914W        W28174  44.785   1.810   4.057
55915W        W28175  23.011  21.327   2.782
55916W        W28176   4.405  24.548   0.570
55917W        W28177  33.489  42.729  12.938
55918W        W28178  22.411  32.386  10.070
55919W        W28179  20.633  19.521   0.867
55920W        W28180  20.172   7.332  14.019
55921W        W28181   0.385  17.064  14.306
55922W        W28182  30.911  24.905   1.777
55923W        W28183  12.669  41.612  11.612
55924W        W28184   0.808  11.258  10.485
55925W        W28185  15.393  31.195   2.855
55926W        W28186   8.316  32.361  10.564
55927W        W28187  21.791   2.622   3.636
55928W        W28188  35.095  23.126   3.854
55929W        W28189  35.110  33.094   0.965
55930W        W28190  32.916  24.548   3.357
55931W        W28191  21.323  38.029  14.757
55932W        W28192  11.186  27.378   4.083
55933W        W28193  27.335   5.568  12.062
55934W        W28194  15.239  11.194  12.995
55935W        W28195   0.571  12.630  13.534
55936W        W28196  14.699  21.034  12.147
55937W        W28197  31.772   2.441   3.795
55938W        W28198  11.969   4.130  11.474
55939W        W28199  28.073  18.036   1.407
55940W        W28200  13.519  23.642   2.134
55941W        W28201   2.263  42.575  12.362
55942W        W28202  30.905   5.062   2.808
55943W        W28203  21.082  16.498  11.556
55944W        W28204   4.249  44.908  14.967
55945W        W28205  25.909  25.428   2.413
55946W        W28206  22.525  31.487   1.744
55947W        W28207  14.466  29.972   0.961
55948W        W28208   8.038  43.838  13.553
55949W        W28209  39.533  12.815  13.055
55950W        W28210  19.334  27.857   1.273
55951W        W28211  14.796  41.259   0.882
55952W        W28212  43.397  40.247   1.430
55953W        W28213   3.853  28.451   2.767
55954W        W28214  35.618   0.707   2.266
55955W        W28215  10.375  25.598  11.579
55956W        W28216   2.449  18.350  12.502
55957W        W28217  37.155  40.400   4.639
55958W        W28218  32.457  30.210   4.556
55959W        W28219  10.688  43.808  11.273
55960W        W28220  27.476  17.301  12.360
55961W        W28221  21.061  13.693  14.373
55962W        W28222   7.477  44.016  11.526
55963W        W28223  25.052  22.771   0.386
55964W        W28224   4.750   7.432  11.207
55965W        W28225   5.391  39.484   4.138
55966W        W28226  33.374   8.304  12.808
55967W        W28227  11.692  40.497  12.456
55968W        W28228  44.509  38.854  10.905
55969W        W28229  26.908  26.558   1.949
55970W        W28230   8.415   1.423  11.696
55971W        W28231  20.327  12.616   1.295
55972W        W28232   0.892  39.434  10.936
55973W        W28233  36.868  18.352  14.942
55974W        W28234  40.855  29.941   0.261
55975W        W28235  25.810  21.979   3.606
55976W        W28236  37.337  41.837  14.517
55977W        W28237  24.209  13.864  11.378
55978W        W28238  26.639  28.729  11.504
55979W        W28239  39.771  34.295   0.799
55980W        W28240  37.859  44.737  12.904
55981W        W28241  19.512  27.234  13.397
55982W        W28242  44.425  18.090  13.960
55983W        W28243   3.326  13.793  13.602
55984W        W28244  33.099  14.133   2.890
55985W        W28245  19.937  43.414  10.946
55986W        W28246  19.659  12.581   4.682
55987W        W28247  13.203  16.017  11.273
55988W        W28248  26.080  34.152  14.374
55989W        W28249   9.779  13.501  11.184
55990W        W28250  37.474  39.324   2.564
55991W        W28251  43.214  11.194   2.100
55992W        W28252  21.305  17.315  11.200
55993W        W28253  16.700   1.315  10.687
55994W        W28254  13.674  16.467   3.833
55995W        W28255   0.893   5.013   4.842
55996W        W28256  44.385   7.705  11.993
55997W        W28257  10.554   3.752   0.822
55998W        W28258  22.840  34.809  11.387
55999W        W28259  16.161  34.469   1.902
56000W        W28260  29.374  10.190  12.540
56001W        W28261  23.106  15.528   4.174
56002W        W28262  25.576  27.643   3.396
56003W        W28263   1.792  14.345   5.043
56004W        W28264  27.936  10.223  14.850
56005W        W28265  16.804   6.193  11.590
56006W        W28266  13.273   8.366   3.436
56007W        W28267  20.559  31.359  11.012
56008W        W28268  21.713  30.968  14.632
56009W        W28269  28.452  17.209   0.719
56010W        W28270   3.747  12.792  14.368
56011W        W28271  33.133  10.363  13.300
56012W        W28272   4.462  33.145   4.493
56013W        W28273  31.890  35.208   5.146
56014W        W28274  23.015   4.937  14.489
56015W        W28275  40.656  33.632   3.621
56016W        W28276  10.391  12.306   1.267
56017W        W28277  44.808  23.983  11.148
56018W        W28278  35.538  21.076  12.399
56019W        W28279  41.739  18.450  13.381
56020W        W28280  34.108  18.254   5.086
56021W        W28281  16.517  21.041   3.133
56022W        W28282  43.504  21.142   2.837
56023W        W28283  41.720  31.955  14.897
56024W        W28284  33.406   4.935   1.308
56025W        W28285   6.158  15.841  14.879
56026W        W28286  31.049  24.480   3.183
56027W        W28287  33.083   4.129  10.558
56028W        W28288   3.081  35.385  11.132
56029W        W28289   6.214   0.928   4.036
56030W        W28290  29.073  41.914  14.519
56031W        W28291  30.799  16.785   1.796
56032W        W28292  44.375  43.845   3.075
56033W        W28293  18.517   0.692   1.844
56034W        W28294   8.815  38.771   3.371
56035W        W28295  19.752  42.831  12.940
56036W        W28296  40.337  11.866   4.157
56037W        W28297  22.299  41.593   0.330
56038W        W28298  39.561  41.386  12.098
56039W        W28299  20.504  35.793   1.282
56040W        W28300   4.203   9.158  14.874
56041W        W28301   7.111  15.155   1.771
56042W        W28302   0.331  13.796   5.021
56043W        W28303  13.053  41.718   0.813
56044W        W28304  10.278  44.250  14.632
56045W        W28305  38.871  30.522   4.865
56046W        W28306  21.541  17.367  13.513
56047W        W28307  40.833  26.140   2.264
56048W        W28308  38.879  27.083  13.066
56049W        W28309   6.973   5.807   1.919
56050W        W28310   3.691  18.818   4.600
56051W        W28311  22.404  14.071  14.038
56052W        W28312  11.682  43.281   2.709
56053W        W28313  32.751  30.402   2.704
56054W        W28314   9.180   3.232   1.782
56055W        W28315  18.674  25.749  14.357
56056W        W28316   9.827  25.129  11.988
56057W        W28317  31.666  10.965  10.424
56058W        W28318  18.058  20.077   3.720
56059W        W28319  43.857  15.285   4.554
56060W        W28320   1.457  28.552   0.905
56061W        W28321  37.065  13.006  11.247
56062W        W28322  27.637  41.893  12.980
56063W        W28323  33.204  25.158  12.042
56064W        W28324  18.674  26.316   1.840
56065W        W28325   2.144  38.796   2.871
56066W        W28326  11.848  18.560   2.389
56067W        W28327  36.196  44.512  10.978
56068W        W28328  30.641  40.453   4.527
56069W        W28329  41.394  20.909  11.594
56070W        W28330  11.328  21.569  11.366
56071W        W28331  27.510  41.526  14.780
56072W        W28332  17.473  19.795   0.403
56073W        W28333  39.511  41.463   1.300
56074W        W28334  33.467  39.399  14.781
56075W        W28335  11.554   4.444   2.261
56076W        W28336  27.868  41.450   4.131
56077W        W28337   3.486  27.215   0.328
56078W        W28338  11.269  39.032   2.125
56079W        W28339  26.296  15.341   4.606
56080W        W28340  34.797  34.242  13.028
56081W        W28341  22.190  24.730  10.839
56082W        W28342  42.794  39.842  12.869
56083W        W28343  33.351  39.948  13.529
56084W        W28344  18.699  37.878  11.193
56085W        W28345  37.317  14.814  14.534
56086W        W28346  23.086  41.992  11.408
56087W        W28347  23.257  40.061   9.899
56088W        W28348  23.213  42.401   3.660
56089W        W28349  40.878  18.552  10.603
56090W        W28350  38.916   8.057   3.346
56091W        W28351  41.051  41.893   0.637
56092W        W28352  36.846  43.347  13.402
56093W        W28353  31.533  27.681   3.028
56094W        W28354  14.861  32.090  13.862
56095W        W28355  16.299  39.606  11.153
56096W        W28356   1.998  37.945  13.509
56097W        W28357  13.983  21.892   1.236
56098W        W28358   1.276  36.454   4.799
56099W        W28359  19.622  33.822  12.651
56100W        W28360  12.540  44.248  12.915
56101W        W28361   7.389   0.709  13.025
56102W        W28362  44.927  10.624   2.216
56103W        W28363  18.051  38.415   3.672
56104W        W28364   3.306  42.439   3.400
56105W        W28365  37.153  11.325  10.509
56106W        W28366  17.853  11.656   0.863
56107W        W28367   6.819  18.219   2.322
56108W        W28368  42.404  12.890   0.814
56109W        W28369  15.278  16.354   4.876
56110W        W28370   8.985  38.138  12.884
56111W        W28371   4.299  36.897   4.089
56112W        W28372  21.940  40.647   3.371
56113W        W28373  22.045  15.496   3.581
56114W        W28374  28.021   1.705   1.762
56115W        W28375  42.701  32.964  14.198
56116W        W28376   2.198  18.273   4.672
56117W        W28377  16.773  36.157   4.517
56118W        W28378  41.476   5.639  10.738
56119W        W28379  13.281   7.179  13.894
56120W        W28380   6.223  44.272   2.343
56121W        W28381   7.655  21.143  10.628
56122W        W28382  18.110  14.180  14.856
56123W        W28383  22.161  11.293   0.485
56124W        W28384  31.920  43.930  12.912
56125W        W28385   6.301  27.501  10.871
56126W        W28386  11.751   8.256   4.781
56127W        W28387   5.575  16.856   3.146
56128W        W28388  16.343  40.321  10.802
56129W        W28389  13.667  24.440   0.577
56130W        W28390  40.416  35.637   0.445
56131W        W28391  16.488  33.702  11.920
56132W        W28392   0.083   9.925   0.419
56133W        W28393  30.087   7.909   1.318
56134W        W28394  27.969  37.084  14.433
56135W        W28395  37.874  31.949  13.394
56136W        W28396  34.620  18.389   3.242
56137W        W28397  25.931  22.750  14.392
56138W        W28398  15.071   0.614  12.126
56139W        W28399  40.991  15.723   2.845
56140W        W28400  29.291  28.233   3.445
56141W        W28401   8.553  30.677  12.786
56142W        W28402  28.168  36.780   3.744
56143W        W28403  11.704  29.205   1.847
56144W        W28404  39.763  18.609  12.167
56145W        W28405  15.562  24.698   0.696
56146W        W28406  41.883  17.512  14.398
56147W        W28407   4.853  25.946  12.946
56148W        W28408  42.170  23.563  10.326
56149W        W28409  27.286  18.756  12.517
56150W        W28410  17.363  38.430  11.046
56151W        W28411  36.969  16.047  10.767
56152W        W28412   8.446  38.189   0.841
56153W        W28413   1.387  35.303   2.717
56154W        W28414  39.371  15.841  14.326
56155W        W28415   1.342  18.145   2.466
56156W        W28416  14.077   5.473  10.585
56157W        W28417  31.527  14.826  10.831
56158W        W28418   6.761  39.819  12.094
56159W        W28419  17.249  15.362  14.926
56160W        W28420  23.136   8.804  14.228
56161W        W28421  43.436   1.925   4.547
56162W        W28422   4.255  14.744   2.115
56163W        W28423   8.203   2.312  12.520
56164W        W28424   1.010   7.278   4.158
56165W        W28425  42.251   8.386   4.473
56166W        W28426  36.568  34.577   3.202
56167W        W28427  43.898  25.005   2.353
56168W        W28428   5.125  37.520  14.337
56169W        W28429  18.168  32.625  11.612
56170W        W28430  24.938  18.305  12.615
56171W        W28431  20.773  31.458  11.472
56172W        W28432  19.432  30.301  10.508
56173W        W28433  20.966  39.501   5.266
56174W        W28434   9.782  35.411  13.589
56175W        W28435  19.252   9.557   0.222
56176W        W28436   9.077  18.130  11.564
56177W        W28437   8.333  38.534   3.247
56178W        W28438  14.074  32.732  14.186
56179W        W28439   6.588  34.373   1.479
56180W        W28440   8.204  26.045  11.235
56181W        W28441  25.995  22.121  12.308
56182W        W28442   1.997  35.467   0.335
56183W        W28443   5.797   7.129  12.959
56184W        W28444  19.821  39.867   2.692
56185W        W28445  22.172  31.035  10.921
56186W        W28446  18.600  27.471  12.791
56187W        W28447  34.680   0.736   3.198
56188W        W28448  25.764  44.824   2.072
56189W        W28449  14.081   5.690   1.286
56190W        W28450  28.499  39.155  13.536
56191W        W28451  11.324   6.358   0.985
56192W        W28452  37.559   8.117  12.732
56193W        W28453  17.341  13.435  13.440
56194W        W28454  25.135  22.337  10.560
56195W        W28455  30.943  21.440  13.085
56196W        W28456  31.676  25.692  13.353
56197W        W28457   1.142   8.764   2.479
56198W        W28458   0.862   7.948   3.654
56199W        W28459  29.186  19.206  14.378
56200W        W28460  37.329   5.076   0.177
56201W        W28461  19.029   8.061  12.920
56202W        W28462  31.598  37.066  14.855
56203W        W28463  20.332   5.744  11.995
56204W        W28464  27.267  24.055  10.439
56205W        W28465  12.106   1.715   2.681
56206W        W28466   9.361  40.195   4.369
56207W        W28467  29.588  24.550  13.352
56208W        W28468  43.773  21.111  13.854
56209W        W28469  37.506  28.548   0.871
56210W        W28470  35.010  19.369  11.009
56211W        W28471  26.030  36.901  11.657
56212W        W28472   4.672   4.709  10.406
56213W        W28473  40.034  13.077   2.789
56214W        W28474  25.596  26.122  13.751
56215W        W28475  40.290  21.006   0.298
56216W        W28476  21.315  31.386   2.401
56217W        W28477  32.025  27.160  14.031
56218W        W28478  44.511  38.899   1.316
56219W        W28479   5.797  42.706  12.100
56220W        W28480  28.699  36.522  12.825
56221W        W28481  15.532  41.220   4.096
56222W        W28482  25.051  25.390  12.137
56223W        W28483  34.015  27.425  10.407
56224W        W28484  23.564  33.675  14.228
56225W        W28485  36.079  35.553  11.778
56226W        W28486  33.351   9.022  14.883
56227W        W28487   2.843  14.849   0.274
56228W        W28488  11.117  38.835   3.692
56229W        W28489  22.035  12.675  13.930
56230W        W28490  30.328  42.966   3.151
56231W        W28491   0.507  11.907  11.602
56232W        W28492  25.890  42.594   9.646
56233W        W28493  34.569  35.986  13.319
56234W        W28494  18.831  20.144  10.750
56235W        W28495  37.100  24.291  13.649
56236W        W28496  24.586  27.565   4.787
56237W        W28497  10.098  10.404   3.388
56238W        W28498   5.670  23.139  12.592
56239W        W28499  29.943  38.122   3.602
56240W        W28500  42.680  30.581  11.736
56241W        W28501   8.654  19.925   3.578
56242W        W28502  32.584  32.868  12.058
56243W        W28503  37.275  22.683  14.785
56244W        W28504  27.691   5.912  11.046
56245W        W28505   3.334   4.355  13.870
56246W        W28506   3.384  39.291  12.868
56247W        W28507  12.812  27.338  10.970
56248W        W28508  28.920  28.480   3.694
56249W        W28509  40.732  25.382   0.892
56250W        W28510  12.679  40.231   0.293
56251W        W28511  11.663   3.637  11.557
56252W        W28512  24.460  19.436   3.102
56253W        W28513  37.591  20.129   3.725
56254W        W28514  18.554   4.274  14.829
56255W        W28515  27.082   8.987   5.045
56256W        W28516  29.677  31.839  11.028
56257W        W28517  11.462  38.499   3.967
56258W        W28518   2.397  20.911   4.794
56259W        W28519  30.999  25.746  13.912
56260W        W28520  40.540  35.936  12.861
56261W        W28521  38.791  28.748  14.497
56262W        W28522  34.696  13.792   2.182
56263W        W28523  17.447   0.444   0.362
56264W        W28524  18.172  29.086   4.251
56265W        W28525  38.667  29.743   0.444
56266W        W28526  37.622  41.909  14.964
56267W        W28527   2.925  42.823   1.249
56268W        W28528  38.308  20.130  14.486
56269W        W28529  19.341  32.900   0.387
56270W        W28530   7.698  12.960   4.228
56271W        W28531  20.672  30.125  12.595
56272W        W28532   8.322  39.917   2.675
56273W        W28533   2.883   5.625   0.268
56274W        W28534  33.924  22.547   3.577
56275W        W28535  23.959  35.129  14.564
56276W        W28536  42.807  25.765   0.813
56277W        W28537  42.540  33.456   4.145
56278W        W28538  21.101  24.716   1.809
56279W        W28539  36.828  32.482  10.864
56280W        W28540  14.607   6.120  14.974
56281W        W28541  30.073   4.491   3.485
56282W        W28542  10.167   5.660  11.006
56283W        W28543  29.707  29.958  10.635
56284W        W28544  24.994  17.770   2.802
56285W        W28545  26.279   5.818  10.681
56286W        W28546   4.263  32.885   1.929
56287W        W28547  22.449  16.321  14.267
56288W        W28548  11.198  22.145  14.744
56289W        W28549   0.948  41.045   2.742
56290W        W28550  19.013  20.479   3.694
56291W        W28551  14.714  29.851  12.418
56292W        W28552  24.006  41.305   2.676
56293W        W28553  24.858   2.294   4.549
56294W        W28554   1.139   2.198   4.228
56295W        W28555  20.024  33.292   2.808
56296W        W28556  28.748   5.348  12.696
56297W        W28557  44.520   2.989   4.161
56298W        W28558  44.324  13.756   0.794
56299W        W28559   9.213   7.598   2.661
56300W        W28560  24.442  22.274  13.809
56301W        W28561  20.799  36.964  13.070
56302W        W28562  18.277  44.862   3.013
56303W        W28563   3.507  28.007   0.788
56304W        W28564  41.997   1.928  14.911
56305W        W28565   8.606  29.207   2.035
56306W        W28566  32.147   7.626  13.477
56307W        W28567  28.244  33.078   1.158
56308W        W28568  32.039  39.356   3.220
56309W        W28569  28.480  18.464  14.858
56310W        W28570  25.480  32.414  10.696
56311W        W28571  44.429  29.043   0.277
56312W        W28572  10.812  23.092   0.633
56313W        W28573  20.644  18.787  12.707
56314W        W28574  24.718  21.975  12.492
56315W        W28575   2.289  26.748  14.426
56316W        W28576  30.885  15.709   2.442
56317W        W28577  29.563  32.875   4.689
56318W        W28578  29.834  33.117  11.480
56319W        W28579  27.934  38.110  12.182
56320W        W28580  23.932   0.883   3.913
56321W        W28581  27.590  18.653  11.155
56322W        W28582  14.273   0.267   1.551
56323W        W28583   4.433  41.896  12.814
56324W        W28584   6.426  28.462  14.320
56325W        W28585   1.077  40.348   3.013
56326W        W28586  24.922  19.772  11.053
56327W        W28587   6.325  18.617   2.697
56328W        W28588  44.764  24.931   2.783
56329W        W28589  19.619  27.552   1.673
56330W        W28590  41.062   3.337   2.221
56331W        W28591  37.907  27.535   2.740
56332W        W28592  22.562  43.366   2.302
56333W        W28593  38.519   3.432   2.231
56334W        W28594  14.341  13.507  13.934
56335W        W28595   9.876  16.732   4.230
56336W        W28596  23.127   7.929  13.882
56337W        W28597  13.012   1.050   4.949
56338W        W28598  27.723  40.440  13.359
56339W        W28599  24.150  32.638   1.735
56340W        W28600  11.061   2.613  12.836
56341W        W28601  38.542  20.696  10.900
56342W        W28602  21.803  17.122   0.765
56343W        W28603  42.997   4.250  12.090
56344W        W28604  39.023  27.828  12.395
56345W        W28605  25.738  16.701   1.830
56346W        W28606  44.034   6.354   0.413
56347W        W28607   9.029  27.650  14.883
56348W        W28608  43.365  18.297  13.815
56349W        W28609   2.574  40.455  11.479
56350W        W28610   6.509   2.296   1.834
56351W        W28611  31.866  24.524   3.632
56352W        W28612  37.117   4.701  13.001
56353W        W28613  33.160  35.485   1.131
56354W        W28614  26.451  40.760   1.172
56355W        W28615  23.194  12.730   1.449
56356W        W28616  32.291  20.680  10.717
56357W        W28617  44.747  33.785   0.416
56358W        W28618  42.867   1.795   3.421
56359W        W28619   8.735  19.000   4.970
56360W        W28620   0.158  24.704  11.621
56361W        W28621  27.433  44.910  13.959
56362W        W28622  16.238  15.681   1.411
56363W        W28623  12.806  44.414   2.588
56364W        W28624  25.011   3.790  10.717
56365W        W28625   9.584  43.410   1.665
56366W        W28626  29.649   3.132   0.097
56367W        W28627   4.423   4.493  11.089
56368W        W28628  36.702  10.223   5.037
56369W        W28629  43.166  32.679   0.012
56370W        W28630   5.322  25.100  13.830
56371W        W28631  39.964  21.361   2.998
56372W        W28632  29.871   7.686   3.125
56373W        W28633   6.208  35.535   2.098
56374W        W28634  11.989   4.910   1.276
56375W        W28635  32.384  15.501  14.675
56376W        W28636  21.868  14.714  10.747
56377W        W28637  28.611  24.515  11.075
56378W        W28638   5.154   1.409   3.302
56379W        W28639  14.197  27.855   2.696
56380W        W28640  31.569  22.132  12.681
56381W        W28641   4.993  34.359  11.919
56382W        W28642  31.098  17.402  12.958
56383W        W28643  26.989  16.084   0.478
56384W        W28644   5.059  15.786   3.652
56385W        W28645  17.372  23.475  13.813
56386W        W28646  38.561  18.061  10.607
56387W        W28647  15.240  23.739   2.875
56388W        W28648  15.859  36.343  13.008
56389W        W28649   1.054  42.951  14.891
56390W        W28650  17.250  42.377  13.999
56391W        W28651  14.091  37.596   0.822
56392W        W28652  32.505   0.524   0.686
56393W        W28653  19.699  17.226   1.406
56394W        W28654   6.473  37.832  11.436
56395W        W28655  36.817  19.097   4.077
56396W        W28656  27.494  41.439   5.080
56397W        W28657  30.179  44.397  13.522
56398W        W28658  35.281  30.437  11.226
56399W        W28659   3.310  23.143  13.338
56400W        W28660  41.531   0.382  14.044
56401W        W28661   1.718  16.226  11.412
56402W        W28662  10.698  42.979  12.714
56403W        W28663  14.090   8.093  11.039
56404W        W28664  23.256   7.858  12.549
56405W        W28665  20.580  15.768   4.072
56406W        W28666  10.307  11.750  13.916
56407W        W28667   8.793  15.711  12.269
56408W        W28668  39.196  38.925   3.271
56409W        W28669  14.048   8.786   3.125
56410W        W28670  32.354  24.779  10.234
56411W        W28671  40.223  26.611  14.575
56412W        W28672   2.244  35.835  11.492
56413W        W28673  19.742  29.075  12.392
56414W        W28674  26.147  15.758   3.954
56415W        W28675  29.671  15.743  13.115
56416W        W28676  25.899  26.471  13.507
56417W        W28677   2.789  20.376   4.125
56418W        W28678  26.948  13.891   2.239
56419W        W28679  16.855  25.223  12.546
56420W        W28680  37.139  13.732   0.784
56421W        W28681  14.698   0.370  14.397
56422W        W28682  39.747   2.276   3.760
56423W        W28683   3.409  30.354   0.623
56424W        W28684  22.215  29.306  13.352
56425W        W28685  32.942  20.666  14.027
56426W        W28686  31.499  22.672   2.339
56427W        W28687  37.763  33.753  13.888
56428W        W28688  42.993  44.355   2.768
56429W        W28689  25.679  29.730   2.794
56430W        W28690  26.457  11.068  11.121
56431W        W28691  32.621  34.932  11.118
56432W        W28692   2.164  43.698   4.010
56433W        W28693  30.150  41.818  13.354
56434W        W28694   0.957  19.115   4.812
56435W        W28695  37.980   4.697   1.914
56436W        W28696  18.953   1.592   3.053
56437W        W28697  12.029  32.999  14.870
56438W        W28698   6.927  39.472  14.615
56439W        W28699  40.535   8.805  12.459
56440W        W28700  38.107  29.584   2.193
56441W        W28701  24.009  11.778   1.321
56442W        W28702   8.624  21.543  10.469
56443W        W28703  20.184  18.721   4.863
56444W        W28704  38.099  33.880  12.989
56445W        W28705  22.008  33.594  14.940
56446W        W28706  35.963  14.276  13.368
56447W        W28707  29.112  44.546  10.604
56448W        W28708  40.953   3.789   3.988
56449W        W28709  40.128  27.159  13.854
56450W        W28710  19.335  24.867   4.185
56451W        W28711  39.795  33.419   0.257
56452W        W28712  16.087  26.572   3.378
56453W        W28713   1.049  13.636   2.698
56454W        W28714  32.431   1.817  13.317
56455W        W28715  30.590   9.378  13.578
56456W        W28716   7.671   3.197  10.826
56457W        W28717  40.386  27.375   3.896
56458W        W28718   6.029   0.434  10.704
56459W        W28719  25.664  23.790  11.293
56460W        W28720   6.415   4.865  14.366
56461W        W28721  33.818  25.487  11.466
56462W        W28722  26.400  30.875  11.114
56463W        W28723   6.963  20.742   3.255
56464W        W28724  21.387  18.574  12.062
56465W        W28725  40.045  40.742   3.247
56466W        W28726  26.963  25.352  14.982
56467W        W28727  16.751   7.696  13.569
56468W        W28728  40.554  42.991  14.766
56469W        W28729  21.661  20.165   1.966
56470W        W28730  16.362  39.713   2.718
56471W        W28731  17.343  16.705   4.306
56472W        W28732   5.903  15.274   1.122
56473W        W28733   2.183  19.800  11.613
56474W        W28734  37.357  15.876   1.534
56475W        W28735  24.353  37.920  12.096
56476W        W28736   3.421  22.409  11.128
56477W        W28737  13.070  30.987   4.403
56478W        W28738  28.254  25.681  12.850
56479W        W28739  41.010  23.996   3.379
56480W        W28740   4.748   9.206   2.152
56481W        W28741   4.976   3.177  14.828
56482W        W28742   1.191  37.002   3.112
56483W        W28743  21.603  14.566  14.465
56484W        W28744  36.731  30.219  10.925
56485W        W28745  17.497  23.607  11.939
56486W        W28746   7.464  23.969   1.296
56487W        W28747  18.567  10.493  13.030
56488W        W28748  34.061   9.077  13.050
56489W        W28749   1.666  38.961   2.779
56490W        W28750  27.433  22.596   2.292
56491W        W28751  10.536   3.720   4.305
56492W        W28752   1.778  33.814   3.644
56493W        W28753   4.287  44.047   1.863
56494W        W28754  34.469  31.546  12.188
56495W        W28755  10.333   2.197  14.853
56496W        W28756  42.584  35.134   2.733
56497W        W28757  31.951   5.487   3.573
56498W        W28758   2.832  29.842   2.595
56499W        W28759  19.057  29.479  13.793
56500W        W28760  20.953  18.716   1.872
56501W        W28761  36.657  26.119   3.716
56502W        W28762  32.596   2.908   0.416
56503W        W28763  22.229  37.820  10.886
56504W        W28764  23.507   2.673   4.235
56505W        W28765  24.081  22.598  14.553
56506W        W28766  10.642  15.309   2.360
56507W        W28767  41.280  24.181  14.435
56508W        W28768  43.536  24.743   1.714
56509W        W28769  34.014  17.153   2.390
56510W        W28770  16.729  21.089  11.115
56511W        W28771  20.497  26.285   3.200
56512W        W28772   2.720  31.712  13.885
56513W        W28773  22.581  34.319  13.466
56514W        W28774  43.383  38.322  14.816
56515W        W28775  34.201  31.156  11.504
56516W        W28776  15.686   2.203   1.918
56517W        W28777  28.978   5.726   1.043
56518W        W28778  11.492  34.049  11.929
56519W        W28779  37.000   8.883   2.642
56520W        W28780  39.887  38.322   2.214
56521W        W28781  17.297  41.366   0.731
56522W        W28782   5.481  30.190   4.109
56523W        W28783  33.066   3.168   0.510
56524W        W28784   6.371  38.292   1.900
56525W        W28785   0.684  32.915  11.497
56526W        W28786  15.626  36.870  11.959
56527W        W28787  29.852  22.191   3.159
56528W        W28788   0.165  29.439  14.991
56529W        W28789  30.435  20.798   4.114
56530W        W28790  13.695  14.413   0.673
56531W        W28791  43.297  42.741  12.610
56532W        W28792  34.712  44.445  13.419
56533W        W28793   3.651  30.524   1.547
56534W        W28794  17.717   7.115  13.564
56535W        W28795   9.829  24.245  11.272
56536W        W28796  13.269   2.918   1.703
56537W        W28797  16.282  16.183  12.551
56538W        W28798  14.253  31.807  14.511
56539W        W28799  44.041   7.339   4.145
56540W        W28800   9.387  10.029  12.992
56541W        W28801  27.467  34.552  11.473
56542W        W28802  16.936  39.684   5.046
56543W        W28803  20.490  17.181  12.080
56544W        W28804   4.663  36.584   4.252
56545W        W28805  24.047  41.744   0.275
56546W        W28806  32.420   3.926   0.372
56547W        W28807  31.891  35.675   3.823
56548W        W28808  33.999  11.317   0.827
56549W        W28809  38.859   5.948   1.777
56550W        W28810   7.610  33.097  11.564
56551W        W28811  20.095  18.110  11.949
56552W        W28812  31.866  44.450   4.103
56553W        W28813  19.000  12.597   1.797
56554W        W28814  15.563  21.113   3.192
56555W        W28815  34.063  15.179  10.305
56556W        W28816   3.804  36.839   4.237
56557W        W28817   2.369   7.993   2.569
56558W        W28818   8.645   0.373  11.353
56559W        W28819  28.027  26.933   4.380
56560W        W28820  10.822  21.889  14.473
56561W        W28821  41.452  18.304  10.773
56562W        W28822  42.684  23.237  10.636
56563W        W28823  28.505  37.735   0.052
56564W        W28824  43.355  36.458  11.232
56565W        W28825  11.703  44.892   0.205
56566W        W28826  30.202  10.901  10.978
56567W        W28827  11.686   1.311  13.847
56568W        W28828  35.794  36.644  14.404
56569W        W28829  39.470  28.415   2.903
56570W        W28830   0.800  28.080   1.245
56571W        W28831  32.454  11.731  11.317
56572W        W28832  44.664  44.091  11.240
56573W        W28833  30.584   7.326  14.840
56574W        W28834  22.099  22.707   2.758
56575W        W28835  20.291   5.409  10.563
56576W        W28836  14.669  35.378   1.491
56577W        W28837  10.938  29.360  13.438
56578W        W28838  14.015  39.977  11.973
56579W        W28839   0.781  33.825  13.001
56580W        W28840   4.692  24.645  13.356
56581W        W28841  31.598  14.367  14.764
56582W        W28842  37.159  17.015   3.250
56583W        W28843  40.797   0.013   4.387
56584W        W28844  44.577  13.727   4.337
56585W        W28845  20.543  35.873   3.903
56586W        W28846   9.464  28.495  10.753
56587W        W28847  27.945  14.270   1.420
56588W        W28848  44.817   6.910  12.826
56589W        W28849   8.310  17.341  13.687
56590W        W28850   8.625   8.868  14.942
56591W        W28851  29.053   1.552  11.729
56592W        W28852  37.883  43.198   3.788
56593W        W28853   7.115  17.330  12.497
56594W        W28854  27.105  26.925   4.914
56595W        W28855   4.122  25.962  12.483
56596W        W28856  16.805  31.453  14.326
56597W        W28857   7.146   3.886  13.396
56598W        W28858  28.637  10.701  12.851
56599W        W28859  21.511  44.251  11.451
56600W        W28860  42.397  30.006   4.260
56601W        W28861  21.582  10.625   4.596
56602W        W28862   0.856  18.630   4.506
56603W        W28863  24.592  32.946  14.818
56604W        W28864  29.126  44.012  10.673
56605W        W28865  12.554  17.264   0.410
56606W        W28866   8.178  11.084   0.827
56607W        W28867  22.295  17.035  13.853
56608W        W28868   3.605   9.272   1.086
56609W        W28869  25.845  17.526   1.374
56610W        W28870  44.430  11.080   1.942
56611W        W28871  24.153  20.037  14.709
56612W        W28872   6.095  43.837   0.299
56613W        W28873  35.856  14.652  11.981
56614W        W28874   2.227  11.378  13.739
56615W        W28875   0.893  43.213   4.553
56616W        W28876  28.457  40.702  10.432
56617W        W28877  25.581  35.136   1.786
56618W        W28878  26.389   2.339   4.194
56619W        W28879  38.857   7.254   5.468
56620W        W28880  41.852  12.591  14.398
56621W        W28881  11.025   2.905   3.254
56622W        W28882   5.141  32.169   4.218
56623W        W28883  14.557  22.484   2.680
56624W        W28884   0.244  18.199  13.369
56625W        W28885  31.099  34.868   2.827
56626W        W28886  42.593  25.739   4.169
56627W        W28887  16.326  39.943  11.578
56628W        W28888  42.032  36.489  14.955
56629W        W28889  12.408  24.018   0.491
56630W        W28890  28.933  23.417   4.036
56631W        W28891  18.100  25.425  11.995
56632W        W28892  15.391  39.887  13.321
56633W        W28893   5.899   4.845   3.215
56634W        W28894  39.614  24.296  13.271
56635W        W28895  42.761  32.091  11.559
56636W        W28896  14.868   5.733   2.982
56637W        W28897  38.018  20.209   4.788
56638W        W28898  44.311   2.337   1.458
56639W        W28899  37.428  29.996   4.058
56640W        W28900  42.379  38.363  11.835
56641W        W28901  22.501  11.544  11.766
56642W        W28902  24.062  19.087  10.389
56643W        W28903  27.591  36.390   0.542
56644W        W28904  38.229   0.443   0.317
56645W        W28905   6.374  30.662   0.713
56646W        W28906  42.363  39.528   4.592
56647W        W28907   0.789   8.837  13.610
56648W        W28908  16.287  36.868   2.388
56649W        W28909  35.246  33.571   2.221
56650W        W28910  13.709   7.787   3.270
56651W        W28911  40.917  23.806   4.434
56652W        W28912  21.303  11.832  10.546
56653W        W28913   9.379   5.762   2.778
56654W        W28914  39.022  26.133  10.548
56655W        W28915  43.858  21.120  14.896
56656W        W28916  11.112   8.623  13.048
56657W        W28917   4.265  26.857  10.595
56658W        W28918  42.794  21.093   2.323
56659W        W28919   0.627  19.504   3.389
56660W        W28920  26.155  16.758  14.384
56661W        W28921  30.177  32.191   5.726
56662W        W28922  11.302  40.588   0.752
56663W        W28923  10.156  15.853  12.836
56664W        W28924  26.396  42.298  10.430
56665W        W28925  40.164  29.986   3.767
56666W        W28926  30.019  44.787   3.319
56667W        W28927  17.532  23.469  12.621
56668W        W28928  41.845  12.354   4.194
56669W        W28929   4.185   6.259   2.987
56670W        W28930  28.945  42.208   0.438
56671W        W28931  35.141  12.264   4.064
56672W        W28932  26.872  31.573  11.640
56673W        W28933  23.979  19.029   1.196
56674W        W28934  44.502  16.471   3.277
56675W        W28935  42.236  26.771  13.496
56676W        W28936  37.778  38.810  11.258
56677W        W28937  27.225  31.855   4.542
56678W        W28938  40.256  33.045  11.015
56679W        W28939  11.315  36.098  11.035
56680W        W28940   1.000  32.550  11.643
56681W        W28941  22.040  34.752   3.204
56682W        W28942  11.024  28.708  12.577
56683W        W28943  25.411   2.634   3.581
56684W        W28944  36.648  32.171  12.172
56685W        W28945  39.772   2.295   2.346
56686W        W28946  34.135   0.984  10.098
56687W        W28947  23.192  16.602  13.764
56688W        W28948  19.152  34.700   4.462
56689W        W28949  23.614   7.746  14.002
56690W        W28950  25.153  37.372   4.128
56691W        W28951  43.769  37.089  12.983
56692W        W28952  11.251   3.367   0.877
56693W        W28953   7.357  36.118  11.121
56694W        W28954   8.441  21.189   1.635
56695W        W28955  25.154   1.762   3.848
56696W        W28956   9.559   3.953   2.814
56697W        W28957  30.008  43.404   2.109
56698W        W28958  24.045   2.686   4.282
56699W        W28959  22.340  43.958   0.537
56700W        W28960  21.265   2.318  11.121
56701W        W28961  38.296  20.760  12.456
56702W        W28962  31.361   7.314   0.396
56703W        W28963   7.893  24.689  13.563
56704W        W28964  24.474   8.397   2.330
56705W        W28965  36.087  10.704   1.844
56706W        W28966   8.110  37.948  12.058
56707W        W28967  40.073  11.732   2.074
56708W        W28968   1.688  14.723   1.836
56709W        W28969  12.575  10.701  11.822
56710W        W28970  36.629  35.164  13.566
56711W        W28971   8.868  20.896  13.053
56712W        W28972  15.740   3.608   3.384
56713W        W28973  25.110   3.505   2.034
56714W        W28974  21.544  43.730   4.531
56715W        W28975   9.849  39.779  14.765
56716W        W28976   3.207  36.967   4.553
56717W        W28977  27.151   2.762   1.911
56718W        W28978  16.169  31.530  11.447
56719W        W28979   9.759   3.356   4.844
56720W        W28980  11.949  27.266  10.801
56721W        W28981  28.547  20.213   4.451
56722W        W28982   6.918  27.524   3.290
56723W        W28983  35.553  24.560   4.424
56724W        W28984  14.372  14.531   3.783
56725W        W28985  42.430  43.497   4.580
56726W        W28986  16.602  34.879  13.403
56727W        W28987  14.725  24.009   4.933
56728W        W28988  40.401  44.801   4.095
56729W        W28989   2.671  34.889  12.901
56730W        W28990  31.951  42.259  12.142
56731W        W28991  11.529  27.706  14.503
56732W        W28992  28.406  18.825  11.824
56733W        W28993  18.228  38.990  11.628
56734W        W28994  33.695  35.981   0.571
56735W        W28995  32.927   4.511   4.164
56736W        W28996  14.704  24.906   0.790
56737W        W28997  32.731   2.855  12.547
56738W        W28998   3.511  16.847   5.062
56739W        W28999   3.437  38.008  11.122
56740W        W29000   9.299   6.676   2.872
56741W        W29001  18.572  44.453   1.146
56742W        W29002  30.689   2.182   1.463
56743W        W29003  43.956   1.770  13.751
56744W        W29004  17.281  20.849   4.923
56745W        W29005   5.135  29.074  13.030
56746W        W29006   5.175  22.335  10.434
56747W        W29007  38.224  37.485   0.716
56748W        W29008  34.158  41.786  12.332
56749W        W29009  30.164  34.295  14.847
56750W        W29010  39.921   2.985   1.937
56751W        W29011  16.084  34.030  14.824
56752W        W29012  21.718  40.179   1.916
56753W        W29013  36.407   0.902   1.311
56754W        W29014  30.613  43.944   1.182
56755W        W29015  12.257   1.835  14.306
56756W        W29016  30.835  36.063   1.612
56757W        W29017  18.700  12.064  13.851
56758W        W29018  38.448  39.626   2.397
56759W        W29019   6.439  13.576  12.344
56760W        W29020   6.517  19.181  14.465
56761W        W29021  35.874  14.722   2.865
56762W        W29022  33.431  43.833   2.590
56763W        W29023  42.364  41.714   0.212
56764W        W29024   5.208  25.645  10.936
56765W        W29025  42.027  40.344   0.573
56766W        W29026   6.903  11.825   1.720
56767W        W29027   3.283  36.413   2.171
56768W        W29028  35.877  20.626   1.306
56769W        W29029  21.472  28.940  13.309
56770W        W29030  21.716  25.137   2.080
56771W        W29031  30.113  17.783  11.957
56772W        W29032  31.384   9.842  13.353
56773W        W29033  44.978  16.808  10.767
56774W        W29034  33.520   8.313   3.618
56775W        W29035  20.544   8.826  14.400
56776W        W29036  37.669  37.577   4.634
56777W        W29037  18.111  31.430   4.794
56778W        W29038  36.402  19.138   0.018
56779W        W29039  22.969   3.084  10.314
56780W        W29040  17.656  15.232  14.042
56781W        W29041  13.524   2.983  14.359
56782W        W29042  29.468  20.600  13.942
56783W        W29043  14.150  36.551  11.948
56784W        W29044  38.124   5.504   4.708
56785W        W29045   8.166  32.468  11.074
56786W        W29046  26.476   1.089  13.311
56787W        W29047  34.951  29.389  10.426
56788W        W29048  16.785  31.834  12.933
56789W        W29049  30.021   7.458  10.663
56790W        W29050  31.436   0.417   0.757
56791W        W29051  11.655  27.688  10.871
56792W        W29052  43.334  21.948   4.546
56793W        W29053  42.336  28.927  11.176
56794W        W29054  31.421  14.838  13.442
56795W        W29055  41.037   1.792  14.662
56796W        W29056   4.948  38.207  11.478
56797W        W29057  29.015  14.260  13.289
56798W        W29058  26.505   5.810  12.587
56799W        W29059   5.117  20.217  14.987
56800W        W29060  13.189  17.750   1.754
56801W        W29061   4.663  25.322   0.740
56802W        W29062  25.989   8.167  14.968
56803W        W29063  32.741  10.488  11.079
56804W        W29064  26.125   4.472  10.633
56805W        W29065  15.511  21.719  14.527
56806W        W29066  16.746  30.108  14.243
56807W        W29067  42.974  16.704  11.548
56808W        W29068  16.019  44.279  12.688
56809W        W29069  38.419  17.295   0.906
56810W        W29070   8.936   5.422  11.121
56811W        W29071  42.742   8.818   0.780
56812W        W29072   2.157   3.373  11.096
56813W        W29073   1.418  42.367   4.689
56814W        W29074  27.542  26.675  11.553
56815W        W29075  30.081   6.778   4.198
56816W        W29076  19.547  28.565  11.638
56817W        W29077  29.114  42.253  14.932
56818W        W29078   5.863  28.197  14.355
56819W        W29079  39.093  17.210   5.059
56820W        W29080   0.495  10.242   0.488
56821W        W29081   7.342  20.838   0.954
56822W        W29082  12.301  31.538   1.851
56823W        W29083  14.324  29.424   4.516
56824W        W29084   3.272   0.296   3.592
56825W        W29085  32.992  33.575   3.681
56826W        W29086  38.855   6.915  14.355
56827W        W29087  39.469  12.381  11.629
56828W        W29088  28.478  31.560  11.440
56829W        W29089  39.103  11.680   3.304
56830W        W29090  26.579  17.107   1.500
56831W        W29091   2.302   9.938  13.948
56832W        W29092  10.212  24.906   5.119
56833W        W29093  19.575  36.238   4.251
56834W        W29094   9.028   6.716  12.329
56835W        W29095  41.775  12.674  10.291
56836W        W29096   6.517  36.474  14.152
56837W        W29097  20.688  40.090   1.734
56838W        W29098  23.121   4.697   0.915
56839W        W29099  37.514   5.970   0.949
56840W        W29100  42.852  10.101  14.351
56841W        W29101   1.165   2.357  14.464
56842W        W29102  35.130   4.464   2.821
56843W        W29103  10.540   3.831  11.519
56844W        W29104   0.123  33.847  12.497
56845W        W29105   7.892  40.804   0.263
56846W        W29106   4.466  28.609   4.037
56847W        W29107  34.051  21.962  10.687
56848W        W29108  41.308  11.939   3.834
56849W        W29109  44.482   0.612  11.541
56850W        W29110  21.634  33.901   1.282
56851W        W29111  30.182  22.063  10.589
56852W        W29112  44.347  29.864   0.324
56853W        W29113  25.842   3.778   2.180
56854W        W29114  34.843  39.080  10.171
56855W        W29115  23.123  39.458  13.438
56856W        W29116   0.206  31.013   0.870
56857W        W29117  14.547  25.681  13.927
56858W        W29118   6.795  33.131  14.741
56859W        W29119  28.191  31.548  14.244
56860W        W29120  30.103  15.742  12.773
56861W        W29121  24.081  21.664   3.739
56862W        W29122   3.396  35.361  14.477
56863W        W29123   3.399   6.290   5.121
56864W        W29124  31.980   3.642   0.336
56865W        W29125  41.061  24.951   0.878
56866W        W29126  19.285  44.053  10.702
56867W        W29127  31.767  41.007  11.572
56868W        W29128  23.084   9.347   4.077
56869W        W29129   9.785   1.722  13.914
56870W        W29130  31.450  31.119  10.664
56871W        W29131  24.616   7.203   3.170
56872W        W29132  28.558  26.281  11.127
56873W        W29133  19.196  43.304   3.721
56874W        W29134   5.422  18.362   1.179
56875W        W29135  14.754   3.708   1.121
56876W        W29136  36.905  22.532   3.262
56877W        W29137  35.112  44.291   0.642
56878W        W29138   4.301  29.900   1.367
56879W        W29139  21.211   0.837   3.170
56880W        W29140  25.141  38.925   2.688
56881W        W29141   8.399  18.693  11.572
56882W        W29142  42.319   1.119  12.897
56883W        W29143  22.478  20.958  13.499
56884W        W29144   6.317  17.181   2.760
56885W        W29145  32.358  11.936  14.312
56886W        W29146  38.811   8.204   2.809
56887W        W29147   3.991  28.513   3.261
56888W        W29148  15.499  10.112  12.407
56889W        W29149   6.017  42.431   0.269
56890W        W29150  42.711  24.649   4.847
56891W        W29151  22.696  42.084  12.198
56892W        W29152  16.109  42.082  11.035
56893W        W29153   6.044  43.758   4.041
56894W        W29154  26.487  40.968  11.480
56895W        W29155  28.704   6.476   4.131
56896W        W29156  29.426  31.039  14.571
56897W        W29157  31.482  29.619   2.787
56898W        W29158  43.964  41.808  12.459
56899W        W29159  23.956  26.055  14.388
56900W        W29160  39.938   1.171  13.555
56901W        W29161  10.116  25.160  12.454
56902W        W29162  43.763  25.019  13.467
56903W        W29163  38.864  20.340   4.072
56904W        W29164  16.794   9.757   0.289
56905W        W29165  25.696  30.574   2.693
56906W        W29166  17.104  13.619  10.566
56907W        W29167  34.395  13.867  10.684
56908W        W29168  44.051  28.697   2.707
56909W        W29169  20.600  17.880  12.463
56910W        W29170  35.815  27.946  14.336
56911W        W29171  38.097   7.953   5.129
56912W        W29172  37.271   7.378   1.742
56913W        W29173  17.239  13.211  12.950
56914W        W29174  27.095   0.577   2.671
56915W        W29175   0.958  12.297   4.509
56916W        W29176  20.119   2.202  10.586
56917W        W29177   0.130   6.559  14.461
56918W        W29178  17.595   5.308  10.776
56919W        W29179  16.740   3.764   0.435
56920W        W29180  25.050  23.738   2.366
56921W        W29181  19.253  12.834  11.554
56922W        W29182  15.633  19.804  12.431
56923W        W29183  26.151  29.698   1.182
56924W        W29184  27.053  15.283  10.445
56925W        W29185   9.017  42.707  14.457
56926W        W29186  15.279  27.413  14.071
56927W        W29187  21.380  28.867  11.570
56928W        W29188  27.980  44.392  12.883
56929W        W29189  37.043  39.048  13.881
56930W        W29190  40.902  37.579  14.790
56931W        W29191   3.150  34.545   1.986
56932W        W29192   3.392   8.268  12.608
56933W        W29193  29.456   9.161   0.238
56934W        W29194  42.779  38.938   3.825
56935W        W29195  17.801  24.975  12.522
56936W        W29196  10.273  36.800   1.275
56937W        W29197  20.618  26.538   2.745
56938W        W29198  12.414  21.292   0.907
56939W        W29199  20.848   5.816  11.945
56940W        W29200  27.946  21.637   3.270
56941W        W29201  32.076  42.502  12.574
56942W        W29202  24.438   3.938   0.976
56943W        W29203   0.870   4.490   4.640
56944W        W29204  38.574  12.220  14.845
56945W        W29205   9.103  39.848  12.094
56946W        W29206  32.518   2.564  12.910
56947W        W29207  24.886  43.634  11.165
56948W        W29208  16.796   9.047  12.585
56949W        W29209  17.755  17.189   4.967
56950W        W29210  33.687  13.082  10.693
56951W        W29211  40.337   8.914   0.500
56952W        W29212  41.442  39.487  13.641
56953W        W29213  42.201  27.046  12.459
56954W        W29214  32.364  41.366   3.711
56955W        W29215  11.728   2.881   4.825
56956W        W29216  24.771  10.930   2.217
56957W        W29217  33.175  22.476   4.609
56958W        W29218  30.526  12.915  14.320
56959W        W29219  26.642   3.156   4.562
56960W        W29220   9.983  11.114  10.225
56961W        W29221  25.995  36.899  14.939
56962W        W29222   3.454   1.845  11.837
56963W        W29223  33.695   1.262  10.158
56964W        W29224   7.023  16.160   2.418
56965W        W29225   7.844  19.511   0.940
56966W        W29226  44.464  17.301  13.964
56967W        W29227   4.075   1.351   3.659
56968W        W29228  34.513   7.733  10.984
56969W        W29229  14.279  30.569   4.088
56970W        W29230  31.054  29.354  10.574
56971W        W29231  25.932  42.282  11.913
56972W        W29232  32.152  43.905  13.388
56973W        W29233  27.895   5.170   1.937
56974W        W29234  20.076  11.088  14.377
56975W        W29235  39.327  39.584   4.533
56976W        W29236   7.847  20.693   3.768
56977W        W29237  10.072   5.755  12.065
56978W        W29238   0.917  13.780  12.415
56979W        W29239   0.432  25.096  10.966
56980W        W29240   0.033  15.290  14.418
56981W        W29241  32.564  10.707   1.389
56982W        W29242  20.806  11.668   2.255
56983W        W29243  37.399  11.082   4.169
56984W        W29244   1.221  43.714  12.621
56985W        W29245   5.803   7.641  14.262
56986W        W29246  16.531  38.486  11.512
56987W        W29247  32.013  40.571  10.598
56988W        W29248  30.068  39.827   4.547
56989W        W29249   6.393  41.466  11.910
56990W        W29250  37.615  34.006  12.098
56991W        W29251  17.077   3.840  10.420
56992W        W29252  15.305  32.344  11.507
56993W        W29253   5.721  22.159   3.900
56994W        W29254   9.318  31.881   1.644
56995W        W29255  24.284  26.004  11.518
56996W        W29256  26.598  34.606  11.910
56997W        W29257  18.052  20.733  12.086
56998W        W29258  18.550  16.573   0.846
56999W        W29259   7.493   9.064  11.521
57000W        W29260   2.274  44.817   3.808
57001W        W29261  44.035  29.462  12.421
57002W        W29262  32.754  24.631   4.690
57003W        W29263  40.711  23.416  13.511
57004W        W29264  42.440   4.285   3.689
57005W        W29265  16.515   7.185   5.030
57006W        W29266  20.614   0.962  10.921
57007W        W29267   8.178  38.499  13.294
57008W        W29268   9.787   4.470  11.598
57009W        W29269  40.294   5.851   1.875
57010W        W29270  18.357  20.294  12.467
57011W        W29271   4.957  18.407  12.969
57012W        W29272  21.673  30.623   4.135
57013W        W29273  44.744  32.026   0.923
57014W        W29274  16.299  37.508   2.765
57015W        W29275   4.692   3.877   2.887
57016W        W29276  36.429   2.000   3.682
57017W        W29277  37.123  41.450  14.226
57018W        W29278  30.102  21.806  14.221
57019W        W29279  16.770  40.687   0.860
57020W        W29280  40.954   6.704   3.824
57021W        W29281  33.650   4.825  10.252
57022W        W29282  29.334   9.871   2.694
57023W        W29283  43.384   7.698   1.911
57024W        W29284  29.974  10.624   3.651
57025W        W29285  42.809  25.950   3.767
57026W        W29286  41.003  43.846   1.994
57027W        W29287   7.748  39.536   0.935
57028W        W29288  20.636  17.612   3.677
57029W        W29289  43.696  15.827  12.752
57030W        W29290  35.659  14.246   2.785
57031W        W29291  24.136   1.062  11.144
57032W        W29292  30.624  30.355   0.360
57033W        W29293  38.113  32.527  12.897
57034W        W29294  43.019  16.658  12.455
57035W        W29295   9.402  41.139  12.560
57036W        W29296  41.848  34.278   4.601
57037W        W29297   8.588  39.807  11.278
57038W        W29298   6.380  36.861  12.870
57039W        W29299  13.764  23.482  14.792
57040W        W29300  10.911  30.535  11.105
57041W        W29301   7.465  26.635   4.561
57042W        W29302   2.847  32.009   3.400
57043W        W29303   3.427   0.835   1.660
57044W        W29304  12.783  44.245  10.678
57045W        W29305  35.535  25.159   0.600
57046W        W29306  35.508   1.859   3.164
57047W        W29307  34.811  28.999   4.076
57048W        W29308  31.578   1.966   0.637
57049W        W29309  27.187  42.076   0.990
57050W        W29310  27.410  38.970   3.186
57051W        W29311  13.235  23.998  10.772
57052W        W29312  36.474   0.414  11.696
57053W        W29313  20.367  39.863  10.651
57054W        W29314  22.751   0.045  10.675
57055W        W29315  37.953   9.911  10.497
57056W        W29316  42.390  23.975  13.642
57057W        W29317   2.910  28.063  12.045
57058W        W29318  42.360  22.533   1.814
57059W        W29319   3.060  39.429  14.999
57060W        W29320  18.819  35.678  10.042
57061W        W29321   8.699  18.058  11.179
57062W        W29322  15.437  43.034   5.192
57063W        W29323  34.010   1.401   0.738
57064W        W29324  32.437  32.456  14.745
57065W        W29325   2.317  35.420  10.646
57066W        W29326   1.582  18.828  13.250
57067W        W29327  23.693  24.671   1.602
57068W        W29328  42.022   1.656   4.281
57069W        W29329   5.214  36.452  14.354
57070W        W29330  20.829  44.101   1.439
57071W        W29331   9.296  33.925  13.000
57072W        W29332  37.693  20.656  11.126
57073W        W29333  41.535  42.559   0.900
57074W        W29334  18.641   2.335   0.798
57075W        W29335  20.880  10.747   1.496
57076W        W29336  16.184   2.700  13.925
57077W        W29337   9.277  23.524   1.673
57078W        W29338  29.448  31.618   4.122
57079W        W29339  22.052   7.221   0.503
57080W        W29340   3.190  42.002   4.993
57081W        W29341   8.381  14.799   0.419
57082W        W29342   6.917  39.001  11.937
57083W        W29343  15.772   4.764   4.645
57084W        W29344  42.509  12.779  10.494
57085W        W29345  32.618  10.961  14.385
57086W        W29346  43.501  41.242  11.160
57087W        W29347  11.649   7.387   3.059
57088W        W29348  15.777  21.572  11.095
57089W        W29349  44.488  42.393   1.992
57090W        W29350  26.072  19.143  14.355
57091W        W29351  39.522  36.614   3.550
57092W        W29352  30.462  38.899   2.589
57093W        W29353  18.398  15.488  12.466
57094W        W29354  35.805  27.583   2.271
57095W        W29355  19.815   3.239   1.707
57096W        W29356   2.377  35.170  13.225
57097W        W29357  32.697  35.910   4.956
57098W        W29358  20.316  10.903   4.157
57099W        W29359  39.485  28.051  12.458
57100W        W29360   8.420  18.828  14.329
57101W        W29361  19.270  16.355  12.913
57102W        W29362  41.910  40.018  13.871
57103W        W29363  24.926  39.558   2.181
57104W        W29364  28.652  24.501  13.620
57105W        W29365   6.353   7.562  14.577
57106W        W29366  14.155  12.088  10.667
57107W        W29367  11.680  20.591  11.342
57108W        W29368  41.904  27.194  14.766
57109W        W29369  42.064  43.308  14.914
57110W        W29370  13.872  37.860   0.022
57111W        W29371  44.386  33.173   4.667
57112W        W29372  21.945   0.822  14.496
57113W        W29373  15.051  16.091   2.857
57114W        W29374  27.716   1.400  13.516
57115W        W29375  22.116  25.024   0.624
57116W        W29376  10.410   8.333   2.782
57117W        W29377  20.064   5.698   1.826
57118W        W29378  18.303  21.668  13.945
57119W        W29379   9.372  18.135   0.902
57120W        W29380  18.078  44.375   0.979
57121W        W29381  13.551  18.990   3.188
57122W        W29382  31.444  18.097  12.397
57123W        W29383  39.617  32.855   1.619
57124W        W29384   9.561   2.782  14.924
57125W        W29385  40.417  12.635   1.028
57126W        W29386  28.132  18.061  12.596
57127W        W29387  37.104   2.377   3.291
57128W        W29388  14.099  18.210  14.319
57129W        W29389  39.455   5.225   3.077
57130W        W29390  12.778  37.949   1.345
57131W        W29391   2.224   5.861  12.425
57132W        W29392  13.388  37.049  14.126
57133W        W29393  16.719  38.439   4.120
57134W        W29394   8.251  24.637  11.182
57135W        W29395  24.998   7.576  13.761
57136W        W29396   8.391  37.642   3.798
57137W        W29397  15.497  20.603   3.182
57138W        W29398  36.329  41.841   2.959
57139W        W29399  12.600  17.847  11.038
57140W        W29400   6.353  34.254   4.204
57141W        W29401  37.938  31.856  14.833
57142W        W29402   6.392  24.252  11.972
57143W        W29403  41.873  24.810   3.711
57144W        W29404   0.518   9.711  11.546
57145W        W29405  21.221  38.643  12.218
57146W        W29406   8.913   7.681   2.250
57147W        W29407  22.730  21.881   5.050
57148W        W29408   8.207  37.586   3.335
57149W        W29409  29.665   1.738   2.223
57150W        W29410   6.666  40.000  12.577
57151W        W29411   9.308  16.282  13.231
57152W        W29412  36.178   8.128   3.601
57153W        W29413  40.348  19.760   1.507
57154W        W29414  18.897  37.579   1.981
57155W        W29415   5.659  37.124   3.322
57156W        W29416  10.258  32.880   1.961
57157W        W29417   6.203  18.627  13.445
57158W        W29418  12.800  44.508   3.124
57159W        W29419   1.371   3.753  11.250
57160W        W29420   1.848  26.780  10.536
57161W        W29421  20.974   3.854  13.466
57162W        W29422  15.588  42.256   4.109
57163W        W29423  27.190  20.656   4.320
57164W        W29424  18.156   8.201  10.646
57165W        W29425  32.977  44.210   3.102
57166W        W29426   2.732  39.900  10.363
57167W        W29427  38.798  21.659  10.770
57168W        W29428  10.771  21.159  13.341
57169W        W29429  13.927  42.465  14.671
57170W        W29430  14.931  44.178   4.094
57171W        W29431  20.158   9.941   0.485
57172W        W29432  17.207   1.202   4.557
57173W        W29433  15.151  13.163   4.109
57174W        W29434  17.039  30.426   9.970
57175W        W29435   2.813  21.118   3.496
57176W        W29436  24.555  25.493   3.742
57177W        W29437  10.308  30.397  12.916
57178W        W29438  26.206  32.067  13.320
57179W        W29439  29.809  42.976   4.496
57180W        W29440   8.741  30.145  10.747
57181W        W29441  33.357   1.815   3.106
57182W        W29442   5.909  19.065   0.747
57183W        W29443  25.651  24.777   3.646
57184W        W29444  26.925   4.718   4.506
57185W        W29445  17.983  32.634  14.847
57186W        W29446  10.800  20.484   1.112
57187W        W29447  13.930  36.945   1.225
57188W        W29448  42.010  21.430   3.351
57189W        W29449   4.667  27.356   1.961
57190W        W29450  39.834   6.142   3.240
57191W        W29451  25.445  11.303  11.588
57192W        W29452   8.226   9.184  14.982
57193W        W29453  11.790   9.888  13.738
57194W        W29454  32.072  38.900   2.919
57195W        W29455  20.881  28.632  13.376
57196W        W29456  18.316  31.647   3.572
57197W        W29457   6.694  44.143  11.153
57198W        W29458  30.080   5.467  12.564
57199W        W29459  32.462   6.768  14.857
57200W        W29460  13.825  44.494   4.184
57201W        W29461  26.541  18.283   3.367
57202W        W29462   4.668  42.453   0.051
57203W        W29463  38.840  25.078  14.376
57204W        W29464  23.681  22.727   4.076
57205W        W29465  33.853  23.647  11.584
57206W        W29466  13.972  32.993  11.481
57207W        W29467   2.690  15.849  11.260
57208W        W29468  42.984  15.749   1.631
57209W        W29469  41.738   9.450  10.342
57210W        W29470   0.396  24.813  12.093
57211W        W29471  17.470  43.512   4.758
57212W        W29472  31.857   7.372  13.091
57213W        W29473   2.198  43.847  12.946
57214W        W29474  37.671  23.245  14.222
57215W        W29475   8.439   4.058   1.363
57216W        W29476  24.831  41.551   3.717
57217W        W29477  20.150  31.067   0.777
57218W        W29478  29.163  19.732  14.330
57219W        W29479  26.456  42.974  13.513
57220W        W29480   9.393  30.642  12.521
57221W        W29481  43.771  15.133  13.551
57222W        W29482   7.056  27.666   5.055
57223W        W29483  16.209   5.194   4.553
57224W        W29484  44.908  16.834  13.516
57225W        W29485  32.910  17.129  10.750
57226W        W29486  35.728  10.091   2.546
57227W        W29487  38.608  23.585  14.335
57228W        W29488  20.387  26.737  11.242
57229W        W29489   9.470  44.294   1.918
57230W        W29490  20.425  16.705   1.216
57231W        W29491  11.359  14.754  11.401
57232W        W29492  30.741   1.425   1.314
57233W        W29493  22.612   3.491   0.704
57234W        W29494  21.039   7.103   3.388
57235W        W29495  31.847  37.802  12.461
57236W        W29496   9.317   2.424  11.900
57237W        W29497  26.570  28.214   3.744
57238W        W29498  20.094  32.987  12.513
57239W        W29499  16.650  16.698   3.702
57240W        W29500  24.939  42.496  12.172
57241W        W29501  22.557   5.286   3.378
57242W        W29502  13.274   7.789   4.674
57243W        W29503  42.337  28.107   4.847
57244W        W29504  42.757  42.531   2.664
57245W        W29505  24.692  42.852  10.781
57246W        W29506  14.295  36.439  13.343
57247W        W29507  37.584   1.788   0.582
57248W        W29508  33.481  14.410   0.414
57249W        W29509  36.776  31.656   2.829
57250W        W29510  33.550  11.630  13.488
57251W        W29511  30.942   4.805  10.946
57252W        W29512   0.477   2.478  14.889
57253W        W29513  23.744   0.362   2.750
57254W        W29514  17.637  10.559   0.841
57255W        W29515  29.955  20.583  13.740
57256W        W29516  16.714   8.747   3.195
57257W        W29517  22.671   9.944  14.359
57258W        W29518  20.056   4.451   0.727
57259W        W29519   0.019  30.064  12.928
57260W        W29520  41.050   9.594   0.676
57261W        W29521  26.460  40.459  11.495
57262W        W29522  21.585  24.969  10.690
57263W        W29523  26.910  11.517   4.152
57264W        W29524  14.767  30.977   1.853
57265W        W29525  15.274  15.786   0.230
57266W        W29526  25.749  25.713  12.061
57267W        W29527  10.960   0.785  12.918
57268W        W29528  18.091  16.396   1.277
57269W        W29529  36.367  15.540   9.907
57270W        W29530  30.633  21.224  13.790
57271W        W29531  23.804  36.481  11.930
57272W        W29532  29.648   8.100   0.961
57273W        W29533  37.308  23.573  14.937
57274W        W29534   9.163  42.002  11.594
57275W        W29535  15.265  27.269   3.347
57276W        W29536  38.920  44.951  10.980
57277W        W29537  18.353  18.233  14.022
57278W        W29538  39.922  33.536   2.014
57279W        W29539  35.270   5.264   3.208
57280W        W29540  41.737  17.825   1.860
57281W        W29541   1.752   0.341  14.072
57282W        W29542  26.821   0.725   0.420
57283W        W29543  23.960  23.160  11.816
57284W        W29544  40.928  26.193  13.045
57285W        W29545  15.260  41.407   0.468
57286W        W29546  23.975  37.957   4.627
57287W        W29547  11.243  18.223  12.085
57288W        W29548  41.370  36.282  13.814
57289W        W29549  37.970   1.874   3.235
57290W        W29550  24.688  43.783   3.716
57291W        W29551   0.490  18.686   3.208
57292W        W29552  36.278  30.163   2.416
57293W        W29553  12.082  28.519  14.816
57294W        W29554   3.433   0.831  14.645
57295W        W29555  44.334  31.284  11.094
57296W        W29556  25.080  22.190   0.386
57297W        W29557  15.081   6.734  10.634
57298W        W29558  36.126   2.787  12.486
57299W        W29559  31.452  40.132   3.130
57300W        W29560  19.537  41.860   4.076
57301W        W29561   2.910  42.057   1.737
57302W        W29562   6.190   4.767  13.909
57303W        W29563   6.195  44.461  14.164
57304W        W29564  12.330  16.993   1.303
57305W        W29565  21.648  18.240   0.089
57306W        W29566   3.170  32.371   4.604
57307W        W29567  19.591  28.239  13.974
57308W        W29568   8.682  11.807  10.678
57309W        W29569   9.490  15.048  12.404
57310W        W29570  24.285  44.883  14.100
57311W        W29571  17.971  41.946   0.769
57312W        W29572  41.376  25.944  13.050
57313W        W29573  16.592  22.509   3.250
57314W        W29574   3.798  29.395   3.279
57315W        W29575  20.712  14.735   2.488
57316W        W29576   3.794  25.019   2.562
57317W        W29577  30.027  41.239   4.601
57318W        W29578  44.761  30.964  13.532
57319W        W29579  22.170  12.196  12.399
57320W        W29580  13.090   0.417   0.309
57321W        W29581  30.490  41.870  14.875
57322W        W29582  34.327  14.999  13.529
57323W        W29583   2.406  38.525   4.849
57324W        W29584   1.211  23.264  11.604
57325W        W29585  29.124  22.535   1.470
57326W        W29586  32.911   1.777   1.475
57327W        W29587  22.098  15.334  13.562
57328W        W29588  36.870  43.577   3.275
57329W        W29589  24.124   5.031   1.629
57330W        W29590  19.536   9.258   4.732
57331W        W29591  34.357   1.030  13.440
57332W        W29592  23.587  35.610  11.617
57333W        W29593   3.778  20.300   4.091
57334W        W29594  42.634  36.548  12.100
57335W        W29595  42.932   3.947  13.402
57336W        W29596  42.906  33.808   0.758
57337W        W29597  42.938  17.330   2.499
57338W        W29598   5.195  26.945  10.393
57339W        W29599   4.329   7.320  10.476
57340W        W29600  30.139   2.288  14.269
57341W        W29601  26.966  41.802  13.434
57342W        W29602  13.573  18.289   0.495
57343W        W29603  39.706  30.455   0.042
57344W        W29604  28.228  16.772   0.910
57345W        W29605  25.881  42.901   4.713
57346W        W29606  17.293  42.771   3.610
57347W        W29607  37.792  41.011   0.248
57348W        W29608  44.325  18.433   3.140
57349W        W29609  26.569   3.292  11.058
57350W        W29610  43.072  10.295  13.893
57351W        W29611  28.087  42.841   4.109
57352W        W29612  14.301  38.050   4.632
57353W        W29613  33.681  33.101  11.589
57354W        W29614  40.936  30.937   2.991
57355W        W29615  21.112  35.406  12.504
57356W        W29616   5.378  22.198  10.889
57357W        W29617  38.328   8.501  13.150
57358W        W29618  31.995  14.589   2.707
57359W        W29619   2.450   8.713   0.214
57360W        W29620  15.594  31.937  11.167
57361W        W29621  34.204  41.714   1.385
57362W        W29622   9.891  38.363   1.587
57363W        W29623   6.230  11.608   1.915
57364W        W29624  30.701  13.881  11.097
57365W        W29625   7.093  21.319  13.502
57366W        W29626  19.518  11.446  11.529
57367W        W29627   2.297  29.109  14.882
57368W        W29628  10.323  22.308  12.547
57369W        W29629  12.847  40.268   4.157
57370W        W29630  20.685  39.433   4.770
57371W        W29631  39.800  14.600   2.875
57372W        W29632  29.817  22.011  12.766
57373W        W29633   9.447  11.800   2.750
57374W        W29634  27.648  17.526   3.876
57375W        W29635  10.181  13.668   1.755
57376W        W29636  22.461  22.067   3.844
57377W        W29637  33.211   2.728  12.458
57378W        W29638  19.675  18.395   0.748
57379W        W29639  34.357  28.687   3.207
57380W        W29640  31.081  18.999   4.262
57381W        W29641  30.407  25.099   4.850
57382W        W29642   2.941  32.183  13.853
57383W        W29643   8.296  11.409   2.281
57384W        W29644  30.407  34.444  13.543
57385W        W29645   9.126  19.718   2.629
57386W        W29646  20.033  21.203  14.937
57387W        W29647  26.922   5.507  12.600
57388W        W29648  29.542  22.954   4.675
57389W        W29649  28.740   7.218   3.843
57390W        W29650   8.702  40.830   2.254
57391W        W29651  34.785   3.366  11.692
57392W        W29652  32.190  42.860  11.067
57393W        W29653  23.961  37.587  12.932
57394W        W29654  39.826   0.664   2.751
57395W        W29655  36.491  21.944   1.972
57396W        W29656  33.910   9.338   4.795
57397W        W29657   4.394  42.709   4.104
57398W        W29658   1.049   6.224   0.284
57399W        W29659  11.116   3.933   2.292
57400W        W29660  16.133  26.904   2.368
57401W        W29661  15.590  23.702  11.620
57402W        W29662   1.195  33.452  13.014
57403W        W29663   8.771   5.763   4.155
57404W        W29664   6.671   1.823  13.432
57405W        W29665  35.690  43.527  14.511
57406W        W29666  28.486   3.354  10.934
57407W        W29667  20.490  34.855   0.349
57408W        W29668  14.799  41.594   5.050
57409W        W29669  42.057  34.808  12.920
57410W        W29670  30.627  15.361   2.183
57411W        W29671  38.451  28.600   2.612
57412W        W29672  18.180  43.522  12.881
57413W        W29673  17.069  20.392   2.670
57414W        W29674  44.248   5.202  12.443
57415W        W29675  28.443  18.874  10.880
57416W        W29676  18.283   1.735   0.714
57417W        W29677  37.927   9.376  12.479
57418W        W29678   2.221  27.126   0.035
57419W        W29679  28.180  20.779  14.940
57420W        W29680   6.352   6.486   0.850
57421W        W29681   1.237  12.440  10.582
57422W        W29682  20.679  38.036  12.769
57423W        W29683   2.427   1.838   1.173
57424W        W29684  30.319  39.356   1.764
57425W        W29685  20.406  21.269   2.295
57426W        W29686   4.339  23.303   2.729
57427W        W29687  36.326  33.450   1.141
57428W        W29688  20.374   1.950   3.966
57429W        W29689   2.675  40.814   4.098
57430W        W29690  24.222  42.529  14.852
57431W        W29691  36.810  16.374   0.820
57432W        W29692  36.388  28.659   2.227
57433W        W29693  38.079  35.952  14.908
57434W        W29694  33.583  14.645   3.660
57435W        W29695   7.418  18.522   3.685
57436W        W29696  42.896  40.253  12.568
57437W        W29697   4.140   4.995  12.082
57438W        W29698   1.562   4.255  12.554
57439W        W29699  44.626  27.212  12.891
57440W        W29700   0.586  15.617   3.305
57441W        W29701   2.214  20.689   0.412
57442W        W29702  30.720  35.286  13.581
57443W        W29703  16.653  38.787  11.938
57444W        W29704  31.604  15.635  12.371
57445W        W29705  11.151  41.988   0.218
57446W        W29706  27.729   9.817  11.921
57447W        W29707  13.155  40.965  11.559
57448W        W29708  10.884   6.930  10.983
57449W        W29709  19.710   8.592   3.362
57450W        W29710  28.237  13.385  14.946
57451W        W29711  22.594  15.771  11.206
57452W        W29712  20.602  36.557   2.885
57453W        W29713  35.167  22.069  14.556
57454W        W29714  20.104  19.716  13.790
57455W        W29715  29.020  18.061  14.967
57456W        W29716  13.120  40.999  13.313
57457W        W29717  32.864  12.616  14.497
57458W        W29718   3.178  10.776   1.721
57459W        W29719   9.421  25.093   1.523
57460W        W29720  14.829  24.171  11.588
57461W        W29721  30.974  13.810  12.625
57462W        W29722  14.683   5.781  14.580
57463W        W29723  33.018  22.180   4.217
57464W        W29724  42.736  40.137  11.337
57465W        W29725  11.852   7.281   5.084
57466W        W29726  14.461  20.207  14.915
57467W        W29727   9.383  10.416   1.918
57468W        W29728  33.316  40.098   3.188
57469W        W29729  38.801  27.526   2.637
57470W        W29730  23.586  40.518   1.302
57471W        W29731   0.701  38.427   1.882
57472W        W29732  15.812  10.186  14.368
57473W        W29733   4.242   7.413   3.384
57474W        W29734  36.475   7.005  12.167
57475W        W29735  44.468   0.854  10.719
57476W        W29736  13.243  17.037  12.959
57477W        W29737  30.614  39.148   1.374
57478W        W29738   9.909  36.190  11.584
57479W        W29739   7.675  27.618   0.267
57480W        W29740   4.796  37.830  13.068
57481W        W29741  28.992  29.809  12.079
57482W        W29742  24.215  24.789   4.628
57483W        W29743  39.813  41.426  12.553
57484W        W29744   4.348   6.254   2.486
57485W        W29745  31.417  29.082  13.017
57486W        W29746   4.352  18.278   3.633
57487W        W29747  14.613  28.324   3.773
57488W        W29748  28.523  22.731  11.580
57489W        W29749  25.765  21.586   0.906
57490W        W29750  17.070  15.173   1.300
57491W        W29751  30.650  16.257   3.146
57492W        W29752  15.147  24.072  13.712
57493W        W29753  32.044  12.110   1.307
57494W        W29754  28.699  28.189  13.487
57495W        W29755  11.871  21.461   3.241
57496W        W29756  26.908   5.791   0.320
57497W        W29757   7.261   4.490   1.425
57498W        W29758  28.874  44.508   2.703
57499W        W29759  29.611  15.224   1.001
57500W        W29760  27.465  16.899  12.662
57501W        W29761   2.696  30.610   4.513
57502W        W29762  38.373  18.353  11.903
57503W        W29763   9.379  44.013  10.910
57504W        W29764  20.221   0.676  11.542
57505W        W29765  12.883   8.052  12.893
57506W        W29766   1.670  40.301  12.528
57507W        W29767   9.511   9.515   0.581
57508W        W29768  30.145  36.367  11.512
57509W        W29769  19.814  43.855   3.615
57510W        W29770  18.636   5.958   3.419
57511W        W29771  41.371  33.583   2.580
57512W        W29772  12.554   4.346   3.312
57513W        W29773  38.334  40.378  12.787
57514W        W29774  20.693  15.285   0.914
57515W        W29775  12.222  22.153   2.327
57516W        W29776  20.526  35.379   3.356
57517W        W29777  30.969   9.588  12.413
57518W        W29778  23.949  27.657   2.234
57519W        W29779  17.565  24.269   4.753
57520W        W29780  33.844   0.301   2.431
57521W        W29781  26.646   5.737  14.891
57522W        W29782  39.010  10.102  14.958
57523W        W29783  11.577   3.327   1.712
57524W        W29784  41.099   4.133  14.800
57525W        W29785  16.375   8.696   0.180
57526W        W29786  38.939  19.751   0.501
57527W        W29787  40.999  31.657  11.461
57528W        W29788  37.983  10.202  13.055
57529W        W29789  39.764  41.074  13.002
57530W        W29790  44.475  31.044  12.139
57531W        W29791  19.733  21.193   0.855
57532W        W29792  31.470  36.873  13.531
57533W        W29793  20.721   2.201   4.259
57534W        W29794  15.947  42.359   2.236
57535W        W29795  43.290  14.760   0.234
57536W        W29796   8.486  22.773  12.423
57537W        W29797  16.299   3.478   0.506
57538W        W29798  30.749  11.398   0.236
57539W        W29799  43.912  17.167  12.568
57540W        W29800  27.016   2.958   2.380
57541W        W29801  38.766  30.803  11.650
57542W        W29802   8.361  43.816   1.444
57543W        W29803  33.315   4.431   1.577
57544W        W29804   5.307  43.056  11.099
57545W        W29805  24.535   2.415  14.591
57546W        W29806  38.657  43.407   3.643
57547W        W29807  39.726  26.599  10.047
57548W        W29808  36.938  35.766  13.247
57549W        W29809   7.649  40.605  14.133
57550W        W29810  36.528  26.913  11.927
57551W        W29811  39.136  43.507   1.249
57552W        W29812  38.894  42.216  11.931
57553W        W29813   5.119  41.795   3.566
57554W        W29814   3.149  38.566  11.095
57555W        W29815  39.468   9.837  11.433
57556W        W29816  26.757  17.482  10.997
57557W        W29817  39.998  25.985  11.601
57558W        W29818  27.079  44.437  10.732
57559W        W29819  16.858  16.274   2.218
57560W        W29820  30.705  44.515  13.545
57561W        W29821  14.537  40.255  12.562
57562W        W29822   1.204  20.879   1.312
57563W        W29823  29.788  39.946  11.601
57564W        W29824   5.013  23.613  10.041
57565W        W29825  30.020  14.672   0.892
57566W        W29826  42.482  37.968  12.675
57567W        W29827  19.698  10.468  11.705
57568W        W29828  18.538  19.559   2.275
57569W        W29829  16.348   1.784   4.552
57570W        W29830  39.446   9.127  10.195
57571W        W29831  23.042  13.835   3.219
57572W        W29832  31.988  16.596  12.471
57573W        W29833  12.662  20.023  14.011
57574W        W29834   3.237  22.176   2.242
57575W        W29835  40.180  30.620   2.598
57576W        W29836  17.878   3.950  13.441
57577W        W29837  43.093  17.200   0.307
57578W        W29838  34.560  40.085   1.867
57579W        W29839  19.519  18.392  14.245
57580W        W29840  34.913  36.241   3.639
57581W        W29841  40.140  33.930   0.857
57582W        W29842   0.884  34.841  11.025
57583W        W29843   9.092  21.624  10.683
57584W        W29844  11.414  36.636  12.125
57585W        W29845  10.299  43.279  14.406
57586W        W29846  11.606  27.059   4.134
57587W        W29847   8.431  33.614   0.301
57588W        W29848  14.445  15.026   2.975
57589W        W29849  33.014  30.969  12.474
57590W        W29850  16.804  41.399   2.884
57591W        W29851  19.454  44.759   0.790
57592W        W29852   8.122  35.201   3.973
57593W        W29853   5.344  40.635   2.782
57594W        W29854  37.509  19.831  14.731
57595W        W29855  38.375  24.071  14.318
57596W        W29856  28.158  41.734   4.559
57597W        W29857  21.653  40.593  14.315
57598W        W29858  17.711  43.770   4.099
57599W        W29859  15.762  13.915  11.636
57600W        W29860   0.964  37.654  14.374
57601W        W29861   3.356  39.965   1.446
57602W        W29862   4.158  32.996  13.031
57603W        W29863   1.391  37.316  11.977
57604W        W29864  10.085  40.967  10.652
57605W        W29865  10.844  18.509   2.284
57606W        W29866   8.403  20.249   2.841
57607W        W29867   5.740  16.098  14.560
57608W        W29868  30.638   2.504  13.807
57609W        W29869  20.247  19.716  10.953
57610W        W29870  31.421  21.261   0.882
57611W        W29871  44.307   2.192   5.089
57612W        W29872   7.930  33.649   3.692
57613W        W29873   1.337  30.036   3.522
57614W        W29874  43.559  35.218   2.676
57615W        W29875   6.940  39.771   4.175
57616W        W29876  23.973  43.001  11.444
57617W        W29877  27.112  15.179  14.286
57618W        W29878  13.619  37.462  14.335
57619W        W29879   3.686  41.280  14.850
57620W        W29880  19.591  15.372  11.097
57621W        W29881  12.589  23.919   1.326
57622W        W29882  23.007  34.861  11.888
57623W        W29883  29.560   9.937   4.173
57624W        W29884  41.447  32.108   1.699
57625W        W29885  40.904  24.250  12.015
57626W        W29886   4.537  11.168   3.471
57627W        W29887  14.120  37.012  13.372
57628W        W29888  33.419  32.196  14.479
57629W        W29889  11.018  17.688  10.741
57630W        W29890   6.719   7.676   1.309
57631W        W29891  33.616  10.385  13.052
57632W        W29892  28.891  14.089   1.419
57633W        W29893  17.355  38.969   0.719
57634W        W29894  31.866  44.029  14.867
57635W        W29895  20.581   8.834   3.932
57636W        W29896  30.870  30.363   4.649
57637W        W29897  18.281  37.439  13.029
57638W        W29898   3.211  22.077   4.587
57639W        W29899  28.098  40.208   4.624
57640W        W29900  27.970  10.749   0.011
57641W        W29901  23.278  37.918  12.166
57642W        W29902   0.357  36.023   0.058
57643W        W29903  10.392  32.592  13.357
57644W        W29904  44.185  13.589   3.143
57645W        W29905  24.638  42.521  13.229
57646W        W29906   5.031  14.287   2.622
57647W        W29907  24.593  28.858   1.811
57648W        W29908  38.637  40.831  12.015
57649W        W29909  21.928   5.474   2.818
57650W        W29910  19.992  25.063   2.202
57651W        W29911  41.736  44.395  12.029
57652W        W29912  23.621   8.760   4.766
57653W        W29913  37.636  41.913   4.160
57654W        W29914  12.451  38.584  11.127
57655W        W29915  20.540   3.684   3.105
57656W        W29916  22.131  32.456  12.628
57657W        W29917  16.186  34.859   0.127
57658W        W29918  30.331  12.110  14.996
57659W        W29919  12.643  33.364   0.518
57660W        W29920  39.636   6.755  10.738
57661W        W29921  38.914   8.360   0.353
57662W        W29922  32.516  21.776  13.792
57663W        W29923   1.793  16.570   4.439
57664W        W29924  10.823  13.848   0.486
57665W        W29925   5.303  41.237  11.592
57666W        W29926   7.368  44.896   3.398
57667W        W29927  35.498   8.446   4.313
57668W        W29928   4.731   1.886  11.954
57669W        W29929  37.938  13.711  13.070
57670W        W29930  23.908  15.871   0.045
57671W        W29931   9.411   7.315   3.614
57672W        W29932   0.343  32.143  10.750
57673W        W29933  27.878  39.618  13.806
57674W        W29934  33.879  34.651   1.859
57675W        W29935  40.059  39.900   4.559
57676W        W29936  44.537   1.768  11.981
57677W        W29937   6.344  43.999   3.667
57678W        W29938  29.496  44.346   3.773
57679W        W29939  35.087  20.637  14.965
57680W        W29940   6.146  39.025  10.677
57681W        W29941  20.183   6.563  14.015
57682W        W29942   9.362  12.883  13.811
57683W        W29943  13.167  17.865   3.988
57684W        W29944  37.792   0.352   2.267
57685W        W29945   1.025  34.433   0.339
57686W        W29946  33.642  39.471   3.913
57687W        W29947  42.022   8.819   4.717
57688W        W29948  20.930   8.740  14.013
57689W        W29949  17.382  39.150  11.670
57690W        W29950  36.878  43.730   1.865
57691W        W29951  16.109  44.965  14.482
57692W        W29952  15.377  31.513   1.201
57693W        W29953   0.084   2.277   1.193
57694W        W29954  14.601  37.589   0.756
57695W        W29955  13.961  34.947  11.712
57696W        W29956  33.837  40.341   0.690
57697W        W29957   2.945  28.425  14.715
57698W        W29958   9.719  23.412  10.631
57699W        W29959  23.225  44.731  14.844
57700W        W29960  14.793  38.983  12.585
57701W        W29961   7.357  32.254  10.641
57702W        W29962  13.755  24.738  14.571
57703W        W29963   5.186  23.777  12.980
57704W        W29964  39.510  20.269  11.479
57705W        W29965  13.123  14.808   4.830
57706W        W29966   3.826  44.335   1.819
57707W        W29967  29.434  15.083   0.004
57708W        W29968   6.344  21.430   3.351
57709W        W29969  23.080  19.827   0.834
57710W        W29970  18.968  43.477   1.343
57711W        W29971  20.655  31.003  13.453
57712W        W29972  10.644  26.674   0.752
57713W        W29973  31.688  26.554  13.325
57714W        W29974   7.006  22.229  14.806
57715W        W29975  29.492  20.167   3.858
57716W        W29976  22.959  34.552  12.586
57717W        W29977  26.538  15.065  13.942
57718W        W29978  41.344  42.387   2.778
57719W        W29979  31.122   9.328   3.194
57720W        W29980   0.855  37.071  13.544
57721W        W29981  44.210  42.438   0.058
57722W        W29982  22.653  16.195  12.849
57723W        W29983  32.314  43.241  11.417
57724W        W29984  31.923   0.234  12.937
57725W        W29985  12.460  36.821  11.506
57726W        W29986  35.073  39.249   3.664
57727W        W29987  40.465   4.439  12.480
57728W        W29988  16.109  11.324  11.108
57729W        W29989  31.520   6.852  10.787
57730W        W29990  19.998   5.809  10.702
57731W        W29991   6.595  36.838   4.187
57732W        W29992  35.489  13.740   3.876
57733W        W29993   4.945  10.202   2.784
57734W        W29994  38.980  27.139  12.071
57735W        W29995  35.944  32.725   0.659
57736W        W29996  18.491   9.868   4.252
57737W        W29997   0.217   3.015   1.206
57738W        W29998  35.029   8.335  10.587
57739W        W29999  24.560  37.705  11.612
57740W        W30000  10.782  23.020   1.668
57741W        W30001  25.102  18.499   5.049
57742W        W30002  24.101  17.190   1.284
57743W        W30003  19.218  37.059   1.257
57744W        W30004   8.586  11.173   3.384
57745W        W30005  36.864  37.873   0.350
57746W        W30006  28.946  30.376  10.752
57747W        W30007   7.339  43.923   3.570
57748W        W30008  42.995  22.705   0.889
57749W        W30009   7.285   3.700  10.652
57750W        W30010  25.057  32.246  14.046
57751W        W30011  27.151   8.692  14.691
57752W        W30012  11.619   5.863  14.708
57753W        W30013  21.261   2.601   0.559
57754W        W30014  15.693  21.268  14.710
57755W        W30015  26.190  15.213   2.218
57756W        W30016  33.135  19.167   1.389
57757W        W30017  42.969  33.622  12.642
57758W        W30018  30.192  33.660   0.385
57759W        W30019  18.163  27.183   4.486
57760W        W30020  43.465  44.886   1.481
57761W        W30021  27.088  23.326   0.719
57762W        W30022  31.645  15.521   2.766
57763W        W30023  24.481   2.906   2.251
57764W        W30024  38.761  41.516  13.600
57765W        W30025  33.809  32.477  13.949
57766W        W30026  38.836  15.179   3.407
57767W        W30027  30.471  21.154   1.396
57768W        W30028   8.004  20.278   1.243
57769W        W30029  36.536  22.304  14.650
57770W        W30030   0.656  32.474   2.176
57771W        W30031  15.629  44.985  13.806
57772W        W30032  16.177  40.984   4.060
57773W        W30033  20.130  14.637   3.767
57774W        W30034  17.510  25.439  13.755
57775W        W30035  37.995  25.947  14.291
57776W        W30036  42.722  39.591   1.898
57777W        W30037   1.897  39.960  13.913
57778W        W30038  14.643  28.303  12.752
57779W        W30039  33.097  10.290  10.014
57780W        W30040  10.890  41.478   4.364
57781W        W30041   9.821  36.031   2.010
57782W        W30042  18.746   8.892  11.408
57783W        W30043  34.989   9.781  14.281
57784W        W30044   4.884   7.038   4.769
57785W        W30045  23.464  20.269   0.861
57786W        W30046  22.733  28.235  13.294
57787W        W30047  38.047  35.752   0.393
57788W        W30048  27.018  14.656   0.779
57789W        W30049  28.596  30.896  11.594
57790W        W30050  31.025  18.182   0.316
57791W        W30051  37.459  10.157   3.729
57792W        W30052   7.050  19.746   4.978
57793W        W30053  41.751  25.597  10.615
57794W        W30054  15.750   3.307  13.595
57795W        W30055  16.874   5.834  12.916
57796W        W30056  11.765  21.521   0.348
57797W        W30057  26.276   9.337  12.237
57798W        W30058  35.936  18.216  13.496
57799W        W30059   5.012  22.563   5.233
57800W        W30060  42.242  37.759   0.153
57801W        W30061  39.532  30.779  12.265
57802W        W30062  37.582  21.975   2.724
57803W        W30063  32.410  13.652   1.882
57804W        W30064   4.959  18.143   0.271
57805W        W30065  26.167   6.738   4.305
57806W        W30066  21.431  38.629   2.186
57807W        W30067  31.930  23.391  11.008
57808W        W30068  16.457  22.171  12.393
57809W        W30069  41.406  10.865  13.840
57810W        W30070  44.494  39.989   4.504
57811W        W30071  25.200  44.281   2.177
57812W        W30072   7.785  24.062   3.287
57813W        W30073  40.539  16.536   0.797
57814W        W30074   3.271  17.980  12.648
57815W        W30075  16.403   0.800   2.323
57816W        W30076  44.643  24.073   2.540
57817W        W30077  36.025  22.981   4.138
57818W        W30078  37.360   4.733  11.207
57819W        W30079  40.310  40.920   0.692
57820W        W30080   0.219  26.477  14.194
57821W        W30081  39.990   9.839   2.548
57822W        W30082  44.962  25.414   5.047
57823W        W30083  28.153  41.249  14.883
57824W        W30084  22.644  23.010  12.599
57825W        W30085  40.329  12.376   3.199
57826W        W30086  38.056  23.006  14.524
57827W        W30087  22.739  36.010  11.275
57828W        W30088  14.531  32.021   3.028
57829W        W30089  17.538  15.902   3.240
57830W        W30090  40.621  20.026  10.722
57831W        W30091  15.563  13.520  11.099
57832W        W30092  25.852   7.326   2.124
57833W        W30093  35.895  34.023  14.817
57834W        W30094   5.936  29.095  14.269
57835W        W30095  13.701  10.112  12.094
57836W        W30096  42.565  34.959  10.676
57837W        W30097  28.392  11.273  13.410
57838W        W30098  36.459   5.334   3.380
57839W        W30099   6.099   7.776  11.118
57840W        W30100  36.551  15.688   2.228
57841W        W30101  35.867   4.874   3.297
57842W        W30102  29.246  28.613   2.752
57843W        W30103  20.245  34.668  12.003
57844W        W30104  35.404  41.314  14.523
57845W        W30105   4.170  19.843  13.890
57846W        W30106  42.256  29.499  12.770
57847W        W30107  36.264  40.732  11.939
57848W        W30108  35.980  20.995  12.682
57849W        W30109  17.752  11.713  11.467
57850W        W30110   7.656  44.959   0.303
57851W        W30111   6.207  32.385   3.423
57852W        W30112  35.558  29.634   0.502
57853W        W30113  40.708  38.334  14.090
57854W        W30114  26.201   5.007  14.729
57855W        W30115   2.678  41.767   4.679
57856W        W30116  31.705  40.392   0.814
57857W        W30117  16.250  24.079   3.666
57858W        W30118  36.821  21.817   0.193
57859W        W30119  20.578  33.072   1.133
57860W        W30120  40.510  41.640  14.923
57861W        W30121   7.369   7.096   3.882
57862W        W30122  15.096  25.170   0.518
57863W        W30123   9.789  10.467  10.569
57864W        W30124  42.077  23.709   0.749
57865W        W30125  12.358  19.418  11.182
57866W        W30126  44.177  27.551   1.296
57867W        W30127   5.776  40.553   1.750
57868W        W30128  29.413  34.513   3.691
57869W        W30129  20.557   1.044  11.434
57870W        W30130  33.341  14.855  10.207
57871W        W30131   1.077   0.307   2.725
57872W        W30132  36.021  37.893   0.165
57873W        W30133  17.934  34.916   3.356
57874W        W30134  28.944  30.865   1.765
57875W        W30135  14.866  23.657  13.839
57876W        W30136  31.386   4.199  11.399
57877W        W30137   4.986  18.091  12.139
57878W        W30138  11.357  33.083   2.603
57879W        W30139  36.482  27.917  10.194
57880W        W30140  15.177   6.863  14.763
57881W        W30141  42.882   5.703  14.348
57882W        W30142  32.572  42.772  12.623
57883W        W30143  24.707   2.099   1.112
57884W        W30144   2.019  30.157   3.795
57885W        W30145   5.705   7.827   2.726
57886W        W30146  31.932   5.735   1.214
57887W        W30147   6.385   0.037   1.444
57888W        W30148   9.617  11.217   0.861
57889W        W30149  40.939  15.235  14.140
57890W        W30150  38.967  37.312  10.685
57891W        W30151  12.223  37.411  13.372
57892W        W30152  13.650  15.566   3.099
57893W        W30153  10.221  11.654  12.566
57894W        W30154  12.757  36.342   1.249
57895W        W30155  33.846  26.933  10.384
57896W        W30156   8.859  32.876   3.214
57897W        W30157   9.594  35.116  12.146
57898W        W30158  10.752  27.074  12.984
57899W        W30159   8.250  20.234   4.911
57900W        W30160  10.832   1.751   0.287
57901W        W30161  29.675   0.338  11.052
57902W        W30162   2.437  27.734   4.625
57903W        W30163   5.078  40.659   1.192
57904W        W30164  41.882   3.812   0.752
57905W        W30165  20.485  42.042  14.373
57906W        W30166  16.618  26.606  14.921
57907W        W30167  12.265   4.857  14.040
57908W        W30168  17.638  18.148  11.991
57909W        W30169   1.767  43.771   0.550
57910W        W30170  18.281  14.242  12.812
57911W        W30171   0.896  37.525  10.033
57912W        W30172  24.273  10.339   4.174
57913W        W30173  40.855   3.321  13.133
57914W        W30174  17.759  30.275  13.918
57915W        W30175  20.029   8.828  10.729
57916W        W30176  16.168  29.889  12.091
57917W        W30177  42.531  25.561   0.195
57918W        W30178  40.518   8.116   2.830
57919W        W30179   9.129  27.898  10.508
57920W        W30180  34.822  12.686   3.193
57921W        W30181  21.807   3.384   4.164
57922W        W30182  13.900  35.374  11.041
57923W        W30183  44.506   6.766   0.691
57924W        W30184   1.927   7.287  12.517
57925W        W30185  30.493  28.444  10.815
57926W        W30186  42.003  18.481  14.474
57927W        W30187  18.879  11.058   1.961
57928W        W30188  23.593  15.699  13.974
57929W        W30189  26.588  21.268   1.247
57930W        W30190   1.267  33.460  10.457
57931W        W30191  38.887   3.188  12.802
57932W        W30192  18.958  32.474  14.967
57933W        W30193   5.370  33.466  13.139
57934W        W30194  11.700   4.230   0.338
57935W        W30195   3.267   3.292  11.671
57936W        W30196  40.031  25.202  11.147
57937W        W30197   6.418  44.645  13.180
57938W        W30198   6.918  18.906   4.295
57939W        W30199   3.478  21.612  12.398
57940W        W30200  27.111  35.058   0.837
57941W        W30201  22.666  12.230   3.943
57942W        W30202  17.628   6.724   2.720
57943W        W30203  24.021  35.796   1.988
57944W        W30204   0.959   5.654  11.607
57945W        W30205  22.465  35.941  12.053
57946W        W30206  28.908   6.348  13.477
57947W        W30207  27.978  41.908   5.004
57948W        W30208  12.203   3.699  11.625
57949W        W30209  17.771  29.553  13.428
57950W        W30210  12.637  15.841  13.379
57951W        W30211  19.018  18.597   3.293
57952W        W30212   4.346   4.977  12.770
57953W        W30213  17.766  30.147   4.373
57954W        W30214  18.795  17.781   2.738
57955W        W30215  35.860  29.522   0.911
57956W        W30216  14.378  41.014  12.053
57957W        W30217  18.244   0.361   0.765
57958W        W30218  36.554  37.379  12.346
57959W        W30219   1.712   8.030   1.106
57960W        W30220   3.060  28.459   1.600
57961W        W30221  14.557  41.407   1.748
57962W        W30222  39.005   3.564  14.408
57963W        W30223  13.825   4.663   0.288
57964W        W30224  21.837  32.301   3.281
57965W        W30225   7.572  17.637   4.282
57966W        W30226  12.519  15.560  12.136
57967W        W30227  29.931  23.410   2.871
57968W        W30228  20.738   0.336  14.239
57969W        W30229  16.540  16.780   1.498
57970W        W30230  19.780   7.416   2.319
57971W        W30231  40.861  42.928   1.932
57972W        W30232  21.584  25.024  12.408
57973W        W30233   5.583  40.580   1.262
57974W        W30234   4.166  12.875   0.892
57975W        W30235  15.532  39.405  10.710
57976W        W30236   1.463  32.455   2.829
57977W        W30237  30.501  29.037   3.164
57978W        W30238  32.019  23.721  13.556
57979W        W30239  32.585   6.413  13.701
57980W        W30240  20.575  12.325  11.532
57981W        W30241  21.736  23.278   4.085
57982W        W30242  26.228  29.904  13.408
57983W        W30243  30.053   0.556   0.079
57984W        W30244  17.148  30.249   1.857
57985W        W30245  38.135  41.829   1.477
57986W        W30246  36.880   9.116   0.686
57987W        W30247   4.764  19.265   3.340
57988W        W30248  18.074  40.414   3.376
57989W        W30249  22.647  28.100   1.717
57990W        W30250  35.504   6.745   0.265
57991W        W30251   3.894  34.672  14.921
57992W        W30252  19.180  12.847   1.372
57993W        W30253  18.673  25.105  12.939
57994W        W30254  10.841  14.208  13.461
57995W        W30255  23.595  13.750  12.047
57996W        W30256  22.657  37.119  12.000
57997W        W30257  43.069   1.000  10.917
57998W        W30258  40.614   6.483  11.107
57999W        W30259   4.408  25.558   4.128
58000W        W30260  22.228  38.141   2.153
58001W        W30261  10.314   5.208   3.660
58002W        W30262  21.766  22.568   3.687
58003W        W30263  14.839  30.157  10.114
58004W        W30264  38.910  36.029   0.372
58005W        W30265  18.192  21.161  11.851
58006W        W30266  13.652  40.519  12.590
58007W        W30267  24.968   6.953  11.163
58008W        W30268  27.567   1.498  12.621
58009W        W30269  40.609   1.385  14.880
58010W        W30270  12.858  11.707   1.530
58011W        W30271  34.122  42.532  11.127
58012W        W30272  25.110  20.528   1.415
58013W        W30273  27.020  34.267  14.326
58014W        W30274  33.169  17.543  10.517
58015W        W30275  26.856   3.775   3.546
58016W        W30276  43.519   3.310   4.647
58017W        W30277  20.719  35.566   0.521
58018W        W30278  19.120  38.625   3.158
58019W        W30279  16.086  37.837   0.293
58020W        W30280  40.083   9.728   1.050
58021W        W30281  30.007  21.453  13.846
58022W        W30282  12.211  35.029   4.178
58023W        W30283  35.262  23.539   3.067
58024W        W30284  30.952   4.416   1.363
58025W        W30285  29.459  35.812  10.635
58026W        W30286  20.688  43.935   4.266
58027W        W30287  17.822   4.290   4.249
58028W        W30288  25.165   9.152  14.951
58029W        W30289  28.496   9.798   0.875
58030W        W30290  15.409  41.936   3.635
58031W        W30291   8.354  37.417  10.668
58032W        W30292  27.002  30.421   1.735
58033W        W30293  22.835  18.231  13.526
58034W        W30294  37.722   9.392   4.160
58035W        W30295  33.887  28.085   3.709
58036W        W30296   7.315   0.208  13.127
58037W        W30297  30.225  24.588   4.645
58038W        W30298  13.781  18.864  12.656
58039W        W30299  37.908  21.789   4.565
58040W        W30300  37.077  41.600  13.726
58041W        W30301  12.657  25.648  11.396
58042W        W30302  35.838  15.154   3.154
58043W        W30303  13.331  12.882   2.703
58044W        W30304  10.306  44.325  11.124
58045W        W30305   6.698  39.006   0.379
58046W        W30306  25.971  40.230  11.516
58047W        W30307  44.802  29.954  12.421
58048W        W30308   8.324  27.898  10.298
58049W        W30309  31.539  12.115  12.885
58050W        W30310  32.173   7.531   2.346
58051W        W30311  23.998  17.816  13.993
58052W        W30312  26.547  15.634   4.960
58053W        W30313   8.898   9.772  12.903
58054W        W30314  24.526  29.360   1.623
58055W        W30315  41.940   1.442  11.670
58056W        W30316   0.326  10.664  14.352
58057W        W30317   3.308  11.062  12.020
58058W        W30318  28.708  33.352  10.608
58059W        W30319  11.607   0.504  10.106
58060W        W30320   1.039   9.692  10.730
58061W        W30321  15.661   2.088  12.862
58062W        W30322  26.527   7.171   5.058
58063W        W30323  17.797  10.665  11.459
58064W        W30324  37.788  25.177   0.488
58065W        W30325  41.219  44.415   2.113
58066W        W30326  19.642  30.473  10.937
58067W        W30327  24.462  19.867  11.963
58068W        W30328  34.004   5.903   3.667
58069W        W30329  43.711   6.270   4.889
58070W        W30330  39.403  14.548  12.612
58071W        W30331  20.154  44.781   3.342
58072W        W30332  36.105  34.000  14.291
58073W        W30333   5.675  16.607  14.624
58074W        W30334  32.066  26.656   0.786
58075W        W30335  42.829  21.048   4.625
58076W        W30336  42.465  14.475   0.898
58077W        W30337  21.051   9.748  13.835
58078W        W30338  24.230  10.130  12.324
58079W        W30339  13.699  33.131  11.995
58080W        W30340   2.554  42.867   2.287
58081W        W30341  11.896  31.542  10.322
58082W        W30342  38.571  41.334  14.060
58083W        W30343  21.988  42.358   0.736
58084W        W30344  41.749   2.798   3.763
58085W        W30345   9.278   9.045   2.826
58086W        W30346  35.263  10.207  12.172
58087W        W30347  29.156  31.786   5.106
58088W        W30348   6.342  22.499   0.272
58089W        W30349  34.363  18.853  10.280
58090W        W30350  23.516  34.806  13.398
58091W        W30351  17.139  22.913   0.571
58092W        W30352  10.203  15.284  11.477
58093W        W30353   5.936  15.737   3.723
58094W        W30354  41.596  16.897  14.497
58095W        W30355   6.989  36.585  14.339
58096W        W30356  32.423  39.775   0.861
58097W        W30357   9.805  15.214   4.513
58098W        W30358  21.130  20.905   2.708
58099W        W30359   1.863  17.171  11.043
58100W        W30360   5.235   7.328   2.843
58101W        W30361  26.337  32.131   2.812
58102W        W30362  16.124   9.316   3.736
58103W        W30363   4.644   2.532   1.588
58104W        W30364   9.640  35.884   1.244
58105W        W30365   5.565  15.614  11.523
58106W        W30366   3.138   3.663  12.048
58107W        W30367  43.866  13.520   0.932
58108W        W30368  32.893  19.310   2.315
58109W        W30369  14.258   6.570  12.485
58110W        W30370  36.257  11.595   2.761
58111W        W30371  10.190   2.971   1.094
58112W        W30372   7.319   0.337  14.015
58113W        W30373  18.107   8.940   1.724
58114W        W30374   4.960  19.156   1.043
58115W        W30375  34.175   8.099  12.634
58116W        W30376  23.475  22.677  13.340
58117W        W30377   6.923  42.227   1.750
58118W        W30378  33.365  16.883  12.949
58119W        W30379  26.353   7.680   2.805
58120W        W30380  39.010  28.118  14.788
58121W        W30381   7.711  33.013   0.937
58122W        W30382  16.027  24.096  14.280
58123W        W30383  27.032  23.583  10.607
58124W        W30384   2.842  40.489  11.033
58125W        W30385  41.954  28.220   3.237
58126W        W30386   0.485   3.063  10.398
58127W        W30387  34.565  33.414  11.526
58128W        W30388   3.234  20.500   0.418
58129W        W30389   7.370  39.805   0.714
58130W        W30390  34.378  23.723   0.363
58131W        W30391  31.782  20.670  10.592
58132W        W30392  34.034  38.836  11.504
58133W        W30393   4.667  12.955  12.572
58134W        W30394  21.596  39.769   1.620
58135W        W30395  42.895   9.447   2.767
58136W        W30396  34.051  30.960   1.372
58137W        W30397  12.181  43.970  12.396
58138W        W30398   7.190  26.013   2.688
58139W        W30399  37.298  42.763   2.140
58140W        W30400   5.613  41.354   4.289
58141W        W30401  20.761  25.137  14.847
58142W        W30402   6.264   1.198  12.496
58143W        W30403  29.737  24.320   2.995
58144W        W30404  16.825  31.985   2.346
58145W        W30405   1.776  44.767  12.105
58146W        W30406  24.089  20.801   4.781
58147W        W30407   8.176   8.491  10.969
58148W        W30408  31.407   1.423   3.725
58149W        W30409  19.693   8.010  11.765
58150W        W30410  20.047  15.685  11.554
58151W        W30411  30.414  27.018  13.377
58152W        W30412  26.084  35.686  12.485
58153W        W30413   7.877  16.118  11.990
58154W        W30414  32.340  27.425   3.242
58155W        W30415  12.642  21.262   0.150
58156W        W30416  19.718   8.702   9.881
58157W        W30417  20.061   5.619  11.544
58158W        W30418  12.051  42.942  12.427
58159W        W30419  42.717  16.426   3.582
58160W        W30420   6.168  40.402  11.372
58161W        W30421   5.433  20.837   1.217
58162W        W30422  40.455   6.441  11.910
58163W        W30423  37.417  20.433  13.404
58164W        W30424  26.184  18.630  14.561
58165W        W30425  40.330  34.184  11.562
58166W        W30426   7.926  15.778   5.177
58167W        W30427  40.515   4.292   4.692
58168W        W30428   3.674   7.919  10.415
58169W        W30429  19.070  19.054   0.256
58170W        W30430  30.945  36.937  13.385
58171W        W30431  44.544  18.799  13.453
58172W        W30432  14.793  18.528   2.285
58173W        W30433   7.807   5.060  13.091
58174W        W30434  30.642  33.480   4.216
58175W        W30435  25.443  39.147  11.094
58176W        W30436  41.875  30.403  13.361
58177W        W30437  35.622  14.277   5.186
58178W        W30438  20.073  16.328  13.483
58179W        W30439   9.392   0.951   2.264
58180W        W30440  32.083   1.935   3.929
58181W        W30441  17.212  31.759   1.939
58182W        W30442  29.070  29.593   3.396
58183W        W30443   4.225  38.325  11.064
58184W        W30444  41.884  23.201  13.906
58185W        W30445  33.181  18.007  10.757
58186W        W30446  17.902  22.780  12.990
58187W        W30447  18.115  40.507   3.921
58188W        W30448  12.621  14.311  13.946
58189W        W30449  39.053  11.151  12.544
58190W        W30450   4.633  32.874   0.605
58191W        W30451  36.437   0.316  12.979
58192W        W30452   0.061  41.586   1.817
58193W        W30453  10.354   4.269  14.370
58194W        W30454  33.525  37.503   2.684
58195W        W30455  24.726   7.690  13.186
58196W        W30456  28.936  36.010   0.912
58197W        W30457  13.578  43.050  11.487
58198W        W30458  24.295  31.597  13.804
58199W        W30459  43.872  22.415  12.590
58200W        W30460   7.672   1.417  14.047
58201W        W30461  25.335  27.084   0.980
58202W        W30462  21.004  27.796  10.695
58203W        W30463  43.354  16.372  11.598
58204W        W30464  43.907  31.406   1.811
58205W        W30465   2.945  24.197  10.612
58206W        W30466   5.741  37.588  11.416
58207W        W30467   6.204  22.051   4.156
58208W        W30468  14.695  29.725  13.796
58209W        W30469   6.883  10.637  13.371
58210W        W30470  33.540   9.803   4.604
58211W        W30471  41.676  40.591   1.786
58212W        W30472  28.600  42.727   0.298
58213W        W30473  20.518  34.530  14.044
58214W        W30474  22.352  21.601   0.306
58215W        W30475  16.335  44.958   2.613
58216W        W30476  34.221  42.327   3.376
58217W        W30477   4.409   8.172   2.294
58218W        W30478   7.691  28.498   4.585
58219W        W30479  24.854  44.246  12.177
58220W        W30480  36.130  19.542  11.437
58221W        W30481  35.888  17.685   0.099
58222W        W30482   5.962   0.443  13.461
58223W        W30483  43.491  31.439   0.528
58224W        W30484  42.004   6.950  12.622
58225W        W30485   3.275  24.010  12.734
58226W        W30486   6.048   4.233   0.764
58227W        W30487  16.634  43.463  13.621
58228W        W30488  13.198   8.947   4.617
58229W        W30489  34.485  14.209  11.550
58230W        W30490  38.473  34.210   1.710
58231W        W30491  29.302  21.810  10.482
58232W        W30492  34.581  14.254  13.919
58233W        W30493  43.429  23.231  11.114
58234W        W30494  14.865  15.306   2.795
58235W        W30495  28.402   6.822   3.891
58236W        W30496  35.303  14.614   1.909
58237W        W30497   9.749   3.208   3.311
58238W        W30498  12.677  20.786  12.058
58239W        W30499  28.081   7.731  12.774
58240W        W30500  18.586  22.036  13.010
58241W        W30501   0.869  37.781  12.558
58242W        W30502   3.521  36.382  14.577
58243W        W30503   0.873  14.050  11.600
58244W        W30504  10.308   0.859  13.694
58245W        W30505   0.723  20.385   0.487
58246W        W30506  22.669  16.723   3.756
58247W        W30507   4.748  20.590   2.938
58248W        W30508  26.729  41.833   0.575
58249W        W30509  31.103  22.005  11.756
58250W        W30510   6.398  20.066  13.476
58251W        W30511   7.748  36.694   0.760
58252W        W30512  18.317  42.901   0.900
58253W        W30513  31.672  20.134   1.333
58254W        W30514  26.541  42.584  10.838
58255W        W30515  33.931  37.786   1.830
58256W        W30516  18.692   3.457   3.123
58257W        W30517  22.964  39.106  14.707
58258W        W30518  19.313  41.262  12.182
58259W        W30519  39.546   2.300   5.013
58260W        W30520   6.079  41.314  12.312
58261W        W30521  42.389  33.897   0.292
58262W        W30522   8.688  16.668  12.593
58263W        W30523  36.688   5.511   2.921
58264W        W30524  37.380   2.780  14.375
58265W        W30525   1.480  15.143   2.454
58266W        W30526  37.502  28.472   2.797
58267W        W30527  25.560   0.343   4.731
58268W        W30528  28.517  33.420   2.856
58269W        W30529  31.541  32.608  10.146
58270W        W30530  26.227  28.671  12.485
58271W        W30531  35.060  12.848   1.845
58272W        W30532   4.443  19.554  12.009
58273W        W30533  27.506   1.489   3.396
58274W        W30534  30.781  21.215   4.095
58275W        W30535  37.391  39.993  12.652
58276W        W30536  27.054  24.217   4.637
58277W        W30537   5.191   3.227   1.735
58278W        W30538  41.002  22.021  11.128
58279W        W30539   8.683  38.276   2.384
58280W        W30540  35.808  24.552  14.043
58281W        W30541  13.051   6.529   5.005
58282W        W30542  41.533  41.613   3.260
58283W        W30543  13.044   4.215   0.659
58284W        W30544  27.669  21.609  10.521
58285W        W30545   8.555   6.940   1.916
58286W        W30546  20.453  20.514   1.775
58287W        W30547  36.606   6.920  14.444
58288W        W30548   6.676  27.672   2.093
58289W        W30549  34.099   0.483  12.875
58290W        W30550   4.005  39.190   0.953
58291W        W30551   9.268  38.803   5.099
58292W        W30552   5.759  40.080   0.095
58293W        W30553  39.249  31.056   2.773
58294W        W30554  28.525   1.385  12.386
58295W        W30555   0.256  43.496  11.842
58296W        W30556  29.691  36.285  10.692
58297W        W30557  37.012   5.919   0.776
58298W        W30558   5.821  23.410  14.447
58299W        W30559  20.759   1.569  12.486
58300W        W30560  41.214  22.199  14.426
58301W        W30561  16.842   0.364  12.035
58302W        W30562   4.360  18.372   1.804
58303W        W30563  23.327   0.183  13.463
58304W        W30564  23.551  11.215   0.991
58305W        W30565   5.908   6.135   3.080
58306W        W30566  34.632  32.570  12.132
58307W        W30567  27.850  17.710  12.962
58308W        W30568  11.732  16.839  10.956
58309W        W30569  36.420   8.983   2.219
58310W        W30570  14.725  16.050   1.224
58311W        W30571   1.416   8.720   1.831
58312W        W30572  20.054  22.761   0.432
58313W        W30573  40.117   2.369  13.969
58314W        W30574  23.439   0.407   1.695
58315W        W30575  31.382  36.389  11.909
58316W        W30576  29.811   6.431  12.393
58317W        W30577  18.604  44.246   0.280
58318W        W30578  19.653  27.654   2.192
58319W        W30579  34.464  22.513   0.530
58320W        W30580  13.104  25.078   1.048
58321W        W30581   0.015  19.586  11.649
58322W        W30582  44.443  23.349   0.923
58323W        W30583  13.845   1.235   4.586
58324W        W30584  23.831  11.098   3.807
58325W        W30585   3.198  41.462  11.111
58326W        W30586  14.012  15.225  11.207
58327W        W30587  15.327  35.143  11.945
58328W        W30588  10.812   2.692   0.704
58329W        W30589  11.043  40.036  12.080
58330W        W30590   7.714  12.855  14.103
58331W        W30591  19.533   6.245  12.053
58332W        W30592  36.828  25.693  14.887
58333W        W30593  21.618   1.763  12.141
58334W        W30594  35.046  20.111  14.188
58335W        W30595  43.309  22.034  12.559
58336W        W30596  13.677  32.120  11.524
58337W        W30597  23.826  17.208   0.807
58338W        W30598  20.915  37.819  12.360
58339W        W30599   1.263  10.115  12.723
58340W        W30600  32.460  24.725  11.164
58341W        W30601  26.507  23.986   4.084
58342W        W30602  40.439   9.132  14.680
58343W        W30603  27.016  19.178  12.246
58344W        W30604   9.315  11.105   3.713
58345W        W30605  18.502  41.803  14.394
58346W        W30606  27.326  26.098  12.751
58347W        W30607  19.144   1.413   4.077
58348W        W30608  33.382  23.971   1.401
58349W        W30609  33.822  22.009  14.769
58350W        W30610  34.216  28.632  14.788
58351W        W30611  26.524  21.981  13.853
58352W        W30612  39.268  38.797   4.216
58353W        W30613   2.497  39.081  11.144
58354W        W30614  44.545  23.605  12.429
58355W        W30615  21.570   8.044  13.881
58356W        W30616   7.817  35.179  14.658
58357W        W30617  17.694  14.745  10.638
58358W        W30618  32.063  16.311   2.745
58359W        W30619  27.955  12.744   3.637
58360W        W30620  28.420   1.805   3.640
58361W        W30621  37.568  30.079  13.741
58362W        W30622  30.427  37.521   1.348
58363W        W30623  29.534   2.226   4.213
58364W        W30624  33.481  25.604  13.026
58365W        W30625  33.558  42.324  13.354
58366W        W30626  21.342   5.927  11.786
58367W        W30627   9.771   6.406  12.943
58368W        W30628  13.561  14.856  14.969
58369W        W30629  21.283  10.716   3.298
58370W        W30630  16.778  38.332  13.548
58371W        W30631  15.108  37.647   2.328
58372W        W30632  25.038  39.744  11.666
58373W        W30633   5.070   3.546   9.875
58374W        W30634  30.765  18.573   1.903
58375W        W30635  27.190  13.777   4.015
58376W        W30636   8.262  23.042  14.491
58377W        W30637  23.982   1.810  12.279
58378W        W30638  31.646  43.866   0.984
58379W        W30639  18.723  38.564  13.467
58380W        W30640  14.173  18.665   2.989
58381W        W30641   9.813  44.217   4.787
58382W        W30642  10.184  24.908  10.272
58383W        W30643   3.473   5.392  10.639
58384W        W30644  24.154  42.447  13.989
58385W        W30645  44.810  36.678   1.164
58386W        W30646  29.071  12.919  13.179
58387W        W30647  43.879  29.718  13.693
58388W        W30648  15.464   6.411  14.837
58389W        W30649  38.001  25.422  14.310
58390W        W30650  19.406  12.703   3.895
58391W        W30651  12.669  43.508   4.071
58392W        W30652  18.297  42.759   2.703
58393W        W30653  35.513  21.081   4.085
58394W        W30654  25.910  24.127   3.206
58395W        W30655  35.994  23.793   4.529
58396W        W30656  27.372   3.868   3.572
58397W        W30657   9.242  33.358   3.217
58398W        W30658  40.120   6.746  10.988
58399W        W30659  16.099  14.721   9.851
58400W        W30660   5.993  12.295   4.696
58401W        W30661   7.730  39.951  12.425
58402W        W30662  15.169   5.924  10.894
58403W        W30663  40.322  32.129   1.374
58404W        W30664  29.503  10.293  13.847
58405W        W30665  26.548  24.581   2.876
58406W        W30666  11.300  40.162   0.376
58407W        W30667  22.202  18.112  13.042
58408W        W30668  26.112  33.752  11.119
58409W        W30669  15.523  13.141   0.904
58410W        W30670  41.874  23.045  10.381
58411W        W30671  40.495  14.980  13.403
58412W        W30672   8.174   6.987   2.279
58413W        W30673  33.321  24.226   3.239
58414W        W30674   3.819  26.029  13.595
58415W        W30675  23.022  39.317  12.943
58416W        W30676   3.500  34.342   2.331
58417W        W30677  36.321  15.589   0.083
58418W        W30678   8.109  31.576   2.167
58419W        W30679  44.472  28.088   1.875
58420W        W30680   4.398  30.445   0.005
58421W        W30681  32.055  27.564   3.782
58422W        W30682  26.121  17.743   1.893
58423W        W30683  16.114  12.105   1.407
58424W        W30684   5.732   3.356   0.846
58425W        W30685  43.470  10.104   0.986
58426W        W30686  44.949  18.131   5.100
58427W        W30687  12.770  33.753   1.898
58428W        W30688   1.707  26.483  10.044
58429W        W30689   6.852   8.683  12.120
58430W        W30690  22.702  25.082   2.225
58431W        W30691  35.270   4.848  14.162
58432W        W30692  27.088  33.078  11.161
58433W        W30693  40.535  29.259  14.131
58434W        W30694  28.022  32.614   1.187
58435W        W30695  27.344  15.140   1.475
58436W        W30696  32.304  16.163  12.349
58437W        W30697  30.249   5.594  14.504
58438W        W30698  24.916  30.968   3.199
58439W        W30699  25.239  41.031  11.100
58440W        W30700  11.107  22.513  10.885
58441W        W30701  19.176  38.595  13.860
58442W        W30702  37.837  23.582   0.798
58443W        W30703  41.580  23.598   4.635
58444W        W30704  28.666   9.312  11.555
58445W        W30705  20.608  21.127  14.950
58446W        W30706   5.167  25.238   0.783
58447W        W30707  38.213  12.427  12.824
58448W        W30708  14.067  21.630   0.505
58449W        W30709  13.751  24.622   1.447
58450W        W30710   1.967  36.603   1.733
58451W        W30711  19.174   0.011   2.808
58452W        W30712  16.743  22.480   2.210
58453W        W30713  24.266   2.752   3.807
58454W        W30714  21.734   6.201  11.624
58455W        W30715  19.534   8.802  13.932
58456W        W30716  44.596  43.781  10.810
58457W        W30717   5.070  28.656   2.312
58458W        W30718  23.417  27.865   3.676
58459W        W30719  15.963   8.681  14.309
58460W        W30720  37.281  15.151   3.300
58461W        W30721  24.019   7.818  12.038
58462W        W30722  12.719  11.151   3.816
58463W        W30723   3.909  12.249  10.728
58464W        W30724  22.720  39.048  12.425
58465W        W30725  18.650  33.508   2.232
58466W        W30726  13.669  16.795   1.029
58467W        W30727   8.733   8.349   4.631
58468W        W30728  20.711  13.182  13.804
58469W        W30729  26.076  31.871  13.996
58470W        W30730  32.306  23.984   4.248
58471W        W30731  36.388  33.670  13.378
58472W        W30732  37.393  24.191  14.514
58473W        W30733  33.344  41.003   3.110
58474W        W30734  41.484  11.589  11.111
58475W        W30735  16.764  28.228  12.926
58476W        W30736  38.380  42.182  14.508
58477W        W30737  12.742  16.060  12.036
58478W        W30738   0.050  36.672   0.186
58479W        W30739  31.838  36.624  14.557
58480W        W30740  42.942  30.861   0.678
58481W        W30741  35.379  39.707  13.762
58482W        W30742  18.148  30.422   2.806
58483W        W30743  29.040   7.596  12.279
58484W        W30744   3.429   6.802  13.851
58485W        W30745  15.543  26.124  12.406
58486W        W30746  36.924  16.710   2.282
58487W        W30747   7.384  16.064  13.800
58488W        W30748  17.551  41.870   2.675
58489W        W30749   0.407  26.007  14.329
58490W        W30750  40.520  42.182   1.232
58491W        W30751  41.709  38.244   2.219
58492W        W30752  20.585  39.540   2.656
58493W        W30753  42.884  10.729  12.111
58494W        W30754  30.229  22.305  14.208
58495W        W30755  24.748  26.027   2.353
58496W        W30756   7.013  27.027   1.002
58497W        W30757  18.144  39.071  12.156
58498W        W30758  26.574  15.505   4.106
58499W        W30759  13.727   9.280   4.492
58500W        W30760  13.855  11.581  13.280
58501W        W30761  42.723   6.881  11.921
58502W        W30762  20.746  17.077   3.532
58503W        W30763  20.080  33.176  13.994
58504W        W30764   9.310  30.136   3.702
58505W        W30765  28.677   7.908   1.684
58506W        W30766  23.805  17.577  14.448
58507W        W30767  18.996  12.646  11.970
58508W        W30768   3.269  40.889  12.941
58509W        W30769  12.080  20.119  11.925
58510W        W30770  43.881  11.669   0.265
58511W        W30771  10.370   6.983   2.416
58512W        W30772  12.846  24.173  14.461
58513W        W30773  44.848  36.434  14.780
58514W        W30774  19.792  10.888   4.160
58515W        W30775  33.598  42.778   2.400
58516W        W30776  17.638   7.501  11.151
58517W        W30777   9.133  20.107   1.736
58518W        W30778  44.286  35.027  13.830
58519W        W30779  14.872  39.871  12.439
58520W        W30780   7.194  36.497   2.701
58521W        W30781  42.816   5.770   0.242
58522W        W30782  11.060  37.833   1.829
58523W        W30783  42.379   9.418  11.882
58524W        W30784  10.097  36.183   4.246
58525W        W30785   7.737  30.018  12.854
58526W        W30786  14.381  37.430  12.645
58527W        W30787  21.027  23.327   1.928
58528W        W30788  41.704  34.586   4.998
58529W        W30789  33.793  25.535   3.683
58530W        W30790  14.062  42.869  10.775
58531W        W30791  25.379   7.179   4.579
58532W        W30792  30.035   6.315   3.873
58533W        W30793  15.628  41.466   4.656
58534W        W30794  22.227  10.772   0.698
58535W        W30795  20.166  37.078   0.062
58536W        W30796  40.984  34.982   4.394
58537W        W30797  42.926  30.077  13.177
58538W        W30798  11.576   5.350   2.319
58539W        W30799  39.796  34.115   3.661
58540W        W30800   8.883  15.584  12.777
58541W        W30801  31.419  29.969   4.637
58542W        W30802  27.179  36.861   2.786
58543W        W30803  23.699   6.172  13.909
58544W        W30804  18.712  11.623   4.620
58545W        W30805  10.776  29.977  14.676
58546W        W30806  28.203  14.096  13.293
58547W        W30807   2.707  39.954  12.930
58548W        W30808  32.694  20.978  10.583
58549W        W30809  26.229   0.874   2.218
58550W        W30810   5.159  41.538   1.141
58551W        W30811  31.076  31.370  13.891
58552W        W30812   9.755  19.691  13.761
58553W        W30813  11.899  21.802  11.929
58554W        W30814  28.502  43.404  11.182
58555W        W30815  24.209   4.341   0.722
58556W        W30816   5.337  24.162   4.056
58557W        W30817  19.486   3.266   3.769
58558W        W30818  20.186  38.037  11.483
58559W        W30819   1.429  18.785  10.733
58560W        W30820  10.007  25.665  12.506
58561W        W30821  43.062  23.482   2.317
58562W        W30822   9.788  29.079  13.899
58563W        W30823   5.698  38.794  10.867
58564W        W30824   3.507  26.148   1.353
58565W        W30825  24.136  18.990   5.656
58566W        W30826  16.752   2.563  13.009
58567W        W30827   3.774  31.637   4.579
58568W        W30828  37.928  41.846  14.417
58569W        W30829   8.841  35.536  13.170
58570W        W30830  34.954  21.024  11.492
58571W        W30831  13.792  29.862   3.823
58572W        W30832   0.733  26.093  12.835
58573W        W30833  17.817  44.567   3.804
58574W        W30834  42.241   4.392  14.438
58575W        W30835  35.526  36.010   3.204
58576W        W30836  26.522  15.213  11.685
58577W        W30837  33.664  22.672  13.000
58578W        W30838   9.375  10.845   3.275
58579W        W30839   5.918  12.073   1.694
58580W        W30840  40.487  24.985  11.054
58581W        W30841  25.502  10.131  14.263
58582W        W30842  29.940  23.369   0.900
58583W        W30843  31.619   6.172   1.354
58584W        W30844  38.821  27.559   2.140
58585W        W30845  37.483  35.017   0.873
58586W        W30846  43.262  17.752  11.569
58587W        W30847  19.844  28.676  14.865
58588W        W30848  25.586  27.912  10.719
58589W        W30849  16.749  38.425   2.046
58590W        W30850   7.050  19.190  14.371
58591W        W30851   1.929  14.875  12.062
58592W        W30852  41.012  34.370   3.756
58593W        W30853  19.974  24.718   3.863
58594W        W30854   4.306  11.174   4.485
58595W        W30855  12.834  39.364  13.360
58596W        W30856  39.512  21.247   4.044
58597W        W30857  11.744  22.237  11.089
58598W        W30858  22.572  14.168  13.558
58599W        W30859  28.769  23.934  13.301
58600W        W30860   9.658  10.064   3.458
58601W        W30861  33.080   1.222   4.533
58602W        W30862  12.238   3.706   3.600
58603W        W30863  30.142  29.974   2.953
58604W        W30864  29.854  26.656  10.823
58605W        W30865   6.980  43.434   2.274
58606W        W30866  20.766  32.488   2.928
58607W        W30867  38.487   9.624   5.385
58608W        W30868  21.681  22.670   1.783
58609W        W30869  35.353   1.960  10.352
58610W        W30870  28.393  11.305  11.550
58611W        W30871  28.216  10.919  13.063
58612W        W30872  34.145  22.542  12.100
58613W        W30873   0.991  29.477   4.139
58614W        W30874  17.300  17.266   4.720
58615W        W30875   2.832  24.700   4.636
58616W        W30876  31.205  23.933   0.438
58617W        W30877  24.009  17.093  13.081
58618W        W30878  26.418   9.341  14.323
58619W        W30879  41.419  27.930  10.918
58620W        W30880   3.749  16.690   3.102
58621W        W30881  27.508  26.973   1.537
58622W        W30882  32.852   8.437   4.256
58623W        W30883  18.184  24.076   3.597
58624W        W30884   9.848  12.381   1.733
58625W        W30885   0.742  31.034   0.791
58626W        W30886  26.474   0.352  11.113
58627W        W30887   0.874  27.927   2.882
58628W        W30888  25.640   0.670   3.816
58629W        W30889   6.323  13.848   0.729
58630W        W30890  13.934  20.583  12.497
58631W        W30891  26.753  29.398  12.668
58632W        W30892  30.669  36.248   2.477
58633W        W30893   8.185  22.902   0.823
58634W        W30894  26.728  38.494  13.230
58635W        W30895  21.250  22.233   4.985
58636W        W30896  19.636  17.068  13.561
58637W        W30897   9.692   1.834  11.759
58638W        W30898  43.793  24.389   4.125
58639W        W30899  13.202  36.275  12.379
58640W        W30900  44.508  11.186  12.984
58641W        W30901  38.836  41.529  10.647
58642W        W30902   7.331  27.649  12.411
58643W        W30903  31.856  15.643   4.130
58644W        W30904  27.031  37.088  11.498
58645W        W30905  34.566  11.874  11.622
58646W        W30906  32.951  43.296  13.592
58647W        W30907  30.092  19.968   4.164
58648W        W30908  43.732  12.285  12.994
58649W        W30909  14.623  23.168  14.274
58650W        W30910  21.412  42.323   2.723
58651W        W30911   5.443  38.657   4.536
58652W        W30912  12.086  40.297   2.806
58653W        W30913  31.914   9.909  13.369
58654W        W30914  25.338   5.973  12.060
58655W        W30915  13.798  25.192  11.577
58656W        W30916  42.045  19.188   0.813
58657W        W30917  39.201   4.783   0.365
58658W        W30918  44.923   4.712   3.278
58659W        W30919  20.957  22.188  11.813
58660W        W30920   2.315  42.289  13.367
58661W        W30921  16.226   0.308   3.797
58662W        W30922  28.977   3.253  10.838
58663W        W30923  21.006  14.456   3.901
58664W        W30924  38.020  18.626   1.321
58665W        W30925   2.637  38.962   4.570
58666W        W30926  37.058  13.771  14.912
58667W        W30927   6.900   7.517  13.802
58668W        W30928  17.573  23.913   2.902
58669W        W30929   4.695  34.371  14.492
58670W        W30930  11.329   2.711   3.631
58671W        W30931  23.168  25.414   4.770
58672W        W30932   8.441  35.863  14.190
58673W        W30933   6.258  38.906  14.580
58674W        W30934  37.146  19.125  12.480
58675W        W30935   0.743  15.140   3.102
58676W        W30936  32.372   4.411   1.303
58677W        W30937  35.478  22.794   3.713
58678W        W30938  25.121  24.999   2.817
58679W        W30939  10.128  18.647   1.632
58680W        W30940  44.286   0.867   0.711
58681W        W30941  27.591   4.329   3.344
58682W        W30942  37.451  22.473  10.698
58683W        W30943   8.283  19.186  10.686
58684W        W30944  23.836  32.074   4.947
58685W        W30945  44.244  10.301  11.704
58686W        W30946   5.570  22.027   0.869
58687W        W30947  23.545   5.984   0.206
58688W        W30948   7.728  16.015   3.422
58689W        W30949   7.428  34.122   4.004
58690W        W30950  25.307  40.398  14.891
58691W        W30951  40.942  23.006   1.255
58692W        W30952   0.905   6.947  11.012
58693W        W30953  24.411  14.708  14.538
58694W        W30954   9.161  38.044   4.072
58695W        W30955  19.895  17.068   3.201
58696W        W30956  12.184  15.849   2.780
58697W        W30957   4.176   2.019   0.884
58698W        W30958   8.570  12.755   2.873
58699W        W30959   2.134  28.478   0.057
58700W        W30960  42.290  41.976  14.310
58701W        W30961  26.964  10.421  11.911
58702W        W30962  38.277  14.816   2.716
58703W        W30963  25.061  17.250   1.895
58704W        W30964  38.309  36.589  13.933
58705W        W30965  36.104   8.180   0.461
58706W        W30966  27.036   5.808   1.641
58707W        W30967  36.995   3.673   4.681
58708W        W30968  11.906   8.547   4.364
58709W        W30969  28.317  35.447  11.983
58710W        W30970  25.542  35.354   2.926
58711W        W30971  38.303   5.600   3.755
58712W        W30972  25.780   5.988   3.361
58713W        W30973   5.061  44.841  12.720
58714W        W30974  17.323  18.131   0.377
58715W        W30975  39.476  44.907  11.579
58716W        W30976  35.310  43.747  14.239
58717W        W30977   2.415  17.807   0.055
58718W        W30978  14.212  37.465   3.802
58719W        W30979  39.827  44.448   4.730
58720W        W30980  16.341  33.091  13.287
58721W        W30981  26.447  38.349   4.401
58722W        W30982  19.036  36.223   4.286
58723W        W30983  29.558  37.897  13.406
58724W        W30984  23.612   0.368  10.504
58725W        W30985   1.880  44.935  13.732
58726W        W30986  32.386  30.663  11.695
58727W        W30987   4.816  40.076   0.351
58728W        W30988   6.854   7.940   2.272
58729W        W30989  14.317   8.768   0.335
58730W        W30990  10.306  26.216   4.278
58731W        W30991   4.202  13.307  11.110
58732W        W30992  22.439  23.931   5.038
58733W        W30993  18.072  25.495   3.807
58734W        W30994  35.194  19.289   1.238
58735W        W30995   9.618  26.427   0.913
58736W        W30996   9.383  27.784  12.437
58737W        W30997   3.806  35.677   2.174
58738W        W30998  35.167  26.301  10.627
58739W        W30999  29.649   3.850  13.591
58740W        W31000  33.448  21.235  10.974
58741W        W31001  20.537  12.332  10.668
58742W        W31002  41.278  11.130   2.361
58743W        W31003  15.796  39.301   4.564
58744W        W31004  36.104   8.918  13.522
58745W        W31005   6.983  30.884  11.613
58746W        W31006  31.474  11.108   1.712
58747W        W31007  29.439  26.070  11.206
58748W        W31008  40.973  15.294   3.255
58749W        W31009   1.449   6.504   0.006
58750W        W31010  24.166   2.705  14.350
58751W        W31011  26.333   1.812   1.244
58752W        W31012  38.065  30.592   4.504
58753W        W31013   1.359  30.036  12.515
58754W        W31014  30.133  20.707  11.120
58755W        W31015  26.713  17.137  13.039
58756W        W31016  37.471  21.537  10.891
58757W        W31017  16.294  43.500   4.229
58758W        W31018  14.623  44.294   2.440
58759W        W31019   8.163  21.060   3.934
58760W        W31020   1.518  39.510   0.679
58761W        W31021  10.262   2.838  14.339
58762W        W31022  28.427  37.672   4.578
58763W        W31023  30.176  36.822  11.709
58764W        W31024   4.170  32.073   2.432
58765W        W31025  40.897  42.861  12.987
58766W        W31026  28.924  36.163   4.502
58767W        W31027  36.954   8.448   2.901
58768W        W31028  11.848  27.041   0.057
58769W        W31029  10.331  29.421   0.897
58770W        W31030  10.821   6.228   2.273
58771W        W31031  30.984  28.257  10.754
58772W        W31032  40.349  21.508  10.732
58773W        W31033  34.212  11.821   1.299
58774W        W31034  10.129  41.327   1.640
58775W        W31035  39.368  39.113   0.034
58776W        W31036   5.863  30.946  14.142
58777W        W31037  21.183  20.178  10.981
58778W        W31038  27.437  14.065   1.474
58779W        W31039  14.731  20.587  12.928
58780W        W31040  40.754  27.118   4.329
58781W        W31041  17.131  28.414   4.718
58782W        W31042  18.317   6.515  13.850
58783W        W31043  31.986  38.104   1.724
58784W        W31044   6.863  10.732   1.986
58785W        W31045  19.281  44.335   1.040
58786W        W31046   3.478  12.938  13.409
58787W        W31047  37.455   3.567   2.379
58788W        W31048  40.997  21.014   3.186
58789W        W31049  31.502  38.314  10.802
58790W        W31050  36.211  28.630  14.989
58791W        W31051  13.429  21.652  14.892
58792W        W31052  14.492  22.595   0.322
58793W        W31053  10.220   0.020   2.784
58794W        W31054  10.574  26.700   4.948
58795W        W31055  15.908   9.335   3.252
58796W        W31056  29.482  14.085   2.781
58797W        W31057  21.515  26.534   1.653
58798W        W31058   1.431   8.121   4.097
58799W        W31059   7.919  31.989   2.477
58800W        W31060  16.019  28.735  14.075
58801W        W31061  43.856  15.933  14.046
58802W        W31062  33.999   8.464  11.179
58803W        W31063  10.356  19.454   0.877
58804W        W31064   8.362  33.054  13.334
58805W        W31065  25.503  11.271  12.534
58806W        W31066  29.030   8.328  11.546
58807W        W31067   9.588  22.881   2.373
58808W        W31068  40.775  31.439   3.163
58809W        W31069  13.132  35.611   3.470
58810W        W31070  21.253  17.569   2.440
58811W        W31071   8.800  25.274   0.966
58812W        W31072  23.334  37.824   4.671
58813W        W31073  27.149  38.633  14.014
58814W        W31074  40.422  32.642  14.906
58815W        W31075  24.487  31.379  12.980
58816W        W31076  38.584  16.212   2.835
58817W        W31077   0.741  25.717   0.842
58818W        W31078  22.343  38.455   1.336
58819W        W31079  19.569  37.625  12.893
58820W        W31080  18.661  12.152   1.130
58821W        W31081  32.580  29.946   0.569
58822W        W31082  18.200  42.505   3.168
58823W        W31083   8.504  27.529  14.828
58824W        W31084   6.054   1.824   3.190
58825W        W31085  13.359  25.228   1.777
58826W        W31086  31.441  44.886  12.930
58827W        W31087   7.339  29.522   0.240
58828W        W31088   3.165  43.256  14.295
58829W        W31089  11.646  23.186  10.924
58830W        W31090  32.314  22.605  14.299
58831W        W31091   8.176  43.819  13.030
58832W        W31092  36.094  26.628  13.026
58833W        W31093  10.228  31.014  13.546
58834W        W31094  10.614  11.338   3.213
58835W        W31095  42.926  23.604   2.828
58836W        W31096  20.308  27.882  14.866
58837W        W31097  38.009  43.007   2.032
58838W        W31098  41.068  44.297  11.215
58839W        W31099  22.736  39.757  12.782
58840W        W31100   7.027  17.268   1.207
58841W        W31101   0.047  34.949  14.951
58842W        W31102   7.706  23.581   4.635
58843W        W31103  15.363  14.349  10.179
58844W        W31104   0.198  24.486   3.359
58845W        W31105  13.904   4.709   1.355
58846W        W31106  16.308   8.930  13.465
58847W        W31107   7.829  33.024   3.274
58848W        W31108  31.722  17.065   4.592
58849W        W31109  39.119   2.005  10.778
58850W        W31110  15.315  15.322   0.951
58851W        W31111  18.156   4.447   1.153
58852W        W31112  40.839  15.342  13.136
58853W        W31113   2.246  30.631   3.824
58854W        W31114  14.137  26.283   4.423
58855W        W31115  23.649  24.077  13.621
58856W        W31116  24.927  35.856   2.883
58857W        W31117  28.164  34.345  12.636
58858W        W31118  27.845  11.706   4.936
58859W        W31119  36.035  38.661  11.113
58860W        W31120  27.098  44.775   3.169
58861W        W31121  14.619  43.455   1.864
58862W        W31122   1.643   2.522  14.459
58863W        W31123  11.211  32.306   3.754
58864W        W31124  31.016  18.351  14.445
58865W        W31125  40.573  14.638  11.652
58866W        W31126  17.966  37.166  14.909
58867W        W31127  44.914  15.239   0.706
58868W        W31128  39.734   5.958  14.439
58869W        W31129   2.286  23.994   1.339
58870W        W31130  40.741  18.725  14.890
58871W        W31131   7.942   3.437   3.214
58872W        W31132  16.575  21.052   2.206
58873W        W31133   2.286  10.928   1.900
58874W        W31134  14.795  44.203  11.043
58875W        W31135  29.559  28.413  14.403
58876W        W31136   7.103  28.867   2.300
58877W        W31137  24.760  23.979   2.725
58878W        W31138  18.162  32.802   2.316
58879W        W31139   3.963   6.744   3.188
58880W        W31140  20.148  16.383   2.383
58881W        W31141  34.286  22.973  14.828
58882W        W31142  23.079  14.448   1.443
58883W        W31143  21.132   9.405  12.547
58884W        W31144   0.039  18.036   3.679
58885W        W31145  43.763  10.293  12.312
58886W        W31146  13.513   3.901  13.146
58887W        W31147  17.181  11.807   3.143
58888W        W31148  18.731  31.030  10.890
58889W        W31149  32.898  11.318  12.489
58890W        W31150  21.247  39.379   4.703
58891W        W31151  11.037  19.252  14.051
58892W        W31152  19.214  25.071  12.893
58893W        W31153   4.825  42.511   1.948
58894W        W31154  13.376  13.296  13.004
58895W        W31155  31.682   5.329  10.427
58896W        W31156  16.772  37.278  11.108
58897W        W31157  16.237  25.271   1.791
58898W        W31158   4.727  17.737   2.343
58899W        W31159   1.230  11.301  10.998
58900W        W31160  34.631  17.587  11.660
58901W        W31161  31.608  25.019  14.006
58902W        W31162   9.225  11.387  11.954
58903W        W31163  39.153  33.375   3.191
58904W        W31164   9.138  43.957  13.002
58905W        W31165  19.308  33.712  14.632
58906W        W31166   4.966  12.784   3.719
58907W        W31167  21.143  37.356  12.394
58908W        W31168  13.184  18.986  10.966
58909W        W31169  23.084  38.255   3.528
58910W        W31170  22.614   8.016   4.832
58911W        W31171  26.821  35.272  13.438
58912W        W31172   1.814   5.332  13.369
58913W        W31173  26.516  28.498  14.334
58914W        W31174  24.585  32.725   2.114
58915W        W31175   3.885  38.505   1.476
58916W        W31176  37.180   5.796   3.162
58917W        W31177  36.658  17.772   4.176
58918W        W31178  17.799  11.898   4.789
58919W        W31179  23.130  25.140  14.728
58920W        W31180  31.156  15.260   2.305
58921W        W31181   2.197  29.980  11.995
58922W        W31182  12.289   8.246   4.196
58923W        W31183  11.622   0.420  11.725
58924W        W31184  41.400   2.283   4.551
58925W        W31185  18.376  13.691   0.931
58926W        W31186  41.079   3.619  13.908
58927W        W31187  25.872   0.580   0.353
58928W        W31188   7.620  27.699   4.161
58929W        W31189  32.265  20.407   2.765
58930W        W31190   3.544  12.765   1.644
58931W        W31191  27.229   2.752   4.198
58932W        W31192  33.844  36.968  12.006
58933W        W31193   3.921  27.468  14.002
58934W        W31194  44.073  11.127   3.659
58935W        W31195  42.438  31.014   0.474
58936W        W31196   0.250  35.033  13.570
58937W        W31197   8.491  36.580  13.951
58938W        W31198   6.743  15.586  13.472
58939W        W31199  18.762  32.456  14.497
58940W        W31200   4.199  35.973  13.341
58941W        W31201  34.577  32.132   1.344
58942W        W31202   6.828  41.913   0.254
58943W        W31203  27.479  15.497   3.695
58944W        W31204   1.799  38.922  13.552
58945W        W31205  16.384   7.509  11.129
58946W        W31206  40.091  18.771  11.038
58947W        W31207   9.809   9.232   2.198
58948W        W31208   6.698   0.052  13.830
58949W        W31209  14.768  34.851  14.622
58950W        W31210  34.878  16.243   1.951
58951W        W31211  12.865  31.081   1.357
58952W        W31212  36.376  43.757   0.723
58953W        W31213  35.796  13.279   4.102
58954W        W31214  38.956  24.976  12.068
58955W        W31215  13.783   9.715   2.129
58956W        W31216   0.854  38.134   0.376
58957W        W31217   1.843  18.415  10.712
58958W        W31218   6.059  44.612  13.609
58959W        W31219  21.638  18.220  14.118
58960W        W31220   1.745  26.695  14.386
58961W        W31221  29.915  38.956  13.898
58962W        W31222  28.532   2.186   2.550
58963W        W31223   1.789  15.530  13.397
58964W        W31224  20.178  33.606   4.580
58965W        W31225  19.196  12.167  12.050
58966W        W31226   8.820   9.662   4.363
58967W        W31227  30.853  16.154  10.622
58968W        W31228   9.149  33.854  10.310
58969W        W31229   5.248  27.133  12.973
58970W        W31230  24.469   6.232  14.376
58971W        W31231  13.821  21.543   1.974
58972W        W31232  25.480  40.617   1.209
58973W        W31233  27.432  21.607   3.176
58974W        W31234  34.865   9.202  12.407
58975W        W31235   5.190  33.950   4.729
58976W        W31236   2.916  21.612  13.570
58977W        W31237  41.895   5.938  11.549
58978W        W31238  24.598  43.788   2.787
58979W        W31239   6.390  13.636  13.273
58980W        W31240  39.807  24.799   0.759
58981W        W31241  11.380  42.437  11.214
58982W        W31242  29.611  37.791  10.630
58983W        W31243  12.535  38.725  14.214
58984W        W31244   6.305  44.370  14.659
58985W        W31245  35.638   2.113  11.610
58986W        W31246  44.271  11.699  11.001
58987W        W31247   3.461  32.961   2.536
58988W        W31248  10.927  32.468   4.173
58989W        W31249  36.099  27.552  13.080
58990W        W31250  44.258  26.692  14.351
58991W        W31251  28.069  25.525  11.618
58992W        W31252  17.568  19.123  11.046
58993W        W31253  26.496   1.054   4.225
58994W        W31254  21.946  28.048  14.447
58995W        W31255  29.172  24.812  13.577
58996W        W31256  36.942  34.140   4.925
58997W        W31257  16.308  35.640  10.610
58998W        W31258  41.402   2.451  10.686
58999W        W31259  40.504  27.631  10.652
59000W        W31260   7.167   9.832  14.535
59001W        W31261  21.757   7.081  12.384
59002W        W31262  25.955  21.751   4.121
59003W        W31263  40.230   2.128   3.769
59004W        W31264  11.844  26.860   2.270
59005W        W31265  16.718  39.833  14.791
59006W        W31266   5.158  20.083  14.022
59007W        W31267  36.367  22.054  11.436
59008W        W31268  23.618  39.533   0.370
59009W        W31269   8.626   3.294  10.703
59010W        W31270  24.134  13.370  10.692
59011W        W31271   7.164  36.882  11.613
59012W        W31272  31.879  40.780   0.450
59013W        W31273  32.114  38.089   4.144
59014W        W31274   2.514  11.180  11.371
59015W        W31275  44.269   9.320  13.859
59016W        W31276   3.629  13.265  11.005
59017W        W31277  20.026  27.047  13.429
59018W        W31278  33.448  34.139   0.678
59019W        W31279  22.341  21.383   1.965
59020W        W31280   8.788  31.576  14.277
59021W        W31281  19.617  38.961  12.312
59022W        W31282  42.929  24.241   5.075
59023W        W31283  36.993  20.699  13.573
59024W        W31284  24.919   8.273  12.871
59025W        W31285  17.977   0.422   0.315
59026W        W31286   8.622  41.178   2.645
59027W        W31287   2.561  43.675   1.940
59028W        W31288   0.089  30.546   0.639
59029W        W31289  13.085  10.784  11.748
59030W        W31290  12.194  14.339  13.035
59031W        W31291   4.239   3.967   4.128
59032W        W31292  19.613  22.103   1.288
59033W        W31293  42.694  21.601   2.268
59034W        W31294  11.262  30.893  12.116
59035W        W31295  19.581  43.481  14.047
59036W        W31296  19.347   7.770   2.419
59037W        W31297   0.441   4.764   3.550
59038W        W31298  10.469  15.627  14.886
59039W        W31299  20.023  36.566   3.420
59040W        W31300  42.374  19.059  12.770
59041W        W31301  36.050  34.538   2.021
59042W        W31302   9.705  38.963  12.929
59043W        W31303   5.886   4.693  14.407
59044W        W31304  27.256  27.446   1.676
59045W        W31305  15.046  18.349   0.991
59046W        W31306  29.692  15.305  13.466
59047W        W31307   0.916  17.065   4.689
59048W        W31308  18.840  28.532   3.194
59049W        W31309  17.123  28.244  14.970
59050W        W31310  38.848  40.629   3.300
59051W        W31311   7.672  42.824   0.706
59052W        W31312  16.134   2.116   1.627
59053W        W31313  33.690   6.253   0.342
59054W        W31314  12.895  14.743  14.070
59055W        W31315  16.415  30.473   3.644
59056W        W31316  28.170  44.315  14.577
59057W        W31317  39.046  32.480  11.130
59058W        W31318  41.747  30.526   1.240
59059W        W31319  12.646  13.977   0.337
59060W        W31320  33.507  18.002  14.017
59061W        W31321  40.566  27.470   2.859
59062W        W31322   8.660  20.180   4.566
59063W        W31323   5.807  26.509  14.406
59064W        W31324  29.170   3.250   0.913
59065W        W31325  40.043  21.339  12.684
59066W        W31326  36.322  26.903   3.322
59067W        W31327   4.866   3.657   4.363
59068W        W31328  36.051  20.061  10.693
59069W        W31329  23.048  16.201  12.475
59070W        W31330   7.962   9.176   1.834
59071W        W31331   1.924  10.268  11.998
59072W        W31332   2.995  28.031   4.738
59073W        W31333  43.805   5.246  10.876
59074W        W31334  30.966  41.321   2.755
59075W        W31335  36.567   1.694  11.397
59076W        W31336  25.642   7.230  14.741
59077W        W31337  44.817  30.597   0.204
59078W        W31338  33.478  19.940   9.757
59079W        W31339  36.852   3.176  12.062
59080W        W31340  15.241  41.866   1.619
59081W        W31341   7.304  26.010  11.917
59082W        W31342  33.328  19.137   3.855
59083W        W31343  42.543  37.214  14.311
59084W        W31344   4.283  30.246  13.789
59085W        W31345   3.502  23.939  12.281
59086W        W31346  22.711   8.894  13.522
59087W        W31347  39.950  33.220   2.443
59088W        W31348  21.050  14.795  11.384
59089W        W31349  19.025  44.690   2.342
59090W        W31350  18.696  40.770  14.807
59091W        W31351   4.666   5.958   4.102
59092W        W31352  40.393  36.046   0.767
59093W        W31353  38.091  19.546  13.001
59094W        W31354   6.407  36.054   4.383
59095W        W31355  35.483   2.017   3.833
59096W        W31356  29.980  14.023  14.435
59097W        W31357   4.695  43.939  12.206
59098W        W31358  25.177  35.170  13.161
59099W        W31359  34.454  26.709  12.351
59100W        W31360  41.143   6.301  11.224
59101W        W31361   4.481  20.705   1.260
59102W        W31362  38.475   7.829   0.351
59103W        W31363  41.914   6.844  14.921
59104W        W31364   0.827  21.772   4.343
59105W        W31365   8.786  25.331   2.761
59106W        W31366  11.568   2.902   3.174
59107W        W31367  13.051  13.325  10.988
59108W        W31368  23.463  29.907  13.279
59109W        W31369  11.719  11.756  14.279
59110W        W31370  23.528   2.027  11.530
59111W        W31371  30.522   1.439   4.871
59112W        W31372  27.953   1.511  13.995
59113W        W31373  15.491   6.662   1.593
59114W        W31374  26.896  29.747   4.145
59115W        W31375  23.680  35.917   1.246
59116W        W31376   5.501  15.356   0.403
59117W        W31377  43.750  33.566  14.586
59118W        W31378  25.545  32.943  13.064
59119W        W31379  34.634  34.325  13.568
59120W        W31380  12.040   1.483   3.170
59121W        W31381  42.957  21.081  11.423
59122W        W31382  11.909  31.679  12.442
59123W        W31383   1.958  17.094   0.572
59124W        W31384   2.331  15.323  13.035
59125W        W31385  26.365  27.568  13.205
59126W        W31386  27.421  40.699  10.420
59127W        W31387  23.311  23.608  12.078
59128W        W31388   6.336   5.384  14.400
59129W        W31389   2.257  44.549   1.898
59130W        W31390  11.869  11.821   3.292
59131W        W31391   7.217  20.668   0.474
59132W        W31392  36.061  40.743   3.703
59133W        W31393   2.717  20.974   2.177
59134W        W31394  31.375  14.317  13.409
59135W        W31395  37.331  23.366  11.188
59136W        W31396  34.075   5.296  12.847
59137W        W31397  16.558  37.707   3.635
59138W        W31398  23.218  14.760   1.030
59139W        W31399   2.949  31.883  13.413
59140W        W31400  42.213  19.988  10.807
59141W        W31401  40.778  19.539   4.916
59142W        W31402  24.796  25.885  11.386
59143W        W31403  41.513  10.305  10.688
59144W        W31404  38.093  38.745  10.256
59145W        W31405  39.349  11.511  12.017
59146W        W31406   7.764   1.828   4.937
59147W        W31407  38.134  13.120   4.423
59148W        W31408  12.649  32.613   4.164
59149W        W31409  17.643  28.927  14.325
59150W        W31410  24.495  19.487   4.004
59151W        W31411   1.390  41.479   4.352
59152W        W31412  18.321  36.484  11.061
59153W        W31413  36.663  35.331  11.156
59154W        W31414  19.967  24.522  14.869
59155W        W31415  32.869  32.801  13.837
59156W        W31416  11.756  17.974  14.436
59157W        W31417  29.469  26.666   5.123
59158W        W31418  43.368  15.137   4.393
59159W        W31419   9.383   1.283  14.794
59160W        W31420  31.666  35.604  12.519
59161W        W31421  31.621   6.525  12.038
59162W        W31422  38.653  30.427   1.237
59163W        W31423   8.835  18.296  12.116
59164W        W31424  17.126  13.677  13.990
59165W        W31425  30.536  37.052  14.840
59166W        W31426  41.004   0.394   3.618
59167W        W31427   8.939   4.262  10.982
59168W        W31428  26.494  44.062  10.324
59169W        W31429  23.243   5.021   3.082
59170W        W31430  31.662  33.466  11.535
59171W        W31431  13.848  13.892   0.687
59172W        W31432  40.701  35.706  13.309
59173W        W31433   6.236  36.481   4.127
59174W        W31434  11.918  41.320   2.639
59175W        W31435   9.405  44.360  14.283
59176W        W31436  38.825  35.320  10.600
59177W        W31437  21.027  39.029   3.069
59178W        W31438  43.041  36.323   3.721
59179W        W31439  31.598  19.336  12.094
59180W        W31440  15.194  39.336   3.340
59181W        W31441   5.304  32.579  13.137
59182W        W31442  21.657  36.973   0.491
59183W        W31443  42.976  38.308  14.460
59184W        W31444  19.069  36.447   2.272
59185W        W31445  16.154  33.417   2.801
59186W        W31446   5.409  29.511   2.279
59187W        W31447  15.030   0.747  14.370
59188W        W31448  13.213  30.905  10.679
59189W        W31449  40.359  41.478   4.504
59190W        W31450  15.600  28.032  14.165
59191W        W31451  21.644  42.258  11.143
59192W        W31452   2.272  19.591   0.855
59193W        W31453  28.584  41.390  13.589
59194W        W31454  40.385   0.247  14.904
59195W        W31455  38.895  40.098  13.405
59196W        W31456  37.855  34.496  14.229
59197W        W31457   8.113  26.534  14.943
59198W        W31458  16.486  26.236   3.817
59199W        W31459  10.806   3.794   3.262
59200W        W31460   0.390  37.284   3.749
59201W        W31461  17.678  41.249  14.035
59202W        W31462  35.038   1.608   0.867
59203W        W31463   2.376  22.249   4.453
59204W        W31464  40.537  10.738  10.734
59205W        W31465  34.946  16.502  12.994
59206W        W31466  30.940   8.488   1.872
59207W        W31467  16.655  24.153  14.572
59208W        W31468  40.158  22.015   1.081
59209W        W31469  22.482  26.491  10.167
59210W        W31470  29.198   8.398   0.938
59211W        W31471  24.274  26.035   2.133
59212W        W31472  29.520  16.764  14.399
59213W        W31473  44.741   7.353  14.002
59214W        W31474  17.356  40.090  11.601
59215W        W31475  17.699  34.037  11.213
59216W        W31476   2.405  25.449  14.355
59217W        W31477  21.109  14.817  11.915
59218W        W31478   8.202   6.700  12.886
59219W        W31479  16.106  12.627   4.671
59220W        W31480   0.338  42.622  13.418
59221W        W31481  32.142  15.138  10.794
59222W        W31482  22.771  24.398  14.453
59223W        W31483  28.396  15.099   0.281
59224W        W31484  22.564  41.060   4.926
59225W        W31485  37.131  12.263   2.434
59226W        W31486  44.913  23.245   3.655
59227W        W31487   1.919  43.065   1.869
59228W        W31488   4.342  24.472   4.156
59229W        W31489  24.299  27.934   4.997
59230W        W31490  43.259  29.113   4.249
59231W        W31491  44.416  37.259   4.066
59232W        W31492  16.207  16.881   5.119
59233W        W31493  11.151  31.005   3.624
59234W        W31494  35.357   6.763   1.202
59235W        W31495  39.539  32.639   3.639
59236W        W31496   4.322  32.900  11.669
59237W        W31497  11.203  15.575  14.362
59238W        W31498  17.316  10.900  13.758
59239W        W31499   7.811  42.011   0.297
59240W        W31500  10.907  44.325   2.863
59241W        W31501  34.965  31.951   4.082
59242W        W31502   6.546   0.749  12.645
59243W        W31503   0.456  37.259  13.288
59244W        W31504  31.343  37.946  11.591
59245W        W31505  35.286  31.567  13.388
59246W        W31506   7.808  27.442  12.423
59247W        W31507  37.066   4.279   0.500
59248W        W31508  33.594  29.080  12.101
59249W        W31509   6.526  15.263   0.975
59250W        W31510  22.503  27.036   0.922
59251W        W31511  37.363  21.099   4.880
59252W        W31512  39.005   5.008  10.833
59253W        W31513  36.775  16.605   4.126
59254W        W31514  41.542  11.197  11.567
59255W        W31515   4.624   4.861   2.321
59256W        W31516  43.745   0.848   0.738
59257W        W31517  22.490  27.564   1.808
59258W        W31518  32.592   9.214   3.770
59259W        W31519  15.244  23.229  13.624
59260W        W31520  17.537   8.707   0.680
59261W        W31521  24.322  27.211   4.038
59262W        W31522  22.691   9.641   1.695
59263W        W31523  35.590  11.649   0.206
59264W        W31524  32.493  15.754   0.639
59265W        W31525  17.502  21.214  13.151
59266W        W31526  19.825  32.434   2.383
59267W        W31527  13.384  11.209   4.811
59268W        W31528   5.890   5.427  13.229
59269W        W31529   6.973  16.933  13.943
59270W        W31530  34.071  27.922  12.330
59271W        W31531  40.394  12.156   4.599
59272W        W31532  38.136  11.596   0.150
59273W        W31533  43.802  17.264   4.501
59274W        W31534  44.816  23.619   2.200
59275W        W31535  44.348  38.320  12.030
59276W        W31536  35.798  34.574   3.624
59277W        W31537  15.061  31.114   1.420
59278W        W31538  31.156  43.764   2.957
59279W        W31539  27.087   6.744   4.279
59280W        W31540  33.559   0.300  13.418
59281W        W31541  41.446  17.770  14.533
59282W        W31542  30.355  17.249  13.418
59283W        W31543  40.574  41.412  12.945
59284W        W31544  38.843  36.040   1.219
59285W        W31545   0.242   9.704   1.879
59286W        W31546  41.577   0.737  13.341
59287W        W31547   3.122  14.709  11.508
59288W        W31548  44.945  26.009  14.042
59289W        W31549  30.399  28.200   1.763
59290W        W31550   3.028  13.628   3.847
59291W        W31551  43.963  40.548  11.932
59292W        W31552  13.281  40.827  12.461
59293W        W31553  33.600  44.459   0.882
59294W        W31554  38.634   0.298   2.495
59295W        W31555  31.044  39.069  10.671
59296W        W31556  16.129  14.127   3.376
59297W        W31557  21.607  19.101  13.929
59298W        W31558  12.306  10.767   3.206
59299W        W31559  26.615  41.857   2.130
59300W        W31560   0.722  36.124  11.641
59301W        W31561  17.059  15.633  14.013
59302W        W31562  17.324  10.652  14.577
59303W        W31563  36.995  20.590  14.483
59304W        W31564  31.856  11.947   2.286
59305W        W31565  12.901  41.305   1.061
59306W        W31566  41.495  42.864  10.935
59307W        W31567  42.412  30.048   1.439
59308W        W31568  11.963  12.577   0.832
59309W        W31569   1.542  29.425   2.424
59310W        W31570   7.919  18.660  11.370
59311W        W31571   5.945  44.886  11.053
59312W        W31572  14.130  32.887  14.689
59313W        W31573  33.384  11.565   3.565
59314W        W31574  18.742  26.768   2.812
59315W        W31575   1.400   9.435  13.958
59316W        W31576  24.004  17.502  12.105
59317W        W31577  24.716  28.118  14.068
59318W        W31578  18.118  28.224  12.051
59319W        W31579  22.553   2.762  11.077
59320W        W31580  43.006  34.214  13.666
59321W        W31581  19.499  13.552  12.083
59322W        W31582  38.701   5.885  14.388
59323W        W31583  41.484  18.574  12.962
59324W        W31584   1.211  33.659  14.424
59325W        W31585   0.978  34.441   4.132
59326W        W31586   9.808  30.461  12.226
59327W        W31587  28.520  14.562   4.687
59328W        W31588   4.734  24.438  10.449
59329W        W31589   5.919  22.450   0.869
59330W        W31590  36.052   0.692  12.977
59331W        W31591  27.849  29.932   1.754
59332W        W31592  20.515  37.854  10.670
59333W        W31593  30.932  33.725   0.218
59334W        W31594  28.172  25.255  14.292
59335W        W31595  28.691  40.426   4.258
59336W        W31596  19.296  10.079   3.768
59337W        W31597  23.291  43.895  12.981
59338W        W31598  25.516  24.281   0.078
59339W        W31599  38.374  24.542  12.588
59340W        W31600  39.194  35.052  14.562
59341W        W31601   9.097  34.486  11.136
59342W        W31602  38.600  33.179   1.490
59343W        W31603  14.362  36.146  12.184
59344W        W31604  11.626  10.570  12.161
59345W        W31605  15.757  39.511  14.033
59346W        W31606  15.660   4.013   3.093
59347W        W31607   5.406  13.618  11.366
59348W        W31608  15.152   8.866  10.558
59349W        W31609  10.862  43.723   1.644
59350W        W31610   4.075  36.459  11.070
59351W        W31611  12.850  36.598  14.486
59352W        W31612  30.495  14.606   0.096
59353W        W31613  30.895  38.946   3.896
59354W        W31614  12.159  10.594   1.179
59355W        W31615  24.242  11.782  10.708
59356W        W31616  33.872  33.191  12.402
59357W        W31617  28.866  41.502   4.119
59358W        W31618  10.863  36.339   4.565
59359W        W31619  43.238  20.506  10.728
59360W        W31620   9.683  42.683   4.689
59361W        W31621  43.163  24.024   0.665
59362W        W31622   9.978  22.279  12.127
59363W        W31623  43.158  12.093  12.037
59364W        W31624  37.660  18.265   2.239
59365W        W31625  17.709   9.507  12.580
59366W        W31626  27.202   0.801  11.732
59367W        W31627  27.944  31.610  10.128
59368W        W31628  14.673  29.866  11.830
59369W        W31629   3.064  31.304   2.850
59370W        W31630  15.031  33.883   2.211
59371W        W31631  29.696  12.439  11.712
59372W        W31632  37.451  21.083   1.735
59373W        W31633  16.530  30.595  10.702
59374W        W31634   3.018  35.848  12.039
59375W        W31635  44.454  38.381  10.172
59376W        W31636  16.389  39.282   1.718
59377W        W31637  27.561  32.634  13.783
59378W        W31638  17.771  28.721  12.939
59379W        W31639   3.175  13.628  14.107
59380W        W31640  24.234  11.831   4.115
59381W        W31641  26.474  21.782   2.968
59382W        W31642  42.221  30.618   3.119
59383W        W31643  14.353  18.577  13.466
59384W        W31644  19.308  43.846   1.235
59385W        W31645  37.177  16.576  12.261
59386W        W31646  15.621  20.572  11.115
59387W        W31647  28.640  29.445   3.130
59388W        W31648  17.258  30.782  11.587
59389W        W31649  20.723  40.375   2.671
59390W        W31650  40.021  23.510   2.756
59391W        W31651  21.636  11.187   0.485
59392W        W31652  15.689  20.006   4.120
59393W        W31653  42.428  12.729  13.734
59394W        W31654   3.178  29.594   2.261
59395W        W31655   5.018   5.746   1.001
59396W        W31656  10.374   2.718  13.374
59397W        W31657  25.408  43.489  12.505
59398W        W31658   2.563  32.575   0.454
59399W        W31659  32.528  42.853  11.725
59400W        W31660  36.484  23.223   2.822
59401W        W31661  44.842  13.394   1.926
59402W        W31662  41.436  39.010   4.563
59403W        W31663  32.510  12.324   1.242
59404W        W31664  16.713  25.486   1.751
59405W        W31665  43.582  20.601   3.643
59406W        W31666  24.581  33.803   4.701
59407W        W31667  41.398  28.974  12.110
59408W        W31668   9.762  11.432  13.346
59409W        W31669   4.423  32.535  13.283
59410W        W31670   9.553  21.500   5.059
59411W        W31671  31.162  11.300  11.880
59412W        W31672  40.539  38.648   2.879
59413W        W31673  42.890   3.681  10.779
59414W        W31674  39.481   1.838   2.291
59415W        W31675  13.613  44.226   0.271
59416W        W31676  31.586  18.692   0.852
59417W        W31677  13.661  26.031  12.004
59418W        W31678  37.101  42.331   2.962
59419W        W31679  32.186  23.962   1.359
59420W        W31680  23.236  44.467   1.656
59421W        W31681  13.641   1.388  13.016
59422W        W31682  26.156  21.562   1.400
59423W        W31683   9.252   7.233  13.793
59424W        W31684  13.052  15.587   1.374
59425W        W31685  40.556  28.654   4.733
59426W        W31686   3.465  28.622   3.133
59427W        W31687  37.346  15.797  12.913
59428W        W31688  40.977  44.060  13.102
59429W        W31689  32.019  38.048  13.459
59430W        W31690  21.130  18.160   3.791
59431W        W31691  15.560  33.265  11.875
59432W        W31692  14.320  37.309   1.202
59433W        W31693  14.932  36.065   2.014
59434W        W31694   0.381  44.873  11.169
59435W        W31695  29.381  19.256  10.744
59436W        W31696  26.447  36.495   1.557
59437W        W31697  41.264  40.015  12.994
59438W        W31698   0.277  33.165  10.606
59439W        W31699  39.543   6.237   2.686
59440W        W31700  27.945  30.704  10.100
59441W        W31701   4.899  12.095  10.695
59442W        W31702  31.718   1.478  14.301
59443W        W31703  38.358  29.849  13.963
59444W        W31704   0.027  22.482   2.837
59445W        W31705   1.914  32.187   0.233
59446W        W31706  24.129  41.184  13.277
59447W        W31707   2.534  39.347  11.624
59448W        W31708  30.448  36.039   3.237
59449W        W31709  31.240   4.935   1.879
59450W        W31710  33.354   1.426   3.763
59451W        W31711   0.859  26.693   9.865
59452W        W31712   8.846  26.467   3.698
59453W        W31713  10.890  40.790   4.041
59454W        W31714  31.854  39.042   0.923
59455W        W31715  32.651  20.781   2.890
59456W        W31716  37.293   5.276   1.356
59457W        W31717  10.366  12.547  11.161
59458W        W31718  17.355   6.855   0.283
59459W        W31719  39.634  13.641  14.477
59460W        W31720  29.363   8.454  11.150
59461W        W31721  29.240  32.744  12.061
59462W        W31722   4.741  19.554   0.160
59463W        W31723   1.254   7.787  12.064
59464W        W31724  44.263  43.833  13.883
59465W        W31725  24.014  22.487  12.475
59466W        W31726  43.191  28.928  11.153
59467W        W31727   5.527  26.214  11.596
59468W        W31728  36.300   0.316   0.960
59469W        W31729   5.305  27.144  11.456
59470W        W31730  23.050  21.488   5.020
59471W        W31731  21.403  44.245  12.374
59472W        W31732  41.455  38.440   3.238
59473W        W31733  34.491  29.602   2.644
59474W        W31734  44.916  18.337  11.266
59475W        W31735  27.496  29.565   0.347
59476W        W31736  36.919   6.045  14.930
59477W        W31737  30.438  31.694   4.511
59478W        W31738  29.184  32.509   2.208
59479W        W31739  20.549  10.174   0.221
59480W        W31740   1.261   7.138   3.730
59481W        W31741   5.278  10.042   1.167
59482W        W31742  41.413  37.001   4.861
59483W        W31743  35.123  42.774   2.883
59484W        W31744  44.875  15.501   1.174
59485W        W31745  14.911  37.180   2.318
59486W        W31746  21.314  37.888  14.264
59487W        W31747  18.088  12.768  10.434
59488W        W31748  33.999  18.020   0.692
59489W        W31749  39.338   3.937   2.082
59490W        W31750   9.069  15.109   2.836
59491W        W31751  30.499  42.276   1.621
59492W        W31752  37.586  31.089  11.687
59493W        W31753  37.282  43.221   3.152
59494W        W31754  31.218  42.560  12.983
59495W        W31755  20.183  39.460  13.893
59496W        W31756   8.523  24.166  12.914
59497W        W31757   3.265  18.242  13.143
59498W        W31758   6.303  30.030   4.241
59499W        W31759   1.350  33.131  14.344
59500W        W31760  12.562  29.969   4.225
59501W        W31761  37.075  33.192   2.254
59502W        W31762  20.288  39.124  11.609
59503W        W31763  31.610  35.420  11.620
59504W        W31764  36.022  10.632   4.895
59505W        W31765  27.861  36.098   4.618
59506W        W31766  43.316  35.497   0.335
59507W        W31767  32.430  43.299  10.924
59508W        W31768  13.657  30.470   2.850
59509W        W31769  27.980   3.353   0.804
59510W        W31770   9.757  20.095  13.405
59511W        W31771  32.018  29.719   5.052
59512W        W31772   4.601   2.407  12.943
59513W        W31773  20.981  27.254  14.000
59514W        W31774  14.796  14.026  11.112
59515W        W31775  25.034  40.025  10.110
59516W        W31776  12.702   6.765  10.801
59517W        W31777  20.665  43.805   3.306
59518W        W31778  15.162  21.246  11.942
59519W        W31779   6.719  39.278   3.317
59520W        W31780   8.464  27.008   1.500
59521W        W31781  38.803  20.228  12.913
59522W        W31782  43.099   1.915  10.943
59523W        W31783  10.211  33.095  12.455
59524W        W31784  30.474   8.291  12.469
59525W        W31785   5.771   1.286   0.364
59526W        W31786   4.481  24.735   3.700
59527W        W31787   9.792  22.966   0.736
59528W        W31788   7.111  17.437  13.976
59529W        W31789   6.717  26.984  13.300
59530W        W31790  17.256  37.091  11.714
59531W        W31791  36.496  16.077  14.892
59532W        W31792  20.612  15.061   3.308
59533W        W31793  31.539   9.496  14.522
59534W        W31794  11.083   2.511   2.701
59535W        W31795   3.731  39.547   3.160
59536W        W31796  29.447  44.032  13.241
59537W        W31797  33.993  35.576  10.973
59538W        W31798   9.301  24.827   3.197
59539W        W31799  19.983  12.158   4.734
59540W        W31800   2.790  24.562   1.406
59541W        W31801   2.685  12.014  11.939
59542W        W31802   0.529  14.190   3.143
59543W        W31803  39.346  24.796  12.397
59544W        W31804  35.889  31.404  13.487
59545W        W31805   8.010  21.717  12.148
59546W        W31806  39.578  18.337   1.217
59547W        W31807   0.419  19.814   3.790
59548W        W31808  13.860  37.618  11.464
59549W        W31809  39.365  12.980  10.758
59550W        W31810  33.854  39.978  13.718
59551W        W31811  16.430   9.843   2.218
59552W        W31812  19.226  44.387  11.553
59553W        W31813  37.970  40.750   4.277
59554W        W31814  38.006  10.244   4.672
59555W        W31815  18.692  21.328   3.691
59556W        W31816  25.573  11.603  12.100
59557W        W31817  22.342  10.589   4.179
59558W        W31818  26.468  32.094  13.756
59559W        W31819  32.575  29.298  13.472
59560W        W31820  10.271   0.413  14.343
59561W        W31821  25.727  37.103  10.886
59562W        W31822  11.323  16.489   4.350
59563W        W31823  27.410  28.490  13.302
59564W        W31824  13.197  28.683   4.455
59565W        W31825  18.592  20.451   4.187
59566W        W31826  11.393  43.356   2.265
59567W        W31827  24.526  10.372  12.738
59568W        W31828  43.556  28.102  10.675
59569W        W31829   9.484  37.316   0.908
59570W        W31830  39.602   6.652   2.342
59571W        W31831  29.886   9.862   1.510
59572W        W31832  16.061  39.233  13.464
59573W        W31833  29.788  33.903   1.972
59574W        W31834  40.796  41.253   4.324
59575W        W31835  30.847  41.944  13.937
59576W        W31836  24.633  37.336  13.379
59577W        W31837  24.169  42.348   3.675
59578W        W31838  34.684  21.999   2.794
59579W        W31839   4.911  33.568  13.927
59580W        W31840   4.156   7.957  11.063
59581W        W31841  19.284   9.631  10.703
59582W        W31842  14.086  24.611   0.324
59583W        W31843   2.511  17.337   3.271
59584W        W31844   2.866  13.327   0.246
59585W        W31845   7.791  43.587  12.546
59586W        W31846  31.477  31.646   2.370
59587W        W31847  27.565  30.089   2.925
59588W        W31848   1.517  23.193  11.149
59589W        W31849  42.283  13.508  14.754
59590W        W31850  32.839  39.006  10.967
59591W        W31851  22.511  22.191  13.924
59592W        W31852  38.802   8.059  14.965
59593W        W31853  16.127   2.326  13.378
59594W        W31854  24.588  28.610  11.131
59595W        W31855   3.695  32.595   1.467
59596W        W31856  31.145  17.154  12.486
59597W        W31857  26.994   7.410  11.281
59598W        W31858  41.062  42.265   1.006
59599W        W31859  31.652   3.067  10.919
59600W        W31860   0.382  11.142   1.245
59601W        W31861  17.676   1.871  12.680
59602W        W31862  26.669  17.850   3.132
59603W        W31863  36.948  17.713   2.326
59604W        W31864  36.598  30.261  14.271
59605W        W31865  26.936  22.722   3.719
59606W        W31866  34.205  22.631  13.962
59607W        W31867  34.960  42.605  13.570
59608W        W31868  36.519  15.771  14.459
59609W        W31869  41.791  17.070  14.983
59610W        W31870  22.033   5.197  14.921
59611W        W31871  43.728  38.002  11.602
59612W        W31872   0.820  23.954   1.266
59613W        W31873  34.153  17.064  14.179
59614W        W31874  32.823  36.892   2.268
59615W        W31875  17.650  13.219  12.078
59616W        W31876  26.458  37.327  12.430
59617W        W31877  32.418  38.351  14.370
59618W        W31878  29.289   2.337  12.960
59619W        W31879  22.046   1.499  12.029
59620W        W31880  36.993  19.710   2.783
59621W        W31881  29.355  32.889  10.022
59622W        W31882  38.211  37.494  10.226
59623W        W31883  31.505  27.490  10.711
59624W        W31884  19.208  25.743  11.678
59625W        W31885  34.014  44.832   4.575
59626W        W31886  19.649   5.970   4.834
59627W        W31887  31.513  11.570   1.945
59628W        W31888  13.174  25.940  14.524
59629W        W31889  35.102   2.037   1.157
59630W        W31890  10.761   1.527  11.183
59631W        W31891  39.244  37.841  14.515
59632W        W31892   0.351   2.175  14.029
59633W        W31893  18.769  43.419   3.005
59634W        W31894  27.023  42.414   1.991
59635W        W31895  23.012  33.095   2.129
59636W        W31896  30.552  23.055   3.824
59637W        W31897   5.313  21.133   0.393
59638W        W31898  37.782  37.519   0.465
59639W        W31899  19.743  24.624   1.977
59640W        W31900  42.812   2.345  12.116
59641W        W31901  35.881  31.910  11.306
59642W        W31902  28.916   8.156  13.250
59643W        W31903   7.164  41.860  11.115
59644W        W31904  10.852  13.175   1.482
59645W        W31905   1.830  22.781  13.172
59646W        W31906  22.170  37.195  13.408
59647W        W31907  32.008   9.780  12.021
59648W        W31908  20.768  32.968   3.153
59649W        W31909  20.100  42.312   3.409
59650W        W31910  42.734  21.068   3.764
59651W        W31911  42.940  12.843   2.792
59652W        W31912   2.253  10.149   0.798
59653W        W31913  17.205  28.151  11.487
59654W        W31914  34.774   1.728   1.913
59655W        W31915   7.782   1.357  14.551
59656W        W31916  22.663  34.143   4.047
59657W        W31917   3.805  40.407   1.928
59658W        W31918  27.894   6.412  10.991
59659W        W31919  11.837  44.383   0.667
59660W        W31920  40.582  15.725  11.167
59661W        W31921  21.076  21.146   0.343
59662W        W31922  26.247   7.425   0.812
59663W        W31923  25.728  42.577   3.808
59664W        W31924   0.403   1.115  11.554
59665W        W31925  12.768  44.068  14.585
59666W        W31926   7.824   7.194  13.381
59667W        W31927  13.268  21.758  14.041
59668W        W31928  19.043  37.608  12.127
59669W        W31929  36.326   7.770   0.223
59670W        W31930  22.127   0.294  12.769
59671W        W31931  37.263  31.871   2.775
59672W        W31932  36.282  30.660   0.828
59673W        W31933   1.350  42.464  10.829
59674W        W31934  35.926  25.290   0.284
59675W        W31935  40.596   2.704  12.337
59676W        W31936  25.557  12.512   1.497
59677W        W31937   0.433  35.137  14.591
59678W        W31938  22.706  37.381  12.472
59679W        W31939   2.911  28.662   4.041
59680W        W31940  36.917   5.692  14.544
59681W        W31941   8.339  24.503   2.691
59682W        W31942  30.465  41.387  10.743
59683W        W31943  26.266  21.780  11.504
59684W        W31944  29.264  12.113  12.887
59685W        W31945  20.207  18.824  11.055
59686W        W31946   9.109  26.936  10.452
59687W        W31947   9.959  32.200   4.359
59688W        W31948  11.288  16.071   3.759
59689W        W31949   3.461  10.799  10.592
59690W        W31950  39.741   6.881  13.865
59691W        W31951  44.354  23.268  11.131
59692W        W31952  13.153   0.165   0.747
59693W        W31953  18.973  28.731   0.336
59694W        W31954  38.721  36.129  13.508
59695W        W31955   1.721   4.197  12.074
59696W        W31956  24.476  25.917   4.030
59697W        W31957   7.471   2.354   3.318
59698W        W31958  22.245  34.058  11.139
59699W        W31959  16.370  16.077   3.146
59700W        W31960  14.292  35.046  14.450
59701W        W31961  11.165  20.088  12.109
59702W        W31962  23.067  41.484   2.169
59703W        W31963   2.992   3.322   3.774
59704W        W31964   1.895  12.175   1.394
59705W        W31965  29.402  29.928   4.672
59706W        W31966   0.892   2.038  12.938
59707W        W31967   0.491  34.884   0.772
59708W        W31968  42.788   0.925   4.604
59709W        W31969  10.711  40.081   2.852
59710W        W31970  36.423  38.533  12.819
59711W        W31971  15.702  21.579   3.397
59712W        W31972   0.254  19.631  14.483
59713W        W31973  36.520  38.282  14.506
59714W        W31974  30.622  15.791   1.377
59715W        W31975  37.697  11.667   1.758
59716W        W31976  22.646  37.488  11.598
59717W        W31977  32.192   3.651  12.077
59718W        W31978  30.338  23.289   4.263
59719W        W31979  43.418  30.236  12.027
59720W        W31980   7.442  19.677   3.223
59721W        W31981  40.922  29.643   3.442
59722W        W31982   7.703  42.891  11.609
59723W        W31983  15.088  36.597   4.214
59724W        W31984  30.709  24.731   2.250
59725W        W31985  43.928  42.882  14.811
59726W        W31986  11.876  25.485  12.437
59727W        W31987  12.817  25.672  10.560
59728W        W31988  36.952  18.291   3.723
59729W        W31989  25.747  26.082  10.448
59730W        W31990  14.839  38.964  10.206
59731W        W31991  15.708  41.477   2.710
59732W        W31992  19.775  18.344  13.769
59733W        W31993  17.678  23.011   3.354
59734W        W31994   8.550   2.885   3.619
59735W        W31995   7.373  32.815   3.721
59736W        W31996  20.770  41.504   1.871
59737W        W31997  21.522  26.654   5.121
59738W        W31998  36.816  15.800  12.859
59739W        W31999  20.157   7.574   3.312
59740W        W32000   5.805  12.216  12.994
59741W        W32001  17.763  26.103   4.292
59742W        W32002  20.246  37.666  13.794
59743W        W32003  43.342  16.576   3.142
59744W        W32004  28.032  40.377  11.096
59745W        W32005   8.725  24.476  14.863
59746W        W32006   9.090  31.992  14.438
59747W        W32007   6.450  20.939   5.052
59748W        W32008  43.974  29.652   4.115
59749W        W32009  41.440  40.342  14.361
59750W        W32010  27.991   5.510  11.017
59751W        W32011  32.462   8.402  11.969
59752W        W32012  27.002  39.810   0.376
59753W        W32013  41.411  25.281  13.997
59754W        W32014  19.343   1.932  10.630
59755W        W32015  13.308  32.302  10.634
59756W        W32016   6.957  27.308   9.961
59757W        W32017  37.119   6.116   1.701
59758W        W32018  21.039  44.498  11.505
59759W        W32019  28.565   1.848  11.116
59760W        W32020  38.112  31.619   1.560
59761W        W32021  28.626  34.372   1.484
59762W        W32022  17.744  21.584   0.819
59763W        W32023   7.892  22.061   4.189
59764W        W32024  20.535  33.181   3.589
59765W        W32025  10.357  41.611  13.948
59766W        W32026  38.531  31.776  11.966
59767W        W32027  35.320  12.667  14.280
59768W        W32028  11.298  33.287   3.469
59769W        W32029  16.944   6.844   1.950
59770W        W32030  37.247  44.210   3.073
59771W        W32031  37.074  14.288   5.212
59772W        W32032   4.856   9.180  14.329
59773W        W32033  21.923  25.674  10.573
59774W        W32034   6.161  40.469   3.324
59775W        W32035  26.940  24.842   0.932
59776W        W32036  40.362  14.284  10.761
59777W        W32037  43.992  15.197  12.081
59778W        W32038   7.181  17.680  11.705
59779W        W32039  39.348  43.037   2.225
59780W        W32040  13.405  32.075  10.089
59781W        W32041  17.961  14.379   2.283
59782W        W32042  38.124  39.973   0.017
59783W        W32043  27.583  16.281  13.985
59784W        W32044   7.204  27.395   0.169
59785W        W32045  17.976  17.753   1.331
59786W        W32046  41.814  42.599   2.680
59787W        W32047   9.584   5.435  12.897
59788W        W32048  35.180  23.964   0.412
59789W        W32049  33.385  37.079  11.180
59790W        W32050  22.191  21.355  12.778
59791W        W32051   8.600  15.096   0.861
59792W        W32052  13.719  14.436  12.306
59793W        W32053  33.418  17.136  10.690
59794W        W32054  37.096  24.589  10.716
59795W        W32055  22.687   5.849  14.580
59796W        W32056  44.262   2.253  14.839
59797W        W32057  30.594  22.249  12.822
59798W        W32058  32.065  30.857   0.582
59799W        W32059  11.954  40.840  14.245
59800W        W32060   4.230  12.088   0.442
59801W        W32061   4.286  38.321  13.849
59802W        W32062   2.234  22.095   2.336
59803W        W32063  18.119  16.870  12.536
59804W        W32064   1.510  26.117   4.082
59805W        W32065   4.356  11.284  11.888
59806W        W32066  32.658  13.787   0.264
59807W        W32067  32.574  39.502  12.020
59808W        W32068  37.281  39.869   0.328
59809W        W32069  20.021  34.649   0.272
59810W        W32070  34.074   4.453   2.849
59811W        W32071  16.228  28.627   0.210
59812W        W32072   6.462  39.486   1.387
59813W        W32073  28.698   6.016   0.704
59814W        W32074  25.843  14.818   3.709
59815W        W32075  12.768   1.673  11.488
59816W        W32076  19.731  34.430  13.727
59817W        W32077   1.404  27.833   4.790
59818W        W32078  19.968  32.691  14.099
59819W        W32079  42.986  18.626  14.551
59820W        W32080  34.303   6.355  10.681
59821W        W32081   8.339  19.072  12.941
59822W        W32082  37.908  37.297  14.514
59823W        W32083  43.567  21.687   1.962
59824W        W32084  35.487  44.891  14.964
59825W        W32085  12.203   1.567   3.680
59826W        W32086  27.601   7.554  12.480
59827W        W32087  34.613  40.290  13.359
59828W        W32088  16.543  16.824  13.283
59829W        W32089  40.381  12.929   3.204
59830W        W32090  34.653  32.631   1.292
59831W        W32091  21.695   7.627   2.896
59832W        W32092  41.309   8.223  12.430
59833W        W32093  41.151  35.304  11.979
59834W        W32094  14.056  40.435  11.633
59835W        W32095  33.816  36.271   2.938
59836W        W32096  21.925  44.396  10.607
59837W        W32097  43.233  44.918   2.764
59838W        W32098  24.686  37.520   3.583
59839W        W32099  39.473  23.834  12.489
59840W        W32100  36.101  36.010  11.465
59841W        W32101  19.763  44.363   4.359
59842W        W32102  25.032  22.208   0.918
59843W        W32103  16.828  18.532   3.626
59844W        W32104   6.886  15.607   2.496
59845W        W32105  37.809  25.525   1.504
59846W        W32106  10.644  22.569   3.737
59847W        W32107  23.162  12.340  11.931
59848W        W32108  22.112  39.425  11.612
59849W        W32109  28.884   0.407  13.048
59850W        W32110  17.490   2.910   2.018
59851W        W32111  20.347   7.099   3.225
59852W        W32112  41.318   4.883   4.311
59853W        W32113  16.708  36.452  13.999
59854W        W32114  17.275   6.458   4.346
59855W        W32115  37.976  34.806   4.156
59856W        W32116  19.080  12.595   3.524
59857W        W32117  17.556  26.179  14.468
59858W        W32118  40.573  22.907  13.554
59859W        W32119  11.684  29.653   2.749
59860W        W32120  44.320  31.667   4.460
59861W        W32121  25.730   3.522  10.599
59862W        W32122   6.797  28.674  12.063
59863W        W32123  16.799  42.238  13.720
59864W        W32124  41.550  26.239  12.657
59865W        W32125  30.561   9.081   0.021
59866W        W32126  11.690  24.568   3.862
59867W        W32127  13.846  27.920   5.052
59868W        W32128  41.480  35.769   3.353
59869W        W32129   7.741   0.555   1.455
59870W        W32130  16.909  28.583   1.862
59871W        W32131  43.328   9.198   0.443
59872W        W32132  38.981  11.318  10.113
59873W        W32133  16.308  25.367   4.011
59874W        W32134  33.236  38.390   0.506
59875W        W32135  17.838   4.276  10.624
59876W        W32136   3.447  42.333  14.968
59877W        W32137  29.857  44.113   1.201
59878W        W32138   6.529  26.578   4.221
59879W        W32139  23.772  27.652   0.349
59880W        W32140  22.646   7.652   2.438
59881W        W32141  43.868  42.317  12.442
59882W        W32142  11.145   0.959  10.441
59883W        W32143  28.902  35.459  10.319
59884W        W32144  18.267  42.830   1.818
59885W        W32145   1.963  21.219   2.798
59886W        W32146  17.228  36.501   1.659
59887W        W32147  10.690  35.025   4.125
59888W        W32148  25.597  37.309   2.420
59889W        W32149  17.231  43.181  14.897
59890W        W32150  26.248  37.780  10.626
59891W        W32151  44.724   9.836   1.874
59892W        W32152  21.052   9.398   0.131
59893W        W32153   0.372  39.097  13.452
59894W        W32154  31.607  24.787   2.276
59895W        W32155  13.674  30.614  10.770
59896W        W32156   2.931  40.928  13.524
59897W        W32157  13.789  16.844   4.754
59898W        W32158  17.096  22.940   3.405
59899W        W32159  17.643  25.023   2.262
59900W        W32160  44.247  22.066  11.949
59901W        W32161  33.964  13.007  12.434
59902W        W32162  41.361   6.583  10.855
59903W        W32163   7.417  36.821   3.345
59904W        W32164   7.228  29.093   1.822
59905W        W32165   5.966  11.933  13.834
59906W        W32166   9.019   6.169   3.586
59907W        W32167   2.226   9.909   2.758
59908W        W32168  31.520  26.214   3.794
59909W        W32169  22.238  42.014  13.814
59910W        W32170  11.354   6.695  11.028
59911W        W32171  20.621  23.660   1.929
59912W        W32172  21.586  11.130   3.166
59913W        W32173  13.349   0.229  11.110
59914W        W32174  15.341  16.782  11.502
59915W        W32175   4.530  23.106   3.258
59916W        W32176  20.702  38.605   2.914
59917W        W32177  43.758  28.030  13.090
59918W        W32178  40.348  11.350   2.323
59919W        W32179  36.562  26.160  14.464
59920W        W32180  14.709  28.117   2.145
59921W        W32181  15.938  12.090  12.542
59922W        W32182  18.727  29.090  13.512
59923W        W32183  22.635   6.629   0.961
59924W        W32184  32.185   4.631   3.745
59925W        W32185  17.841  36.522  12.905
59926W        W32186  28.182  15.811   2.973
59927W        W32187   2.987   4.522  11.507
59928W        W32188   3.142  36.603   2.655
59929W        W32189  44.512  33.591   2.792
59930W        W32190   7.583   4.367   1.810
59931W        W32191  22.768  13.862   4.672
59932W        W32192  32.112   5.174  13.683
59933W        W32193  27.636  28.885  14.823
59934W        W32194  25.930  24.029   0.228
59935W        W32195  35.316  10.623  11.040
59936W        W32196  36.440  16.271  14.374
59937W        W32197  15.075  23.697  11.576
59938W        W32198  26.959  39.775   3.265
59939W        W32199  14.141   8.744   0.871
59940W        W32200  38.371   7.603  12.759
59941W        W32201  43.872  30.127  11.601
59942W        W32202  17.614  30.390   2.057
59943W        W32203  12.380  14.799   3.675
59944W        W32204   7.887  32.523   0.790
59945W        W32205  11.728   6.211   1.359
59946W        W32206  11.280  23.184   1.880
59947W        W32207  37.658   2.297   4.916
59948W        W32208  32.370   4.679  14.911
59949W        W32209  13.304  28.122   0.373
59950W        W32210   4.286  15.088   4.696
59951W        W32211  20.315  40.843   0.959
59952W        W32212  44.763   7.726  13.397
59953W        W32213  25.081   4.664   0.888
59954W        W32214   2.703  41.389  11.251
59955W        W32215   7.854  29.650  13.533
59956W        W32216  14.983  33.011  14.701
59957W        W32217  31.189  28.248   0.477
59958W        W32218  32.558  34.941  13.008
59959W        W32219  26.045  15.751   4.461
59960W        W32220   1.209  15.375  11.563
59961W        W32221  25.476   8.852  10.414
59962W        W32222  13.828  30.979  12.360
59963W        W32223  41.808  43.546   2.811
59964W        W32224  17.951  30.623   1.760
59965W        W32225  38.057  41.342  12.078
59966W        W32226  12.160  24.738   0.007
59967W        W32227  38.428  15.031  13.643
59968W        W32228  10.036  33.915   1.375
59969W        W32229  32.284  27.607  11.087
59970W        W32230  38.044  18.128   1.509
59971W        W32231   6.220  22.692  12.953
59972W        W32232  22.250   1.673   0.914
59973W        W32233  14.299  38.943  12.782
59974W        W32234  31.240  44.816  13.748
59975W        W32235  19.136  16.375   4.641
59976W        W32236  11.558   5.860  10.659
59977W        W32237  42.491   1.921  11.907
59978W        W32238  39.832  44.867   3.386
59979W        W32239  43.319  16.752   1.283
59980W        W32240   4.826  32.125  11.733
59981W        W32241  29.765  14.358  12.215
59982W        W32242  41.489  34.338  14.030
59983W        W32243  39.980  40.489   2.365
59984W        W32244  19.226  40.364  11.111
59985W        W32245  16.391  44.343  10.739
59986W        W32246   3.405  27.970   2.289
59987W        W32247  17.702  19.660   1.117
59988W        W32248  20.113  22.900  13.157
59989W        W32249   0.419  36.136   0.953
59990W        W32250  14.910  14.575   4.157
59991W        W32251  18.894  41.026   1.235
59992W        W32252  35.637  16.057   4.658
59993W        W32253  40.609   5.168   2.444
59994W        W32254  44.892  20.845   0.684
59995W        W32255  38.539  26.995   0.393
59996W        W32256  25.811  20.200   3.458
59997W        W32257  15.715  10.273   4.659
59998W        W32258  32.705  18.592   0.988
59999W        W32259  41.452   0.296   3.888
60000W        W32260  22.796  40.380   1.722
60001W        W32261   2.751  34.478   0.479
60002W        W32262   7.626  17.311  14.775
60003W        W32263   9.066   4.588  10.110
60004W        W32264  43.793  13.776  13.015
60005W        W32265  16.894  37.634  10.557
60006W        W32266  40.504  30.326  13.171
60007W        W32267  37.416   6.858  13.208
60008W        W32268  29.538   6.711  13.026
60009W        W32269  11.828   7.690   4.757
60010W        W32270  41.312  40.978  10.512
60011W        W32271  35.987   6.111   0.960
60012W        W32272  35.418  27.018  13.993
60013W        W32273  15.491  32.444  12.028
60014W        W32274  22.252  44.998  11.023
60015W        W32275  24.168   7.853   0.324
60016W        W32276  26.734  41.932  14.756
60017W        W32277  32.198  31.859   3.559
60018W        W32278  33.165   2.756   2.675
60019W        W32279   6.658  40.996  11.062
60020W        W32280  39.868   6.858   2.741
60021W        W32281  25.101   6.569  13.573
60022W        W32282  26.137   5.670   2.702
60023W        W32283   0.794   9.807   4.669
60024W        W32284  22.182  21.809   2.264
60025W        W32285   5.414   6.365  11.085
60026W        W32286  10.344   2.509   1.255
60027W        W32287   4.469  38.127  12.034
60028W        W32288  29.643  21.698   0.507
60029W        W32289   6.806   6.767  13.589
60030W        W32290   2.155  22.955  11.508
60031W        W32291   8.284   9.828  14.322
60032W        W32292  16.986  34.938  14.571
60033W        W32293   9.816  30.989  14.847
60034W        W32294  42.369  18.548   2.336
60035W        W32295  31.035  30.957   4.620
60036W        W32296  14.298  14.199  13.564
60037W        W32297  39.598   1.533  12.689
60038W        W32298   7.838  16.882  10.769
60039W        W32299  41.564   3.962  10.665
60040W        W32300   5.179  22.220   2.405
60041W        W32301  36.674   9.965   1.035
60042W        W32302   6.491  38.411  12.694
60043W        W32303  20.137  31.229  14.049
60044W        W32304   4.829  13.555   0.898
60045W        W32305  24.720  16.701   3.613
60046W        W32306  17.624  38.594   2.329
60047W        W32307   1.354  43.369   4.382
60048W        W32308  32.875  32.523   0.083
60049W        W32309  38.213  40.820  10.305
60050W        W32310   6.701  21.809   3.426
60051W        W32311  23.638  29.683   3.121
60052W        W32312   8.600  43.202  12.012
60053W        W32313  33.837  27.519  11.245
60054W        W32314  31.568  29.220  11.127
60055W        W32315  39.778  14.592  11.136
60056W        W32316   8.218   8.318   2.286
60057W        W32317  31.815  10.656   2.884
60058W        W32318   0.942  12.166   1.380
60059W        W32319  27.237  10.124   1.038
60060W        W32320  22.792  39.092  13.619
60061W        W32321   7.163   4.176   2.629
60062W        W32322   5.320   7.016   0.268
60063W        W32323   2.815  24.085  12.526
60064W        W32324   3.900   1.677  14.532
60065W        W32325   0.991   6.222  14.775
60066W        W32326  39.529  37.479  12.006
60067W        W32327  44.112  15.212   2.685
60068W        W32328  20.142  22.716  11.582
60069W        W32329  30.973  43.067  14.385
60070W        W32330  16.051   7.177  12.850
60071W        W32331  40.286  13.716  11.642
60072W        W32332  16.782  38.290  11.928
60073W        W32333  33.570  36.573  13.979
60074W        W32334  34.026   5.730  13.119
60075W        W32335  33.429  34.988  14.063
60076W        W32336   6.640  33.811  12.991
60077W        W32337  42.325   2.704   4.673
60078W        W32338  21.104  26.717   2.869
60079W        W32339  21.174  26.101  10.163
60080W        W32340  24.184   6.226  14.810
60081W        W32341  26.942  32.524  12.944
60082W        W32342  35.141  24.949   0.326
60083W        W32343  43.155  26.574  11.356
60084W        W32344  38.095  21.726   0.214
60085W        W32345  33.944  28.788  12.950
60086W        W32346  24.592  33.176  13.325
60087W        W32347  40.508  39.798  11.858
60088W        W32348  20.447  32.100  10.585
60089W        W32349  11.267  43.509   1.344
60090W        W32350  14.122  16.555   0.235
60091W        W32351  17.091  21.061  11.875
60092W        W32352  14.841  36.963   1.386
60093W        W32353  37.379  30.121  12.805
60094W        W32354  27.533  31.561   5.468
60095W        W32355  36.551  18.093  10.090
60096W        W32356  34.656  13.215  14.078
60097W        W32357  41.563  37.633  10.566
60098W        W32358  34.370  20.059   1.663
60099W        W32359  17.563  39.536   2.416
60100W        W32360  25.168  19.616   3.245
60101W        W32361  10.527  24.118  13.317
60102W        W32362  41.583  12.846  10.744
60103W        W32363  43.877  38.302   0.489
60104W        W32364  16.698   4.561  14.537
60105W        W32365  14.805   2.421  12.889
60106W        W32366  36.757  43.295  12.316
60107W        W32367   7.967  16.132   4.770
60108W        W32368  33.473  22.186   3.733
60109W        W32369  18.946  26.452   0.548
60110W        W32370   2.158  25.653   2.616
60111W        W32371  26.406  42.337   2.868
60112W        W32372  10.452  18.790   0.291
60113W        W32373  10.095  34.877   1.319
60114W        W32374  10.103   5.016   4.401
60115W        W32375   1.436  31.162  14.336
60116W        W32376  21.194  22.209  14.497
60117W        W32377   2.874  15.561   4.272
60118W        W32378   1.049   2.795   1.753
60119W        W32379  14.524  30.743   3.206
60120W        W32380   4.366  43.865  11.479
60121W        W32381  37.151  25.286   1.315
60122W        W32382   9.600   4.918  12.977
60123W        W32383  22.595   4.515   3.432
60124W        W32384  19.022   5.042  11.597
60125W        W32385  41.465  11.353   0.938
60126W        W32386   0.016   7.758  13.841
60127W        W32387   3.803  28.961  11.990
60128W        W32388  33.807  14.307   0.845
60129W        W32389  37.822   7.812  14.139
60130W        W32390  19.060  42.061  10.607
60131W        W32391  31.370  37.547   2.405
60132W        W32392  13.832  11.383   0.011
60133W        W32393  10.215  39.249  12.940
60134W        W32394   9.152  30.364  12.915
60135W        W32395   8.302  44.736   0.841
60136W        W32396  38.027   7.331   2.156
60137W        W32397  26.250  24.712   4.472
60138W        W32398  27.271  12.390  14.972
60139W        W32399  34.812  37.719  11.924
60140W        W32400   1.905   2.836   4.585
60141W        W32401  15.982  40.804  14.477
60142W        W32402  20.326  32.080  14.803
60143W        W32403  40.528  24.607   3.939
60144W        W32404  20.830  22.653   4.155
60145W        W32405  10.282  17.095  14.953
60146W        W32406  24.982  26.531   2.449
60147W        W32407   8.691   4.915   3.286
60148W        W32408  32.423   9.219  12.916
60149W        W32409  10.397  27.447  12.344
60150W        W32410  44.280  31.718  14.603
60151W        W32411   1.289  38.872   3.726
60152W        W32412  22.042  25.657  12.882
60153W        W32413  31.449   3.323   3.625
60154W        W32414  43.870   7.173  12.970
60155W        W32415  35.906   6.435  14.983
60156W        W32416  15.287   2.688  10.561
60157W        W32417  32.614  39.462  11.126
60158W        W32418   4.177  14.951   0.603
60159W        W32419  19.185   0.955  14.274
60160W        W32420  28.567  14.385   0.763
60161W        W32421  35.867  36.207   1.964
60162W        W32422  21.467  35.476  13.503
60163W        W32423  40.531  20.815   0.769
60164W        W32424  26.452   2.370  14.554
60165W        W32425  23.627  34.295  13.302
60166W        W32426   2.252   1.269  12.303
60167W        W32427   7.852   6.170   4.466
60168W        W32428  10.437   0.883   2.947
60169W        W32429  33.022  23.264   1.751
60170W        W32430  28.055   8.193  14.985
60171W        W32431  33.863   9.363  11.536
60172W        W32432  33.921  42.950   1.600
60173W        W32433  32.389  15.598   3.219
60174W        W32434   7.146  32.518   3.354
60175W        W32435  23.590  37.081  13.917
60176W        W32436  25.989  39.815   1.301
60177W        W32437  39.319  21.793  11.597
60178W        W32438   7.455   5.408  13.254
60179W        W32439  23.728  17.601   4.357
60180W        W32440   7.723  44.406  13.067
60181W        W32441  24.031   4.867  14.499
60182W        W32442  32.605  44.225  14.756
60183W        W32443  25.247  33.354   0.774
60184W        W32444  29.270   8.048  12.369
60185W        W32445  26.717  30.446  12.860
60186W        W32446  42.375  24.621   0.891
60187W        W32447   1.201   3.410   0.475
60188W        W32448  23.626  43.497  13.004
60189W        W32449  25.536  24.820  13.024
60190W        W32450  15.587  33.930   2.238
60191W        W32451  12.028  23.495   1.387
60192W        W32452  12.149  14.800  12.526
60193W        W32453  11.021   8.835  12.119
60194W        W32454  35.592  18.787  12.122
60195W        W32455  13.788  12.888  10.612
60196W        W32456  40.901  16.515   4.196
60197W        W32457  44.944  40.398  12.031
60198W        W32458  33.120   7.427  14.922
60199W        W32459  19.647  41.217  14.996
60200W        W32460  12.724   6.523  14.553
60201W        W32461  18.618   8.763  14.302
60202W        W32462  43.123  35.405  12.772
60203W        W32463  32.302   7.286   4.647
60204W        W32464  37.100  38.108  12.833
60205W        W32465  15.870   3.999  11.897
60206W        W32466  26.929  16.782  13.396
60207W        W32467  24.995  14.897   4.061
60208W        W32468  40.341  29.616  14.858
60209W        W32469  21.627   9.606  10.611
60210W        W32470  38.549  29.685   1.302
60211W        W32471  33.478  11.250  11.608
60212W        W32472  15.851  15.192   2.198
60213W        W32473  37.259  33.506  12.905
60214W        W32474  43.093  31.056  13.252
60215W        W32475   0.738  42.501   2.693
60216W        W32476  29.397  28.076  12.386
60217W        W32477  23.029  18.712  13.468
60218W        W32478  38.311   0.003  13.003
60219W        W32479  41.113  39.714   4.257
60220W        W32480   4.946   8.404  11.104
60221W        W32481  10.766   5.857   3.324
60222W        W32482  23.617  21.139  14.782
60223W        W32483  27.631  10.712   3.922
60224W        W32484  20.797  16.250  12.951
60225W        W32485  12.178  25.060  14.060
60226W        W32486   1.040  35.918  10.208
60227W        W32487  38.917  18.335   5.013
60228W        W32488  24.178  28.668   2.291
60229W        W32489  36.106  12.866  14.729
60230W        W32490  32.328  32.049  13.553
60231W        W32491   9.244  31.970  11.420
60232W        W32492  36.454  21.362  14.644
60233W        W32493  31.474   3.994   1.791
60234W        W32494  13.570  33.444   2.237
60235W        W32495  35.879  16.868   3.177
60236W        W32496  31.362   4.973  10.669
60237W        W32497  24.136  12.760  13.891
60238W        W32498  30.146   9.272  12.178
60239W        W32499  29.130  43.700  11.977
60240W        W32500  19.594   8.892   4.345
60241W        W32501  10.746  35.740  14.408
60242W        W32502  29.586  19.733   5.034
60243W        W32503  21.116   2.120   2.675
60244W        W32504  39.774  21.540  13.882
60245W        W32505  16.806  18.182   1.664
60246W        W32506   1.934  20.029   3.389
60247W        W32507  41.169   1.364  14.899
60248W        W32508  11.321  41.432   3.558
60249W        W32509  33.653  19.218  10.533
60250W        W32510  22.291  17.700  14.368
60251W        W32511  26.892  10.891   3.200
60252W        W32512  37.626  32.569   2.690
60253W        W32513  11.658  43.522  13.994
60254W        W32514  29.611  25.180   3.422
60255W        W32515  38.822  32.847  12.516
60256W        W32516  22.992  24.656  14.895
60257W        W32517  22.821  38.077  14.436
60258W        W32518   9.795   5.011  11.584
60259W        W32519  39.059  19.157  14.932
60260W        W32520  10.001   3.692   4.488
60261W        W32521  10.662  41.944   0.480
60262W        W32522  31.432  35.379   2.055
60263W        W32523  20.752  34.056   2.683
60264W        W32524  34.387  23.647  14.513
60265W        W32525  39.455  20.677   1.387
60266W        W32526  44.775  39.549   0.752
60267W        W32527  37.551   2.049   0.075
60268W        W32528  13.769  44.259   2.831
60269W        W32529  16.839  23.600  14.629
60270W        W32530   5.177  12.790   3.244
60271W        W32531  29.353  18.623  14.576
60272W        W32532  42.765  26.765  14.779
60273W        W32533  27.987  25.106  12.130
60274W        W32534  23.666  27.217   4.605
60275W        W32535  41.245  27.917   2.359
60276W        W32536  43.388  18.133   4.637
60277W        W32537  16.460   9.861  13.691
60278W        W32538  22.312   0.193  11.501
60279W        W32539  42.580  17.007   2.326
60280W        W32540   6.249  31.382   2.827
60281W        W32541  38.277   9.308   5.009
60282W        W32542  15.901  31.877  14.479
60283W        W32543   8.063  39.025  11.682
60284W        W32544  43.996  25.818  12.484
60285W        W32545  42.673  26.678   0.846
60286W        W32546   5.747  42.264   4.398
60287W        W32547  24.573  29.414  13.053
60288W        W32548   0.343  10.157  10.885
60289W        W32549   0.350   3.359   0.265
60290W        W32550   7.461   3.224   1.769
60291W        W32551  40.892  41.285  14.816
60292W        W32552  11.332  15.221  11.213
60293W        W32553  18.263  39.980  12.984
60294W        W32554  12.397  32.308  10.978
60295W        W32555  19.624  25.508  14.590
60296W        W32556  11.775  41.582  11.550
60297W        W32557   3.417   6.695  11.273
60298W        W32558  15.294   3.482   0.233
60299W        W32559  34.231   6.414  11.633
60300W        W32560  14.290  28.970  10.464
60301W        W32561  24.287  26.043  13.726
60302W        W32562  21.316  13.101   2.762
60303W        W32563   6.994  37.092  11.154
60304W        W32564   5.825  30.024  10.677
60305W        W32565  44.273  17.794  11.526
60306W        W32566  44.300   2.484   4.638
60307W        W32567  13.780  19.583   2.335
60308W        W32568  39.935   3.426   3.758
60309W        W32569  28.657  42.012   0.879
60310W        W32570   0.919  18.658  10.803
60311W        W32571  37.846  41.999   0.459
60312W        W32572  43.364  36.912   3.883
60313W        W32573  11.798  12.898   0.434
60314W        W32574  33.943   8.548   1.372
60315W        W32575  39.908  42.487  13.209
60316W        W32576  44.420   4.680   0.015
60317W        W32577  25.245   5.916   1.711
60318W        W32578   9.851  39.110   0.911
60319W        W32579  13.222  24.773  14.817
60320W        W32580  33.494  22.996   1.822
60321W        W32581  20.268  33.093  13.005
60322W        W32582   7.730  33.364  14.562
60323W        W32583  40.620  38.421  10.623
60324W        W32584  38.875   9.582   3.752
60325W        W32585  15.449  26.667   5.008
60326W        W32586   5.432  21.547   2.908
60327W        W32587   8.713  15.835  11.766
60328W        W32588  34.673  42.533   3.238
60329W        W32589  20.057  23.503   1.658
60330W        W32590   6.796  12.573  14.587
60331W        W32591  22.544  11.723  13.869
60332W        W32592   7.177  10.892   4.145
60333W        W32593   3.319  36.766   4.097
60334W        W32594  32.627  35.485  11.558
60335W        W32595  24.083  35.935  11.831
60336W        W32596  31.333   8.979   4.844
60337W        W32597  18.012  21.304  12.990
60338W        W32598  34.025   5.759  12.064
60339W        W32599   6.926  28.568  13.492
60340W        W32600   3.871  38.375   2.978
60341W        W32601  14.277  35.937   1.355
60342W        W32602  37.008   5.959  11.055
60343W        W32603  13.786  44.511  12.436
60344W        W32604  24.606  22.652   4.380
60345W        W32605  18.229   8.738   3.079
60346W        W32606   2.716   8.867  13.018
60347W        W32607  44.540  41.987  14.858
60348W        W32608  11.870  31.331   1.262
60349W        W32609  39.378  42.393  13.172
60350W        W32610  31.878  33.047  13.922
60351W        W32611  19.632  35.466   4.679
60352W        W32612  32.590  12.738   4.543
60353W        W32613  28.725  36.253   1.311
60354W        W32614  37.064  42.076  11.605
60355W        W32615  10.396  23.267   0.379
60356W        W32616   2.015  16.698  13.904
60357W        W32617  29.453  23.753   0.506
60358W        W32618  16.546  11.842  12.928
60359W        W32619  16.676  18.515   0.855
60360W        W32620  13.585  43.407   1.203
60361W        W32621  31.724  36.079   4.676
60362W        W32622  22.002  17.331  12.498
60363W        W32623  21.466   9.292   3.199
60364W        W32624   3.885  25.701   1.310
60365W        W32625   0.208   9.298  11.524
60366W        W32626  38.089  12.201  11.540
60367W        W32627  14.908  26.239   2.551
60368W        W32628  26.388  29.903  11.107
60369W        W32629  38.157  40.591  14.136
60370W        W32630  42.046   0.424  13.935
60371W        W32631  28.062   3.692   1.186
60372W        W32632  37.726   0.199  13.610
60373W        W32633   6.728   4.065  12.043
60374W        W32634  44.035   9.381  12.127
60375W        W32635   5.184  36.117   0.797
60376W        W32636  37.266  11.816   4.559
60377W        W32637  10.604   7.953  14.961
60378W        W32638   3.693  39.887   0.772
60379W        W32639  29.567   1.049  13.928
60380W        W32640  18.723  23.484   2.380
60381W        W32641   5.873  30.578  10.313
60382W        W32642  25.188  37.620   2.171
60383W        W32643  23.518  27.509   4.064
60384W        W32644  14.332  24.995   1.993
60385W        W32645  34.701  19.849   2.508
60386W        W32646  25.842   4.941  12.379
60387W        W32647   4.809  18.988   5.242
60388W        W32648  16.219  21.380  14.921
60389W        W32649  34.474   0.079   4.569
60390W        W32650  33.589   1.919   0.874
60391W        W32651  26.578  29.857   1.462
60392W        W32652  26.052  29.937  14.396
60393W        W32653  30.863  44.240  12.546
60394W        W32654   7.280  14.590   0.253
60395W        W32655  32.859  34.399  14.256
60396W        W32656  26.114   0.516   3.018
60397W        W32657  17.577  15.790   4.211
60398W        W32658  42.192  11.080   2.183
60399W        W32659  32.429  37.589  13.005
60400W        W32660  34.412  33.842   4.703
60401W        W32661  25.765   9.706  14.310
60402W        W32662  20.073  38.665   0.028
60403W        W32663  27.582   7.312  10.453
60404W        W32664  28.118  44.862  12.024
60405W        W32665   5.865   3.161  14.031
60406W        W32666  23.431  37.367  11.120
60407W        W32667  12.673   9.796  14.189
60408W        W32668  11.702  37.279  10.360
60409W        W32669   9.804  12.116   3.642
60410W        W32670  15.126  14.607   0.782
60411W        W32671  18.172   4.276  11.793
60412W        W32672  36.003  29.568  13.189
60413W        W32673  39.876  14.704   3.726
60414W        W32674  26.201  37.335  13.107
60415W        W32675   9.666   6.136   0.391
60416W        W32676  28.014  32.179   9.744
60417W        W32677  41.610  13.266   2.815
60418W        W32678  10.695  23.419   3.997
60419W        W32679   4.630  34.772  13.134
60420W        W32680  22.931  13.315   3.865
60421W        W32681  29.671  31.688  12.916
60422W        W32682  32.877  35.805   3.680
60423W        W32683  16.124  18.315   4.080
60424W        W32684   1.866  32.203  10.820
60425W        W32685  43.814  37.043   0.700
60426W        W32686  40.320  18.288   4.105
60427W        W32687  40.658  11.962   1.218
60428W        W32688  15.848   2.907   5.021
60429W        W32689  17.875  36.524  13.881
60430W        W32690  17.217  25.567  12.048
60431W        W32691  30.933  13.837   2.503
60432W        W32692   2.246  32.839   1.780
60433W        W32693   8.673  36.780   2.279
60434W        W32694   9.690  20.119   0.902
60435W        W32695  38.235  16.050   2.474
60436W        W32696  36.270  40.506  11.118
60437W        W32697   8.255  37.973   2.296
60438W        W32698  30.850   2.594  14.838
60439W        W32699  28.225  11.318   2.202
60440W        W32700   4.955  24.721   2.743
60441W        W32701  20.795   5.542   0.525
60442W        W32702  32.629  34.056   2.920
60443W        W32703  34.378  21.067  14.468
60444W        W32704  36.015  28.468  14.313
60445W        W32705  14.233   8.668  11.874
60446W        W32706   6.488  43.228  11.120
60447W        W32707  28.379   4.772  12.018
60448W        W32708  33.624  29.101  14.373
60449W        W32709  19.932  21.146   1.343
60450W        W32710  37.103  40.113   3.755
60451W        W32711  24.939  26.110  14.323
60452W        W32712  13.680  39.957   2.874
60453W        W32713   1.529   8.453  10.995
60454W        W32714  38.515   6.489   4.053
60455W        W32715   0.563  22.289   0.242
60456W        W32716   0.660   5.612  11.185
60457W        W32717  36.852   8.872  11.632
60458W        W32718  23.710  36.901   1.454
60459W        W32719   2.947  35.609  12.508
60460W        W32720  38.498  40.571   2.169
60461W        W32721  20.304  34.992  14.747
60462W        W32722  38.274  18.168  11.432
60463W        W32723  30.003  24.132  14.857
60464W        W32724   0.056  14.520   4.545
60465W        W32725  17.480   3.397   5.042
60466W        W32726  17.234  30.730   3.834
60467W        W32727  32.752  24.537   3.848
60468W        W32728  42.139  38.393  10.803
60469W        W32729  35.647  34.970  14.442
60470W        W32730   6.188  35.015  12.297
60471W        W32731  40.521  29.083  12.278
60472W        W32732   1.342   8.396   1.146
60473W        W32733  17.530  44.926  14.202
60474W        W32734  18.107   3.276   3.996
60475W        W32735   9.163   1.290  14.315
60476W        W32736  31.394  13.795  13.376
60477W        W32737   6.205   5.206  12.845
60478W        W32738  19.067  42.352   2.153
60479W        W32739  32.357   2.792   1.819
60480W        W32740  24.582   0.261  12.457
60481W        W32741   5.921  26.661   2.288
60482W        W32742  19.157  21.035  12.090
60483W        W32743   8.835  22.703  14.571
60484W        W32744  29.773  11.064  13.532
60485W        W32745  44.488   1.863   0.482
60486W        W32746  44.386   5.657  11.559
60487W        W32747   7.667  20.219   4.546
60488W        W32748  16.136  18.487   3.255
60489W        W32749  43.147   1.886   1.651
60490W        W32750  15.566  19.753  11.484
60491W        W32751  33.955  34.158  13.920
60492W        W32752  26.960  36.861   0.922
60493W        W32753  14.679  15.045   4.140
60494W        W32754   7.915  34.070  12.531
60495W        W32755  12.116  39.961   4.104
60496W        W32756  35.684  36.375  12.196
60497W        W32757   4.469  42.535  11.665
60498W        W32758   8.325   0.459  10.722
60499W        W32759   3.663   7.854  12.872
60500W        W32760  20.929   9.912   1.869
60501W        W32761  36.933  15.021  10.644
60502W        W32762   2.964   6.916  11.136
60503W        W32763  30.199   5.843   2.164
60504W        W32764   0.452  27.647  13.509
60505W        W32765  29.880  40.903   2.138
60506W        W32766  24.637  41.028   5.471
60507W        W32767  25.819  39.738  10.319
60508W        W32768  20.160  30.982  13.618
60509W        W32769  19.820  36.551   0.549
60510W        W32770   1.232   2.964   0.182
60511W        W32771  36.069  34.621   4.074
60512W        W32772  29.116  28.332  11.040
60513W        W32773  14.192   8.139  11.893
60514W        W32774   3.906  19.491  12.970
60515W        W32775  40.939  44.547   4.148
60516W        W32776   3.504  24.876  14.475
60517W        W32777  17.193  23.025   0.051
60518W        W32778  33.060  13.712  13.005
60519W        W32779  20.488  21.643   9.621
60520W        W32780  14.775  32.146   4.061
60521W        W32781  11.334   1.658  14.573
60522W        W32782  42.964  13.331  12.496
60523W        W32783  26.015   0.017   0.386
60524W        W32784  34.566  19.935  14.866
60525W        W32785  34.876   9.883  12.068
60526W        W32786   7.943   4.735  13.452
60527W        W32787  22.751   2.830  13.000
60528W        W32788  35.765  30.074   1.120
60529W        W32789  38.624  25.217   2.133
60530W        W32790  16.594  14.133   4.525
60531W        W32791  36.129  40.983   4.145
60532W        W32792  38.197  31.439   3.317
60533W        W32793  17.977   3.850  11.575
60534W        W32794  23.591  44.248   1.358
60535W        W32795   3.737  25.214   4.511
60536W        W32796  32.165  28.421   2.413
60537W        W32797  36.972  28.578   4.079
60538W        W32798  28.696  35.449   0.328
60539W        W32799  13.127  12.168   1.112
60540W        W32800   7.136  42.424  13.518
60541W        W32801  14.187  23.989   4.940
60542W        W32802  34.785  33.259  11.077
60543W        W32803   1.161  18.130   3.439
60544W        W32804  28.562  12.418  12.455
60545W        W32805  32.586   2.838  11.712
60546W        W32806   9.467  26.579  14.443
60547W        W32807  35.577  10.625   1.849
60548W        W32808  41.836  16.576   4.224
60549W        W32809  20.427   9.870  13.353
60550W        W32810  11.604  12.322  11.123
60551W        W32811  43.528  34.074  11.097
60552W        W32812  29.593  15.685   2.815
60553W        W32813  41.438  40.847  14.127
60554W        W32814  19.213  38.614   4.620
60555W        W32815  29.614   9.572  14.035
60556W        W32816  27.908  10.367   4.184
60557W        W32817  27.655   9.190   1.832
60558W        W32818  11.611  41.123  10.719
60559W        W32819  27.079  17.734  14.417
60560W        W32820  44.358   2.371   0.501
60561W        W32821  17.192  28.915   4.076
60562W        W32822  19.181  14.897   3.327
60563W        W32823  40.946  17.203  13.947
60564W        W32824   2.662  24.618   4.146
60565W        W32825  32.744  37.021  14.377
60566W        W32826  43.757  14.554   0.882
60567W        W32827  17.861   6.177   0.856
60568W        W32828   1.745  23.037   4.116
60569W        W32829   9.756  27.050   2.907
60570W        W32830  31.975  24.590  14.014
60571W        W32831  23.161  38.583  14.767
60572W        W32832  32.661   3.627   4.595
60573W        W32833  21.056  26.658   3.789
60574W        W32834  27.494  38.043  13.022
60575W        W32835   0.136  24.002  13.946
60576W        W32836   5.024   7.611   1.258
60577W        W32837  22.139  27.399   3.130
60578W        W32838   9.186  26.539  10.795
60579W        W32839  36.498  17.993   1.704
60580W        W32840  31.205  12.608   0.803
60581W        W32841   8.700  10.746  12.592
60582W        W32842  14.671  38.819   3.232
60583W        W32843   6.922  10.883   1.496
60584W        W32844  34.934  17.433   3.998
60585W        W32845  43.908  15.575   1.963
60586W        W32846   0.949  26.584  13.021
60587W        W32847  14.149  44.170  14.788
60588W        W32848   0.238  43.974  12.634
60589W        W32849  10.475  16.616  14.930
60590W        W32850  17.660  16.697   2.079
60591W        W32851  35.823   6.961   2.642
60592W        W32852  23.601  29.317   4.521
60593W        W32853  31.630   8.790  12.830
60594W        W32854  31.920  20.196  13.459
60595W        W32855  35.943   4.949  13.353
60596W        W32856  16.016  11.811  10.931
60597W        W32857  23.654  41.748  12.576
60598W        W32858   8.904  31.230   4.146
60599W        W32859  19.778  41.547   3.472
60600W        W32860  31.052  30.175   0.972
60601W        W32861   0.229  37.030  12.555
60602W        W32862  29.424  18.798   3.002
60603W        W32863   1.318  16.273   3.204
60604W        W32864  34.487  24.389  14.048
60605W        W32865  22.399  26.926   3.235
60606W        W32866   4.760  30.024  11.950
60607W        W32867   6.132  41.824  11.141
60608W        W32868   6.317  27.040   4.086
60609W        W32869  36.370  19.246   5.019
60610W        W32870  16.900  23.427   3.259
60611W        W32871  27.860  44.600  11.053
60612W        W32872  21.970  33.964  14.253
60613W        W32873  26.749  29.873  13.291
60614W        W32874  39.473  24.984   1.608
60615W        W32875  32.985  35.571   2.722
60616W        W32876   0.422  13.638  13.483
60617W        W32877  29.698  22.106  11.118
60618W        W32878  20.087  39.761   1.703
60619W        W32879  34.652  13.529   0.454
60620W        W32880   1.508  23.488   3.938
60621W        W32881  10.866   2.184  13.047
60622W        W32882  14.663  24.474   4.090
60623W        W32883  11.185   6.407   0.454
60624W        W32884   5.997  20.656   4.337
60625W        W32885   4.936   8.182   3.856
60626W        W32886  24.970   9.330   1.386
60627W        W32887  37.836  17.295  10.739
60628W        W32888  24.681   9.329  11.262
60629W        W32889   6.427  22.422   4.465
60630W        W32890  19.499  37.444  14.474
60631W        W32891  29.986  36.561   4.679
60632W        W32892  26.679  10.221   3.102
60633W        W32893  19.696   2.343   4.572
60634W        W32894  10.461  23.115  12.960
60635W        W32895  10.777  10.090  12.091
60636W        W32896  27.135   6.174   3.060
60637W        W32897  41.588  44.890   2.282
60638W        W32898  43.632  20.634   2.761
60639W        W32899   9.181  22.721  13.244
60640W        W32900  24.541   1.451  11.418
60641W        W32901  38.987  16.241   3.623
60642W        W32902  37.598  43.204  12.079
60643W        W32903  19.618  37.027  12.954
60644W        W32904  40.261   3.796  14.775
60645W        W32905  20.578  21.817  13.351
60646W        W32906   4.963  12.484  13.341
60647W        W32907  39.847   9.978   3.581
60648W        W32908  29.751  19.109  13.081
60649W        W32909  18.047  32.197  11.343
60650W        W32910   6.428  12.426  14.247
60651W        W32911  30.728   4.909   9.854
60652W        W32912  21.367  15.668   0.518
60653W        W32913   1.235   4.585   2.887
60654W        W32914  12.259   8.185   0.538
60655W        W32915  42.711  11.920   3.687
60656W        W32916   4.247  35.805   3.445
60657W        W32917   4.752  29.322  12.382
60658W        W32918  23.531  32.056   0.738
60659W        W32919  34.751  10.272   2.803
60660W        W32920  24.067  29.388   4.283
60661W        W32921  14.264   6.477  13.411
60662W        W32922  41.615   9.113  11.655
60663W        W32923   0.028   5.998  13.125
60664W        W32924   4.783  28.661  14.863
60665W        W32925   9.203  14.044   2.711
60666W        W32926  44.566  17.546   2.752
60667W        W32927   4.241  32.959  13.539
60668W        W32928  44.701  10.823  14.432
60669W        W32929  41.241  12.253  13.890
60670W        W32930  12.334  22.206  12.846
60671W        W32931  30.972  35.734  12.895
60672W        W32932  21.207  13.267  11.479
60673W        W32933  25.211   2.043   1.352
60674W        W32934  28.054  10.236  11.407
60675W        W32935  27.151  42.424   4.690
60676W        W32936   0.844  27.446  14.647
60677W        W32937  32.028  33.312  10.364
60678W        W32938  34.861   8.789   0.005
60679W        W32939  30.059  11.105   3.807
60680W        W32940   9.211  35.386  14.931
60681W        W32941  31.517  40.080   4.793
60682W        W32942  19.046   8.808   5.561
60683W        W32943  31.059   1.735   4.977
60684W        W32944  16.758   4.825   1.853
60685W        W32945  30.566   6.178  13.765
60686W        W32946  16.238  24.498   2.691
60687W        W32947   3.212   3.970   0.860
60688W        W32948  36.457   1.746   1.672
60689W        W32949  23.106  30.602   3.775
60690W        W32950   2.707  19.102  10.673
60691W        W32951  19.064  38.563  13.008
60692W        W32952  40.428  24.957  11.954
60693W        W32953  40.513  11.148   0.831
60694W        W32954  20.105   5.515   1.321
60695W        W32955  37.863  15.228  11.751
60696W        W32956  18.987  39.797   2.320
60697W        W32957  11.590  25.130  12.669
60698W        W32958  24.024  15.260   1.329
60699W        W32959  30.460  35.260  11.067
60700W        W32960  36.460  43.022   2.692
60701W        W32961   0.553   4.440  13.386
60702W        W32962  30.036  21.724  10.986
60703W        W32963  12.309   2.644   3.583
60704W        W32964  25.629  15.389   0.677
60705W        W32965  42.420  19.304   1.181
60706W        W32966  20.349   6.551   9.825
60707W        W32967  32.368  28.577   0.398
60708W        W32968  37.243   9.437  14.196
60709W        W32969  17.703  23.713   4.195
60710W        W32970   8.624   4.743  10.393
60711W        W32971  29.722  24.110   0.289
60712W        W32972  13.060  22.131  12.429
60713W        W32973  33.043  35.497  11.933
60714W        W32974   2.459  42.457  12.825
60715W        W32975  37.711  21.409   0.422
60716W        W32976  40.475  10.123   3.751
60717W        W32977  33.678  23.296   0.998
60718W        W32978  23.628  39.278  11.087
60719W        W32979  20.442  11.370   1.955
60720W        W32980   7.331  40.600   4.467
60721W        W32981  37.076  33.058  12.050
60722W        W32982  26.898  44.051   0.826
60723W        W32983   9.292  44.870   5.035
60724W        W32984  11.154  19.837   4.198
60725W        W32985  19.539  35.456   3.175
60726W        W32986  14.357  26.438  13.405
60727W        W32987   1.524   6.832  13.613
60728W        W32988  39.326   1.914  13.979
60729W        W32989  28.342  33.014   3.617
60730W        W32990   3.335   5.899  10.545
60731W        W32991  12.057  40.015  13.311
60732W        W32992  30.724   4.851   1.800
60733W        W32993  17.805   1.760  12.186
60734W        W32994  16.240   7.313   1.395
60735W        W32995  10.630  30.354  11.512
60736W        W32996  37.022  42.604  11.691
60737W        W32997  19.015  24.490   4.050
60738W        W32998  41.934   9.686   2.307
60739W        W32999  19.999   3.639   0.275
60740W        W33000  27.744  30.607  12.945
60741W        W33001  38.751  25.272   5.051
60742W        W33002  29.018  28.844   5.082
60743W        W33003  38.176  29.104   2.364
60744W        W33004   7.020  33.023   2.720
60745W        W33005  21.986  20.719   0.086
60746W        W33006   9.740  11.900   4.124
60747W        W33007   5.440  22.156   1.753
60748W        W33008  18.820  36.082   3.384
60749W        W33009  31.465  29.480  13.714
60750W        W33010  41.782  29.970   1.997
60751W        W33011  37.458  34.524  14.563
60752W        W33012  11.544   3.104   5.283
60753W        W33013  12.757  23.569   2.630
60754W        W33014  33.512  23.139  14.462
60755W        W33015  43.947  38.084   2.311
60756W        W33016  24.623  32.396  12.895
60757W        W33017  43.371   9.640  11.189
60758W        W33018  11.571   2.408   4.644
60759W        W33019   4.391  25.476   0.172
60760W        W33020  21.135  14.302   0.881
60761W        W33021   2.607  10.495  10.222
60762W        W33022  36.067   2.422  11.560
60763W        W33023  18.621  13.567  11.609
60764W        W33024   5.304   1.564  13.471
60765W        W33025  13.542  44.963   3.336
60766W        W33026  37.051  25.370   4.498
60767W        W33027  42.610  23.165  12.506
60768W        W33028  31.921  35.372  12.936
60769W        W33029  30.862   4.311  14.450
60770W        W33030   2.985  11.055  11.513
60771W        W33031  26.616   4.757   2.213
60772W        W33032   2.785  25.244   1.987
60773W        W33033  12.564   4.261  12.291
60774W        W33034  14.864  27.478   4.232
60775W        W33035  42.964   8.607   4.494
60776W        W33036  33.288  30.684  10.331
60777W        W33037  43.703   6.808  10.613
60778W        W33038  22.351  44.718  10.614
60779W        W33039  37.515  17.079  14.885
60780W        W33040  41.075  43.776  11.192
60781W        W33041  13.965   9.847  13.293
60782W        W33042   2.619  40.350   4.361
60783W        W33043  19.534  26.268  14.824
60784W        W33044  31.041  27.764  10.626
60785W        W33045   7.159  42.887   3.922
60786W        W33046   7.763  28.173  13.877
60787W        W33047  29.190  10.281   4.698
60788W        W33048  15.224  42.536   2.984
60789W        W33049  44.419  12.812   1.413
60790W        W33050  27.564   5.344  10.753
60791W        W33051   1.719  37.980  13.079
60792W        W33052  28.259  19.488  12.997
60793W        W33053  11.526  22.717   3.143
60794W        W33054  44.524  41.402  11.992
60795W        W33055  23.803  28.760  10.497
60796W        W33056  38.708   4.776   4.180
60797W        W33057  28.771   0.816   0.778
60798W        W33058  37.406  17.662   1.596
60799W        W33059   0.869  22.838  10.722
60800W        W33060  31.006   7.403   1.638
60801W        W33061  27.675  23.509   2.800
60802W        W33062  15.002  42.044  11.022
60803W        W33063  31.651  30.667  11.085
60804W        W33064  36.883  30.174  11.437
60805W        W33065  33.854   8.907   2.270
60806W        W33066   7.367  10.766  11.200
60807W        W33067  24.247  19.177  11.401
60808W        W33068  25.493  35.859   4.264
60809W        W33069  37.762   5.591  12.933
60810W        W33070  17.363  37.533   2.664
60811W        W33071   1.135   1.099   1.722
60812W        W33072  18.350  23.478   1.222
60813W        W33073  10.457   2.456  12.887
60814W        W33074  22.111  20.365  12.903
60815W        W33075   5.548  28.631   9.721
60816W        W33076  24.655  20.241   1.399
60817W        W33077  43.913  44.214  14.002
60818W        W33078  32.140  36.530  12.405
60819W        W33079  28.565  41.791   3.797
60820W        W33080  12.022  11.317  14.995
60821W        W33081  23.424  29.613   2.310
60822W        W33082  39.213  32.223   3.614
60823W        W33083  35.848   9.824  13.285
60824W        W33084  12.773   8.452   4.166
60825W        W33085  26.716   8.626   1.711
60826W        W33086  39.975  22.707  12.873
60827W        W33087  44.488   1.454  14.361
60828W        W33088  41.872  32.017   2.417
60829W        W33089  16.972  33.963   4.552
60830W        W33090   4.552  20.726  11.184
60831W        W33091  19.687  16.577   3.278
60832W        W33092  26.294   7.394   2.389
60833W        W33093  36.557  31.079  12.593
60834W        W33094  10.129   0.301  14.879
60835W        W33095  39.146  17.677   0.971
60836W        W33096  22.900   4.678   0.456
60837W        W33097   4.947  40.929  12.218
60838W        W33098  11.206  20.787  12.441
60839W        W33099  31.127   6.840  13.401
60840W        W33100  43.985  16.674   0.095
60841W        W33101  37.673   8.227   2.301
60842W        W33102   3.658  16.427   0.333
60843W        W33103   2.726  31.376   3.856
60844W        W33104  40.782  40.916  13.025
60845W        W33105  12.254  22.342   1.784
60846W        W33106  33.146   5.374  11.072
60847W        W33107   2.916  44.342  12.614
60848W        W33108  14.115  33.035   3.856
60849W        W33109  36.018   2.633   2.704
60850W        W33110  32.908  26.402   4.625
60851W        W33111  25.782  28.314  12.893
60852W        W33112  30.516  42.070  12.056
60853W        W33113  20.633  25.126  12.480
60854W        W33114  12.133  41.289   3.182
60855W        W33115  17.765  37.830   2.866
60856W        W33116  31.374   1.220  11.650
60857W        W33117  12.781   2.445   0.919
60858W        W33118  22.314   9.228   1.734
60859W        W33119  33.477  24.977   1.286
60860W        W33120  18.293   8.360   0.955
60861W        W33121  23.926  19.465   4.953
60862W        W33122  29.871  27.414  13.460
60863W        W33123  35.873  27.447   3.765
60864W        W33124   8.194   9.719   3.085
60865W        W33125  39.158   1.527  10.552
60866W        W33126  24.447  10.136  11.589
60867W        W33127  44.333  15.586  10.500
60868W        W33128  24.818  34.013  13.598
60869W        W33129  41.386  16.333   4.076
60870W        W33130   8.859   3.649   3.513
60871W        W33131   2.498   0.520   2.912
60872W        W33132  33.976  29.395   2.901
60873W        W33133   4.852  44.244  14.911
60874W        W33134  15.517  24.696  14.318
60875W        W33135  28.945  17.294  13.921
60876W        W33136  13.631  30.666  14.762
60877W        W33137  40.635  34.181  13.526
60878W        W33138  10.126  44.740   3.808
60879W        W33139  15.844  25.528   5.177
60880W        W33140  43.637  16.161   3.362
60881W        W33141  25.021  31.645   2.758
60882W        W33142  44.024  30.601   1.160
60883W        W33143   5.639  22.005  12.856
60884W        W33144  32.327   5.478  14.085
60885W        W33145  23.133  43.784  10.862
60886W        W33146  22.267  36.352  13.622
60887W        W33147   8.821  26.580  11.640
60888W        W33148  23.953   7.921  11.175
60889W        W33149  19.950   9.676   4.595
60890W        W33150  44.842  35.936  14.932
60891W        W33151  13.170   1.910   0.017
60892W        W33152  31.723  16.277   3.155
60893W        W33153  32.233  10.312   1.427
60894W        W33154  28.595  32.894   2.741
60895W        W33155  41.752  20.645  12.170
60896W        W33156  31.549  10.670  13.926
60897W        W33157  27.684  42.733   2.848
60898W        W33158  26.544   2.355   2.102
60899W        W33159  34.683   6.106   4.132
60900W        W33160  19.552   9.503   3.786
60901W        W33161  17.096   4.262  14.366
60902W        W33162  43.118   0.233   2.380
60903W        W33163  33.328  34.496   2.648
60904W        W33164  30.621  35.509   1.755
60905W        W33165  28.900  23.426  13.345
60906W        W33166   1.924  42.877   1.333
60907W        W33167  42.026  34.077   3.628
60908W        W33168  41.724  30.198  14.372
60909W        W33169  31.006  34.215  12.899
60910W        W33170  18.971  42.760  11.595
60911W        W33171  14.275  13.916  14.879
60912W        W33172   1.899  10.653   1.689
60913W        W33173  24.019  17.670   3.166
60914W        W33174  41.092  21.825   1.271
60915W        W33175  30.474  27.023  12.866
60916W        W33176   5.778   5.887   0.031
60917W        W33177  10.875  43.746   4.647
60918W        W33178  21.369   3.475   0.296
60919W        W33179  32.469  26.036  10.687
60920W        W33180  25.730  42.528  10.951
60921W        W33181  28.576  30.630   4.043
60922W        W33182   2.898  42.800   2.727
60923W        W33183  32.834   8.775  11.564
60924W        W33184   1.447  35.097  12.386
60925W        W33185  16.194  34.124   1.499
60926W        W33186   9.317  34.446  13.071
60927W        W33187  38.780   5.682  11.550
60928W        W33188   9.906  34.242  11.370
60929W        W33189   9.788  28.176  13.769
60930W        W33190  13.597  24.515  11.073
60931W        W33191   0.886  35.619   4.378
60932W        W33192  29.970  41.753   4.504
60933W        W33193   8.650  27.737  10.703
60934W        W33194  19.013  44.372  13.947
60935W        W33195  40.696  14.149  12.870
60936W        W33196  16.843  24.606   2.118
60937W        W33197  22.973  23.039  13.019
60938W        W33198  15.720  15.715  12.940
60939W        W33199  35.412  20.952   5.096
60940W        W33200  27.538  44.511  14.759
60941W        W33201  20.729  26.108   4.487
60942W        W33202   3.314   6.730   2.691
60943W        W33203  37.045  30.530  10.611
60944W        W33204   6.633  41.220   1.778
60945W        W33205  13.349  22.097   0.516
60946W        W33206   9.318  15.291  13.001
60947W        W33207  12.749  26.406   0.837
60948W        W33208  20.647  40.208   0.439
60949W        W33209   9.684  10.137   2.304
60950W        W33210  15.354  35.941   3.796
60951W        W33211  13.938  25.069   3.140
60952W        W33212  17.221  17.379   0.873
60953W        W33213  15.271  30.459   4.078
60954W        W33214  17.237   0.531   0.880
60955W        W33215   6.987   7.789  12.924
60956W        W33216  18.655  21.838   3.623
60957W        W33217  10.067  19.705  10.100
60958W        W33218  27.600  22.554   4.309
60959W        W33219  13.629  29.976  14.245
60960W        W33220  18.740  40.196   1.848
60961W        W33221  14.663  42.974  14.924
60962W        W33222   8.959  26.059   1.352
60963W        W33223   7.316  33.008   3.195
60964W        W33224  36.666  23.915  10.257
60965W        W33225  42.256  35.552  12.974
60966W        W33226  30.160  30.001   0.970
60967W        W33227  37.999   2.500   2.315
60968W        W33228  26.303   4.963  10.707
60969W        W33229   1.291   2.989  13.054
60970W        W33230  18.763  14.821  11.382
60971W        W33231   8.998   0.709  11.593
60972W        W33232  32.939  23.181   4.182
60973W        W33233  10.816  24.478   1.880
60974W        W33234  39.789  27.977   3.788
60975W        W33235  16.168  16.248  10.057
60976W        W33236  15.690   3.304   2.390
60977W        W33237  15.349   8.872   1.327
60978W        W33238   4.234  25.991   3.052
60979W        W33239  33.628   0.130   1.278
60980W        W33240  44.211   7.747  14.389
60981W        W33241  20.104  34.952  11.542
60982W        W33242  13.279  30.025   4.674
60983W        W33243  23.278  16.644   0.329
60984W        W33244   8.097  31.446   0.883
60985W        W33245  43.724  34.573  11.588
60986W        W33246  16.299  18.368  14.277
60987W        W33247  14.148  25.933  14.585
60988W        W33248  25.277  10.859  12.883
60989W        W33249   8.098   7.022  12.488
60990W        W33250  19.715  12.364   1.909
60991W        W33251  21.247  33.955   2.747
60992W        W33252  42.578  10.451   0.547
60993W        W33253  16.295  38.477  12.820
60994W        W33254  31.396  21.198   3.659
60995W        W33255  12.423  38.954  12.807
60996W        W33256   8.874  17.291   3.143
60997W        W33257  35.927  26.475  12.012
60998W        W33258  23.497  20.607  12.488
60999W        W33259  37.214  41.960  12.898
61000W        W33260  12.436  25.211  10.661
61001W        W33261  21.222   9.092   1.864
61002W        W33262  31.174  17.748  10.644
61003W        W33263   9.234  19.250   2.917
61004W        W33264  19.418  39.376  13.424
61005W        W33265  44.731  42.650   2.895
61006W        W33266  29.414  38.069  14.823
61007W        W33267  23.580  25.893  12.518
61008W        W33268  37.046  12.598   2.850
61009W        W33269  32.662  43.487  10.513
61010W        W33270  38.945  33.405   0.189
61011W        W33271  30.403  38.942   4.145
61012W        W33272  25.059  17.545   2.323
61013W        W33273  31.376  22.532   1.168
61014W        W33274  17.632  13.244   0.822
61015W        W33275  42.438   6.333  13.800
61016W        W33276  24.961   6.162   4.612
61017W        W33277  28.996  20.993  11.542
61018W        W33278  24.158  38.615  11.449
61019W        W33279   9.232  14.336   3.579
61020W        W33280  41.845  29.884  12.969
61021W        W33281  10.605  40.519   4.354
61022W        W33282  40.362  38.362   2.425
61023W        W33283  27.180  26.207   1.665
61024W        W33284  24.710  15.705  12.901
61025W        W33285  13.666  31.862   0.676
61026W        W33286  31.199   3.653   1.180
61027W        W33287  21.461   9.706   2.722
61028W        W33288  35.869  12.272  13.478
61029W        W33289   1.805  18.321   5.064
61030W        W33290  10.977  18.222   3.144
61031W        W33291  30.550  14.085  10.658
61032W        W33292   4.850  38.997  14.247
61033W        W33293  10.249  33.994  11.649
61034W        W33294  11.938  38.258  11.176
61035W        W33295   4.927  42.268  13.502
61036W        W33296  29.992  14.160   0.740
61037W        W33297  44.081   3.474   0.265
61038W        W33298  30.597  25.086   3.873
61039W        W33299  33.175  26.180   1.080
61040W        W33300  40.944  22.152  13.960
61041W        W33301   3.747   1.399   4.104
61042W        W33302  40.559  19.257  10.863
61043W        W33303  44.202  12.658   3.159
61044W        W33304  44.442  20.444   4.124
61045W        W33305  10.728  14.341   3.317
61046W        W33306  24.928  26.764   0.901
61047W        W33307  37.889  20.239  13.547
61048W        W33308   1.446  28.306   4.596
61049W        W33309  30.139  11.139   1.030
61050W        W33310  28.630   4.255   3.433
61051W        W33311  40.862  43.948  14.040
61052W        W33312  35.171  32.634   1.292
61053W        W33313  41.321  17.082  10.661
61054W        W33314  36.331  37.449  14.797
61055W        W33315  37.750  19.489  13.380
61056W        W33316  17.141  15.398   2.904
61057W        W33317  32.094   4.713  13.918
61058W        W33318   7.109  41.481   0.283
61059W        W33319  31.457  23.808   4.262
61060W        W33320  23.647  39.521  14.053
61061W        W33321  14.101   0.200  12.023
61062W        W33322  30.358  26.992   3.415
61063W        W33323  29.919  40.382  14.050
61064W        W33324  36.873  44.657   1.629
61065W        W33325   7.848  44.703  12.078
61066W        W33326  33.625  35.341  14.398
61067W        W33327  43.313  40.208  11.363
61068W        W33328  39.960  20.875   2.848
61069W        W33329  17.618  35.602   2.008
61070W        W33330  12.765  15.863  12.493
61071W        W33331   4.935  22.965   2.348
61072W        W33332  22.154   2.835  11.391
61073W        W33333  25.508  27.714   2.099
61074W        W33334  11.394   0.070  11.408
61075W        W33335   6.416   0.977   2.242
61076W        W33336  21.009  15.709   1.797
61077W        W33337   7.892  40.529   2.728
61078W        W33338   9.428  24.172   4.635
61079W        W33339  38.995   2.092  11.980
61080W        W33340  20.823  12.578   3.490
61081W        W33341   5.903  40.989   1.218
61082W        W33342  38.195  16.542   2.618
61083W        W33343  26.799  22.959  12.914
61084W        W33344   7.233  26.596  11.888
61085W        W33345  10.392  42.345  14.352
61086W        W33346  28.650   7.928   3.158
61087W        W33347  13.353  22.520   4.596
61088W        W33348  11.795  36.066  11.578
61089W        W33349  24.008   2.989  12.608
61090W        W33350  44.752  36.988   3.647
61091W        W33351  38.287  21.776   3.782
61092W        W33352   9.845  30.762   2.635
61093W        W33353   2.356  31.474  14.797
61094W        W33354  15.658  23.319   2.529
61095W        W33355   4.269   2.155  13.828
61096W        W33356   3.142  14.617  12.836
61097W        W33357  31.005   5.987   2.731
61098W        W33358  11.290   2.919  11.066
61099W        W33359   2.906  19.128  14.671
61100W        W33360  32.997  44.048  12.043
61101W        W33361  41.457  17.926   3.659
61102W        W33362  24.874  18.740  12.895
61103W        W33363   0.965  44.329  12.523
61104W        W33364  28.488  24.821  14.036
61105W        W33365  15.016  44.027   2.207
61106W        W33366  33.111  15.837   4.755
61107W        W33367  11.396  27.160  11.493
61108W        W33368  40.997  41.269  12.091
61109W        W33369  37.308  12.528  11.257
61110W        W33370  35.029  10.260  14.466
61111W        W33371  41.161  38.652  10.621
61112W        W33372  27.043  40.430  12.584
61113W        W33373   5.589  32.542  11.630
61114W        W33374  11.347  18.492  11.021
61115W        W33375  24.167  18.014  13.078
61116W        W33376   9.182  25.279  11.508
61117W        W33377  21.267  13.821  10.695
61118W        W33378  38.811   9.827  12.532
61119W        W33379  31.373  18.222   4.846
61120W        W33380  42.261  33.102   3.675
61121W        W33381  19.927  28.962  12.844
61122W        W33382  40.415  11.796   1.659
61123W        W33383   9.876  44.827  13.485
61124W        W33384  14.055  30.158  13.969
61125W        W33385   7.779  24.714  11.433
61126W        W33386  10.288   3.843   3.448
61127W        W33387  18.269   8.412   4.619
61128W        W33388  41.101  31.208   3.975
61129W        W33389  37.079  40.620   2.733
61130W        W33390   2.912   5.371   3.436
61131W        W33391   4.279  18.981   3.357
61132W        W33392  24.618  35.402  14.253
61133W        W33393  32.004  25.646   4.280
61134W        W33394  40.077   1.414  13.979
61135W        W33395  36.425   5.960  12.991
61136W        W33396  42.087  44.629   4.177
61137W        W33397  43.454  26.691   1.976
61138W        W33398   4.898  16.168  11.231
61139W        W33399  36.138   6.512  12.495
61140W        W33400  27.412  29.883   3.383
61141W        W33401  19.133  12.323   4.204
61142W        W33402   4.915  43.021  14.041
61143W        W33403  10.288  28.920  13.914
61144W        W33404  28.938   5.574   1.550
61145W        W33405  24.623  13.803  12.618
61146W        W33406  37.365   9.340  12.657
61147W        W33407   8.104  16.617   1.731
61148W        W33408   3.279  21.250  10.184
61149W        W33409  26.753  10.907  14.298
61150W        W33410  40.659  37.932  12.648
61151W        W33411  15.063   6.319   0.130
61152W        W33412   8.648   8.308   3.628
61153W        W33413  31.487  13.766  11.943
61154W        W33414  44.740   8.420  11.715
61155W        W33415   2.423  38.567   4.301
61156W        W33416  38.385  37.931  10.460
61157W        W33417  44.079  34.470   3.245
61158W        W33418  24.268  26.131   0.741
61159W        W33419  22.267  16.323   2.764
61160W        W33420   6.355  13.598  10.545
61161W        W33421  32.115  34.456   0.778
61162W        W33422   3.714  24.138  12.961
61163W        W33423  34.315  21.703  13.888
61164W        W33424   2.264  30.429  10.884
61165W        W33425  26.965  20.978   0.297
61166W        W33426  17.330  27.382   2.228
61167W        W33427  25.567  40.104   1.272
61168W        W33428  41.542   1.498  12.537
61169W        W33429  38.801  21.760   3.756
61170W        W33430   9.087  10.191   1.521
61171W        W33431  35.500  28.202   4.557
61172W        W33432  27.733   2.806   1.848
61173W        W33433  16.823   7.687  12.061
61174W        W33434  11.022  28.660   0.589
61175W        W33435  14.219  11.280  14.465
61176W        W33436   8.230  24.107   3.598
61177W        W33437  12.843  38.100   0.842
61178W        W33438  23.022  31.152  11.892
61179W        W33439  10.449  20.830   2.225
61180W        W33440  42.690   9.812   3.129
61181W        W33441  11.289  38.656   3.020
61182W        W33442  27.605   2.198  11.237
61183W        W33443  32.864  20.121   1.768
61184W        W33444   4.244   5.481  11.919
61185W        W33445  34.375   9.963  11.182
61186W        W33446  22.926  29.579   9.896
61187W        W33447  44.082  15.329  11.339
61188W        W33448  41.594  17.492   1.415
61189W        W33449   0.824  31.818   9.912
61190W        W33450   1.243   7.657   3.850
61191W        W33451  19.580  10.960  11.692
61192W        W33452  27.722   0.867  13.867
61193W        W33453   7.267  30.614  10.635
61194W        W33454  15.265  18.693   4.493
61195W        W33455   9.909  14.753   4.247
61196W        W33456  38.978   3.394  12.345
61197W        W33457  13.234  35.553   2.425
61198W        W33458   4.404  11.844  12.964
61199W        W33459  32.778  38.545  12.985
61200W        W33460  14.350   7.277  13.230
61201W        W33461  44.071   0.909   0.261
61202W        W33462  39.133  43.355  13.845
61203W        W33463  21.001  22.188  14.013
61204W        W33464  41.373  29.926   4.150
61205W        W33465   4.768   0.671   0.779
61206W        W33466  41.437  41.996  14.783
61207W        W33467  22.970  42.447   0.948
61208W        W33468  18.691  21.237  12.017
61209W        W33469   1.860  34.472   0.399
61210W        W33470  23.137  31.536  14.690
61211W        W33471  18.021  41.739   3.627
61212W        W33472   5.004  14.028   0.792
61213W        W33473  20.663  24.082   2.882
61214W        W33474   4.030  26.292   9.797
61215W        W33475  29.885  30.420   0.843
61216W        W33476  36.981  36.836   0.336
61217W        W33477  30.405   8.160  14.524
61218W        W33478  14.569   2.201  10.567
61219W        W33479  27.589  29.325   4.546
61220W        W33480   2.688  29.472   4.100
61221W        W33481  11.821   2.876   3.643
61222W        W33482  42.017  35.097   0.000
61223W        W33483  26.909   5.266   3.797
61224W        W33484  15.996   8.737   2.611
61225W        W33485   6.195   9.114  14.853
61226W        W33486  36.135  11.332   2.324
61227W        W33487  39.922  39.323   1.512
61228W        W33488  16.649   1.332   0.728
61229W        W33489  23.966   8.831  11.059
61230W        W33490  31.027  27.894   4.160
61231W        W33491   5.272  39.291  10.994
61232W        W33492  40.345  41.066  11.048
61233W        W33493  29.042   2.883  10.476
61234W        W33494  25.281  36.544  11.949
61235W        W33495  28.757  21.908  13.540
61236W        W33496   4.110  24.612   2.434
61237W        W33497  22.790  16.273   4.675
61238W        W33498   2.927  22.142   0.716
61239W        W33499  13.752  31.603  14.411
61240W        W33500  29.230  32.965  14.442
61241W        W33501  29.611  25.042   3.917
61242W        W33502  41.318  33.410   3.583
61243W        W33503  10.348  30.687   3.300
61244W        W33504  39.896  40.426  10.515
61245W        W33505  40.388  44.807   4.610
61246W        W33506   2.034   3.466   1.309
61247W        W33507  35.512  14.014   2.347
61248W        W33508   1.350  19.167  14.026
61249W        W33509  19.704  17.282  12.625
61250W        W33510  33.031  13.835  14.028
61251W        W33511  19.022  41.806  14.382
61252W        W33512  25.855  10.859   2.079
61253W        W33513   5.635   7.865  12.579
61254W        W33514  32.996  14.804   4.710
61255W        W33515  25.362   5.421   2.873
61256W        W33516   2.030  18.044  12.577
61257W        W33517  17.251  13.892  11.001
61258W        W33518  15.616  19.239   4.594
61259W        W33519  37.626  41.966  10.765
61260W        W33520  24.290   2.986   4.629
61261W        W33521  11.703  21.831   1.492
61262W        W33522  33.495  33.552   4.604
61263W        W33523  14.140  39.572  10.971
61264W        W33524  44.466  22.999   3.850
61265W        W33525   2.997   2.542  11.368
61266W        W33526  21.447  36.710  11.653
61267W        W33527   4.744   5.573  10.282
61268W        W33528  35.685  44.116  14.490
61269W        W33529  31.449  18.997  14.244
61270W        W33530  12.352  17.241   4.132
61271W        W33531   0.584  39.585   3.481
61272W        W33532   8.326  33.733   4.411
61273W        W33533  31.200  43.826   1.719
61274W        W33534  24.465  42.398   2.793
61275W        W33535  12.784  23.085  12.578
61276W        W33536  22.551  10.433  14.299
61277W        W33537  36.856   6.876  13.416
61278W        W33538  15.041  38.963   2.870
61279W        W33539  43.468  15.905  11.930
61280W        W33540  20.499  30.832   3.394
61281W        W33541   2.788  29.290   1.458
61282W        W33542  18.532  25.573  12.747
61283W        W33543   4.832  14.315   0.413
61284W        W33544  18.074  33.123  11.517
61285W        W33545  31.538  25.737   4.101
61286W        W33546  15.077  31.073  11.887
61287W        W33547  17.145  24.101  14.368
61288W        W33548   8.599  34.979  10.572
61289W        W33549  29.483   9.154   3.674
61290W        W33550  33.333   4.370  12.318
61291W        W33551  35.385  20.499  13.967
61292W        W33552  28.981  29.225  10.188
61293W        W33553   5.183  30.138   0.463
61294W        W33554   6.686  20.152   3.151
61295W        W33555  28.530  32.403  14.024
61296W        W33556  26.634  11.946   4.082
61297W        W33557  29.405  20.956  12.978
61298W        W33558  27.941  33.552  10.760
61299W        W33559  23.732  35.592  12.973
61300W        W33560  44.904  35.144  12.070
61301W        W33561  38.335  34.827  11.948
61302W        W33562  20.787  31.948  11.622
61303W        W33563   7.198   9.293   2.282
61304W        W33564  33.494  15.632   4.475
61305W        W33565  37.638   1.019  10.518
61306W        W33566   9.844  16.935  13.410
61307W        W33567  16.645  10.800   4.813
61308W        W33568   6.084  13.931  12.454
61309W        W33569  11.345  39.311  13.539
61310W        W33570   3.754  18.704   3.196
61311W        W33571   9.123  31.531   2.876
61312W        W33572  44.023  13.384  14.948
61313W        W33573   5.533  34.733  14.373
61314W        W33574  34.622   6.340   0.089
61315W        W33575  37.685  27.660  14.005
61316W        W33576  25.840  44.437  14.627
61317W        W33577   7.198   8.718  14.361
61318W        W33578   9.781   6.756   2.690
61319W        W33579  43.787  40.836  11.067
61320W        W33580  20.091   1.233  13.939
61321W        W33581  43.104   4.506  10.218
61322W        W33582  12.867  17.538  10.563
61323W        W33583  27.332  22.184  11.671
61324W        W33584  11.068  34.468   2.458
61325W        W33585  15.061   4.406   0.669
61326W        W33586  12.031  25.877   4.250
61327W        W33587  23.095  43.822   3.335
61328W        W33588   5.233  41.777   2.173
61329W        W33589   6.581   9.695  10.914
61330W        W33590  16.787  43.063   2.417
61331W        W33591  40.393  18.604   4.636
61332W        W33592  25.198  14.231   0.255
61333W        W33593  39.149  16.856   2.846
61334W        W33594  26.518  26.061  13.799
61335W        W33595   7.233  35.819   3.363
61336W        W33596   4.691   8.826  13.987
61337W        W33597   1.511  39.387  11.505
61338W        W33598  18.976  38.928   1.488
61339W        W33599  32.609  33.034   1.908
61340W        W33600  17.393  42.945  10.558
61341W        W33601   2.422  19.323  12.313
61342W        W33602  20.999  23.737   1.306
61343W        W33603  33.211   3.831  14.443
61344W        W33604  29.078  21.481  13.566
61345W        W33605   6.329  42.497  10.470
61346W        W33606  31.973  22.062  12.119
61347W        W33607  32.151  11.882   3.310
61348W        W33608  23.156  44.364   4.202
61349W        W33609  14.094  36.353  14.014
61350W        W33610  11.759  35.475   1.711
61351W        W33611   2.786   7.686  14.944
61352W        W33612   8.978   7.438   4.547
61353W        W33613  24.726  20.246   4.199
61354W        W33614  13.111  33.132   2.363
61355W        W33615   7.839  21.220  13.919
61356W        W33616  35.557  43.138   1.966
61357W        W33617   9.651  31.060  12.383
61358W        W33618  12.381  39.861  10.736
61359W        W33619  22.722  15.140   4.069
61360W        W33620  38.636   6.218  14.832
61361W        W33621  34.659   2.862  12.537
61362W        W33622  29.471  39.261  10.439
61363W        W33623  28.244  35.938  14.833
61364W        W33624  15.883  15.301  13.888
61365W        W33625  33.967  18.046  13.824
61366W        W33626  17.350   6.895  13.267
61367W        W33627  28.570  27.212  11.594
61368W        W33628  16.500  21.703   4.392
61369W        W33629  22.058  22.106  14.872
61370W        W33630  28.125  25.186   2.585
61371W        W33631  43.099   6.763   0.378
61372W        W33632  27.120   4.242  13.086
61373W        W33633  37.552  10.532  10.995
61374W        W33634  16.837  10.619   0.835
61375W        W33635  11.699  36.939   3.119
61376W        W33636  44.853  44.415   1.288
61377W        W33637  26.013  12.734  11.194
61378W        W33638  32.097  23.947   3.496
61379W        W33639  11.561   0.441  13.972
61380W        W33640  29.603  27.061   1.588
61381W        W33641  22.097  25.796   3.704
61382W        W33642  23.668  37.388  10.672
61383W        W33643  40.558  12.243  14.875
61384W        W33644  40.238  29.209  14.556
61385W        W33645  40.844  40.380   3.575
61386W        W33646  19.217  13.773   1.212
61387W        W33647   2.193  37.637  11.254
61388W        W33648  27.554  37.327   1.425
61389W        W33649  21.633  34.039  11.979
61390W        W33650  41.854  31.640  10.663
61391W        W33651  39.062   9.200   1.315
61392W        W33652  14.529  16.980  11.130
61393W        W33653  26.849  41.943  12.459
61394W        W33654  18.032  40.753   0.404
61395W        W33655  29.194  15.307   3.742
61396W        W33656   1.772  11.739   3.738
61397W        W33657  26.948   2.273  12.980
61398W        W33658  44.886  27.368   1.727
61399W        W33659  39.551  23.003  12.047
61400W        W33660  11.365  18.486  10.519
61401W        W33661  43.701  20.778   1.411
61402W        W33662  28.779  12.862   2.021
61403W        W33663   4.380  20.003   1.640
61404W        W33664  27.007  17.026  11.693
61405W        W33665  33.697  40.973   2.189
61406W        W33666  40.373  32.138  14.828
61407W        W33667  39.921   6.419  13.703
61408W        W33668  18.106  17.802   2.243
61409W        W33669  20.954   8.992   5.251
61410W        W33670  40.464   7.511  10.829
61411W        W33671  31.881  19.177  14.482
61412W        W33672  16.834  17.443  10.100
61413W        W33673  20.705  35.442  14.011
61414W        W33674  31.893  33.469   3.105
61415W        W33675  41.602  37.546  11.097
61416W        W33676  19.929  13.250   4.486
61417W        W33677  18.197  29.949   1.355
61418W        W33678  10.916  14.137  10.892
61419W        W33679   9.811   6.978   0.891
61420W        W33680   6.495  13.584   3.626
61421W        W33681  25.031   2.782  12.322
61422W        W33682  20.070  35.159   0.475
61423W        W33683  43.382   4.806  11.629
61424W        W33684  42.063  37.848   2.298
61425W        W33685  25.644  35.396   4.467
61426W        W33686  18.319  36.281  14.933
61427W        W33687  15.824   7.361  13.303
61428W        W33688  27.763   1.711  11.240
61429W        W33689   4.836  12.004  13.426
61430W        W33690   1.720  21.808   4.589
61431W        W33691  29.393  37.631   2.146
61432W        W33692  19.153   6.838   0.388
61433W        W33693  14.295  10.166  13.936
61434W        W33694  31.609  11.706   0.749
61435W        W33695  43.316  40.600   1.029
61436W        W33696  36.902  10.768  10.704
61437W        W33697  42.834   0.431  12.056
61438W        W33698  39.534   7.742  13.100
61439W        W33699  25.706  23.489  14.450
61440W        W33700  37.389  17.293  11.027
61441W        W33701  23.414   0.851  14.392
61442W        W33702   2.868   5.352   4.478
61443W        W33703  40.511  37.481  10.577
61444W        W33704  10.296  17.044  11.956
61445W        W33705   0.107  25.965   2.088
61446W        W33706   3.804   2.732   4.064
61447W        W33707  33.385  41.698  12.951
61448W        W33708   6.979   3.892   0.463
61449W        W33709  37.361  40.423  11.865
61450W        W33710  44.876  28.384   3.685
61451W        W33711  18.998  20.491   0.360
61452W        W33712  17.494  28.171   2.289
61453W        W33713  15.325  15.585   4.135
61454W        W33714  26.455  36.131  14.948
61455W        W33715  25.906  31.984  10.715
61456W        W33716  23.585   8.839  13.247
61457W        W33717  43.534   9.885   2.463
61458W        W33718  16.344   8.308   1.856
61459W        W33719  25.530  16.396  14.790
61460W        W33720  43.459  28.698  12.666
61461W        W33721  32.451  28.551  12.061
61462W        W33722  35.906  13.315  13.312
61463W        W33723   6.358   1.532  12.878
61464W        W33724  41.020  31.096   3.470
61465W        W33725  30.210  15.104  11.569
61466W        W33726  43.376  41.416   3.090
61467W        W33727  36.749   9.476   5.527
61468W        W33728  28.156   9.532   0.578
61469W        W33729  27.472   0.735   4.485
61470W        W33730   8.937  37.973  11.135
61471W        W33731  15.263   4.669  14.404
61472W        W33732   2.973  35.403   0.400
61473W        W33733   6.540  39.709  10.720
61474W        W33734  41.605  27.523   2.694
61475W        W33735  15.319  33.549  11.499
61476W        W33736  12.423  17.984  13.806
61477W        W33737  34.477  32.948   4.169
61478W        W33738  26.472   7.128   0.459
61479W        W33739  20.658  22.430   3.699
61480W        W33740  44.963  14.442  13.501
61481W        W33741  24.433  15.947   4.681
61482W        W33742  22.706  42.438   2.278
61483W        W33743  15.815   8.729   1.451
61484W        W33744   7.995  29.480  10.218
61485W        W33745   3.412   2.731   4.844
61486W        W33746   9.476  16.680   2.284
61487W        W33747  31.058  21.148  11.576
61488W        W33748   5.399  33.539  11.291
61489W        W33749  19.830  15.834  11.097
61490W        W33750  15.472  16.731   4.586
61491W        W33751   5.235  15.613   2.828
61492W        W33752  35.967  28.177   0.202
61493W        W33753  17.316  27.057  10.366
61494W        W33754   2.535  19.804  10.675
61495W        W33755   7.220   4.546   4.575
61496W        W33756  43.395  20.560   2.287
61497W        W33757  16.820  33.800   3.565
61498W        W33758  19.318  35.558   1.785
61499W        W33759  28.502  11.843   4.390
61500W        W33760  38.549  34.866   3.708
61501W        W33761  20.547   8.631  11.568
61502W        W33762   8.885   9.017  10.959
61503W        W33763   8.747  37.441   4.697
61504W        W33764  21.501  33.832  11.105
61505W        W33765  13.384  22.729  12.072
61506W        W33766   2.002  14.832   2.305
61507W        W33767  23.226  28.755  10.172
61508W        W33768  37.315  11.693   5.055
61509W        W33769  29.548  26.752  12.459
61510W        W33770  42.562  19.222   1.684
61511W        W33771  35.112  16.816  11.634
61512W        W33772  35.578  12.847  10.805
61513W        W33773  31.921  28.954   0.098
61514W        W33774   6.742  44.320  12.875
61515W        W33775  43.504   4.236   0.862
61516W        W33776  44.420  38.999   0.431
61517W        W33777   9.708   8.276   1.940
61518W        W33778  20.788  25.631  14.136
61519W        W33779  20.501  43.591   2.828
61520W        W33780  39.419   5.231   4.547
61521W        W33781   8.205   6.540  12.346
61522W        W33782  17.762  22.050  13.547
61523W        W33783  28.929  22.118  11.264
61524W        W33784  29.803  20.614   4.840
61525W        W33785  17.307  11.371   3.364
61526W        W33786  42.108  27.665   2.643
61527W        W33787  21.416  14.760   3.113
61528W        W33788  17.166  35.500   3.530
61529W        W33789   8.898   4.237  13.454
61530W        W33790   8.329   3.815  10.481
61531W        W33791   4.552   0.742   4.202
61532W        W33792  43.792  39.057   0.955
61533W        W33793  11.743   2.381  12.842
61534W        W33794  30.567  25.471  11.632
61535W        W33795   1.858   9.513   3.802
61536W        W33796  32.823  18.988   2.710
61537W        W33797  27.742   2.723  13.839
61538W        W33798   2.802  13.191   1.262
61539W        W33799  15.695  15.952  10.079
61540W        W33800  27.937   9.411   1.443
61541W        W33801  28.684  36.471   2.207
61542W        W33802   3.422  43.731  11.527
61543W        W33803  14.723  16.330   1.884
61544W        W33804   2.264  39.368   4.603
61545W        W33805  18.741  37.412  13.359
61546W        W33806  29.062   5.308  11.172
61547W        W33807  13.277  44.512   3.337
61548W        W33808   8.214  11.538  10.592
61549W        W33809   2.000   6.207   3.334
61550W        W33810  25.441  29.092  12.534
61551W        W33811  28.759  34.048  13.569
61552W        W33812  15.989  10.326  12.372
61553W        W33813  37.080  35.799   0.348
61554W        W33814  33.165   2.008   2.265
61555W        W33815   3.730   7.825  11.368
61556W        W33816  31.360   8.301   3.748
61557W        W33817  11.734  22.990  13.343
61558W        W33818  33.130   8.397   0.333
61559W        W33819   8.778  33.384   2.470
61560W        W33820  18.979  22.825   4.042
61561W        W33821  43.468   9.670  14.872
61562W        W33822  40.388  43.081  13.876
61563W        W33823  21.525   5.167   3.290
61564W        W33824  34.119  39.731  12.881
61565W        W33825  38.897   2.379  13.906
61566W        W33826   4.520   3.306  11.580
61567W        W33827  15.894  39.806   4.661
61568W        W33828  18.582  18.977   3.383
61569W        W33829  19.648  40.893  11.010
61570W        W33830  28.885  34.115  14.697
61571W        W33831   4.358  15.478  11.013
61572W        W33832  31.121  34.154   4.062
61573W        W33833  40.927  10.171   1.369
61574W        W33834   1.869   0.277  10.699
61575W        W33835  39.004  14.680   4.646
61576W        W33836   3.768   2.653  14.418
61577W        W33837   6.697   7.193   1.756
61578W        W33838  44.076  37.928   3.733
61579W        W33839  12.924   5.398   2.577
61580W        W33840  35.439  25.963   2.857
61581W        W33841  44.765   9.928   2.698
61582W        W33842   2.468   9.613   3.940
61583W        W33843   7.874   3.275  12.653
61584W        W33844  37.920   7.287   9.635
61585W        W33845  36.674  32.854  11.174
61586W        W33846  14.204   7.583   4.123
61587W        W33847  36.151  43.393   0.436
61588W        W33848  16.389   9.566   1.501
61589W        W33849  35.463  35.532  12.559
61590W        W33850  33.916  34.570  14.274
61591W        W33851  11.541   8.233  14.863
61592W        W33852  20.728   2.890   3.736
61593W        W33853  33.341  26.158   1.905
61594W        W33854  11.434  23.092   4.480
61595W        W33855   7.184  38.025   2.294
61596W        W33856  38.473  13.844   4.729
61597W        W33857  33.972  33.625   1.851
61598W        W33858  42.108  26.790  11.205
61599W        W33859  26.817  18.215  12.030
61600W        W33860  35.691  21.665   1.716
61601W        W33861  16.698  44.040  10.438
61602W        W33862  22.469  18.609  11.264
61603W        W33863   7.717  42.310   5.002
61604W        W33864   7.800   0.291  12.915
61605W        W33865  23.800  33.442   3.634
61606W        W33866  23.501  21.933  13.716
61607W        W33867   9.801  15.397   2.710
61608W        W33868  30.977  26.006   1.153
61609W        W33869  18.818  41.095   0.596
61610W        W33870  43.258  37.018  14.903
61611W        W33871  32.318   8.299  10.584
61612W        W33872  32.352  12.415  14.530
61613W        W33873  31.242   7.926   2.313
61614W        W33874  41.702   9.070   0.512
61615W        W33875  41.805  41.851  14.451
61616W        W33876   8.458  25.495  12.549
61617W        W33877  36.470  25.088   0.854
61618W        W33878   0.501  13.444   1.368
61619W        W33879  40.902  12.964  11.112
61620W        W33880  28.727   7.174   2.987
61621W        W33881  31.325   3.416  11.157
61622W        W33882  38.814  22.082  12.435
61623W        W33883  10.408  30.394   9.979
61624W        W33884   5.808   3.303   3.253
61625W        W33885  21.502  31.512  14.455
61626W        W33886  25.665   8.802   4.576
61627W        W33887  23.765  10.915  11.522
61628W        W33888  36.830   7.800   0.271
61629W        W33889   3.306   0.534  12.450
61630W        W33890  26.958  20.466   1.361
61631W        W33891  21.489   5.676   4.462
61632W        W33892   6.188  41.943   0.109
61633W        W33893  13.710  12.869  11.542
61634W        W33894  15.665  32.359   0.645
61635W        W33895  37.537  32.622   4.873
61636W        W33896  26.525  38.560  11.821
61637W        W33897  14.098  20.011   4.206
61638W        W33898  12.702  38.519  10.667
61639W        W33899  28.291   5.343  13.554
61640W        W33900  29.746  25.495   3.040
61641W        W33901   5.110  37.822  11.167
61642W        W33902   5.598  29.345   4.991
61643W        W33903   2.941   5.789  11.366
61644W        W33904   0.375  24.005  12.972
61645W        W33905   7.858  27.211   1.950
61646W        W33906   2.240  14.740  11.167
61647W        W33907   1.187  20.136   2.225
61648W        W33908  12.092  10.302  10.720
61649W        W33909  12.881  14.739   2.195
61650W        W33910  12.242  12.522   1.268
61651W        W33911  14.663  19.089   0.475
61652W        W33912  35.096  44.815   3.712
61653W        W33913  38.635  31.219  13.319
61654W        W33914   2.433  12.567  12.993
61655W        W33915  18.914  41.643  10.340
61656W        W33916  34.224  14.953  12.390
61657W        W33917   8.593  34.383  11.061
61658W        W33918  16.108  43.214   3.848
61659W        W33919  34.824  19.724  10.671
61660W        W33920  39.963  24.087  10.594
61661W        W33921  19.121  11.734  14.463
61662W        W33922  23.632  25.514  11.983
61663W        W33923  38.838   9.782   3.276
61664W        W33924  30.664  36.617  10.724
61665W        W33925  17.093  39.023  12.086
61666W        W33926  36.371   4.656  13.550
61667W        W33927  34.867  18.341  11.695
61668W        W33928  31.130  27.356  12.445
61669W        W33929  30.401  10.146  12.523
61670W        W33930  25.281  11.350  13.790
61671W        W33931  12.955   0.779   1.943
61672W        W33932  35.881   0.264   2.318
61673W        W33933   4.334  16.521  13.004
61674W        W33934   1.819  29.519   2.871
61675W        W33935  29.043  33.513   1.380
61676W        W33936  34.926  37.065  12.988
61677W        W33937  19.467  23.571  13.536
61678W        W33938  14.708  31.573   1.827
61679W        W33939  19.320  30.495  11.946
61680W        W33940  35.063  39.388  14.392
61681W        W33941   6.459   3.848  13.987
61682W        W33942  36.605  23.135  10.565
61683W        W33943   4.704  41.770   3.006
61684W        W33944  29.983  24.771   1.018
61685W        W33945  25.004  37.404   3.178
61686W        W33946  16.721  29.938   1.734
61687W        W33947  10.347  11.856  10.778
61688W        W33948   0.966   3.287   1.900
61689W        W33949  24.609   6.624   1.845
61690W        W33950  10.134  19.716   3.725
61691W        W33951  29.953  34.589   2.624
61692W        W33952   2.905  18.956   1.188
61693W        W33953  44.049  14.988  10.496
61694W        W33954  11.704   6.597   1.749
61695W        W33955  15.859  34.323  13.463
61696W        W33956  29.928  18.592   0.980
61697W        W33957  37.576  27.024  11.998
61698W        W33958  30.976  12.384   0.352
61699W        W33959  29.865  26.611  14.470
61700W        W33960  39.282   8.298  14.980
61701W        W33961   1.271  11.778  14.447
61702W        W33962  18.035   9.780  14.279
61703W        W33963  37.751  42.758   2.406
61704W        W33964  24.570  42.359   0.906
61705W        W33965  22.339  41.010   1.917
61706W        W33966  38.116  25.204   3.273
61707W        W33967  28.189  37.314   3.746
61708W        W33968   2.835  12.775   0.421
61709W        W33969  42.578  10.116   2.715
61710W        W33970  20.191  24.039  13.886
61711W        W33971  16.341  29.456   3.193
61712W        W33972  32.421  41.474   1.730
61713W        W33973   1.567   9.843  14.254
61714W        W33974  11.842  22.640   1.129
61715W        W33975  20.253  35.023   2.433
61716W        W33976  16.701  17.457   0.897
61717W        W33977  17.088  31.957  12.538
61718W        W33978   2.288  41.509   1.285
61719W        W33979   2.430  43.837  10.978
61720W        W33980  35.299   3.801  11.105
61721W        W33981  12.840  24.718  14.410
61722W        W33982  40.982  21.122  10.834
61723W        W33983  18.718  20.211   2.772
61724W        W33984  28.966  22.327   2.292
61725W        W33985  25.142  38.869   3.187
61726W        W33986  38.285  22.539  12.411
61727W        W33987  29.359  44.013   4.161
61728W        W33988   7.621  16.343  11.575
61729W        W33989  41.440   2.442   5.037
61730W        W33990   4.053  18.584  12.926
61731W        W33991  24.815  11.611   0.920
61732W        W33992  13.333  38.065   0.118
61733W        W33993   7.222  38.607  13.500
61734W        W33994  23.192  19.254   3.889
61735W        W33995  39.984  28.875   0.713
61736W        W33996   4.855  44.014   2.567
61737W        W33997  18.410  32.052   1.599
61738W        W33998  27.486  21.248   1.265
61739W        W33999  32.372  15.336   1.318
61740W        W34000  43.511   9.426   4.255
61741W        W34001  33.518  16.988   2.226
61742W        W34002  42.029   7.390   1.185
61743W        W34003  43.725  22.394  13.951
61744W        W34004   8.758  35.103  14.934
61745W        W34005   9.593  35.606   0.800
61746W        W34006   8.389   8.759   0.416
61747W        W34007   0.256   6.957  14.798
61748W        W34008  16.495  18.644   1.762
61749W        W34009  20.854  20.106  13.580
61750W        W34010  34.936  20.492  11.464
61751W        W34011  13.882  26.906   5.078
61752W        W34012   5.950  10.121   2.768
61753W        W34013  22.138  29.188  10.981
61754W        W34014  13.185   1.224   0.866
61755W        W34015  18.180  21.850   0.840
61756W        W34016  21.167  37.946   0.232
61757W        W34017  29.551  11.259   3.711
61758W        W34018  24.551  42.795   1.185
61759W        W34019  15.869   8.167  14.739
61760W        W34020  25.676   8.993  14.885
61761W        W34021  19.715  19.453   0.895
61762W        W34022  28.944  23.245   2.723
61763W        W34023  27.115  18.119   4.726
61764W        W34024   0.960   0.705  13.671
61765W        W34025  12.206   4.713   3.394
61766W        W34026  32.025  21.781   1.389
61767W        W34027  13.883  33.488  13.836
61768W        W34028  32.813  44.506   1.466
61769W        W34029  34.168  36.004  14.295
61770W        W34030   5.251  11.901   0.727
61771W        W34031  33.545  39.972   4.220
61772W        W34032  15.597  13.604   1.725
61773W        W34033  21.738   9.148   1.173
61774W        W34034  24.448   9.067  10.532
61775W        W34035  42.507   7.712  11.602
61776W        W34036   6.154  10.131  14.798
61777W        W34037  44.417  25.732  14.436
61778W        W34038  16.309   6.465  14.494
61779W        W34039  26.291  31.239  10.101
61780W        W34040  30.440  22.507  13.238
61781W        W34041  43.872  43.918  14.882
61782W        W34042   6.807  30.635  12.935
61783W        W34043  30.611  29.100   1.391
61784W        W34044  17.330   4.268  10.705
61785W        W34045  13.876  37.307  11.068
61786W        W34046  41.264  34.444  13.032
61787W        W34047  34.755  34.536   0.872
61788W        W34048  43.648  22.026   3.653
61789W        W34049  11.634  34.959   1.716
61790W        W34050  13.868  36.526  11.516
61791W        W34051   8.052  36.922   2.824
61792W        W34052  35.691  16.058   4.126
61793W        W34053  37.464  39.383  14.041
61794W        W34054   1.676  15.182  11.633
61795W        W34055  13.834  35.406   4.621
61796W        W34056  39.711  29.347  12.060
61797W        W34057   8.220  19.188   2.905
61798W        W34058  18.912  12.328  12.456
61799W        W34059  39.368  37.050   2.112
61800W        W34060  36.915  20.174   2.609
61801W        W34061  34.629  14.788  13.915
61802W        W34062  16.155  27.652  13.071
61803W        W34063  10.978  30.448   1.695
61804W        W34064  20.278   0.691  12.598
61805W        W34065  35.352  15.556  13.668
61806W        W34066   4.710  29.562  14.253
61807W        W34067  39.156  32.013  12.805
61808W        W34068  35.882   4.505  13.620
61809W        W34069   9.354   5.507  11.542
61810W        W34070   7.274   0.978  12.100
61811W        W34071   4.085  11.824   0.877
61812W        W34072  12.504  15.796   1.301
61813W        W34073  28.484  26.914   4.108
61814W        W34074  37.472   9.057  13.062
61815W        W34075   6.917  43.824  14.320
61816W        W34076  14.887  13.846  11.621
61817W        W34077   2.008  28.927   0.288
61818W        W34078  18.571  27.203  14.413
61819W        W34079  31.602   7.468   3.830
61820W        W34080  13.896  37.051  13.934
61821W        W34081  37.080  24.655   0.668
61822W        W34082  20.736  13.104   0.069
61823W        W34083  27.600  21.490   0.361
61824W        W34084   5.753  22.505  12.817
61825W        W34085   7.672  36.008  13.789
61826W        W34086  44.607   8.276   0.796
61827W        W34087  16.361  36.636  14.862
61828W        W34088  43.806   4.115  14.826
61829W        W34089   9.521   4.678  14.821
61830W        W34090  19.190  35.087   3.049
61831W        W34091  19.727  16.126   2.221
61832W        W34092   6.725  25.649   4.556
61833W        W34093  33.590   5.623  11.285
61834W        W34094  13.336  14.704   3.368
61835W        W34095   7.947   6.910  14.400
61836W        W34096  20.125  31.406  14.517
61837W        W34097  25.052  39.821   4.042
61838W        W34098  43.465   9.280  14.024
61839W        W34099  16.505  29.092   3.643
61840W        W34100   0.523  35.908   2.267
61841W        W34101   3.731  43.865   4.961
61842W        W34102   0.702  18.628   0.239
61843W        W34103  28.472  40.402  13.969
61844W        W34104  28.739  38.962  11.523
61845W        W34105   3.242  16.748   3.082
61846W        W34106  17.301  44.473  14.024
61847W        W34107  19.787  16.547  14.417
61848W        W34108  35.477  34.291   0.001
61849W        W34109   0.312  12.771   4.117
61850W        W34110  43.810  35.395  14.567
61851W        W34111   4.341  36.638  12.029
61852W        W34112  21.757  32.945  13.864
61853W        W34113  30.161  41.490  12.904
61854W        W34114   9.349  12.846  14.345
61855W        W34115  32.055   9.884   2.625
61856W        W34116   5.854  11.347  13.378
61857W        W34117   8.672   5.836   0.508
61858W        W34118   6.651  22.480  13.605
61859W        W34119  35.442   1.899  13.040
61860W        W34120  23.915   1.768   2.905
61861W        W34121  34.666  25.958  12.016
61862W        W34122  39.425   5.405   1.006
61863W        W34123  37.914  16.644  12.981
61864W        W34124   8.234  37.884   1.301
61865W        W34125  12.523  22.729   3.190
61866W        W34126  18.825  16.556   4.233
61867W        W34127  29.480  27.431  14.229
61868W        W34128  24.067  36.829   1.855
61869W        W34129  31.587  36.270   4.202
61870W        W34130  34.892  30.014   4.079
61871W        W34131  32.843  12.118   2.682
61872W        W34132  32.062  20.204  10.694
61873W        W34133   5.436  40.802  14.358
61874W        W34134  10.451  42.489   2.740
61875W        W34135  44.949  20.673   4.131
61876W        W34136  27.519  22.190   0.989
61877W        W34137  20.533  10.709   3.732
61878W        W34138  27.504   6.896  11.814
61879W        W34139  33.649   0.425  11.183
61880W        W34140  35.170   2.717   3.188
61881W        W34141   5.921  18.276   2.723
61882W        W34142  13.301   6.415   0.238
61883W        W34143  33.168  39.484  12.056
61884W        W34144  37.493  11.198   1.902
61885W        W34145   6.680  30.701   4.162
61886W        W34146   3.970  29.429   4.437
61887W        W34147  36.454  24.109  14.730
61888W        W34148  18.769  40.598  11.127
61889W        W34149  16.038  27.044  10.410
61890W        W34150   6.469  36.394  13.642
61891W        W34151  42.169  25.929   1.772
61892W        W34152  21.388  11.600   3.089
61893W        W34153  36.700  36.318   5.149
61894W        W34154  40.131  37.401   3.241
61895W        W34155  24.967  20.638   2.761
61896W        W34156  31.468  38.167   0.698
61897W        W34157   3.716  42.935  12.987
61898W        W34158  13.113  21.241   0.420
61899W        W34159  11.985  15.521   4.055
61900W        W34160   9.837  39.696   0.286
61901W        W34161  27.743  35.938  14.908
61902W        W34162   6.230  42.367  14.762
61903W        W34163   3.295   3.958  14.848
61904W        W34164  14.475   3.332  13.383
61905W        W34165  43.970  39.170  11.992
61906W        W34166  35.121  37.867   3.875
61907W        W34167  13.398  37.172   2.691
61908W        W34168  32.988  19.973  14.583
61909W        W34169  42.638  24.173  13.254
61910W        W34170   0.871  10.343  14.041
61911W        W34171  37.174  19.673   5.074
61912W        W34172  32.970  42.615  11.525
61913W        W34173  31.669  31.867   4.814
61914W        W34174  10.126  27.274   4.216
61915W        W34175   8.212  30.065   1.350
61916W        W34176  20.634  39.232   0.432
61917W        W34177  26.400   7.674   4.923
61918W        W34178   3.234  25.100   0.935
61919W        W34179  13.840  29.351   3.785
61920W        W34180  26.020  21.256   2.412
61921W        W34181  27.978   8.314   4.143
61922W        W34182   6.237  39.004   0.081
61923W        W34183  41.294  41.449  12.485
61924W        W34184   6.183  30.723  13.379
61925W        W34185  21.281  30.712   0.922
61926W        W34186   2.408  29.927   3.549
61927W        W34187  33.933   5.833  10.964
61928W        W34188  28.486  25.078   0.226
61929W        W34189   4.169  27.988  14.506
61930W        W34190  32.443   3.758  14.887
61931W        W34191  29.695  21.768   2.869
61932W        W34192  36.310  36.863   1.023
61933W        W34193  43.297  31.190  14.852
61934W        W34194  29.942   9.277   4.831
61935W        W34195  23.015  31.620   1.829
61936W        W34196  37.087  40.804  12.117
61937W        W34197  28.356  27.667  14.742
61938W        W34198  34.905  41.421   2.598
61939W        W34199  29.428   5.283  11.560
61940W        W34200  37.481  44.214  14.384
61941W        W34201  18.016   9.727   4.408
61942W        W34202   8.095  21.228  13.435
61943W        W34203  17.679   1.692   2.280
61944W        W34204   1.969  39.447  14.255
61945W        W34205  28.055  38.763  11.276
61946W        W34206  23.993  18.505  13.058
61947W        W34207   9.080  11.264  11.482
61948W        W34208  18.796  23.653  11.676
61949W        W34209  42.855  38.599   0.806
61950W        W34210   9.432  31.094   2.854
61951W        W34211   2.306   9.373  14.970
61952W        W34212  44.774  17.987  14.460
61953W        W34213  29.560  33.445   1.319
61954W        W34214   9.762  21.097   1.172
61955W        W34215  38.035  25.086   4.633
61956W        W34216  32.744   3.686  13.473
61957W        W34217  13.846  31.418   2.569
61958W        W34218  20.117  15.845   0.418
61959W        W34219  19.847  21.591  14.160
61960W        W34220  23.787  25.552   2.731
61961W        W34221  16.576   5.683   0.376
61962W        W34222  44.630   4.855  11.281
61963W        W34223  12.911  11.891   4.118
61964W        W34224  33.050  38.803   2.765
61965W        W34225  33.664  39.792  12.613
61966W        W34226   8.386  21.399  11.400
61967W        W34227  37.606  18.807   0.418
61968W        W34228  24.638   6.615  10.939
61969W        W34229  18.064   6.041  13.901
61970W        W34230  21.665  28.424  14.703
61971W        W34231  23.214  38.931  12.387
61972W        W34232   8.384  23.710  13.161
61973W        W34233  28.984   6.287  14.860
61974W        W34234  28.656   8.331   3.502
61975W        W34235  41.009   4.213   4.833
61976W        W34236  36.636  19.579  11.431
61977W        W34237  13.797  20.376   1.886
61978W        W34238  33.350  11.435   4.071
61979W        W34239  18.027  16.589  10.718
61980W        W34240  10.718   4.662  13.393
61981W        W34241  20.016   5.427   0.736
61982W        W34242  43.915  18.828  12.064
61983W        W34243  41.186  44.736   3.667
61984W        W34244  21.470  15.151  12.822
61985W        W34245  16.523  32.280  12.059
61986W        W34246  11.974  15.314  12.037
61987W        W34247   9.953  44.250   3.884
61988W        W34248   3.847  15.621  14.918
61989W        W34249  11.919  42.832   0.764
61990W        W34250  31.062  21.422   0.538
61991W        W34251  27.926   5.343   0.011
61992W        W34252   5.972  34.784   4.215
61993W        W34253  20.423   8.269   2.717
61994W        W34254  41.574  22.478   2.493
61995W        W34255  19.637  35.210  14.443
61996W        W34256  36.089  14.100   4.678
61997W        W34257  40.578  22.315   3.687
61998W        W34258  15.822  24.432  12.098
61999W        W34259  35.374  42.948  11.960
62000W        W34260   3.886  26.354  12.793
62001W        W34261  28.460  44.803  10.754
62002W        W34262  22.248  12.374   1.258
62003W        W34263  25.069  40.870   0.516
62004W        W34264   1.944   8.234  12.156
62005W        W34265  11.188   6.373  13.983
62006W        W34266  12.258  29.629  11.050
62007W        W34267  33.497  44.787  12.044
62008W        W34268   4.319  14.057  10.967
62009W        W34269   4.054  12.035  12.103
62010W        W34270   6.400  27.598   3.383
62011W        W34271  23.079  15.848   2.831
62012W        W34272   7.226  43.104  11.590
62013W        W34273  13.095  42.029  13.528
62014W        W34274  21.030  26.188  13.763
62015W        W34275  24.195  20.491   2.228
62016W        W34276  30.463   1.426   3.320
62017W        W34277  15.550  42.927   2.706
62018W        W34278  31.677  29.144   0.520
62019W        W34279  43.264  19.150   2.314
62020W        W34280  35.150  36.960   3.244
62021W        W34281  23.596  23.639   3.255
62022W        W34282  26.083  23.558  13.500
62023W        W34283  17.602  26.938  13.448
62024W        W34284  38.449  18.683   3.137
62025W        W34285  19.407  30.569   0.921
62026W        W34286  35.424   7.963   4.535
62027W        W34287  27.890   0.852  11.251
62028W        W34288  32.909  28.619   0.323
62029W        W34289  11.378  15.137   0.539
62030W        W34290  14.151  14.775   1.782
62031W        W34291  36.648  16.194   1.304
62032W        W34292  30.684  39.476  10.763
62033W        W34293  21.458  26.555   1.148
62034W        W34294   4.423  16.550  13.550
62035W        W34295   0.488  27.886  11.326
62036W        W34296  32.704  25.440   4.692
62037W        W34297   3.264  20.122   4.095
62038W        W34298  31.001  17.234   0.260
62039W        W34299  23.145   9.752  12.474
62040W        W34300  27.479  13.772   0.109
62041W        W34301  14.788   0.742  10.762
62042W        W34302  32.972  27.215  14.456
62043W        W34303   5.709  30.111   3.205
62044W        W34304  25.561   0.677   3.314
62045W        W34305  21.263  42.814   1.944
62046W        W34306  11.529  17.799  11.957
62047W        W34307   4.840   4.782  11.896
62048W        W34308  15.350  15.298  10.172
62049W        W34309  42.737  25.579   3.295
62050W        W34310  22.295  15.332   1.776
62051W        W34311  22.585   7.346   3.678
62052W        W34312  12.982  10.301   0.639
62053W        W34313  13.098  12.364   2.139
62054W        W34314  32.093  20.784   0.296
62055W        W34315  17.737  25.972   1.853
62056W        W34316  38.177  30.531  14.941
62057W        W34317  24.235  25.136  10.429
62058W        W34318  29.378   1.229   2.432
62059W        W34319  40.926  10.361   4.617
62060W        W34320   9.964  12.124  13.962
62061W        W34321  26.479  29.539   3.219
62062W        W34322  29.442  41.300  10.786
62063W        W34323  42.649   5.841  12.086
62064W        W34324  27.894  14.843   0.864
62065W        W34325  43.343   6.771   4.212
62066W        W34326   8.602  11.962  14.930
62067W        W34327  30.509  29.517   4.676
62068W        W34328  14.950  22.829   2.729
62069W        W34329  14.262  38.153  14.837
62070W        W34330  13.382  18.120  12.025
62071W        W34331  13.919  24.195   2.612
62072W        W34332   7.625  32.845  12.413
62073W        W34333  38.340  36.562   3.860
62074W        W34334  18.118  21.649  12.615
62075W        W34335  14.590  34.812  14.116
62076W        W34336  23.770   1.577  14.484
62077W        W34337   7.579  24.501  12.741
62078W        W34338  16.736  24.329   3.864
62079W        W34339  14.315  28.169   1.818
62080W        W34340  15.110  36.087   4.220
62081W        W34341  34.738  41.191  12.078
62082W        W34342  35.565  33.838  11.634
62083W        W34343  18.291  12.618   0.428
62084W        W34344  30.628  24.556  11.580
62085W        W34345   5.814  39.751  14.261
62086W        W34346  22.936  18.254  10.597
62087W        W34347  22.246  15.340  14.493
62088W        W34348  29.029  30.298  13.302
62089W        W34349  26.104  38.586  10.138
62090W        W34350  27.771  33.061  13.550
62091W        W34351   7.761  12.424   0.930
62092W        W34352   0.323  24.730   0.013
62093W        W34353  28.478  44.999   0.345
62094W        W34354  40.670  23.708  14.014
62095W        W34355   2.647  40.979  11.670
62096W        W34356  18.690  30.145  13.641
62097W        W34357  22.155  33.975  12.104
62098W        W34358  36.097  15.089  14.082
62099W        W34359  13.389  21.189   1.678
62100W        W34360  14.115  38.508  11.569
62101W        W34361   9.227   6.392  12.986
62102W        W34362  44.656  20.326  11.150
62103W        W34363  27.880  14.609   2.238
62104W        W34364  44.547  12.815   0.381
62105W        W34365   2.713  24.806   0.470
62106W        W34366  11.152   9.274   1.684
62107W        W34367  29.763  20.985   2.674
62108W        W34368   2.846   0.303   3.266
62109W        W34369  17.535  27.529  10.441
62110W        W34370  44.534   6.239   3.278
62111W        W34371  12.780  40.287  12.936
62112W        W34372   4.537  20.492   1.727
62113W        W34373  29.246  29.569   1.958
62114W        W34374   9.839   6.454   0.807
62115W        W34375  42.921  41.567   2.772
62116W        W34376   0.690  40.793  10.466
62117W        W34377  30.193  13.847  11.035
62118W        W34378  43.295   4.695   2.658
62119W        W34379  33.694  31.996  10.565
62120W        W34380  30.349  34.652  11.976
62121W        W34381  39.926  35.659  12.858
62122W        W34382  21.288  39.029   3.544
62123W        W34383  38.444   5.167   3.977
62124W        W34384  31.023   5.394   1.600
62125W        W34385   1.972  28.541   0.936
62126W        W34386   6.286  13.037  12.428
62127W        W34387   2.704   1.805  13.141
62128W        W34388  14.231  35.651  11.530
62129W        W34389  36.039  37.492   2.383
62130W        W34390  30.570  32.615   2.875
62131W        W34391  44.729  15.290  14.865
62132W        W34392  43.760   4.531  11.444
62133W        W34393   7.893  30.993   1.270
62134W        W34394  21.937  18.187  10.602
62135W        W34395  30.698   6.784   0.489
62136W        W34396  41.933  24.141  13.842
62137W        W34397  26.389  31.587   5.071
62138W        W34398   2.992  13.619  11.601
62139W        W34399  26.143  24.787  14.229
62140W        W34400  43.737  34.410  14.636
62141W        W34401   1.809  44.514  13.435
62142W        W34402  22.963   3.863   0.924
62143W        W34403  17.674  25.967  13.661
62144W        W34404  18.526  40.384   3.638
62145W        W34405  16.888  23.157  11.583
62146W        W34406  15.170  25.967   2.187
62147W        W34407  30.605  31.962   0.736
62148W        W34408  41.891   9.155   4.307
62149W        W34409   5.263   5.466  11.216
62150W        W34410   3.775  22.070   3.158
62151W        W34411   0.736  11.451  11.480
62152W        W34412   2.900   8.057   2.656
62153W        W34413  22.564  17.177  13.190
62154W        W34414   8.274  30.398  11.257
62155W        W34415  44.363  42.779   5.153
62156W        W34416  40.145   0.521   2.359
62157W        W34417  14.714  21.751   3.231
62158W        W34418  36.466  35.681   3.170
62159W        W34419  36.415  10.304  14.249
62160W        W34420  33.599  26.120  13.730
62161W        W34421  41.554   2.440  12.440
62162W        W34422  16.687   9.708   4.258
62163W        W34423   4.248  29.180   3.440
62164W        W34424  22.070  11.628   0.954
62165W        W34425  26.960  32.284   4.638
62166W        W34426  21.138   3.706   5.038
62167W        W34427  41.839  20.658  13.505
62168W        W34428  44.207  19.779  12.570
62169W        W34429  25.915   7.504  11.069
62170W        W34430  34.902  22.818  11.037
62171W        W34431  30.362  20.108  14.942
62172W        W34432  12.621  37.043  12.896
62173W        W34433   5.510  39.164   4.623
62174W        W34434  42.059  25.419  13.103
62175W        W34435   0.252  22.510  12.500
62176W        W34436  29.434  38.414   2.735
62177W        W34437  18.093   4.912   4.876
62178W        W34438   8.896  10.420  12.227
62179W        W34439  34.954  24.221  10.758
62180W        W34440  11.196  40.530  11.202
62181W        W34441  23.624  22.032  14.194
62182W        W34442  31.347   0.031  11.956
62183W        W34443  35.590  11.026   3.610
62184W        W34444   6.210   0.851   1.782
62185W        W34445  40.060  43.014  14.524
62186W        W34446  44.599  16.316   1.474
62187W        W34447  15.254  35.636  12.689
62188W        W34448  21.702  42.071  14.496
62189W        W34449  11.007  25.750  11.090
62190W        W34450  22.961  15.410   1.203
62191W        W34451  37.852  16.647  14.841
62192W        W34452   9.698  31.827   0.579
62193W        W34453  26.217  30.383  11.981
62194W        W34454  24.152   2.858   2.648
62195W        W34455  41.018  11.378  14.879
62196W        W34456   6.423  12.080   2.795
62197W        W34457  39.010  34.058   4.181
62198W        W34458  42.012   8.352  11.072
62199W        W34459   3.065  43.346  13.422
62200W        W34460   5.620   3.890   3.223
62201W        W34461  27.982  20.259  13.438
62202W        W34462   1.326  27.976  14.421
62203W        W34463  37.722  10.065   5.057
62204W        W34464  31.391  37.794   3.375
62205W        W34465  27.994  16.042  12.170
62206W        W34466  27.443  40.066   1.497
62207W        W34467  41.489  37.148   0.450
62208W        W34468  38.825  22.566   2.808
62209W        W34469   6.331  17.085   3.700
62210W        W34470  20.021  43.973   9.661
62211W        W34471  23.602  38.778   1.701
62212W        W34472  16.740  25.428  11.924
62213W        W34473  31.485   6.936   2.153
62214W        W34474  39.019  16.045   1.302
62215W        W34475  29.381  11.498  13.449
62216W        W34476  42.954  32.576   1.823
62217W        W34477  24.297  27.528  11.642
62218W        W34478  24.676  42.130  10.452
62219W        W34479  41.537  25.574  14.434
62220W        W34480  21.707  13.170  11.636
62221W        W34481  25.063  19.469   2.351
62222W        W34482  13.864  43.305  14.303
62223W        W34483  12.661   4.395  14.722
62224W        W34484  29.967  27.288  12.955
62225W        W34485  21.641  35.431   3.866
62226W        W34486  26.412  12.391  13.340
62227W        W34487  42.085   9.208  13.628
62228W        W34488  11.172   8.658  14.503
62229W        W34489   8.287  39.512   2.323
62230W        W34490   9.337   7.120  12.441
62231W        W34491   1.978  37.795  10.811
62232W        W34492   0.542  44.354  12.881
62233W        W34493  14.283   0.940  11.636
62234W        W34494  24.098  20.520  14.941
62235W        W34495   7.730  29.015  10.265
62236W        W34496   8.443  14.643   2.777
62237W        W34497   5.834  37.003   1.894
62238W        W34498  28.052   1.744  14.865
62239W        W34499  10.110  14.440  11.128
62240W        W34500  37.477  22.464  12.558
62241W        W34501  37.360  41.515   4.357
62242W        W34502  16.112  32.072  11.233
62243W        W34503  12.656  16.551  10.636
62244W        W34504   7.360  20.790   3.594
62245W        W34505   2.316  23.376  13.643
62246W        W34506  15.319  29.923  14.864
62247W        W34507   5.870   3.677   2.826
62248W        W34508  21.252  21.162   5.465
62249W        W34509  44.126  43.023  11.137
62250W        W34510  15.215  14.068  12.437
62251W        W34511   0.435  34.302  11.651
62252W        W34512  13.719  31.384  12.685
62253W        W34513  27.863  32.989  14.062
62254W        W34514  20.322   1.738  10.679
62255W        W34515  42.815   2.476   4.612
62256W        W34516   8.854  33.861   4.688
62257W        W34517  39.107  29.526  10.410
62258W        W34518  20.246  32.089  11.978
62259W        W34519  26.465   4.235   2.305
62260W        W34520  22.987  36.610   2.485
62261W        W34521  18.137  30.446   4.597
62262W        W34522  13.646   3.583  11.838
62263W        W34523  16.562  26.688   3.591
62264W        W34524  27.520  37.822  13.967
62265W        W34525   9.228  40.487  14.963
62266W        W34526  14.662  30.162  10.609
62267W        W34527  13.634  11.908  13.639
62268W        W34528  20.468  18.616   0.163
62269W        W34529  39.011   6.875  13.297
62270W        W34530  29.605  28.081   4.619
62271W        W34531  28.839  32.837  14.115
62272W        W34532  22.288  21.838   5.315
62273W        W34533   0.804  26.648   1.747
62274W        W34534   9.065  36.377  10.709
62275W        W34535  38.580  39.713  11.378
62276W        W34536  30.997  22.925  11.429
62277W        W34537  44.114  28.750   0.861
62278W        W34538   0.916  25.209  14.766
62279W        W34539  34.559   0.804   2.310
62280W        W34540  26.916  20.627   4.858
62281W        W34541   1.665  43.939   1.855
62282W        W34542  18.122  10.266  14.901
62283W        W34543  32.384  14.313   4.606
62284W        W34544  34.887  18.388  12.555
62285W        W34545  14.278  33.860   1.290
62286W        W34546   9.223   3.246   2.663
62287W        W34547   9.580  44.204  14.737
62288W        W34548   3.490  34.909  11.979
62289W        W34549  12.362  38.883  10.649
62290W        W34550  43.724  35.483   4.815
62291W        W34551  41.725  29.382  12.028
62292W        W34552  10.848  35.386   3.791
62293W        W34553  21.090  27.141   2.229
62294W        W34554  31.083  32.447   1.812
62295W        W34555  38.770  31.039   0.514
62296W        W34556  41.304  43.031  11.787
62297W        W34557  26.467  27.448   4.097
62298W        W34558  39.491  30.125  11.549
62299W        W34559  20.494  25.222   2.266
62300W        W34560  20.729  20.108   4.676
62301W        W34561  24.111  11.634   0.329
62302W        W34562  20.725  10.913   1.967
62303W        W34563  16.668  21.582   1.970
62304W        W34564  33.573   7.996   2.294
62305W        W34565  24.724  19.745  13.293
62306W        W34566  38.974  19.436  13.894
62307W        W34567   6.900  23.522  12.501
62308W        W34568   7.118  27.510   2.340
62309W        W34569  41.465  29.525  14.861
62310W        W34570  42.055  42.476   3.119
62311W        W34571  31.117  37.975  10.887
62312W        W34572  33.851  16.132   1.810
62313W        W34573   5.026  25.371   5.024
62314W        W34574   2.862  34.665  14.253
62315W        W34575  42.529   8.713   4.793
62316W        W34576  11.592   1.198  14.733
62317W        W34577  31.636  24.404   1.576
62318W        W34578  20.086  39.933   4.371
62319W        W34579  11.790   7.329   2.137
62320W        W34580  35.646  19.073  12.733
62321W        W34581   9.189  33.161   5.066
62322W        W34582  33.449  15.450  14.002
62323W        W34583  31.975  43.882   2.325
62324W        W34584   6.497   6.709   3.083
62325W        W34585  10.329  25.716   0.856
62326W        W34586   0.901  35.987   0.864
62327W        W34587   4.921  44.875  12.208
62328W        W34588   9.683  15.732   3.694
62329W        W34589  38.951  44.751  12.316
62330W        W34590  37.842  24.973  14.099
62331W        W34591  12.830   4.722  11.535
62332W        W34592  18.554  12.710   3.589
62333W        W34593  29.532  17.707   0.472
62334W        W34594   4.221  12.945  14.437
62335W        W34595  27.976  33.535   1.232
62336W        W34596  15.824  39.601   1.013
62337W        W34597   3.269  41.931   3.457
62338W        W34598  30.436  36.265   3.729
62339W        W34599  36.309  19.484   5.495
62340W        W34600  43.909   7.378   1.165
62341W        W34601  39.777  24.686  14.412
62342W        W34602  41.020  34.596  14.912
62343W        W34603  39.533   0.511  13.858
62344W        W34604   4.274  40.770  12.948
62345W        W34605  42.518  10.794   3.888
62346W        W34606  19.184   9.196  13.801
62347W        W34607   2.020  24.247  12.063
62348W        W34608   5.755   3.240  14.540
62349W        W34609  44.712   7.042   4.430
62350W        W34610  35.601   8.808  13.425
62351W        W34611  35.834  42.928   2.360
62352W        W34612  16.968  43.487   1.206
62353W        W34613  31.206  27.969  11.111
62354W        W34614  12.119  33.921   1.287
62355W        W34615   0.851  38.420  11.936
62356W        W34616  36.175  28.196  11.180
62357W        W34617   9.174   9.810   3.236
62358W        W34618  32.624  31.282   2.291
62359W        W34619   3.666  24.194   2.949
62360W        W34620  25.942   4.259   2.363
62361W        W34621  38.974   0.371  14.766
62362W        W34622  28.081  16.270   0.812
62363W        W34623  39.946  28.647   1.158
62364W        W34624  18.000  12.356   4.919
62365W        W34625  42.903  25.451   3.802
62366W        W34626  24.509  40.206  12.311
62367W        W34627  44.381  31.494  12.471
62368W        W34628  33.334  41.956   2.537
62369W        W34629   0.295  32.775   1.890
62370W        W34630  10.244  36.161  12.539
62371W        W34631  23.278  18.534   9.682
62372W        W34632  16.100  14.815  13.021
62373W        W34633   6.188  44.703  11.505
62374W        W34634  19.994  16.575  10.711
62375W        W34635  18.172  42.480  10.888
62376W        W34636  10.331  31.846  13.938
62377W        W34637  14.741  22.218  11.108
62378W        W34638  27.187  14.803   3.198
62379W        W34639  32.604  33.896  12.239
62380W        W34640  40.357   4.280  12.995
62381W        W34641   7.727  29.221  13.239
62382W        W34642  15.018   3.495   0.705
62383W        W34643  26.746  35.967  14.104
62384W        W34644  11.909  21.132  10.563
62385W        W34645   4.439  29.362  11.473
62386W        W34646  14.718  30.693  10.789
62387W        W34647  34.879  20.187   1.685
62388W        W34648  28.335  25.111  10.265
62389W        W34649  34.075  20.448  11.532
62390W        W34650   1.961  35.109  11.913
62391W        W34651  40.885   9.879   3.466
62392W        W34652  14.401  14.942  11.040
62393W        W34653   5.287  37.985   0.960
62394W        W34654  29.921  14.599  14.027
62395W        W34655  38.002  42.911   1.519
62396W        W34656  31.558  44.318  13.812
62397W        W34657  44.059  34.923  12.353
62398W        W34658   8.679  29.429  12.089
62399W        W34659   9.352  26.075  14.347
62400W        W34660  35.091   8.468  12.892
62401W        W34661  34.447  32.892  13.422
62402W        W34662  26.678  22.660  11.021
62403W        W34663  33.257  34.892   3.344
62404W        W34664  29.917  29.916   4.685
62405W        W34665  39.797  18.296   4.124
62406W        W34666  14.131  20.070  13.909
62407W        W34667  20.154  40.179  12.511
62408W        W34668  39.387  10.867  11.445
62409W        W34669  26.257  30.094   4.439
62410W        W34670  35.824   2.236   2.408
62411W        W34671  36.561  16.562   1.697
62412W        W34672   6.701  43.864   0.335
62413W        W34673   5.132  44.442   1.348
62414W        W34674  35.912   8.149   4.529
62415W        W34675  38.898   7.834   1.710
62416W        W34676   2.947  30.384  13.416
62417W        W34677  13.097   7.511   1.690
62418W        W34678   7.637   6.918   0.313
62419W        W34679  24.875  21.689  13.231
62420W        W34680  27.266  25.291  11.129
62421W        W34681  20.944   6.442   1.896
62422W        W34682  35.610   5.686  13.740
62423W        W34683   8.782  28.832  12.148
62424W        W34684   6.961  31.127   4.058
62425W        W34685  22.126  41.892  12.947
62426W        W34686  27.554   4.815  10.636
62427W        W34687  19.277  19.574   0.347
62428W        W34688  18.501   2.660  14.319
62429W        W34689  43.584  20.785  12.960
62430W        W34690  24.059  17.227   4.523
62431W        W34691  37.288   3.968   3.299
62432W        W34692  39.265  10.728  13.784
62433W        W34693   7.270  18.169  11.060
62434W        W34694  29.497  11.591   4.975
62435W        W34695  35.882  27.109  12.883
62436W        W34696  22.565   5.332  11.564
62437W        W34697  16.532  28.590   1.244
62438W        W34698  16.095   4.433   0.805
62439W        W34699  32.621  26.194  11.151
62440W        W34700  34.810  44.832   1.342
62441W        W34701   2.284   7.934  10.592
62442W        W34702  40.349  15.982  13.752
62443W        W34703  30.026  18.831   2.361
62444W        W34704  12.777  37.501   0.587
62445W        W34705  39.245  19.505   3.704
62446W        W34706  13.566  17.525   4.162
62447W        W34707   4.693   4.829   1.413
62448W        W34708  35.109  32.106   1.407
62449W        W34709  25.003  19.292   3.937
62450W        W34710  13.275  35.483   0.998
62451W        W34711  10.296   3.232  13.261
62452W        W34712  14.099  26.492  10.574
62453W        W34713  30.182  12.446   1.804
62454W        W34714  24.474  39.290  12.068
62455W        W34715  17.820  25.537   1.148
62456W        W34716  37.568  14.059   2.696
62457W        W34717  29.987   1.311  11.282
62458W        W34718  35.402  19.822   1.095
62459W        W34719   1.263  18.466  12.344
62460W        W34720   4.294  44.556  12.127
62461W        W34721   9.132  10.819   0.649
62462W        W34722  17.501  11.925   3.567
62463W        W34723   8.715  20.655  11.549
62464W        W34724   6.379  37.194   0.412
62465W        W34725  21.732  18.384   1.704
62466W        W34726  31.883  36.475  11.934
62467W        W34727  17.630   7.232  12.881
62468W        W34728  24.052  36.419   2.821
62469W        W34729   8.208  22.860   3.215
62470W        W34730   0.411  28.209   3.794
62471W        W34731  27.893   5.003  10.973
62472W        W34732  32.613  16.104   3.231
62473W        W34733   0.524   3.588  13.775
62474W        W34734   9.827  23.401  13.527
62475W        W34735  21.463  27.466   0.764
62476W        W34736  32.581  31.143  10.627
62477W        W34737   6.342  37.590   4.560
62478W        W34738  44.750  29.198   2.345
62479W        W34739  40.270  10.791  13.573
62480W        W34740  17.016   3.182  14.803
62481W        W34741   2.142  11.687   0.991
62482W        W34742  24.473   8.760  11.948
62483W        W34743  31.555  15.798  13.751
62484W        W34744   5.775   6.585   3.639
62485W        W34745   4.517  23.981   3.183
62486W        W34746  39.940   0.521   1.881
62487W        W34747  14.126  34.910   2.745
62488W        W34748  32.975  21.144  11.544
62489W        W34749  23.246  33.510   0.832
62490W        W34750  19.077  10.827  12.477
62491W        W34751  24.678  30.211   3.327
62492W        W34752  32.157  11.815   5.082
62493W        W34753   7.648  32.654  10.804
62494W        W34754  12.792   4.286   4.238
62495W        W34755  34.455  34.332   4.516
62496W        W34756  27.296  11.187   3.252
62497W        W34757  28.141   4.918   0.747
62498W        W34758  29.865  28.453   1.329
62499W        W34759  11.823  28.862   5.388
62500W        W34760   6.922  23.480  11.599
62501W        W34761   1.273  41.606   1.467
62502W        W34762  18.840  24.977  11.581
62503W        W34763  11.888   2.396  11.359
62504W        W34764  42.736  30.132  14.338
62505W        W34765  18.281  29.868   3.709
62506W        W34766  14.380  18.172  11.812
62507W        W34767  35.049  33.530   2.708
62508W        W34768  21.864  43.306  11.686
62509W        W34769   0.600  15.638  12.516
62510W        W34770  18.729  23.075   4.452
62511W        W34771  26.507  39.597   4.081
62512W        W34772  27.454   1.339  13.979
62513W        W34773  39.469  15.606  11.577
62514W        W34774   4.177  19.513   0.286
62515W        W34775  19.051   9.059   3.789
62516W        W34776  29.001  31.467  14.635
62517W        W34777   1.242  33.198   1.673
62518W        W34778  15.489  15.868  10.653
62519W        W34779  31.406  13.169  11.138
62520W        W34780  26.225  39.058   5.025
62521W        W34781  10.643  42.894  11.233
62522W        W34782  40.076  26.230   0.431
62523W        W34783   6.773  25.450  12.881
62524W        W34784  36.079   2.933  11.649
62525W        W34785  14.603  37.609  14.350
62526W        W34786  15.620  39.279  12.470
62527W        W34787  20.564  11.169   1.498
62528W        W34788  15.378  43.547  13.371
62529W        W34789  20.313  22.954  11.050
62530W        W34790  41.021  15.338   2.149
62531W        W34791  14.333  40.935   1.745
62532W        W34792   0.715  34.597   4.580
62533W        W34793  30.445   9.100   0.518
62534W        W34794  43.089  27.947  11.451
62535W        W34795  40.325  16.207  10.601
62536W        W34796   6.872   9.111  13.883
62537W        W34797  34.964   6.881  13.928
62538W        W34798  18.525  44.276  13.754
62539W        W34799  12.087  42.850  11.389
62540W        W34800  29.359   7.874  13.275
62541W        W34801   0.230   1.537  10.670
62542W        W34802   6.246  10.817   0.500
62543W        W34803   8.902  12.922   3.756
62544W        W34804  33.928  38.995   3.181
62545W        W34805  12.755  17.844  14.427
62546W        W34806   8.746  40.214   3.679
62547W        W34807  33.501   3.285   2.151
62548W        W34808  41.279  15.677   1.445
62549W        W34809  32.106   7.032   2.973
62550W        W34810   8.503  13.228   3.666
62551W        W34811   1.919  13.331  11.170
62552W        W34812  43.635   3.231  13.971
62553W        W34813  14.565  12.789   4.589
62554W        W34814   3.471   9.384  14.504
62555W        W34815  28.730  10.898  13.541
62556W        W34816  41.721  36.072  10.829
62557W        W34817  15.705   0.820   4.253
62558W        W34818  41.131   5.311   0.311
62559W        W34819  19.971  21.598   0.630
62560W        W34820  37.804  17.668  11.577
62561W        W34821  44.338  24.670   0.392
62562W        W34822  14.733   2.906  11.182
62563W        W34823  14.345  34.374   0.592
62564W        W34824   2.187  44.046   1.847
62565W        W34825   7.865  39.005  14.918
62566W        W34826  42.458   2.469   0.450
62567W        W34827  17.040  21.229   3.152
62568W        W34828  23.270  17.540   0.465
62569W        W34829   3.639   9.920   2.795
62570W        W34830   3.030  29.659   4.813
62571W        W34831  13.250  25.324  11.260
62572W        W34832  13.948  27.415   5.156
62573W        W34833  44.523  18.638   1.449
62574W        W34834  27.206  31.487   0.202
62575W        W34835  34.906  40.472   2.859
62576W        W34836  31.134   2.307   1.694
62577W        W34837  17.091  34.600   0.949
62578W        W34838  28.044  37.847  13.861
62579W        W34839  26.100   6.680  14.144
62580W        W34840  32.216   7.775   0.675
62581W        W34841  14.150  35.713   0.349
62582W        W34842  17.828   7.195   0.325
62583W        W34843   4.307  22.628   3.307
62584W        W34844  35.141  41.570   3.644
62585W        W34845  11.882  37.963   1.232
62586W        W34846  40.789  18.100   1.923
62587W        W34847  34.878  25.845  10.682
62588W        W34848   1.242  36.254  11.115
62589W        W34849   9.212   6.199   3.039
62590W        W34850   9.523  32.696  14.820
62591W        W34851   3.198  19.164   1.919
62592W        W34852  39.328  16.241  11.161
62593W        W34853  32.972  33.907  13.054
62594W        W34854  16.895  18.830  14.106
62595W        W34855   0.331  12.829  13.967
62596W        W34856  22.801  43.694   3.735
62597W        W34857   2.234   3.944   1.320
62598W        W34858   6.451  17.330  14.413
62599W        W34859  11.048  19.804  14.809
62600W        W34860  27.658  39.354   1.719
62601W        W34861  43.685  12.994  14.735
62602W        W34862  11.439   7.910   1.797
62603W        W34863  21.275  19.768   1.821
62604W        W34864  18.300  14.778   2.323
62605W        W34865  31.368  16.576   4.247
62606W        W34866  25.077  28.386  12.341
62607W        W34867  43.978  41.312   0.358
62608W        W34868  17.585   0.250   1.657
62609W        W34869   6.943  25.032  11.069
62610W        W34870  26.659   7.451  12.631
62611W        W34871  37.555  13.416  10.994
62612W        W34872   6.145  37.065   2.308
62613W        W34873  24.676  16.624  12.717
62614W        W34874  17.672  34.963  12.881
62615W        W34875   4.776  34.624  12.655
62616W        W34876   4.135  35.146  13.984
62617W        W34877  26.105   7.761  13.296
62618W        W34878  16.904  44.750  11.190
62619W        W34879  23.936  10.547  12.478
62620W        W34880  21.040  33.429  11.799
62621W        W34881  19.161  15.218   0.754
62622W        W34882  23.322  31.432  11.545
62623W        W34883   3.460  15.318   2.505
62624W        W34884  35.532  16.485   4.365
62625W        W34885  28.446  43.283  12.640
62626W        W34886  34.256  23.531  13.027
62627W        W34887  32.498  29.098  13.958
62628W        W34888  33.892  39.077  11.943
62629W        W34889  40.342  24.129  12.893
62630W        W34890  29.139  39.613  10.858
62631W        W34891  15.601   1.384  10.638
62632W        W34892  31.199   7.414  12.403
62633W        W34893  18.632  33.165  14.342
62634W        W34894  19.377   5.356  13.457
62635W        W34895   1.878  18.177   3.216
62636W        W34896  22.673  38.031   0.338
62637W        W34897   4.385   4.732   1.855
62638W        W34898   5.977  14.736   3.688
62639W        W34899   1.012   6.863   2.364
62640W        W34900  28.419  44.944   2.239
62641W        W34901  19.199  26.526   3.846
62642W        W34902   5.847  20.575   0.899
62643W        W34903  44.281  39.116   4.338
62644W        W34904   5.715  35.416   1.342
62645W        W34905  28.728   5.302   1.160
62646W        W34906  24.571  28.490   1.419
62647W        W34907  16.128  11.577   2.181
62648W        W34908  20.017  12.269  10.688
62649W        W34909  21.342  23.190   2.819
62650W        W34910   7.924   9.917  13.862
62651W        W34911  33.537  33.254  13.184
62652W        W34912  29.973   2.764  11.483
62653W        W34913  30.079  27.922   2.740
62654W        W34914  36.936  12.220   0.480
62655W        W34915   8.763   9.478  11.172
62656W        W34916   1.113   9.865  13.996
62657W        W34917  21.922  31.968  12.373
62658W        W34918  26.227  11.310  13.759
62659W        W34919  19.708  34.111   1.716
62660W        W34920  29.436  35.820  12.505
62661W        W34921   3.300  27.582  14.510
62662W        W34922   8.212  19.141   3.420
62663W        W34923  26.369   3.401   0.792
62664W        W34924  39.321   0.097  13.629
62665W        W34925  36.704  24.956  11.591
62666W        W34926  22.155   5.700   1.239
62667W        W34927   7.936  44.579   0.498
62668W        W34928   4.948  37.441  10.590
62669W        W34929  10.632   0.909  13.289
62670W        W34930  34.951  24.685  13.286
62671W        W34931  35.050  19.079   1.731
62672W        W34932  18.141   8.778   3.594
62673W        W34933  44.491  38.180   4.481
62674W        W34934   4.202   7.240   2.802
62675W        W34935  27.982   7.276  10.081
62676W        W34936   8.137  15.683  13.422
62677W        W34937  20.741  28.123  14.982
62678W        W34938  25.537  40.125  10.100
62679W        W34939  23.982  26.708   2.221
62680W        W34940  23.030   3.720  14.423
62681W        W34941  35.100   9.939   0.845
62682W        W34942   3.345  20.708   5.061
62683W        W34943  14.967   9.432  12.674
62684W        W34944  40.430  27.173   1.682
62685W        W34945  44.740  37.012  10.470
62686W        W34946  10.761  43.073   2.723
62687W        W34947  19.338  24.420   4.456
62688W        W34948  13.301  15.214   9.636
62689W        W34949  20.663  32.868   4.404
62690W        W34950   7.395  36.592   2.215
62691W        W34951  27.383  12.581   2.789
62692W        W34952  20.711  19.639  14.443
62693W        W34953  35.735   1.018   4.200
62694W        W34954   8.923   8.215   0.748
62695W        W34955  26.651  40.203   3.257
62696W        W34956  25.209  16.658  14.042
62697W        W34957  37.410   0.459   1.894
62698W        W34958   9.917  30.147  14.462
62699W        W34959   9.071   7.034  10.146
62700W        W34960  44.887  13.070  13.870
62701W        W34961  12.761  41.824  13.160
62702W        W34962   4.458  30.982   3.835
62703W        W34963   7.450   4.488   4.108
62704W        W34964  15.218   6.341  13.576
62705W        W34965  34.028  34.208  12.388
62706W        W34966  42.755  10.648   1.120
62707W        W34967  21.432  19.669   3.245
62708W        W34968  44.432  13.175   9.987
62709W        W34969  30.346   6.826   2.347
62710W        W34970   3.305  41.240  13.671
62711W        W34971   5.632  41.004  13.845
62712W        W34972  26.135   8.121   2.666
62713W        W34973  37.055  31.169  11.702
62714W        W34974  38.880  14.268   4.332
62715W        W34975  13.732  37.847   3.407
62716W        W34976  20.722   0.864  12.842
62717W        W34977  27.123  10.655   0.875
62718W        W34978  35.845  31.016   0.848
62719W        W34979  28.457  42.244  12.411
62720W        W34980  16.834   5.810   5.416
62721W        W34981  36.278  27.705  14.407
62722W        W34982  37.640  25.155  11.610
62723W        W34983  29.886   7.678  13.996
62724W        W34984  44.209  37.905   2.833
62725W        W34985  25.047  39.252   1.254
62726W        W34986  12.349  27.883   1.377
62727W        W34987   5.985  43.483   2.736
62728W        W34988   5.796  41.806  13.347
62729W        W34989   5.133   2.714  11.479
62730W        W34990  25.286   4.899  11.543
62731W        W34991  31.714  37.355  13.545
62732W        W34992  41.442  29.183   2.268
62733W        W34993  31.596  32.632  11.987
62734W        W34994  29.697  14.110  14.892
62735W        W34995  29.876  13.710   4.661
62736W        W34996  28.613   2.326   4.755
62737W        W34997  15.213  29.510   9.611
62738W        W34998  31.241  36.584   1.475
62739W        W34999   7.286  35.594   0.512
62740W        W35000   6.222  30.366  10.645
62741W        W35001  25.681  10.044   4.168
62742W        W35002  24.122  37.311  13.361
62743W        W35003   4.235  19.724   1.232
62744W        W35004   3.531  27.610  14.983
62745W        W35005  37.051  25.644   2.351
62746W        W35006   0.899  11.719   3.674
62747W        W35007  14.712  17.008  10.648
62748W        W35008  23.514  13.597   2.969
62749W        W35009  24.313  26.387   9.792
62750W        W35010  21.617  10.954  11.131
62751W        W35011  39.085  37.059   2.770
62752W        W35012   1.497  35.298   0.350
62753W        W35013  38.506  31.873   3.119
62754W        W35014   9.416  22.487   2.078
62755W        W35015  17.086  42.992  11.759
62756W        W35016  18.782  42.872   3.396
62757W        W35017   9.622  12.724  11.637
62758W        W35018   0.754  43.980   2.708
62759W        W35019  17.027  41.819  13.473
62760W        W35020  32.063  41.089  10.670
62761W        W35021   0.756   7.962   1.434
62762W        W35022   6.789  31.591   3.836
62763W        W35023  20.006  14.685  12.430
62764W        W35024  10.254   6.810   2.882
62765W        W35025  39.722   5.011   1.709
62766W        W35026  29.428  14.362   1.860
62767W        W35027  16.197  39.397   3.101
62768W        W35028  38.845  39.821  12.932
62769W        W35029  13.786   6.762   2.777
62770W        W35030  27.319   5.214  12.601
62771W        W35031  21.279   0.788   1.285
62772W        W35032   8.013   3.734   0.220
62773W        W35033  20.284  30.554  11.497
62774W        W35034  29.371   8.420  13.291
62775W        W35035  15.149  35.458   0.209
62776W        W35036   7.759   5.402  11.672
62777W        W35037  43.900  14.615  11.873
62778W        W35038  24.724  33.955   1.475
62779W        W35039   6.423  41.020   1.289
62780W        W35040  23.253  32.832   3.310
62781W        W35041  31.185  30.418   5.464
62782W        W35042  43.409  11.545   3.388
62783W        W35043  23.201  20.094   0.407
62784W        W35044  13.033  17.963  14.877
62785W        W35045  17.253   2.764   3.597
62786W        W35046  31.649  15.631   4.606
62787W        W35047  23.763  30.483   0.169
62788W        W35048  43.095   7.889  12.993
62789W        W35049  34.142  30.030   0.774
62790W        W35050  33.383   3.386   2.666
62791W        W35051   6.751  15.227   2.150
62792W        W35052  18.197   1.968  12.513
62793W        W35053  36.391  43.321   1.064
62794W        W35054  14.237  27.325   1.880
62795W        W35055  32.424  23.035  11.716
62796W        W35056  43.427  30.663   0.840
62797W        W35057  29.904  33.900  12.214
62798W        W35058  31.606   1.896   3.167
62799W        W35059  23.557  41.556   1.393
62800W        W35060   2.211  21.077  13.730
62801W        W35061  33.081  31.753   2.686
62802W        W35062  20.952  17.598   4.696
62803W        W35063  30.579  29.602  13.300
62804W        W35064  25.223  24.964   0.749
62805W        W35065  17.528  22.008   3.384
62806W        W35066   5.335  16.432  11.187
62807W        W35067  22.277  21.651  10.662
62808W        W35068   6.200  18.445   2.209
62809W        W35069   3.393   1.451  11.273
62810W        W35070  34.502  14.241   0.327
62811W        W35071  36.361  27.324   4.053
62812W        W35072  41.381  17.747   4.139
62813W        W35073  10.846  36.191  11.291
62814W        W35074  43.541   4.951   1.228
62815W        W35075  19.953   8.604  13.689
62816W        W35076  17.744  13.384  13.101
62817W        W35077   9.633  34.600  11.109
62818W        W35078   2.789  16.661  14.428
62819W        W35079  29.852  16.712   1.957
62820W        W35080  43.318  44.616   3.642
62821W        W35081  27.119   0.296   3.117
62822W        W35082  14.139  34.480   0.123
62823W        W35083  35.582   4.477   1.446
62824W        W35084  22.726  41.709   3.417
62825W        W35085   3.281   2.741   2.880
62826W        W35086  39.964  31.517   1.793
62827W        W35087   0.885  17.662   0.440
62828W        W35088   8.576   1.303   3.748
62829W        W35089  35.944  41.033   1.910
62830W        W35090  19.017  17.662  13.055
62831W        W35091  39.740   0.503  14.378
62832W        W35092   9.810  35.806   3.414
62833W        W35093   5.895  23.260   2.197
62834W        W35094  41.473  32.931   0.091
62835W        W35095   8.852  27.060   1.136
62836W        W35096  43.757  26.532  14.322
62837W        W35097  12.859   4.312   1.217
62838W        W35098   9.909  36.345   1.294
62839W        W35099  25.632  10.588  11.919
62840W        W35100  21.555  37.803   5.132
62841W        W35101   8.655  31.285   4.619
62842W        W35102  18.854  24.516  11.771
62843W        W35103  33.002   1.719   0.005
62844W        W35104  43.406  35.630  12.380
62845W        W35105   2.937  44.233   4.224
62846W        W35106  43.780  14.703   1.646
62847W        W35107  15.170  26.102   4.442
62848W        W35108   0.954   4.794  11.172
62849W        W35109  38.387  18.077  14.613
62850W        W35110  38.660  29.910   2.859
62851W        W35111  41.800   8.240  11.532
62852W        W35112  18.706  44.577   1.883
62853W        W35113  16.597  30.793  13.789
62854W        W35114   0.773   9.892   2.804
62855W        W35115  34.014  38.815   2.685
62856W        W35116  28.034  14.988  11.219
62857W        W35117   4.784  27.990   0.589
62858W        W35118  41.043  18.812  13.000
62859W        W35119  28.245  25.314  11.170
62860W        W35120  23.062   7.226  13.128
62861W        W35121  26.741  32.262  12.484
62862W        W35122  19.836   9.730   0.897
62863W        W35123  14.705  24.128  14.003
62864W        W35124  12.627  32.177   2.835
62865W        W35125  27.990  36.400  14.835
62866W        W35126  30.265  41.317   2.374
62867W        W35127  18.348  32.456  10.988
62868W        W35128  19.816  15.159  11.521
62869W        W35129  18.558  34.125  11.592
62870W        W35130  18.978  41.844  13.426
62871W        W35131  22.685  41.719  11.245
62872W        W35132  11.770  40.562  11.554
62873W        W35133  24.665  27.496   2.437
62874W        W35134  11.655   3.780  10.693
62875W        W35135  34.180  15.564   9.944
62876W        W35136  36.999  31.521   1.404
62877W        W35137   5.269  32.514   1.912
62878W        W35138  14.693   5.653   1.696
62879W        W35139  13.728   0.839  12.990
62880W        W35140  11.384  31.976   1.567
62881W        W35141  33.541  27.468   1.398
62882W        W35142  10.899  31.360  11.593
62883W        W35143  24.176  30.445   3.074
62884W        W35144   0.922  12.355  14.447
62885W        W35145   0.773  11.663  13.829
62886W        W35146   0.280   9.730  13.179
62887W        W35147   8.153  21.087   4.460
62888W        W35148   6.248  18.588  12.030
62889W        W35149  40.466  34.503   2.605
62890W        W35150   5.195  30.168   5.043
62891W        W35151  29.857  42.963   3.907
62892W        W35152  34.489   3.382   3.127
62893W        W35153  40.472  30.125  14.818
62894W        W35154  16.559  12.610   3.716
62895W        W35155  14.148  40.589   0.822
62896W        W35156  21.650  39.529  13.468
62897W        W35157  16.621  36.923   4.109
62898W        W35158  15.297  32.296   4.168
62899W        W35159  43.500  14.549  12.411
62900W        W35160  33.964  36.992   4.935
62901W        W35161  35.513  40.238   3.637
62902W        W35162   3.277  21.211  12.162
62903W        W35163   1.243  30.910  11.588
62904W        W35164  37.319  33.689  14.704
62905W        W35165  22.041  16.993  12.021
62906W        W35166  34.218  20.985   0.764
62907W        W35167  44.286  40.920  11.017
62908W        W35168  28.567  22.932  11.116
62909W        W35169  43.684  42.963   1.279
62910W        W35170  44.551  14.826  12.469
62911W        W35171  10.188  31.489   1.349
62912W        W35172  18.467  42.111  11.133
62913W        W35173  19.808  18.699   2.686
62914W        W35174  27.826  16.498   2.253
62915W        W35175  20.788   9.320   4.686
62916W        W35176  42.421  21.615   3.038
62917W        W35177  28.709  38.000   1.766
62918W        W35178  21.060  38.825  14.354
62919W        W35179  24.065  26.996   0.916
62920W        W35180  39.409  24.111   1.631
62921W        W35181  40.759  19.773   2.386
62922W        W35182  26.706   2.748  10.684
62923W        W35183  37.060   7.374  14.017
62924W        W35184  27.195  31.914  14.918
62925W        W35185  15.743   8.160   1.882
62926W        W35186  16.145  19.085  14.610
62927W        W35187   1.928  35.893   0.940
62928W        W35188  40.744  33.057  14.798
62929W        W35189  40.702   6.697  14.359
62930W        W35190  26.366  30.981   2.229
62931W        W35191  37.794  32.667  11.554
62932W        W35192  39.640  37.866   3.792
62933W        W35193  29.407  26.882   4.605
62934W        W35194  32.320   4.698  13.433
62935W        W35195  17.143   7.718   2.848
62936W        W35196  21.328  43.415  13.516
62937W        W35197   3.640  24.106   0.622
62938W        W35198  31.977  36.925  13.412
62939W        W35199   5.862  19.203   2.169
62940W        W35200  12.702  18.311  14.656
62941W        W35201  25.246  24.035   1.007
62942W        W35202   7.026  26.768   4.331
62943W        W35203  25.697  12.903   3.698
62944W        W35204   2.372  22.617   2.985
62945W        W35205  36.407  25.430   0.467
62946W        W35206  22.889  30.228  11.133
62947W        W35207  44.215  31.999   0.906
62948W        W35208  15.129   1.248  14.333
62949W        W35209  33.564   7.350  12.479
62950W        W35210  44.902  22.737  12.872
62951W        W35211   2.853   1.041   3.357
62952W        W35212  40.548  29.999  11.360
62953W        W35213  35.048  19.485  11.510
62954W        W35214  18.821  31.606  14.413
62955W        W35215  22.483  36.766   2.361
62956W        W35216   6.645   9.339  12.899
62957W        W35217  43.666  35.864  11.735
62958W        W35218  16.608  32.449   2.422
62959W        W35219   4.498   3.348   1.172
62960W        W35220  36.983  22.226  12.424
62961W        W35221  12.354  14.722   2.301
62962W        W35222  11.239  29.300  13.013
62963W        W35223  21.654   5.717  12.585
62964W        W35224  23.494   3.505  10.470
62965W        W35225   8.685  13.507  14.986
62966W        W35226  22.008  22.198  13.821
62967W        W35227  35.880   2.778   3.569
62968W        W35228  23.039  29.649  14.766
62969W        W35229  34.124   9.660  13.866
62970W        W35230  41.842  25.626  12.012
62971W        W35231   7.411  42.301   3.577
62972W        W35232   0.966  36.401  14.812
62973W        W35233  10.879  34.857  13.030
62974W        W35234  29.181  33.664  12.832
62975W        W35235  12.148  44.418  10.396
62976W        W35236  28.289  36.488   1.212
62977W        W35237  11.893  24.669  14.560
62978W        W35238  19.624   9.858  12.879
62979W        W35239  16.629  43.892  10.926
62980W        W35240  13.753  17.637  11.648
62981W        W35241  39.437  37.635   1.834
62982W        W35242  25.075  37.099   1.458
62983W        W35243  34.943  10.299  11.779
62984W        W35244  31.562  16.338  11.137
62985W        W35245  20.880  10.871  11.816
62986W        W35246  34.854  13.101  12.333
62987W        W35247  19.349  31.518  11.500
62988W        W35248  13.850  15.729  10.800
62989W        W35249  41.077  38.328   1.767
62990W        W35250  10.950  27.234  13.953
62991W        W35251   8.342  28.530  12.020
62992W        W35252  35.576   5.499   4.547
62993W        W35253  10.264  28.255   0.449
62994W        W35254  37.411   1.371  12.740
62995W        W35255  12.430  21.310   1.817
62996W        W35256  32.712  19.728  10.007
62997W        W35257  12.773  34.383   0.334
62998W        W35258   1.752  33.618  14.460
62999W        W35259  31.938   3.855  14.847
63000W        W35260  18.295  38.387   1.720
63001W        W35261  30.380   2.119   1.890
63002W        W35262  28.392  13.848   2.243
63003W        W35263  13.593  27.719  14.237
63004W        W35264  37.555  29.903   2.797
63005W        W35265   4.019  43.419  12.039
63006W        W35266  32.890   6.187  12.882
63007W        W35267  26.060   1.991   0.825
63008W        W35268  29.952  28.984  14.797
63009W        W35269   3.673  44.469  13.723
63010W        W35270   9.619  20.981  13.755
63011W        W35271  14.047   9.696  14.723
63012W        W35272  20.063  39.002  14.619
63013W        W35273  26.715  12.319   3.318
63014W        W35274  15.634  19.392   5.491
63015W        W35275  38.894  40.206   1.276
63016W        W35276   4.209  19.718   2.789
63017W        W35277  22.437  37.398  11.132
63018W        W35278  10.548  21.473  12.001
63019W        W35279  35.464  25.462   4.628
63020W        W35280  44.535  10.726  11.609
63021W        W35281  10.710  44.779  13.746
63022W        W35282  26.459  18.124  12.381
63023W        W35283  17.183  35.347   2.162
63024W        W35284   3.284  24.756  14.952
63025W        W35285   2.864  43.475  13.910
63026W        W35286  39.863  20.134   3.298
63027W        W35287   3.232   9.625  11.117
63028W        W35288  13.110   4.880  13.411
63029W        W35289  20.487  38.703  12.035
63030W        W35290  23.928  26.179   0.361
63031W        W35291  21.959  40.380  12.988
63032W        W35292  40.301  21.102   1.184
63033W        W35293  10.440  14.508   4.496
63034W        W35294  34.439  41.439   4.391
63035W        W35295   2.378   2.186  10.209
63036W        W35296  35.072  20.601  14.410
63037W        W35297   7.119  18.969   1.337
63038W        W35298  13.647   3.444  12.943
63039W        W35299   8.304  26.436  10.887
63040W        W35300  42.604  42.647  11.106
63041W        W35301  38.988   1.114  12.191
63042W        W35302  31.725  32.232  11.662
63043W        W35303  23.571   0.974  10.458
63044W        W35304  16.292  39.463   4.484
63045W        W35305  41.905  14.558  14.792
63046W        W35306  43.324   6.114   2.587
63047W        W35307  31.981   5.814  13.057
63048W        W35308  13.084  37.502   2.978
63049W        W35309  29.430   9.815   1.257
63050W        W35310  36.977  32.114   3.640
63051W        W35311  33.307  16.538   2.361
63052W        W35312  35.618  27.776   0.327
63053W        W35313   8.875   8.754  11.657
63054W        W35314  10.571   9.003   4.813
63055W        W35315  40.136  30.894   0.907
63056W        W35316  24.813  17.578   3.866
63057W        W35317  15.001  13.268  12.846
63058W        W35318  18.601  23.307   0.239
63059W        W35319   7.431   3.986   1.386
63060W        W35320  36.346  24.876  10.838
63061W        W35321  15.223  34.219  12.207
63062W        W35322   8.864   9.422  13.843
63063W        W35323   8.689   8.657   0.858
63064W        W35324  14.226  39.047   2.137
63065W        W35325  25.494  39.051   0.230
63066W        W35326  36.779  29.571   3.171
63067W        W35327  19.766  43.609  11.726
63068W        W35328  13.352  37.635   5.061
63069W        W35329  40.462   9.948  14.217
63070W        W35330  17.691  11.203  14.981
63071W        W35331   9.105  20.053   3.330
63072W        W35332  15.158  38.907  13.469
63073W        W35333  13.960  38.413   3.655
63074W        W35334  11.905  36.852  10.610
63075W        W35335  25.371   9.631   4.058
63076W        W35336  34.354  29.654   0.334
63077W        W35337   3.457  15.664  11.409
63078W        W35338   0.357  11.473   3.873
63079W        W35339  35.986  43.387  14.113
63080W        W35340  44.183  33.699  11.494
63081W        W35341  44.655  22.053  14.025
63082W        W35342  12.769  32.524  13.798
63083W        W35343  37.549  43.918  12.521
63084W        W35344  33.059  29.368   1.516
63085W        W35345  10.866  34.265   4.643
63086W        W35346  20.858  32.207  10.251
63087W        W35347  36.804   2.162  11.181
63088W        W35348  25.134   2.381  12.626
63089W        W35349   4.644  21.087   0.949
63090W        W35350  19.004  16.651  10.484
63091W        W35351  13.912  23.584   3.296
63092W        W35352  31.466  32.451  12.490
63093W        W35353  22.256   1.780  10.405
63094W        W35354  13.208   8.323   0.528
63095W        W35355  38.136   8.342   2.464
63096W        W35356   0.343  38.791   2.746
63097W        W35357  35.774  31.543  14.970
63098W        W35358   4.676   7.991   1.211
63099W        W35359  29.401   7.512  12.645
63100W        W35360  39.740  40.527   2.846
63101W        W35361  44.347  30.044   3.743
63102W        W35362   5.154  13.233  12.892
63103W        W35363  18.654  12.557   2.585
63104W        W35364   7.201  26.463   2.893
63105W        W35365  39.604   9.628  10.231
63106W        W35366  38.080   7.377  13.729
63107W        W35367  30.960  28.597   4.669
63108W        W35368   2.281  30.480  12.824
63109W        W35369  41.901  33.652  11.534
63110W        W35370  24.171  39.122   2.391
63111W        W35371  21.069  11.681  11.927
63112W        W35372   4.982   3.857  10.850
63113W        W35373  13.591  37.271   0.816
63114W        W35374  37.538  10.170  13.330
63115W        W35375  21.131   7.725  11.198
63116W        W35376  19.594  24.820   2.443
63117W        W35377  10.920  14.589  11.628
63118W        W35378  20.255  35.854  14.594
63119W        W35379  34.797  15.224   2.178
63120W        W35380  23.075  27.560   4.378
63121W        W35381  30.380  11.769  13.529
63122W        W35382   1.835  12.272   3.662
63123W        W35383   1.038   5.906  13.077
63124W        W35384  19.703  25.549  11.610
63125W        W35385  36.893  41.546  11.006
63126W        W35386  34.106   1.705  12.544
63127W        W35387  39.802  20.177  11.065
63128W        W35388  23.269  10.936   1.331
63129W        W35389   0.369  22.595   2.162
63130W        W35390  23.137  12.863   3.736
63131W        W35391  23.487  17.875  14.087
63132W        W35392  16.166  42.982  10.772
63133W        W35393  23.700  14.797   1.921
63134W        W35394   6.861  11.218   1.053
63135W        W35395  22.698   9.598  10.169
63136W        W35396   6.795  26.899   3.892
63137W        W35397  40.804  12.639  11.953
63138W        W35398  31.586   8.348   3.296
63139W        W35399  18.336  34.460   1.773
63140W        W35400  28.664   0.372  12.548
63141W        W35401  34.441  44.868   2.771
63142W        W35402  31.470  19.257  12.891
63143W        W35403  34.428  16.592  14.401
63144W        W35404  33.563  16.712  12.063
63145W        W35405  15.897  24.112  11.668
63146W        W35406  41.351  17.509   0.845
63147W        W35407   3.109   8.633   4.080
63148W        W35408  25.443  10.757  12.401
63149W        W35409   4.567  30.966  13.057
63150W        W35410  16.840  40.772   2.714
63151W        W35411  15.697  23.007   3.027
63152W        W35412  40.545  24.140   3.651
63153W        W35413  43.961   4.061   1.415
63154W        W35414  16.063  44.664   0.026
63155W        W35415  36.032  33.672  12.913
63156W        W35416  31.454  26.120  13.529
63157W        W35417  37.837  38.493   1.682
63158W        W35418  35.092  44.274   3.677
63159W        W35419  30.462   7.692  10.455
63160W        W35420  36.633  11.340   2.211
63161W        W35421  12.190  18.926   2.922
63162W        W35422  16.160   3.016   1.896
63163W        W35423  40.784   9.879  14.709
63164W        W35424  34.861  15.593   1.236
63165W        W35425  23.318  43.881   2.232
63166W        W35426  36.069  29.706  12.664
63167W        W35427  32.680   9.699  11.490
63168W        W35428  34.596   2.787   2.226
63169W        W35429  44.052  42.288   2.325
63170W        W35430  24.042   8.481   2.628
63171W        W35431   5.509  16.653  12.934
63172W        W35432  41.258  26.974  14.519
63173W        W35433  15.141  29.607  12.610
63174W        W35434   3.817  26.113  10.748
63175W        W35435  38.355   5.737  10.568
63176W        W35436  20.843   1.643   0.518
63177W        W35437  14.297  32.387  14.487
63178W        W35438  41.877  29.944   2.528
63179W        W35439  36.799  23.764  14.956
63180W        W35440   6.318  11.547   2.813
63181W        W35441  35.793  31.976   1.783
63182W        W35442  16.860  43.799  14.467
63183W        W35443  32.931  32.370  14.573
63184W        W35444  29.634   8.185   1.882
63185W        W35445   7.881   5.533  14.053
63186W        W35446  29.648  18.781   1.990
63187W        W35447  12.549  31.234  10.067
63188W        W35448  17.125  16.592  13.043
63189W        W35449  29.835  36.085   4.594
63190W        W35450   0.116  13.419   3.688
63191W        W35451  33.480  27.090  14.495
63192W        W35452   7.779  39.375   4.562
63193W        W35453   7.736   5.211   4.888
63194W        W35454  12.649   9.147  11.109
63195W        W35455  32.012  23.528  13.070
63196W        W35456  17.157  29.637  14.100
63197W        W35457  20.284  24.472   4.207
63198W        W35458  39.543  11.632   2.933
63199W        W35459  18.052  16.657  14.765
63200W        W35460  23.563   1.770  11.068
63201W        W35461  12.413  20.106  12.327
63202W        W35462  19.741  21.220   2.822
63203W        W35463  35.021  15.978  12.908
63204W        W35464  24.044  21.974   1.708
63205W        W35465  11.616  13.754   4.207
63206W        W35466  16.530  44.311  11.226
63207W        W35467  18.161   3.041  10.549
63208W        W35468  15.634  22.639  12.501
63209W        W35469  42.472  13.359  12.848
63210W        W35470   6.423  41.334   2.278
63211W        W35471   8.164  44.698   3.477
63212W        W35472  42.737  29.126   1.752
63213W        W35473  26.585   7.150   2.778
63214W        W35474  30.706  13.750   3.377
63215W        W35475  38.977  39.337   3.005
63216W        W35476  11.724  10.364   2.338
63217W        W35477   2.373  42.367   0.035
63218W        W35478  19.047  23.537  11.232
63219W        W35479  28.526  20.254  14.352
63220W        W35480  43.214  39.704  11.389
63221W        W35481  13.594  34.619   4.149
63222W        W35482  17.761   5.219   4.231
63223W        W35483   5.023  13.761  11.057
63224W        W35484   9.133  22.654   3.602
63225W        W35485  36.993  28.728  11.220
63226W        W35486   7.954   3.008   5.135
63227W        W35487  14.833   5.287  14.791
63228W        W35488  27.245  40.418   1.161
63229W        W35489  29.095   2.175  13.398
63230W        W35490  14.361   6.160   4.471
63231W        W35491  27.019  25.150  12.069
63232W        W35492  44.557   9.380  13.011
63233W        W35493  11.248  41.047   1.166
63234W        W35494  42.983   2.340  11.622
63235W        W35495  10.660   8.645   0.252
63236W        W35496  41.857  27.277   3.362
63237W        W35497  43.431  10.839   0.386
63238W        W35498  25.746  33.825   2.852
63239W        W35499   5.314   7.397   3.341
63240W        W35500  19.790  15.529  14.379
63241W        W35501   5.487  34.001  11.066
63242W        W35502   0.906  21.531   0.317
63243W        W35503  19.457  22.124   0.777
63244W        W35504  44.056  41.572   2.852
63245W        W35505   3.159  13.344  13.367
63246W        W35506   4.459  21.519   3.982
63247W        W35507  41.324  19.349  10.567
63248W        W35508  43.238   6.279  12.605
63249W        W35509   5.418  19.709   1.809
63250W        W35510  21.778   9.678   1.975
63251W        W35511  22.236  14.557  14.117
63252W        W35512  25.569  40.068  13.398
63253W        W35513  43.735  21.644   0.039
63254W        W35514   6.183  22.023   1.282
63255W        W35515  27.606  32.478   9.628
63256W        W35516  20.484  22.170  11.619
63257W        W35517  43.826   7.890   2.085
63258W        W35518  18.547  21.512   3.237
63259W        W35519  23.039  29.711  11.085
63260W        W35520   6.404  32.538  14.934
63261W        W35521   6.821  36.823  12.015
63262W        W35522  34.201  20.720  12.897
63263W        W35523  20.654  25.062  10.356
63264W        W35524  15.057   7.564   3.678
63265W        W35525  44.868  44.838  13.025
63266W        W35526  11.291  29.217   4.598
63267W        W35527  26.057  10.667   2.538
63268W        W35528   2.799  12.380  11.051
63269W        W35529  26.746  13.654   4.863
63270W        W35530  36.274   4.003  13.947
63271W        W35531   4.432  40.022  12.466
63272W        W35532   2.820  36.876   3.339
63273W        W35533  40.802  32.371   3.110
63274W        W35534  32.644  18.154  10.716
63275W        W35535  10.047  29.696   4.144
63276W        W35536  43.274   7.319   0.436
63277W        W35537  13.367  21.115  10.690
63278W        W35538  35.949   1.225  14.965
63279W        W35539   9.324  34.134   4.904
63280W        W35540  35.412  42.426   1.199
63281W        W35541  42.902  19.997   1.043
63282W        W35542   6.709   9.027  14.871
63283W        W35543  28.175  23.755  11.131
63284W        W35544   4.397  35.034   0.331
63285W        W35545   6.425  37.451   2.120
63286W        W35546  37.923  28.001  12.290
63287W        W35547  37.090  43.052   4.135
63288W        W35548  44.487  15.289  12.687
63289W        W35549  33.198   9.570  10.650
63290W        W35550  29.675  13.597  14.030
63291W        W35551  33.488  10.330  12.071
63292W        W35552  43.491  30.469  11.546
63293W        W35553  31.927  12.617   1.190
63294W        W35554  10.207  32.423   4.752
63295W        W35555  24.191  30.191   0.349
63296W        W35556  10.233  42.463   3.610
63297W        W35557  33.824  24.355   3.177
63298W        W35558  28.009   0.206   1.721
63299W        W35559  41.031  24.498  13.144
63300W        W35560   2.862  42.829   1.770
63301W        W35561  36.433  11.878   3.172
63302W        W35562   5.699  41.268  14.285
63303W        W35563  18.190  13.600   3.321
63304W        W35564  42.320  16.292   2.731
63305W        W35565   6.147  21.814  12.023
63306W        W35566  17.312  11.445   0.933
63307W        W35567  28.704  18.087  10.562
63308W        W35568  19.274  31.881  14.503
63309W        W35569  30.140  30.123   4.272
63310W        W35570  22.020   2.151   1.076
63311W        W35571  38.891  41.768  12.833
63312W        W35572  19.731   8.732   3.870
63313W        W35573  31.008  44.368  10.108
63314W        W35574  43.291  21.505  10.636
63315W        W35575  13.722   3.052  12.617
63316W        W35576   5.987  30.523  13.842
63317W        W35577  14.046  43.672   4.476
63318W        W35578   5.266  33.679  13.580
63319W        W35579  27.684   8.310  10.668
63320W        W35580  23.102   6.964   4.154
63321W        W35581  26.399  40.124   4.096
63322W        W35582  39.792  44.512   3.768
63323W        W35583   3.713  41.410  12.360
63324W        W35584  16.131  42.281   1.743
63325W        W35585  11.894  14.393  11.153
63326W        W35586  23.227  13.119   2.949
63327W        W35587  31.619   0.243  11.562
63328W        W35588  18.396  18.934  14.784
63329W        W35589   1.050  36.635  10.802
63330W        W35590   7.222  31.398   1.702
63331W        W35591   7.445  14.034  11.869
63332W        W35592   4.378  44.313  10.630
63333W        W35593  41.525  37.070  14.299
63334W        W35594  16.830  11.169   0.882
63335W        W35595  26.182  39.808  12.038
63336W        W35596  23.195  33.975  10.915
63337W        W35597  35.042   5.860  12.469
63338W        W35598  22.239   9.276   4.932
63339W        W35599  32.903  37.906  14.809
63340W        W35600  17.149  36.069   0.859
63341W        W35601   5.614  24.596   4.517
63342W        W35602  37.261   2.536  13.383
63343W        W35603  11.337  18.474   2.162
63344W        W35604   5.647  24.218   0.322
63345W        W35605  41.735  29.060   2.677
63346W        W35606   0.442  38.808   3.619
63347W        W35607  12.163  11.320   2.006
63348W        W35608  21.670  40.975   1.200
63349W        W35609   8.612   3.452  11.206
63350W        W35610   8.386  34.154   2.914
63351W        W35611  35.436  20.253   0.316
63352W        W35612  22.542  21.346   3.999
63353W        W35613  43.971   4.403   4.141
63354W        W35614  29.867  39.130   3.317
63355W        W35615  19.142  25.272   1.272
63356W        W35616  26.285  27.314  11.501
63357W        W35617  36.510   3.384   4.132
63358W        W35618   0.909  38.543  12.994
63359W        W35619  21.523  26.185   9.753
63360W        W35620  11.210  12.892  12.658
63361W        W35621  20.020  22.510  11.140
63362W        W35622  11.198  34.404  11.162
63363W        W35623  10.429  18.641  14.783
63364W        W35624  12.091  34.137  13.030
63365W        W35625  36.899  37.328   0.482
63366W        W35626  38.905   1.043   2.343
63367W        W35627  21.398  42.490  12.075
63368W        W35628   1.311   4.382  13.000
63369W        W35629   3.664  21.476  14.891
63370W        W35630   5.756   3.645   3.669
63371W        W35631  37.963  23.143   4.104
63372W        W35632  24.328  27.978  12.411
63373W        W35633  43.101   4.452  13.293
63374W        W35634  34.430  25.032  14.760
63375W        W35635  17.047  15.320   2.415
63376W        W35636  21.743  16.712  13.100
63377W        W35637   4.281   3.938   3.213
63378W        W35638  28.686  16.567   2.875
63379W        W35639  17.163  22.270  12.032
63380W        W35640  34.247  19.127   4.228
63381W        W35641  10.867  15.698  10.707
63382W        W35642   2.515  43.894  13.929
63383W        W35643  31.415   6.736   0.782
63384W        W35644  10.523   3.253  10.233
63385W        W35645  17.461  16.600  13.992
63386W        W35646  24.446  20.194  12.487
63387W        W35647  20.056  41.799   4.258
63388W        W35648  26.451  22.565   1.715
63389W        W35649  22.246  24.354  12.196
63390W        W35650   6.739  25.691   0.071
63391W        W35651  39.366  33.832   1.884
63392W        W35652  42.895  12.523  14.503
63393W        W35653   0.422  10.184   1.875
63394W        W35654  19.818  18.910  10.722
63395W        W35655  27.854  17.512   2.283
63396W        W35656  28.910   7.375  12.734
63397W        W35657  44.508  39.236  11.534
63398W        W35658  33.293  10.275   4.513
63399W        W35659  14.631   7.385   1.763
63400W        W35660  25.076  25.451   3.734
63401W        W35661   1.277  43.996  10.782
63402W        W35662   3.853  11.567  12.047
63403W        W35663  40.385  31.768   4.079
63404W        W35664   4.601  31.795   5.152
63405W        W35665  30.711   6.251   1.240
63406W        W35666  24.053  11.049  12.455
63407W        W35667  17.810  41.745   3.124
63408W        W35668   5.842   1.742  11.900
63409W        W35669  26.270   5.739  13.067
63410W        W35670   9.133   8.999   3.600
63411W        W35671  11.183  33.129  12.815
63412W        W35672  44.901  23.128   0.801
63413W        W35673   7.856  13.707  11.968
63414W        W35674  19.204  30.112   1.784
63415W        W35675  44.998  35.523   4.294
63416W        W35676   0.975  18.654  14.738
63417W        W35677  13.249  38.108   1.165
63418W        W35678  17.019  28.830  10.680
63419W        W35679  32.540  26.881   3.960
63420W        W35680  19.921  18.060  14.197
63421W        W35681  25.477   0.836   4.745
63422W        W35682  14.334  12.901  11.037
63423W        W35683  24.028  42.752  11.958
63424W        W35684  41.650  41.812  12.450
63425W        W35685  24.269  38.306   2.857
63426W        W35686  43.817  43.378   0.930
63427W        W35687  29.996  18.694  13.729
63428W        W35688  21.115  20.952  14.453
63429W        W35689  24.110  30.781   2.662
63430W        W35690   1.965  30.609  10.142
63431W        W35691  37.466  40.502   4.092
63432W        W35692  24.216  20.421   4.198
63433W        W35693  41.018  26.168  10.397
63434W        W35694  23.198  11.457   0.308
63435W        W35695  39.989  16.975   0.260
63436W        W35696  14.443  18.796   4.853
63437W        W35697  43.385  19.615  11.013
63438W        W35698  11.711   8.448  13.876
63439W        W35699  40.387  29.221  10.711
63440W        W35700  33.682  20.799  12.917
63441W        W35701  30.514  38.556  14.788
63442W        W35702  12.791  35.666   0.841
63443W        W35703   0.275   2.351  13.547
63444W        W35704  44.422   0.455   0.285
63445W        W35705  10.598  10.232  11.612
63446W        W35706  44.466  12.285   3.390
63447W        W35707   7.483  32.186   2.742
63448W        W35708   5.050   7.222  13.488
63449W        W35709   1.910  16.295   3.373
63450W        W35710  39.575   6.404  14.781
63451W        W35711   0.420  38.841  10.933
63452W        W35712   7.264  11.944  11.609
63453W        W35713   1.650  12.162  14.974
63454W        W35714  31.495  30.310   4.236
63455W        W35715  20.727   6.080   5.087
63456W        W35716  27.069  37.714   4.747
63457W        W35717  21.476  42.522   0.765
63458W        W35718  10.137  40.337  13.419
63459W        W35719  37.907  10.117   1.311
63460W        W35720  24.599   0.736  12.615
63461W        W35721  39.091  36.897  12.475
63462W        W35722  44.781  21.008   3.342
63463W        W35723   3.769  33.014  12.561
63464W        W35724  28.435  13.660  14.450
63465W        W35725   0.239  40.754  10.705
63466W        W35726  38.480   6.133   3.100
63467W        W35727  16.472  23.447   1.789
63468W        W35728  28.601   6.977  10.583
63469W        W35729  10.095  25.119   2.741
63470W        W35730  19.578   5.905   1.905
63471W        W35731  24.059  17.832   3.687
63472W        W35732  25.689  22.307   0.777
63473W        W35733   3.503  10.382  12.806
63474W        W35734  26.965  15.035   0.422
63475W        W35735  23.276  35.899  12.936
63476W        W35736  21.528  16.021  13.370
63477W        W35737  28.530  24.676   0.562
63478W        W35738  43.001  25.929  13.481
63479W        W35739  25.917   7.835   0.875
63480W        W35740   2.697  20.097  12.883
63481W        W35741  23.275  32.510   0.845
63482W        W35742   9.353  11.631   3.623
63483W        W35743  18.157  16.119   4.631
63484W        W35744   6.332  40.717  13.442
63485W        W35745  23.603  30.885  12.999
63486W        W35746   1.284  29.354   4.547
63487W        W35747  38.435  18.633   0.776
63488W        W35748  36.936  29.430  14.007
63489W        W35749   8.383  38.193  11.704
63490W        W35750  28.685  40.007   0.230
63491W        W35751  11.358  16.322  12.557
63492W        W35752  12.753  33.265  11.281
63493W        W35753   2.092  36.338   4.128
63494W        W35754  33.448  13.161  14.901
63495W        W35755   7.201  35.017   2.807
63496W        W35756  18.044  12.829  13.985
63497W        W35757  35.935   6.991  11.596
63498W        W35758  28.909   2.976   0.550
63499W        W35759  11.254  32.326  13.927
63500W        W35760  29.014  24.364   2.270
63501W        W35761  16.820   5.890   1.382
63502W        W35762  39.878  44.321   3.281
63503W        W35763  24.035  36.736   3.709
63504W        W35764  26.605  27.166   3.679
63505W        W35765  32.439   3.292   3.733
63506W        W35766  43.518  27.713  14.498
63507W        W35767  23.250  26.396   4.122
63508W        W35768  10.768   9.881   1.336
63509W        W35769  41.658  43.696  13.455
63510W        W35770  25.527  44.963   1.121
63511W        W35771   8.448   8.854  12.572
63512W        W35772  44.807   3.859  13.542
63513W        W35773   2.005  42.406   3.836
63514W        W35774  16.907  21.700   4.724
63515W        W35775  23.305  14.067   2.844
63516W        W35776  32.563  15.569  13.842
63517W        W35777  34.152  36.934   3.416
63518W        W35778  30.144  21.101  13.488
63519W        W35779  24.189  19.701  11.506
63520W        W35780  29.212  14.712   3.310
63521W        W35781  35.641   2.186   4.312
63522W        W35782  12.904  29.427   2.788
63523W        W35783  36.907  30.611   4.185
63524W        W35784   4.275  37.863  14.845
63525W        W35785   4.493  21.777   2.794
63526W        W35786  20.029  35.404   2.941
63527W        W35787   6.160  29.445   5.000
63528W        W35788  42.800   6.932  14.992
63529W        W35789  12.299   4.451  11.790
63530W        W35790   9.972  24.378   4.100
63531W        W35791  11.854  30.620   1.851
63532W        W35792  12.810  30.967   0.287
63533W        W35793  32.790   0.477  14.506
63534W        W35794   7.661  34.983  13.565
63535W        W35795  17.028  40.139   4.634
63536W        W35796  24.624   4.575  12.997
63537W        W35797  34.787  12.541   4.998
63538W        W35798  25.591   6.948  10.668
63539W        W35799   5.483  31.355  13.367
63540W        W35800  22.701  26.546  11.825
63541W        W35801  15.295  37.110   1.955
63542W        W35802   2.387   8.415  12.969
63543W        W35803  41.430   1.484   1.413
63544W        W35804   1.194   7.980   3.249
63545W        W35805  31.845  44.411   0.255
63546W        W35806   3.326  25.702  11.224
63547W        W35807  31.184  43.763  10.828
63548W        W35808  16.059  19.611  11.505
63549W        W35809  34.937   3.674  13.865
63550W        W35810  15.115  20.621   0.223
63551W        W35811  24.070  35.466  12.540
63552W        W35812   4.425  22.799   2.825
63553W        W35813   6.696   6.278   2.744
63554W        W35814   3.885  23.974   3.770
63555W        W35815  16.668  27.121  12.760
63556W        W35816  13.575  37.884  13.577
63557W        W35817  41.803  38.999  11.994
63558W        W35818  19.657  35.380  11.128
63559W        W35819  39.158   9.801   4.907
63560W        W35820  39.926   5.882   2.742
63561W        W35821  43.776   5.911  14.339
63562W        W35822  38.047  39.412   1.342
63563W        W35823   3.970  39.473   1.386
63564W        W35824  28.416   2.449  14.504
63565W        W35825  19.897   5.130  11.500
63566W        W35826   4.933   0.054  11.154
63567W        W35827   1.322   0.516   0.424
63568W        W35828   6.753  10.231  12.596
63569W        W35829  12.235  43.241   0.654
63570W        W35830   5.933  25.307  11.971
63571W        W35831  12.201  28.986  12.972
63572W        W35832  28.563  27.501  14.304
63573W        W35833  17.584  24.959  14.500
63574W        W35834  13.379  14.178  10.241
63575W        W35835   2.400   7.163   2.283
63576W        W35836  31.135  37.062   4.446
63577W        W35837  42.879  30.594  10.242
63578W        W35838  32.770  12.829  14.042
63579W        W35839  24.365  12.352   3.652
63580W        W35840  29.700  38.073   0.258
63581W        W35841  38.345   5.429  11.458
63582W        W35842  31.635  28.240   2.336
63583W        W35843  24.385  18.721  14.842
63584W        W35844   7.195  23.644  11.201
63585W        W35845  21.544  20.487  14.952
63586W        W35846   0.275  39.691  12.614
63587W        W35847   6.862  18.138   4.779
63588W        W35848  17.636  19.206  14.005
63589W        W35849   4.470  20.202  12.415
63590W        W35850  26.552   5.665   3.755
63591W        W35851  33.337  19.097  10.121
63592W        W35852   8.712  11.685  14.464
63593W        W35853  13.120   6.110  12.576
63594W        W35854   2.758  22.769   1.821
63595W        W35855  42.078  13.362  12.155
63596W        W35856  27.340  13.004   3.101
63597W        W35857  18.183   6.388  14.323
63598W        W35858   1.904   2.403   0.301
63599W        W35859  40.302  23.283   3.644
63600W        W35860  37.846  15.718   2.618
63601W        W35861  29.565  44.902   3.077
63602W        W35862  30.654   9.711  13.203
63603W        W35863  26.225  43.220   1.271
63604W        W35864  42.671  38.434   2.590
63605W        W35865  19.153  37.467   4.945
63606W        W35866   1.876  17.747  12.116
63607W        W35867  16.005  14.030   0.865
63608W        W35868  20.030  14.091   1.801
63609W        W35869  14.722  20.701   1.325
63610W        W35870  10.795  34.026   1.830
63611W        W35871  20.215  41.820   3.291
63612W        W35872   4.681  27.085   0.647
63613W        W35873  39.976  23.620  14.621
63614W        W35874   1.800  31.658  13.961
63615W        W35875  31.171  29.960  12.145
63616W        W35876   4.285  12.774   4.523
63617W        W35877   6.810  37.269   4.408
63618W        W35878  12.081   9.785  10.653
63619W        W35879  15.958  35.571   0.816
63620W        W35880   5.340  33.115  10.971
63621W        W35881   3.976  11.842   1.884
63622W        W35882  22.107  24.139  14.189
63623W        W35883   0.412  14.325   0.699
63624W        W35884  10.228  28.925  11.047
63625W        W35885  10.880   4.685   0.442
63626W        W35886  21.601   2.350   0.844
63627W        W35887  38.984  26.005  12.865
63628W        W35888  24.993  26.680  13.136
63629W        W35889  25.059  42.707  13.462
63630W        W35890  41.230   7.354  12.835
63631W        W35891   5.239   2.449   3.246
63632W        W35892  31.681  33.946   0.440
63633W        W35893  22.194   8.194  10.969
63634W        W35894  42.290   9.241   4.721
63635W        W35895  32.811  17.749   0.918
63636W        W35896  20.628   9.133  11.480
63637W        W35897  24.653  14.113  11.302
63638W        W35898  28.638  13.326  12.683
63639W        W35899  37.911  32.029  10.672
63640W        W35900  14.834  32.631  13.748
63641W        W35901  15.821  43.324  13.153
63642W        W35902  20.180  14.547   4.691
63643W        W35903  12.366  13.750  12.582
63644W        W35904  21.836  23.596   1.673
63645W        W35905  32.554  42.166   0.423
63646W        W35906  11.271  21.316   4.072
63647W        W35907  13.404  13.596  14.548
63648W        W35908  30.568  25.092  12.896
63649W        W35909   8.352  12.815  10.724
63650W        W35910  38.773  29.997  12.878
63651W        W35911   1.831  15.751   1.937
63652W        W35912  22.476  18.114  11.502
63653W        W35913  32.637   7.901   0.925
63654W        W35914  25.157  43.689  11.596
63655W        W35915  27.015  19.125  12.747
63656W        W35916   7.628  36.205   2.596
63657W        W35917   8.762  11.271   2.412
63658W        W35918  34.001  40.348  11.556
63659W        W35919  41.491  28.187  13.296
63660W        W35920   8.684  12.919   4.634
63661W        W35921  27.606   4.869   3.716
63662W        W35922   8.269  17.721  13.348
63663W        W35923  14.118  23.176   0.960
63664W        W35924   0.106  20.851   2.718
63665W        W35925  27.149  37.809  10.902
63666W        W35926  16.651  33.897  11.476
63667W        W35927  22.130  12.907   3.780
63668W        W35928  43.686   4.239  13.951
63669W        W35929   1.853   3.867   4.098
63670W        W35930  37.361  43.810  13.818
63671W        W35931  26.183  19.699   4.632
63672W        W35932  25.581  42.962   0.023
63673W        W35933   0.209  26.292  14.703
63674W        W35934  12.733  19.052   4.673
63675W        W35935   4.259   1.008   1.828
63676W        W35936   1.239  29.547  13.462
63677W        W35937  12.854  33.166   2.908
63678W        W35938  13.683  29.181  12.456
63679W        W35939  43.465  22.520  13.505
63680W        W35940  30.014  26.539  12.338
63681W        W35941  15.120   1.346  11.561
63682W        W35942   2.256  44.339  13.224
63683W        W35943  36.043   9.442   0.781
63684W        W35944   0.704   9.269  10.608
63685W        W35945  27.151   3.911  13.627
63686W        W35946  18.807  14.257  12.029
63687W        W35947   6.319  15.076   1.407
63688W        W35948  23.183  16.821  11.372
63689W        W35949  13.846   4.206   1.494
63690W        W35950  41.896   2.310  13.402
63691W        W35951  11.170  39.817   2.802
63692W        W35952  25.577  40.104  10.607
63693W        W35953  38.316   3.819   1.307
63694W        W35954  25.026  35.017   0.992
63695W        W35955  11.325  15.633   0.892
63696W        W35956  42.839  39.018  10.473
63697W        W35957  14.811  32.566   0.209
63698W        W35958  29.689  13.770   4.189
63699W        W35959  36.869  37.839   1.305
63700W        W35960  31.618   8.885  13.355
63701W        W35961  44.364   0.145   1.307
63702W        W35962   6.324   1.490   2.419
63703W        W35963  27.649  30.885  13.384
63704W        W35964  32.438   4.941   0.387
63705W        W35965  37.462   4.885   2.635
63706W        W35966  24.525   0.699  14.422
63707W        W35967  12.519   8.873   2.369
63708W        W35968  28.521  16.678   5.014
63709W        W35969  23.181  30.257   0.561
63710W        W35970  28.152  39.851   2.533
63711W        W35971  16.302  41.662  10.520
63712W        W35972   7.850  38.595  14.069
63713W        W35973   8.449  10.765  13.552
63714W        W35974  20.512  16.536  10.714
63715W        W35975  31.643  28.223  13.583
63716W        W35976  21.971   5.570   1.739
63717W        W35977   2.247  20.556  11.961
63718W        W35978  31.426  29.988  13.712
63719W        W35979   0.356  21.054  11.471
63720W        W35980   1.691  42.458  12.026
63721W        W35981  28.223  13.439  11.768
63722W        W35982  13.345  14.899   1.887
63723W        W35983   7.961   2.609   2.093
63724W        W35984  37.136  20.276  11.897
63725W        W35985  27.779   0.748   4.078
63726W        W35986   3.308   6.297   3.609
63727W        W35987  37.773  14.894   2.757
63728W        W35988   4.428   4.414  14.334
63729W        W35989  36.447  39.540  11.392
63730W        W35990  17.253  38.926   5.221
63731W        W35991  36.105  36.107  10.619
63732W        W35992  30.536  18.019  13.956
63733W        W35993  16.655   7.627   2.637
63734W        W35994  12.107  26.951   2.904
63735W        W35995  20.998  25.262   3.663
63736W        W35996  39.958  40.876  14.003
63737W        W35997  32.981   9.400   4.957
63738W        W35998  16.113  24.559   4.543
63739W        W35999   5.138   5.849   2.198
63740W        W36000  16.223   9.811  13.065
63741W        W36001   0.395  32.199   0.386
63742W        W36002  29.946  36.398   2.767
63743W        W36003  42.437  31.994  14.521
63744W        W36004  37.349  24.127  11.071
63745W        W36005  24.006   2.053   4.655
63746W        W36006  37.514  18.420  10.306
63747W        W36007  12.391  24.092  14.209
63748W        W36008  10.072  44.445  11.561
63749W        W36009  16.735   0.015   0.306
63750W        W36010  39.385   5.419   4.068
63751W        W36011  38.028   0.848   2.906
63752W        W36012  20.482   8.189   2.190
63753W        W36013  21.118  32.922   4.148
63754W        W36014  27.000   3.192  13.995
63755W        W36015  24.956  17.220  11.716
63756W        W36016  33.677  30.444  14.939
63757W        W36017  30.889  36.866   0.951
63758W        W36018  42.827  37.213   1.275
63759W        W36019  16.740   8.991  14.662
63760W        W36020  18.569   3.458   4.160
63761W        W36021  12.106  11.775  10.484
63762W        W36022   4.268   7.717   1.058
63763W        W36023  35.331  25.407  14.754
63764W        W36024  42.866  18.490  12.545
63765W        W36025  12.340  27.239  14.965
63766W        W36026   9.801   1.978   3.879
63767W        W36027  32.166  43.405   2.234
63768W        W36028  26.491  16.149  13.288
63769W        W36029  10.685  21.064   1.828
63770W        W36030  34.110  26.664   0.415
63771W        W36031   6.362  42.588  12.414
63772W        W36032   6.922  28.174   9.827
63773W        W36033   4.530  37.479   1.463
63774W        W36034  40.180   1.104  11.557
63775W        W36035  25.015  16.444   0.868
63776W        W36036  37.134  29.553   4.080
63777W        W36037  41.037  30.783  14.857
63778W        W36038  34.041  43.747  11.520
63779W        W36039  27.234  25.784   0.761
63780W        W36040  13.367   5.692  13.778
63781W        W36041  19.851  42.692  12.460
63782W        W36042  44.361  42.764  11.527
63783W        W36043  23.065   7.584  13.507
63784W        W36044  31.304  20.483   1.318
63785W        W36045  24.844  20.268  12.101
63786W        W36046   6.029  33.380   5.046
63787W        W36047   6.686  27.173   1.373
63788W        W36048  41.269  28.869   4.047
63789W        W36049  24.507  21.022   0.351
63790W        W36050  21.052  40.461  14.927
63791W        W36051   6.207   5.389   2.846
63792W        W36052  35.916  30.682   0.330
63793W        W36053  23.513  23.574   4.363
63794W        W36054  13.149  28.863  10.675
63795W        W36055  43.344  34.913  13.409
63796W        W36056   8.232  16.197  11.156
63797W        W36057  36.052  18.634   1.381
63798W        W36058  32.969  32.929  14.353
63799W        W36059   8.468  37.298  12.023
63800W        W36060   5.217  21.311  10.375
63801W        W36061  38.855  25.572   0.368
63802W        W36062  43.957  23.157  12.618
63803W        W36063  37.910  31.873   4.549
63804W        W36064  34.698  41.287   3.499
63805W        W36065  11.263  34.048   4.381
63806W        W36066  30.790   2.780  11.534
63807W        W36067  24.579   5.147   1.373
63808W        W36068  35.993  38.797   3.727
63809W        W36069   4.102  41.249  14.047
63810W        W36070  18.222  44.665  11.686
63811W        W36071  16.280  43.700   3.712
63812W        W36072  19.225  28.857   2.081
63813W        W36073  17.277  17.276  14.891
63814W        W36074  31.368  22.992   3.287
63815W        W36075  12.799  28.077  11.452
63816W        W36076  24.192  31.254  11.284
63817W        W36077  12.332  18.428   1.263
63818W        W36078  21.201  38.437   4.316
63819W        W36079  13.559  16.942   0.516
63820W        W36080  14.466  32.479   3.799
63821W        W36081  23.010  42.271   1.828
63822W        W36082  36.926  16.164   5.043
63823W        W36083  26.513  44.074   3.276
63824W        W36084  29.814  12.185   2.757
63825W        W36085  42.320  22.416  11.450
63826W        W36086  25.122   0.299  14.076
63827W        W36087  38.311  30.132   1.446
63828W        W36088  22.629  33.248  13.303
63829W        W36089   3.684  28.189   1.394
63830W        W36090   3.945  18.703  14.806
63831W        W36091  18.049   8.856  14.318
63832W        W36092  33.194  43.100   4.512
63833W        W36093  13.009  29.117  11.122
63834W        W36094  40.863   5.547   0.689
63835W        W36095  37.032  27.000  12.862
63836W        W36096  20.513  37.070   2.894
63837W        W36097  12.194   8.192   1.940
63838W        W36098  36.895   9.741   2.689
63839W        W36099  13.211  44.720  13.539
63840W        W36100  34.732   8.359   2.821
63841W        W36101  21.737  41.433  11.058
63842W        W36102  42.759   9.191   0.354
63843W        W36103  28.911  14.686  14.420
63844W        W36104  10.872  10.323   4.881
63845W        W36105  17.665  27.123  10.761
63846W        W36106   8.333  29.405  12.649
63847W        W36107   4.428  33.885   2.855
63848W        W36108   4.625  36.887  12.655
63849W        W36109  17.857  43.742  13.587
63850W        W36110  22.089  26.237  14.350
63851W        W36111  35.890  14.795   0.248
63852W        W36112  31.942  34.342  13.512
63853W        W36113   5.087  41.460   3.184
63854W        W36114   7.711  33.005  12.891
63855W        W36115  35.590  35.964   0.787
63856W        W36116  38.557  26.036   0.339
63857W        W36117  24.539  39.570   4.598
63858W        W36118  43.543  25.409   4.264
63859W        W36119  13.653  24.631   1.946
63860W        W36120  32.408  23.488   1.365
63861W        W36121  26.179  14.836   1.863
63862W        W36122   9.771  27.962   4.619
63863W        W36123  12.569  17.361   2.328
63864W        W36124  31.179  42.912  13.468
63865W        W36125  14.483  15.130  12.091
63866W        W36126   3.474   0.865   0.172
63867W        W36127  16.325  19.450  10.637
63868W        W36128  39.419  24.092   2.589
63869W        W36129  25.458  20.492   2.640
63870W        W36130  38.476   8.261   1.607
63871W        W36131   3.601   7.512  12.501
63872W        W36132  40.250   6.907  11.944
63873W        W36133  23.548  18.636   1.974
63874W        W36134   1.803   1.379  12.090
63875W        W36135  13.737  34.391  14.251
63876W        W36136  27.195  14.134  14.333
63877W        W36137  27.429  39.384  10.223
63878W        W36138  33.652  25.205   5.014
63879W        W36139  27.882  15.822   3.762
63880W        W36140  17.274   7.078  11.111
63881W        W36141  13.814   0.529  12.545
63882W        W36142  34.487  38.511  14.447
63883W        W36143  41.792  27.418   4.551
63884W        W36144  30.244  17.641  13.747
63885W        W36145  23.604   9.914  10.653
63886W        W36146   8.648   9.205   0.333
63887W        W36147  42.374  37.873  11.608
63888W        W36148   2.948  27.549  12.023
63889W        W36149  24.939   7.313  12.880
63890W        W36150  39.864  38.600  12.947
63891W        W36151  39.360  39.383  11.225
63892W        W36152  27.140  17.531  13.920
63893W        W36153  30.691  31.981   1.270
63894W        W36154  38.609  28.097   2.631
63895W        W36155  21.517  19.292   4.977
63896W        W36156  32.459  19.487  13.618
63897W        W36157  30.578  13.313  11.089
63898W        W36158  43.539  11.056  14.305
63899W        W36159  15.600   8.362   1.149
63900W        W36160  25.973  12.238  12.464
63901W        W36161   4.314  16.309  11.997
63902W        W36162  35.575  40.572   4.525
63903W        W36163  33.191  34.455  14.760
63904W        W36164  25.543  25.893   2.938
63905W        W36165  12.853  32.542  10.815
63906W        W36166  22.006  10.345  10.734
63907W        W36167  19.160  35.736  13.827
63908W        W36168  22.982  16.661   3.292
63909W        W36169   8.493   5.765  11.448
63910W        W36170   9.747  20.303   0.034
63911W        W36171  28.125  15.122   1.478
63912W        W36172  20.195  19.639  10.412
63913W        W36173  36.683  20.541  10.632
63914W        W36174   6.499  20.936   3.411
63915W        W36175   0.136  39.833  13.240
63916W        W36176  14.642  44.282   0.498
63917W        W36177  24.997  40.331   4.137
63918W        W36178  24.882   8.079   2.771
63919W        W36179  32.846  34.909   1.892
63920W        W36180  25.270   6.041   3.735
63921W        W36181  37.915  27.452  13.062
63922W        W36182  14.608  10.212  10.784
63923W        W36183  43.027  22.806   0.042
63924W        W36184  43.201  39.366  12.118
63925W        W36185   3.857  10.672   3.344
63926W        W36186  29.258   5.311   1.231
63927W        W36187  29.063   6.662   2.206
63928W        W36188  18.447   2.557   3.631
63929W        W36189  21.765   0.746  11.876
63930W        W36190  38.896  15.749  13.409
63931W        W36191  34.952  32.438  10.802
63932W        W36192  29.523  23.249   0.388
63933W        W36193  14.441   5.826  12.543
63934W        W36194  17.815  30.085   3.856
63935W        W36195   1.503  42.988   3.193
63936W        W36196  13.777  10.548  14.633
63937W        W36197   4.741  34.705   3.371
63938W        W36198  37.816  23.688   4.596
63939W        W36199   3.323  14.621   0.702
63940W        W36200  28.230  40.200  13.547
63941W        W36201   7.403   0.418  12.582
63942W        W36202  37.051  25.123   3.618
63943W        W36203   8.710  20.129   0.691
63944W        W36204  25.253  37.908  12.380
63945W        W36205  38.314   1.950   1.383
63946W        W36206   4.840   9.902   5.064
63947W        W36207  15.358   8.115   2.772
63948W        W36208   4.465   7.366   2.352
63949W        W36209   2.976  36.724  14.575
63950W        W36210  34.114  21.223   3.942
63951W        W36211  40.473  16.556  10.974
63952W        W36212  26.007  40.432  10.724
63953W        W36213  41.506   9.336   0.095
63954W        W36214  37.576   8.439   3.645
63955W        W36215  10.458  44.340   0.828
63956W        W36216   1.270  26.637  10.299
63957W        W36217  43.273   7.921   1.450
63958W        W36218  12.851  26.435   3.080
63959W        W36219  16.077   2.100   0.684
63960W        W36220   4.420  15.659   4.227
63961W        W36221  22.104  35.889  11.156
63962W        W36222  31.470   4.160  12.302
63963W        W36223   5.712   0.846  11.942
63964W        W36224  20.717  26.495  11.544
63965W        W36225  14.130  32.076   3.653
63966W        W36226  33.734  29.075   2.219
63967W        W36227  43.010  30.435  12.308
63968W        W36228  10.302  27.074  14.962
63969W        W36229  29.458  31.880  13.354
63970W        W36230   5.891  37.828   4.679
63971W        W36231  13.283   5.927   1.803
63972W        W36232  17.277  27.970  12.405
63973W        W36233  33.467  33.978  14.843
63974W        W36234  25.047  42.183  13.463
63975W        W36235  43.518  32.328   3.395
63976W        W36236   4.382  35.209   4.902
63977W        W36237   2.904  14.169  13.986
63978W        W36238  43.506  41.857   0.836
63979W        W36239  38.578  24.563  14.198
63980W        W36240   9.315  29.976   1.881
63981W        W36241  24.964  26.707   4.280
63982W        W36242  21.279  16.047  12.870
63983W        W36243  28.634  34.985   0.024
63984W        W36244  18.407   7.438  10.259
63985W        W36245  27.915   6.036   4.655
63986W        W36246  16.795  38.873  13.782
63987W        W36247  16.689  43.047   5.159
63988W        W36248  31.995  35.873  12.862
63989W        W36249  16.641  35.889  14.269
63990W        W36250  21.050  22.164  10.808
63991W        W36251   9.183  16.760   3.661
63992W        W36252  34.365  28.108   1.417
63993W        W36253  38.846  38.953   0.463
63994W        W36254   4.918  33.388  11.143
63995W        W36255  33.822  36.320   0.205
63996W        W36256  32.898  30.696   3.103
63997W        W36257  30.319  44.249   5.024
63998W        W36258  43.511  22.612   0.000
63999W        W36259   3.222   9.328   0.493
64000W        W36260  31.239  20.983  13.054
64001W        W36261  41.788  43.987  11.658
64002W        W36262   3.244  18.852  13.905
64003W        W36263   8.138  12.601  13.952
64004W        W36264  25.992  22.513   1.434
64005W        W36265  16.381  22.395   0.428
64006W        W36266  35.540  18.877  14.453
64007W        W36267   1.706  15.587   1.436
64008W        W36268   7.476  35.569   3.756
64009W        W36269   3.864  15.684   3.293
64010W        W36270  39.102  13.819   3.093
64011W        W36271  38.323  38.418  11.861
64012W        W36272  12.058  14.639   1.878
64013W        W36273  22.165  41.052   1.070
64014W        W36274  31.589   3.962   2.778
64015W        W36275  32.496  30.447   0.513
64016W        W36276  10.784   3.993   1.247
64017W        W36277   4.837  27.684  14.427
64018W        W36278   5.140  24.650  11.906
64019W        W36279  39.968  22.149   0.633
64020W        W36280   4.402  14.833  14.760
64021W        W36281   9.445  41.805  14.348
64022W        W36282  44.576  25.189   0.834
64023W        W36283  16.696  40.308  14.983
64024W        W36284  20.265  23.451  12.306
64025W        W36285   6.397  43.022  10.328
64026W        W36286  40.788  33.398   4.556
64027W        W36287   4.204  21.349   2.724
64028W        W36288  11.844  32.573  10.719
64029W        W36289  24.856  12.936  13.109
64030W        W36290  26.896  38.624   4.526
64031W        W36291  14.561   1.777   1.493
64032W        W36292  29.459  24.744   0.813
64033W        W36293  38.368   7.839  14.830
64034W        W36294  23.360  26.119   3.263
64035W        W36295  17.138   0.219  14.391
64036W        W36296   0.744  38.036  11.592
64037W        W36297  16.283   7.628  12.965
64038W        W36298   0.790  24.591   2.111
64039W        W36299  20.707  34.873   2.609
64040W        W36300  32.075  22.152   4.351
64041W        W36301  26.159  29.552  13.968
64042W        W36302  35.513  11.285   4.047
64043W        W36303  20.784  11.296  12.077
64044W        W36304  11.637  40.980   0.582
64045W        W36305  12.369  18.787   0.826
64046W        W36306  40.816   9.358  13.995
64047W        W36307  16.165  12.189  11.729
64048W        W36308   3.198  30.803   4.566
64049W        W36309  24.497  28.905   4.574
64050W        W36310  17.585   7.794  10.532
64051W        W36311  36.511   9.237  14.859
64052W        W36312   7.914  20.042  12.484
64053W        W36313  35.545  36.867   1.419
64054W        W36314  31.905  12.200   4.335
64055W        W36315   0.761  26.613   2.263
64056W        W36316  26.544   5.852   0.852
64057W        W36317  38.137   1.412  14.485
64058W        W36318  28.116   8.892  10.985
64059W        W36319  30.086   5.355   2.324
64060W        W36320  31.550   9.014  12.331
64061W        W36321   9.401  40.325  12.921
64062W        W36322  29.826  10.482   4.158
64063W        W36323  24.212   7.362   0.584
64064W        W36324  19.533   4.158  11.175
64065W        W36325   0.016  38.037   1.378
64066W        W36326  24.417  10.974  11.596
64067W        W36327  38.358  28.771   1.269
64068W        W36328  31.338  42.534   3.029
64069W        W36329   9.826  40.281  13.840
64070W        W36330  44.194  22.768  12.363
64071W        W36331  10.144  25.071  11.586
64072W        W36332  37.534  36.207  12.419
64073W        W36333  28.629  13.723  11.948
64074W        W36334  20.781  43.357   0.500
64075W        W36335  42.830   7.566  12.670
64076W        W36336   3.319  27.604   4.638
64077W        W36337  15.335  27.757  11.196
64078W        W36338  15.165  27.336  10.259
64079W        W36339   7.309  23.639   3.894
64080W        W36340  44.870  14.800   4.927
64081W        W36341  15.168  39.473   3.858
64082W        W36342  34.710  27.873  13.526
64083W        W36343  13.359  26.934   1.417
64084W        W36344   3.915   4.807  12.523
64085W        W36345  42.705  36.671  13.471
64086W        W36346  29.104  32.349  12.367
64087W        W36347  25.134  34.909   4.157
64088W        W36348   7.421  23.710  13.828
64089W        W36349  13.640  14.693  13.534
64090W        W36350  19.356  13.370   0.086
64091W        W36351  13.679  37.790   1.931
64092W        W36352  16.225   4.204  13.826
64093W        W36353  44.884   2.935   2.801
64094W        W36354  44.048   5.152  12.910
64095W        W36355  42.835  39.274  12.502
64096W        W36356   5.980  22.328  11.959
64097W        W36357  43.400  43.480   4.571
64098W        W36358  30.338  29.800   5.509
64099W        W36359  43.847  13.216   3.456
64100W        W36360  25.438  36.325  13.767
64101W        W36361  40.904   4.246  12.205
64102W        W36362   8.759  42.851   4.831
64103W        W36363  41.995  15.488  10.339
64104W        W36364  29.795  14.206   3.151
64105W        W36365  12.241  37.828   4.595
64106W        W36366  10.243   8.327  14.828
64107W        W36367  23.640   7.642   4.550
64108W        W36368   6.117   3.748   3.299
64109W        W36369  33.916  20.943   3.559
64110W        W36370   7.932  18.294  11.725
64111W        W36371  34.790  33.769  11.245
64112W        W36372  37.816  15.600  13.004
64113W        W36373  32.923  25.002  14.228
64114W        W36374  43.777  29.890  12.173
64115W        W36375   2.923   7.072  10.464
64116W        W36376  32.804  36.593  11.864
64117W        W36377  38.184  33.916   3.758
64118W        W36378   8.316   9.948   3.582
64119W        W36379  22.191  26.566  10.596
64120W        W36380  11.245  37.115   4.639
64121W        W36381  10.330  31.884  11.953
64122W        W36382  10.628  15.786   0.769
64123W        W36383   6.419   1.413  11.816
64124W        W36384  34.532  22.083   1.872
64125W        W36385  23.031  24.274  11.547
64126W        W36386   6.340  29.959  11.896
64127W        W36387   1.351   8.690  10.561
64128W        W36388  39.937  43.513  14.331
64129W        W36389  13.005  19.259  12.436
64130W        W36390  16.739  43.840  11.898
64131W        W36391  40.847  40.525   0.323
64132W        W36392  33.008  18.625   1.428
64133W        W36393   0.846  37.548   3.647
64134W        W36394  24.182   8.895  10.069
64135W        W36395  13.208  41.459   4.649
64136W        W36396  15.353   3.079  13.339
64137W        W36397   9.057   4.942   0.410
64138W        W36398  30.594  37.827   1.735
64139W        W36399  31.145   9.197  14.309
64140W        W36400  38.562   6.514  13.435
64141W        W36401   0.897  37.855   0.863
64142W        W36402  22.673  23.608  11.197
64143W        W36403  15.138  26.040   3.459
64144W        W36404  23.678  24.109   4.350
64145W        W36405  37.897  18.604   0.817
64146W        W36406  30.089   9.748  12.394
64147W        W36407  27.634  17.210  14.512
64148W        W36408  36.572   5.627   0.790
64149W        W36409   1.860  38.551   1.282
64150W        W36410  25.414   0.862   0.320
64151W        W36411  39.377  31.450   0.861
64152W        W36412  37.549   4.502   0.744
64153W        W36413  36.965  11.393  13.638
64154W        W36414  29.606  15.125   4.692
64155W        W36415  36.685  15.772   0.432
64156W        W36416   8.624   7.763   0.936
64157W        W36417   5.211  17.724  14.312
64158W        W36418  39.104  33.029  12.113
64159W        W36419  36.714  42.882  14.131
64160W        W36420  11.018  20.134  11.618
64161W        W36421  23.994  19.563   2.340
64162W        W36422  39.451   0.971  13.567
64163W        W36423   5.236  16.884  14.946
64164W        W36424   8.199  26.459  13.907
64165W        W36425   7.476  33.366   1.871
64166W        W36426  36.940  38.793   2.129
64167W        W36427  44.237  35.988   2.820
64168W        W36428  27.424   3.486  11.635
64169W        W36429  20.006  21.011  12.069
64170W        W36430   4.923  36.434  11.377
64171W        W36431  14.868   6.074  12.785
64172W        W36432  33.721  34.079  14.381
64173W        W36433   0.258  38.405  10.695
64174W        W36434  36.786  30.878   1.736
64175W        W36435  23.763   7.554   0.420
64176W        W36436  23.444   4.833  10.512
64177W        W36437  40.409  28.377   3.390
64178W        W36438   5.310  27.717   0.770
64179W        W36439  39.956   1.870  11.025
64180W        W36440  30.418  13.631  11.438
64181W        W36441  33.135  26.856  14.837
64182W        W36442  37.938  10.787  11.783
64183W        W36443   6.490   8.360   0.812
64184W        W36444  22.531   9.159  14.029
64185W        W36445   3.355  15.926   3.334
64186W        W36446  38.575  31.915   0.443
64187W        W36447   8.339  31.138   2.446
64188W        W36448   8.064  28.926  13.525
64189W        W36449  36.740   4.913   4.558
64190W        W36450  18.131  35.607  13.201
64191W        W36451  40.463  11.637   2.771
64192W        W36452  29.637  31.538   0.418
64193W        W36453  21.694  17.757  12.444
64194W        W36454  28.212  15.263   0.989
64195W        W36455  21.423  18.726  14.849
64196W        W36456  22.047  43.795  14.549
64197W        W36457  39.955  26.742   0.455
64198W        W36458  12.603  42.604  11.737
64199W        W36459  34.348  13.485  15.000
64200W        W36460  32.438  37.743   0.764
64201W        W36461  42.943  13.339  11.610
64202W        W36462  13.377   5.030   3.320
64203W        W36463   6.464   4.180  14.786
64204W        W36464  39.040  21.543   3.248
64205W        W36465   7.258  11.614  13.046
64206W        W36466  19.976  25.340   2.705
64207W        W36467  22.780  13.671  11.609
64208W        W36468   9.281  14.343  13.124
64209W        W36469   9.394  43.946  11.438
64210W        W36470  26.036  23.247   3.088
64211W        W36471  10.366  36.986  10.596
64212W        W36472  26.152  25.973  14.928
64213W        W36473  34.637  16.722   4.427
64214W        W36474  20.060   9.570  14.085
64215W        W36475  18.009  21.259  14.769
64216W        W36476  32.041  31.970  13.098
64217W        W36477  42.122  39.852   0.277
64218W        W36478  44.367  14.123  14.513
64219W        W36479  40.585  42.104  11.129
64220W        W36480  35.432  28.292   0.955
64221W        W36481  43.033  39.757  12.418
64222W        W36482   2.451  12.591  10.089
64223W        W36483  10.050   4.898   0.926
64224W        W36484  41.971  31.729  14.459
64225W        W36485  11.306   4.996  10.006
64226W        W36486  35.029  11.438  13.082
64227W        W36487  44.408   4.276  10.303
64228W        W36488  33.967  18.849   0.046
64229W        W36489  29.898   3.003   4.556
64230W        W36490  14.842  27.216  14.258
64231W        W36491  12.448   7.684   1.904
64232W        W36492  11.144  33.116  10.612
64233W        W36493  11.785  16.734  13.873
64234W        W36494  26.106  43.514   1.789
64235W        W36495  39.878  22.560   4.826
64236W        W36496  36.701  20.482   3.358
64237W        W36497  41.913  44.210  10.732
64238W        W36498  35.053   1.810   2.902
64239W        W36499  26.839   1.738   1.353
64240W        W36500  26.866  40.857   5.445
64241W        W36501  21.750  19.855   3.617
64242W        W36502  19.066  43.722   2.295
64243W        W36503  18.690  23.527   4.724
64244W        W36504   3.469  20.213  11.518
64245W        W36505  40.583  26.310  14.358
64246W        W36506  41.643  15.100   2.648
64247W        W36507  21.074  19.806   0.875
64248W        W36508  18.701   8.246   1.290
64249W        W36509   7.341  17.138   2.750
64250W        W36510  27.224  16.701  10.519
64251W        W36511   6.264   4.434   3.807
64252W        W36512  38.981  29.672   0.017
64253W        W36513  20.056   8.245   1.858
64254W        W36514  30.521   8.217   0.464
64255W        W36515  13.327   2.820  11.316
64256W        W36516  41.894   0.434   3.678
64257W        W36517  40.226   2.257   2.118
64258W        W36518   0.461  22.194   4.311
64259W        W36519  32.855   6.418   3.597
64260W        W36520  16.285  37.442  13.522
64261W        W36521  21.496   5.719   1.908
64262W        W36522  42.671  15.037  12.608
64263W        W36523  43.345  11.173   2.595
64264W        W36524   9.040  13.009  12.470
64265W        W36525  21.729  27.658  12.658
64266W        W36526  36.570  40.451  10.708
64267W        W36527  23.122  29.533   1.153
64268W        W36528  13.880  43.853   3.639
64269W        W36529  31.044  42.448  10.557
64270W        W36530  39.017  43.015   3.846
64271W        W36531  10.165   4.397   0.739
64272W        W36532   9.854  32.533  14.468
64273W        W36533  12.748  27.558  11.444
64274W        W36534  11.799   7.200   4.558
64275W        W36535  24.116   3.215   4.146
64276W        W36536   6.606  27.134   0.708
64277W        W36537  41.075  26.432  12.622
64278W        W36538  19.400   1.158   4.450
64279W        W36539   0.448  23.274  13.568
64280W        W36540  20.098  27.708  14.374
64281W        W36541   7.601  41.014   2.674
64282W        W36542  21.500   0.797  11.437
64283W        W36543  19.101  27.499  11.926
64284W        W36544  24.720  26.558   0.440
64285W        W36545  19.116  35.913  12.760
64286W        W36546  38.092   1.587  12.043
64287W        W36547   7.199  39.483   3.364
64288W        W36548   9.641  31.490   1.991
64289W        W36549   3.238  35.521  13.432
64290W        W36550  32.383  23.673   4.700
64291W        W36551  26.965   9.465  11.541
64292W        W36552   2.506  15.126   1.151
64293W        W36553  36.129  28.130  14.718
64294W        W36554  36.500   6.733   1.662
64295W        W36555  31.432  20.700  14.067
64296W        W36556   6.897  26.017   0.931
64297W        W36557  11.814  28.837  12.694
64298W        W36558  33.650  21.400  10.105
64299W        W36559  25.346  16.667  12.032
64300W        W36560  17.124  32.040  13.899
64301W        W36561  20.754  21.741  11.485
64302W        W36562  24.868  32.148   2.703
64303W        W36563   9.771  29.473   2.199
64304W        W36564  17.779  40.805   0.872
64305W        W36565   1.897  18.471   0.496
64306W        W36566   9.730  15.232  12.006
64307W        W36567  23.543  44.862   1.822
64308W        W36568   0.423  34.081   2.613
64309W        W36569  31.904  31.741  13.559
64310W        W36570  22.030  44.818   2.821
64311W        W36571  35.575  17.641   1.736
64312W        W36572  10.386   2.033   0.363
64313W        W36573  35.693  39.042  13.326
64314W        W36574  27.242  41.548   5.533
64315W        W36575  28.568  24.396   1.579
64316W        W36576   9.359  17.799  13.395
64317W        W36577  21.479  27.038   4.680
64318W        W36578  42.939  12.202  11.567
64319W        W36579  22.399  23.480  10.794
64320W        W36580   6.650  35.398  11.217
64321W        W36581  12.282  25.160   4.008
64322W        W36582  30.681  35.667   1.246
64323W        W36583  23.751   1.844   1.058
64324W        W36584  15.884  28.913   2.289
64325W        W36585   2.721  33.888  10.681
64326W        W36586  14.646  36.956  12.646
64327W        W36587   6.861  34.386   4.057
64328W        W36588  41.987   5.201   1.065
64329W        W36589   3.372  27.638  12.353
64330W        W36590  12.897  31.706  14.614
64331W        W36591   6.885   0.223  14.282
64332W        W36592  27.730  43.342   0.316
64333W        W36593   2.353  11.715  14.118
64334W        W36594  16.729  35.556  11.436
64335W        W36595   1.457  26.660  14.851
64336W        W36596   0.842  11.225   0.968
64337W        W36597  10.273  11.460  12.091
64338W        W36598  20.726  37.510   5.041
64339W        W36599   7.915   5.302  13.541
64340W        W36600  40.866  19.747  13.892
64341W        W36601  38.105   1.478   1.376
64342W        W36602  42.966   5.457  13.495
64343W        W36603  32.478   0.001  11.503
64344W        W36604  21.177   9.960  10.193
64345W        W36605   0.617   0.379  13.434
64346W        W36606  21.860  20.753   4.227
64347W        W36607  10.200  33.646   3.155
64348W        W36608  26.642   7.376   4.600
64349W        W36609   4.913  22.078   2.844
64350W        W36610   2.755  38.314   3.180
64351W        W36611   3.307  35.900   3.808
64352W        W36612  21.131   9.753  10.708
64353W        W36613  20.365  25.479  13.775
64354W        W36614  27.484  16.179   0.374
64355W        W36615   9.436  18.799   2.624
64356W        W36616  13.235  28.906   2.312
64357W        W36617  22.593  15.832   1.191
64358W        W36618  35.999   7.441   0.002
64359W        W36619  20.221  43.195   4.250
64360W        W36620  27.675  42.403  11.704
64361W        W36621  23.582  40.323   3.191
64362W        W36622  37.043  36.825  10.875
64363W        W36623  34.060  38.437   2.302
64364W        W36624  28.828  31.355   0.845
64365W        W36625  44.987  22.315   1.917
64366W        W36626  43.391  38.564   2.860
64367W        W36627  16.519  41.861  13.946
64368W        W36628  41.750  11.660  14.560
64369W        W36629  43.992   2.465   1.867
64370W        W36630  27.623  33.190  13.052
64371W        W36631  39.888  42.856   2.367
64372W        W36632  37.949  33.867   2.364
64373W        W36633  14.763  37.299   3.153
64374W        W36634  14.825  22.139  14.410
64375W        W36635  23.024  17.081  12.989
64376W        W36636   7.310  33.630   2.287
64377W        W36637   5.889  40.067   2.001
64378W        W36638  18.675  24.614  14.524
64379W        W36639  15.320  10.751  10.568
64380W        W36640  33.436   9.187  12.764
64381W        W36641  28.023  15.601  10.421
64382W        W36642  25.825   4.631  10.033
64383W        W36643  19.769  38.562  12.587
64384W        W36644  34.509  32.183   0.319
64385W        W36645  23.229   3.111   1.996
64386W        W36646  18.624  44.803  12.025
64387W        W36647  16.210  15.397   1.839
64388W        W36648  26.154  14.549  11.226
64389W        W36649  30.681  36.436   4.214
64390W        W36650  41.299  33.840   1.188
64391W        W36651  14.883  24.539   2.713
64392W        W36652  13.701  16.603  13.449
64393W        W36653   9.338  34.436   3.665
64394W        W36654  34.593  16.155  12.163
64395W        W36655  16.528  26.069   2.842
64396W        W36656  15.796  17.751  11.152
64397W        W36657  44.876  33.574   2.257
64398W        W36658  14.651  37.354  10.885
64399W        W36659  40.837  15.694   0.420
64400W        W36660  17.980   0.865   4.297
64401W        W36661  12.294  19.707  10.721
64402W        W36662   2.052  23.022   3.317
64403W        W36663  39.071  35.825  10.808
64404W        W36664  40.033  19.846  12.470
64405W        W36665  16.108  30.939   0.113
64406W        W36666  20.217  37.976   1.366
64407W        W36667  31.169  33.983  13.340
64408W        W36668  11.172  22.273   3.238
64409W        W36669   0.205  40.321   0.841
64410W        W36670  30.590  33.696   1.249
64411W        W36671  11.029  41.444  11.916
64412W        W36672  30.903  12.326  11.216
64413W        W36673  37.313  14.232  10.656
64414W        W36674   8.264   4.547   1.320
64415W        W36675  24.015  40.298  12.035
64416W        W36676  14.240  32.107   0.293
64417W        W36677   2.992  40.281   2.372
64418W        W36678  12.375  42.883   1.528
64419W        W36679   3.053  34.053   2.303
64420W        W36680  15.285   5.126   2.395
64421W        W36681  35.251  29.499   2.240
64422W        W36682   5.287  15.764   4.302
64423W        W36683  31.332  39.288  13.986
64424W        W36684  42.723  32.066  10.537
64425W        W36685  28.128  20.028  11.191
64426W        W36686  36.290  30.114  10.615
64427W        W36687  34.565  17.613  14.937
64428W        W36688  23.221  13.034  12.576
64429W        W36689  27.628  21.561   4.539
64430W        W36690  25.621   8.309   3.366
64431W        W36691  18.009  13.785  11.924
64432W        W36692  20.283  26.173   3.660
64433W        W36693  26.286  34.418   0.473
64434W        W36694  19.237  38.007   0.346
64435W        W36695  25.440  27.420  14.979
64436W        W36696  21.059   2.757   1.385
64437W        W36697   7.637  40.795  12.985
64438W        W36698   0.922   9.797   3.652
64439W        W36699  33.873   9.850  12.500
64440W        W36700  29.803  17.489  13.970
64441W        W36701  24.109  15.743  12.904
64442W        W36702  22.151  21.868  12.662
64443W        W36703  20.216  19.194  13.797
64444W        W36704  37.472  26.564  10.294
64445W        W36705  32.495  32.053  10.626
64446W        W36706   7.310  40.105  11.566
64447W        W36707  12.533   7.243   3.331
64448W        W36708  27.065  36.748  13.409
64449W        W36709  12.601  37.444  14.653
64450W        W36710  39.497  37.131  10.528
64451W        W36711  31.585  36.462   1.894
64452W        W36712  43.549   0.463   1.830
64453W        W36713  31.003  43.733  13.401
64454W        W36714  31.375  17.618  12.550
64455W        W36715  20.413  33.395  10.017
64456W        W36716  14.398  30.221   5.024
64457W        W36717  25.448   2.897  11.005
64458W        W36718  34.958  33.086   5.086
64459W        W36719  24.761  10.208   0.847
64460W        W36720   0.822   7.306  13.439
64461W        W36721   3.640  29.287  14.789
64462W        W36722  28.080  13.958   5.077
64463W        W36723  20.462  27.066   4.511
64464W        W36724  28.972  14.322   4.621
64465W        W36725   5.046  18.139  11.249
64466W        W36726  36.510  27.706   4.388
64467W        W36727  39.832  12.342  14.018
64468W        W36728   4.972  36.098  13.555
64469W        W36729  36.513  23.723  12.962
64470W        W36730  20.188   8.472   3.866
64471W        W36731  39.957  10.736  14.643
64472W        W36732   8.879  14.099   0.835
64473W        W36733  41.470  31.954  14.364
64474W        W36734  43.467  39.491  12.550
64475W        W36735  35.601  23.751   2.744
64476W        W36736  41.348  21.113   1.397
64477W        W36737  26.158  36.950  11.144
64478W        W36738   4.185  27.165   2.738
64479W        W36739  11.921  42.232   2.806
64480W        W36740  24.452  18.317   1.469
64481W        W36741   6.325  22.512  11.589
64482W        W36742   1.859  35.132  13.050
64483W        W36743  10.338  13.194   1.572
64484W        W36744  35.340  35.629   2.205
64485W        W36745  20.706  13.564  12.904
64486W        W36746  43.914  16.300  10.392
64487W        W36747   1.473  12.259   2.351
64488W        W36748  34.073  21.505   0.813
64489W        W36749  32.452  21.811   4.086
64490W        W36750   9.535  37.533   2.910
64491W        W36751  21.503   2.387  13.344
64492W        W36752  44.491   3.415  14.293
64493W        W36753  19.619  43.299  11.325
64494W        W36754  31.397   0.431   1.796
64495W        W36755  20.334  43.573   0.645
64496W        W36756   4.872  22.403  13.048
64497W        W36757  16.174  10.401   4.409
64498W        W36758  24.010  40.515  13.923
64499W        W36759  42.332  16.667   3.810
64500W        W36760  37.873  16.323   2.218
64501W        W36761  14.242  27.948  14.485
64502W        W36762   7.844  21.350  11.098
64503W        W36763  18.917  27.577   1.082
64504W        W36764  12.327  39.536   2.344
64505W        W36765   0.228  11.494   2.421
64506W        W36766  14.889  18.602  13.468
64507W        W36767  23.803  12.869   4.173
64508W        W36768   5.699  24.502   0.867
64509W        W36769  33.185   8.173  12.340
64510W        W36770  12.366  35.762  12.480
64511W        W36771  26.703  44.467   1.416
64512W        W36772  22.439  20.896   4.220
64513W        W36773  39.829  42.201   0.485
64514W        W36774  30.586  24.161  13.358
64515W        W36775  14.537  41.863  12.936
64516W        W36776  43.752  43.137   0.472
64517W        W36777  36.130  39.971  11.528
64518W        W36778  25.440  28.535   3.762
64519W        W36779   7.372  37.068   1.981
64520W        W36780  22.444   2.351   2.303
64521W        W36781   2.370   1.959   3.695
64522W        W36782  15.686   8.940   2.251
64523W        W36783  22.152  33.187  10.944
64524W        W36784  43.499   4.859  10.165
64525W        W36785  28.415  28.590  13.286
64526W        W36786  37.505  43.489   0.119
64527W        W36787  11.720  36.436  14.082
64528W        W36788  25.308  37.853  13.242
64529W        W36789  43.769  10.683  13.544
64530W        W36790   4.199  27.256  14.792
64531W        W36791  39.365  24.182   4.198
64532W        W36792  25.085  28.142   3.736
64533W        W36793  23.681   8.387   3.340
64534W        W36794  27.057  32.522   2.150
64535W        W36795   5.301  32.109  11.537
64536W        W36796   5.269  30.929  13.567
64537W        W36797  27.733   7.257  13.447
64538W        W36798  26.831  10.382  13.503
64539W        W36799  38.059  34.013   1.418
64540W        W36800  25.745  28.815  13.808
64541W        W36801  14.176   3.660  13.868
64542W        W36802  13.454  35.371  13.275
64543W        W36803  44.729  39.412   4.502
64544W        W36804  22.629  33.557  12.898
64545W        W36805  28.837  10.247   4.309
64546W        W36806  14.782  10.388  13.003
64547W        W36807  14.666  39.496  12.765
64548W        W36808  19.154  31.490  14.853
64549W        W36809  43.754  19.814  13.885
64550W        W36810   3.526   5.612  13.387
64551W        W36811  13.277  44.958   3.780
64552W        W36812  29.897   3.461  11.763
64553W        W36813  24.651  37.553  14.440
64554W        W36814  30.951  11.239   3.888
64555W        W36815  19.618  19.694   4.024
64556W        W36816   4.820  24.966  13.812
64557W        W36817  37.434  39.586   4.080
64558W        W36818  41.323  35.137   4.019
64559W        W36819  39.027   2.973   1.883
64560W        W36820   9.585  19.032  14.946
64561W        W36821  30.472  28.557  13.597
64562W        W36822  23.235  29.408  12.460
64563W        W36823  31.588  21.860   1.727
64564W        W36824   4.455   8.438   4.743
64565W        W36825  16.006  44.728  14.026
64566W        W36826  12.678  20.951  12.914
64567W        W36827  42.834  23.478  12.865
64568W        W36828  34.893  31.421  12.528
64569W        W36829  17.077  13.251   3.007
64570W        W36830  17.522  20.016  11.196
64571W        W36831  42.745  36.700   1.185
64572W        W36832  40.031   3.505   1.857
64573W        W36833  38.791  25.693   1.336
64574W        W36834  12.439  41.409   0.904
64575W        W36835   5.711  31.351   0.860
64576W        W36836  28.383  27.821  13.673
64577W        W36837   6.756  43.272  10.674
64578W        W36838  39.415  40.887   2.603
64579W        W36839  39.882  23.205  14.920
64580W        W36840   1.683  40.854   4.311
64581W        W36841  35.700  20.504  10.206
64582W        W36842  24.474  30.041  14.044
64583W        W36843  15.204  10.672  12.926
64584W        W36844  17.815   3.881   3.191
64585W        W36845  23.197  38.900  14.296
64586W        W36846  31.912   0.759   1.357
64587W        W36847  12.446  37.015   3.643
64588W        W36848  20.213  31.495   4.419
64589W        W36849  42.044  10.744   3.118
64590W        W36850  10.742   6.666  14.450
64591W        W36851   6.217  14.195   1.745
64592W        W36852  14.741   6.194   0.518
64593W        W36853  25.527   0.375   4.217
64594W        W36854   7.968   0.058   3.111
64595W        W36855  18.688  13.706   1.362
64596W        W36856  17.788  24.469  14.487
64597W        W36857  20.836  23.155   2.835
64598W        W36858   5.692  22.053  14.288
64599W        W36859   4.144   5.363   4.051
64600W        W36860  16.671  21.088   1.204
64601W        W36861  37.561  38.176   4.035
64602W        W36862  12.307  36.461   1.454
64603W        W36863  27.446   4.890   4.527
64604W        W36864  27.698  40.939  12.038
64605W        W36865  26.920  38.604   3.263
64606W        W36866  43.073  22.718  11.982
64607W        W36867  39.283  42.888  14.056
64608W        W36868  23.657  16.622  11.509
64609W        W36869  18.451  11.236   4.405
64610W        W36870  14.303   3.435   1.187
64611W        W36871  44.708  19.560   0.356
64612W        W36872  18.104  36.355   1.817
64613W        W36873  21.977   4.958  14.103
64614W        W36874  44.498  36.803  10.002
64615W        W36875   6.831  36.777   0.846
64616W        W36876  12.069  34.878  12.180
64617W        W36877  21.819  22.109  10.133
64618W        W36878  23.222   8.339  11.051
64619W        W36879   2.108   1.888   4.134
64620W        W36880  35.325  27.035   4.892
64621W        W36881   8.267  26.637  14.424
64622W        W36882  18.503  10.539  13.846
64623W        W36883  22.209  15.020   0.979
64624W        W36884  31.186  12.373  13.161
64625W        W36885   3.809  12.880  12.406
64626W        W36886  36.991   4.650   3.179
64627W        W36887  32.885  42.461  12.985
64628W        W36888  40.912  23.507   1.371
64629W        W36889  24.394  26.993  14.241
64630W        W36890  43.676   6.434  14.339
64631W        W36891  22.081  24.809   1.907
64632W        W36892  40.132  37.389   2.392
64633W        W36893   5.431  25.641   3.163
64634W        W36894  34.420  39.938   0.493
64635W        W36895  39.998  41.804  12.097
64636W        W36896  27.853  44.365  11.926
64637W        W36897  18.307  11.902  14.832
64638W        W36898   0.126  17.883   1.395
64639W        W36899  33.384  25.664   3.337
64640W        W36900  16.265  25.293  12.093
64641W        W36901  35.527  33.330   1.830
64642W        W36902  15.099   4.902   1.946
64643W        W36903  41.846   6.451   0.758
64644W        W36904  12.033   5.180   3.231
64645W        W36905  17.675  33.118   0.685
64646W        W36906  25.766  34.441   0.538
64647W        W36907  22.571  27.471   4.167
64648W        W36908  25.785  10.906  11.562
64649W        W36909  21.259  27.504   3.157
64650W        W36910  40.000   7.038  12.364
64651W        W36911  18.525  44.484   2.374
64652W        W36912  43.529  29.403   0.585
64653W        W36913  41.793  38.093  13.403
64654W        W36914  29.255  24.248   0.703
64655W        W36915  29.000   1.324  14.708
64656W        W36916  35.286   8.069  12.054
64657W        W36917  34.163  32.254   3.743
64658W        W36918  38.830   2.358   3.802
64659W        W36919  31.542  26.539  12.304
64660W        W36920  34.165   2.444  12.046
64661W        W36921  32.212  37.549  13.506
64662W        W36922  41.906  27.196   3.872
64663W        W36923  13.282  12.166   4.965
64664W        W36924   8.562  29.974  13.472
64665W        W36925  35.402  31.756  14.607
64666W        W36926  32.553  15.752   0.131
64667W        W36927  26.674  20.589  11.079
64668W        W36928  43.080  23.542  13.870
64669W        W36929  20.727  21.206   5.488
64670W        W36930  10.867  11.107   2.822
64671W        W36931  15.726   8.758  11.889
64672W        W36932  16.163   5.254  10.078
64673W        W36933  27.467  23.141   1.640
64674W        W36934   6.921  27.047  10.411
64675W        W36935   0.832   9.751   4.153
64676W        W36936   5.738  44.499  11.735
64677W        W36937   3.909  11.514  11.221
64678W        W36938  22.895  21.206   3.630
64679W        W36939  20.089  26.425   1.950
64680W        W36940  35.997  35.427   3.256
64681W        W36941  39.752  14.255  12.115
64682W        W36942  14.619  16.842   4.632
64683W        W36943   9.350   8.608   1.311
64684W        W36944  10.825  26.959  13.493
64685W        W36945   4.191  24.459  13.403
64686W        W36946  11.612   6.393  10.689
64687W        W36947   3.825   8.449  13.740
64688W        W36948   9.126  41.870   2.319
64689W        W36949   4.668  14.628   2.891
64690W        W36950   8.523   3.969   2.571
64691W        W36951  42.026  31.618   2.741
64692W        W36952  25.214   1.908  11.497
64693W        W36953  26.186   6.817  12.357
64694W        W36954  18.808  36.880   0.059
64695W        W36955  18.579   0.862   0.955
64696W        W36956  20.864   5.050  13.281
64697W        W36957  19.519   4.335  11.689
64698W        W36958  24.056   8.587   0.633
64699W        W36959  27.574  17.702  14.272
64700W        W36960   0.996   8.988   1.654
64701W        W36961  43.484  33.830  12.610
64702W        W36962  43.458  38.607   0.420
64703W        W36963  31.588   0.239  13.890
64704W        W36964   0.872  35.782  12.540
64705W        W36965  44.201  12.458   0.185
64706W        W36966  38.919  12.036  14.036
64707W        W36967  37.350   3.921   1.245
64708W        W36968   0.723  23.574   3.272
64709W        W36969  42.395  36.894  10.695
64710W        W36970  20.052   6.912  13.056
64711W        W36971  31.385  13.418  10.689
64712W        W36972   5.080  26.837   2.017
64713W        W36973  15.838  22.618  12.988
64714W        W36974  21.564  23.471   4.548
64715W        W36975   1.900  23.660   1.222
64716W        W36976  17.819   3.310   1.392
64717W        W36977  41.119  31.192   1.004
64718W        W36978  13.615  30.984   2.725
64719W        W36979   6.393  12.792  10.155
64720W        W36980  17.857  12.839   0.577
64721W        W36981  36.682  17.161   3.387
64722W        W36982  11.035  37.987  14.814
64723W        W36983  43.486  33.348  10.275
64724W        W36984  21.233   9.174   4.422
64725W        W36985  18.610  17.120  14.236
64726W        W36986  18.939  31.246  11.628
64727W        W36987  24.869  37.614  13.957
64728W        W36988  39.377  22.488  10.351
64729W        W36989  16.487  24.128   1.371
64730W        W36990  36.027  40.957  12.893
64731W        W36991  29.502   5.177   4.668
64732W        W36992  44.744  35.666  14.515
64733W        W36993  11.423  25.632  12.660
64734W        W36994  36.302  24.643   3.672
64735W        W36995  20.879  35.470   1.414
64736W        W36996  20.303  23.956   4.179
64737W        W36997   3.262   4.739  13.257
64738W        W36998  26.680  14.268  13.333
64739W        W36999  44.886   1.336   3.669
64740W        W37000  18.761  34.043   2.445
64741W        W37001  35.951  21.283  11.191
64742W        W37002   0.409  39.772  14.966
64743W        W37003  37.116  21.165   3.712
64744W        W37004  15.567   4.899  14.940
64745W        W37005  17.169   8.097  13.886
64746W        W37006  10.439  19.135   3.640
64747W        W37007  17.231   1.236  13.480
64748W        W37008  21.996  31.478   0.986
64749W        W37009  31.695   0.300   3.201
64750W        W37010  33.313   7.692  12.152
64751W        W37011  13.807   4.485   2.321
64752W        W37012  36.491  12.755   4.024
64753W        W37013   5.194  21.118   3.665
64754W        W37014  20.945  16.079   0.511
64755W        W37015   0.104   1.842  11.094
64756W        W37016  40.413  16.098   2.230
64757W        W37017  44.859  33.415  12.570
64758W        W37018  37.884  43.733  10.763
64759W        W37019   4.213  14.650   3.154
64760W        W37020   2.897   2.169  13.477
64761W        W37021  31.105  21.156  14.553
64762W        W37022  12.393  22.614  12.008
64763W        W37023  26.633  20.669  13.476
64764W        W37024  40.995  11.332   3.680
64765W        W37025  29.930  33.541  11.141
64766W        W37026  18.041   5.893   5.430
64767W        W37027  20.529  10.220   4.328
64768W        W37028  30.702  14.714   4.540
64769W        W37029  13.384  34.909   3.727
64770W        W37030  27.438   6.306  11.210
64771W        W37031  16.584   7.630   1.687
64772W        W37032  37.445  21.099  11.665
64773W        W37033  43.867  39.501   1.200
64774W        W37034   9.286  25.688   3.530
64775W        W37035  14.711  17.270   9.743
64776W        W37036   4.962   6.138   5.047
64777W        W37037  32.875   1.247  11.563
64778W        W37038   2.750  19.207  12.752
64779W        W37039  11.867  29.578  13.444
64780W        W37040   2.520  42.412   4.763
64781W        W37041  31.074  18.192  13.286
64782W        W37042  19.712  23.799  13.936
64783W        W37043  44.362  13.070  10.706
64784W        W37044   4.995  32.609   0.374
64785W        W37045  25.861  40.680   0.011
64786W        W37046   6.436  22.235   1.715
64787W        W37047  15.084   7.677   2.700
64788W        W37048  19.444   8.249   9.803
64789W        W37049  22.814   9.891  12.880
64790W        W37050   4.950   0.609  13.354
64791W        W37051  34.260   3.854   5.015
64792W        W37052   4.456  17.778   2.931
64793W        W37053  40.926  18.076   3.465
64794W        W37054  43.632  36.936   2.177
64795W        W37055  33.140  17.228  14.209
64796W        W37056   1.402  25.752  14.418
64797W        W37057  28.506  30.373   4.488
64798W        W37058   0.791  23.141   4.213
64799W        W37059  17.587  22.802   9.964
64800W        W37060   3.787  26.600   3.509
64801W        W37061   7.907  17.606  11.227
64802W        W37062  32.353   7.351   0.362
64803W        W37063  28.716  37.365   0.644
64804W        W37064  33.843   4.994   4.289
64805W        W37065  24.637  24.713  13.959
64806W        W37066  24.779  39.341   0.808
64807W        W37067  19.515  32.939   0.865
64808W        W37068  43.807  31.938   4.659
64809W        W37069  23.382  15.780  12.577
64810W        W37070   7.719  11.239  14.429
64811W        W37071  18.538  35.280  12.569
64812W        W37072  17.326  12.598   2.718
64813W        W37073  43.838  13.770  12.495
64814W        W37074   9.372  34.847  13.974
64815W        W37075  26.521  26.499   0.564
64816W        W37076  43.772  22.872   0.442
64817W        W37077   6.781  18.320  14.001
64818W        W37078  32.886  23.506  13.431
64819W        W37079  24.605  26.188   4.955
64820W        W37080  29.330  25.715  13.905
64821W        W37081   9.543  18.763  14.285
64822W        W37082  24.459   3.165  12.856
64823W        W37083  24.459  44.370  12.529
64824W        W37084  23.251  41.497  12.388
64825W        W37085  16.705  17.792   2.332
64826W        W37086  44.770  36.000  12.104
64827W        W37087  24.218  44.891   1.523
64828W        W37088  16.238  33.800  11.142
64829W        W37089  21.517   5.816  14.552
64830W        W37090  21.298  23.038  13.386
64831W        W37091  33.823  28.604   3.150
64832W        W37092  11.349  32.785   3.626
64833W        W37093  21.924  16.197  14.319
64834W        W37094  18.275  24.621   2.342
64835W        W37095   5.132  11.576  10.781
64836W        W37096  11.138  22.156  11.755
64837W        W37097  25.314  38.771  13.253
64838W        W37098  18.964   6.966  11.432
64839W        W37099  25.069   7.862   0.299
64840W        W37100  39.108   3.451  11.558
64841W        W37101  27.554  21.114  11.235
64842W        W37102  32.876   4.384  11.848
64843W        W37103  27.395  17.501   1.274
64844W        W37104  18.602   9.375  11.563
64845W        W37105  11.457  10.749   3.052
64846W        W37106  23.275  32.909   0.256
64847W        W37107  12.357   2.922   0.510
64848W        W37108  40.069  19.516   1.033
64849W        W37109  39.599  23.779  14.311
64850W        W37110  31.949  41.267   2.697
64851W        W37111  30.679  16.247   1.681
64852W        W37112   2.935   7.212  12.832
64853W        W37113  44.399   5.225   1.228
64854W        W37114  29.578  26.652   1.906
64855W        W37115  21.812  39.292  14.303
64856W        W37116  17.558  19.361  10.051
64857W        W37117  31.285  18.233   3.803
64858W        W37118  32.650   5.960   1.939
64859W        W37119  34.537  15.246   2.638
64860W        W37120  14.506   6.630   2.230
64861W        W37121  23.081   6.090   0.438
64862W        W37122  40.618  41.359  10.731
64863W        W37123  25.632  28.199   1.944
64864W        W37124  33.079   2.646   0.441
64865W        W37125  32.767  25.106   1.747
64866W        W37126  39.620   0.790   3.872
64867W        W37127   7.740   4.484   0.796
64868W        W37128   0.430  27.189   3.749
64869W        W37129   6.617   9.133  13.378
64870W        W37130  39.563  34.502  11.952
64871W        W37131  18.580  11.427  14.501
64872W        W37132   1.187  10.294   3.575
64873W        W37133  20.455  35.937   5.120
64874W        W37134  40.050  25.649  13.409
64875W        W37135  24.103  14.800  14.094
64876W        W37136   8.744  11.478  12.167
64877W        W37137  19.578  18.144  12.072
64878W        W37138  27.566  13.799  12.039
64879W        W37139  31.626   8.716   2.182
64880W        W37140  27.502   9.930  11.060
64881W        W37141  37.911  14.817  14.556
64882W        W37142  43.033  39.932   0.162
64883W        W37143  37.547  30.667  10.751
64884W        W37144  42.702   2.405  10.629
64885W        W37145  12.637   5.926  12.648
64886W        W37146  29.748  40.330  10.865
64887W        W37147  25.024  28.246   1.229
64888W        W37148   1.068   4.179  12.548
64889W        W37149  11.338  37.827   2.754
64890W        W37150  31.064   5.346  13.548
64891W        W37151  13.075  36.666  14.009
64892W        W37152  22.204  36.865  12.101
64893W        W37153  19.950  40.291   3.035
64894W        W37154   2.702  30.091  13.049
64895W        W37155  38.309  44.943   0.198
64896W        W37156  39.981  10.674   1.508
64897W        W37157  16.064   4.903   0.065
64898W        W37158   5.503  43.695  14.416
64899W        W37159   2.815  22.989  14.159
64900W        W37160   4.486   1.663   4.843
64901W        W37161   6.981  18.264   0.360
64902W        W37162   0.980   3.847   3.582
64903W        W37163  24.240  31.623   3.698
64904W        W37164   9.157  33.097  13.358
64905W        W37165   3.181  10.383  10.822
64906W        W37166  13.325  23.702  12.112
64907W        W37167  11.856   4.938   4.178
64908W        W37168  15.548  38.563   0.021
64909W        W37169  23.438  25.176   2.919
64910W        W37170  24.059   1.261  13.041
64911W        W37171  31.878   8.388   4.193
64912W        W37172   7.333  29.037  12.933
64913W        W37173  41.706  27.063  12.349
64914W        W37174  34.597  40.843  11.706
64915W        W37175  32.675   8.403   3.165
64916W        W37176  36.328   0.960   0.217
64917W        W37177   6.359  27.216  13.018
64918W        W37178   6.710   4.732   4.576
64919W        W37179  34.417  44.971   3.653
64920W        W37180  42.248  29.871   2.896
64921W        W37181   7.726  19.835   1.346
64922W        W37182  29.448  23.435   4.050
64923W        W37183  27.506  19.893  12.063
64924W        W37184  16.052  21.269   3.186
64925W        W37185  28.471  32.893  14.922
64926W        W37186  39.310  43.427   9.775
64927W        W37187  43.521  44.841   0.973
64928W        W37188  36.615   8.123   4.995
64929W        W37189  19.970  10.708   2.800
64930W        W37190  44.248  34.305  14.445
64931W        W37191  40.496  10.164   1.053
64932W        W37192  33.452  33.132   2.184
64933W        W37193  18.740  29.619   3.726
64934W        W37194  31.123   6.465   5.048
64935W        W37195   1.444  14.696  14.988
64936W        W37196   5.047   8.633   2.755
64937W        W37197  23.287  37.688   0.877
64938W        W37198  42.381  38.874  10.703
64939W        W37199  16.058   6.754   4.618
64940W        W37200   8.598  35.872   1.317
64941W        W37201  29.956  40.029  14.893
64942W        W37202  30.985  44.936   0.575
64943W        W37203  22.226  28.178   0.900
64944W        W37204  33.584  10.772  11.428
64945W        W37205   3.799  25.657  11.000
64946W        W37206  13.745  30.203   0.294
64947W        W37207  42.963  38.328  12.572
64948W        W37208   4.401  12.883   2.730
64949W        W37209  27.376  19.505   5.286
64950W        W37210   2.112  38.644  11.102
64951W        W37211  37.410   9.599  10.968
64952W        W37212  10.541  32.076   1.202
64953W        W37213  10.610  20.752  13.047
64954W        W37214  11.967  17.378   1.226
64955W        W37215  23.675   9.686  12.950
64956W        W37216  31.098  23.304  13.990
64957W        W37217  23.209  10.174   2.238
64958W        W37218  16.646   0.773  13.829
64959W        W37219   4.414  38.924   0.811
64960W        W37220  30.597  23.660  11.736
64961W        W37221   2.349  18.286  14.256
64962W        W37222   8.713  39.805   2.336
64963W        W37223  31.462   7.726  14.221
64964W        W37224   8.262   5.194  14.789
64965W        W37225   7.965  37.444   1.297
64966W        W37226  17.759  35.801   2.759
64967W        W37227  43.024  32.583   2.719
64968W        W37228   3.727  11.304  13.376
64969W        W37229  18.614  11.659   1.239
64970W        W37230   6.647   2.917   3.636
64971W        W37231  15.343  20.103   1.917
64972W        W37232  25.586  32.021  13.884
64973W        W37233  27.898   1.265  14.900
64974W        W37234  34.838  34.285  11.263
64975W        W37235  23.699  44.942  11.674
64976W        W37236  44.046  27.092   3.603
64977W        W37237   5.359  15.630  13.753
64978W        W37238   2.224  28.414   3.694
64979W        W37239   4.278   6.282   4.345
64980W        W37240  41.329   2.048   0.693
64981W        W37241  33.519  24.160  12.365
64982W        W37242   6.979  40.261   1.878
64983W        W37243   9.090  22.721   1.748
64984W        W37244  33.577  32.996   1.693
64985W        W37245  42.737  44.431   5.044
64986W        W37246  25.242   3.400  13.025
64987W        W37247   1.253  37.220  10.943
64988W        W37248  26.338  10.861  10.668
64989W        W37249  26.171  24.244  14.269
64990W        W37250   3.799  37.990  10.731
64991W        W37251  42.246  30.454  11.447
64992W        W37252  23.585  37.878   1.756
64993W        W37253  37.406   7.403  13.396
64994W        W37254  19.388   7.703   1.926
64995W        W37255  35.936  16.738   4.147
64996W        W37256  22.679  32.132  10.628
64997W        W37257  38.592  10.035   2.838
64998W        W37258  37.827   0.038  11.900
64999W        W37259  26.624  25.161   2.750
65000W        W37260  29.901  39.019   1.792
65001W        W37261  37.950  20.047  11.720
65002W        W37262  33.167  15.177  10.662
65003W        W37263   0.040   6.159  13.654
65004W        W37264   5.275  34.320   2.381
65005W        W37265  25.598  12.800  13.300
65006W        W37266  30.903  13.267  10.377
65007W        W37267   9.411  16.131  10.767
65008W        W37268  34.417   5.000  13.101
65009W        W37269  29.695  23.961   3.995
65010W        W37270   4.671  29.545   3.494
65011W        W37271  25.844  32.661  11.612
65012W        W37272  37.565   6.325   3.764
65013W        W37273  25.709  16.093   4.667
65014W        W37274   2.337  12.745   0.196
65015W        W37275  28.988  30.574   4.348
65016W        W37276  26.232  15.210  14.360
65017W        W37277  20.859  24.376  12.927
65018W        W37278  14.742  18.048  10.721
65019W        W37279  17.642  14.774  13.808
65020W        W37280  29.273  31.907  13.856
65021W        W37281  18.690   0.428   2.464
65022W        W37282  22.401  23.106   1.232
65023W        W37283  10.897  25.878   0.753
65024W        W37284  18.073  12.134  13.397
65025W        W37285  37.964  36.375  13.090
65026W        W37286  17.379   2.448  13.744
65027W        W37287  43.618  19.556  11.474
65028W        W37288  13.882  16.868  14.054
65029W        W37289   9.107  30.116  13.463
65030W        W37290  13.099   4.620  14.890
65031W        W37291  15.179  37.051  11.386
65032W        W37292   9.201  43.796   2.458
65033W        W37293   6.594   5.069  10.366
65034W        W37294  44.481  36.484  13.565
65035W        W37295  19.265  23.109   3.732
65036W        W37296  17.658  15.802   0.428
65037W        W37297  37.400   8.934  14.866
65038W        W37298  44.767   4.301  13.822
65039W        W37299  20.202  23.540   3.214
65040W        W37300  24.578  26.046  12.586
65041W        W37301  23.105  25.009   0.259
65042W        W37302  42.378  43.086  11.217
65043W        W37303  10.726  13.706  13.560
65044W        W37304  27.018   5.351  10.974
65045W        W37305   5.142  34.869  13.127
65046W        W37306  42.984  28.659   4.142
65047W        W37307  13.147   7.817   1.282
65048W        W37308  40.470  17.995   3.103
65049W        W37309   1.007  16.745  14.692
65050W        W37310   5.213  18.100  13.933
65051W        W37311   2.335   2.436  13.680
65052W        W37312  26.410   2.337   4.692
65053W        W37313   5.969  26.171   2.477
65054W        W37314  29.676  16.073  12.353
65055W        W37315  11.646  17.015   4.642
65056W        W37316  18.987  13.391   2.351
65057W        W37317   4.854   7.899  12.146
65058W        W37318   0.963  33.116   4.801
65059W        W37319  26.943   5.353   1.938
65060W        W37320  32.699  34.625  12.581
65061W        W37321  28.869  24.802  13.147
65062W        W37322  18.193  24.283   1.228
65063W        W37323  21.988  30.623  11.214
65064W        W37324   0.462  29.502  12.026
65065W        W37325  10.260  40.283   4.643
65066W        W37326   6.662  26.842  12.696
65067W        W37327  40.263  12.244   0.336
65068W        W37328  31.933   2.299   2.316
65069W        W37329  14.582  12.290  13.934
65070W        W37330  28.267  29.397  11.787
65071W        W37331  28.455  32.474   1.453
65072W        W37332  35.306  41.256   0.876
65073W        W37333   3.322   2.268   4.585
65074W        W37334  37.486   6.185   3.283
65075W        W37335   9.132  17.489  13.028
65076W        W37336  31.754  18.063   2.861
65077W        W37337  29.365  20.263  14.913
65078W        W37338  39.523  39.807   3.440
65079W        W37339   9.596  17.649  12.867
65080W        W37340  29.301  12.782  14.002
65081W        W37341  40.383  16.050  11.554
65082W        W37342  26.941  43.796   3.430
65083W        W37343  10.785  40.817  12.973
65084W        W37344  22.510  17.233   3.759
65085W        W37345  34.043   2.163   2.899
65086W        W37346  16.667  40.833   0.303
65087W        W37347  31.456  13.125  12.954
65088W        W37348  17.630  29.437   0.356
65089W        W37349  13.118  22.443  10.657
65090W        W37350  14.540  24.426  12.471
65091W        W37351  26.618  28.359  12.958
65092W        W37352  23.096  26.434   4.609
65093W        W37353  36.944  21.827   1.757
65094W        W37354  25.730  26.976   0.061
65095W        W37355  24.916  40.723  14.491
65096W        W37356  28.666   4.796  10.149
65097W        W37357   3.451   2.881  14.072
65098W        W37358  43.949  21.493  11.099
65099W        W37359  14.196  16.776   1.214
65100W        W37360  14.018   6.260   4.087
65101W        W37361  34.110  13.636   3.283
65102W        W37362   9.214   5.781   4.426
65103W        W37363  39.470  31.941   3.139
65104W        W37364  37.101  43.843   1.395
65105W        W37365  43.406  30.429   2.866
65106W        W37366  36.948  21.110   0.914
65107W        W37367  31.391  39.144  10.271
65108W        W37368  27.054  43.913  11.930
65109W        W37369  38.634  30.111  11.115
65110W        W37370   1.817  19.881  11.291
65111W        W37371   7.112  23.009  11.578
65112W        W37372  13.025  21.709  11.215
65113W        W37373  20.392  33.061  10.535
65114W        W37374   4.756  34.539   4.184
65115W        W37375  41.806  13.146   4.626
65116W        W37376  23.032   4.262   0.154
65117W        W37377   3.709  43.267  12.465
65118W        W37378   8.416  28.049  12.223
65119W        W37379  21.659  14.259   0.838
65120W        W37380  17.813  10.364  11.890
65121W        W37381  36.955  43.557   4.141
65122W        W37382  26.650  23.160  14.199
65123W        W37383  42.766  23.139  12.000
65124W        W37384  13.059  31.065   4.919
65125W        W37385  24.578  19.724  14.804
65126W        W37386  23.212  10.170   0.823
65127W        W37387   7.140  17.420  14.940
65128W        W37388  41.819  41.386   4.520
65129W        W37389  37.153  12.221  10.664
65130W        W37390  26.952  28.466  10.509
65131W        W37391  37.138  16.103   0.480
65132W        W37392  15.344  15.809  11.584
65133W        W37393   2.398  37.343   4.885
65134W        W37394  14.536  44.929   3.157
65135W        W37395   5.088  35.839  14.886
65136W        W37396  30.935   8.316  12.848
65137W        W37397  21.478  16.492  12.677
65138W        W37398  38.722  21.574  12.455
65139W        W37399  28.210   8.546  12.894
65140W        W37400  41.798  35.589  11.548
65141W        W37401   2.777  16.145  14.278
65142W        W37402  11.882  37.848   4.172
65143W        W37403  31.560  21.428   3.218
65144W        W37404   7.659   3.663  11.041
65145W        W37405   4.655  11.207   2.914
65146W        W37406  27.161  37.401   3.674
65147W        W37407  31.373  14.097  12.912
65148W        W37408   0.940  16.254  14.498
65149W        W37409   5.231   3.927  11.840
65150W        W37410   4.182  36.457   1.010
65151W        W37411  34.694  43.012  13.429
65152W        W37412  34.842  10.826  11.099
65153W        W37413  35.797  30.160   1.634
65154W        W37414  14.627   3.878   4.653
65155W        W37415  36.553  16.511  11.624
65156W        W37416   4.215  35.579   4.027
65157W        W37417  28.239   6.836   4.956
65158W        W37418   5.383  37.320  11.152
65159W        W37419  30.216   3.242   0.796
65160W        W37420  43.041  19.260  13.765
65161W        W37421  15.136  20.011  11.580
65162W        W37422  17.067   1.204  14.292
65163W        W37423  37.911  14.151   2.209
65164W        W37424  22.542  23.179  14.818
65165W        W37425  40.065   3.286   2.337
65166W        W37426  29.384  17.247   0.249
65167W        W37427   2.946  20.591  12.203
65168W        W37428   3.908  26.604  10.947
65169W        W37429  13.077  31.487  12.834
65170W        W37430  13.706  27.220  14.031
65171W        W37431  12.691  41.674  14.430
65172W        W37432  22.444  41.873   3.819
65173W        W37433  27.195  24.352  13.603
65174W        W37434  22.710  33.548  14.196
65175W        W37435  15.299  41.842  10.650
65176W        W37436   8.960  27.699   3.166
65177W        W37437  40.796  19.657  14.813
65178W        W37438  38.286  43.708  13.249
65179W        W37439   2.004  43.058  14.939
65180W        W37440  25.608  13.940   2.714
65181W        W37441  14.786  19.611   3.114
65182W        W37442   1.165  21.576  14.849
65183W        W37443  38.236   7.418   4.079
65184W        W37444  27.052  38.296   2.878
65185W        W37445  20.323  29.150  14.256
65186W        W37446  29.806  30.085  12.049
65187W        W37447  37.185  39.261   1.680
65188W        W37448  14.273   3.961  14.843
65189W        W37449   2.989   2.436   1.660
65190W        W37450  27.293  40.264   4.120
65191W        W37451  10.316   3.894  11.047
65192W        W37452  40.404   5.265  14.960
65193W        W37453  22.650  28.682   4.567
65194W        W37454   8.142  40.431  14.262
65195W        W37455  18.609  35.131  11.175
65196W        W37456  42.917   5.724  10.810
65197W        W37457   2.146  43.418  13.502
65198W        W37458  41.149  35.447  13.284
65199W        W37459   1.345  12.054   3.714
65200W        W37460  37.346  22.954  13.375
65201W        W37461  30.237   2.172   1.196
65202W        W37462   5.900  10.767   2.326
65203W        W37463  29.400  14.844  14.537
65204W        W37464  18.489  22.621   4.685
65205W        W37465  25.979  44.236   4.308
65206W        W37466  14.010  40.318   0.361
65207W        W37467  20.607   8.696  12.901
65208W        W37468  13.790   2.282  12.021
65209W        W37469   4.679  36.053  13.136
65210W        W37470  15.704   9.694   1.468
65211W        W37471  28.747  10.566   3.154
65212W        W37472  44.357   2.951  11.158
65213W        W37473  39.344  32.554  10.717
65214W        W37474  23.455  14.070  14.871
65215W        W37475  34.390  25.882  14.091
65216W        W37476   0.972  14.215   4.653
65217W        W37477   6.823  15.200   3.545
65218W        W37478   1.945  41.335   3.023
65219W        W37479   7.792  13.923   3.617
65220W        W37480  29.190  16.744  11.591
65221W        W37481  43.987  34.968   0.943
65222W        W37482  13.202  13.341   3.890
65223W        W37483   1.609  15.834   3.259
65224W        W37484  15.994   1.634   2.768
65225W        W37485  38.812  41.360   0.938
65226W        W37486  28.480  44.509  13.007
65227W        W37487   1.688  21.077   1.398
65228W        W37488  33.934   3.063  12.868
65229W        W37489  23.713  38.900  12.347
65230W        W37490   7.252   9.379   0.183
65231W        W37491   4.331   2.072   4.473
65232W        W37492   0.381  29.992   3.619
65233W        W37493  34.050   2.011  12.963
65234W        W37494  43.411  11.164  11.107
65235W        W37495  14.335  31.537  12.941
65236W        W37496  37.567   7.734  12.420
65237W        W37497  17.875  42.507   1.222
65238W        W37498   6.004  18.144   0.325
65239W        W37499  27.211  20.747   2.280
65240W        W37500  34.135  10.608  12.916
65241W        W37501  29.517  29.417   3.216
65242W        W37502  12.549  12.682  13.557
65243W        W37503   8.307  18.790   4.685
65244W        W37504   9.866  44.100   2.750
65245W        W37505  16.789  11.163  12.056
65246W        W37506  40.763  28.505  12.418
65247W        W37507  32.620   6.346  12.460
65248W        W37508  44.861  24.804  14.262
65249W        W37509  31.368  17.853  13.018
65250W        W37510  12.187  16.217   0.479
65251W        W37511  22.837  14.883  11.115
65252W        W37512   0.383  42.293  12.444
65253W        W37513   2.867  11.861  14.118
65254W        W37514  23.074  21.833   4.621
65255W        W37515  18.246  18.228   0.474
65256W        W37516  32.441  18.734  11.736
65257W        W37517   2.735  21.109  10.968
65258W        W37518  25.140  30.410  13.543
65259W        W37519  31.400   4.372  14.366
65260W        W37520  24.074   5.879   4.369
65261W        W37521   7.695  31.522   1.867
65262W        W37522  20.688  20.157  12.389
65263W        W37523   1.268  36.123   1.350
65264W        W37524  18.175  44.487  14.101
65265W        W37525  25.444  10.937  11.196
65266W        W37526  41.295  41.814  14.283
65267W        W37527  42.899   7.711   3.982
65268W        W37528   9.584  30.368   3.282
65269W        W37529   8.142  21.763  11.669
65270W        W37530   6.968   5.602  10.748
65271W        W37531   2.816  38.906   4.087
65272W        W37532  41.946  34.655   0.277
65273W        W37533  17.106   1.696  14.448
65274W        W37534  27.079  20.102   0.416
65275W        W37535  34.496  37.551   3.354
65276W        W37536  22.607  19.723   1.071
65277W        W37537  17.025   2.725  13.528
65278W        W37538   9.094  38.851  14.357
65279W        W37539   3.991  43.304   3.727
65280W        W37540   5.264   1.846  11.927
65281W        W37541  35.478   0.976  14.888
65282W        W37542  13.931  28.200  10.661
65283W        W37543  24.415  27.217   2.979
65284W        W37544  34.154  23.701   2.342
65285W        W37545   8.759  30.559   0.229
65286W        W37546  14.572  13.157   2.423
65287W        W37547  43.876   7.445   2.806
65288W        W37548  24.504  19.372  11.789
65289W        W37549  43.036  18.701   3.604
65290W        W37550  41.046  44.180   1.617
65291W        W37551   2.092  20.019   2.595
65292W        W37552  36.078   6.703  10.667
65293W        W37553  34.368  44.745  11.995
65294W        W37554  13.382  19.333   3.613
65295W        W37555  22.974   3.030  14.865
65296W        W37556  31.928  37.661   1.408
65297W        W37557  44.497  33.449  14.047
65298W        W37558   4.427  10.660   4.637
65299W        W37559   5.693  42.013   1.650
65300W        W37560  12.711  11.654  13.405
65301W        W37561  40.428  21.317   2.783
65302W        W37562  16.087  28.827   3.821
65303W        W37563  29.131  38.414  12.763
65304W        W37564  44.829  14.764   1.635
65305W        W37565  34.337  44.886  10.899
65306W        W37566  17.975  35.583   0.896
65307W        W37567  11.581   3.925   4.129
65308W        W37568   5.682  42.469   1.946
65309W        W37569  26.010  12.629  13.570
65310W        W37570   0.751  34.107  13.438
65311W        W37571  43.496  10.128  13.093
65312W        W37572   3.676  10.415   2.571
65313W        W37573  10.183  26.539   4.657
65314W        W37574  13.249  36.034  11.934
65315W        W37575   6.882  12.237   0.949
65316W        W37576   1.007  17.789  13.319
65317W        W37577  16.009  30.587  12.374
65318W        W37578  36.106  33.098   3.247
65319W        W37579  18.205  35.745  14.956
65320W        W37580  36.077  12.444   4.610
65321W        W37581  44.229  31.836   3.837
65322W        W37582  24.675  19.314  10.692
65323W        W37583  22.501  22.545  13.549
65324W        W37584  32.604  27.973  11.265
65325W        W37585   7.660  12.607   9.830
65326W        W37586  26.890   2.907  11.134
65327W        W37587  38.941  29.203   5.015
65328W        W37588  32.057  40.647  14.288
65329W        W37589   2.680  43.803   0.275
65330W        W37590  26.513  39.733  10.818
65331W        W37591  16.516  39.919   3.218
65332W        W37592  10.245  37.888   0.261
65333W        W37593   7.484   8.656  12.367
65334W        W37594  25.739  40.149  11.082
65335W        W37595   0.835  39.012  13.223
65336W        W37596  14.672  20.105  12.563
65337W        W37597  29.097  11.622   1.210
65338W        W37598  16.295  32.126   4.271
65339W        W37599  38.438  10.107  12.849
65340W        W37600  37.899  30.638  11.657
65341W        W37601  21.812  15.705  14.490
65342W        W37602  12.264  27.241   0.850
65343W        W37603  23.068  26.972  11.809
65344W        W37604   6.381  26.901   2.674
65345W        W37605  15.903  20.836   4.339
65346W        W37606  32.536  42.019  12.995
65347W        W37607  27.991  38.127  13.048
65348W        W37608  40.676   3.031  10.938
65349W        W37609  21.702  26.904  14.917
65350W        W37610  11.390  34.735  13.888
65351W        W37611  10.851  34.565  13.808
65352W        W37612  14.704  29.767   3.781
65353W        W37613  18.643  11.445  13.083
65354W        W37614  32.129  20.194  13.946
65355W        W37615  30.195  36.403   1.516
65356W        W37616  39.942  27.900  14.938
65357W        W37617  11.132  23.127  14.864
65358W        W37618  27.625   2.156   0.051
65359W        W37619  35.522  43.462  11.828
65360W        W37620  29.186   5.892  13.321
65361W        W37621  34.092  37.722   3.889
65362W        W37622  18.631  38.291   1.234
65363W        W37623  28.330  34.084   4.473
65364W        W37624  31.980  32.860   3.802
65365W        W37625   1.069  28.500  13.339
65366W        W37626  24.906   2.044   0.507
65367W        W37627  36.834  44.517   3.694
65368W        W37628  22.670  33.166   2.607
65369W        W37629   6.735  43.369   1.282
65370W        W37630   9.999  37.984  14.809
65371W        W37631  17.187  43.401  10.378
65372W        W37632  34.903   1.298  11.524
65373W        W37633  43.340  33.225  11.525
65374W        W37634  12.256  18.093   3.576
65375W        W37635  14.337  27.164   4.929
65376W        W37636  15.528  11.993   3.625
65377W        W37637   4.364  17.429  11.492
65378W        W37638  43.796  29.538   3.234
65379W        W37639   6.562   7.288  10.779
65380W        W37640  44.172  15.874  10.093
65381W        W37641   7.953  11.785  12.009
65382W        W37642  21.692   5.641   3.254
65383W        W37643  13.862  14.024  10.194
65384W        W37644  13.435  20.023  12.243
65385W        W37645  43.265  24.658   2.229
65386W        W37646  43.684  44.405   1.215
65387W        W37647  13.597  17.084   5.149
65388W        W37648   2.761  41.258   3.722
65389W        W37649  15.677  34.509   0.415
65390W        W37650  11.330  10.826   3.532
65391W        W37651  36.877   2.366   1.334
65392W        W37652  36.439  23.516   4.563
65393W        W37653  10.329  38.373  13.131
65394W        W37654  14.584   0.686  13.520
65395W        W37655  16.611  33.813   1.436
65396W        W37656  41.455  17.270   3.118
65397W        W37657  19.262  39.139   4.674
65398W        W37658  13.607   4.791  11.904
65399W        W37659  40.821   8.013  13.357
65400W        W37660  28.484  16.121  10.721
65401W        W37661  32.862  28.018   2.682
65402W        W37662   8.428   5.589   0.073
65403W        W37663  13.684  40.398   3.683
65404W        W37664  41.749  38.006   2.683
65405W        W37665   7.283  18.556  14.298
65406W        W37666  42.412  22.176   1.365
65407W        W37667  37.738  26.203   5.079
65408W        W37668   6.737  18.157  11.098
65409W        W37669  32.024  37.372  13.970
65410W        W37670  27.659  28.755  12.435
65411W        W37671  23.495  44.323  12.285
65412W        W37672  40.373  26.871   4.617
65413W        W37673  20.308  26.051  12.900
65414W        W37674   5.307  12.480  12.256
65415W        W37675  36.436  34.852  11.134
65416W        W37676  33.997  37.802  12.949
65417W        W37677  19.764  22.467  14.046
65418W        W37678  36.585  41.341   1.420
65419W        W37679   8.779  26.979   3.708
65420W        W37680  12.685  36.666   4.607
65421W        W37681   9.381   6.441   3.882
65422W        W37682  31.551  22.083  14.225
65423W        W37683  21.751  19.626  14.543
65424W        W37684  24.004  30.827   4.034
65425W        W37685  34.952  27.207   3.193
65426W        W37686  42.741  15.714  13.118
65427W        W37687  27.495   5.680  13.899
65428W        W37688  16.347  34.594  12.371
65429W        W37689  24.227   3.751   1.421
65430W        W37690  17.891  43.861  14.914
65431W        W37691  33.908  17.035   4.891
65432W        W37692  16.102   2.602  12.078
65433W        W37693   8.703  23.779  11.887
65434W        W37694  25.527   4.610  14.518
65435W        W37695   8.302  36.760  11.994
65436W        W37696  34.286  11.778   0.062
65437W        W37697  19.509  31.377   0.240
65438W        W37698  37.862   5.294   2.680
65439W        W37699   1.693  21.129   2.071
65440W        W37700   1.293  14.701   2.789
65441W        W37701  37.999  14.206  10.629
65442W        W37702  25.420  10.128   1.838
65443W        W37703  43.736  22.168  14.841
65444W        W37704  24.698  17.978  11.908
65445W        W37705  19.656  42.602   0.500
65446W        W37706  28.688  22.537   2.683
65447W        W37707  35.238  11.282   0.365
65448W        W37708  12.218  17.692   3.908
65449W        W37709   9.110  24.973  12.420
65450W        W37710  23.107  17.259  11.658
65451W        W37711  22.437  36.044   3.516
65452W        W37712  34.690  19.717   1.911
65453W        W37713  16.300   8.357  12.463
65454W        W37714  26.201  26.997  14.848
65455W        W37715  27.683   9.710  13.300
65456W        W37716  26.274  36.488  11.909
65457W        W37717  35.680   1.042  12.075
65458W        W37718  33.188  25.489  10.628
65459W        W37719  13.221  39.454  10.956
65460W        W37720  14.340   7.957  12.903
65461W        W37721  12.467  38.460   3.748
65462W        W37722  42.533  22.303   4.403
65463W        W37723  15.983  27.095   1.911
65464W        W37724  29.103  35.087   1.805
65465W        W37725  41.876   7.618   4.446
65466W        W37726   5.006  18.725  11.691
65467W        W37727  41.656  35.666  14.383
65468W        W37728  20.162   8.008   3.619
65469W        W37729   4.183  33.500   1.668
65470W        W37730  38.169  29.588   3.537
65471W        W37731   9.644  14.706  10.626
65472W        W37732  28.362  27.044   1.046
65473W        W37733  19.799  17.484   0.836
65474W        W37734  10.928  37.037  11.449
65475W        W37735  37.957  24.024  13.983
65476W        W37736  39.240   4.216   3.575
65477W        W37737  11.191  37.699   4.590
65478W        W37738  12.239  14.312   4.556
65479W        W37739  37.459  13.853  11.647
65480W        W37740   7.617  29.276  11.276
65481W        W37741  44.159  22.110   3.756
65482W        W37742   5.295  18.670   1.692
65483W        W37743   7.346  26.398  13.800
65484W        W37744  32.940  26.283  10.732
65485W        W37745  18.342  27.627  10.364
65486W        W37746  22.417  42.408   3.059
65487W        W37747  44.746  34.485  10.477
65488W        W37748  32.986  11.808  12.595
65489W        W37749  44.516   3.728   0.140
65490W        W37750  33.833  20.274   0.489
65491W        W37751  35.170  31.977  10.719
65492W        W37752  40.382  34.196   4.321
65493W        W37753   2.204  29.020  11.126
65494W        W37754  23.728  12.854  12.452
65495W        W37755  32.209   9.683  12.963
65496W        W37756  19.194  42.539  13.863
65497W        W37757  27.127  16.839  14.746
65498W        W37758  20.573  13.552  14.221
65499W        W37759  36.456  10.375   3.181
65500W        W37760  39.503  38.401   3.987
65501W        W37761  39.597  39.894   0.355
65502W        W37762  31.220  44.896   1.949
65503W        W37763  40.561  16.797  13.494
65504W        W37764  41.633  28.208   3.646
65505W        W37765   0.201  15.632  10.026
65506W        W37766   9.863  33.839  11.059
65507W        W37767  34.862  11.297  13.543
65508W        W37768  13.567  28.263  12.035
65509W        W37769  40.072  19.258   4.598
65510W        W37770  42.411  23.706  13.193
65511W        W37771  28.297  36.872  12.940
65512W        W37772  12.833  27.515   9.756
65513W        W37773  11.246  34.092   0.715
65514W        W37774  18.649  17.770   4.576
65515W        W37775   7.161   6.582   3.839
65516W        W37776  18.107   4.315  14.287
65517W        W37777  31.372  29.121  11.599
65518W        W37778  13.819  40.872   3.453
65519W        W37779  16.622  18.480   0.028
65520W        W37780  35.571  24.184   3.626
65521W        W37781  18.585  31.282   4.562
65522W        W37782  12.072  41.326  13.987
65523W        W37783  17.647  20.705   1.788
65524W        W37784   6.808   3.584   4.666
65525W        W37785  20.437  28.981  12.921
65526W        W37786  11.385   3.809   0.428
65527W        W37787  32.907  37.870   3.730
65528W        W37788  11.447  13.608   3.457
65529W        W37789  33.163  37.966   0.244
65530W        W37790  29.906  14.262   4.633
65531W        W37791  18.609  41.378   1.494
65532W        W37792  35.828  43.955  14.962
65533W        W37793  24.969  16.708   3.141
65534W        W37794   0.923   0.736  13.147
65535W        W37795   9.668  16.276  14.938
65536W        W37796   8.771  14.854  13.517
65537W        W37797  24.575  40.498  11.411
65538W        W37798  40.581  31.896  11.592
65539W        W37799  39.422  34.553   2.814
65540W        W37800   5.483  24.481   1.370
65541W        W37801   5.614  24.746  14.109
65542W        W37802   7.671  35.797   2.295
65543W        W37803  23.574  25.507  10.933
65544W        W37804  20.529  24.518   3.773
65545W        W37805  26.014  41.891   2.809
65546W        W37806  26.470  34.863   2.313
65547W        W37807   9.538  26.914  10.785
65548W        W37808  27.436   5.507  11.235
65549W        W37809  16.866  38.114   3.715
65550W        W37810  32.706  44.963   1.744
65551W        W37811   9.675  19.241  14.079
65552W        W37812  37.912   3.241  13.390
65553W        W37813  10.306  40.508   1.984
65554W        W37814   3.385  38.793  12.643
65555W        W37815  12.325  19.402   2.112
65556W        W37816  12.373  36.397   3.394
65557W        W37817   3.250  28.173   2.854
65558W        W37818  31.932  36.396   0.008
65559W        W37819   4.683   3.221  13.431
65560W        W37820  40.589  18.966  13.131
65561W        W37821   8.824  31.706   1.757
65562W        W37822  35.864   8.239   1.308
65563W        W37823  39.564  21.754  14.327
65564W        W37824  27.506  43.760   2.873
65565W        W37825  25.427  27.907  12.966
65566W        W37826  19.091   1.841  12.431
65567W        W37827  40.441  33.365  13.081
65568W        W37828  25.938  41.415  10.580
65569W        W37829  39.884  36.526   1.876
65570W        W37830  10.087  35.166  12.298
65571W        W37831  13.008  15.693   5.713
65572W        W37832  27.627   4.899  11.547
65573W        W37833   7.280  24.248  11.210
65574W        W37834  36.045  23.901   0.547
65575W        W37835   9.667   7.880   0.998
65576W        W37836  26.592  32.855   2.451
65577W        W37837  22.010   2.714   2.327
65578W        W37838  29.104  36.743   1.268
65579W        W37839  40.051  35.222   3.557
65580W        W37840  20.980  42.314  12.740
65581W        W37841  33.482   8.444  13.312
65582W        W37842  39.123  32.082  11.456
65583W        W37843  21.926   8.072   3.673
65584W        W37844  13.332   5.950  13.272
65585W        W37845  11.557   1.868  13.577
65586W        W37846  37.804  25.189  13.108
65587W        W37847  22.157  36.830  10.650
65588W        W37848  14.585  14.618   0.830
65589W        W37849  18.415   0.069   5.008
65590W        W37850   2.893  42.778  11.550
65591W        W37851   4.286  13.321   2.433
65592W        W37852  32.850  16.131   4.087
65593W        W37853  40.455  39.080  10.245
65594W        W37854   5.914  34.432  10.664
65595W        W37855   9.706  31.181  11.263
65596W        W37856  22.148  11.659  12.946
65597W        W37857  40.432   0.748   1.050
65598W        W37858  16.639  32.079   2.818
65599W        W37859   4.343   8.200   0.868
65600W        W37860  25.275  20.926  12.848
65601W        W37861  29.837  43.741   3.204
65602W        W37862   0.700  20.313   4.545
65603W        W37863   6.575  28.168  12.461
65604W        W37864   0.341   5.311  14.223
65605W        W37865  43.363  28.555   2.196
65606W        W37866  31.218  20.339   4.571
65607W        W37867   1.295   5.060   2.751
65608W        W37868  29.574  19.676  11.581
65609W        W37869  25.661  37.736  11.472
65610W        W37870  36.259   8.537   0.885
65611W        W37871  27.093  30.787  12.019
65612W        W37872  35.836  15.283   2.041
65613W        W37873   8.439  40.061   3.172
65614W        W37874  13.565   9.288  13.203
65615W        W37875  28.540   7.502  12.394
65616W        W37876  20.862   9.350  14.345
65617W        W37877   7.808  28.251   5.070
65618W        W37878  36.768   2.830  12.940
65619W        W37879   3.395  43.550   1.830
65620W        W37880  14.332  34.947  13.694
65621W        W37881  10.706  22.051  14.949
65622W        W37882   7.199  38.944   4.057
65623W        W37883  27.127  25.295  14.067
65624W        W37884  14.567  38.293   1.952
65625W        W37885   6.442  44.349   4.538
65626W        W37886  20.070  30.059   4.379
65627W        W37887  16.887   7.406  11.155
65628W        W37888   0.334  41.968   1.303
65629W        W37889  23.244  40.039   4.875
65630W        W37890  26.658  26.262  11.539
65631W        W37891  19.661   3.437  10.006
65632W        W37892  34.442  17.576  11.147
65633W        W37893  22.937   4.638   1.772
65634W        W37894  43.889  29.248   2.450
65635W        W37895  17.625   8.606  13.584
65636W        W37896  30.505  14.899  11.163
65637W        W37897  19.118  41.489   1.362
65638W        W37898  35.623   4.954  11.461
65639W        W37899  29.946  43.134  11.601
65640W        W37900  38.629   8.779  13.453
65641W        W37901  39.101   0.104   2.423
65642W        W37902  43.962  12.181  14.358
65643W        W37903  32.873  15.303  12.560
65644W        W37904  35.840  40.995  11.514
65645W        W37905   0.042  11.209  14.357
65646W        W37906  44.546  12.374   4.605
65647W        W37907  21.018   7.396  10.249
65648W        W37908   0.266  20.211   2.665
65649W        W37909  10.152  37.910  13.911
65650W        W37910  43.305   1.476   1.934
65651W        W37911  29.057  21.313   1.972
65652W        W37912  11.624  30.215   3.773
65653W        W37913  29.576   6.987  10.327
65654W        W37914   5.145   3.443  12.591
65655W        W37915  43.156  34.313   4.271
65656W        W37916  22.434  28.364   3.256
65657W        W37917  34.992   7.441  14.910
65658W        W37918  26.585  27.320   4.573
65659W        W37919  44.370  34.053  12.709
65660W        W37920   2.397  23.964   0.495
65661W        W37921  21.302   0.940  14.839
65662W        W37922  31.073  33.874   1.331
65663W        W37923   4.811   7.913   4.297
65664W        W37924  17.081  12.648  11.654
65665W        W37925  30.047   5.998  12.574
65666W        W37926  18.308  21.417  13.474
65667W        W37927  33.388   1.868  12.041
65668W        W37928  25.215  34.131  13.956
65669W        W37929  37.957   6.210   1.901
65670W        W37930  39.672  34.288  11.504
65671W        W37931  11.387  32.440  12.650
65672W        W37932  11.364   0.449  13.500
65673W        W37933  35.968  28.065  13.044
65674W        W37934   7.689  12.745  12.143
65675W        W37935  23.198  34.478  10.675
65676W        W37936  27.649  42.885   4.365
65677W        W37937  22.106  43.784   0.083
65678W        W37938  14.395  10.169   2.874
65679W        W37939  32.101  18.689  14.527
65680W        W37940  30.062  31.616   2.167
65681W        W37941  22.602  11.791  10.931
65682W        W37942  38.602  33.137   3.273
65683W        W37943  36.603   9.452   0.387
65684W        W37944  31.470   3.481  14.495
65685W        W37945  29.684  22.171  10.598
65686W        W37946   5.180   3.828  14.107
65687W        W37947  39.358  44.439   2.179
65688W        W37948   7.478  39.528   2.937
65689W        W37949  18.753  18.443  13.662
65690W        W37950  25.246  13.148  13.504
65691W        W37951  24.149  38.046   3.351
65692W        W37952  10.058  17.761  13.091
65693W        W37953  37.903  32.766  13.839
65694W        W37954  29.575  16.515   3.247
65695W        W37955  24.322  43.920  12.975
65696W        W37956   6.221   8.716  10.460
65697W        W37957  17.173  10.416  13.552
65698W        W37958  38.962   7.379  12.495
65699W        W37959   5.432  15.136   1.357
65700W        W37960  43.918  25.417  12.806
65701W        W37961  21.197  23.897   0.813
65702W        W37962   7.152   8.245   0.114
65703W        W37963  35.426  15.106   1.773
65704W        W37964  41.194  25.040  13.551
65705W        W37965   1.186  44.798  12.647
65706W        W37966  17.348  35.622  10.799
65707W        W37967  37.418  10.610  13.091
65708W        W37968  14.586  22.871  11.141
65709W        W37969  42.354   7.620  13.453
65710W        W37970  30.556  12.133  12.646
65711W        W37971  11.359   4.193  14.389
65712W        W37972   2.155  16.579   2.313
65713W        W37973  15.848   1.757  11.930
65714W        W37974  33.992   5.437   4.486
65715W        W37975   1.810  26.038   3.675
65716W        W37976  23.633  11.828   1.729
65717W        W37977   6.277  32.120   2.292
65718W        W37978  37.374  36.041  11.067
65719W        W37979  38.804  10.711  12.411
65720W        W37980  43.325  21.853  14.785
65721W        W37981  41.121   7.427  12.026
65722W        W37982   8.225  11.096  14.933
65723W        W37983   6.791   0.538  13.875
65724W        W37984  12.787  44.725  12.876
65725W        W37985   5.511  42.355   0.355
65726W        W37986  40.333  38.816  12.788
65727W        W37987  12.406  27.138  13.084
65728W        W37988  26.970  13.892  11.282
65729W        W37989  44.732  16.156  11.552
65730W        W37990   1.698  26.746   1.257
65731W        W37991  16.323   8.200  14.991
65732W        W37992   0.248  11.146   2.807
65733W        W37993  32.484  11.240  13.089
65734W        W37994  44.403  14.605   4.827
65735W        W37995  15.032  17.513   0.506
65736W        W37996  15.128  42.972   3.985
65737W        W37997   2.769   6.310  12.674
65738W        W37998   5.038   0.807  10.633
65739W        W37999  10.240  37.555  11.448
65740W        W38000  27.426   3.357   0.837
65741W        W38001  33.656   9.851  11.655
65742W        W38002   2.445  40.978   1.146
65743W        W38003   5.280  37.284  10.123
65744W        W38004  37.520  41.737   2.204
65745W        W38005  18.960  10.764   2.832
65746W        W38006   2.040  44.415  12.420
65747W        W38007  14.450  27.105   0.293
65748W        W38008  17.030  27.597   2.790
65749W        W38009  11.174  29.972   1.693
65750W        W38010   8.633  35.173   4.112
65751W        W38011   2.512  24.097  12.083
65752W        W38012  19.085   5.830   3.193
65753W        W38013  35.042   5.380  13.801
65754W        W38014   3.356   9.907  10.671
65755W        W38015  13.537  43.407  13.891
65756W        W38016  20.762   9.121  14.783
65757W        W38017  30.430  10.307   0.507
65758W        W38018  28.930  12.661   3.343
65759W        W38019  10.278   8.194   3.310
65760W        W38020  44.364  32.681  13.616
65761W        W38021  38.327   3.683  11.457
65762W        W38022  12.191   7.288  10.393
65763W        W38023  10.946   5.933   0.307
65764W        W38024  31.690   6.195  10.682
65765W        W38025  21.584  22.711   2.723
65766W        W38026  20.771   9.070   2.146
65767W        W38027  24.175  27.905   1.320
65768W        W38028  36.563  27.331  11.020
65769W        W38029  29.409  21.053   2.273
65770W        W38030  13.327  14.599  12.624
65771W        W38031  19.267  14.527  11.974
65772W        W38032  17.080  19.043  11.191
65773W        W38033  34.530  22.167  10.766
65774W        W38034  24.605  43.255   2.864
65775W        W38035  30.389  31.445   1.292
65776W        W38036   2.715  18.702   4.132
65777W        W38037  22.180  42.468   2.425
65778W        W38038  27.194  32.329  14.036
65779W        W38039  30.424  27.151   0.265
65780W        W38040  43.727  10.612  14.505
65781W        W38041  21.658   0.001   1.437
65782W        W38042  21.453  18.263  12.531
65783W        W38043  40.272   0.744   3.024
65784W        W38044  30.480  30.131  14.814
65785W        W38045   9.584  25.277  12.419
65786W        W38046  17.186  12.540  10.293
65787W        W38047  14.261  29.580  11.664
65788W        W38048  33.023  27.228   0.195
65789W        W38049  15.407  31.450   0.681
65790W        W38050  15.367  16.360  12.624
65791W        W38051  31.835  22.619   3.685
65792W        W38052  17.249  15.805   3.808
65793W        W38053   8.906  19.325   1.197
65794W        W38054  29.951  44.785   2.212
65795W        W38055  15.866  10.868  14.941
65796W        W38056  21.781  24.430  13.063
65797W        W38057  41.059   9.268   1.402
65798W        W38058  29.416  43.873   2.268
65799W        W38059  15.565  18.291   0.960
65800W        W38060  18.864  25.960  11.270
65801W        W38061  21.603  23.656   2.731
65802W        W38062  14.873  18.166  11.903
65803W        W38063  37.240  13.655   1.963
65804W        W38064   3.715   3.984   1.799
65805W        W38065  20.720  25.921   0.298
65806W        W38066  34.406   2.912  13.014
65807W        W38067  18.149  11.917   1.240
65808W        W38068   8.187  26.926  10.695
65809W        W38069  39.775  19.837   1.314
65810W        W38070   0.468  14.784  14.901
65811W        W38071   1.684  44.993  14.605
65812W        W38072  18.176  42.467  11.391
65813W        W38073  27.495  34.733  10.581
65814W        W38074  41.041  37.540  10.650
65815W        W38075  25.282  32.684  11.872
65816W        W38076  34.399  14.733  11.962
65817W        W38077   4.166  11.641  12.506
65818W        W38078   6.230  37.485   2.604
65819W        W38079  29.549   9.192   2.774
65820W        W38080   7.378  12.424   4.071
65821W        W38081  35.479  13.649  11.909
65822W        W38082  35.064  29.637   1.724
65823W        W38083  42.494   3.246   1.752
65824W        W38084  29.349  42.686  11.120
65825W        W38085  10.849  26.004  11.511
65826W        W38086   0.275  41.426  12.424
65827W        W38087  43.964   2.995   4.118
65828W        W38088  10.586   5.199   2.414
65829W        W38089  21.731  16.307   3.529
65830W        W38090   3.755   7.416  13.862
65831W        W38091  37.401   0.305  12.845
65832W        W38092  38.378  19.994   1.380
65833W        W38093  13.905  44.455  10.528
65834W        W38094  11.177  33.607  11.903
65835W        W38095  41.358  38.629   4.895
65836W        W38096   5.878  30.150  13.028
65837W        W38097  32.502  36.427  11.497
65838W        W38098  16.073  31.414  14.906
65839W        W38099  42.535   3.181   0.745
65840W        W38100   1.999  18.532  13.942
65841W        W38101   2.468  20.179   0.330
65842W        W38102  17.813  40.379   4.681
65843W        W38103   0.037  36.216   3.139
65844W        W38104  37.776   5.779   0.544
65845W        W38105  22.511  13.467  12.009
65846W        W38106  27.886  32.478   3.183
65847W        W38107  30.016  11.213  13.971
65848W        W38108  22.017  42.828  11.570
65849W        W38109  23.510  25.959   5.057
65850W        W38110  28.639  10.115  12.061
65851W        W38111  19.258  35.936  14.871
65852W        W38112  11.605  28.982  11.261
65853W        W38113   7.460  35.495  14.924
65854W        W38114  28.035  43.855  12.948
65855W        W38115  41.988   3.790  10.903
65856W        W38116  30.432   9.213   3.384
65857W        W38117  14.668  21.452   0.267
65858W        W38118  20.712  12.849   0.924
65859W        W38119  26.026  11.896  12.871
65860W        W38120  29.806   7.892   2.307
65861W        W38121  10.688  28.513   2.570
65862W        W38122   8.738  38.782  13.948
65863W        W38123  32.299   0.014  14.947
65864W        W38124  44.692  19.169   2.219
65865W        W38125  29.956  15.242   4.298
65866W        W38126  18.697  14.205  12.529
65867W        W38127  18.212  27.991  14.506
65868W        W38128   9.861  10.551  13.526
65869W        W38129   8.250  35.650   4.193
65870W        W38130  25.542  24.179   4.870
65871W        W38131  14.499   6.898  14.446
65872W        W38132  10.411  32.135  14.944
65873W        W38133  30.910  33.607  12.086
65874W        W38134   7.933   9.786   4.587
65875W        W38135  33.944   1.184   3.154
65876W        W38136  38.218  31.966   2.698
65877W        W38137   3.476   0.708   3.945
65878W        W38138  30.691  37.101   3.088
65879W        W38139  17.889  12.141  12.463
65880W        W38140  15.932  24.685  12.539
65881W        W38141  10.312  30.894   4.119
65882W        W38142   2.328  12.492  14.368
65883W        W38143  32.372  41.840  14.764
65884W        W38144  12.329  43.914   3.658
65885W        W38145  11.844  39.978  10.755
65886W        W38146  24.550  18.646  12.473
65887W        W38147  14.788  28.668   0.809
65888W        W38148  25.134  44.685   1.862
65889W        W38149   5.752  42.795   4.379
65890W        W38150  13.171  38.341  10.607
65891W        W38151  18.670  11.579  10.783
65892W        W38152  18.698  12.435   0.166
65893W        W38153  42.864  11.712   0.360
65894W        W38154  17.687  31.007  11.663
65895W        W38155  29.911  31.090   1.433
65896W        W38156   9.126   5.777  13.645
65897W        W38157  33.704  13.452  12.448
65898W        W38158  37.085   8.183   0.909
65899W        W38159  40.773   8.816  12.901
65900W        W38160  25.031  21.230   0.427
65901W        W38161  28.962  22.599  11.023
65902W        W38162  20.632  11.464  11.216
65903W        W38163  36.508  19.850   2.875
65904W        W38164  38.717   7.140  12.889
65905W        W38165  30.061  37.862  11.614
65906W        W38166  12.237  34.616   4.610
65907W        W38167  18.789  21.705   4.088
65908W        W38168  11.066  17.841  13.940
65909W        W38169  24.493   3.787  13.516
65910W        W38170  42.596   9.378  14.860
65911W        W38171  14.586   4.009  13.881
65912W        W38172  11.591  24.130   2.146
65913W        W38173   3.386  16.622  12.921
65914W        W38174  33.682  42.553   0.695
65915W        W38175  38.637  43.943   2.705
65916W        W38176  39.880   4.192   0.469
65917W        W38177  32.427  40.429  11.499
65918W        W38178   3.082  22.433   3.694
65919W        W38179  25.500  36.653   1.957
65920W        W38180  14.244   5.965  13.484
65921W        W38181   3.849  22.952  11.573
65922W        W38182  23.285  28.669   5.196
65923W        W38183  22.816  36.818   0.941
65924W        W38184  23.612   3.247   3.160
65925W        W38185  31.181  13.368   2.427
65926W        W38186  22.620  12.047  10.090
65927W        W38187  18.230  10.282   1.896
65928W        W38188  16.650  40.696  10.635
65929W        W38189  11.734  15.020   4.661
65930W        W38190  11.268  10.038   0.234
65931W        W38191   7.103   3.197  13.761
65932W        W38192  23.736  31.052   0.984
65933W        W38193  37.974  23.174   4.619
65934W        W38194  31.408  24.623  11.984
65935W        W38195   7.260  20.058   4.197
65936W        W38196  30.955  20.305   3.714
65937W        W38197  29.074  10.150  11.561
65938W        W38198  30.934  35.385  11.166
65939W        W38199  38.998  13.058   1.933
65940W        W38200  13.245  26.095   1.494
65941W        W38201  17.449   8.360   1.319
65942W        W38202  16.440  40.455  13.388
65943W        W38203  28.532  21.902  14.952
65944W        W38204  42.667  30.642  11.229
65945W        W38205   4.881  19.833  13.331
65946W        W38206  19.435   3.262  13.965
65947W        W38207  26.955  12.549  14.531
65948W        W38208   8.321  13.871   1.193
65949W        W38209  35.079   8.727  13.361
65950W        W38210  14.575  29.494   1.896
65951W        W38211   5.205   2.931  13.291
65952W        W38212  25.932  34.338  12.935
65953W        W38213   4.834   9.301  13.821
65954W        W38214  43.483  28.205   0.396
65955W        W38215  11.332  33.601   0.447
65956W        W38216   7.767  24.392  11.036
65957W        W38217  38.753  16.245   2.330
65958W        W38218  15.251   0.746   4.609
65959W        W38219  13.649  13.117  14.390
65960W        W38220  28.234   4.944  13.862
65961W        W38221   4.116  25.626   2.676
65962W        W38222   7.700  31.134   0.810
65963W        W38223  36.044  21.624   1.277
65964W        W38224   7.134  26.459   3.398
65965W        W38225  23.306  16.854   1.518
65966W        W38226   9.278  24.538  14.997
65967W        W38227  14.773  32.538  14.701
65968W        W38228  42.998  10.016  12.536
65969W        W38229   7.484  17.169   1.429
65970W        W38230   9.290  25.349   3.140
65971W        W38231  24.108  30.270  11.411
65972W        W38232  19.328  23.503  12.650
65973W        W38233  16.396  30.621   4.950
65974W        W38234  30.208   2.982  13.465
65975W        W38235   6.458  19.654  14.988
65976W        W38236  28.663  12.300  11.537
65977W        W38237  38.522  23.239  13.757
65978W        W38238   4.159  25.067  14.933
65979W        W38239  25.321   6.247  11.562
65980W        W38240  21.176  44.715   2.702
65981W        W38241  22.432  11.755  12.326
65982W        W38242  44.723  39.395   1.734
65983W        W38243   8.576  43.329   3.215
65984W        W38244  26.300  20.803   2.641
65985W        W38245  10.946  22.996  14.392
65986W        W38246   9.749  16.060   0.411
65987W        W38247  15.066  16.790  13.026
65988W        W38248  28.831   8.807  11.506
65989W        W38249   4.355  35.730   1.728
65990W        W38250   0.492  43.433   0.356
65991W        W38251  20.086  27.754   0.752
65992W        W38252  34.282   0.568   0.906
65993W        W38253  42.747  18.445  13.196
65994W        W38254   3.287  10.648  12.374
65995W        W38255  31.239  25.525   2.825
65996W        W38256  43.920  23.681   4.845
65997W        W38257   3.432   4.459  14.913
65998W        W38258   0.519  36.041   4.988
65999W        W38259  31.403  41.438  14.338
66000W        W38260  19.290  14.248   0.636
66001W        W38261  37.900  17.166  13.169
66002W        W38262  24.262  28.550  10.680
66003W        W38263   8.625  44.948   3.652
66004W        W38264  11.833  24.729  13.186
66005W        W38265   0.748  39.484  14.535
66006W        W38266   1.184  26.610  14.407
66007W        W38267  42.346   8.856   4.301
66008W        W38268  11.295  37.019  13.500
66009W        W38269  13.177  22.780   0.921
66010W        W38270  22.905  40.031  14.990
66011W        W38271  14.553  32.893  14.390
66012W        W38272  13.586   8.674  11.366
66013W        W38273  32.376  23.962  13.971
66014W        W38274  44.593  25.278  11.041
66015W        W38275  42.547  31.985   0.289
66016W        W38276   3.840  24.258  13.849
66017W        W38277  16.594   8.460  12.879
66018W        W38278  39.868  14.660  12.419
66019W        W38279  22.487  35.653   1.979
66020W        W38280  12.769  32.893  13.446
66021W        W38281  41.026  37.931  13.950
66022W        W38282  28.183  39.062  10.569
66023W        W38283  14.775  43.296  13.911
66024W        W38284  35.521  37.831   2.914
66025W        W38285  19.675  15.627   2.307
66026W        W38286  27.033  27.146   1.322
66027W        W38287  42.886   1.449  12.156
66028W        W38288  43.806   9.101   0.687
66029W        W38289  10.067  44.281  12.861
66030W        W38290  17.734  31.229  11.057
66031W        W38291  25.230  29.641   3.636
66032W        W38292  23.194  35.974   1.424
66033W        W38293   8.366  35.639  13.039
66034W        W38294   5.899  24.106  12.806
66035W        W38295  18.736   3.983   1.820
66036W        W38296  33.839   2.183   4.762
66037W        W38297  33.871  27.659   0.174
66038W        W38298  43.336  38.922   4.547
66039W        W38299  23.470  10.457   1.190
66040W        W38300  24.118  35.894   3.292
66041W        W38301  28.333  30.634  13.848
66042W        W38302  19.710  20.295  12.485
66043W        W38303  21.090  41.422  14.048
66044W        W38304  28.869  14.693  10.457
66045W        W38305  19.164  31.383  12.430
66046W        W38306  10.107  38.030   3.299
66047W        W38307  23.986   6.893   0.380
66048W        W38308  38.814  38.866   2.903
66049W        W38309   7.671  11.060  12.868
66050W        W38310   0.742  40.962   4.791
66051W        W38311  39.769  22.078  11.693
66052W        W38312  17.284  10.723  11.362
66053W        W38313  35.151   5.727  14.797
66054W        W38314  43.535  31.910  11.187
66055W        W38315  36.028  44.803  14.406
66056W        W38316  42.343   4.623   0.775
66057W        W38317  22.180   7.416   4.180
66058W        W38318  44.942  15.292  11.419
66059W        W38319   6.477   6.823   2.579
66060W        W38320  40.535  34.038   2.330
66061W        W38321  35.046  16.060  12.410
66062W        W38322  44.015   7.167   3.242
66063W        W38323  40.620  18.755  11.051
66064W        W38324  38.233  40.267   0.436
66065W        W38325  15.784   0.526  12.617
66066W        W38326   1.212   0.568   3.276
66067W        W38327   4.367  26.484   5.450
66068W        W38328   7.674   5.335  12.687
66069W        W38329   3.331  11.758  10.760
66070W        W38330  16.608  23.272  13.090
66071W        W38331  13.971  30.956   5.397
66072W        W38332  11.796   3.018  13.395
66073W        W38333  20.679   8.337   0.845
66074W        W38334  26.337  41.796  14.310
66075W        W38335  41.584  26.881  11.070
66076W        W38336  16.217  43.873  10.617
66077W        W38337  32.733  31.206  13.321
66078W        W38338  31.286  39.735   1.702
66079W        W38339  15.953   2.420   4.229
66080W        W38340  23.484   6.350  12.961
66081W        W38341  31.871  43.961   0.503
66082W        W38342  23.114  43.971   2.713
66083W        W38343   4.738  21.961   1.347
66084W        W38344  23.615  39.475   4.900
66085W        W38345  11.287  38.406   1.226
66086W        W38346  25.712  14.218   0.282
66087W        W38347  15.118  32.155  11.051
66088W        W38348  16.788  36.319  10.662
66089W        W38349  44.475  35.553   4.328
66090W        W38350  28.098   6.739  13.614
66091W        W38351  44.042   0.806  12.867
66092W        W38352  43.370   5.372  11.125
66093W        W38353  33.620  26.129   3.438
66094W        W38354   2.844  35.881  13.425
66095W        W38355  25.435  38.366   1.119
66096W        W38356   9.047  44.287  11.565
66097W        W38357  31.365   7.063  11.226
66098W        W38358  17.674   9.392   2.656
66099W        W38359  37.401  17.996   2.585
66100W        W38360  16.452   7.185  10.738
66101W        W38361  34.404  36.928  14.612
66102W        W38362   4.146  19.945  12.938
66103W        W38363  24.078  34.637  14.912
66104W        W38364  11.353   1.074   3.950
66105W        W38365  11.357  26.919   1.865
66106W        W38366  13.145  26.581  14.744
66107W        W38367   7.640  14.824  10.736
66108W        W38368  44.759  36.096   1.894
66109W        W38369   7.471  40.870   3.577
66110W        W38370  39.872  17.801   1.864
66111W        W38371  38.500  10.313  13.490
66112W        W38372  23.601  40.484  11.710
66113W        W38373  40.551   5.772  12.486
66114W        W38374  19.567  34.106  14.414
66115W        W38375  29.538   9.141   4.546
66116W        W38376   1.646  10.230   4.483
66117W        W38377  29.592  25.594   0.425
66118W        W38378  11.388  40.679   0.230
66119W        W38379  36.805  31.321  13.451
66120W        W38380  44.757   0.439   3.200
66121W        W38381  14.319  35.222   3.148
66122W        W38382   4.784  23.798   0.299
66123W        W38383  26.630  11.191   0.564
66124W        W38384   3.863  35.099  14.428
66125W        W38385   1.956   1.145   2.795
66126W        W38386   1.081  15.825   3.248
66127W        W38387  26.890  19.234   0.708
66128W        W38388  15.744  13.208  14.023
66129W        W38389  15.287  30.562  10.124
66130W        W38390  12.587  26.765  10.203
66131W        W38391  26.199  33.129   2.656
66132W        W38392   1.755  25.289   0.471
66133W        W38393   9.926  24.201   0.406
66134W        W38394  36.735  41.296  14.556
66135W        W38395  16.496  36.865  11.258
66136W        W38396  30.904  14.872  12.990
66137W        W38397  22.169  40.251  14.350
66138W        W38398  25.762  26.109   3.399
66139W        W38399  11.693  31.915  10.017
66140W        W38400  18.660  39.839  14.734
66141W        W38401  20.150  44.211  11.457
66142W        W38402  25.926   1.448  14.885
66143W        W38403  30.969  23.478   0.346
66144W        W38404   2.433  33.923   3.232
66145W        W38405  42.862  16.214   1.886
66146W        W38406  25.733  29.228  11.582
66147W        W38407   3.718  39.916  14.694
66148W        W38408  12.629   8.127  11.161
66149W        W38409  12.350  39.988   3.144
66150W        W38410  17.771  43.972  14.438
66151W        W38411  13.525  38.507   4.568
66152W        W38412  16.749   3.692   2.294
66153W        W38413  14.046  43.218   1.363
66154W        W38414  12.645  13.069  11.180
66155W        W38415  33.795  41.227   0.880
66156W        W38416   8.391  25.574  11.067
66157W        W38417  28.019  16.740   1.844
66158W        W38418   2.676  34.845   2.701
66159W        W38419  19.113  36.493  10.587
66160W        W38420  34.700  36.417  11.917
66161W        W38421  34.770   9.184   1.284
66162W        W38422  25.570  25.290   3.613
66163W        W38423  44.231  28.733   3.214
66164W        W38424   2.032   6.710   1.154
66165W        W38425   0.310   9.121   2.771
66166W        W38426  10.591  29.687  13.654
66167W        W38427   7.388  25.864   5.001
66168W        W38428  18.969   3.337   3.837
66169W        W38429  25.239  16.616  10.862
66170W        W38430  12.611  35.528  11.557
66171W        W38431  23.256  40.612  10.938
66172W        W38432   8.848  36.415  13.095
66173W        W38433  17.295  42.346   4.096
66174W        W38434  27.515   0.023  10.392
66175W        W38435   0.889  37.147  14.370
66176W        W38436  28.845  35.417  11.911
66177W        W38437   0.857  35.418  10.153
66178W        W38438   8.588  19.101  13.389
66179W        W38439  41.751   4.635   0.212
66180W        W38440   9.772  41.731  11.953
66181W        W38441   8.925  34.945  10.990
66182W        W38442  14.380  25.106  10.724
66183W        W38443  43.462  17.361  11.881
66184W        W38444  19.308   9.245  14.783
66185W        W38445  34.462  14.732  12.935
66186W        W38446   9.672  39.350  14.513
66187W        W38447   9.662   7.315   4.095
66188W        W38448  13.377  39.074  11.742
66189W        W38449  23.704  37.508   4.552
66190W        W38450  20.672  11.750   0.417
66191W        W38451   9.870  18.746   5.024
66192W        W38452  29.764  14.809   0.433
66193W        W38453  35.562  17.215   0.330
66194W        W38454  29.598   4.468  11.062
66195W        W38455  15.373  41.907   2.751
66196W        W38456  17.283  38.330  13.149
66197W        W38457  27.952  12.136  11.101
66198W        W38458  28.233  21.030  12.664
66199W        W38459  41.016   0.811   3.295
66200W        W38460  42.948  42.720   4.233
66201W        W38461  23.465  21.487  11.173
66202W        W38462  26.496  40.242  10.628
66203W        W38463   3.837  10.967   4.312
66204W        W38464  38.638   9.260  14.329
66205W        W38465  24.630  22.694   0.671
66206W        W38466  30.851  22.604  10.694
66207W        W38467  38.744  31.082   4.108
66208W        W38468  34.631   1.987  13.613
66209W        W38469  36.989   3.850   0.841
66210W        W38470  28.710   2.935  11.291
66211W        W38471  10.247   1.018   4.909
66212W        W38472  36.447   6.483  13.872
66213W        W38473  44.215  18.931   2.208
66214W        W38474  33.544   1.376  10.672
66215W        W38475  21.123  40.095   0.287
66216W        W38476   4.851  17.578   4.068
66217W        W38477  28.934  12.219  11.098
66218W        W38478  23.266  40.830  11.874
66219W        W38479  13.234   3.237  12.715
66220W        W38480  36.492  30.637   1.328
66221W        W38481   4.624  32.974  11.228
66222W        W38482   4.986  17.459  11.491
66223W        W38483  42.133  14.561   3.182
66224W        W38484  44.498  25.134   4.023
66225W        W38485  40.961  29.975  12.156
66226W        W38486   4.025   5.424  13.435
66227W        W38487  40.514  29.415   5.098
66228W        W38488  12.822  44.505  12.067
66229W        W38489  11.682  36.051  13.282
66230W        W38490  24.959  25.280   2.336
66231W        W38491  30.349  16.605   1.963
66232W        W38492  29.943  34.577   3.787
66233W        W38493  10.759   5.960   3.847
66234W        W38494  15.092  19.716   3.541
66235W        W38495   0.368  17.843   4.031
66236W        W38496  25.955  42.310  13.975
66237W        W38497  42.548  38.001   3.669
66238W        W38498   9.654  42.473   0.761
66239W        W38499  34.545  28.537  10.724
66240W        W38500  23.659  39.371   4.390
66241W        W38501  31.181   6.268  12.031
66242W        W38502  27.979  12.663  14.439
66243W        W38503  29.596  39.369   2.894
66244W        W38504  18.222  21.557   3.662
66245W        W38505  38.045   9.321   3.375
66246W        W38506  21.639  26.490  13.069
66247W        W38507  44.042   1.484   1.382
66248W        W38508  13.341   2.715  12.548
66249W        W38509  25.555  27.933   0.002
66250W        W38510  23.204  33.823   1.258
66251W        W38511  11.800  27.264  11.793
66252W        W38512  38.023   4.935  13.931
66253W        W38513   0.673  38.989   0.841
66254W        W38514  10.077  10.750   2.693
66255W        W38515   9.421   9.626  12.676
66256W        W38516  22.065  23.837  11.006
66257W        W38517  44.301  35.381   0.258
66258W        W38518  27.051  43.309  10.449
66259W        W38519  29.481  34.545  12.942
66260W        W38520  24.717  10.101  12.036
66261W        W38521  35.507  18.078  11.539
66262W        W38522  16.474  20.557  14.493
66263W        W38523   0.284   1.159  13.840
66264W        W38524  14.034   3.345   0.746
66265W        W38525  22.928   4.195  11.920
66266W        W38526  16.349   5.224  13.190
66267W        W38527  29.451  24.643  11.533
66268W        W38528   5.859  23.263   3.188
66269W        W38529  42.180  24.278  14.558
66270W        W38530  13.700  17.111  13.550
66271W        W38531  43.668  26.828   5.194
66272W        W38532   1.361   7.805  12.553
66273W        W38533   4.576  33.431  14.960
66274W        W38534  26.749   9.396  12.018
66275W        W38535  23.781   5.778   3.970
66276W        W38536  25.808  40.317  14.631
66277W        W38537  13.431  25.735   0.746
66278W        W38538   1.454  42.018   2.400
66279W        W38539   8.211  34.749   4.179
66280W        W38540   8.162   0.251   4.583
66281W        W38541  19.147  32.370  13.547
66282W        W38542  39.883   8.145   4.162
66283W        W38543  11.579  28.423   5.170
66284W        W38544  11.228  35.630   0.486
66285W        W38545  12.647  39.462  13.830
66286W        W38546   7.220  34.276  13.551
66287W        W38547  38.965  16.584  11.031
66288W        W38548  29.534   2.284  10.687
66289W        W38549  40.989  43.810  12.075
66290W        W38550  14.784  19.733  14.843
66291W        W38551  20.298  11.255   3.757
66292W        W38552   1.397  21.289  13.425
66293W        W38553  35.132  14.036  11.914
66294W        W38554  44.741  26.352   2.876
66295W        W38555   6.432  40.859  11.506
66296W        W38556  16.739  33.626  12.358
66297W        W38557  36.367  32.859   2.792
66298W        W38558  43.533  22.582  11.735
66299W        W38559  38.996  31.513  12.068
66300W        W38560   0.412  36.087  10.494
66301W        W38561   0.378  24.084  10.502
66302W        W38562  22.625  27.535   0.869
66303W        W38563  38.032  34.164  14.558
66304W        W38564  32.931  18.823   3.172
66305W        W38565  43.349  37.029  12.398
66306W        W38566  42.987  28.159  10.610
66307W        W38567   7.319  18.220   0.726
66308W        W38568   6.913  16.707   0.794
66309W        W38569  24.585   0.642   2.373
66310W        W38570  23.524  14.042  11.103
66311W        W38571  13.623  30.204   1.373
66312W        W38572   3.446   3.096   3.927
66313W        W38573   1.012  38.324   2.288
66314W        W38574  41.814  21.671   4.611
66315W        W38575   5.440  17.694  12.469
66316W        W38576  16.233   4.846  10.368
66317W        W38577  18.017   7.584  12.846
66318W        W38578   6.900  42.299  11.405
66319W        W38579  32.459  10.554   1.873
66320W        W38580  22.593   0.903   0.558
66321W        W38581  33.761  19.177  11.803
66322W        W38582  30.603  36.542  13.111
66323W        W38583  21.217  25.701   2.762
66324W        W38584  42.347  24.812  13.971
66325W        W38585  23.674  28.834   3.646
66326W        W38586   1.331  38.214  11.091
66327W        W38587  35.673  18.235   3.188
66328W        W38588  36.384  30.597  12.542
66329W        W38589  22.164   1.938   1.930
66330W        W38590  27.014  13.830  14.895
66331W        W38591   5.612  33.520   1.267
66332W        W38592  22.080  38.220  13.602
66333W        W38593  36.593  25.114  14.342
66334W        W38594  29.115  29.537  12.635
66335W        W38595  13.286  17.786  14.473
66336W        W38596   2.282   8.901  11.514
66337W        W38597   6.727  17.111  14.879
66338W        W38598  32.895  13.345   2.961
66339W        W38599   8.306  34.346   2.463
66340W        W38600  13.548   7.354  14.311
66341W        W38601  39.840  16.006   3.243
66342W        W38602  22.015  24.751  13.388
66343W        W38603  17.766  44.966  13.324
66344W        W38604  40.549   5.274   1.406
66345W        W38605  12.118  19.947  13.975
66346W        W38606  43.367  26.096   1.187
66347W        W38607  25.329   2.504  13.627
66348W        W38608   1.793  36.521   4.848
66349W        W38609  34.629  18.504  11.207
66350W        W38610   8.729   1.781   4.424
66351W        W38611   8.414   1.740  11.288
66352W        W38612  21.490  37.451   4.749
66353W        W38613  17.131   0.394   3.451
66354W        W38614   6.948  27.271  12.332
66355W        W38615   8.818  30.452  11.991
66356W        W38616  20.138  24.250   4.638
66357W        W38617   1.863  38.925   3.283
66358W        W38618  33.342   6.235  14.945
66359W        W38619  32.383  17.041   3.073
66360W        W38620  17.216   4.236   4.484
66361W        W38621   8.739  29.434   1.055
66362W        W38622  24.018  16.192  12.544
66363W        W38623  25.563   2.441   4.053
66364W        W38624   8.750  36.684   1.749
66365W        W38625  25.621  31.062  12.584
66366W        W38626  44.819  13.768   4.832
66367W        W38627   5.900   5.174  12.371
66368W        W38628  26.656   6.716   1.923
66369W        W38629  12.667  29.363   4.200
66370W        W38630  17.693  18.801   4.865
66371W        W38631  13.527  11.929   0.847
66372W        W38632  34.827  18.630  10.336
66373W        W38633  23.119   4.997  12.988
66374W        W38634  26.357   0.156   5.187
66375W        W38635  29.744  20.913  12.011
66376W        W38636  15.317  23.018  14.575
66377W        W38637  43.560  24.646   1.210
66378W        W38638  23.484  23.060  12.983
66379W        W38639  17.252  43.771  11.202
66380W        W38640  10.700   3.982  10.657
66381W        W38641  22.026  28.581   2.371
66382W        W38642   4.886  44.416  14.372
66383W        W38643   2.725   1.448   2.130
66384W        W38644  42.834   8.929  11.950
66385W        W38645  44.309  19.356   3.142
66386W        W38646  37.079  25.129  12.510
66387W        W38647  32.606  18.195   0.355
66388W        W38648  18.675   8.225   1.808
66389W        W38649  11.244  16.147   0.028
66390W        W38650  19.873  18.568  12.026
66391W        W38651   8.771  11.201   2.906
66392W        W38652  29.951  38.484  10.541
66393W        W38653   1.097  21.534  12.922
66394W        W38654  12.916  11.653  12.069
66395W        W38655  36.468  20.508  14.355
66396W        W38656  23.961   6.343  14.329
66397W        W38657  16.168  43.300   1.849
66398W        W38658  34.102  41.202   1.391
66399W        W38659  30.127  35.425   4.381
66400W        W38660  19.790  41.163  14.441
66401W        W38661  39.921   1.879  11.891
66402W        W38662  18.809   5.545   1.633
66403W        W38663   2.725  25.967  13.073
66404W        W38664  35.989  17.662   3.116
66405W        W38665  31.610  18.414   1.659
66406W        W38666  37.389   3.467   3.560
66407W        W38667   8.603  12.654  13.082
66408W        W38668  17.260  22.444  12.515
66409W        W38669  36.786   6.489  14.683
66410W        W38670  16.391  31.591   0.733
66411W        W38671  34.096  36.777  11.611
66412W        W38672  32.389   6.067  12.837
66413W        W38673  35.783  10.902   2.236
66414W        W38674  17.636  15.850   2.320
66415W        W38675  11.907  13.716   3.747
66416W        W38676  41.032  43.364   0.936
66417W        W38677  13.402  27.496  10.594
66418W        W38678   1.825  18.089   2.192
66419W        W38679  15.080  21.942  11.405
66420W        W38680  42.299  29.443  10.945
66421W        W38681   6.307  30.958  13.845
66422W        W38682  20.253  36.896  11.192
66423W        W38683   0.580  34.778  11.503
66424W        W38684  19.507  32.443  13.957
66425W        W38685  21.236  40.116   1.692
66426W        W38686  15.167  17.246  10.677
66427W        W38687  11.714  33.108  12.421
66428W        W38688  41.631  33.794   3.797
66429W        W38689  24.282  21.244  10.569
66430W        W38690  20.784  10.820   3.293
66431W        W38691  41.870  13.789  13.575
66432W        W38692   9.778  34.169  11.843
66433W        W38693  43.821   7.370  11.925
66434W        W38694   7.135  33.569  11.161
66435W        W38695  19.511  37.800   2.213
66436W        W38696  10.782  26.700  12.175
66437W        W38697  18.841  16.709  14.484
66438W        W38698  22.253  42.886  14.804
66439W        W38699   6.181  25.428   2.810
66440W        W38700  32.181  28.153  11.035
66441W        W38701   1.333  26.619   3.939
66442W        W38702  42.101   1.686   2.975
66443W        W38703  21.068  19.568   3.686
66444W        W38704  41.794  20.478  14.748
66445W        W38705  18.818  21.612  14.012
66446W        W38706   6.529  38.339   3.782
66447W        W38707   9.846   3.963  12.404
66448W        W38708  27.572  37.433   0.474
66449W        W38709  15.293   3.092   0.563
66450W        W38710   9.659  16.597   3.761
66451W        W38711  10.865   1.471   2.280
66452W        W38712  33.477  23.661  12.551
66453W        W38713   9.623   7.290   0.297
66454W        W38714  29.692  18.293   1.778
66455W        W38715  20.785  41.980  10.258
66456W        W38716  14.418  41.487  10.649
66457W        W38717  34.445  30.613   1.380
66458W        W38718  13.725  44.028  11.623
66459W        W38719  26.186  40.693  10.222
66460W        W38720   3.170  24.572  13.385
66461W        W38721  19.602   9.743   1.405
66462W        W38722  29.475   4.735   2.578
66463W        W38723  28.075  40.424  12.392
66464W        W38724  39.521  25.210  12.747
66465W        W38725   0.490  28.456  14.899
66466W        W38726  39.352   7.384   9.759
66467W        W38727  19.340  19.797   1.899
66468W        W38728  18.604  25.505  13.264
66469W        W38729   1.210  33.943   0.290
66470W        W38730  41.323  27.619   0.774
66471W        W38731  26.084   8.058  12.027
66472W        W38732   0.685  43.495  11.521
66473W        W38733   0.436  30.388   3.978
66474W        W38734   7.369  38.344  13.060
66475W        W38735  38.021  25.067  12.205
66476W        W38736  21.518   4.714  10.024
66477W        W38737   3.033   0.756   0.431
66478W        W38738  19.224  21.298   0.744
66479W        W38739   4.661  13.208   3.828
66480W        W38740   0.700  15.816  10.072
66481W        W38741  27.725  15.265   1.151
66482W        W38742   5.850  12.886   2.799
66483W        W38743  23.556  13.271  14.428
66484W        W38744  40.094  28.180   1.311
66485W        W38745  19.159  18.540   1.375
66486W        W38746  43.819  18.256   2.771
66487W        W38747  15.711  11.198   4.190
66488W        W38748  23.975  36.427   4.574
66489W        W38749  29.066  16.593   1.200
66490W        W38750  15.994  44.804  11.965
66491W        W38751  13.955   2.211   4.865
66492W        W38752  37.907  36.973   4.056
66493W        W38753  27.069  16.744   4.232
66494W        W38754  27.193  17.579   4.654
66495W        W38755  25.567  39.133   2.889
66496W        W38756   8.258  23.475   1.257
66497W        W38757  24.527  22.451  12.548
66498W        W38758  16.525  21.863  10.732
66499W        W38759  15.109  11.275   1.732
66500W        W38760  26.519  42.988   2.392
66501W        W38761  12.346  16.067  14.973
66502W        W38762  17.994  25.270  14.493
66503W        W38763  34.902  16.557   3.196
66504W        W38764  35.314  27.228  12.180
66505W        W38765  31.304  11.775  12.035
66506W        W38766  44.678  31.024   0.882
66507W        W38767  36.144  19.489   2.806
66508W        W38768  27.865  10.217   1.828
66509W        W38769  34.516  28.170  13.943
66510W        W38770  16.143  28.616   2.630
66511W        W38771  44.643   6.273  13.311
66512W        W38772  27.500  34.590  13.134
66513W        W38773  32.510  15.303   2.251
66514W        W38774  17.471  35.635   0.779
66515W        W38775  14.711  28.726   0.315
66516W        W38776  12.110   0.905  14.383
66517W        W38777  30.361  43.555  13.372
66518W        W38778  23.792  15.875   3.509
66519W        W38779  40.977  32.055  12.879
66520W        W38780  34.669  16.876   3.580
66521W        W38781  44.884  23.352  12.843
66522W        W38782   4.277  42.509  14.708
66523W        W38783  25.148  36.856   4.138
66524W        W38784  44.350  24.140   0.320
66525W        W38785  18.570   2.881  12.000
66526W        W38786  37.855   9.756   4.621
66527W        W38787  21.311  39.946  13.302
66528W        W38788  22.668  26.409  10.630
66529W        W38789  38.315  33.033   1.949
66530W        W38790  18.852  32.490  12.741
66531W        W38791  34.313   8.310  13.224
66532W        W38792  24.048  26.562   3.419
66533W        W38793  20.975  41.778   3.548
66534W        W38794  39.670  34.741   0.017
66535W        W38795  13.888  27.702  10.560
66536W        W38796  33.146   2.764   1.291
66537W        W38797  43.743   1.240   3.245
66538W        W38798   3.952  17.572  14.878
66539W        W38799  40.998   1.939   2.312
66540W        W38800  20.381  31.643   3.588
66541W        W38801  34.008  14.871  14.666
66542W        W38802  36.990   9.217   0.144
66543W        W38803  17.336  43.744  14.772
66544W        W38804  41.855  10.848  13.030
66545W        W38805  26.983  35.686   0.085
66546W        W38806  30.473  31.605   3.128
66547W        W38807   2.220  30.933  13.059
66548W        W38808  39.046  21.623  14.167
66549W        W38809  21.204  39.280   0.782
66550W        W38810  26.224  26.242   3.652
66551W        W38811   9.889  28.222  11.528
66552W        W38812  11.286  11.256   4.349
66553W        W38813   2.361  14.174  12.434
66554W        W38814  12.305  35.262  14.025
66555W        W38815  43.270  20.246   2.699
66556W        W38816  32.745   2.366  11.581
66557W        W38817   3.601  44.457   1.339
66558W        W38818  39.667  33.443   3.265
66559W        W38819  19.642   2.378  10.444
66560W        W38820  38.527  12.825  13.980
66561W        W38821  39.039  15.868  11.412
66562W        W38822  16.023  33.340  11.061
66563W        W38823  40.878  33.931  14.421
66564W        W38824  44.154  13.897  11.912
66565W        W38825  17.100   9.336   2.230
66566W        W38826  22.778  41.830   0.427
66567W        W38827  37.368   6.716  11.160
66568W        W38828  41.676  33.130   2.685
66569W        W38829  18.286  38.416   0.182
66570W        W38830  20.177  26.842  13.884
66571W        W38831  11.916  27.937  12.866
66572W        W38832  11.244  38.576   0.709
66573W        W38833   1.716  40.984  13.115
66574W        W38834  24.914   5.390   2.233
66575W        W38835  34.963  35.007  10.626
66576W        W38836  41.134  16.060  13.273
66577W        W38837  25.928  39.930  14.957
66578W        W38838  28.144  24.097  14.420
66579W        W38839  37.983  32.920   2.347
66580W        W38840  43.849   6.189   3.390
66581W        W38841  18.801  33.076  10.701
66582W        W38842  31.060  18.494   2.313
66583W        W38843  26.938  24.770   1.884
66584W        W38844  29.370  24.098   1.483
66585W        W38845  33.309   1.982   1.769
66586W        W38846  23.880  44.466   1.740
66587W        W38847  41.748  18.374   3.654
66588W        W38848   6.639  36.928   2.310
66589W        W38849  24.989   1.783   0.061
66590W        W38850  36.012  29.845   2.799
66591W        W38851  30.532  20.740   3.047
66592W        W38852  24.710  32.917   1.667
66593W        W38853  26.736  23.194   3.701
66594W        W38854   5.123   3.244   2.693
66595W        W38855  26.989  19.929   1.294
66596W        W38856   7.845  43.840   4.457
66597W        W38857   5.250  31.387  14.448
66598W        W38858  22.683  42.221   3.478
66599W        W38859  26.022  42.211  13.319
66600W        W38860   5.884  27.667  14.920
66601W        W38861  12.135  32.442   2.999
66602W        W38862  27.079   9.203   2.197
66603W        W38863  31.209   2.111   4.527
66604W        W38864  15.026  37.251  14.416
66605W        W38865  33.075   6.323   4.073
66606W        W38866  44.967  17.076   4.109
66607W        W38867  18.386  23.171   1.658
66608W        W38868  43.223  40.385   2.857
66609W        W38869  34.647  28.926   2.149
66610W        W38870   0.417  44.816   0.746
66611W        W38871   9.439  24.869   4.942
66612W        W38872  34.016  13.655   4.323
66613W        W38873   6.736  29.747  11.072
66614W        W38874   8.477  40.604   0.466
66615W        W38875   4.985   5.152  12.462
66616W        W38876  15.260  37.782  10.363
66617W        W38877  14.379  41.451  11.676
66618W        W38878   1.468  37.435   3.231
66619W        W38879  32.009   7.857   3.974
66620W        W38880   6.144  40.594  14.939
66621W        W38881   4.118  36.169  14.713
66622W        W38882  18.717  14.376  11.104
66623W        W38883  12.109  25.412   0.426
66624W        W38884  31.218  23.648   1.764
66625W        W38885  14.297  34.489   2.164
66626W        W38886  43.269  12.337   0.304
66627W        W38887  26.523   4.770   4.896
66628W        W38888   0.823  15.602   2.834
66629W        W38889  18.036   3.266   0.299
66630W        W38890  27.953   0.878  10.740
66631W        W38891  10.246  36.565  13.473
66632W        W38892  30.059   3.349   2.914
66633W        W38893   6.549  16.210   0.042
66634W        W38894   4.882  23.178  11.968
66635W        W38895  21.339  11.513   4.061
66636W        W38896  20.176  25.601  10.890
66637W        W38897  41.573   9.142   2.768
66638W        W38898  34.514   9.734   0.476
66639W        W38899  15.850  15.063  13.407
66640W        W38900   6.748   0.778   0.998
66641W        W38901  43.012   1.077   2.210
66642W        W38902  17.864   5.668   0.237
66643W        W38903   7.404   7.521   1.449
66644W        W38904  36.093   1.449   4.389
66645W        W38905   4.827  43.930  11.704
66646W        W38906  14.732  36.893  11.122
66647W        W38907   7.255  21.190   3.309
66648W        W38908   5.585  28.163   0.872
66649W        W38909  26.110   7.255   2.977
66650W        W38910  34.548  26.123   4.615
66651W        W38911  21.882  39.403   1.393
66652W        W38912  36.033  37.564   3.242
66653W        W38913  13.268   0.773  11.031
66654W        W38914  12.074  25.240  13.401
66655W        W38915   0.208  39.807   0.869
66656W        W38916  40.148  21.851   3.931
66657W        W38917  39.519   5.691  14.056
66658W        W38918  32.603   4.180  14.294
66659W        W38919  13.558  28.307  10.246
66660W        W38920  28.905  39.064  12.385
66661W        W38921  12.330  18.546  13.811
66662W        W38922  23.500  33.394   1.269
66663W        W38923  32.978  24.279   1.211
66664W        W38924  19.625  41.887   4.575
66665W        W38925  29.036   3.527   4.894
66666W        W38926  30.769   6.433  13.362
66667W        W38927  18.806  41.423   5.251
66668W        W38928  13.927  38.381  14.389
66669W        W38929  27.939  28.464   1.697
66670W        W38930   7.913  33.588  11.606
66671W        W38931   3.337  22.159  14.299
66672W        W38932  19.165   6.167  10.424
66673W        W38933  35.778   1.297   1.324
66674W        W38934  32.615   2.888   1.334
66675W        W38935  26.100  28.103   2.187
66676W        W38936  38.094  30.039   0.955
66677W        W38937  26.191  41.074   0.858
66678W        W38938  16.297  30.533  14.276
66679W        W38939  21.965   2.600   1.400
66680W        W38940  26.279  42.205  14.746
66681W        W38941  20.332  16.254   4.040
66682W        W38942  27.339  30.340  12.023
66683W        W38943  38.622  17.549  12.126
66684W        W38944   0.694  21.054  10.177
66685W        W38945  22.460  31.196   0.401
66686W        W38946  34.348  37.235   4.666
66687W        W38947  39.500  12.116  14.895
66688W        W38948  14.693  18.760   0.007
66689W        W38949  15.575  25.228   0.713
66690W        W38950  23.728   4.545  11.616
66691W        W38951  33.557   3.362  13.712
66692W        W38952   7.589   9.240  13.160
66693W        W38953  34.901  27.405   2.204
66694W        W38954  24.064  20.206  11.521
66695W        W38955  13.084  17.238   2.268
66696W        W38956  12.711  11.180  13.770
66697W        W38957  16.658  39.238  11.138
66698W        W38958  22.493  34.516   1.352
66699W        W38959  24.103  14.853  12.848
66700W        W38960  14.199  25.751   3.666
66701W        W38961   0.031   7.015  10.735
66702W        W38962  38.760  24.503  13.468
66703W        W38963  16.356  27.269   1.276
66704W        W38964  29.859  40.508   0.455
66705W        W38965  34.600   5.304   4.786
66706W        W38966  33.910   2.819   0.713
66707W        W38967   3.762  13.122  12.878
66708W        W38968  11.223   1.883  11.617
66709W        W38969  14.286  13.785  12.355
66710W        W38970  27.958  15.306   3.757
66711W        W38971  23.265  14.025   4.567
66712W        W38972  10.126  13.416   2.560
66713W        W38973  14.635  10.692   1.216
66714W        W38974   6.897  39.011   2.251
66715W        W38975  14.517  11.132  10.707
66716W        W38976  18.680  17.118  13.213
66717W        W38977   3.406  39.744  13.787
66718W        W38978  10.728  28.389  11.592
66719W        W38979  36.747   1.273   2.766
66720W        W38980   5.421  37.595   1.262
66721W        W38981   3.406  18.305  14.571
66722W        W38982  31.986  11.086   3.131
66723W        W38983  11.613  31.161   1.746
66724W        W38984  27.584  27.706   2.906
66725W        W38985  36.810  18.083  13.685
66726W        W38986   7.653   5.745   1.275
66727W        W38987  44.866  42.229   3.730
66728W        W38988  20.799   6.150  11.524
66729W        W38989  15.355  30.059  10.186
66730W        W38990  23.244  23.019   2.163
66731W        W38991  27.511  40.894  11.570
66732W        W38992  44.073  25.837   4.281
66733W        W38993  11.318   7.413   1.966
66734W        W38994  20.037  22.024  13.946
66735W        W38995  25.391  42.852   3.347
66736W        W38996   4.000  30.458   0.346
66737W        W38997  11.771  40.110  13.731
66738W        W38998  23.078   4.953   0.045
66739W        W38999  37.894  44.797  10.934
66740W        W39000  13.893   8.486  12.216
66741W        W39001   1.349  15.699   3.698
66742W        W39002   3.383  41.440   4.237
66743W        W39003  25.057  37.435  12.301
66744W        W39004  36.005  38.961   2.394
66745W        W39005  19.219  11.405  11.081
66746W        W39006  17.838  36.009   3.667
66747W        W39007  26.778  34.850  11.020
66748W        W39008   2.361  11.096  12.371
66749W        W39009   2.188  17.342  12.095
66750W        W39010  29.825  20.419  12.128
66751W        W39011  11.708   1.286   4.738
66752W        W39012  40.767  22.257  10.748
66753W        W39013  18.499  20.975  11.032
66754W        W39014  28.885  24.357   4.021
66755W        W39015   4.756  12.160   3.258
66756W        W39016  15.602   5.558  14.478
66757W        W39017  32.105   1.916  10.937
66758W        W39018   9.673  21.484   3.732
66759W        W39019  19.557  31.889   0.781
66760W        W39020  30.117  43.460  14.193
66761W        W39021  14.545  44.967  11.806
66762W        W39022  36.812  13.118   1.490
66763W        W39023  38.726  10.279  14.345
66764W        W39024  15.043  13.148   3.195
66765W        W39025  31.290  28.971   4.880
66766W        W39026  11.799   2.709  12.052
66767W        W39027  17.762   0.957  12.834
66768W        W39028   8.274  32.358   2.285
66769W        W39029  23.120  16.848  14.875
66770W        W39030  40.852  24.269   4.740
66771W        W39031  17.988  12.853   0.078
66772W        W39032  35.386  22.667   5.053
66773W        W39033  22.813  17.162  11.244
66774W        W39034   9.222  40.528  13.362
66775W        W39035  29.896  10.728   1.233
66776W        W39036  21.696  23.482  11.540
66777W        W39037   1.893  19.600   4.593
66778W        W39038  16.050   7.875  12.498
66779W        W39039  33.178  17.825   3.734
66780W        W39040   9.442  21.789  11.201
66781W        W39041   4.231  40.958   2.179
66782W        W39042  44.281   3.291   2.881
66783W        W39043   0.806  23.242   1.732
66784W        W39044   3.029   8.687   2.737
66785W        W39045  36.450  10.829   0.430
66786W        W39046   4.326  24.915  11.573
66787W        W39047  16.551  35.780  11.846
66788W        W39048  15.035  40.676   0.565
66789W        W39049  33.933   2.694   0.185
66790W        W39050  26.518  22.195   0.314
66791W        W39051  36.807  14.543   0.355
66792W        W39052  26.493  32.480  12.078
66793W        W39053  28.911   7.703  11.484
66794W        W39054  10.381  12.278   0.317
66795W        W39055   2.334   6.849  13.066
66796W        W39056   2.250  44.994  11.954
66797W        W39057  39.527   6.863  13.158
66798W        W39058  32.970  36.314  14.717
66799W        W39059  28.718  16.343  11.135
66800W        W39060  41.081  44.529  12.948
66801W        W39061  28.567   9.638   2.721
66802W        W39062  28.739  28.492   4.180
66803W        W39063  25.223  39.393   5.337
66804W        W39064  27.269  31.272   2.992
66805W        W39065  15.396  22.232  12.287
66806W        W39066  29.635  38.487  12.846
66807W        W39067   4.216  18.350   0.059
66808W        W39068  18.468   4.385   0.717
66809W        W39069  23.266  10.301   4.071
66810W        W39070  39.038  38.480   4.566
66811W        W39071  27.903  33.258  11.834
66812W        W39072  16.843  40.335  12.910
66813W        W39073  18.118   4.885   3.852
66814W        W39074  21.068  17.557   1.003
66815W        W39075  21.122  14.788   1.775
66816W        W39076  32.033  29.479   0.718
66817W        W39077  41.786   7.074   1.509
66818W        W39078  37.443   4.129  13.665
66819W        W39079  26.529  35.527  10.351
66820W        W39080  14.696   2.493  14.322
66821W        W39081  11.599  22.399  14.189
66822W        W39082  18.262  13.113  12.502
66823W        W39083  14.325  20.061  11.849
66824W        W39084  22.046  13.769   1.199
66825W        W39085  22.455   7.925   3.893
66826W        W39086  33.403  18.576   4.168
66827W        W39087  43.885  28.315   0.698
66828W        W39088  40.359   7.351  14.866
66829W        W39089  28.560  12.196  13.852
66830W        W39090  32.667  44.025   0.976
66831W        W39091  33.845  33.667  14.055
66832W        W39092  33.387  37.926  12.541
66833W        W39093  14.065   7.645   3.615
66834W        W39094   7.837  23.733  11.582
66835W        W39095  22.706   2.340  12.867
66836W        W39096  40.578  23.156  11.213
66837W        W39097   9.842   8.165  11.972
66838W        W39098  27.411   4.480  11.033
66839W        W39099  14.361  17.330  13.828
66840W        W39100  31.056  26.054   2.079
66841W        W39101  13.770  11.229  14.108
66842W        W39102  43.908  20.283  11.558
66843W        W39103  22.017  38.321   0.813
66844W        W39104  44.544  15.043  11.184
66845W        W39105  38.840  35.431  12.430
66846W        W39106  44.995   7.533   2.120
66847W        W39107  26.920  19.223   3.874
66848W        W39108  24.756  12.024  14.111
66849W        W39109  29.170   7.681   4.516
66850W        W39110  43.284  41.975  11.042
66851W        W39111   7.398   7.395  12.009
66852W        W39112  33.520  30.578  13.153
66853W        W39113  27.177   9.816  10.663
66854W        W39114  32.061   2.795  10.695
66855W        W39115   1.705  42.699   9.958
66856W        W39116  19.735  24.993  11.571
66857W        W39117  19.295   7.220   3.248
66858W        W39118  43.039  33.663   2.681
66859W        W39119  10.047   3.903   2.639
66860W        W39120  36.246   3.005   1.413
66861W        W39121  40.761  15.085   1.727
66862W        W39122  30.026  13.203  14.019
66863W        W39123  43.041  13.259  13.463
66864W        W39124   6.742  34.285   4.546
66865W        W39125  10.140  11.284  12.955
66866W        W39126  13.781  39.332  13.317
66867W        W39127  19.121  43.107  14.901
66868W        W39128  36.465  42.582   2.417
66869W        W39129  23.233  38.455   0.269
66870W        W39130  39.790  26.914   0.928
66871W        W39131  16.157  32.549  10.467
66872W        W39132  11.932  29.205   2.792
66873W        W39133  27.041   1.262  12.681
66874W        W39134  30.480  23.189   0.304
66875W        W39135  25.227  31.481   3.677
66876W        W39136  32.925   6.849   3.898
66877W        W39137  32.283  23.198   0.024
66878W        W39138  23.591  43.464   0.904
66879W        W39139  29.325  41.468  12.427
66880W        W39140  36.856  16.789  14.310
66881W        W39141   5.780  18.807  12.113
66882W        W39142   2.853   3.467  12.976
66883W        W39143  11.131   9.721   0.957
66884W        W39144  28.896  27.453  11.949
66885W        W39145  31.978  30.391   0.790
66886W        W39146  23.997  10.234   3.267
66887W        W39147  31.885  41.559  11.604
66888W        W39148  29.509  44.743   4.123
66889W        W39149  36.540  41.397   4.594
66890W        W39150  18.101   7.685  10.621
66891W        W39151  34.601  21.003  11.067
66892W        W39152  22.253  31.909  10.307
66893W        W39153  18.676  25.746   2.714
66894W        W39154  29.523  18.181  14.801
66895W        W39155   8.228  37.480   0.873
66896W        W39156   5.623  38.743   3.718
66897W        W39157  40.808  18.055  14.331
66898W        W39158  16.590  42.499   3.250
66899W        W39159  26.218  36.613  13.432
66900W        W39160  39.039  36.545   1.266
66901W        W39161  14.748   2.468   3.680
66902W        W39162  43.876  37.623  13.833
66903W        W39163  32.968  19.007  12.853
66904W        W39164  21.281   1.029   3.652
66905W        W39165  38.152  41.998  11.630
66906W        W39166  31.267  41.468   3.312
66907W        W39167  29.166  30.918  12.572
66908W        W39168  18.831  29.728  11.147
66909W        W39169  41.578  43.439  12.784
66910W        W39170  12.835  10.139  11.016
66911W        W39171  24.567   1.792  12.335
66912W        W39172  17.702  31.516  11.600
66913W        W39173   4.196  38.053  12.476
66914W        W39174  25.035  24.478   0.684
66915W        W39175  17.183  16.215   1.418
66916W        W39176  13.277  37.544   3.462
66917W        W39177   8.499  30.964   3.905
66918W        W39178  43.255  26.628   3.909
66919W        W39179  13.304  16.327   3.061
66920W        W39180  15.752   9.128  12.255
66921W        W39181  19.962  36.441   1.789
66922W        W39182  11.611   1.933   4.010
66923W        W39183  12.855  28.377   0.359
66924W        W39184  12.543   3.227  11.380
66925W        W39185  37.791   7.261   1.688
66926W        W39186  31.257  14.085  10.110
66927W        W39187  33.019   6.829   3.342
66928W        W39188  34.574  40.838  10.704
66929W        W39189  23.537   1.139  13.587
66930W        W39190  39.328  36.423  14.001
66931W        W39191  41.242  23.518   0.966
66932W        W39192  12.416  38.064  11.088
66933W        W39193  34.858   1.214  10.510
66934W        W39194  32.023   4.823   2.939
66935W        W39195  44.296  41.825  14.419
66936W        W39196   4.681  25.604  10.857
66937W        W39197  26.662  22.783  10.392
66938W        W39198  24.309  44.240  11.105
66939W        W39199  38.361  40.335   1.701
66940W        W39200  15.333  17.995  12.408
66941W        W39201   2.930  21.720   1.809
66942W        W39202  44.012  36.559  14.939
66943W        W39203  15.859  32.625  14.377
66944W        W39204  19.026  43.776  12.493
66945W        W39205   1.368  19.814  11.543
66946W        W39206  43.010  18.009  10.703
66947W        W39207   7.444   0.962   1.323
66948W        W39208  31.618  39.549   2.959
66949W        W39209  16.575  18.001  14.508
66950W        W39210   2.902   3.831  13.395
66951W        W39211   4.908  22.722   3.261
66952W        W39212   0.249  30.541  11.506
66953W        W39213  42.011  30.103  10.698
66954W        W39214  38.974   4.503   4.529
66955W        W39215  38.808  14.900  11.548
66956W        W39216  23.787  17.292   2.157
66957W        W39217  42.464   0.851   2.784
66958W        W39218  42.193   3.683   1.627
66959W        W39219  44.327  41.298   1.379
66960W        W39220  43.832   2.982   2.832
66961W        W39221  33.195  38.581   2.317
66962W        W39222  26.077   4.750   3.057
66963W        W39223  17.707   3.302   0.718
66964W        W39224   4.605   1.328  13.967
66965W        W39225  11.553  37.569  12.580
66966W        W39226  35.623  15.715   0.348
66967W        W39227  35.436  39.359   0.494
66968W        W39228  41.713  36.924  12.942
66969W        W39229   6.792  25.704   5.442
66970W        W39230  38.656   1.349  12.809
66971W        W39231  15.260  24.831   1.887
66972W        W39232  39.301  32.068  10.948
66973W        W39233  10.673  16.338  13.332
66974W        W39234  27.580  41.465  13.748
66975W        W39235  20.376   7.624   4.555
66976W        W39236  31.502   5.889  12.828
66977W        W39237   7.408  16.447  14.841
66978W        W39238   7.131   6.267  10.669
66979W        W39239  32.874  31.986   1.695
66980W        W39240  44.295  12.697  13.895
66981W        W39241  28.035  29.700  14.950
66982W        W39242  39.548  42.490   1.380
66983W        W39243  25.345   4.190  14.734
66984W        W39244  19.150  19.066   1.251
66985W        W39245   0.319  26.301   4.725
66986W        W39246  31.465   9.523   0.896
66987W        W39247  43.285  11.208   0.703
66988W        W39248  26.141  31.196  14.854
66989W        W39249  20.424  30.383  14.391
66990W        W39250   9.699   8.891   4.351
66991W        W39251   8.645  40.475  14.431
66992W        W39252  37.981  22.521  12.857
66993W        W39253  42.908  34.267   3.802
66994W        W39254  23.810   9.480   4.245
66995W        W39255  44.368  24.027  14.423
66996W        W39256  34.965  28.891   5.063
66997W        W39257  23.019  37.913  13.105
66998W        W39258  13.343  13.144  13.966
66999W        W39259  10.814  11.557   3.684
67000W        W39260   4.409  29.515   4.696
67001W        W39261  24.094  40.292   0.418
67002W        W39262  32.366   3.336   0.242
67003W        W39263  20.510  26.015   2.772
67004W        W39264  27.942   0.518  14.221
67005W        W39265   8.766  19.900  12.932
67006W        W39266  27.895  23.562  13.299
67007W        W39267   1.989  17.727   1.819
67008W        W39268  36.400  21.349  13.367
67009W        W39269  39.085   4.157   0.924
67010W        W39270  15.154   5.766  14.325
67011W        W39271  21.076  39.905  14.755
67012W        W39272  17.728   7.801   9.741
67013W        W39273  39.473   7.151   0.479
67014W        W39274  15.613  33.669  11.063
67015W        W39275  13.197  23.818   4.110
67016W        W39276  34.298  36.048   1.265
67017W        W39277  36.353  10.876   2.260
67018W        W39278   7.300  38.937  10.647
67019W        W39279  39.429  15.845  13.419
67020W        W39280   0.331  44.451  13.361
67021W        W39281   6.410  23.482  11.583
67022W        W39282  29.005  18.717  12.108
67023W        W39283  15.724  37.524   1.496
67024W        W39284   8.342  11.100   4.803
67025W        W39285  14.923  32.480  12.931
67026W        W39286  25.678  23.199   0.909
67027W        W39287  32.745  26.023  12.155
67028W        W39288   3.811   4.395  14.065
67029W        W39289  14.106  20.538  14.142
67030W        W39290   8.138  33.801   1.907
67031W        W39291   0.655  26.173   3.761
67032W        W39292   8.356  44.726  13.513
67033W        W39293  22.073   1.624  13.370
67034W        W39294  17.781  27.071   2.869
67035W        W39295  29.871  26.704   2.367
67036W        W39296  34.635   9.401   3.685
67037W        W39297   0.995  10.877  11.279
67038W        W39298  32.887  39.529   0.900
67039W        W39299  10.841  27.308   1.332
67040W        W39300  37.434  16.083  14.451
67041W        W39301  38.113  31.157  11.742
67042W        W39302  25.937  30.548  10.705
67043W        W39303  22.798  20.601  11.132
67044W        W39304  23.698  25.135  10.587
67045W        W39305  36.395  36.079  14.871
67046W        W39306   0.308   3.107  13.762
67047W        W39307  25.130  16.257   2.720
67048W        W39308  12.726  11.865  10.759
67049W        W39309  19.598  41.024  10.496
67050W        W39310  14.868  33.541   0.876
67051W        W39311  14.799  15.228   3.332
67052W        W39312  38.897   6.464   3.080
67053W        W39313   1.266  28.748   3.737
67054W        W39314  32.014  10.285  12.092
67055W        W39315  39.961  25.987  12.859
67056W        W39316  34.038  13.133   1.437
67057W        W39317  37.965  28.535  13.400
67058W        W39318  44.796  41.542  14.952
67059W        W39319  26.928  43.843  10.531
67060W        W39320   6.849  38.533  13.062
67061W        W39321  29.515  14.018   0.910
67062W        W39322  21.066  21.633   5.606
67063W        W39323  29.934  13.828  11.510
67064W        W39324   5.672   4.313  12.460
67065W        W39325  33.405  10.456   1.650
67066W        W39326  19.005  16.245   3.824
67067W        W39327  19.163  11.633  12.024
67068W        W39328   3.921  21.689  12.147
67069W        W39329  30.104   7.266   3.950
67070W        W39330  33.830  21.048   1.743
67071W        W39331   6.740  22.075  14.386
67072W        W39332  22.387  20.475   3.448
67073W        W39333  20.665   7.355   0.735
67074W        W39334  36.565   2.335  10.767
67075W        W39335  19.540   0.885  10.787
67076W        W39336  16.191  19.849   4.046
67077W        W39337  38.206  17.904   2.407
67078W        W39338  11.754  12.780   1.264
67079W        W39339   9.766  42.773  12.307
67080W        W39340  37.089   3.931  12.479
67081W        W39341   3.370  39.025   0.023
67082W        W39342  34.018  32.637   1.732
67083W        W39343  43.236   8.464   2.142
67084W        W39344  30.241  22.627   1.845
67085W        W39345  21.750  18.237   0.952
67086W        W39346  22.216   0.307  10.610
67087W        W39347  31.971  42.241   1.887
67088W        W39348  44.006  42.998  12.879
67089W        W39349   7.202  42.399  14.467
67090W        W39350  42.050  11.933  14.912
67091W        W39351  11.253   1.406   2.693
67092W        W39352   5.678  40.921   2.509
67093W        W39353   1.794  20.867  12.921
67094W        W39354   0.967  22.472  12.060
67095W        W39355  25.316  15.302  10.214
67096W        W39356   4.312  26.534  10.184
67097W        W39357  15.041  18.847   1.136
67098W        W39358  32.436   1.964  11.675
67099W        W39359  35.686  14.091  12.086
67100W        W39360  30.199  34.912   1.287
67101W        W39361  29.011  38.442   3.687
67102W        W39362   4.853   5.962  14.832
67103W        W39363  32.355  36.288  12.002
67104W        W39364  23.892   7.185  14.696
67105W        W39365  28.593   9.262   3.093
67106W        W39366  44.520  31.857  11.957
67107W        W39367  37.529  29.993  14.757
67108W        W39368  35.993  14.893  12.520
67109W        W39369   3.744  25.095  10.827
67110W        W39370  31.419  27.516  11.205
67111W        W39371  32.222   3.785  13.431
67112W        W39372  30.612  23.186  14.502
67113W        W39373  42.043  19.523   4.275
67114W        W39374  24.130  41.988  12.919
67115W        W39375  42.222  37.272   4.659
67116W        W39376  37.675  42.899   3.248
67117W        W39377  21.501  33.919   2.275
67118W        W39378   4.988  31.362  13.599
67119W        W39379  33.388  11.656  12.308
67120W        W39380  21.303  38.899  11.567
67121W        W39381   5.771  20.624   3.064
67122W        W39382   3.325  44.050  12.455
67123W        W39383  20.732  29.975   1.716
67124W        W39384  21.537  10.317  12.269
67125W        W39385  35.177  24.595  12.808
67126W        W39386  25.176  35.600   0.149
67127W        W39387  38.415  36.467  10.860
67128W        W39388  25.898  39.301  11.332
67129W        W39389  35.704  41.515  12.196
67130W        W39390  36.878  34.991  10.832
67131W        W39391  11.296  43.708   0.883
67132W        W39392   9.808  27.733   3.739
67133W        W39393  22.921   9.221   3.163
67134W        W39394   2.309  15.710  14.499
67135W        W39395  18.642  26.015  13.414
67136W        W39396   0.009   2.854  10.524
67137W        W39397  26.322   8.455  11.100
67138W        W39398   5.113   6.363  12.390
67139W        W39399  14.801   2.356  12.376
67140W        W39400  28.592  19.452   4.938
67141W        W39401  10.686  28.828  11.285
67142W        W39402  36.308  43.802   0.163
67143W        W39403  16.073  44.776  10.698
67144W        W39404   0.189   6.129  14.188
67145W        W39405  20.296  12.269  11.117
67146W        W39406  19.065  38.880  11.138
67147W        W39407  36.130  38.112  14.159
67148W        W39408  19.525   9.102   1.809
67149W        W39409  30.408  21.544   4.287
67150W        W39410  36.556   1.396   1.286
67151W        W39411  13.888   8.961   4.101
67152W        W39412  21.643   7.888   2.428
67153W        W39413   9.547  32.975   4.749
67154W        W39414  35.020  31.185   2.444
67155W        W39415  18.142  13.693   0.422
67156W        W39416  20.633  18.671  14.642
67157W        W39417   9.886  20.494   0.539
67158W        W39418  26.968  12.795  13.192
67159W        W39419  30.497   2.587  10.692
67160W        W39420  27.046  19.617   2.920
67161W        W39421  29.884  26.921  13.305
67162W        W39422  29.782   7.071   4.637
67163W        W39423  16.292  16.780   4.283
67164W        W39424  24.456   6.873  13.822
67165W        W39425  15.127  40.963  10.752
67166W        W39426  21.875  16.636   2.346
67167W        W39427  19.326  37.543  13.969
67168W        W39428   4.180  28.069   1.443
67169W        W39429  36.464  16.238  10.709
67170W        W39430   8.496  41.645  13.510
67171W        W39431  40.288  33.810  13.601
67172W        W39432  24.034  28.886   4.245
67173W        W39433  17.067  36.664   4.125
67174W        W39434  14.830  11.880  14.092
67175W        W39435  14.256  19.543   3.092
67176W        W39436  21.150   1.733  11.921
67177W        W39437   2.495  31.898   1.773
67178W        W39438  37.409  36.037   2.800
67179W        W39439  41.797  30.458  12.346
67180W        W39440  17.065   3.735  13.436
67181W        W39441  36.883  37.633  11.565
67182W        W39442  37.272  25.139   0.394
67183W        W39443   7.655  26.587  14.643
67184W        W39444  27.586  43.310   1.704
67185W        W39445  30.209  42.421  12.935
67186W        W39446  33.973  37.928   2.376
67187W        W39447   9.087  11.324   3.290
67188W        W39448   2.217  13.220   3.765
67189W        W39449  38.582   9.330  12.638
67190W        W39450  11.944  20.291  12.483
67191W        W39451   9.318  39.610  10.518
67192W        W39452   2.420  36.875   0.911
67193W        W39453   6.439  41.624  12.545
67194W        W39454  10.719   9.656  12.391
67195W        W39455  30.353  37.867  12.526
67196W        W39456  17.171   4.603   2.088
67197W        W39457  42.555  33.098  12.923
67198W        W39458   1.315  31.983   0.865
67199W        W39459  11.814  30.078  12.034
67200W        W39460  41.431   0.899   2.378
67201W        W39461  21.375  11.831  11.529
67202W        W39462  29.354  23.569   2.742
67203W        W39463   6.683  12.683  12.488
67204W        W39464  36.508  37.085   0.234
67205W        W39465  42.843  28.757  11.509
67206W        W39466  41.825  40.578   3.607
67207W        W39467  27.164  10.805   4.177
67208W        W39468  24.053  17.239  12.575
67209W        W39469  38.793  28.240  14.335
67210W        W39470  42.439  40.110  14.302
67211W        W39471  13.833  35.904   4.467
67212W        W39472   8.361   0.684  14.551
67213W        W39473  30.020  40.664  11.169
67214W        W39474  26.236  11.747  14.031
67215W        W39475  15.153  38.389   2.852
67216W        W39476  14.595  43.073  11.544
67217W        W39477   7.288  38.638  11.073
67218W        W39478  17.603  40.295   0.019
67219W        W39479   2.545  19.175   4.168
67220W        W39480  33.057  43.934  14.817
67221W        W39481  42.464  25.271   2.593
67222W        W39482  24.532  36.127   0.677
67223W        W39483  43.538   8.648   0.147
67224W        W39484  39.471  23.900  10.567
67225W        W39485  21.647  36.119  11.105
67226W        W39486  19.788  27.344   0.687
67227W        W39487   8.785  29.637  10.732
67228W        W39488  42.411  22.007  11.093
67229W        W39489  13.311  44.706   0.519
67230W        W39490  17.666  26.885   2.375
67231W        W39491  16.849   5.070  14.620
67232W        W39492   1.409  14.133   2.232
67233W        W39493  14.247   3.431   1.735
67234W        W39494  35.333  13.041  12.556
67235W        W39495  43.318  27.169  10.721
67236W        W39496  36.290  29.063   0.451
67237W        W39497  12.779  29.626  11.077
67238W        W39498  15.168  20.067  10.639
67239W        W39499  11.045  12.767   4.977
67240W        W39500  32.546   0.850  10.071
67241W        W39501  38.483  31.948  14.903
67242W        W39502  33.541  42.083   0.875
67243W        W39503  29.141  17.508   1.895
67244W        W39504  24.327   6.961  12.120
67245W        W39505  24.743  36.585   0.805
67246W        W39506  19.257   9.295   4.214
67247W        W39507  35.648  38.766   4.134
67248W        W39508  17.164  12.277   3.361
67249W        W39509   5.881  37.117  14.111
67250W        W39510   4.484  18.293  10.574
67251W        W39511  44.692   5.404  10.404
67252W        W39512   9.135  42.542   3.560
67253W        W39513   8.433  23.138  12.866
67254W        W39514   5.888   3.811   2.306
67255W        W39515   0.300  10.010   3.189
67256W        W39516  11.822  34.916   0.814
67257W        W39517  26.203  31.866  11.971
67258W        W39518  22.561  40.773  14.567
67259W        W39519  35.192  36.857   0.316
67260W        W39520  35.018   6.595  12.052
67261W        W39521  40.824  35.332   2.400
67262W        W39522  10.394   9.201  14.559
67263W        W39523  30.075  15.061   3.331
67264W        W39524  41.925  37.401  14.881
67265W        W39525  25.842  29.730  11.562
67266W        W39526  27.161  23.471  11.480
67267W        W39527  22.928  44.564  10.634
67268W        W39528  34.943  30.611   1.215
67269W        W39529   0.252  33.125  13.321
67270W        W39530   4.232  29.844  11.517
67271W        W39531  18.645  20.556  12.854
67272W        W39532  40.789  18.821  12.524
67273W        W39533  20.723  38.375  10.693
67274W        W39534  34.170   3.487   1.877
67275W        W39535  31.466  20.233   0.853
67276W        W39536  17.135   5.959   4.745
67277W        W39537  38.802   2.835  14.156
67278W        W39538  35.821  27.070   3.365
67279W        W39539  38.414   9.834  14.697
67280W        W39540  40.522  11.887   3.224
67281W        W39541   4.110  42.566   4.813
67282W        W39542  19.546  34.191   4.101
67283W        W39543  40.641  29.451   0.235
67284W        W39544  18.659   6.702  12.386
67285W        W39545   8.681  41.425   0.357
67286W        W39546   7.499  36.987  11.231
67287W        W39547  29.712  25.991  10.764
67288W        W39548  35.955   8.030  10.717
67289W        W39549  32.616   3.940   3.107
67290W        W39550  12.195   1.501   4.618
67291W        W39551  36.376  41.088   0.114
67292W        W39552  14.341   8.290  13.304
67293W        W39553  10.782  36.505   2.369
67294W        W39554  42.144  36.994  11.661
67295W        W39555  23.675  38.935  13.488
67296W        W39556   7.822  26.663   3.231
67297W        W39557   6.053   9.306   0.335
67298W        W39558  22.530  12.353  14.354
67299W        W39559  33.598   3.730  11.204
67300W        W39560   6.068   3.501  11.555
67301W        W39561  29.498  42.083  13.854
67302W        W39562  28.256  32.004  12.591
67303W        W39563  18.256  33.824   2.347
67304W        W39564  13.215  39.264   2.775
67305W        W39565  34.158  28.517   0.762
67306W        W39566   3.359  26.136  13.881
67307W        W39567  27.659  17.679   4.912
67308W        W39568  39.019  25.631   4.772
67309W        W39569  24.510   0.615   4.795
67310W        W39570  28.079  40.782   3.207
67311W        W39571   9.342   9.831  14.329
67312W        W39572  17.216  30.863  13.090
67313W        W39573  37.831  43.745   3.846
67314W        W39574  10.323  26.112   1.420
67315W        W39575   2.511  27.399   3.098
67316W        W39576  21.699   7.440   2.197
67317W        W39577  40.784  25.091   1.321
67318W        W39578  43.319  26.542  14.810
67319W        W39579  25.578  16.109   1.969
67320W        W39580   2.979   8.042   0.922
67321W        W39581  40.575  36.758   1.395
67322W        W39582  34.595  34.139   2.294
67323W        W39583   5.394  17.177  11.742
67324W        W39584  28.263  29.916  12.472
67325W        W39585   9.204  29.083   3.734
67326W        W39586  33.509  12.137  13.489
67327W        W39587  40.068  12.173   1.813
67328W        W39588  21.857  34.638  12.877
67329W        W39589  10.121  29.678  14.420
67330W        W39590  35.264  31.965   4.597
67331W        W39591  17.203  28.552   3.242
67332W        W39592  24.068  36.988   3.228
67333W        W39593  41.950  42.096  12.145
67334W        W39594   3.508  39.493  14.245
67335W        W39595  40.222  10.902   0.198
67336W        W39596  25.915  18.319  12.331
67337W        W39597  34.141  32.000  13.963
67338W        W39598  17.495  42.078  12.528
67339W        W39599   6.530   3.078   2.552
67340W        W39600  20.622  31.935   4.342
67341W        W39601  44.539   7.181  11.959
67342W        W39602  36.705  17.308  14.987
67343W        W39603  10.106   7.480  14.454
67344W        W39604   7.946  33.467  12.878
67345W        W39605  36.936   5.164   3.239
67346W        W39606  18.620  14.269  14.101
67347W        W39607  12.360  40.394   4.279
67348W        W39608  34.164  13.611  12.246
67349W        W39609   8.303   8.918  14.524
67350W        W39610  43.570  28.065   3.946
67351W        W39611  42.962  23.112   4.682
67352W        W39612  38.293   5.835  14.761
67353W        W39613  18.573  39.091   1.776
67354W        W39614  26.462  20.360   1.749
67355W        W39615  17.778  37.897   1.285
67356W        W39616   6.930  15.533  11.561
67357W        W39617  31.609   2.579   5.039
67358W        W39618   2.685  27.741   3.456
67359W        W39619  27.520  26.446   1.353
67360W        W39620   2.411   2.220  14.145
67361W        W39621  14.402  38.796   1.404
67362W        W39622  38.027  11.247  10.144
67363W        W39623   4.404  37.329  10.571
67364W        W39624   4.925  26.049  10.736
67365W        W39625   9.742  24.886   0.818
67366W        W39626  20.114  31.568  12.655
67367W        W39627  40.498  20.574  12.476
67368W        W39628   7.166   9.880   0.058
67369W        W39629  29.967  11.549  12.061
67370W        W39630  24.257   8.896  13.907
67371W        W39631  24.973  35.487   3.273
67372W        W39632  37.911   1.460  14.011
67373W        W39633  22.124  33.800  13.746
67374W        W39634   2.410  29.186  11.555
67375W        W39635  26.297   6.365  11.245
67376W        W39636  17.155  19.173  13.789
67377W        W39637  41.708  37.583  13.548
67378W        W39638   5.260   1.828   2.672
67379W        W39639  28.869  36.271  11.785
67380W        W39640  13.703  25.718  13.506
67381W        W39641   3.915  32.197   2.005
67382W        W39642  12.178   6.691   1.916
67383W        W39643  29.914  28.147  11.469
67384W        W39644  44.515  31.998   3.376
67385W        W39645  44.040  33.491   0.010
67386W        W39646  19.727  15.760  14.855
67387W        W39647   1.558   4.341   3.194
67388W        W39648   7.747  25.282   0.248
67389W        W39649   5.626  26.657  11.887
67390W        W39650  34.097   8.811   4.644
67391W        W39651  30.886   9.111  10.790
67392W        W39652  16.324  43.979   0.808
67393W        W39653  37.444  35.540   2.620
67394W        W39654   8.695   0.194  12.329
67395W        W39655  38.375   6.943   4.236
67396W        W39656  36.766   6.143  14.297
67397W        W39657  15.643  31.383   0.226
67398W        W39658  14.072  23.288   3.678
67399W        W39659  17.947  12.185  11.520
67400W        W39660  29.560  36.851   3.945
67401W        W39661  31.956  31.613   1.238
67402W        W39662  38.903   8.100   4.385
67403W        W39663  20.959   3.717   1.869
67404W        W39664  15.062   8.583   4.625
67405W        W39665  42.721  15.919   3.708
67406W        W39666  15.359   7.041   1.254
67407W        W39667  21.207  15.274   0.857
67408W        W39668  34.114  44.796  11.547
67409W        W39669  22.123  30.991  12.401
67410W        W39670  24.817   7.172  14.048
67411W        W39671  11.394  31.887   2.479
67412W        W39672  43.530  34.080  12.160
67413W        W39673  20.542  29.960   2.990
67414W        W39674  39.408  11.662   0.811
67415W        W39675  32.455  29.691   4.648
67416W        W39676  10.140  19.447  14.078
67417W        W39677  24.002  14.222  11.075
67418W        W39678  21.957  14.727   3.126
67419W        W39679  26.142  27.801   4.999
67420W        W39680   7.289   1.396   2.333
67421W        W39681  13.579   2.011   4.569
67422W        W39682  30.342  29.164   1.843
67423W        W39683   9.175  36.872   2.144
67424W        W39684  22.702   3.780  10.277
67425W        W39685   5.380   5.456  10.689
67426W        W39686  33.973   0.733  13.642
67427W        W39687   2.201   1.019   0.283
67428W        W39688  14.694   0.864   4.556
67429W        W39689  35.601   8.559   2.666
67430W        W39690  30.554  30.960  12.909
67431W        W39691  19.851  14.787   1.143
67432W        W39692  19.964  17.979   0.867
67433W        W39693  33.589  38.274   2.192
67434W        W39694  35.551  27.527  13.935
67435W        W39695  32.522   7.347  10.501
67436W        W39696   6.641  16.544   1.220
67437W        W39697   0.890  31.094   4.170
67438W        W39698  18.269   9.406   1.431
67439W        W39699  24.549   8.854  12.462
67440W        W39700  20.933   3.312  11.181
67441W        W39701  24.684   5.752  14.327
67442W        W39702  35.630  37.877   3.829
67443W        W39703  21.568  31.869   3.182
67444W        W39704  43.546   7.693  10.697
67445W        W39705   3.454  27.702  13.121
67446W        W39706  42.358  43.781   1.964
67447W        W39707   2.582   6.712   2.114
67448W        W39708  18.379  16.247  10.492
67449W        W39709  36.354  20.567   2.247
67450W        W39710  24.190  26.302  12.788
67451W        W39711  22.784  18.544  11.664
67452W        W39712  27.235  23.603   1.547
67453W        W39713  22.691  29.853  14.421
67454W        W39714  41.805  29.119   3.195
67455W        W39715  17.060   2.986   1.660
67456W        W39716  13.643  19.622  12.790
67457W        W39717  37.996  16.322  12.452
67458W        W39718  18.564  15.106  12.166
67459W        W39719  16.767  38.323  13.017
67460W        W39720  37.594  26.648  13.342
67461W        W39721  18.827  30.533  13.319
67462W        W39722  10.237  10.179  10.513
67463W        W39723  17.643  37.423  13.763
67464W        W39724  16.581  15.171   4.500
67465W        W39725  31.336   8.840   3.223
67466W        W39726  18.601  39.272   1.272
67467W        W39727  24.798  43.408  10.695
67468W        W39728  13.735  33.697   3.653
67469W        W39729  41.590  44.557   4.005
67470W        W39730  42.507  20.087  11.228
67471W        W39731  17.670  22.980   2.107
67472W        W39732  25.681  31.863  11.977
67473W        W39733  25.129  16.234   1.715
67474W        W39734  10.270  25.442  12.891
67475W        W39735  12.627  37.457   2.728
67476W        W39736  43.384  20.088  12.554
67477W        W39737  10.091  39.273   3.894
67478W        W39738  30.660   9.455  11.156
67479W        W39739  17.970  32.538   1.012
67480W        W39740   9.576  28.624   0.010
67481W        W39741  22.965   9.876   4.676
67482W        W39742  39.915  43.615  11.540
67483W        W39743  42.336   0.098   4.911
67484W        W39744  42.904  44.367  14.976
67485W        W39745  33.550   1.188   1.382
67486W        W39746  33.158  12.800  13.085
67487W        W39747  14.363  24.409   2.731
67488W        W39748   0.511  27.773  11.972
67489W        W39749  20.799  20.204   3.420
67490W        W39750  38.907   4.816   1.999
67491W        W39751  36.878  27.944  12.580
67492W        W39752  23.657   4.151   0.046
67493W        W39753  34.054  40.904   1.832
67494W        W39754  27.185   5.179  11.594
67495W        W39755  16.112  15.325   0.438
67496W        W39756  30.080   8.454   1.804
67497W        W39757  26.462  41.294  10.590
67498W        W39758  34.869  11.719   3.967
67499W        W39759  27.305  22.904  13.012
67500W        W39760   6.955  39.941  14.372
67501W        W39761  26.526  16.058  13.801
67502W        W39762  34.571  33.356   4.815
67503W        W39763  20.229  42.898   3.832
67504W        W39764  31.368  10.620   1.956
67505W        W39765  34.848  27.677   1.741
67506W        W39766  24.993  38.976  14.828
67507W        W39767  31.141  11.880  14.923
67508W        W39768  16.760  14.823   2.099
67509W        W39769   3.700  34.847  13.979
67510W        W39770  23.223  33.860   0.463
67511W        W39771  14.750   1.956  14.354
67512W        W39772   0.756  22.436  14.782
67513W        W39773  27.059  33.901   3.033
67514W        W39774  15.753  39.958   0.365
67515W        W39775  43.851  38.849   4.163
67516W        W39776   3.790  40.775  14.953
67517W        W39777  26.007  11.198  10.446
67518W        W39778  38.594   6.820   5.579
67519W        W39779  25.281  34.075  11.084
67520W        W39780  13.879  27.030   3.722
67521W        W39781  29.745  22.154   3.651
67522W        W39782  25.901  30.983   4.640
67523W        W39783  39.054  30.805  10.737
67524W        W39784  28.664  11.065   2.217
67525W        W39785  10.770  19.126  11.936
67526W        W39786  24.464   8.919  11.046
67527W        W39787  40.094   6.954   5.108
67528W        W39788  29.311  30.111   1.814
67529W        W39789  24.454  28.501   3.244
67530W        W39790  42.691  41.031  12.911
67531W        W39791  15.493  33.494   5.133
67532W        W39792  10.746   3.196   0.765
67533W        W39793  13.238   9.875  11.190
67534W        W39794   2.672  38.879   3.594
67535W        W39795  12.807  29.944   2.350
67536W        W39796  10.868   4.832  14.721
67537W        W39797  17.333  22.139  11.565
67538W        W39798  41.521  26.735  12.808
67539W        W39799   2.949  30.895  13.421
67540W        W39800   2.773  18.603  12.058
67541W        W39801  35.997  21.232  10.690
67542W        W39802  26.221  30.107  10.670
67543W        W39803  44.919  16.733   1.810
67544W        W39804   0.841  18.536  12.052
67545W        W39805  41.024  10.139   2.234
67546W        W39806  18.247  34.972   4.390
67547W        W39807  24.588   3.213   0.233
67548W        W39808  14.606  44.929   1.297
67549W        W39809  20.542   4.136   1.822
67550W        W39810  19.825   8.198   1.381
67551W        W39811  31.424  21.914  11.147
67552W        W39812  11.338  20.986   1.380
67553W        W39813  30.092  40.943   0.658
67554W        W39814  18.118  11.393   1.308
67555W        W39815  39.763  10.269   1.773
67556W        W39816   9.258  26.940   3.006
67557W        W39817  21.131  37.300  12.894
67558W        W39818  15.526   0.408   1.491
67559W        W39819  44.032   7.083   4.977
67560W        W39820  33.132  15.321  13.034
67561W        W39821  41.946  35.652   1.395
67562W        W39822  12.175   9.722   4.694
67563W        W39823  29.483  29.594   3.774
67564W        W39824  14.173  29.252  12.578
67565W        W39825  28.033  20.047   0.302
67566W        W39826   3.254   8.454  11.577
67567W        W39827  23.462  24.665  10.704
67568W        W39828  33.295  12.764  14.085
67569W        W39829  24.790  38.478  12.904
67570W        W39830   7.485  15.057  14.497
67571W        W39831  23.596  20.618   4.832
67572W        W39832  11.184  14.632   0.862
67573W        W39833   8.695   7.155  11.651
67574W        W39834  19.320   5.520  11.039
67575W        W39835   8.950  30.191  14.393
67576W        W39836   8.605  13.352  13.841
67577W        W39837  42.061   8.816   2.889
67578W        W39838  35.879  26.569  11.144
67579W        W39839  18.544  15.683   9.656
67580W        W39840  25.650  31.508  10.833
67581W        W39841  33.786  32.606   3.953
67582W        W39842  15.924   4.589   1.552
67583W        W39843  22.494  14.634   3.215
67584W        W39844  30.088  41.818   2.289
67585W        W39845   0.380  17.503   0.233
67586W        W39846  15.250   5.175  14.473
67587W        W39847   4.419  26.656   0.761
67588W        W39848  41.069  11.269   4.592
67589W        W39849  12.595  39.363  11.114
67590W        W39850   8.868   8.485   1.734
67591W        W39851  12.574  25.192  14.981
67592W        W39852   5.193   1.051  13.510
67593W        W39853   6.253  42.433  10.988
67594W        W39854  17.798  37.580  12.832
67595W        W39855  22.284  26.063   1.334
67596W        W39856  13.668   7.118   4.517
67597W        W39857  26.137  21.939  13.331
67598W        W39858  26.153   7.137  10.781
67599W        W39859  35.506  25.011  11.004
67600W        W39860   5.696   4.746  12.180
67601W        W39861  40.268  30.059   1.976
67602W        W39862  11.998  40.067  12.447
67603W        W39863   6.926  27.566   1.652
67604W        W39864  13.271  43.387   0.523
67605W        W39865   1.934  33.156  12.962
67606W        W39866   1.357  30.849   4.218
67607W        W39867  28.353  19.091   2.141
67608W        W39868  21.938  11.147   0.928
67609W        W39869  13.377  38.072  11.015
67610W        W39870   2.973  11.362   1.191
67611W        W39871  18.337  17.572   2.639
67612W        W39872  29.718  16.039  11.187
67613W        W39873  44.017  26.623  10.653
67614W        W39874   7.276   5.862  13.816
67615W        W39875  36.192   3.620   2.707
67616W        W39876  13.255  11.050   0.891
67617W        W39877  30.103  28.631   2.255
67618W        W39878   4.428  42.880   2.152
67619W        W39879  39.701  26.106  11.219
67620W        W39880  44.835  20.639  13.366
67621W        W39881  22.716  35.147  13.051
67622W        W39882  31.435   2.849   3.856
67623W        W39883  38.970  11.180  13.473
67624W        W39884  26.639  18.810   5.021
67625W        W39885  19.201  38.478   0.667
67626W        W39886  42.794  38.771  12.413
67627W        W39887  10.410  22.063  10.253
67628W        W39888  26.528  12.945   4.134
67629W        W39889   3.081  30.794   2.757
67630W        W39890  33.918  23.559  13.876
67631W        W39891  42.075   7.918   1.889
67632W        W39892  12.210  18.209  12.538
67633W        W39893  26.424  17.046   5.038
67634W        W39894   7.762   3.785  12.759
67635W        W39895  36.405  22.389   1.744
67636W        W39896  41.912  25.089  14.004
67637W        W39897  41.018  28.624   2.124
67638W        W39898   8.342  20.585   3.598
67639W        W39899  13.531  39.802   4.318
67640W        W39900  10.316  12.878   0.826
67641W        W39901  12.231  26.024   2.397
67642W        W39902  11.989  18.766   1.477
67643W        W39903  31.989  14.227  10.485
67644W        W39904   9.957  39.837  13.491
67645W        W39905  22.967  37.094   2.245
67646W        W39906  38.837   9.908  10.542
67647W        W39907  29.156  20.234   0.382
67648W        W39908   5.760  30.043  11.546
67649W        W39909  40.397  13.072  13.438
67650W        W39910  19.073   1.230   1.088
67651W        W39911  36.513  28.152   1.903
67652W        W39912  42.213  13.886  12.052
67653W        W39913  24.030   2.118   1.454
67654W        W39914  16.061  10.505  11.223
67655W        W39915  14.370  38.050   0.795
67656W        W39916  30.505  32.861   0.601
67657W        W39917  28.770   0.944   4.108
67658W        W39918  40.433  44.749   1.994
67659W        W39919   8.180  41.350   2.958
67660W        W39920   2.457  12.882  14.687
67661W        W39921  17.146  17.031  10.129
67662W        W39922   2.559  23.246  10.345
67663W        W39923  39.488  40.064   2.989
67664W        W39924  29.901   4.763   4.291
67665W        W39925   2.998   3.083   4.231
67666W        W39926  21.567  43.842   0.975
67667W        W39927  25.140  28.351   4.891
67668W        W39928  23.575  40.498  13.073
67669W        W39929   6.326  43.462   3.659
67670W        W39930  31.393  15.736   2.374
67671W        W39931   6.571  12.346  13.728
67672W        W39932  21.015  12.741  13.905
67673W        W39933  35.441  31.094  11.054
67674W        W39934  19.582  26.959   4.094
67675W        W39935  22.187  28.877   4.381
67676W        W39936  12.190  40.448  13.548
67677W        W39937  27.063  30.002   2.730
67678W        W39938  44.501   9.815  11.688
67679W        W39939  40.408   4.726  13.265
67680W        W39940  19.505  36.822   0.861
67681W        W39941  22.290  33.483   2.398
67682W        W39942  40.965   6.377   2.904
67683W        W39943  33.548  10.589  14.965
67684W        W39944  17.648  32.064  13.308
67685W        W39945  27.248  31.125  10.726
67686W        W39946  41.763  31.984  10.145
67687W        W39947  14.939  44.691   4.050
67688W        W39948  14.523  38.395   4.972
67689W        W39949  19.129   0.526   2.722
67690W        W39950  34.918   5.151   2.324
67691W        W39951  29.995  39.464   2.567
67692W        W39952  25.918  13.828   2.264
67693W        W39953  34.154  38.942  12.350
67694W        W39954  42.765  43.992  14.157
67695W        W39955  20.697  36.432  10.676
67696W        W39956   5.472  25.935   1.278
67697W        W39957  14.997  44.370   1.805
67698W        W39958  39.564  44.018   2.387
67699W        W39959  39.064  13.840  14.518
67700W        W39960  42.456  26.524   3.301
67701W        W39961  39.719   9.570  13.008
67702W        W39962  27.279  29.477  13.484
67703W        W39963  16.986   6.406  14.786
67704W        W39964  28.195  10.347  14.429
67705W        W39965  35.414  37.411   3.872
67706W        W39966  43.454  21.327  11.091
67707W        W39967  16.649  16.449  10.238
67708W        W39968  28.236   4.980   0.214
67709W        W39969  31.101  29.996  11.638
67710W        W39970  34.591  13.709  13.432
67711W        W39971  16.761  30.757  12.870
67712W        W39972  15.698  14.762  14.077
67713W        W39973  38.786  25.648   1.867
67714W        W39974  39.445  31.538   1.914
67715W        W39975  13.679   0.884   2.471
67716W        W39976  39.867   7.430   0.712
67717W        W39977  39.001  12.908   3.333
67718W        W39978  33.417  10.731   0.440
67719W        W39979  24.090  23.183  13.872
67720W        W39980  19.941  41.016  13.538
67721W        W39981  25.734  24.475  14.330
67722W        W39982   2.311  37.862   0.904
67723W        W39983  32.691  25.154  12.069
67724W        W39984  39.296  12.725  12.585
67725W        W39985  38.751  36.918   0.201
67726W        W39986   8.672   4.967   0.894
67727W        W39987  20.334   6.199   4.132
67728W        W39988  41.470  26.049  10.676
67729W        W39989  14.600  23.412  12.493
67730W        W39990  23.075  12.750  13.139
67731W        W39991  21.803  40.529  11.130
67732W        W39992   2.597  10.704  14.914
67733W        W39993  22.738  23.005  13.493
67734W        W39994   8.985  17.654   1.656
67735W        W39995  15.665  23.193   4.540
67736W        W39996   4.776   2.961  13.950
67737W        W39997  19.876  28.690   4.659
67738W        W39998  13.149  23.283   0.856
67739W        W39999   4.411   9.649  14.968
67740W        W40000  28.652  24.194   3.588
67741W        W40001  25.463  29.710   1.763
67742W        W40002  12.204   7.285  12.845
67743W        W40003  10.432  27.698   0.740
67744W        W40004  29.177  44.839   4.506
67745W        W40005  41.625  15.097   3.569
67746W        W40006  19.921  41.759  11.564
67747W        W40007   5.039  23.980   3.117
67748W        W40008  24.385   6.330   3.187
67749W        W40009   3.707   8.176  10.868
67750W        W40010  15.086  17.544   2.290
67751W        W40011  13.034  14.670   0.858
67752W        W40012  34.759  31.403   0.092
67753W        W40013  35.785  22.483   3.417
67754W        W40014  35.826  41.513  14.292
67755W        W40015  29.677  13.908  11.996
67756W        W40016  25.477  13.319  13.968
67757W        W40017  10.629  35.639  11.539
67758W        W40018   1.944  42.979  12.468
67759W        W40019  33.102  23.805   1.002
67760W        W40020   4.770  23.003   0.420
67761W        W40021  19.923  44.293   2.483
67762W        W40022  17.650   4.177  12.846
67763W        W40023  17.549  12.336   4.623
67764W        W40024   7.380  23.559   3.381
67765W        W40025  35.431  32.154   4.158
67766W        W40026  29.366   9.892  14.921
67767W        W40027  38.886  26.794  11.691
67768W        W40028   3.498  19.478  10.458
67769W        W40029  13.773  10.894   0.983
67770W        W40030   2.949   3.318  10.678
67771W        W40031  14.917   3.748   3.386
67772W        W40032   6.939   1.396  14.736
67773W        W40033  32.725   6.109   0.701
67774W        W40034  28.086   2.715   4.477
67775W        W40035  28.468  40.576   4.706
67776W        W40036  29.938  44.488  13.991
67777W        W40037   3.269  27.686  13.598
67778W        W40038   0.745   0.323  14.858
67779W        W40039  31.869   8.399   2.844
67780W        W40040   6.954   6.333   1.358
67781W        W40041  33.426  37.808   3.665
67782W        W40042  17.246   6.924   4.053
67783W        W40043  41.336  27.019   3.847
67784W        W40044   8.606  27.227  10.654
67785W        W40045  41.304  33.140   2.307
67786W        W40046  24.173  13.517  14.831
67787W        W40047  20.003  12.732  13.880
67788W        W40048  11.576  14.903   2.242
67789W        W40049  34.149  23.009   3.620
67790W        W40050  25.229  17.693   4.175
67791W        W40051  34.423  24.498  11.941
67792W        W40052  24.989   6.299   2.403
67793W        W40053  12.198   1.454  10.646
67794W        W40054  14.177  26.816   1.688
67795W        W40055  18.728  39.339  14.858
67796W        W40056  17.338   3.552  12.557
67797W        W40057  37.943  10.816  10.785
67798W        W40058  26.908   7.788  11.603
67799W        W40059  29.401  13.326  13.264
67800W        W40060  26.118   2.039  12.497
67801W        W40061  10.721   8.742   0.895
67802W        W40062   3.905   8.287   3.706
67803W        W40063  26.377  35.074   4.491
67804W        W40064  39.053  33.753  12.507
67805W        W40065  16.543  35.109  11.646
67806W        W40066  12.662  35.037  12.865
67807W        W40067  36.433  37.457   4.166
67808W        W40068  34.347  22.958  11.911
67809W        W40069  40.640  36.647  14.421
67810W        W40070  31.581  37.109   2.636
67811W        W40071  32.839  19.506  12.804
67812W        W40072   1.585  33.556   1.829
67813W        W40073  42.685  22.527   2.199
67814W        W40074  37.980  34.906   0.776
67815W        W40075  43.767  30.951  14.287
67816W        W40076  11.307  18.217   1.234
67817W        W40077   1.110  15.977   0.212
67818W        W40078  38.181  35.559   0.912
67819W        W40079  39.005   0.526   1.062
67820W        W40080  41.879  37.029   0.829
67821W        W40081  26.883  10.947   2.130
67822W        W40082  13.054  38.445   4.742
67823W        W40083  18.406  19.548  12.991
67824W        W40084  16.169  26.716  11.648
67825W        W40085  36.241  16.100   2.347
67826W        W40086  10.496  17.830  14.348
67827W        W40087  40.353  32.178  11.014
67828W        W40088   1.163  13.137   2.177
67829W        W40089  38.481  27.160  11.916
67830W        W40090  30.993  20.096   0.643
67831W        W40091  17.566  36.554  14.299
67832W        W40092  42.549  44.769   3.410
67833W        W40093  23.788  27.943   4.027
67834W        W40094  24.855  13.298  11.480
67835W        W40095  35.099  34.085  11.682
67836W        W40096  16.472   9.353  12.348
67837W        W40097  26.543  29.150   2.872
67838W        W40098  38.694  30.548  14.814
67839W        W40099   7.478  34.477   2.014
67840W        W40100  18.284  13.146  10.737
67841W        W40101  35.654   0.595  12.312
67842W        W40102   8.722  30.662   1.777
67843W        W40103  24.682  10.773   0.195
67844W        W40104  21.273  37.588   3.266
67845W        W40105  26.000  26.546  12.179
67846W        W40106  22.972  21.810  11.975
67847W        W40107   1.563   7.355  11.035
67848W        W40108   8.633  15.227   3.081
67849W        W40109  43.346   1.842   3.651
67850W        W40110  33.052  17.405   1.862
67851W        W40111  27.915  31.526  12.375
67852W        W40112   7.252  21.150  12.209
67853W        W40113  35.276  28.378  11.138
67854W        W40114  37.831  37.470   2.777
67855W        W40115  20.321   6.663   1.783
67856W        W40116   8.230  20.224  14.820
67857W        W40117  42.950  11.913  10.783
67858W        W40118  14.115  35.639  10.632
67859W        W40119  44.763   2.686   3.809
67860W        W40120  13.679  19.536  11.949
67861W        W40121   6.386  40.292   2.340
67862W        W40122   8.509   3.827   0.258
67863W        W40123  27.747   3.393  14.433
67864W        W40124   4.389   9.606   2.382
67865W        W40125   0.564  25.596  11.183
67866W        W40126  14.630  13.578  13.484
67867W        W40127  28.761  16.108  14.339
67868W        W40128  29.450  29.536  10.448
67869W        W40129  29.715  28.474  12.437
67870W        W40130  18.704   2.578   1.325
67871W        W40131   4.710  40.798   3.123
67872W        W40132  36.043  23.417  14.411
67873W        W40133  40.932   6.536   1.020
67874W        W40134  37.661   2.551   0.191
67875W        W40135  33.557   8.728   4.561
67876W        W40136  37.025   5.395   0.935
67877W        W40137  34.541  36.872  13.621
67878W        W40138  20.701  39.917   2.999
67879W        W40139   5.595  12.254  14.096
67880W        W40140   1.236   2.293   1.898
67881W        W40141  14.151   5.342   3.129
67882W        W40142  32.658  26.446   0.678
67883W        W40143  44.474  12.759   2.738
67884W        W40144  37.341  32.129   0.807
67885W        W40145  24.267  11.800  12.937
67886W        W40146  43.853  11.854  10.670
67887W        W40147  26.036   4.178  13.560
67888W        W40148  22.633   8.226   2.176
67889W        W40149  35.206   9.316   3.785
67890W        W40150   2.446  16.060   1.785
67891W        W40151  26.469  29.931  12.021
67892W        W40152   0.055  40.103  12.435
67893W        W40153  26.265  44.989   3.203
67894W        W40154   0.695  34.872  13.848
67895W        W40155  26.727   6.640  12.943
67896W        W40156  20.290  10.925   3.326
67897W        W40157   4.937   1.867  13.209
67898W        W40158   6.854   8.859  11.610
67899W        W40159  12.597   2.044  12.433
67900W        W40160  25.996  42.448   1.779
67901W        W40161  13.406  24.079   0.322
67902W        W40162  34.138   9.242   3.394
67903W        W40163  32.064  25.507   0.291
67904W        W40164  11.086  24.969   1.821
67905W        W40165  17.410  40.832  12.538
67906W        W40166   7.297   1.350   4.387
67907W        W40167   7.820  27.735   1.161
67908W        W40168  39.520  36.922  13.404
67909W        W40169  15.632  38.295  10.164
67910W        W40170   1.380  39.665   1.752
67911W        W40171  43.809   9.417   2.479
67912W        W40172  21.446   6.305  14.355
67913W        W40173  10.731  26.708  11.024
67914W        W40174   5.674  33.322   3.655
67915W        W40175  12.378  21.578   2.270
67916W        W40176  32.256  41.076   3.314
67917W        W40177  33.061  39.255   1.300
67918W        W40178  37.541  30.079  14.253
67919W        W40179  16.040  19.348   4.147
67920W        W40180   8.322  44.864  14.905
67921W        W40181   5.633  37.122   2.362
67922W        W40182  12.605   5.665   1.440
67923W        W40183  15.707   9.619   2.842
67924W        W40184  33.948  22.179   3.966
67925W        W40185  35.620  17.714   9.662
67926W        W40186  31.470  20.727  14.576
67927W        W40187  31.366  22.642  10.665
67928W        W40188  17.691  25.668  14.696
67929W        W40189  23.227  38.375  11.999
67930W        W40190  11.822   7.296   3.568
67931W        W40191  13.131  17.226  10.176
67932W        W40192  12.723  34.125   2.874
67933W        W40193  32.412  36.150  14.083
67934W        W40194  26.379  22.700  14.125
67935W        W40195  36.743  37.852  11.079
67936W        W40196  39.968  21.415   4.191
67937W        W40197  15.070   4.838  14.879
67938W        W40198  16.856  23.131  10.742
67939W        W40199  32.482   8.755   2.522
67940W        W40200   9.226  39.509   0.681
67941W        W40201  37.941  13.294   0.935
67942W        W40202  42.729  38.903  14.059
67943W        W40203  15.743  23.761   1.246
67944W        W40204  24.362  34.529  14.070
67945W        W40205  37.504  26.460  13.835
67946W        W40206   8.863  19.306  13.755
67947W        W40207   5.740   4.668   4.800
67948W        W40208  41.883  11.593   1.754
67949W        W40209   9.692  41.582  12.522
67950W        W40210  29.151  21.026  12.511
67951W        W40211  23.169   2.165  12.096
67952W        W40212   5.452  20.666  11.125
67953W        W40213  28.973  42.245  12.244
67954W        W40214  44.723  22.922   2.705
67955W        W40215  37.592  31.443  12.647
67956W        W40216  43.546  10.633  11.409
67957W        W40217  29.465   1.868   1.233
67958W        W40218  35.790  16.054  11.891
67959W        W40219   4.493  36.072  13.763
67960W        W40220   3.256  34.833   4.526
67961W        W40221  33.014  12.247  12.868
67962W        W40222  14.317  12.760   4.131
67963W        W40223  13.230  18.297   3.117
67964W        W40224  26.435  44.263  12.805
67965W        W40225   6.316  37.264   5.039
67966W        W40226  12.638   3.589   2.822
67967W        W40227   5.307  33.160   3.220
67968W        W40228  22.589  25.071   4.416
67969W        W40229  12.110   5.663   3.367
67970W        W40230  41.578  39.428  14.856
67971W        W40231  11.867  13.352   4.446
67972W        W40232  17.101  30.724   3.097
67973W        W40233  37.969  26.454   4.329
67974W        W40234  23.191  27.364  10.770
67975W        W40235  33.043  34.416   3.131
67976W        W40236  16.711   4.017   1.388
67977W        W40237  40.979   2.206  13.753
67978W        W40238   4.639  14.545  11.636
67979W        W40239  41.269  29.112   4.525
67980W        W40240  25.026  14.695  10.597
67981W        W40241  16.274  42.325  11.986
67982W        W40242  39.784  16.356  10.898
67983W        W40243  17.610  24.091   2.205
67984W        W40244   6.934  23.949   1.283
67985W        W40245  37.469  32.693   0.723
67986W        W40246  25.363  22.598  12.147
67987W        W40247  20.377  32.093   2.932
67988W        W40248   1.997  25.759   0.301
67989W        W40249  35.348   8.041  11.161
67990W        W40250   3.382   2.735  10.270
67991W        W40251  30.390   3.089   5.085
67992W        W40252  22.730  44.379  13.318
67993W        W40253   6.203  33.617   1.749
67994W        W40254  25.617  20.712   1.349
67995W        W40255   8.145  21.075   3.420
67996W        W40256  12.908  29.981   0.835
67997W        W40257  13.692   5.256   0.076
67998W        W40258   4.885  39.821  13.807
67999W        W40259  44.894  25.386   4.526
68000W        W40260  23.050  14.256   0.962
68001W        W40261  10.371  23.211   1.437
68002W        W40262  24.006   0.849   1.558
68003W        W40263  13.900   8.518  13.453
68004W        W40264  31.515  36.819   1.117
68005W        W40265   0.286  30.080   2.602
68006W        W40266  17.302  36.118  10.577
68007W        W40267  15.169  14.408   1.902
68008W        W40268  25.998  41.191  14.890
68009W        W40269  22.234   5.271  14.448
68010W        W40270   6.389  13.928  10.956
68011W        W40271  34.544  11.755   4.964
68012W        W40272  21.707  16.246  13.829
68013W        W40273  12.687  32.020   5.137
68014W        W40274  17.233  33.090   1.467
68015W        W40275   9.953  18.469  13.413
68016W        W40276  16.379  43.705  14.865
68017W        W40277  13.693  25.931   4.167
68018W        W40278   9.696  14.247  12.833
68019W        W40279  11.913  31.389   2.165
68020W        W40280  25.733  33.848  11.489
68021W        W40281  18.652  26.529  12.407
68022W        W40282   5.119   6.290   1.871
68023W        W40283  20.978  21.040  10.726
68024W        W40284  15.349  12.055  13.497
68025W        W40285  10.841  41.806  14.032
68026W        W40286  40.765  36.993  12.949
68027W        W40287  41.815  29.447  13.706
68028W        W40288  27.412   9.668  11.477
68029W        W40289  17.363  24.112   4.117
68030W        W40290  14.793  34.786   3.424
68031W        W40291   8.127  38.271  14.385
68032W        W40292  32.645  10.240  10.624
68033W        W40293   3.296   7.436   3.221
68034W        W40294  37.900  29.962  12.336
68035W        W40295  28.585  35.536  10.708
68036W        W40296   1.424  21.467   2.677
68037W        W40297  40.035  24.542   0.380
68038W        W40298  40.260  33.381   4.617
68039W        W40299  40.821  40.865   0.726
68040W        W40300  20.165  11.190   0.724
68041W        W40301   9.458   2.839  12.249
68042W        W40302   2.312  15.546   1.925
68043W        W40303  23.035  23.758  12.489
68044W        W40304  44.192  37.304  11.226
68045W        W40305  38.569  13.183   4.144
68046W        W40306  28.572  16.310   0.912
68047W        W40307  35.042  13.393   1.837
68048W        W40308  25.397   7.487   4.156
68049W        W40309  38.335  34.361  13.031
68050W        W40310  37.363  34.070   4.654
68051W        W40311   5.863  37.582  13.877
68052W        W40312  14.850  38.014   0.550
68053W        W40313   4.259  13.698   3.160
68054W        W40314   8.823  16.878  14.456
68055W        W40315  25.765  24.727  11.231
68056W        W40316  33.850  34.460  11.958
68057W        W40317   5.294  13.439  11.911
68058W        W40318  28.234  16.620  10.966
68059W        W40319   6.865  41.151  14.965
68060W        W40320  21.644  23.785   4.132
68061W        W40321   0.835   7.716  12.543
68062W        W40322  23.623  24.011  12.236
68063W        W40323   7.861   3.433   1.515
68064W        W40324   5.222   7.554   1.973
68065W        W40325  39.321   9.845  12.285
68066W        W40326  44.866  32.311  13.354
68067W        W40327  29.151  12.143   1.121
68068W        W40328   7.102  20.376   3.808
68069W        W40329   9.399  31.597  12.552
68070W        W40330   0.254  18.607   1.786
68071W        W40331  31.926  22.981   2.505
68072W        W40332  34.366  19.638  14.476
68073W        W40333  18.230   0.820   3.818
68074W        W40334   5.417  39.413  11.955
68075W        W40335  16.541  38.439   0.504
68076W        W40336  24.916  14.727  14.549
68077W        W40337   3.443  24.655   3.650
68078W        W40338  38.308   4.439   4.013
68079W        W40339   3.314   5.251   0.316
68080W        W40340  24.178   9.387   0.087
68081W        W40341  28.868  16.933  12.494
68082W        W40342  11.475  11.130   0.747
68083W        W40343  15.116  42.469   0.957
68084W        W40344  43.788   2.242  13.554
68085W        W40345  38.759  17.019  13.167
68086W        W40346  32.502   5.698  12.506
68087W        W40347   2.269  25.828   0.741
68088W        W40348   5.201  28.493  12.099
68089W        W40349  42.627  29.627  11.888
68090W        W40350  14.828   7.597   3.151
68091W        W40351   1.287   6.378   2.346
68092W        W40352  22.329  28.538  11.834
68093W        W40353  19.195   8.155  13.915
68094W        W40354   2.337  33.971  13.896
68095W        W40355   9.836  39.083   2.216
68096W        W40356  37.814  25.188   1.908
68097W        W40357  34.520  39.753  13.434
68098W        W40358  31.685   1.913   2.659
68099W        W40359  43.742  34.918  13.763
68100W        W40360   2.822  34.433  13.645
68101W        W40361  43.961  25.124  10.424
68102W        W40362  42.799  42.056   2.858
68103W        W40363  27.388  38.002  11.681
68104W        W40364  12.149  25.260   1.732
68105W        W40365   0.468  27.981   1.644
68106W        W40366  35.948  20.026  14.091
68107W        W40367  36.976  41.958  14.079
68108W        W40368  18.337   0.343  11.091
68109W        W40369  25.986   3.012   0.828
68110W        W40370  35.164  32.186  12.018
68111W        W40371   4.835  30.281  14.785
68112W        W40372  36.332  28.520   0.846
68113W        W40373   0.915  18.918   0.655
68114W        W40374  32.288  26.615  10.006
68115W        W40375  18.775  41.027  13.064
68116W        W40376  36.293  24.531  14.966
68117W        W40377  24.315  36.887   2.753
68118W        W40378  36.235  12.160  13.842
68119W        W40379  40.220   3.383   4.181
68120W        W40380  39.544   0.692   1.556
68121W        W40381  26.649  39.117   4.128
68122W        W40382  43.896  43.884   2.343
68123W        W40383  28.806  19.293   3.259
68124W        W40384   9.925  19.441  11.604
68125W        W40385  15.867  19.127   2.845
68126W        W40386  16.872  21.102  10.123
68127W        W40387  13.367  35.391   4.803
68128W        W40388  24.601  20.279  13.973
68129W        W40389   5.285  14.625  13.864
68130W        W40390   1.701   6.855  14.344
68131W        W40391   1.072   1.923  12.130
68132W        W40392  34.484  26.698   0.898
68133W        W40393  26.666   3.311   3.672
68134W        W40394  38.025   5.295  10.701
68135W        W40395  44.366  36.734   1.456
68136W        W40396  11.334  24.121  11.549
68137W        W40397  32.791  15.699   2.422
68138W        W40398   1.202   9.363   1.336
68139W        W40399  18.639   5.962   1.890
68140W        W40400   4.019  13.818   0.821
68141W        W40401   3.245  22.614   1.906
68142W        W40402  21.952  31.288   0.457
68143W        W40403  31.072  23.109   3.751
68144W        W40404  41.303  21.756   2.335
68145W        W40405  40.672  19.276   2.260
68146W        W40406  23.892  14.866   2.410
68147W        W40407  16.204   0.807   3.717
68148W        W40408  22.115  32.002  11.352
68149W        W40409  36.354  11.345   1.292
68150W        W40410   1.623  37.704   2.812
68151W        W40411  39.374  10.266  14.014
68152W        W40412  19.022  39.599   4.575
68153W        W40413  18.381  29.935   2.413
68154W        W40414   5.159   2.707   1.210
68155W        W40415  12.804  25.411  13.320
68156W        W40416  34.901  34.586   2.740
68157W        W40417  39.067  16.224  13.526
68158W        W40418   0.892  12.644  11.678
68159W        W40419   5.290  38.537  11.660
68160W        W40420  28.498   5.794   1.720
68161W        W40421   1.804  13.299   4.548
68162W        W40422  30.691  35.653   0.418
68163W        W40423  29.440  22.389  10.182
68164W        W40424  20.417   6.166  14.315
68165W        W40425  33.293  35.390   3.788
68166W        W40426   4.937  34.781  14.312
68167W        W40427   1.757   3.325  12.565
68168W        W40428  33.453  13.708  14.491
68169W        W40429  39.345  32.273  14.527
68170W        W40430  36.503  38.030  11.492
68171W        W40431  27.981  31.117   2.852
68172W        W40432  43.807  19.740  13.201
68173W        W40433   4.229  14.916  11.507
68174W        W40434  28.249   2.027  12.886
68175W        W40435  20.218  17.528  12.576
68176W        W40436  41.722  36.480   3.811
68177W        W40437   8.270  26.016   0.782
68178W        W40438  37.300  18.908   2.365
68179W        W40439  43.243  18.801  13.943
68180W        W40440  30.109  42.360   0.212
68181W        W40441  41.452  33.406  11.580
68182W        W40442  34.520  22.295   2.385
68183W        W40443  33.761  31.697   1.799
68184W        W40444   7.241  14.039  13.695
68185W        W40445  36.329  17.154   5.304
68186W        W40446  23.021  19.513  13.098
68187W        W40447  35.372   2.411  14.836
68188W        W40448  14.916  12.586   3.302
68189W        W40449  17.239  15.210  13.748
68190W        W40450  42.614  26.608  11.234
68191W        W40451  32.108  15.710  12.490
68192W        W40452  32.010  20.044  14.958
68193W        W40453  42.356   9.327  11.008
68194W        W40454  31.115  22.994  12.876
68195W        W40455   0.320  28.590   0.379
68196W        W40456  36.752   3.769  13.909
68197W        W40457   2.643  21.903  12.367
68198W        W40458   6.995   9.271  14.403
68199W        W40459  19.902  17.114  11.310
68200W        W40460  35.179  23.007   2.990
68201W        W40461   7.553  43.395   0.814
68202W        W40462  40.785  26.527   2.646
68203W        W40463  33.673  26.461   4.644
68204W        W40464   1.378  39.164   1.598
68205W        W40465   5.068   7.449   0.081
68206W        W40466  34.595  24.060   2.748
68207W        W40467  18.975   1.364  14.032
68208W        W40468  21.069  14.514   2.210
68209W        W40469  13.104  27.640   4.542
68210W        W40470  42.502  12.369   0.771
68211W        W40471  34.818  22.112  11.715
68212W        W40472  24.501  25.693  10.979
68213W        W40473  38.073  13.923   2.668
68214W        W40474  33.497  39.552   0.270
68215W        W40475   6.988   5.292  13.497
68216W        W40476   6.839  24.977   1.917
68217W        W40477  32.517  34.961  11.621
68218W        W40478  13.645   0.756  14.529
68219W        W40479  29.167  25.334   4.115
68220W        W40480  33.843  29.894  13.855
68221W        W40481   9.280  24.317   3.262
68222W        W40482  38.891  17.485  12.979
68223W        W40483  25.768  42.082  11.212
68224W        W40484  39.293   6.175   2.061
68225W        W40485  21.794  14.389  13.287
68226W        W40486  41.241  28.235  14.264
68227W        W40487  29.498  44.443   1.378
68228W        W40488  22.972   7.469  12.699
68229W        W40489  40.230  34.089  14.018
68230W        W40490   0.259   5.199   0.633
68231W        W40491   6.318  27.540   3.913
68232W        W40492   7.885  27.629  10.177
68233W        W40493  27.880  31.944   5.006
68234W        W40494  37.986  21.530  12.912
68235W        W40495  37.978  39.482   2.624
68236W        W40496   8.420   7.744  14.029
68237W        W40497   9.189  25.118   3.613
68238W        W40498  26.458  19.820  14.337
68239W        W40499   0.816  32.576   3.555
68240W        W40500  36.162   5.789  11.112
68241W        W40501   4.666   4.966  14.922
68242W        W40502   6.687  14.388   1.869
68243W        W40503  42.457  44.036   4.561
68244W        W40504  32.547   1.382  10.376
68245W        W40505  29.204  13.272  11.806
68246W        W40506  28.072   8.599   0.319
68247W        W40507  41.793  28.077   2.742
68248W        W40508  29.632  22.613   1.815
68249W        W40509  32.885   1.764  11.550
68250W        W40510   8.442  25.528  13.471
68251W        W40511  32.629  31.913   1.221
68252W        W40512   1.734  17.976  11.653
68253W        W40513  40.221  24.944  13.814
68254W        W40514  35.585  12.911  13.855
68255W        W40515   4.726  15.729   1.391
68256W        W40516  26.507   3.982   4.139
68257W        W40517  14.638  41.039  11.580
68258W        W40518  16.078  12.044   2.459
68259W        W40519  14.944  35.126  10.219
68260W        W40520  16.671  34.343   1.346
68261W        W40521   3.839  41.154  13.504
68262W        W40522  41.818  30.885   0.507
68263W        W40523   9.162   8.524   2.688
68264W        W40524  23.925  31.365  10.498
68265W        W40525  35.930  26.059  13.331
68266W        W40526  20.422   2.910   4.914
68267W        W40527  38.825  37.129  12.861
68268W        W40528  37.275   7.405   4.939
68269W        W40529   6.781  28.580   3.198
68270W        W40530  36.813   8.680  14.018
68271W        W40531  43.756  28.959   4.420
68272W        W40532   6.283  36.632   3.210
68273W        W40533  20.252  17.700   4.027
68274W        W40534   2.370  10.467  13.980
68275W        W40535  43.151  25.844  12.117
68276W        W40536  24.215  21.047  11.070
68277W        W40537   2.939  11.682   1.735
68278W        W40538  42.440  37.831   4.507
68279W        W40539  35.397   5.270   4.115
68280W        W40540  14.565  11.291   2.710
68281W        W40541  36.057  31.616  13.047
68282W        W40542  24.266   0.966   3.489
68283W        W40543  35.948  10.549  10.418
68284W        W40544   9.517  22.121  11.987
68285W        W40545  29.977  32.607  12.873
68286W        W40546  16.838   0.909  12.833
68287W        W40547  13.194  32.202  12.933
68288W        W40548  39.069  30.139   0.715
68289W        W40549   5.296  22.935  13.916
68290W        W40550  10.778  16.755   0.669
68291W        W40551  38.361  24.094   2.355
68292W        W40552  14.660  35.967   0.324
68293W        W40553  44.008   7.707   4.846
68294W        W40554  25.981  37.078  13.497
68295W        W40555  39.968  22.048   1.995
68296W        W40556   4.106   0.052   2.958
68297W        W40557  42.743  32.502   1.350
68298W        W40558  28.419   7.596  11.472
68299W        W40559  33.352   9.014   2.128
68300W        W40560  12.709   2.862  12.025
68301W        W40561   2.796  34.527   4.436
68302W        W40562   0.740   2.393  11.440
68303W        W40563   5.941  25.384   0.834
68304W        W40564  38.838  38.845  10.432
68305W        W40565  31.423   0.289   4.775
68306W        W40566   9.947   3.494  11.829
68307W        W40567  13.709  21.489  10.580
68308W        W40568   3.002  23.134  10.609
68309W        W40569   2.114  41.328  14.286
68310W        W40570   5.474  21.171  11.263
68311W        W40571  21.664   8.344   0.696
68312W        W40572   9.244   1.720  14.056
68313W        W40573  28.559  37.447   5.036
68314W        W40574   9.785  12.777  14.072
68315W        W40575  29.116  28.355  14.107
68316W        W40576  34.422  14.864   1.452
68317W        W40577  20.328  21.216  10.118
68318W        W40578  22.701   4.599  14.981
68319W        W40579  15.598   2.732  12.158
68320W        W40580  24.403   8.792   0.970
68321W        W40581  29.846   6.722   0.016
68322W        W40582   9.172  35.003   2.781
68323W        W40583  24.647  33.830  11.985
68324W        W40584  23.785  18.469  11.354
68325W        W40585   9.806  43.896   1.761
68326W        W40586  19.026  25.164  13.393
68327W        W40587  25.632   8.602   0.229
68328W        W40588  31.485  11.251  11.174
68329W        W40589  23.250  12.388   2.409
68330W        W40590  26.196   9.788   1.985
68331W        W40591  44.339  36.291   5.020
68332W        W40592   2.284  37.107  13.091
68333W        W40593   8.277   7.738   0.368
68334W        W40594   1.914  22.522   2.203
68335W        W40595  11.148  15.267  10.737
68336W        W40596  36.259  24.808  11.357
68337W        W40597  20.295   5.817  11.119
68338W        W40598   4.950  19.991  11.523
68339W        W40599  25.625  38.834   3.331
68340W        W40600  44.894  20.005  14.432
68341W        W40601  39.006  43.768  14.952
68342W        W40602  28.629  13.355   0.759
68343W        W40603  21.528  39.892   0.035
68344W        W40604   5.211  30.499  14.369
68345W        W40605   4.330   2.690  10.680
68346W        W40606  21.379  20.113   1.178
68347W        W40607  13.825  12.807   2.924
68348W        W40608  14.172  30.186   2.616
68349W        W40609  37.285  14.861   2.875
68350W        W40610  25.586  41.559  11.536
68351W        W40611  21.303   7.824   1.891
68352W        W40612  35.349  35.533  13.439
68353W        W40613  35.352  42.272  13.027
68354W        W40614  32.647  41.897  10.599
68355W        W40615  34.120  33.637  14.507
68356W        W40616   3.810  20.526   2.744
68357W        W40617   8.364  23.029  11.967
68358W        W40618  38.614   8.799  12.660
68359W        W40619  19.523  38.742   9.805
68360W        W40620  40.821  22.595   2.170
68361W        W40621  36.859  14.669   3.127
68362W        W40622  18.354  29.676  14.309
68363W        W40623  40.262   0.416  14.431
68364W        W40624   3.886  11.229  11.648
68365W        W40625  29.438  39.956   1.116
68366W        W40626  31.351   1.955  12.627
68367W        W40627  22.085  30.187  13.192
68368W        W40628  37.525  22.914   2.458
68369W        W40629  17.594  22.561  11.525
68370W        W40630  34.046  28.987  13.431
68371W        W40631  42.705   3.985  12.509
68372W        W40632  17.566  21.216   0.008
68373W        W40633  38.796  12.830   2.833
68374W        W40634  34.313  36.475   0.293
68375W        W40635   1.371  43.175  14.204
68376W        W40636  28.922   1.900   0.013
68377W        W40637  35.959   2.462  13.414
68378W        W40638  32.384  17.309  11.609
68379W        W40639  35.569  13.696  14.509
68380W        W40640  38.777   1.387   4.874
68381W        W40641  42.961  31.144   3.423
68382W        W40642  31.138  33.450  11.609
68383W        W40643  26.057   0.019   4.745
68384W        W40644  16.037  29.008   0.519
68385W        W40645   5.431  24.122   2.234
68386W        W40646  42.531  37.380   4.260
68387W        W40647  18.052   3.352  11.486
68388W        W40648  31.390  40.496  11.414
68389W        W40649  42.003  39.819  14.359
68390W        W40650  24.113  32.915   0.017
68391W        W40651  19.270  21.346  11.028
68392W        W40652  19.585   0.758   2.662
68393W        W40653   3.812  15.512   2.824
68394W        W40654  39.071   6.624  14.743
68395W        W40655   1.677  25.294  10.641
68396W        W40656  23.277  14.128   1.804
68397W        W40657  34.391  30.134   3.180
68398W        W40658   1.859  23.760   0.716
68399W        W40659  28.574  36.059  13.002
68400W        W40660   4.683  13.219  10.863
68401W        W40661  42.605  42.334   0.784
68402W        W40662  39.607  17.818   4.088
68403W        W40663  35.940  28.604  11.647
68404W        W40664  43.004  12.711   3.667
68405W        W40665  33.502  29.574  10.726
68406W        W40666  30.654   5.453   0.718
68407W        W40667  24.252  27.188   2.289
68408W        W40668  18.511  32.807   0.923
68409W        W40669  21.015   5.930  14.253
68410W        W40670  24.533  15.189   4.064
68411W        W40671  27.623  41.948  10.582
68412W        W40672  34.983   1.236  12.542
68413W        W40673  30.162   8.319   4.487
68414W        W40674  23.333  39.427  14.476
68415W        W40675  28.435  37.787   3.776
68416W        W40676  29.643  13.403  12.019
68417W        W40677  38.410  28.740   2.088
68418W        W40678  38.394  39.354  14.102
68419W        W40679  27.076  14.187   3.589
68420W        W40680  24.770  28.087  12.625
68421W        W40681  16.780  34.856  12.862
68422W        W40682  22.702  34.612  13.019
68423W        W40683  14.400  34.466   1.637
68424W        W40684  23.678  20.470  10.364
68425W        W40685  36.272   7.248   2.715
68426W        W40686  13.797  26.604  11.508
68427W        W40687  17.321  37.309  14.268
68428W        W40688   9.080  28.175  10.928
68429W        W40689  29.658  32.470   0.190
68430W        W40690   3.485  39.794  13.285
68431W        W40691  26.627  42.381   4.707
68432W        W40692  33.498  37.330  14.988
68433W        W40693   6.882  17.204   4.619
68434W        W40694  21.710  43.580  10.806
68435W        W40695  41.445   5.352   4.581
68436W        W40696  31.020  44.713   1.464
68437W        W40697  38.508  41.887  11.208
68438W        W40698  38.952  16.036   3.141
68439W        W40699   4.479   1.023   3.765
68440W        W40700   6.185  25.053   4.189
68441W        W40701  43.020  13.702  14.717
68442W        W40702   2.329   7.921  14.840
68443W        W40703  30.023  12.588  12.074
68444W        W40704  12.545  17.560  11.874
68445W        W40705  29.017  40.263   1.046
68446W        W40706  39.923  37.431   1.774
68447W        W40707  37.934  14.960  13.820
68448W        W40708  18.108   9.311  13.300
68449W        W40709  24.462  15.714   2.329
68450W        W40710  15.696  41.010   4.953
68451W        W40711   0.315  11.843  14.091
68452W        W40712  31.709   2.832   4.319
68453W        W40713  31.149  37.926  13.757
68454W        W40714   9.142  28.532   4.220
68455W        W40715  20.347  30.573   4.925
68456W        W40716   9.784  34.488  13.311
68457W        W40717  28.448   0.837  10.609
68458W        W40718  11.821   8.017   4.323
68459W        W40719  31.597  28.720  14.779
68460W        W40720   6.959  25.146   3.727
68461W        W40721   5.731  44.479  12.636
68462W        W40722  20.127  34.423   3.146
68463W        W40723   7.879  17.329  13.973
68464W        W40724  19.779  38.098  12.786
68465W        W40725  44.448  16.597  13.620
68466W        W40726   0.831  36.893  14.818
68467W        W40727  15.073  11.841  10.566
68468W        W40728  41.745  33.371  11.094
68469W        W40729  40.524  23.691  13.098
68470W        W40730  36.908  29.952  13.962
68471W        W40731  25.806   4.849  11.415
68472W        W40732  33.007  27.690   1.248
68473W        W40733  28.559   2.298  12.087
68474W        W40734  11.095  10.355  11.497
68475W        W40735  19.291  20.969  13.508
68476W        W40736  21.703  38.986   3.893
68477W        W40737  32.920   7.308   1.188
68478W        W40738   9.778  39.958   1.345
68479W        W40739   8.599   4.389   1.721
68480W        W40740  29.147   2.765   4.243
68481W        W40741   1.071   1.921  10.204
68482W        W40742  28.103  25.976  11.852
68483W        W40743   0.260  23.595   4.781
68484W        W40744  25.875   9.109   2.665
68485W        W40745  24.014  41.554   1.667
68486W        W40746  28.560  14.737  11.627
68487W        W40747  42.539  10.793   3.372
68488W        W40748   9.314  21.072   0.867
68489W        W40749  42.808  43.496  14.275
68490W        W40750  40.577   1.732   4.661
68491W        W40751  34.397  17.812  13.945
68492W        W40752  14.846  17.094   2.294
68493W        W40753  25.446   8.141  14.503
68494W        W40754  44.524  31.492   1.782
68495W        W40755  32.090  13.310   2.821
68496W        W40756   9.886  36.288  12.999
68497W        W40757   9.110  20.146   4.271
68498W        W40758  34.961  36.904   2.769
68499W        W40759  21.444  34.149  14.276
68500W        W40760  30.996  23.795   0.884
68501W        W40761   8.186  33.556  13.352
68502W        W40762   8.719  19.089  11.675
68503W        W40763   1.151  41.129   1.300
68504W        W40764  41.260  15.531  13.423
68505W        W40765  20.135  38.501  11.178
68506W        W40766  29.036  14.589   1.625
68507W        W40767  20.199  16.968   4.632
68508W        W40768  16.769  21.511   0.771
68509W        W40769  40.118  39.807   1.472
68510W        W40770   4.833  36.618   3.189
68511W        W40771  15.661  39.581   0.018
68512W        W40772  21.203  16.871  12.469
68513W        W40773   7.161  33.850  13.036
68514W        W40774  16.950  23.019   4.182
68515W        W40775   0.187  19.011   2.286
68516W        W40776  31.992  41.835  11.161
68517W        W40777   2.563   0.937  12.088
68518W        W40778  10.383  17.206  12.466
68519W        W40779  35.497  17.411   0.827
68520W        W40780   7.300  12.597   1.777
68521W        W40781   9.686  27.162   4.578
68522W        W40782  21.581  44.808  14.080
68523W        W40783  41.926  30.773   4.349
68524W        W40784  42.028  37.576   4.257
68525W        W40785  11.932  33.507  10.694
68526W        W40786   5.969  43.483  12.762
68527W        W40787  12.265   4.506   0.052
68528W        W40788   3.447  34.988   4.978
68529W        W40789  29.529  31.007   3.792
68530W        W40790  10.234  33.748  13.379
68531W        W40791  41.024  21.127  13.597
68532W        W40792   1.532  36.035   3.151
68533W        W40793  40.798  33.809   1.384
68534W        W40794  23.991  12.584  13.419
68535W        W40795  18.956  18.656  13.047
68536W        W40796  25.200  21.271   0.921
68537W        W40797   6.902  37.106  13.526
68538W        W40798  12.996  40.759   4.183
68539W        W40799  35.023  42.069   1.454
68540W        W40800  31.589  10.709   0.985
68541W        W40801  30.122  19.200   4.601
68542W        W40802  29.066  11.432   4.717
68543W        W40803   7.821  19.159  12.793
68544W        W40804   8.650  24.185   0.799
68545W        W40805  29.954  33.957  11.671
68546W        W40806  27.970   2.602   2.455
68547W        W40807  37.623  39.987  14.935
68548W        W40808  37.113  10.617   1.791
68549W        W40809  11.814  15.674  10.681
68550W        W40810  25.538  37.564  10.993
68551W        W40811  30.436  43.099  10.429
68552W        W40812  35.084  38.890   0.316
68553W        W40813  15.180  27.757   1.888
68554W        W40814   1.036  42.252  13.794
68555W        W40815   0.977  12.134   2.285
68556W        W40816  27.783  29.411  11.978
68557W        W40817  22.487  33.900   3.646
68558W        W40818  22.114  25.276   3.765
68559W        W40819  24.788  12.928  14.479
68560W        W40820  10.606  22.223   2.394
68561W        W40821  29.997   6.905  12.379
68562W        W40822  13.360   5.274   3.775
68563W        W40823   9.929  38.091  10.965
68564W        W40824  26.142  44.734  14.952
68565W        W40825  22.633   3.679  12.992
68566W        W40826  23.821  16.804   1.459
68567W        W40827   1.367  22.253  13.367
68568W        W40828  43.319  19.767   0.880
68569W        W40829  40.915   7.944   0.984
68570W        W40830  39.394   9.877  13.272
68571W        W40831  31.353  41.289   3.824
68572W        W40832  38.877   5.836   4.238
68573W        W40833  39.396  11.701   1.704
68574W        W40834  32.083  39.493   1.144
68575W        W40835  20.866  31.111  14.970
68576W        W40836  35.536  32.421   2.564
68577W        W40837  14.259  42.982  10.318
68578W        W40838   5.766   5.644   3.833
68579W        W40839   7.226  35.071   4.877
68580W        W40840  20.587   1.563   3.653
68581W        W40841  42.498   4.373  10.914
68582W        W40842  33.945  21.006  12.484
68583W        W40843  36.737  35.917   1.788
68584W        W40844  27.460  42.813  13.418
68585W        W40845  17.488  12.763   0.930
68586W        W40846  27.553   4.159  13.377
68587W        W40847  17.737   1.515   1.451
68588W        W40848  42.530  25.137  14.332
68589W        W40849  32.265   5.929   4.178
68590W        W40850  16.344  16.131   2.335
68591W        W40851   6.831  33.406  14.313
68592W        W40852  24.623  36.798   3.202
68593W        W40853  44.196   9.024   3.825
68594W        W40854  23.194  36.894  11.624
68595W        W40855  12.914  29.134   0.620
68596W        W40856  14.224  35.542  14.417
68597W        W40857  26.778  16.115  14.806
68598W        W40858  24.923  15.977   0.178
68599W        W40859  29.625   0.195   1.800
68600W        W40860  38.544  18.703   3.668
68601W        W40861   8.228  11.293   1.342
68602W        W40862  17.289  24.778  12.535
68603W        W40863   7.907  12.348   2.735
68604W        W40864   9.611  29.012   1.794
68605W        W40865  10.919  35.464   2.803
68606W        W40866   2.355  40.924   2.295
68607W        W40867   7.289  13.148  14.192
68608W        W40868  37.110  21.491  13.010
68609W        W40869   8.141  36.942  12.924
68610W        W40870  37.599   7.647   1.392
68611W        W40871  31.506  17.754   3.215
68612W        W40872  38.885  17.993   4.622
68613W        W40873  37.014  44.980   3.537
68614W        W40874  26.455  29.024  11.113
68615W        W40875  41.417  26.538   4.593
68616W        W40876  10.318  12.254   1.932
68617W        W40877  25.069  36.991  12.570
68618W        W40878  23.561  33.527  11.964
68619W        W40879  11.335   9.133   2.140
68620W        W40880  10.752  26.838   1.221
68621W        W40881  36.568  44.211  13.887
68622W        W40882  25.606  35.472   3.925
68623W        W40883   1.887  15.707  11.611
68624W        W40884  38.499  18.555   0.259
68625W        W40885  29.565  18.498  12.915
68626W        W40886  32.915  17.605  13.956
68627W        W40887  33.873  15.918   3.091
68628W        W40888  11.729  19.104   3.080
68629W        W40889  27.941  37.093   4.159
68630W        W40890   3.541  30.067   4.139
68631W        W40891   2.531   3.827   2.751
68632W        W40892  29.906  22.349   1.462
68633W        W40893  43.387  11.820   0.415
68634W        W40894  33.012  10.307   4.974
68635W        W40895  11.610  17.274  14.744
68636W        W40896  33.110   0.521  12.010
68637W        W40897  26.139  18.537  11.526
68638W        W40898  35.220  43.818   1.516
68639W        W40899  30.074  32.049  12.021
68640W        W40900  12.197   7.947   3.761
68641W        W40901   1.329  24.935   1.390
68642W        W40902  43.099  16.145   2.345
68643W        W40903  29.152  37.089  12.981
68644W        W40904  43.073   2.263  13.161
68645W        W40905   1.954  40.790  13.530
68646W        W40906  37.031  34.158  11.140
68647W        W40907  23.767  10.004  12.551
68648W        W40908   2.123  36.543  14.290
68649W        W40909  37.000  37.444  12.054
68650W        W40910   5.798   5.478   1.025
68651W        W40911  23.449  34.464  11.180
68652W        W40912   2.289  24.953  13.141
68653W        W40913  38.057  37.872  13.938
68654W        W40914   5.247   2.618  10.683
68655W        W40915  33.005  28.856   2.658
68656W        W40916  42.908  25.191   2.184
68657W        W40917   4.492  13.960  14.427
68658W        W40918  24.736  34.903  11.160
68659W        W40919  37.630  11.523   2.292
68660W        W40920  16.383   7.607   9.907
68661W        W40921  33.944  15.069   1.291
68662W        W40922  41.792  25.096   0.406
68663W        W40923  20.448  40.352   3.116
68664W        W40924  38.316  18.869  13.939
68665W        W40925  42.589   5.834   2.272
68666W        W40926  33.363  14.107   1.757
68667W        W40927   2.684  43.737   4.026
68668W        W40928  27.218  12.394   3.263
68669W        W40929  38.541  11.108  10.302
68670W        W40930  34.463  26.966   3.915
68671W        W40931  18.427  32.524   3.998
68672W        W40932  34.758  20.792   1.429
68673W        W40933  28.918  28.473   4.713
68674W        W40934  41.014  40.539  12.475
68675W        W40935  10.685  27.665   4.094
68676W        W40936  21.947  19.005   0.465
68677W        W40937  15.791  37.700  10.278
68678W        W40938  36.851  38.372   3.634
68679W        W40939  33.878  37.785   0.848
68680W        W40940  42.462   1.092  14.078
68681W        W40941   3.496   0.391  13.360
68682W        W40942  25.539  43.040   1.453
68683W        W40943  35.639  23.163  11.596
68684W        W40944  34.609  24.489   4.287
68685W        W40945  40.342  37.647   2.824
68686W        W40946  18.219  13.402  13.361
68687W        W40947  34.652  16.249  14.784
68688W        W40948  30.114  29.411  12.580
68689W        W40949  19.511   7.240  10.947
68690W        W40950  40.528  20.290   4.561
68691W        W40951  27.456  38.509  11.261
68692W        W40952   0.694  34.586  10.624
68693W        W40953  25.295  11.612  10.751
68694W        W40954  16.219  17.419   5.517
68695W        W40955   6.920  11.376  12.733
68696W        W40956  20.254  18.155   1.848
68697W        W40957  41.323  38.635   0.752
68698W        W40958  34.470  39.890   3.210
68699W        W40959   6.051  29.584  11.591
68700W        W40960   7.622   3.999   4.137
68701W        W40961   6.406  29.483   2.768
68702W        W40962  21.171  43.493  13.022
68703W        W40963  44.058  19.048  13.954
68704W        W40964  40.516  36.554  11.000
68705W        W40965  32.872   6.812  12.333
68706W        W40966  36.403  14.096  13.633
68707W        W40967  43.353  15.606  12.455
68708W        W40968  27.502  18.117  14.988
68709W        W40969  41.714  15.756  14.250
68710W        W40970  18.402  12.228  12.433
68711W        W40971  36.434  39.320  14.451
68712W        W40972  38.458  30.505  10.820
68713W        W40973   5.800  43.072  10.648
68714W        W40974  31.970  26.549   4.380
68715W        W40975  17.520  17.272  11.043
68716W        W40976  20.595  13.301  13.333
68717W        W40977  29.927  41.957  12.911
68718W        W40978  26.255   0.715  11.805
68719W        W40979  30.197  44.393   2.465
68720W        W40980   5.291  22.068   3.632
68721W        W40981  28.151  36.471   4.821
68722W        W40982   9.284   3.396   4.585
68723W        W40983  30.820  23.554  10.607
68724W        W40984  19.110   8.057   1.575
68725W        W40985  40.404  43.227  10.237
68726W        W40986  21.797   8.873  12.555
68727W        W40987  36.520  28.616   1.708
68728W        W40988  42.368  23.587   2.739
68729W        W40989  18.047   0.494  10.692
68730W        W40990  14.005   3.267  12.117
68731W        W40991  32.840  37.559  10.720
68732W        W40992  11.320  29.887  12.047
68733W        W40993  14.140  25.142   0.158
68734W        W40994  25.113   3.217  11.239
68735W        W40995  16.027  16.167   3.536
68736W        W40996   8.134  15.041   4.300
68737W        W40997  40.050  26.623   3.251
68738W        W40998  38.459  33.529   3.937
68739W        W40999   8.890  43.949  10.456
68740W        W41000  40.512  43.600  12.037
68741W        W41001  14.319  34.278  14.306
68742W        W41002  17.107   5.812   2.333
68743W        W41003  34.312  32.969  11.482
68744W        W41004   9.423   6.889   2.332
68745W        W41005  44.491  20.262  13.462
68746W        W41006  14.856  41.004  12.853
68747W        W41007  36.771  17.692  14.467
68748W        W41008  42.148  18.865   0.421
68749W        W41009   2.321  17.753  12.950
68750W        W41010  32.549   1.068   2.828
68751W        W41011   0.298  21.110  12.763
68752W        W41012  21.559   1.875  12.632
68753W        W41013  24.760  44.220   1.886
68754W        W41014  16.553  13.039  13.685
68755W        W41015  34.625  42.333  14.690
68756W        W41016  27.125  22.771   4.194
68757W        W41017   4.444  12.853  12.012
68758W        W41018  32.462  44.611   0.251
68759W        W41019  20.524   2.655  12.667
68760W        W41020   0.496  26.212  12.368
68761W        W41021  40.558   2.545   1.269
68762W        W41022  35.440  25.366  12.410
68763W        W41023  27.970   6.843   1.352
68764W        W41024  29.024  41.255   3.663
68765W        W41025  33.999  39.640   4.265
68766W        W41026  12.854  20.234  10.866
68767W        W41027  34.800  35.134  13.157
68768W        W41028  38.360  10.503  13.989
68769W        W41029  38.143  12.103   3.515
68770W        W41030   4.971  35.982  11.123
68771W        W41031  38.497  12.639  10.679
68772W        W41032  16.144  11.709  11.974
68773W        W41033  35.918  25.032  13.151
68774W        W41034  41.009  43.460  14.115
68775W        W41035  44.747   6.543   4.573
68776W        W41036  10.853  10.601   1.741
68777W        W41037  37.899  35.816   2.842
68778W        W41038  39.748  15.250   4.433
68779W        W41039  24.772  27.747  12.188
68780W        W41040  38.964  11.879   0.575
68781W        W41041   0.492   8.287   2.207
68782W        W41042   1.973   2.643  14.843
68783W        W41043  44.924  44.628   4.085
68784W        W41044  12.399   6.864   2.788
68785W        W41045   1.542  25.801  11.028
68786W        W41046  25.626   0.023  13.327
68787W        W41047  30.610  37.082  13.927
68788W        W41048  27.057  44.957  10.648
68789W        W41049  25.160  29.215  12.107
68790W        W41050  16.678   8.798   0.631
68791W        W41051  34.555  40.847   0.702
68792W        W41052   2.589  21.363   4.581
68793W        W41053  39.254  22.247  11.823
68794W        W41054  35.433   3.186  14.545
68795W        W41055   3.159  26.279  11.168
68796W        W41056  31.805  39.856   1.929
68797W        W41057  20.440  22.278   4.140
68798W        W41058   8.854  40.686   2.741
68799W        W41059  28.127  43.821   4.660
68800W        W41060   6.122  29.834   2.992
68801W        W41061  33.905  34.613  13.335
68802W        W41062  25.439   3.730   3.559
68803W        W41063  36.379   4.828   3.359
68804W        W41064  19.061  40.315  12.614
68805W        W41065  22.563  17.763   4.638
68806W        W41066  36.563  25.448   2.285
68807W        W41067  36.004  21.211   0.947
68808W        W41068  17.265   0.133  11.842
68809W        W41069  43.968  21.296   0.402
68810W        W41070  10.084   9.669   0.794
68811W        W41071   6.323   0.978   3.526
68812W        W41072  18.760   4.154   4.655
68813W        W41073   5.614  43.971  12.476
68814W        W41074  43.805  35.515   1.562
68815W        W41075  43.100  12.372  12.482
68816W        W41076  39.575  40.921   1.383
68817W        W41077  28.794  34.530  11.231
68818W        W41078   7.429  10.811   1.433
68819W        W41079  25.616   0.296  14.294
68820W        W41080   2.411  20.204  12.459
68821W        W41081  44.365   3.456   4.405
68822W        W41082   1.787   5.923  13.310
68823W        W41083  11.659  38.542   2.352
68824W        W41084  14.744  36.940  14.059
68825W        W41085  20.092  37.401   2.846
68826W        W41086  20.132   7.722   9.774
68827W        W41087  19.662  14.303  10.233
68828W        W41088  24.871   7.846   0.842
68829W        W41089  35.382  18.671   0.913
68830W        W41090  39.946  19.336  12.476
68831W        W41091  28.260  12.393  12.870
68832W        W41092  20.142  44.502   4.685
68833W        W41093   3.372  38.357  11.493
68834W        W41094  37.037  40.601  11.468
68835W        W41095  38.477  18.182  12.606
68836W        W41096   4.845   1.049  13.114
68837W        W41097  32.431  30.029   3.748
68838W        W41098  40.340  23.617  11.217
68839W        W41099  19.287  36.545   0.426
68840W        W41100  37.455  26.198   1.919
68841W        W41101  13.830   1.608  11.107
68842W        W41102  22.111  17.067   3.487
68843W        W41103  44.402  43.866   2.191
68844W        W41104  18.154  29.205  11.451
68845W        W41105  30.427  21.723  13.796
68846W        W41106  44.757  44.088  12.538
68847W        W41107  14.575  13.795   9.808
68848W        W41108  43.305  28.166  12.847
68849W        W41109  41.955  28.992   1.303
68850W        W41110  22.428  35.486  14.789
68851W        W41111   2.878   1.850   3.846
68852W        W41112  28.937  10.708   4.535
68853W        W41113   6.484  30.903  11.511
68854W        W41114  43.602  39.546  13.069
68855W        W41115  17.671  35.523  12.923
68856W        W41116  36.886   3.730   4.158
68857W        W41117  41.962  38.339  12.184
68858W        W41118  10.810  34.100   3.045
68859W        W41119  32.930  44.804   4.210
68860W        W41120  34.518  13.680  11.150
68861W        W41121   2.837   0.214   4.516
68862W        W41122  22.931  23.167   0.488
68863W        W41123  30.428  10.681   3.919
68864W        W41124   9.175  44.337   2.339
68865W        W41125  41.923  20.538   2.362
68866W        W41126  10.617  25.583   0.423
68867W        W41127   7.948  36.028  14.363
68868W        W41128  19.961  22.617   2.597
68869W        W41129   2.405  40.374  14.468
68870W        W41130  25.685  27.071   3.505
68871W        W41131  35.371  29.370   4.516
68872W        W41132   0.001  28.177  13.859
68873W        W41133  24.085  18.575   5.292
68874W        W41134   1.458  22.220  12.193
68875W        W41135   1.013  24.544  12.430
68876W        W41136  39.042  29.556   1.431
68877W        W41137   0.907  39.826   2.231
68878W        W41138  20.117  31.675   0.980
68879W        W41139   8.006  33.807   2.780
68880W        W41140   2.358  39.101   3.263
68881W        W41141  37.023  36.037  13.793
68882W        W41142   5.806  33.038   4.078
68883W        W41143  33.367  22.538  11.564
68884W        W41144  39.439   8.236  13.305
68885W        W41145  43.504  44.381   0.722
68886W        W41146   4.993  35.664  12.957
68887W        W41147   8.642   6.996   2.948
68888W        W41148  33.648  22.587  13.952
68889W        W41149  24.023  33.792  14.428
68890W        W41150   3.853   5.710   4.599
68891W        W41151  18.270  19.466  14.718
68892W        W41152  31.923  12.249  14.964
68893W        W41153  28.228  22.613   1.489
68894W        W41154  22.422  31.220   1.290
68895W        W41155   6.858  34.035  11.676
68896W        W41156  41.859  37.390   3.807
68897W        W41157  27.529  14.561   4.916
68898W        W41158  19.346  17.779  11.121
68899W        W41159  38.956   2.445  10.579
68900W        W41160  41.888  24.583  10.820
68901W        W41161  33.122  10.027  12.912
68902W        W41162   3.838   2.154  14.348
68903W        W41163  30.625  38.656  12.977
68904W        W41164  32.651  31.494   2.776
68905W        W41165   2.309   8.885  13.869
68906W        W41166  24.260  22.761  12.874
68907W        W41167  19.149   4.859  11.115
68908W        W41168  36.375  30.895   0.251
68909W        W41169  23.697  43.028  10.610
68910W        W41170   6.646  16.423   4.154
68911W        W41171  10.625   0.383  12.922
68912W        W41172  13.686  33.935  14.509
68913W        W41173  18.653  17.058   0.741
68914W        W41174  26.005   8.936  11.909
68915W        W41175  31.864   7.233   0.365
68916W        W41176  34.104  36.624   1.990
68917W        W41177  12.611  22.025   4.222
68918W        W41178   8.157  14.758  14.940
68919W        W41179   3.403  20.806  13.398
68920W        W41180  13.331   8.854   3.626
68921W        W41181  44.320  26.601   4.514
68922W        W41182  34.025  10.361  14.885
68923W        W41183  36.114  29.535   3.945
68924W        W41184  28.941  24.274   1.235
68925W        W41185  15.887   2.346   2.410
68926W        W41186  42.194  39.850   2.792
68927W        W41187   6.949  32.508   3.833
68928W        W41188  40.576  24.296  14.966
68929W        W41189  21.767  18.667   9.783
68930W        W41190  15.287   7.247  10.635
68931W        W41191  33.857  44.949  11.130
68932W        W41192   7.790  22.638   4.164
68933W        W41193  41.010  42.117   0.132
68934W        W41194  13.121  20.571  14.248
68935W        W41195   2.162  14.971  11.604
68936W        W41196  19.734   0.946  14.935
68937W        W41197  36.483  27.371  14.762
68938W        W41198  38.314  44.233  12.135
68939W        W41199  22.932  11.397  10.848
68940W        W41200   4.446  13.078  13.509
68941W        W41201  26.452  29.112  12.381
68942W        W41202  37.146  39.576   3.667
68943W        W41203  32.053  30.443  14.300
68944W        W41204  27.920  12.965   4.143
68945W        W41205  35.466  33.101   1.336
68946W        W41206  13.411  10.304   4.589
68947W        W41207  18.805  41.406  10.777
68948W        W41208  16.591  25.706   4.286
68949W        W41209  34.256   5.336   0.443
68950W        W41210  10.843   0.284   4.381
68951W        W41211  12.655   0.562  13.920
68952W        W41212  26.532  14.542   4.222
68953W        W41213  10.100  22.213   2.531
68954W        W41214   7.508  25.030  13.743
68955W        W41215  35.404  28.815   1.171
68956W        W41216  22.257  40.412  14.830
68957W        W41217  18.005  31.512   2.771
68958W        W41218  26.390  23.926  14.900
68959W        W41219  38.054   9.150  12.019
68960W        W41220  18.228  30.361  13.547
68961W        W41221  12.240  32.886   4.015
68962W        W41222  23.302  19.695   3.584
68963W        W41223  21.196   2.489   0.071
68964W        W41224  32.115   7.525  14.921
68965W        W41225  41.239  26.122  12.198
68966W        W41226  36.457  10.281  11.475
68967W        W41227  43.715   3.813  12.553
68968W        W41228  41.309   0.549  12.155
68969W        W41229  44.411  36.706   3.356
68970W        W41230  10.749   6.437  11.014
68971W        W41231  25.441  40.625  14.425
68972W        W41232   6.782  25.449  14.619
68973W        W41233  25.998  21.010   4.477
68974W        W41234  17.686  14.878   3.555
68975W        W41235  11.725  13.237  11.175
68976W        W41236  21.153  33.416  10.880
68977W        W41237   4.350  29.139  13.563
68978W        W41238  10.230   0.947   1.151
68979W        W41239   9.789  26.674   3.688
68980W        W41240   6.841  26.323  12.499
68981W        W41241  19.622  34.414   4.580
68982W        W41242  31.081  26.458   3.889
68983W        W41243   6.391  24.292  11.153
68984W        W41244  14.995   8.595   2.868
68985W        W41245  30.014  15.282  12.582
68986W        W41246  21.202   8.313   0.999
68987W        W41247  16.069  38.805  10.725
68988W        W41248   3.215  31.462   3.742
68989W        W41249   6.816  34.404  14.310
68990W        W41250   0.366  10.955   2.338
68991W        W41251  20.587  27.091  12.339
68992W        W41252  35.907  10.657  11.921
68993W        W41253  33.547  26.018   2.924
68994W        W41254  14.212  22.222   4.879
68995W        W41255  16.165  26.139   0.322
68996W        W41256  36.900  39.107   0.798
68997W        W41257  35.608  36.265  10.717
68998W        W41258  40.533  24.025   3.154
68999W        W41259  43.301  18.564   3.181
69000W        W41260   7.923  36.925   3.310
69001W        W41261  43.082  13.664  14.209
69002W        W41262  26.562   6.650  12.057
69003W        W41263  15.214  28.857   4.575
69004W        W41264   8.494  16.890   1.410
69005W        W41265  22.643  13.717  13.285
69006W        W41266  33.605  13.125  13.893
69007W        W41267  27.821  13.158   3.100
69008W        W41268  25.018  39.985   4.677
69009W        W41269  35.860  30.114  13.924
69010W        W41270  25.130  15.209  10.684
69011W        W41271  31.379  11.081   4.577
69012W        W41272   4.537  18.689  13.050
69013W        W41273  40.921  15.349  11.187
69014W        W41274   6.637  35.968  14.898
69015W        W41275  43.809  42.477   2.745
69016W        W41276  23.605   1.895  13.288
69017W        W41277  40.266  28.540  13.352
69018W        W41278   4.000  34.457   3.688
69019W        W41279  13.808  33.292   3.357
69020W        W41280  16.729  42.543   5.017
69021W        W41281  32.621  27.042   1.335
69022W        W41282   8.569  27.526  11.561
69023W        W41283  38.359  21.165  14.102
69024W        W41284  27.682  20.635   3.552
69025W        W41285  14.086  13.225   4.086
69026W        W41286  33.972  13.129  14.813
69027W        W41287   6.573  19.326  12.979
69028W        W41288  43.262   4.056  14.240
69029W        W41289  28.924  15.614  14.435
69030W        W41290  15.562  24.205  14.502
69031W        W41291   3.332  31.313   4.591
69032W        W41292  32.404   2.141  13.754
69033W        W41293  43.711  31.997   0.756
69034W        W41294  34.595  38.387   3.367
69035W        W41295  44.669  18.314  13.561
69036W        W41296   0.771  25.486   0.390
69037W        W41297  41.284  31.062  12.504
69038W        W41298  12.394  29.955   0.944
69039W        W41299  36.923  36.437  14.671
69040W        W41300  41.567  30.086   1.519
69041W        W41301   4.242  13.825  12.196
69042W        W41302  21.628   4.676  10.974
69043W        W41303  21.195  34.102   0.535
69044W        W41304   4.754  39.783  13.202
69045W        W41305  44.253  44.077  10.518
69046W        W41306  29.944  15.644   1.005
69047W        W41307  36.031   9.091  10.649
69048W        W41308  25.760  29.465   0.906
69049W        W41309  41.963  36.354   4.847
69050W        W41310  34.126  41.045   0.446
69051W        W41311  15.364  20.760   3.652
69052W        W41312  37.955  20.344   0.472
69053W        W41313  42.966  29.190   3.280
69054W        W41314  18.232   7.989   1.677
69055W        W41315  31.560  43.571   1.440
69056W        W41316  21.117  33.019   3.630
69057W        W41317  11.960  14.775  12.054
69058W        W41318  23.599   4.177   3.326
69059W        W41319  22.356  27.618  10.908
69060W        W41320  37.107  44.841   2.084
69061W        W41321  21.481  26.633  12.587
69062W        W41322   2.781   2.224  12.325
69063W        W41323  43.303  23.132   0.371
69064W        W41324  11.713  13.840   0.500
69065W        W41325  35.876   0.207  14.761
69066W        W41326  29.139  16.773   4.510
69067W        W41327  41.777  19.135  12.479
69068W        W41328   5.466  41.732  14.336
69069W        W41329   1.875  39.396  11.876
69070W        W41330  14.559  29.369  10.665
69071W        W41331  17.223   3.705  14.780
69072W        W41332   5.909   2.052   4.585
69073W        W41333   7.323  36.292  13.388
69074W        W41334  19.712  16.792  12.220
69075W        W41335  12.853  30.182   3.822
69076W        W41336  40.577  37.046   4.449
69077W        W41337  19.164  41.036  14.795
69078W        W41338   8.783  22.307  11.539
69079W        W41339  38.014  10.152  13.569
69080W        W41340   3.737  39.575   2.316
69081W        W41341  33.051  15.879   3.673
69082W        W41342  18.044   8.847  11.465
69083W        W41343  22.070  26.100   2.741
69084W        W41344   5.917  40.021  11.631
69085W        W41345   6.395  26.498  10.657
69086W        W41346  16.515  26.420  10.706
69087W        W41347  38.571  13.700  14.501
69088W        W41348   8.314  32.492  14.472
69089W        W41349  42.552  33.941   3.592
69090W        W41350  42.550   1.439   1.291
69091W        W41351  24.429  36.981   0.891
69092W        W41352  10.673  23.643   3.529
69093W        W41353   2.931  23.010   2.242
69094W        W41354  33.064  27.570   4.583
69095W        W41355   5.996  27.099  12.118
69096W        W41356  34.969  39.490   0.370
69097W        W41357  10.400  25.119   0.354
69098W        W41358  17.479  14.580  12.795
69099W        W41359  38.773  13.210   2.463
69100W        W41360  30.571  15.187   3.477
69101W        W41361  10.702   0.720   4.126
69102W        W41362  38.140   6.462   9.980
69103W        W41363   0.499  39.322   1.396
69104W        W41364  42.825   8.337  13.590
69105W        W41365   9.322  23.079  12.350
69106W        W41366   3.145  36.855  13.258
69107W        W41367  35.489  10.160  11.245
69108W        W41368  13.392   1.903  10.850
69109W        W41369  37.578  19.330   2.408
69110W        W41370  26.979  40.259  12.111
69111W        W41371  37.700  35.419   1.112
69112W        W41372  36.062   0.918  12.497
69113W        W41373  41.742   1.869   0.392
69114W        W41374  36.427  39.518   3.237
69115W        W41375  36.221   7.289   0.466
69116W        W41376  20.701  42.429   0.328
69117W        W41377  35.262  22.489  14.869
69118W        W41378   2.162  16.504  11.407
69119W        W41379  23.692  19.654  14.236
69120W        W41380  44.830  26.463   0.721
69121W        W41381  22.962   9.217   0.473
69122W        W41382  15.827  25.520   2.010
69123W        W41383  12.852  43.283  11.044
69124W        W41384  37.505  25.052  11.096
69125W        W41385  24.585  30.795  12.667
69126W        W41386   8.099  34.959   1.409
69127W        W41387  40.522  18.849   1.355
69128W        W41388  25.966   1.555  12.758
69129W        W41389  28.626  41.466  13.063
69130W        W41390  23.214  20.358  14.968
69131W        W41391  31.303  33.470   2.636
69132W        W41392   2.473   0.748   1.626
69133W        W41393  30.609  19.653   2.772
69134W        W41394  36.875   7.370   1.384
69135W        W41395  27.030  37.023  13.842
69136W        W41396  40.374  32.194  11.950
69137W        W41397  37.630  24.352  12.126
69138W        W41398   0.276  41.787   0.545
69139W        W41399  29.423  39.873  14.298
69140W        W41400   0.898  11.710  10.717
69141W        W41401   7.372   9.605   3.679
69142W        W41402  31.683  31.391   5.052
69143W        W41403  39.350  34.092  14.069
69144W        W41404  39.920   8.984   0.163
69145W        W41405  31.621  28.202   1.259
69146W        W41406  42.762  43.737  11.615
69147W        W41407  37.540  43.296  12.914
69148W        W41408   3.391  36.637   4.954
69149W        W41409  44.259  43.872   4.939
69150W        W41410  34.899  41.184   5.041
69151W        W41411  42.417  18.559  12.774
69152W        W41412  31.478  32.125  12.101
69153W        W41413   0.851   9.634  14.836
69154W        W41414  24.119  16.078   3.167
69155W        W41415  28.494   8.256   4.065
69156W        W41416   4.250   4.709   3.688
69157W        W41417   2.120  13.639   4.750
69158W        W41418   6.259   0.878   0.861
69159W        W41419  42.033  44.063  11.199
69160W        W41420  23.143  40.527  13.367
69161W        W41421  16.919   7.063  11.559
69162W        W41422  34.804   7.369   4.531
69163W        W41423   9.361  16.969   1.883
69164W        W41424   4.678  26.415  13.019
69165W        W41425  33.536  28.162  13.493
69166W        W41426   6.440  27.724  13.215
69167W        W41427  31.770  26.445  11.840
69168W        W41428   8.911   9.777   1.880
69169W        W41429  22.945  31.679  14.240
69170W        W41430  27.031  38.131  13.922
69171W        W41431   8.314  18.559  12.961
69172W        W41432  37.962  18.673  13.588
69173W        W41433   4.736   4.782  11.391
69174W        W41434  40.586  36.517  12.403
69175W        W41435  24.584  43.037   4.764
69176W        W41436  12.332  12.677  11.913
69177W        W41437  13.316  33.891  10.613
69178W        W41438  41.334  38.572  12.899
69179W        W41439  16.566  26.695  13.064
69180W        W41440  39.295  18.247   4.008
69181W        W41441   2.076  36.327  11.568
69182W        W41442   6.792  23.973  12.755
69183W        W41443   8.349  19.285   4.398
69184W        W41444   2.994  31.835  11.150
69185W        W41445  14.160  19.812   0.328
69186W        W41446  17.527   6.358  12.140
69187W        W41447  21.703  19.174  14.915
69188W        W41448  36.602   7.647  10.467
69189W        W41449  30.142  32.644   0.218
69190W        W41450  36.548  27.707   0.192
69191W        W41451  38.612  15.771   4.116
69192W        W41452  17.978  35.868  11.537
69193W        W41453   2.454  29.534  14.309
69194W        W41454  21.970  27.671   2.717
69195W        W41455  16.133  34.539  14.735
69196W        W41456  22.651  24.705  12.094
69197W        W41457  14.392  18.710   3.482
69198W        W41458  30.620  13.305  11.944
69199W        W41459  34.109  43.963  13.291
69200W        W41460  36.838  39.351   1.287
69201W        W41461  36.657  23.478   2.373
69202W        W41462  13.954  41.541  10.414
69203W        W41463  13.754  29.471  14.057
69204W        W41464   1.473  22.032   2.830
69205W        W41465  41.364  35.580  12.815
69206W        W41466  41.543  14.662   1.040
69207W        W41467  16.600  40.024  11.152
69208W        W41468  18.154  11.189  14.313
69209W        W41469   7.913  32.830   4.137
69210W        W41470   6.942  27.758  14.912
69211W        W41471  25.134  22.633   4.175
69212W        W41472  33.856  39.300  12.876
69213W        W41473  36.198  42.947  13.973
69214W        W41474  33.981  18.930  12.828
69215W        W41475  28.577  26.611   2.910
69216W        W41476  30.977   1.362   0.652
69217W        W41477  14.800  28.005   1.629
69218W        W41478  15.937  36.502   0.940
69219W        W41479  26.527  17.598  12.313
69220W        W41480  11.590  22.011   0.067
69221W        W41481  22.017  44.868  14.328
69222W        W41482  27.541  13.896   0.621
69223W        W41483  39.406  17.634  12.699
69224W        W41484  29.034  38.073  14.035
69225W        W41485  29.935   6.989  11.557
69226W        W41486  43.956   9.188   1.646
69227W        W41487  40.426  12.843  12.658
69228W        W41488   8.636  12.503   1.538
69229W        W41489  39.802  44.739   2.889
69230W        W41490   7.605  12.266  13.862
69231W        W41491  10.830  28.616   3.043
69232W        W41492  43.659  39.862  11.579
69233W        W41493   6.563  41.008  10.096
69234W        W41494  19.683  31.354  13.850
69235W        W41495  14.642  36.994   2.709
69236W        W41496  43.410  31.519  11.570
69237W        W41497  30.168   4.188  12.940
69238W        W41498   7.299  36.918  10.767
69239W        W41499  25.893  42.306  10.473
69240W        W41500  35.837  20.655   3.562
69241W        W41501  41.436  38.094   0.182
69242W        W41502  14.172  21.498  13.790
69243W        W41503  44.008  17.867  11.093
69244W        W41504   5.184  16.192  13.363
69245W        W41505  38.079  20.643  14.499
69246W        W41506  11.555  22.032  12.465
69247W        W41507  22.027  39.284   1.914
69248W        W41508  19.265  10.911   3.255
69249W        W41509   6.799   1.813   4.649
69250W        W41510  40.547  43.876   2.232
69251W        W41511  39.215  33.231  12.561
69252W        W41512  30.123   8.804  11.147
69253W        W41513  19.192  18.026   1.489
69254W        W41514  18.387  27.850  12.469
69255W        W41515  26.502  11.211   2.896
69256W        W41516  20.603  40.837   2.942
69257W        W41517  38.859  29.383   2.914
69258W        W41518  43.896  36.068  14.762
69259W        W41519  27.908  14.240  11.952
69260W        W41520  31.781  18.655  14.949
69261W        W41521  18.563  16.096  11.228
69262W        W41522   0.202   5.199  14.720
69263W        W41523  21.816   4.507  14.882
69264W        W41524  39.992  24.669  12.024
69265W        W41525  16.731   7.801   4.204
69266W        W41526  40.664   9.313   0.444
69267W        W41527  38.327  13.172  10.611
69268W        W41528  11.177  40.458   3.569
69269W        W41529  26.071  19.593   3.328
69270W        W41530  16.366  33.182   4.181
69271W        W41531  18.711  23.757   0.442
69272W        W41532   0.362  12.310  13.872
69273W        W41533  34.381  13.603   0.873
69274W        W41534  32.886  26.658   3.121
69275W        W41535   7.465  17.090  13.759
69276W        W41536   6.337  37.085   4.544
69277W        W41537   0.781   0.739   3.598
69278W        W41538  33.356  20.974  10.169
69279W        W41539  41.919   9.525  11.641
69280W        W41540  32.005   1.888   1.475
69281W        W41541   1.898  11.175  12.184
69282W        W41542   2.319  15.532   4.711
69283W        W41543  26.553  40.930   1.639
69284W        W41544  22.034  13.843  11.153
69285W        W41545  40.354  43.948  13.961
69286W        W41546  15.742  41.475  11.142
69287W        W41547  36.804  13.582   1.712
69288W        W41548   1.879  17.650   0.004
69289W        W41549  37.071   0.279  12.463
69290W        W41550  29.609  41.855  13.404
69291W        W41551  42.079   2.993   3.300
69292W        W41552  15.734  11.436  13.861
69293W        W41553   3.825   4.461  10.394
69294W        W41554  31.567  31.763  13.138
69295W        W41555  40.310  17.480  11.558
69296W        W41556  27.969  38.959   4.333
69297W        W41557  43.949  42.118   4.115
69298W        W41558   9.955  27.746  12.404
69299W        W41559   0.879  12.247   3.592
69300W        W41560   6.866  15.678  12.988
69301W        W41561   8.653  18.379  14.432
69302W        W41562  12.839  29.468  14.278
69303W        W41563  16.647  36.096   0.585
69304W        W41564  10.129  34.157  13.100
69305W        W41565   1.074  14.626   4.367
69306W        W41566  33.808   0.916   4.797
69307W        W41567  44.995   6.723  11.406
69308W        W41568   0.486  44.768  13.855
69309W        W41569  17.503  43.229   1.594
69310W        W41570  34.635  41.761   3.675
69311W        W41571  10.837  16.842   3.199
69312W        W41572   0.821  31.137  12.393
69313W        W41573  27.686  18.300  12.587
69314W        W41574  33.896   2.870  12.016
69315W        W41575  29.042   3.272   1.469
69316W        W41576  14.812  36.393   4.595
69317W        W41577  17.168   2.883  13.075
69318W        W41578  18.660   9.122  12.395
69319W        W41579  16.535  31.972   1.882
69320W        W41580  27.506   5.656   4.189
69321W        W41581  31.038  19.644  11.512
69322W        W41582  11.646   6.378   4.145
69323W        W41583  19.484   4.822  11.509
69324W        W41584  36.794  16.301  12.982
69325W        W41585  10.141  40.223  11.164
69326W        W41586  35.067   2.861   4.624
69327W        W41587  40.027  28.436  10.983
69328W        W41588  10.131  19.798   2.852
69329W        W41589  40.585  16.643  10.469
69330W        W41590  28.550  18.659  13.526
69331W        W41591   2.402  39.971   1.916
69332W        W41592  25.326  11.849   0.184
69333W        W41593  40.169   4.414  13.624
69334W        W41594   3.008   4.229   4.951
69335W        W41595  31.179  10.793  10.490
69336W        W41596  18.770  32.868   4.194
69337W        W41597  22.502  26.876   2.404
69338W        W41598  36.084  40.858   0.975
69339W        W41599  29.125  35.325  11.452
69340W        W41600  35.586  20.737  14.391
69341W        W41601  18.594  20.110   3.776
69342W        W41602  11.568  25.103   0.839
69343W        W41603   4.705  43.464   5.090
69344W        W41604  11.456   0.227   2.254
69345W        W41605  37.956  19.749   3.758
69346W        W41606  12.279  36.105   0.165
69347W        W41607  22.010  19.529   2.319
69348W        W41608   8.762  39.835  12.500
69349W        W41609  43.425   3.409   1.340
69350W        W41610   3.597  22.122  13.842
69351W        W41611  19.161   5.148  10.675
69352W        W41612   1.181  37.004   1.408
69353W        W41613  43.413  30.115   4.528
69354W        W41614  21.253   1.015  13.592
69355W        W41615  25.045  16.418  11.696
69356W        W41616   6.691   0.422   0.238
69357W        W41617  33.616  40.064  10.774
69358W        W41618  10.079  28.149   5.038
69359W        W41619  12.767  29.428   2.274
69360W        W41620   2.149  13.101   0.564
69361W        W41621  37.038  27.471  13.122
69362W        W41622   5.254  22.018   4.667
69363W        W41623   6.982  15.776   1.999
69364W        W41624  44.890  31.940   4.541
69365W        W41625   3.986   1.343   0.783
69366W        W41626  13.342  19.065  11.995
69367W        W41627  30.904  41.540   3.710
69368W        W41628  13.848  27.460  12.797
69369W        W41629   0.063  19.815   1.842
69370W        W41630  23.562  19.708  11.986
69371W        W41631   0.360  40.497  11.572
69372W        W41632   4.369  42.784  13.792
69373W        W41633  15.265  20.460  12.867
69374W        W41634  12.097  14.582   0.819
69375W        W41635  26.608   4.796  12.213
69376W        W41636  22.476   3.443  12.486
69377W        W41637  41.070  13.476  10.974
69378W        W41638  32.392  42.564  12.143
69379W        W41639  30.986  32.012  12.038
69380W        W41640   2.700   8.701  10.709
69381W        W41641  21.764  14.290   2.897
69382W        W41642  39.731  24.892  13.940
69383W        W41643  20.582   8.113  11.483
69384W        W41644  31.197  27.195   3.668
69385W        W41645  13.696  30.486   1.834
69386W        W41646  18.090  18.534  14.855
69387W        W41647  12.708  10.639   2.395
69388W        W41648  40.453  17.059   0.765
69389W        W41649  12.467  30.602  11.962
69390W        W41650   3.963  25.247  11.285
69391W        W41651  12.122  24.512   0.479
69392W        W41652  33.064  14.260  10.496
69393W        W41653  31.810  39.654  12.857
69394W        W41654  24.787   5.887   3.830
69395W        W41655  27.476  14.269  12.260
69396W        W41656  24.778  40.960  12.023
69397W        W41657   4.775   9.527  12.799
69398W        W41658  27.686  26.137  14.536
69399W        W41659  16.736  14.754   0.269
69400W        W41660  32.585  23.680  12.320
69401W        W41661  39.981  42.581   2.851
69402W        W41662   5.854  10.562  12.860
69403W        W41663  15.985  16.722   4.689
69404W        W41664  29.046  11.865   2.263
69405W        W41665  20.255  14.095   2.511
69406W        W41666   8.008   8.319   2.762
69407W        W41667  13.375   7.352   1.228
69408W        W41668  20.709  27.110  14.690
69409W        W41669  24.541  44.384  11.546
69410W        W41670   3.155  32.891   4.594
69411W        W41671   6.868   0.947   0.034
69412W        W41672  15.099  41.077   2.234
69413W        W41673  33.359  43.990   0.299
69414W        W41674  27.097  14.371  11.427
69415W        W41675  26.237  36.940   1.791
69416W        W41676  29.178  33.463   3.577
69417W        W41677   7.859  44.195  10.656
69418W        W41678  33.596  33.586  14.500
69419W        W41679  25.665  39.364   1.706
69420W        W41680  25.007  39.582  12.641
69421W        W41681  16.600  29.020  12.447
69422W        W41682  19.757  19.113   2.385
69423W        W41683  42.201  16.869  12.862
69424W        W41684  31.078  32.333  11.069
69425W        W41685   5.028  39.743   2.225
69426W        W41686  12.643  24.702   4.205
69427W        W41687  28.699  20.100  13.892
69428W        W41688   5.949   5.904  12.446
69429W        W41689  13.696  42.054  14.384
69430W        W41690   8.237  17.918  11.484
69431W        W41691  43.245  22.031   3.141
69432W        W41692  16.250  30.708   0.565
69433W        W41693  42.854   2.484   1.291
69434W        W41694  11.157  18.916  10.772
69435W        W41695  10.991  14.714  12.115
69436W        W41696  36.359  26.538   3.703
69437W        W41697  23.030  40.920   4.406
69438W        W41698  12.614  44.942   1.697
69439W        W41699  24.634  10.112   2.727
69440W        W41700  16.245  23.159   1.350
69441W        W41701  16.630  14.581  13.942
69442W        W41702   8.561   6.852   0.178
69443W        W41703  14.775  37.799  11.147
69444W        W41704  34.843  18.579  13.972
69445W        W41705   3.803  23.312   0.390
69446W        W41706  11.369  20.447   2.268
69447W        W41707  19.057  16.215  14.402
69448W        W41708  37.844  43.039  11.555
69449W        W41709  13.874  18.591   3.396
69450W        W41710  36.032  43.529   4.098
69451W        W41711   2.231  44.838  13.378
69452W        W41712   9.618  38.725   4.400
69453W        W41713  22.171   9.443   1.249
69454W        W41714   5.965  22.753   2.234
69455W        W41715  39.964  19.733   4.757
69456W        W41716  20.586  39.371  10.748
69457W        W41717  12.995   8.745   3.242
69458W        W41718  27.497  27.882   1.539
69459W        W41719  10.142  32.769  13.785
69460W        W41720  28.590  15.892   1.788
69461W        W41721  16.156  16.615   3.822
69462W        W41722  40.796  13.686  11.652
69463W        W41723  42.917  17.801   2.273
69464W        W41724   6.740  22.166  12.642
69465W        W41725  41.395  39.793   3.777
69466W        W41726  18.760  15.985  14.799
69467W        W41727  20.207  34.907   0.965
69468W        W41728  29.078  44.688   3.179
69469W        W41729  37.413   9.387   9.860
69470W        W41730  24.202  32.403   4.180
69471W        W41731  31.056   9.722  14.544
69472W        W41732  10.803  20.885  11.304
69473W        W41733   1.724  30.258  13.254
69474W        W41734  32.496  20.707   3.388
69475W        W41735  44.336  10.681   2.892
69476W        W41736   7.552  20.319   3.551
69477W        W41737  16.394   8.911   3.573
69478W        W41738  22.148  38.624  14.952
69479W        W41739  20.538  37.591  14.585
69480W        W41740  21.812  12.202  12.031
69481W        W41741   6.462  15.690   0.294
69482W        W41742   6.087  37.794   3.788
69483W        W41743  41.667  28.210   1.745
69484W        W41744  15.467  32.063  13.184
69485W        W41745  21.985  40.781  12.242
69486W        W41746   4.649  13.350  12.912
69487W        W41747  31.462  19.982  11.469
69488W        W41748  10.346  11.373   3.679
69489W        W41749  10.109  36.008  12.049
69490W        W41750  44.008  32.767   2.545
69491W        W41751  34.015  43.344   4.977
69492W        W41752  13.624  29.041  11.731
69493W        W41753  10.539  29.671  12.455
69494W        W41754  31.100  30.114   5.051
69495W        W41755  33.510   2.943   0.337
69496W        W41756   9.642  19.178  11.214
69497W        W41757  41.176  35.580  14.235
69498W        W41758  39.313  14.193   4.053
69499W        W41759  25.383  39.071  11.977
69500W        W41760  34.864   7.716  13.372
69501W        W41761   6.748   0.533  10.345
69502W        W41762  32.391  12.841   2.161
69503W        W41763   5.972  37.105  11.984
69504W        W41764  33.322  10.238  11.596
69505W        W41765  17.185  35.646   1.206
69506W        W41766  11.689   5.628   3.650
69507W        W41767  32.361   5.629   3.286
69508W        W41768   6.976  25.493   4.138
69509W        W41769  16.300   0.364   4.311
69510W        W41770  22.125  28.045   2.385
69511W        W41771  12.727  15.811  11.131
69512W        W41772  26.591  33.111   1.772
69513W        W41773   7.462  13.609  14.425
69514W        W41774  29.894  34.480  11.151
69515W        W41775  40.794   4.386  14.429
69516W        W41776  31.186  14.719   2.062
69517W        W41777  14.852  12.141   3.826
69518W        W41778  42.273  31.008  11.160
69519W        W41779  23.536  10.290  10.290
69520W        W41780  31.093   9.406   2.622
69521W        W41781  18.177  42.294   3.679
69522W        W41782   6.276  20.300   1.783
69523W        W41783  40.256  15.084   3.884
69524W        W41784  37.362  26.114   4.137
69525W        W41785   2.451  32.793  13.511
69526W        W41786  12.438  38.621  13.256
69527W        W41787  11.215  31.459  12.775
69528W        W41788  38.396  15.307   4.131
69529W        W41789  29.662   7.638   1.878
69530W        W41790  30.693  20.076   4.610
69531W        W41791  35.823  32.093   2.824
69532W        W41792   8.298  44.538  11.924
69533W        W41793   3.821  33.180  14.702
69534W        W41794   7.764  36.449  13.572
69535W        W41795  31.849  16.183  10.456
69536W        W41796  11.929  22.559   2.144
69537W        W41797  27.947   1.056   0.995
69538W        W41798  18.559   3.212  11.568
69539W        W41799  27.460  14.219  14.830
69540W        W41800  10.663  43.576   2.612
69541W        W41801  35.433   9.641  14.548
69542W        W41802  33.139  19.618   0.306
69543W        W41803  37.937  29.081   2.809
69544W        W41804  22.470  10.143  10.549
69545W        W41805  35.024   2.221  12.060
69546W        W41806   1.353  18.146   2.969
69547W        W41807  22.800  37.644   0.687
69548W        W41808   2.032   3.741   3.618
69549W        W41809  14.685  44.692  10.926
69550W        W41810  29.056  28.006   3.866
69551W        W41811  23.290  17.510  14.459
69552W        W41812  19.323  30.873  12.492
69553W        W41813  42.502  11.857  13.967
69554W        W41814  37.648  38.548   0.283
69555W        W41815  26.332  39.702  12.514
69556W        W41816   8.779  40.029   1.876
69557W        W41817  26.520  20.262   4.797
69558W        W41818   6.503  29.537   0.761
69559W        W41819  23.420   9.865   2.861
69560W        W41820  10.807  21.383   1.451
69561W        W41821   8.152   6.786  13.914
69562W        W41822  13.088   3.917  13.475
69563W        W41823   4.767  36.504   0.943
69564W        W41824  33.133  31.504  10.955
69565W        W41825  23.943  41.527  11.181
69566W        W41826   6.880   3.402   0.551
69567W        W41827  16.585  16.977   3.272
69568W        W41828   7.685  13.200  11.830
69569W        W41829  14.674  23.136  12.929
69570W        W41830  25.479   4.873   2.831
69571W        W41831  17.217  42.366  13.422
69572W        W41832  41.929  15.117  13.874
69573W        W41833  15.743  11.377  12.997
69574W        W41834  15.240   0.083   2.375
69575W        W41835   4.020   5.329  10.573
69576W        W41836  12.765  23.149  11.644
69577W        W41837  39.045   7.647  14.813
69578W        W41838  32.516  13.921  14.747
69579W        W41839  12.665  42.704   0.449
69580W        W41840  26.762  24.130   3.626
69581W        W41841  44.848  27.985   0.962
69582W        W41842  18.124  14.703  14.063
69583W        W41843  34.458  21.291  11.645
69584W        W41844   4.714  27.680  13.457
69585W        W41845  17.983  29.650   2.203
69586W        W41846  22.258   4.740  13.082
69587W        W41847  22.812  24.844   3.579
69588W        W41848  28.600  36.599   4.559
69589W        W41849  41.081  30.917  12.056
69590W        W41850  11.556  18.504   4.650
69591W        W41851  11.366  39.628  12.147
69592W        W41852   3.619   4.897  14.077
69593W        W41853  25.112   0.776  11.108
69594W        W41854  33.009  10.345   2.460
69595W        W41855  25.238   3.942  11.647
69596W        W41856  11.713  15.294  13.851
69597W        W41857  38.505  31.362  13.820
69598W        W41858  25.466  44.524  12.442
69599W        W41859   8.635  23.156   3.363
69600W        W41860  13.851   1.407  12.121
69601W        W41861   7.231  18.494   2.516
69602W        W41862  33.636  38.822   1.336
69603W        W41863   8.611  17.588  14.767
69604W        W41864  44.700   0.152  13.421
69605W        W41865  14.633   0.450   1.222
69606W        W41866  39.480  28.969  12.873
69607W        W41867  24.925  13.834   0.433
69608W        W41868  43.314   4.300  11.664
69609W        W41869  39.874   4.521   1.731
69610W        W41870  40.487  28.708   2.023
69611W        W41871  42.869   5.441  11.774
69612W        W41872  26.173  18.215  11.919
69613W        W41873  27.340  33.658   3.395
69614W        W41874  15.656   6.911   2.546
69615W        W41875  22.474  30.434   2.764
69616W        W41876   0.398  17.432   3.109
69617W        W41877   1.241   7.856   1.254
69618W        W41878  31.034  12.389   1.232
69619W        W41879  28.658  22.571  14.352
69620W        W41880   7.840  11.061  13.524
69621W        W41881  14.312  37.814   1.283
69622W        W41882  23.363  40.248   1.716
69623W        W41883   1.763  39.833   4.170
69624W        W41884  34.617  24.092  14.439
69625W        W41885  14.062  35.733  13.935
69626W        W41886  27.075   8.807   0.703
69627W        W41887  30.144  26.572  13.570
69628W        W41888   5.919  35.370  13.045
69629W        W41889  43.935  34.153  11.409
69630W        W41890  37.089   9.744   1.905
69631W        W41891  22.252  23.743   0.869
69632W        W41892  12.157  27.222  12.167
69633W        W41893  40.953  27.144   3.266
69634W        W41894  25.688  33.610   3.326
69635W        W41895   6.927  38.392  12.422
69636W        W41896  39.869  34.912  12.072
69637W        W41897  12.466  32.407  13.372
69638W        W41898  14.501   5.025  14.046
69639W        W41899  16.921  24.497  12.305
69640W        W41900  19.319  43.411   4.775
69641W        W41901  19.149   7.267   4.562
69642W        W41902   9.348  26.507   3.955
69643W        W41903   1.874   3.911   4.647
69644W        W41904  12.232  38.349   4.639
69645W        W41905  40.791  37.886   4.229
69646W        W41906  35.218   8.198   2.734
69647W        W41907   5.433  28.527   5.131
69648W        W41908   5.982  21.037  11.280
69649W        W41909  33.784   1.245   0.301
69650W        W41910   4.644  10.425   5.045
69651W        W41911  37.358  27.708  13.535
69652W        W41912  34.900   3.676  12.972
69653W        W41913   7.113   2.964   3.192
69654W        W41914  21.033   8.804   4.739
69655W        W41915  26.001  12.106  13.369
69656W        W41916  26.018  12.410  12.961
69657W        W41917  25.721  35.956  14.053
69658W        W41918  40.535  17.580   0.547
69659W        W41919  24.874  36.792   2.361
69660W        W41920  20.971  13.693  11.130
69661W        W41921   3.816  43.256   3.034
69662W        W41922  37.562  10.053  10.802
69663W        W41923  38.500  35.602  10.893
69664W        W41924   0.761  10.422  11.060
69665W        W41925  30.036  20.176   2.387
69666W        W41926  10.002  15.158   3.188
69667W        W41927  37.163  37.520   4.580
69668W        W41928  20.758  24.220  10.664
69669W        W41929   7.338   8.337  11.094
69670W        W41930  35.021  17.364  10.832
69671W        W41931  31.165   5.186  11.232
69672W        W41932  42.843   2.802  11.782
69673W        W41933  24.478  10.186   4.641
69674W        W41934  42.250  33.621  13.376
69675W        W41935  31.529  21.315  14.810
69676W        W41936   2.742  20.635  11.748
69677W        W41937  17.160  28.400  13.648
69678W        W41938   2.695  22.723   3.949
69679W        W41939  31.173   8.463   2.321
69680W        W41940  25.272  25.539   1.600
69681W        W41941  42.206  11.691   4.944
69682W        W41942  35.457  36.439   1.711
69683W        W41943  31.562  39.358  11.264
69684W        W41944   1.908  41.352  10.404
69685W        W41945  11.851  24.486  10.755
69686W        W41946  30.247  12.448   2.711
69687W        W41947  31.524   8.448   4.953
69688W        W41948  41.573   6.010  11.087
69689W        W41949  14.584   6.623   0.798
69690W        W41950  42.873  14.699  11.172
69691W        W41951  14.374   9.241  13.505
69692W        W41952  24.546  10.502   3.745
69693W        W41953  37.069  36.054  11.472
69694W        W41954  31.090  32.636   3.837
69695W        W41955  13.366  15.620  13.030
69696W        W41956   6.915  33.649   1.065
69697W        W41957  40.915  40.485  14.397
69698W        W41958  38.287  17.064  10.667
69699W        W41959  35.005  14.658  12.260
69700W        W41960  12.662  41.001  13.533
69701W        W41961   2.489  23.686   2.840
69702W        W41962  18.241   7.886   4.573
69703W        W41963  12.401   5.393   4.618
69704W        W41964  10.790  33.766   4.556
69705W        W41965   9.845   2.810   4.135
69706W        W41966  16.242  25.153  13.955
69707W        W41967  26.581  12.592  13.820
69708W        W41968  38.595   3.933  12.794
69709W        W41969  21.709  37.227   3.308
69710W        W41970  28.519   6.992  12.412
69711W        W41971  34.873  29.159  12.891
69712W        W41972  42.719   3.202   2.642
69713W        W41973  20.060  35.176   4.839
69714W        W41974  17.649  42.403  10.722
69715W        W41975  29.189  19.275   1.292
69716W        W41976  24.887   1.661   1.347
69717W        W41977   1.793   0.510  11.158
69718W        W41978  34.481  30.886   4.071
69719W        W41979  21.708  35.961   3.387
69720W        W41980  23.165   1.184  11.201
69721W        W41981  37.725  40.829  13.883
69722W        W41982  16.217  41.805  11.950
69723W        W41983  42.249  35.957  10.674
69724W        W41984  26.417  16.229  11.665
69725W        W41985  13.336  27.373   2.346
69726W        W41986  21.509  33.393   1.350
69727W        W41987  23.650   1.272  11.869
69728W        W41988  23.161  13.772   3.768
69729W        W41989  17.234  23.865   1.237
69730W        W41990  43.348  21.021   3.353
69731W        W41991  28.584  22.642   0.296
69732W        W41992   5.183  41.689   1.654
69733W        W41993  33.820  30.760   3.381
69734W        W41994   3.958  22.823   0.527
69735W        W41995  35.730   6.509  11.691
69736W        W41996  35.124  30.544  14.018
69737W        W41997   5.828  10.570  14.688
69738W        W41998  12.191  39.186   1.378
69739W        W41999  36.204  39.397  12.249
69740W        W42000  23.443   4.224  11.989
69741W        W42001  33.667   9.099  14.479
69742W        W42002  35.909   8.404  13.582
69743W        W42003  10.606  19.118  14.931
69744W        W42004  29.703  42.477  14.472
69745W        W42005  37.909  31.585  11.979
69746W        W42006  10.130  33.963  10.638
69747W        W42007  16.212   0.501  14.746
69748W        W42008  22.708  37.102  13.559
69749W        W42009  33.511  20.661  12.411
69750W        W42010  29.912  19.326   2.400
69751W        W42011  34.694   7.653  14.446
69752W        W42012  10.433  16.475   3.261
69753W        W42013  23.257  39.871  14.046
69754W        W42014  26.012  43.290  11.731
69755W        W42015  12.555   1.437   4.215
69756W        W42016  13.357  20.252  10.943
69757W        W42017  19.175   7.450   0.956
69758W        W42018  32.444  27.501  10.606
69759W        W42019  14.183  41.569   3.318
69760W        W42020  11.843  20.031   3.005
69761W        W42021  19.975  44.316  13.500
69762W        W42022  32.922   0.181   2.756
69763W        W42023   2.767   8.303   4.584
69764W        W42024  28.582  21.475  13.808
69765W        W42025  35.540  35.160  12.188
69766W        W42026   5.482  22.632   0.524
69767W        W42027  41.325  44.913  13.945
69768W        W42028  25.055  44.220  11.651
69769W        W42029  29.744   3.644   3.750
69770W        W42030  10.661  35.018   2.653
69771W        W42031  44.721  27.897   2.677
69772W        W42032  14.813  19.013   3.663
69773W        W42033   4.273   3.255   1.644
69774W        W42034  29.481   3.891   3.359
69775W        W42035  44.332  32.685  12.176
69776W        W42036  37.060  31.032  14.775
69777W        W42037  14.254  23.856  11.182
69778W        W42038  28.085  35.953  12.878
69779W        W42039  28.417  29.829   0.372
69780W        W42040  24.047  25.110  11.414
69781W        W42041  38.482  43.883   4.400
69782W        W42042  38.765  17.223  10.686
69783W        W42043  38.315  17.067  13.502
69784W        W42044  39.431   9.762  13.769
69785W        W42045   7.769  24.024   3.840
69786W        W42046  36.034  25.480   1.725
69787W        W42047  41.256  35.541   2.033
69788W        W42048   3.769  19.467   4.459
69789W        W42049  31.380  22.072  12.209
69790W        W42050   8.955  41.458   5.109
69791W        W42051  40.111  40.760  14.992
69792W        W42052  20.057  31.710  13.896
69793W        W42053   4.733  37.809  11.683
69794W        W42054  28.935  32.669   5.206
69795W        W42055  35.163  39.143  10.993
69796W        W42056  38.249  22.436  11.882
69797W        W42057  37.055  32.947   3.444
69798W        W42058   8.453  12.361  14.291
69799W        W42059  27.955  35.286   2.278
69800W        W42060  21.156   0.708   4.058
69801W        W42061   2.232  28.660  10.750
69802W        W42062  31.797  20.657   1.334
69803W        W42063  16.901   2.494  14.025
69804W        W42064  26.673   5.316   1.484
69805W        W42065  22.007   2.027  11.912
69806W        W42066   2.575  29.889   4.922
69807W        W42067  29.497   2.758  14.747
69808W        W42068   5.182  18.459  13.525
69809W        W42069  16.748  21.468   2.475
69810W        W42070  12.861  26.819  11.104
69811W        W42071  27.133   8.737   3.172
69812W        W42072  39.795  30.344  11.151
69813W        W42073  23.741  14.850   0.977
69814W        W42074  39.082  14.780   0.913
69815W        W42075  25.760  35.073   3.356
69816W        W42076  34.346  33.060  10.816
69817W        W42077  33.482  11.882   0.540
69818W        W42078  20.134  31.627  14.987
69819W        W42079   5.900  15.097  14.510
69820W        W42080   1.356  16.400   0.894
69821W        W42081  20.194  37.609   0.938
69822W        W42082   6.206  32.685  10.635
69823W        W42083  29.908  27.987  12.401
69824W        W42084  20.750  28.105  11.617
69825W        W42085  20.058   7.369   4.981
69826W        W42086  36.061  27.969   2.065
69827W        W42087  28.046  27.574  13.010
69828W        W42088  35.321  41.754  13.048
69829W        W42089  19.664  32.511   3.387
69830W        W42090  23.553  12.161   3.408
69831W        W42091   6.913  23.709  13.597
69832W        W42092  36.781  26.762   2.202
69833W        W42093  23.583   0.521   4.017
69834W        W42094  35.973  32.388  12.451
69835W        W42095  20.745  21.297   2.755
69836W        W42096   1.512   6.495  12.007
69837W        W42097   9.437  38.761   0.739
69838W        W42098  43.541  26.152   1.673
69839W        W42099  24.278  19.774   2.772
69840W        W42100  36.871  16.802  11.900
69841W        W42101   6.295   6.864  10.625
69842W        W42102  26.266  29.529  12.598
69843W        W42103  42.844  24.225   4.548
69844W        W42104   8.223   0.048   0.408
69845W        W42105  15.057  10.260  10.547
69846W        W42106   9.282  33.460  10.614
69847W        W42107  33.981  12.778   3.770
69848W        W42108  15.800  38.630  14.146
69849W        W42109   1.887  27.338  13.451
69850W        W42110  27.249  21.108   1.883
69851W        W42111  32.813  25.126  11.108
69852W        W42112   6.742  29.195   2.505
69853W        W42113  38.773  20.535   3.167
69854W        W42114  28.587  29.848  11.591
69855W        W42115   0.160   5.486  11.076
69856W        W42116   1.592  29.366   1.485
69857W        W42117  20.774  34.957   3.595
69858W        W42118   0.260   3.219   3.732
69859W        W42119  18.746   7.828  12.454
69860W        W42120  14.530  13.100  13.014
69861W        W42121  15.808  27.526  13.438
69862W        W42122  21.667  35.069   3.056
69863W        W42123   1.673  24.739  13.429
69864W        W42124  20.006  35.454   2.350
69865W        W42125  32.361  28.579  13.889
69866W        W42126  26.726  23.794  11.529
69867W        W42127  29.405   3.885   4.798
69868W        W42128  23.518  26.428  12.554
69869W        W42129  26.622  31.067   5.051
69870W        W42130   6.779  21.329   3.614
69871W        W42131   1.935  33.972  12.048
69872W        W42132  12.782   2.766  11.522
69873W        W42133  16.052   7.264  11.845
69874W        W42134  15.560  44.565  10.914
69875W        W42135  44.857  19.738  10.633
69876W        W42136   1.930  23.645  12.876
69877W        W42137   3.438  35.876  14.493
69878W        W42138  43.921  12.692   1.256
69879W        W42139  43.340  13.382  11.943
69880W        W42140  36.907  39.789   2.213
69881W        W42141   4.956   7.246   2.405
69882W        W42142  38.686   4.824   0.426
69883W        W42143  13.677  33.059  12.918
69884W        W42144  16.254  35.054   3.588
69885W        W42145  23.468  41.355  11.275
69886W        W42146   8.252  20.607  14.457
69887W        W42147  24.966  15.329  11.147
69888W        W42148  13.125  16.712   2.322
69889W        W42149  14.233  36.794  14.268
69890W        W42150  36.194  39.771   2.648
69891W        W42151  15.794  11.348  12.102
69892W        W42152  11.173  35.540  14.179
69893W        W42153  12.102   2.914   3.183
69894W        W42154   3.208  26.162  12.934
69895W        W42155  33.392   9.173   1.636
69896W        W42156  12.607  36.384  11.755
69897W        W42157   3.702  12.649   2.187
69898W        W42158  23.918   0.262   4.358
69899W        W42159   4.751   9.459   1.135
69900W        W42160  18.125  24.576  11.215
69901W        W42161  19.584   1.240  12.097
69902W        W42162  33.586  44.285  10.670
69903W        W42163  22.552  42.488   1.792
69904W        W42164  15.861  28.252   0.128
69905W        W42165   6.920  40.563  10.971
69906W        W42166  12.656  42.053   3.653
69907W        W42167   3.878   1.695  11.175
69908W        W42168  36.865   4.681  11.058
69909W        W42169  27.537  16.574  13.398
69910W        W42170  36.615   9.710  10.601
69911W        W42171  29.158  13.321  14.103
69912W        W42172  29.199   9.836  12.946
69913W        W42173   0.519  20.551  13.492
69914W        W42174  17.797  29.165   2.361
69915W        W42175  18.144   8.732  10.629
69916W        W42176  21.739  24.422  11.541
69917W        W42177  16.928   3.987   2.729
69918W        W42178  20.286  13.144   2.746
69919W        W42179  22.542   7.846   2.906
69920W        W42180  38.290   6.254  10.469
69921W        W42181  16.434  15.177   9.856
69922W        W42182   5.176  17.193  14.123
69923W        W42183  26.540   7.219   3.697
69924W        W42184  18.059  18.563  13.068
69925W        W42185  16.751  21.682   3.776
69926W        W42186   2.238  35.558   3.161
69927W        W42187  33.380  23.638  13.073
69928W        W42188  36.648  41.362   3.726
69929W        W42189  43.935  34.995  11.377
69930W        W42190   3.790  41.305   2.975
69931W        W42191  42.528  41.096   4.632
69932W        W42192  12.906  15.588  13.830
69933W        W42193   2.255   8.082   1.219
69934W        W42194  17.177   9.021   5.120
69935W        W42195  39.033  41.106   3.139
69936W        W42196  44.453  15.393  10.030
69937W        W42197  11.819  23.493   4.615
69938W        W42198  22.454   5.521  14.888
69939W        W42199  23.564  17.790  10.678
69940W        W42200  23.246  34.349   2.720
69941W        W42201  39.602  42.252   2.780
69942W        W42202  23.228  32.648  14.799
69943W        W42203  38.973  34.863   0.854
69944W        W42204   6.960  29.579   1.003
69945W        W42205   5.678  43.551   1.703
69946W        W42206  25.606   5.826  11.553
69947W        W42207   5.624  13.221  14.888
69948W        W42208   9.088  30.516   3.377
69949W        W42209  38.341  21.489   4.581
69950W        W42210  40.475  30.016  12.380
69951W        W42211  10.163  42.887   0.917
69952W        W42212  11.307  27.899  10.531
69953W        W42213  44.916  22.241   4.200
69954W        W42214  38.438  37.731  13.331
69955W        W42215  31.645   7.904   3.577
69956W        W42216  13.616   1.101   0.614
69957W        W42217   2.205   4.185   1.792
69958W        W42218   2.760   6.604  13.470
69959W        W42219  14.254  16.482  13.916
69960W        W42220   4.374  33.829   2.357
69961W        W42221  25.118   7.797  12.819
69962W        W42222  25.544  31.530  12.776
69963W        W42223  44.754  28.660  10.709
69964W        W42224   9.874  42.280  13.567
69965W        W42225   8.211  11.872   1.341
69966W        W42226  41.506  33.640   0.753
69967W        W42227  19.017  27.899  13.906
69968W        W42228  23.737  34.949  11.172
69969W        W42229   4.324  42.476   3.095
69970W        W42230  22.255  22.251   4.265
69971W        W42231  18.537  19.573   1.356
69972W        W42232  36.166  26.724  11.553
69973W        W42233   4.667  36.306   1.857
69974W        W42234  32.099  39.361  11.041
69975W        W42235  19.812  15.260  12.331
69976W        W42236  38.515  24.717   0.743
69977W        W42237  38.199  41.048  13.856
69978W        W42238  44.967  38.572   1.299
69979W        W42239   0.762   0.949   2.679
69980W        W42240  30.601  19.131  14.651
69981W        W42241   1.697  14.348   0.303
69982W        W42242  34.611  34.091   1.372
69983W        W42243  38.304  33.380   2.900
69984W        W42244  13.734  17.792  14.223
69985W        W42245  21.314  24.602  12.320
69986W        W42246   8.480   4.718   2.860
69987W        W42247  39.618   7.641   1.177
69988W        W42248  31.484  16.292   1.478
69989W        W42249  43.728  19.239  10.978
69990W        W42250   3.643  42.475  12.065
69991W        W42251  29.503  42.996   1.239
69992W        W42252  23.725   1.325  12.520
69993W        W42253  24.928  31.480  11.959
69994W        W42254  10.395  30.491  11.066
69995W        W42255  33.044  18.172   1.777
69996W        W42256  35.578  39.456   2.854
69997W        W42257  24.013  29.184   3.804
69998W        W42258  24.579  22.196   4.102
69999W        W42259   6.641  30.229   0.468
70000W        W42260  25.130  32.053  14.965
70001W        W42261  19.750   4.478   4.180
70002W        W42262  39.801  18.561   3.272
70003W        W42263  12.892  39.933   2.187
70004W        W42264  43.544  35.662  12.899
70005W        W42265  16.675  26.023   0.372
70006W        W42266  39.882  41.952  13.093
70007W        W42267  13.329  14.206   3.102
70008W        W42268  18.503   1.757  10.819
70009W        W42269  32.903   9.146   1.831
70010W        W42270  30.638  26.449  10.580
70011W        W42271  15.785  44.318   0.866
70012W        W42272   2.041  36.920   4.602
70013W        W42273  21.697  19.068  12.078
70014W        W42274   5.977  28.533  11.670
70015W        W42275   1.307  37.287  11.452
70016W        W42276  31.172  40.215  12.754
70017W        W42277  20.355  24.251  12.942
70018W        W42278  12.864  37.020  14.825
70019W        W42279  10.886  43.984   4.188
70020W        W42280  41.470  12.269   4.649
70021W        W42281  42.671  31.074  11.488
70022W        W42282  23.632  27.653   5.569
70023W        W42283  37.960  17.658  12.993
70024W        W42284  41.716  43.926   0.845
70025W        W42285  36.028  30.386  11.719
70026W        W42286   7.719  13.256   4.665
70027W        W42287  28.668  15.091   1.179
70028W        W42288  28.746  22.173  10.770
70029W        W42289  24.515   7.444  12.039
70030W        W42290  25.984   4.736  14.336
70031W        W42291  42.991  24.167  10.414
70032W        W42292  38.510  32.553  13.287
70033W        W42293  21.287  17.276   2.867
70034W        W42294  19.705  44.274  14.868
70035W        W42295  33.127  43.504   0.120
70036W        W42296   0.967  42.559   0.687
70037W        W42297  35.046  19.260  10.516
70038W        W42298  11.769  16.789  14.860
70039W        W42299  11.449  18.976   4.807
70040W        W42300  39.344  22.791   4.350
70041W        W42301  16.649   7.575  11.589
70042W        W42302  13.546  25.982   0.283
70043W        W42303   5.197  22.669  13.447
70044W        W42304  42.161  43.269  13.567
70045W        W42305  17.575  27.732   1.345
70046W        W42306  11.834  41.516   4.008
70047W        W42307   8.767  36.161   4.386
70048W        W42308  12.518  13.551  13.042
70049W        W42309   6.834   2.287   4.384
70050W        W42310   2.947  20.266  14.030
70051W        W42311  41.742  14.266   3.997
70052W        W42312  25.993   0.525   4.926
70053W        W42313  27.007  41.557   0.949
70054W        W42314   4.929  31.703   4.100
70055W        W42315  11.262  21.621  14.523
70056W        W42316  34.268  20.456  10.254
70057W        W42317  10.256  11.768   0.411
70058W        W42318  13.499   6.129  11.566
70059W        W42319  30.740  24.146   0.391
70060W        W42320  14.624  27.017   3.153
70061W        W42321   4.395  26.432  11.571
70062W        W42322  41.357   4.374   1.259
70063W        W42323  15.740   0.320  14.578
70064W        W42324  28.106  17.260  14.309
70065W        W42325  20.894  30.530   0.651
70066W        W42326  36.480   2.748  14.205
70067W        W42327  19.046  24.740   0.323
70068W        W42328   6.719  13.784  14.965
70069W        W42329  12.312   0.958   2.344
70070W        W42330  13.249  42.767   3.856
70071W        W42331   5.441   7.205  13.856
70072W        W42332  37.317  24.369  13.169
70073W        W42333  33.477  44.442  12.470
70074W        W42334   3.191  29.564  14.894
70075W        W42335  44.690  22.020   2.186
70076W        W42336  12.511  40.820   0.362
70077W        W42337   3.334   0.770  14.144
70078W        W42338  22.078  39.589  11.130
70079W        W42339  41.384  11.599   3.421
70080W        W42340  39.886  42.265   3.259
70081W        W42341  14.777  12.028  12.303
70082W        W42342   1.967  37.341  13.790
70083W        W42343  26.629  24.932  12.911
70084W        W42344  17.065  21.229  13.994
70085W        W42345  38.597   5.292   0.027
70086W        W42346  30.515   9.196  14.514
70087W        W42347  17.773  12.265   1.210
70088W        W42348  32.026  12.387   2.859
70089W        W42349  31.941  38.586   4.174
70090W        W42350   6.249   9.266  12.531
70091W        W42351  15.625  30.104   1.280
70092W        W42352   9.617  18.752  10.499
70093W        W42353  17.790  28.570  13.948
70094W        W42354  32.173  35.024   0.962
70095W        W42355  33.207   0.536   3.199
70096W        W42356  43.917  19.262   1.256
70097W        W42357  18.679  15.683   1.371
70098W        W42358  42.832  19.753  13.895
70099W        W42359  35.374   6.593  12.929
70100W        W42360  21.505   9.985  13.984
70101W        W42361  21.842  40.809  11.560
70102W        W42362  19.639  40.026   1.672
70103W        W42363  34.799  25.464   0.476
70104W        W42364  15.571  30.077  11.513
70105W        W42365  37.005   7.369   0.014
70106W        W42366   2.320  19.319  11.523
70107W        W42367  20.641  32.056  14.308
70108W        W42368  30.680  32.541  13.491
70109W        W42369   4.401   5.087   1.068
70110W        W42370  40.954  20.984  11.832
70111W        W42371  38.538  30.596  14.290
70112W        W42372   4.129  27.577   4.012
70113W        W42373   7.802  33.011  14.949
70114W        W42374  30.993  32.969  10.537
70115W        W42375  40.524  16.048   1.704
70116W        W42376  35.848  13.324  14.765
70117W        W42377   9.874  12.188   0.318
70118W        W42378  25.906  16.264   0.230
70119W        W42379  21.509  30.595   3.646
70120W        W42380  41.985  17.245   3.062
70121W        W42381  14.070   5.228   2.202
70122W        W42382  15.291  30.528  13.024
70123W        W42383   7.856  30.764   3.170
70124W        W42384   7.100  23.095  14.421
70125W        W42385  38.371  27.707   1.371
70126W        W42386  15.770  29.704  12.869
70127W        W42387  41.327  29.738   1.824
70128W        W42388  41.943  41.056  11.846
70129W        W42389  28.649  13.652  11.088
70130W        W42390  17.960  12.686   1.861
70131W        W42391  40.368  18.887   0.788
70132W        W42392  41.728  39.662  11.204
70133W        W42393  42.053   0.814   3.168
70134W        W42394  20.451  29.626  11.440
70135W        W42395  36.735  19.179   5.409
70136W        W42396  16.574  39.240  13.502
70137W        W42397  22.738  33.589   3.320
70138W        W42398  24.297   9.419  10.875
70139W        W42399  19.682  28.136  12.905
70140W        W42400   1.536   1.723  14.000
70141W        W42401   4.048  22.011   2.706
70142W        W42402  38.666  12.891  12.039
70143W        W42403  41.448  20.135   4.952
70144W        W42404  19.618   6.332  13.569
70145W        W42405   8.191  14.744   0.906
70146W        W42406  16.080  21.489   0.413
70147W        W42407  24.917  15.937  12.367
70148W        W42408   6.708  36.324  11.116
70149W        W42409  15.653  35.206   0.009
70150W        W42410  27.404  30.508   2.395
70151W        W42411  34.787  30.406   2.313
70152W        W42412  12.338  19.559   1.203
70153W        W42413   7.142  29.740  10.761
70154W        W42414   9.234  24.007  14.262
70155W        W42415  38.408   8.320   0.165
70156W        W42416  30.054  31.244  11.505
70157W        W42417  36.456  11.773  12.893
70158W        W42418  42.701  39.525  12.084
70159W        W42419   3.134  21.169  13.617
70160W        W42420  30.419  21.683   1.469
70161W        W42421  10.427  43.163   1.283
70162W        W42422  10.837   3.924  12.952
70163W        W42423   0.979  40.390  14.560
70164W        W42424  38.846  33.727  10.636
70165W        W42425  31.990  34.123  10.074
70166W        W42426   1.660  42.418   1.234
70167W        W42427  13.517  28.724  12.269
70168W        W42428  37.420   4.239  11.353
70169W        W42429  18.238  25.334   1.394
70170W        W42430   5.171   6.145   4.182
70171W        W42431  38.930  14.754  12.039
70172W        W42432  24.681   5.801  10.757
70173W        W42433  11.691  31.407  13.992
70174W        W42434  19.172  39.589   3.180
70175W        W42435  44.532  11.772  13.975
70176W        W42436   2.301  30.353   4.734
70177W        W42437  33.482   9.616   5.077
70178W        W42438  44.357  18.215   4.485
70179W        W42439   6.234  43.762   1.909
70180W        W42440  25.614  22.520  14.755
70181W        W42441   2.982   9.415  14.295
70182W        W42442  27.535  20.762  12.041
70183W        W42443  19.539   6.717   3.157
70184W        W42444  37.351  18.587  12.440
70185W        W42445  42.551   6.871  13.075
70186W        W42446  40.364  24.182  11.523
70187W        W42447  19.248  11.240   3.750
70188W        W42448  39.323  12.297  14.328
70189W        W42449   2.467   8.882   1.738
70190W        W42450  17.707   0.288  12.042
70191W        W42451   2.537  37.963  13.394
70192W        W42452  25.406   7.979   3.749
70193W        W42453  16.340  14.117  14.424
70194W        W42454  39.425  26.236  13.015
70195W        W42455   1.927  27.715  12.152
70196W        W42456  37.818  10.033   2.263
70197W        W42457  25.657  16.078   3.003
70198W        W42458   9.413  31.925   2.668
70199W        W42459  30.037  34.860  11.517
70200W        W42460  20.085  31.360   1.797
70201W        W42461  41.440   0.891  14.908
70202W        W42462  24.538  43.250  12.583
70203W        W42463  33.847  14.777  13.629
70204W        W42464  38.850  19.766   1.041
70205W        W42465  31.931  14.514  12.860
70206W        W42466  30.709  20.492  14.828
70207W        W42467  14.183   5.242  12.403
70208W        W42468  25.962  18.827   2.771
70209W        W42469  29.410  31.038   0.467
70210W        W42470   6.625   2.723  11.519
70211W        W42471   6.747  17.792  11.471
70212W        W42472  25.109  19.191  12.724
70213W        W42473   5.715  34.378  13.823
70214W        W42474  43.370  35.889  10.725
70215W        W42475   0.918  34.950   0.298
70216W        W42476  27.904  16.129   1.315
70217W        W42477  37.809   2.821   1.196
70218W        W42478  32.627  40.910  14.721
70219W        W42479  24.782  29.338  10.747
70220W        W42480  28.394   8.764   2.870
70221W        W42481  42.372  37.488  12.932
70222W        W42482  22.714  29.465   0.183
70223W        W42483  17.928  24.091   1.666
70224W        W42484  15.546  10.593  12.561
70225W        W42485  27.935  13.676  13.045
70226W        W42486  44.701  19.223  10.726
70227W        W42487  25.920  30.862   4.138
70228W        W42488  14.123  25.776   1.303
70229W        W42489  42.892   2.391   4.092
70230W        W42490  26.158  39.390  13.469
70231W        W42491  31.464  30.596  10.593
70232W        W42492   8.596   0.750   4.197
70233W        W42493  10.649  26.615   4.388
70234W        W42494  14.929  25.774  14.871
70235W        W42495  30.667  20.325   0.315
70236W        W42496  12.248  25.508   2.428
70237W        W42497  13.077   7.194  14.774
70238W        W42498  25.575  12.067  13.084
70239W        W42499  12.826  37.403  12.153
70240W        W42500   8.673  37.001   0.263
70241W        W42501  40.285  37.480  10.098
70242W        W42502  24.605   3.419  14.762
70243W        W42503  25.086  21.437  12.825
70244W        W42504  16.661  27.087   4.918
70245W        W42505  18.546  14.104  11.555
70246W        W42506  42.568  27.209   1.880
70247W        W42507  22.683   3.417  14.687
70248W        W42508  38.402  40.274   3.161
70249W        W42509  38.364  19.079   1.934
70250W        W42510   4.532  19.712   5.066
70251W        W42511  24.896  41.305   9.851
70252W        W42512  25.279   9.268  12.109
70253W        W42513  36.450  25.141   4.279
70254W        W42514  12.744  22.549   1.803
70255W        W42515  13.328  11.262   0.418
70256W        W42516  12.181   3.738   0.974
70257W        W42517  24.374  44.814  12.301
70258W        W42518  26.403  34.358   3.067
70259W        W42519  37.260  16.501  14.148
70260W        W42520   9.845   2.694   1.382
70261W        W42521  23.821  33.069  12.095
70262W        W42522   2.362  24.102   4.563
70263W        W42523  25.009  24.703   1.151
70264W        W42524  42.967  41.901   0.828
70265W        W42525  32.018   0.916  13.412
70266W        W42526  41.738  20.145  13.020
70267W        W42527  31.995  41.764   2.855
70268W        W42528  26.598   4.700  14.782
70269W        W42529  32.411  12.925  14.469
70270W        W42530  42.476  44.870   3.922
70271W        W42531   8.801  33.844   2.243
70272W        W42532   9.391   4.393   1.169
70273W        W42533  30.264  29.326  10.792
70274W        W42534  37.453  28.922  10.894
70275W        W42535  43.286   5.432   4.571
70276W        W42536  31.887  11.779  12.048
70277W        W42537  12.891  34.499  14.567
70278W        W42538  33.370  33.298  10.464
70279W        W42539  44.276  33.099  10.734
70280W        W42540  31.907   2.094   4.919
70281W        W42541  42.122  17.985  10.045
70282W        W42542  22.022   5.977   2.834
70283W        W42543  37.998  15.259  11.276
70284W        W42544   3.443  14.186  14.882
70285W        W42545  40.562   2.274   1.734
70286W        W42546  35.647   6.297  12.605
70287W        W42547  22.266  10.265   0.861
70288W        W42548  44.598  18.109   1.652
70289W        W42549  35.863  34.305   4.444
70290W        W42550  14.772  34.345   3.161
70291W        W42551  34.725   6.182   3.319
70292W        W42552  42.031   1.020  13.400
70293W        W42553   6.500  26.736  11.124
70294W        W42554  44.834  25.160  13.311
70295W        W42555   1.007   3.395   1.388
70296W        W42556  26.973  41.041   4.535
70297W        W42557   2.497  26.192  10.407
70298W        W42558  12.694  24.565   2.958
70299W        W42559  32.045  43.277  14.318
70300W        W42560  31.346  32.936  13.854
70301W        W42561   7.658   8.709   1.764
70302W        W42562  20.135  19.055  12.035
70303W        W42563  35.409  41.811   1.881
70304W        W42564  35.624  37.721  11.108
70305W        W42565   5.265  23.437   3.734
70306W        W42566  23.641  17.255  13.400
70307W        W42567  25.513  20.487   4.537
70308W        W42568  41.944  29.333   4.972
70309W        W42569  31.048  31.818  11.191
70310W        W42570  43.837   9.199  12.689
70311W        W42571   2.568  23.991   3.335
70312W        W42572  43.046  24.861   1.810
70313W        W42573  17.019   5.696   1.828
70314W        W42574  11.338  17.853   1.610
70315W        W42575  38.742   0.977   1.323
70316W        W42576  33.174  30.081  14.326
70317W        W42577  10.767   6.529  10.091
70318W        W42578  13.842  35.747  14.892
70319W        W42579  27.567   7.140   4.517
70320W        W42580   4.980  29.049  10.208
70321W        W42581   0.667   2.406  14.388
70322W        W42582  38.984  20.617   0.472
70323W        W42583  12.279  41.940   4.812
70324W        W42584  32.945  24.191   2.224
70325W        W42585  31.329  34.151   0.067
70326W        W42586  39.082  38.414   2.791
70327W        W42587   7.823  24.481   4.099
70328W        W42588  22.272  18.237   0.913
70329W        W42589   5.450  44.390   0.903
70330W        W42590  28.058   9.161   3.709
70331W        W42591   1.848  32.227   3.255
70332W        W42592  37.107   9.924  13.506
70333W        W42593  13.365  16.954   1.444
70334W        W42594  32.435   0.310   3.696
70335W        W42595  24.856   7.289   4.119
70336W        W42596   8.918  25.712  11.652
70337W        W42597  17.180  11.475  10.122
70338W        W42598  43.551  26.323   0.750
70339W        W42599  40.995  42.977  10.810
70340W        W42600  10.146  35.349   3.313
70341W        W42601  34.208   1.991   1.342
70342W        W42602  44.522  17.430  10.114
70343W        W42603  44.777  16.354   0.478
70344W        W42604  29.395  30.049  11.054
70345W        W42605  44.344  26.544  11.046
70346W        W42606   3.753  26.613  14.310
70347W        W42607   3.770  40.535  10.925
70348W        W42608  38.263  11.179  11.621
70349W        W42609  38.731  22.641   0.331
70350W        W42610   7.963   9.057   9.985
70351W        W42611   2.704  26.094   1.881
70352W        W42612  43.919  36.826   3.165
70353W        W42613   0.519   7.155   4.288
70354W        W42614  30.316  38.839  11.272
70355W        W42615  32.077  34.628  11.492
70356W        W42616  14.638  27.069   1.701
70357W        W42617  38.753  10.374   0.324
70358W        W42618  39.003  39.941  10.718
70359W        W42619   3.910   8.088   0.159
70360W        W42620   3.387  40.250   1.006
70361W        W42621  16.114   8.092   0.464
70362W        W42622  25.300  10.943   0.449
70363W        W42623  25.053  35.359   5.060
70364W        W42624  16.283  10.154  10.293
70365W        W42625  36.676  21.601  12.182
70366W        W42626  41.548  35.776  13.273
70367W        W42627  30.438  11.341  10.782
70368W        W42628  23.083   5.923  14.949
70369W        W42629  29.465  23.542  14.472
70370W        W42630  22.296  24.815   3.479
70371W        W42631  10.502  31.037  12.254
70372W        W42632   2.813  39.334   1.915
70373W        W42633  20.050  35.699   4.887
70374W        W42634   5.413   9.746  14.999
70375W        W42635  21.755  22.940  10.685
70376W        W42636   7.346  27.658  13.478
70377W        W42637   4.194  35.194   0.880
70378W        W42638  35.586  34.809  12.632
70379W        W42639  41.238  26.361  13.903
70380W        W42640   3.820  42.985   4.703
70381W        W42641  41.566  11.816  10.664
70382W        W42642  36.073  11.904  12.507
70383W        W42643  23.728  36.350  13.574
70384W        W42644  37.915   5.360  11.187
70385W        W42645  29.915   8.592  13.801
70386W        W42646  11.047   1.722  12.917
70387W        W42647  11.273  12.640   2.156
70388W        W42648  25.883   7.824  11.590
70389W        W42649  25.710  21.025  11.092
70390W        W42650  35.982  18.236  11.363
70391W        W42651  42.480  25.523  14.669
70392W        W42652  16.292  41.375  12.912
70393W        W42653  28.942  15.709   2.340
70394W        W42654  19.642  37.276   9.825
70395W        W42655   3.660   2.843  14.886
70396W        W42656  15.130  26.522   3.648
70397W        W42657  40.417  32.822   0.722
70398W        W42658  39.950  25.716   1.290
70399W        W42659   0.381  33.947   3.962
70400W        W42660   2.691  13.255   3.974
70401W        W42661  21.999  27.930   5.251
70402W        W42662  25.588  18.990   4.479
70403W        W42663   7.724  23.140  10.513
70404W        W42664  11.165   6.297  11.803
70405W        W42665   0.096  10.385   0.790
70406W        W42666  26.837   5.010  12.622
70407W        W42667  42.377  19.572   2.015
70408W        W42668  28.981  18.573  14.967
70409W        W42669  12.097  25.987   3.745
70410W        W42670  34.944  15.587   2.541
70411W        W42671  21.235  23.493   2.379
70412W        W42672  26.385  44.034  11.331
70413W        W42673  15.148   0.261  10.461
70414W        W42674   1.530  39.466   2.905
70415W        W42675   8.736  15.640   5.008
70416W        W42676  13.168  41.661   1.326
70417W        W42677  12.915  16.026   3.280
70418W        W42678   2.818  31.752   2.917
70419W        W42679  33.490  23.664  14.591
70420W        W42680   5.064  10.725   1.783
70421W        W42681  16.574  25.640  12.381
70422W        W42682   1.831  38.743  10.660
70423W        W42683  12.077  44.033  11.117
70424W        W42684  15.785   3.773  13.343
70425W        W42685   5.763  19.320   2.679
70426W        W42686  44.522   0.296  12.350
70427W        W42687  37.472  36.406   1.996
70428W        W42688  26.620  39.388  10.115
70429W        W42689  20.221  27.894  13.668
70430W        W42690  26.264  16.246  12.181
70431W        W42691  18.135  25.441  13.055
70432W        W42692   3.880  38.803   2.693
70433W        W42693  13.101  15.889   1.805
70434W        W42694  16.603  43.409  12.549
70435W        W42695  20.008  17.674   0.385
70436W        W42696  18.398   5.677   0.175
70437W        W42697   2.217   4.045  12.909
70438W        W42698  11.271  33.624   4.729
70439W        W42699  29.193  14.346  12.819
70440W        W42700  30.308  19.027  12.414
70441W        W42701   1.968  13.554   0.776
70442W        W42702  28.115  35.228  12.413
70443W        W42703  44.694  32.909  12.456
70444W        W42704  31.417  38.401  12.490
70445W        W42705   3.204  33.556  12.914
70446W        W42706  34.597  10.188   0.748
70447W        W42707   4.194  23.189  12.923
70448W        W42708  14.690  21.749  13.021
70449W        W42709  14.200  43.027  13.538
70450W        W42710  11.583  28.594   3.686
70451W        W42711  35.079   5.230  11.249
70452W        W42712   9.910   6.635   2.190
70453W        W42713  25.636   0.288   2.891
70454W        W42714  37.649   2.229  12.477
70455W        W42715  40.312  22.251  14.165
70456W        W42716   9.250  22.202   3.335
70457W        W42717  17.103  39.867  11.190
70458W        W42718   9.799  21.042   2.141
70459W        W42719   5.306  39.882  12.125
70460W        W42720  41.029  30.589   1.738
70461W        W42721   4.330   2.924   4.153
70462W        W42722  40.056  37.308  12.585
70463W        W42723   1.008  31.510   0.795
70464W        W42724  22.988  22.110  12.962
70465W        W42725   3.823   7.956   1.790
70466W        W42726  41.799  35.925   0.952
70467W        W42727  41.309  32.439   3.154
70468W        W42728  20.715  16.287  13.926
70469W        W42729  28.170  35.734  12.415
70470W        W42730  17.232  20.142   1.378
70471W        W42731  41.564  25.456  11.088
70472W        W42732  18.275  20.465   1.688
70473W        W42733  11.086  27.432  14.415
70474W        W42734  19.632  30.857  12.093
70475W        W42735  36.018  11.435  14.910
70476W        W42736   8.396   7.437   4.576
70477W        W42737  14.446  31.024   2.766
70478W        W42738  37.597  13.726  13.465
70479W        W42739  30.662  19.090  13.619
70480W        W42740   8.982  40.556  11.668
70481W        W42741  29.126  16.581  14.840
70482W        W42742  24.230  26.207   5.361
70483W        W42743  32.721   2.038  12.899
70484W        W42744   1.936  25.464   0.933
70485W        W42745   8.720  39.991  14.774
70486W        W42746  26.534  23.115  10.762
70487W        W42747  32.605  31.991   2.649
70488W        W42748  14.675   2.208  11.892
70489W        W42749  35.369  31.551   2.438
70490W        W42750  26.537  12.451   4.143
70491W        W42751  30.406  16.116  14.930
70492W        W42752  22.607  38.609  10.281
70493W        W42753  44.589  13.297   5.073
70494W        W42754  29.879  28.971  12.434
70495W        W42755  13.652   1.749  14.834
70496W        W42756   3.844  24.512   3.384
70497W        W42757  35.903  28.183   0.713
70498W        W42758   0.513  13.874   0.461
70499W        W42759  38.762  12.565   3.661
70500W        W42760  26.010  28.111  11.009
70501W        W42761  37.063  12.864  13.836
70502W        W42762  13.400  10.908  12.616
70503W        W42763  23.596  11.158   0.483
70504W        W42764  37.979   1.220   0.926
70505W        W42765  26.717  29.248  11.505
70506W        W42766  12.741  25.277   2.439
70507W        W42767   9.262  41.958   2.831
70508W        W42768  43.922  25.525  14.250
70509W        W42769  15.064   6.931   1.763
70510W        W42770  15.171  32.187   0.610
70511W        W42771  29.724  40.278  14.500
70512W        W42772  17.384  43.609  13.742
70513W        W42773   6.021  39.092  13.753
70514W        W42774  39.918  15.145  14.160
70515W        W42775  28.954   0.813  13.450
70516W        W42776  19.193  39.436   3.697
70517W        W42777  36.574  15.304   2.668
70518W        W42778  44.926  40.729   2.728
70519W        W42779  11.260  39.545   4.184
70520W        W42780  36.109  19.749   0.901
70521W        W42781  18.376  24.998   4.103
70522W        W42782  11.211  28.908  13.417
70523W        W42783  36.613  28.403  11.923
70524W        W42784  41.101   0.366  13.732
70525W        W42785  28.164  35.186   4.846
70526W        W42786  41.057   3.837  10.911
70527W        W42787  15.463  20.937   0.966
70528W        W42788  22.951  15.237  12.507
70529W        W42789   5.657  11.026  11.059
70530W        W42790   0.690  29.581   3.744
70531W        W42791   2.185  27.702  14.393
70532W        W42792  11.217   6.886   3.762
70533W        W42793  24.177   4.812   4.067
70534W        W42794  28.403   9.169   0.289
70535W        W42795  12.542   8.790  11.931
70536W        W42796  26.488   0.862  14.784
70537W        W42797  33.567   4.393   3.035
70538W        W42798   2.418  22.447  13.790
70539W        W42799  37.672   1.231  14.400
70540W        W42800   3.260  29.418   3.752
70541W        W42801  41.956  36.439  12.930
70542W        W42802  22.779  18.070  11.982
70543W        W42803  33.111   0.722  10.666
70544W        W42804  29.009  41.010  11.524
70545W        W42805  33.182  43.416  10.557
70546W        W42806  12.368  36.821  14.357
70547W        W42807  16.505  25.598  14.075
70548W        W42808  24.155   7.669  14.808
70549W        W42809  16.342  41.821   4.066
70550W        W42810  24.942  17.193   4.776
70551W        W42811  39.361  31.317  14.884
70552W        W42812   0.977  26.904  10.661
70553W        W42813  11.270  26.400   5.252
70554W        W42814  24.822  19.699   2.813
70555W        W42815  35.488  21.421   2.504
70556W        W42816  11.096  19.810   1.849
70557W        W42817   2.940  10.359   3.253
70558W        W42818   0.418  16.133  14.331
70559W        W42819  44.798  41.845  12.915
70560W        W42820  26.431  44.552  11.519
70561W        W42821  34.769   8.323   3.704
70562W        W42822  20.573   8.694   0.013
70563W        W42823  20.195  30.980   4.584
70564W        W42824  35.881  11.254   1.851
70565W        W42825   9.126  38.457  11.053
70566W        W42826  16.457  35.605   0.712
70567W        W42827   6.899  39.992   0.867
70568W        W42828  16.557   7.201  12.887
70569W        W42829  21.494  31.187  11.979
70570W        W42830  11.861  24.677   0.915
70571W        W42831  13.794  21.941  10.804
70572W        W42832  18.069   7.828   0.739
70573W        W42833  17.328   4.453   0.280
70574W        W42834  21.646  36.101   5.210
70575W        W42835  36.066  12.533   1.835
70576W        W42836  37.009  38.445  13.562
70577W        W42837  42.278  39.359   1.756
70578W        W42838   9.398  12.154  13.314
70579W        W42839  27.873   7.390   1.315
70580W        W42840  37.451  28.020  13.088
70581W        W42841  13.053  41.331  14.205
70582W        W42842  26.600  14.649   4.757
70583W        W42843   8.286  18.378  11.141
70584W        W42844  31.599  15.837   1.198
70585W        W42845  44.494  24.108   3.065
70586W        W42846  12.612   9.807   0.242
70587W        W42847  20.212  16.703  11.162
70588W        W42848  18.120  44.164  11.696
70589W        W42849   6.183   5.890  10.850
70590W        W42850  34.496  39.915  12.023
70591W        W42851  29.623  43.495  10.845
70592W        W42852  18.264  16.228   3.113
70593W        W42853   8.332  17.779  12.416
70594W        W42854  37.945  39.359  14.419
70595W        W42855  12.219  24.481  12.378
70596W        W42856   5.354  20.352  10.732
70597W        W42857  32.404  11.541   1.684
70598W        W42858  34.476  22.522   1.044
70599W        W42859  14.605  36.399  11.022
70600W        W42860  37.079  24.940  14.273
70601W        W42861   1.170  42.685   2.874
70602W        W42862  32.498  41.887  11.104
70603W        W42863   8.301  30.441  13.472
70604W        W42864  39.899  31.944  11.897
70605W        W42865  43.120   1.428  10.144
70606W        W42866  38.465  13.266  13.334
70607W        W42867  27.500  33.863  14.181
70608W        W42868  24.245  32.114  13.624
70609W        W42869   8.725  18.694   1.663
70610W        W42870  34.425  24.577   0.900
70611W        W42871  15.392  22.493  13.435
70612W        W42872  40.055  12.733  13.003
70613W        W42873   2.009  31.632  12.603
70614W        W42874  31.532  15.292   0.771
70615W        W42875  25.586  39.359   3.350
70616W        W42876   3.834  23.622  12.024
70617W        W42877   3.351  21.210  12.718
70618W        W42878  21.085  32.527  10.669
70619W        W42879  20.542  10.240   1.799
70620W        W42880  22.043   9.362  13.962
70621W        W42881  11.941  23.537   3.140
70622W        W42882  39.517  44.767   4.184
70623W        W42883  15.206   9.093  14.057
70624W        W42884  15.613  30.082  10.639
70625W        W42885  23.532   7.986  10.807
70626W        W42886  34.007  22.260   2.271
70627W        W42887  19.390   2.472   3.239
70628W        W42888  35.549   9.143  12.009
70629W        W42889  44.756   3.163  12.327
70630W        W42890  27.605  34.416  12.397
70631W        W42891  42.653  25.895  11.946
70632W        W42892  33.472  18.876  12.940
70633W        W42893  15.154   6.420  11.998
70634W        W42894  36.421  17.122  13.955
70635W        W42895   1.230  35.996  11.575
70636W        W42896  28.132  33.376  13.825
70637W        W42897  25.061  42.489  13.960
70638W        W42898  22.250  26.277  12.009
70639W        W42899  11.151  15.736   3.323
70640W        W42900  36.898   5.995   4.440
70641W        W42901  38.572  40.824  10.717
70642W        W42902   3.447  22.065   0.246
70643W        W42903  26.630   6.483   4.188
70644W        W42904  32.615  20.598   3.904
70645W        W42905  19.180  15.917   1.444
70646W        W42906  34.787  10.532   4.590
70647W        W42907   6.576   8.565  11.288
70648W        W42908  15.890   8.231   4.692
70649W        W42909  21.150  39.502  13.757
70650W        W42910  40.569  11.052  13.928
70651W        W42911  43.653  14.482  14.979
70652W        W42912  43.976  17.272  11.951
70653W        W42913  25.142   6.533   3.680
70654W        W42914  28.338  11.697  14.563
70655W        W42915  11.280  19.094  12.047
70656W        W42916  12.329   0.422   2.417
70657W        W42917  39.425  20.641  10.326
70658W        W42918  12.246  22.951   3.748
70659W        W42919  36.866  35.144  14.021
70660W        W42920   3.828  16.165   4.223
70661W        W42921   5.398   2.903  14.732
70662W        W42922  12.181  33.162   2.235
70663W        W42923  15.230  35.520   4.906
70664W        W42924  34.410   3.731  11.657
70665W        W42925  39.347  35.710   2.323
70666W        W42926  20.373  42.184   4.344
70667W        W42927   0.169  39.143   1.831
70668W        W42928  33.637  20.050  11.552
70669W        W42929   3.239   0.627   2.512
70670W        W42930  16.031  16.259  11.867
70671W        W42931  40.131   7.623   4.260
70672W        W42932   8.850  24.661   4.163
70673W        W42933  23.011  36.905  12.529
70674W        W42934  20.264   0.935  14.947
70675W        W42935  41.020  39.544  10.712
70676W        W42936  36.038   2.145   1.518
70677W        W42937   0.564  26.603   4.384
70678W        W42938  23.029   6.408  12.113
70679W        W42939   2.556  37.429  13.870
70680W        W42940  39.239  22.788   4.864
70681W        W42941   8.513   2.362  14.440
70682W        W42942  20.314  27.512  12.491
70683W        W42943  38.367   0.671  14.309
70684W        W42944  14.792   9.610   1.364
70685W        W42945  25.882  26.543  14.407
70686W        W42946  18.340   3.619  12.922
70687W        W42947  12.262  20.490  14.801
70688W        W42948  44.425  37.958  14.396
70689W        W42949  26.602  40.569   5.089
70690W        W42950  28.934  24.272  14.840
70691W        W42951  37.300  34.276   3.637
70692W        W42952   8.817  22.907  13.593
70693W        W42953   8.386  24.537  13.526
70694W        W42954  33.621  28.555  12.117
70695W        W42955  19.518  12.292  11.639
70696W        W42956  19.431  29.731  12.089
70697W        W42957   2.938   4.780  12.846
70698W        W42958  34.513  23.510   4.605
70699W        W42959  26.747   4.237   2.762
70700W        W42960  12.171  30.511  13.129
70701W        W42961   8.708  43.220   0.106
70702W        W42962   1.413  19.522   2.251
70703W        W42963  44.975  33.930   0.852
70704W        W42964  28.490  22.635  10.707
70705W        W42965  14.607  14.319  11.494
70706W        W42966  44.980   3.774   2.758
70707W        W42967  16.761  44.518   4.636
70708W        W42968   4.937   5.277  14.042
70709W        W42969  27.710  27.267   0.282
70710W        W42970  34.092  32.024  12.967
70711W        W42971  10.125  17.298   3.497
70712W        W42972   6.399  33.440   4.621
70713W        W42973   1.857  14.332  13.896
70714W        W42974  42.369  20.466   2.072
70715W        W42975  34.922  20.733   3.294
70716W        W42976  16.571  12.580   1.899
70717W        W42977   1.792  33.500   2.298
70718W        W42978   5.158   9.838   1.925
70719W        W42979  31.760  44.680  12.066
70720W        W42980  25.008  36.104   0.123
70721W        W42981  43.514  40.740   1.488
70722W        W42982  38.898  30.621   4.321
70723W        W42983  23.457  40.828  14.979
70724W        W42984  21.144  10.354  12.634
70725W        W42985  29.621  19.943  12.031
70726W        W42986  41.803   2.157  10.496
70727W        W42987   6.231  29.958   0.679
70728W        W42988  32.675  20.246  13.094
70729W        W42989  10.133  39.855  12.044
70730W        W42990  26.452  36.065   2.678
70731W        W42991  23.426  23.098   0.365
70732W        W42992   9.154  26.212   0.793
70733W        W42993  43.977  39.177  12.924
70734W        W42994   6.941  38.320   1.823
70735W        W42995  41.993  16.828  10.756
70736W        W42996  16.751  44.284   4.168
70737W        W42997  19.587  18.480  14.910
70738W        W42998  12.166  19.776   2.684
70739W        W42999  33.323   4.795  14.465
70740W        W43000  21.275  31.173   3.637
70741W        W43001   0.993  34.926   0.839
70742W        W43002   1.708  12.531   3.226
70743W        W43003  28.253   7.387   3.757
70744W        W43004   3.835  35.634  12.503
70745W        W43005  13.188  16.709  10.325
70746W        W43006  44.004  13.212  14.382
70747W        W43007  17.222   0.979  10.661
70748W        W43008  11.745  21.355  13.812
70749W        W43009  30.105  20.217  14.478
70750W        W43010   3.437  28.256   1.848
70751W        W43011  11.425   2.379   1.826
70752W        W43012  11.697  42.582  11.617
70753W        W43013   5.682  27.639   2.139
70754W        W43014   8.743  33.568   1.257
70755W        W43015  25.498  20.951   0.318
70756W        W43016  29.167   8.410  14.210
70757W        W43017  31.518   6.315  14.945
70758W        W43018  16.322  41.751   4.582
70759W        W43019   3.283  35.989  11.128
70760W        W43020   9.192  37.050   3.724
70761W        W43021  22.935  36.129  12.032
70762W        W43022  31.128  22.163  10.778
70763W        W43023   0.318  18.734   1.245
70764W        W43024  21.029   5.788  14.738
70765W        W43025  29.052   2.459   0.493
70766W        W43026   9.875  33.377  14.119
70767W        W43027  13.396   5.234   2.717
70768W        W43028  23.249  18.798   3.642
70769W        W43029  28.573  23.103   4.238
70770W        W43030  39.122  14.244   0.241
70771W        W43031  20.822  23.033  12.662
70772W        W43032  35.169  43.296   2.680
70773W        W43033   4.024  18.194  11.180
70774W        W43034  11.093  42.249   1.847
70775W        W43035  15.253  39.819  11.511
70776W        W43036  17.497  10.237  14.860
70777W        W43037   7.672  33.392  12.008
70778W        W43038  32.079  23.445  12.523
70779W        W43039  33.584  27.782  12.505
70780W        W43040  44.412   9.544   2.192
70781W        W43041  31.100   0.393  11.136
70782W        W43042  19.210   1.943   3.343
70783W        W43043  22.340  20.095   3.077
70784W        W43044  24.217  33.874   4.207
70785W        W43045  37.126  22.570  11.534
70786W        W43046  30.236  15.958  11.160
70787W        W43047  32.955   6.246  14.039
70788W        W43048  12.134   0.074   0.511
70789W        W43049  21.066  15.482   1.339
70790W        W43050  30.887  21.741   4.232
70791W        W43051  25.110  17.138  13.026
70792W        W43052  16.629  24.421   4.383
70793W        W43053  19.077  43.980   2.891
70794W        W43054  20.507   2.175  13.425
70795W        W43055  41.128  36.919  11.465
70796W        W43056  18.284  38.933   0.959
70797W        W43057  17.698  32.959  12.884
70798W        W43058  17.704  32.300   3.766
70799W        W43059   1.484  25.968   1.485
70800W        W43060  28.382  23.698   0.834
70801W        W43061   9.267  32.885  12.875
70802W        W43062  34.520  39.835  13.998
70803W        W43063  15.069  43.918   3.130
70804W        W43064  10.725  13.472   1.916
70805W        W43065  28.430  32.961   1.647
70806W        W43066  40.998  10.548  10.556
70807W        W43067  12.662  18.143  11.625
70808W        W43068  25.890   7.697  14.781
70809W        W43069  40.197  14.409   3.998
70810W        W43070   3.568  40.302   0.468
70811W        W43071  28.883   2.297  11.173
70812W        W43072  22.164  15.867  10.908
70813W        W43073  42.938  40.010   2.200
70814W        W43074  42.461  13.077   0.329
70815W        W43075  23.894  28.455  13.437
70816W        W43076  19.045  18.311  11.543
70817W        W43077  44.879  15.746   2.891
70818W        W43078  15.078  13.787   3.762
70819W        W43079  29.766   5.040  12.454
70820W        W43080   0.449  16.494   4.640
70821W        W43081  18.364  28.210   1.377
70822W        W43082  22.774  42.453  14.263
70823W        W43083   3.816   6.206  14.895
70824W        W43084  29.808   9.730   2.881
70825W        W43085  10.446  40.937  14.413
70826W        W43086   4.790  13.525   4.218
70827W        W43087   2.791  28.535   4.534
70828W        W43088  16.998  30.727   0.009
70829W        W43089   9.965  32.231   2.731
70830W        W43090   1.588  23.615  13.370
70831W        W43091  30.905  38.929  14.817
70832W        W43092  14.061  16.816   3.768
70833W        W43093  22.029  15.616  14.010
70834W        W43094  29.078  23.478   0.275
70835W        W43095  38.871  13.725  14.045
70836W        W43096  24.097   7.447  11.096
70837W        W43097  32.408  44.816   3.474
70838W        W43098  15.958  11.920  10.414
70839W        W43099  11.237  28.194  12.573
70840W        W43100  22.486  18.212  12.452
70841W        W43101   6.436  24.673   4.447
70842W        W43102  39.711  42.520  11.108
70843W        W43103  38.375  35.080  12.484
70844W        W43104  14.825  15.234   2.271
70845W        W43105   0.411  22.127   2.900
70846W        W43106  33.161   4.198   2.334
70847W        W43107  26.249  10.261  13.540
70848W        W43108  20.023  34.419   4.147
70849W        W43109  26.780  33.004  14.851
70850W        W43110   8.833  27.013  14.393
70851W        W43111  33.983  28.558   0.254
70852W        W43112  31.861  41.020   4.884
70853W        W43113  16.561  38.436   1.043
70854W        W43114  38.143  19.775  13.517
70855W        W43115  27.929  24.116  14.949
70856W        W43116  17.709  33.299   2.581
70857W        W43117  40.590  13.397  11.256
70858W        W43118  28.569  40.750  11.429
70859W        W43119  15.702  33.023  13.542
70860W        W43120  15.758  37.621  12.308
70861W        W43121  16.778   7.814   2.161
70862W        W43122  18.566   6.293  12.026
70863W        W43123  14.597  13.035  11.526
70864W        W43124   2.435  20.800  10.432
70865W        W43125  14.906  20.991   2.241
70866W        W43126  25.975  36.002  11.595
70867W        W43127  39.918  19.643  11.113
70868W        W43128   9.929  18.529  11.382
70869W        W43129   3.554   1.295  14.894
70870W        W43130  41.417   3.328  12.962
70871W        W43131  12.282  31.860  10.704
70872W        W43132  34.009  17.167  13.628
70873W        W43133  23.559  30.560  13.967
70874W        W43134  28.828  14.850  13.929
70875W        W43135  44.449  19.156  11.198
70876W        W43136  33.422  35.037  12.528
70877W        W43137  35.073  40.793  11.956
70878W        W43138   1.842  22.800   2.878
70879W        W43139   9.474   3.878  13.753
70880W        W43140  29.951  12.358  14.771
70881W        W43141  32.041  22.211  14.049
70882W        W43142   9.408  22.008   0.759
70883W        W43143  13.678  15.588  13.433
70884W        W43144  43.457  36.996  14.360
70885W        W43145   5.112   7.536  10.570
70886W        W43146  29.487  37.980  12.892
70887W        W43147  36.392  16.784   3.211
70888W        W43148   7.405  22.529   2.459
70889W        W43149   6.234  34.852   3.331
70890W        W43150  34.945  18.243   3.690
70891W        W43151   5.407  23.590  12.540
70892W        W43152  41.489  19.649   3.312
70893W        W43153  22.930  32.141  11.090
70894W        W43154  16.851   6.388   4.602
70895W        W43155  37.378  24.509   3.663
70896W        W43156   1.195  13.583  12.035
70897W        W43157  36.894   2.628  14.486
70898W        W43158  18.634  24.583  11.267
70899W        W43159  12.682   4.532  14.165
70900W        W43160   6.470   0.205   2.952
70901W        W43161  30.366  11.520   3.697
70902W        W43162   9.424  29.028  14.308
70903W        W43163  36.028  15.627   2.375
70904W        W43164  17.133  36.926  11.161
70905W        W43165  10.808   5.643   0.777
70906W        W43166  28.595  43.081   4.889
70907W        W43167  35.216  10.813  14.916
70908W        W43168  10.457   8.448  11.485
70909W        W43169  11.493  28.346  10.265
70910W        W43170  40.587  14.614  13.043
70911W        W43171  16.659   2.742  10.582
70912W        W43172  19.545  26.281  12.474
70913W        W43173  40.768  10.957   2.382
70914W        W43174  39.097  16.391   4.563
70915W        W43175  36.958  39.303   4.063
70916W        W43176  41.019  35.340   2.884
70917W        W43177  14.550  31.223   1.438
70918W        W43178  17.747  30.139   4.876
70919W        W43179   9.473  32.155   4.204
70920W        W43180  32.563  33.336   1.274
70921W        W43181  15.040  37.126  12.913
70922W        W43182  35.695  44.579  12.423
70923W        W43183  30.952  28.764  10.722
70924W        W43184  43.462   9.577   2.869
70925W        W43185  36.778  39.765   0.402
70926W        W43186  25.066  38.797  11.006
70927W        W43187  32.461   6.359  11.123
70928W        W43188  44.026  24.029  11.151
70929W        W43189  28.040  25.196  10.701
70930W        W43190  40.790   8.138  11.603
70931W        W43191  29.189   9.058  13.515
70932W        W43192  15.332  30.230   5.030
70933W        W43193  26.705   2.724  12.810
70934W        W43194  42.356   5.853   4.548
70935W        W43195  24.459  16.711   3.140
70936W        W43196  17.525  16.850   1.610
70937W        W43197   2.736   1.421  14.466
70938W        W43198  36.599  12.304   1.474
70939W        W43199  21.958  26.694  11.037
70940W        W43200  25.529   6.894   3.712
70941W        W43201  42.771  34.120   2.643
70942W        W43202  14.863  34.913   1.351
70943W        W43203  24.063  30.722  12.785
70944W        W43204  20.041  40.068   1.279
70945W        W43205  43.948  30.282  12.438
70946W        W43206  22.137  14.563   2.625
70947W        W43207  21.026  38.451  13.506
70948W        W43208  11.184   6.288  11.307
70949W        W43209  43.973   9.863  11.891
70950W        W43210   0.651  21.686  14.869
70951W        W43211   3.060   5.856   2.411
70952W        W43212  10.961  10.260  11.004
70953W        W43213  16.519  15.194  14.445
70954W        W43214  42.311  33.443   4.628
70955W        W43215  35.116  12.562   3.610
70956W        W43216  28.112   6.493  14.069
70957W        W43217   4.348  15.126   2.932
70958W        W43218  15.541   9.703   0.882
70959W        W43219  38.652  16.829  10.339
70960W        W43220  39.886  20.904   4.427
70961W        W43221  23.739  11.691  11.914
70962W        W43222  32.233   1.283   2.404
70963W        W43223  30.850  34.406   2.717
70964W        W43224   1.760  40.845   2.881
70965W        W43225  28.023  37.854  12.617
70966W        W43226  16.807   7.839   1.241
70967W        W43227  25.018  37.419   5.016
70968W        W43228   6.297  31.217  14.284
70969W        W43229  17.882   2.324   4.777
70970W        W43230  22.526  41.351  11.635
70971W        W43231   8.149  42.373  10.678
70972W        W43232   1.092  23.193  12.444
70973W        W43233  12.968   0.003  14.927
70974W        W43234  15.051  30.826  14.992
70975W        W43235   2.202   8.920  12.934
70976W        W43236  31.135  13.683  14.993
70977W        W43237  43.335  28.105   2.873
70978W        W43238  31.858  21.171   0.599
70979W        W43239  30.525  34.399  13.040
70980W        W43240   8.416  35.516  10.626
70981W        W43241  31.083  33.371   1.323
70982W        W43242  18.978   7.964  14.379
70983W        W43243  23.282  31.625   2.323
70984W        W43244  26.021   1.292   4.216
70985W        W43245  24.168  39.993   2.338
70986W        W43246   8.657   5.840  11.930
70987W        W43247  37.246  25.867   0.477
70988W        W43248  42.238   9.152  11.482
70989W        W43249  20.499  44.530  13.125
70990W        W43250   0.467  13.134  13.553
70991W        W43251   3.377  26.411   2.215
70992W        W43252  14.304  11.177   3.837
70993W        W43253  26.679  20.106  11.343
70994W        W43254  29.504  33.813  10.586
70995W        W43255   4.348  25.013   4.131
70996W        W43256   4.874  43.555   4.249
70997W        W43257  29.965   6.236   1.889
70998W        W43258   0.687  28.651  12.452
70999W        W43259  29.965  16.086  10.721
71000W        W43260  39.455  19.664   4.157
71001W        W43261  21.488   8.717   4.447
71002W        W43262  19.787  11.823   3.187
71003W        W43263  16.552   9.080   4.447
71004W        W43264  12.695  20.065   0.375
71005W        W43265  24.096  38.456  14.641
71006W        W43266  20.134  42.924   3.331
71007W        W43267  15.120  13.666   0.182
71008W        W43268  15.866  19.006   0.997
71009W        W43269  42.692   0.908   0.512
71010W        W43270  24.589  35.955  12.044
71011W        W43271  21.015  44.506  12.984
71012W        W43272  15.120   8.427   3.734
71013W        W43273   5.325   3.388   4.556
71014W        W43274   1.134  35.471   0.904
71015W        W43275   4.943  41.886   0.792
71016W        W43276  40.744  28.190   9.974
71017W        W43277  23.488  33.400   0.324
71018W        W43278  24.136  28.483   1.786
71019W        W43279  21.734  24.688  11.097
71020W        W43280  23.940   7.924   3.303
71021W        W43281  12.977   7.549  12.979
71022W        W43282   3.248  39.607   1.821
71023W        W43283  26.258  43.726   1.351
71024W        W43284  11.359   4.842   4.096
71025W        W43285  41.796   6.576   4.500
71026W        W43286  39.732  11.892  12.001
71027W        W43287  30.427  10.875  12.035
71028W        W43288  21.613  29.697   1.296
71029W        W43289  15.693   4.710   0.416
71030W        W43290  40.026  43.808  12.909
71031W        W43291  16.179  26.069   2.088
71032W        W43292  21.257  23.791  12.221
71033W        W43293  33.947  25.198   0.474
71034W        W43294  41.565  28.525  14.622
71035W        W43295  14.288  11.959  12.504
71036W        W43296  16.094   5.859  13.346
71037W        W43297  14.912  41.171   4.134
71038W        W43298  15.028  36.072  10.867
71039W        W43299  37.191  27.479  14.004
71040W        W43300  40.941  19.984   4.713
71041W        W43301  11.780  17.715  11.491
71042W        W43302  28.974  17.075  14.970
71043W        W43303  20.134  27.953  10.053
71044W        W43304  40.330  20.200  11.108
71045W        W43305  42.552  28.042  14.733
71046W        W43306  25.508  20.223   1.225
71047W        W43307  28.687  33.209  13.579
71048W        W43308  41.508  40.042  12.543
71049W        W43309  43.839  34.006  14.339
71050W        W43310  17.591  26.388   1.375
71051W        W43311  37.765  12.392   3.725
71052W        W43312  13.091   8.371  11.217
71053W        W43313  29.635   1.850   3.112
71054W        W43314  14.056  43.439  13.832
71055W        W43315   6.174  19.236   4.520
71056W        W43316  40.358  24.991   3.261
71057W        W43317  36.581  37.808   0.824
71058W        W43318  13.843  25.507   2.906
71059W        W43319  43.029   2.266   3.599
71060W        W43320  28.996   7.521  14.512
71061W        W43321  37.029   9.633   0.779
71062W        W43322  39.604  42.013  12.373
71063W        W43323  42.540  44.446  12.809
71064W        W43324  24.746  31.419  14.031
71065W        W43325  32.895  29.633  11.931
71066W        W43326   9.828  31.811  13.708
71067W        W43327  27.463  33.622  11.941
71068W        W43328  34.571  36.388   0.737
71069W        W43329   7.171  25.490   1.973
71070W        W43330  19.765  38.520   2.506
71071W        W43331  42.337  26.001   4.888
71072W        W43332  25.684  15.084   3.294
71073W        W43333  16.778   8.150   4.574
71074W        W43334  25.640  20.782   4.136
71075W        W43335  28.929   1.239  12.686
71076W        W43336   0.506  16.751   0.664
71077W        W43337  21.193   6.244  13.885
71078W        W43338  31.947   3.378   3.619
71079W        W43339  43.494  39.347  14.907
71080W        W43340  26.805  18.763   0.892
71081W        W43341   2.438  11.625  11.126
71082W        W43342   8.740  31.597   0.325
71083W        W43343  36.603  37.215  11.779
71084W        W43344   6.271   0.122   2.454
71085W        W43345  34.203  12.701   0.075
71086W        W43346  20.775   4.610   1.854
71087W        W43347  23.992  36.621  13.118
71088W        W43348   4.364  22.001   4.129
71089W        W43349   1.536  12.054  14.054
71090W        W43350  26.128  16.240   3.218
71091W        W43351   2.492  27.587  10.964
71092W        W43352  10.170   1.447   1.759
71093W        W43353   9.844  13.183   1.829
71094W        W43354  38.178  25.623  11.510
71095W        W43355  20.572  10.134   0.736
71096W        W43356  26.452  36.399  13.891
71097W        W43357  27.834   2.392  11.984
71098W        W43358   9.262  12.531  14.756
71099W        W43359  44.502  43.342  13.838
71100W        W43360  21.691  20.256  13.261
71101W        W43361  41.369  29.694  13.811
71102W        W43362  29.582  14.341  10.824
71103W        W43363  43.381  30.958   0.381
71104W        W43364  17.835  23.690  14.880
71105W        W43365   7.942  37.900   3.646
71106W        W43366  13.639  38.777  12.045
71107W        W43367  13.544   3.437  12.329
71108W        W43368  11.815  17.729   3.587
71109W        W43369   2.730  41.301  14.354
71110W        W43370  38.392  35.074   0.025
71111W        W43371   1.164  22.738   4.027
71112W        W43372  19.161   6.757  14.080
71113W        W43373  26.957   3.391  11.412
71114W        W43374  44.415  16.284   4.578
71115W        W43375  32.678   2.852  14.511
71116W        W43376  10.130   7.917   1.950
71117W        W43377  29.997   4.503   1.267
71118W        W43378  43.845  30.723   2.797
71119W        W43379   0.999  21.513  13.799
71120W        W43380  20.205   0.708  10.680
71121W        W43381  12.102   6.624  11.614
71122W        W43382   4.599   1.387   3.398
71123W        W43383   6.063   0.279   3.308
71124W        W43384  32.335  22.602   3.614
71125W        W43385  44.341  36.922   2.886
71126W        W43386   2.764  40.967  13.042
71127W        W43387  30.103  42.989   5.249
71128W        W43388   1.185  37.507  14.811
71129W        W43389  13.418  44.253  13.409
71130W        W43390  18.069  18.279   3.382
71131W        W43391  40.040   6.716  13.312
71132W        W43392   8.155  33.401   3.052
71133W        W43393  19.864  29.030   3.870
71134W        W43394  12.918  24.008  11.571
71135W        W43395  28.253  35.990  10.032
71136W        W43396   6.061  38.766   2.796
71137W        W43397  21.269  40.324   2.755
71138W        W43398  14.812   8.857  13.826
71139W        W43399  40.042  18.084   2.416
71140W        W43400  21.885  29.865  14.304
71141W        W43401  42.710  29.344   3.700
71142W        W43402  38.006  14.675  12.063
71143W        W43403  12.299  21.539  11.684
71144W        W43404  15.322  39.535  14.597
71145W        W43405  23.181  22.676  14.177
71146W        W43406  29.302  28.645   0.382
71147W        W43407  11.720   5.232   0.951
71148W        W43408   2.717   4.719  12.376
71149W        W43409  30.936   6.643   0.937
71150W        W43410  39.440  22.212  11.317
71151W        W43411  27.373  15.856   3.312
71152W        W43412  36.957  33.698  14.142
71153W        W43413  16.520  43.261  12.056
71154W        W43414  29.101  15.663   2.923
71155W        W43415  33.119  40.724  12.946
71156W        W43416  41.452  22.743   1.312
71157W        W43417   4.158  34.634  13.268
71158W        W43418   5.736  18.914   3.653
71159W        W43419   2.258  29.681  11.532
71160W        W43420  21.031   3.788  14.435
71161W        W43421  32.682  43.257  14.931
71162W        W43422  38.440  38.770  13.615
71163W        W43423  38.326  12.744  12.424
71164W        W43424  15.104  17.553  14.298
71165W        W43425  22.465  39.817  14.509
71166W        W43426   4.871  32.111   0.476
71167W        W43427  13.284  14.105  14.864
71168W        W43428   3.302   2.791   0.423
71169W        W43429  16.798  14.728  10.629
71170W        W43430  17.709  44.999   0.443
71171W        W43431  19.273  20.095   4.582
71172W        W43432  19.826  22.202  12.371
71173W        W43433  35.485  30.482   4.895
71174W        W43434  28.061   3.836   1.673
71175W        W43435  23.157  31.054  14.899
71176W        W43436   5.857  31.995   1.665
71177W        W43437  18.718  10.390   0.819
71178W        W43438  36.666   6.393  11.605
71179W        W43439   1.965  22.965  12.023
71180W        W43440  28.725  20.131   1.794
71181W        W43441  41.324  37.276  12.976
71182W        W43442  18.480  31.533   0.375
71183W        W43443  12.374   5.405  13.991
71184W        W43444  10.279  29.711   3.248
71185W        W43445  38.260  21.111   1.247
71186W        W43446  15.677   7.627   1.938
71187W        W43447  17.835  40.110   4.234
71188W        W43448  34.943  24.867  10.109
71189W        W43449  16.061  40.063  11.131
71190W        W43450  32.465  21.915  13.171
71191W        W43451  28.637   8.295  10.832
71192W        W43452  21.532   3.889  10.576
71193W        W43453  20.239  21.101   4.581
71194W        W43454  42.255  44.784  14.093
71195W        W43455   6.731  36.980   4.853
71196W        W43456  33.305  32.749  11.570
71197W        W43457  41.318  30.737   2.152
71198W        W43458  42.479  20.141   1.359
71199W        W43459  33.973  38.285   2.800
71200W        W43460   2.830   7.516   1.908
71201W        W43461   2.036  40.958  12.161
71202W        W43462  15.627  13.287   0.036
71203W        W43463  16.690  32.283   1.238
71204W        W43464   9.119  37.582   4.336
71205W        W43465  34.458   8.905   3.672
71206W        W43466   0.918  17.282   2.353
71207W        W43467  35.495  16.638  10.800
71208W        W43468  25.430   2.770  14.934
71209W        W43469  28.881  10.767   2.635
71210W        W43470  32.858  34.359  12.111
71211W        W43471   1.711  31.149   1.138
71212W        W43472   9.705   6.160  13.841
71213W        W43473   3.831  43.800   1.855
71214W        W43474   8.339   9.617  12.952
71215W        W43475  41.625   6.460  11.299
71216W        W43476   3.988  42.936  13.430
71217W        W43477  24.969  26.555  11.541
71218W        W43478  27.627  35.113   0.867
71219W        W43479  41.762  44.242   3.627
71220W        W43480   7.161  12.154  10.485
71221W        W43481  20.523   0.049  13.866
71222W        W43482   5.433  38.643  13.025
71223W        W43483  33.148  24.515  14.342
71224W        W43484  17.111  20.605   0.314
71225W        W43485  25.716  18.381   3.131
71226W        W43486  33.015  12.293   1.807
71227W        W43487  36.579  15.758   5.088
71228W        W43488  28.750   4.535  14.489
71229W        W43489  42.834  16.336   2.737
71230W        W43490   7.860  35.602   2.824
71231W        W43491  31.992  27.046  13.498
71232W        W43492  41.766  42.375   0.433
71233W        W43493   9.776  28.621  13.105
71234W        W43494  19.980  36.816  11.647
71235W        W43495  21.598  13.659   1.472
71236W        W43496  20.648  36.061   1.996
71237W        W43497  12.735  44.991  11.390
71238W        W43498   9.221  43.337  14.363
71239W        W43499  29.525  21.710  11.804
71240W        W43500  33.616  18.341  13.003
71241W        W43501  34.405  29.922  11.000
71242W        W43502   3.891  25.166  13.038
71243W        W43503  31.722   2.894   3.445
71244W        W43504  17.198   0.275   4.454
71245W        W43505  35.530  44.662  14.473
71246W        W43506  41.929  11.719   1.197
71247W        W43507   0.299  15.096   3.393
71248W        W43508  41.755  26.881  13.277
71249W        W43509  18.235  18.128  12.808
71250W        W43510   4.474  32.064  13.563
71251W        W43511  38.323   9.103   5.478
71252W        W43512   2.424  24.650   0.885
71253W        W43513  22.960   5.186  12.385
71254W        W43514  42.846  22.869   3.897
71255W        W43515  11.936  41.266  11.118
71256W        W43516  21.048   8.962  13.048
71257W        W43517   5.806  35.334  12.128
71258W        W43518  19.617  22.131   3.783
71259W        W43519  16.817  39.383   0.060
71260W        W43520   0.412   5.713  12.930
71261W        W43521   2.395  23.752  14.011
71262W        W43522  42.340  20.691  10.394
71263W        W43523  19.136  37.354   0.836
71264W        W43524  44.965  36.947   4.637
71265W        W43525   2.134  27.661  11.343
71266W        W43526   3.729  18.292   5.087
71267W        W43527   4.525  10.828  13.496
71268W        W43528  29.455  21.518   2.491
71269W        W43529  33.356   8.700  10.299
71270W        W43530  36.373  21.910   4.809
71271W        W43531   0.516  12.314   4.217
71272W        W43532  44.344   8.752   2.880
71273W        W43533  25.461  11.829  11.545
71274W        W43534   4.864  21.718  13.735
71275W        W43535   1.904  34.928   0.044
71276W        W43536  26.071  34.855   3.714
71277W        W43537  35.761  23.558   3.747
71278W        W43538  33.282  17.790   4.572
71279W        W43539  21.593   6.399  11.137
71280W        W43540   1.808  42.969  14.352
71281W        W43541  12.900  24.689  13.046
71282W        W43542  37.864  36.811  11.092
71283W        W43543   7.260   6.828  13.327
71284W        W43544  13.621   4.890  12.867
71285W        W43545  43.820   0.920  14.817
71286W        W43546  22.480   9.086  11.685
71287W        W43547   5.454  25.477   2.343
71288W        W43548   8.912  33.336  13.837
71289W        W43549  44.840   4.986   1.903
71290W        W43550   3.883  30.360  11.915
71291W        W43551  40.232   3.831   2.212
71292W        W43552  33.700  23.217   4.531
71293W        W43553  15.104  34.055   0.916
71294W        W43554  35.463  30.113   0.685
71295W        W43555  16.853  37.751  11.890
71296W        W43556  41.871   9.609   3.241
71297W        W43557  34.680  16.598  13.441
71298W        W43558  10.152  22.545   4.017
71299W        W43559  31.852   2.841   1.878
71300W        W43560  43.563  22.129   1.306
71301W        W43561  30.063  20.890   1.537
71302W        W43562  40.239   7.974  14.048
71303W        W43563   9.290  38.999   2.111
71304W        W43564  30.108  44.659  12.469
71305W        W43565  24.216  26.269   4.619
71306W        W43566   5.443  23.572   3.237
71307W        W43567  43.322  14.372  14.505
71308W        W43568  43.827   0.325  12.068
71309W        W43569   2.852   0.232   0.105
71310W        W43570  11.815  29.205  11.703
71311W        W43571  15.342  23.483  12.917
71312W        W43572  10.144  25.921   3.893
71313W        W43573   4.782  18.674  10.387
71314W        W43574  35.006  18.396   4.213
71315W        W43575  18.272  21.679  10.679
71316W        W43576  21.594   3.883  12.524
71317W        W43577  19.743  12.849   4.244
71318W        W43578  32.048  38.992   0.431
71319W        W43579  22.550  36.425  14.714
71320W        W43580  19.161   3.319   2.846
71321W        W43581  22.513  39.068  11.958
71322W        W43582  17.766  11.229   3.223
71323W        W43583  15.528  18.177  11.445
71324W        W43584  33.166   3.183   0.016
71325W        W43585  10.914  11.593   1.815
71326W        W43586  24.785   5.965  14.785
71327W        W43587  13.299  13.195  14.878
71328W        W43588  34.076  11.170   3.832
71329W        W43589  11.712  33.604   3.638
71330W        W43590  21.382  29.106   2.801
71331W        W43591  28.447  33.422  11.054
71332W        W43592  30.219  11.663  14.538
71333W        W43593   3.338  21.542  13.919
71334W        W43594  28.611  10.233   1.431
71335W        W43595  38.951   0.954   4.592
71336W        W43596   6.233   0.504  13.004
71337W        W43597  36.415  37.403   3.662
71338W        W43598  20.474   3.586   1.725
71339W        W43599  37.400  13.914  11.119
71340W        W43600  36.220   1.728  12.392
71341W        W43601   4.985  19.939   0.407
71342W        W43602  15.112  22.618  12.451
71343W        W43603  28.217  10.780  13.558
71344W        W43604   3.950  28.172   4.572
71345W        W43605  29.926  25.187  10.643
71346W        W43606  30.928  19.473   1.912
71347W        W43607  25.267  41.379   1.963
71348W        W43608  18.466  15.767   0.804
71349W        W43609   6.645   5.907   2.331
71350W        W43610  29.693  23.000  14.450
71351W        W43611   0.261   4.865  13.527
71352W        W43612  13.200  15.093   1.393
71353W        W43613  23.031  36.887  14.903
71354W        W43614  15.254  20.967  11.144
71355W        W43615   8.361  23.632  12.652
71356W        W43616  30.664  15.645  14.923
71357W        W43617   7.641  33.434  11.169
71358W        W43618  34.798  15.801   0.729
71359W        W43619  38.043  24.568  12.972
71360W        W43620  25.796  35.677  11.934
71361W        W43621  16.781  12.333   2.335
71362W        W43622   6.099  30.537  11.540
71363W        W43623  25.671  39.284   0.830
71364W        W43624  16.284   4.872   3.736
71365W        W43625  36.586  42.805   0.832
71366W        W43626  28.404  38.384   2.850
71367W        W43627  37.642   5.010   0.609
71368W        W43628  14.304  22.545   4.029
71369W        W43629  16.988  41.743   0.917
71370W        W43630  39.872   1.830   1.258
71371W        W43631   5.924  33.525   0.776
71372W        W43632   7.346   7.225   2.876
71373W        W43633   9.643  19.236  13.556
71374W        W43634   3.959  28.572   4.171
71375W        W43635  10.428  37.067  11.511
71376W        W43636  20.692  23.238  14.787
71377W        W43637  36.882  39.791  11.103
71378W        W43638   2.905   4.889  14.167
71379W        W43639  30.379  38.981   0.903
71380W        W43640  42.269  14.165   4.105
71381W        W43641  32.922  37.068   0.721
71382W        W43642  29.531  28.531  11.244
71383W        W43643  14.440  30.984  10.103
71384W        W43644  37.897  24.447   3.644
71385W        W43645   2.174  41.042  10.768
71386W        W43646  41.959  25.976   4.506
71387W        W43647  16.615   3.988   3.190
71388W        W43648  20.758  28.711   3.899
71389W        W43649  15.071  32.969  10.709
71390W        W43650  39.359   8.094   4.088
71391W        W43651  16.124  18.667  12.880
71392W        W43652  25.673  40.571  10.359
71393W        W43653   3.268   2.954   3.367
71394W        W43654   8.658  42.612  11.529
71395W        W43655  33.518   6.605  11.036
71396W        W43656   0.311  27.736   4.614
71397W        W43657  30.678  32.343   3.774
71398W        W43658  21.039  23.019   2.380
71399W        W43659  41.976  12.871  13.981
71400W        W43660  28.058  37.910  14.822
71401W        W43661  36.574   2.865   0.355
71402W        W43662  29.270  24.586  12.923
71403W        W43663  11.247  16.752  13.093
71404W        W43664  34.039  14.576  13.185
71405W        W43665  27.937  15.043  11.985
71406W        W43666  12.325  16.648   3.098
71407W        W43667  12.602  39.439  12.879
71408W        W43668  40.509  14.777   4.215
71409W        W43669  10.146  11.393   2.328
71410W        W43670  32.571  26.973  13.310
71411W        W43671  15.165  12.942   2.187
71412W        W43672  20.522   0.213   0.908
71413W        W43673  10.753  44.820   0.345
71414W        W43674  14.797   4.245   0.218
71415W        W43675  26.691  13.412   0.888
71416W        W43676   0.200  29.504   4.613
71417W        W43677  23.001  34.041  10.432
71418W        W43678  15.419  21.156  10.699
71419W        W43679   3.790  34.512   3.129
71420W        W43680  40.218  43.522   2.007
71421W        W43681  35.302   6.094  12.970
71422W        W43682   1.394  35.610   4.093
71423W        W43683  24.945  24.752  14.820
71424W        W43684  16.168  29.051  13.395
71425W        W43685   3.413   0.128  12.137
71426W        W43686  25.988  24.689  14.717
71427W        W43687  43.471  36.119  12.544
71428W        W43688  43.015  10.788   3.113
71429W        W43689  41.365  16.349   3.550
71430W        W43690   3.570   7.230   4.027
71431W        W43691  38.827  24.689   4.829
71432W        W43692  12.492  26.536   1.233
71433W        W43693   6.651  44.433  11.583
71434W        W43694  19.008  35.419  12.846
71435W        W43695  39.766   3.847   4.545
71436W        W43696  30.726  19.981  13.941
71437W        W43697  32.132  10.665   1.066
71438W        W43698  29.916   1.991  11.894
71439W        W43699   0.694  28.721  11.034
71440W        W43700  11.237  30.558   3.931
71441W        W43701   7.083  30.116   2.886
71442W        W43702  34.826   2.470  14.870
71443W        W43703   8.608   1.284   4.278
71444W        W43704  10.388  20.345  10.717
71445W        W43705  34.118   3.153   0.381
71446W        W43706  44.995  32.046  11.985
71447W        W43707  18.736  20.001   4.469
71448W        W43708  11.221   7.124  11.786
71449W        W43709  13.910  35.312   2.242
71450W        W43710  38.839  42.922   3.358
71451W        W43711  31.035  23.613  11.465
71452W        W43712  17.994   2.049   1.854
71453W        W43713  28.944  37.097  11.797
71454W        W43714  33.522  10.715  12.403
71455W        W43715  44.678  37.496  11.954
71456W        W43716  43.641  27.120  12.683
71457W        W43717  28.154  18.149   3.057
71458W        W43718  42.937  38.368  11.993
71459W        W43719   8.846  11.512  13.959
71460W        W43720  30.111  20.577   2.742
71461W        W43721   7.145  20.802  13.416
71462W        W43722  33.039  17.157   3.275
71463W        W43723  30.585  28.170   4.113
71464W        W43724  22.495  20.625   2.968
71465W        W43725   0.126  31.581  11.531
71466W        W43726  43.068  11.769  11.333
71467W        W43727  38.080  39.029   0.012
71468W        W43728  13.801  30.111   3.378
71469W        W43729  14.998   1.650  12.484
71470W        W43730  38.101  19.183  13.592
71471W        W43731  39.051  39.802   3.186
71472W        W43732  31.711   3.028  14.679
71473W        W43733   3.059  29.438  11.090
71474W        W43734  26.517  13.787  11.510
71475W        W43735  26.280  44.807   3.705
71476W        W43736  13.870  13.681   2.014
71477W        W43737  42.426   7.286  10.656
71478W        W43738  38.079   4.270  11.921
71479W        W43739  25.888   2.399   3.430
71480W        W43740  20.569  26.453  12.047
71481W        W43741  21.005  36.910   2.727
71482W        W43742  30.650  28.829  11.994
71483W        W43743  23.953  31.559  14.732
71484W        W43744  33.143  18.559  14.746
71485W        W43745  16.109  29.729   0.329
71486W        W43746  43.282  41.271  13.374
71487W        W43747  36.897  23.260  14.888
71488W        W43748   2.607  14.310  13.588
71489W        W43749  37.006  29.672   1.265
71490W        W43750  35.944  33.544  14.507
71491W        W43751  29.100   7.214  14.910
71492W        W43752  28.666  27.395   4.153
71493W        W43753   4.409  35.135   3.261
71494W        W43754  41.519   1.811  14.818
71495W        W43755  19.486   8.337   2.359
71496W        W43756  42.500   1.214  12.415
71497W        W43757   0.175  29.540   3.746
71498W        W43758  12.281   2.482   4.566
71499W        W43759  39.142  11.192  13.972
71500W        W43760  38.279  27.673  12.103
71501W        W43761  40.284  14.202   2.148
71502W        W43762  35.399   3.446  13.789
71503W        W43763  33.066  10.842  14.776
71504W        W43764  25.591   9.263  11.633
71505W        W43765   8.259  37.303   0.357
71506W        W43766  27.120  11.326  13.619
71507W        W43767   1.002  40.858   2.147
71508W        W43768  11.789   4.473  14.391
71509W        W43769  28.206  43.554   0.403
71510W        W43770  31.196   3.898  14.347
71511W        W43771  21.696  30.914  12.680
71512W        W43772  25.034  21.179  10.248
71513W        W43773  41.493  21.639   3.647
71514W        W43774  15.963  18.269   0.107
71515W        W43775  27.140  43.879  13.895
71516W        W43776   0.572  25.214   0.795
71517W        W43777   6.952  18.101   2.812
71518W        W43778   4.768  26.943  13.827
71519W        W43779  33.892  11.770   4.601
71520W        W43780   4.518  29.063   3.021
71521W        W43781   6.684  34.963   3.074
71522W        W43782   2.480  29.587   2.261
71523W        W43783  24.992   4.447  14.437
71524W        W43784  36.222   5.696   3.080
71525W        W43785  37.039   8.401  10.720
71526W        W43786  30.428  16.764  11.126
71527W        W43787  23.687  26.213   4.623
71528W        W43788  23.452  31.850  14.174
71529W        W43789   4.424  17.160  11.923
71530W        W43790  18.615   9.287   0.468
71531W        W43791   6.404   4.671   3.342
71532W        W43792  10.252  13.083  13.432
71533W        W43793  12.843  31.463  12.364
71534W        W43794   0.375   1.441   1.216
71535W        W43795  30.071  29.434   3.765
71536W        W43796  34.236   5.415  12.381
71537W        W43797   4.273  15.150  12.592
71538W        W43798  32.446  32.801  11.559
71539W        W43799  11.388  12.811  11.115
71540W        W43800  21.653  25.594   3.471
71541W        W43801   1.414  17.287   1.409
71542W        W43802  31.656  38.943  14.652
71543W        W43803   0.819  41.472  14.356
71544W        W43804  24.374   7.196   2.693
71545W        W43805  27.439  13.263   4.063
71546W        W43806  25.120  23.572  13.557
71547W        W43807  13.224  10.452   5.060
71548W        W43808  17.350  26.526  11.159
71549W        W43809  37.538  35.371   4.562
71550W        W43810  19.184  10.226  14.785
71551W        W43811   1.558   4.182   1.933
71552W        W43812   8.597  18.112   2.161
71553W        W43813   4.577  44.534  13.422
71554W        W43814  19.044  38.939   1.992
71555W        W43815  10.263   9.663  13.154
71556W        W43816  41.497  18.328  11.345
71557W        W43817  17.895  16.295   2.336
71558W        W43818  33.903  30.252   3.318
71559W        W43819   4.796  34.000   1.147
71560W        W43820  26.734   3.415  10.032
71561W        W43821   2.234  19.157  12.751
71562W        W43822  15.076   8.957  12.844
71563W        W43823   7.127   9.182  13.372
71564W        W43824  37.095   6.425  13.357
71565W        W43825  23.368  21.124  12.470
71566W        W43826  26.194  13.144   3.638
71567W        W43827   8.948  31.801   2.433
71568W        W43828  44.942  27.621  13.450
71569W        W43829  35.423   7.934   0.290
71570W        W43830  17.363  16.665   0.449
71571W        W43831  14.359   1.268   4.605
71572W        W43832  19.588  23.169  10.599
71573W        W43833  20.320   3.326   2.451
71574W        W43834  39.616  43.893  11.188
71575W        W43835  28.950   8.874   0.816
71576W        W43836  11.430   4.753   2.773
71577W        W43837   6.598  11.430  13.820
71578W        W43838  26.967   9.976  12.197
71579W        W43839  39.077   8.689   2.714
71580W        W43840  18.036   6.688  10.561
71581W        W43841  24.947   8.063  12.407
71582W        W43842  30.885  34.959  12.489
71583W        W43843  34.868  14.981   4.297
71584W        W43844  12.592  42.201   0.285
71585W        W43845  33.118  23.108  10.594
71586W        W43846  40.325  18.023   1.596
71587W        W43847  17.308  29.373  13.101
71588W        W43848  26.722  13.392  13.523
71589W        W43849  30.207  14.169   2.211
71590W        W43850  15.534  17.178  14.443
71591W        W43851  14.030  24.355  14.850
71592W        W43852  10.422   1.366  10.422
71593W        W43853  13.174  20.634  10.628
71594W        W43854   3.708  23.106  11.126
71595W        W43855  35.589  14.706   4.340
71596W        W43856  17.650  44.272   4.178
71597W        W43857  42.675  28.788   2.130
71598W        W43858  14.871  31.622   1.329
71599W        W43859  21.074  11.866   1.858
71600W        W43860   5.439  20.543   2.139
71601W        W43861   0.352  15.275   0.971
71602W        W43862  15.275   8.214  13.471
71603W        W43863  22.530  37.380   4.568
71604W        W43864  16.904  30.004   3.777
71605W        W43865  23.054  23.041   3.230
71606W        W43866  29.090  34.927  11.127
71607W        W43867  43.814  38.329   1.845
71608W        W43868  20.969  20.076  11.534
71609W        W43869  31.510  35.025   1.708
71610W        W43870  29.921  38.124  12.618
71611W        W43871  16.692  38.466  14.996
71612W        W43872  32.626   3.196   4.304
71613W        W43873  20.283  44.832   1.805
71614W        W43874  38.506  12.232   4.406
71615W        W43875  32.327  26.254   1.260
71616W        W43876   7.872  15.335  11.321
71617W        W43877   7.397  23.093  13.961
71618W        W43878   7.365  42.852   1.690
71619W        W43879  25.887   2.506   0.801
71620W        W43880  23.638  21.787   2.509
71621W        W43881   0.712  33.185  13.606
71622W        W43882  14.707  10.362   0.816
71623W        W43883  40.551  31.501   2.663
71624W        W43884  11.085  27.596   2.306
71625W        W43885   7.336  16.548  12.852
71626W        W43886  43.178   9.766  10.733
71627W        W43887   3.997   4.350   3.384
71628W        W43888  24.382  39.392   9.981
71629W        W43889   7.818  28.155   0.218
71630W        W43890  11.396   7.344   2.491
71631W        W43891  38.371  23.727  13.873
71632W        W43892   2.409  39.466   1.261
71633W        W43893  32.560  14.922   0.747
71634W        W43894  31.314  30.718  12.567
71635W        W43895  11.678  41.019   4.108
71636W        W43896  27.583  18.447   2.152
71637W        W43897  25.670  28.371   1.432
71638W        W43898  42.827  13.998   4.345
71639W        W43899  40.967  26.999  14.961
71640W        W43900  17.002  15.986   3.389
71641W        W43901  30.171  19.302  12.843
71642W        W43902  14.563   5.686  12.073
71643W        W43903  32.633  31.941   3.826
71644W        W43904  22.797  33.846   0.948
71645W        W43905  17.662  38.058   2.389
71646W        W43906  24.601  20.661  12.839
71647W        W43907  19.060  24.257  14.490
71648W        W43908  41.084  21.303  12.196
71649W        W43909  13.248  12.165  10.953
71650W        W43910  27.613  25.230  13.840
71651W        W43911   3.352   7.661   1.830
71652W        W43912  27.829  26.102  12.888
71653W        W43913  10.287  40.806   4.642
71654W        W43914  26.860  29.187   2.341
71655W        W43915  17.311   3.772   2.995
71656W        W43916  17.888  10.222   2.300
71657W        W43917  44.963  12.655   3.705
71658W        W43918   0.295  35.326   3.539
71659W        W43919  27.041  14.704   1.447
71660W        W43920   1.751  30.219   0.828
71661W        W43921  28.393  35.335   3.035
71662W        W43922  18.851   4.688   3.753
71663W        W43923  14.689   5.506  11.609
71664W        W43924  15.054   1.387  10.658
71665W        W43925  44.963   9.822  12.508
71666W        W43926  15.203  35.268   2.287
71667W        W43927  29.651  41.976  14.350
71668W        W43928   7.261  42.469   2.061
71669W        W43929  29.626  36.465   0.669
71670W        W43930  36.305  16.564  11.185
71671W        W43931  28.375  21.700   4.166
71672W        W43932  15.771  34.686   2.637
71673W        W43933  39.782  31.479   3.269
71674W        W43934   3.121  42.478  12.006
71675W        W43935  16.772  14.879  11.930
71676W        W43936  23.768   5.783   2.726
71677W        W43937  16.716  18.357  14.000
71678W        W43938   1.200  42.567  12.073
71679W        W43939  23.306  20.668  11.123
71680W        W43940   2.871  32.532  11.463
71681W        W43941   2.794  30.400  11.149
71682W        W43942  27.626  33.059  14.532
71683W        W43943   3.793  43.790  13.106
71684W        W43944  22.808  43.251   4.971
71685W        W43945  30.894   5.884   0.891
71686W        W43946  14.906  19.130  11.089
71687W        W43947  32.309  29.054   3.229
71688W        W43948   1.971  26.437  11.533
71689W        W43949  30.586  27.509   3.298
71690W        W43950   9.259  40.312   0.851
71691W        W43951  37.496  22.993  10.649
71692W        W43952  15.933  37.796   1.899
71693W        W43953  36.940  33.287   4.399
71694W        W43954  18.595  22.773  13.313
71695W        W43955  40.727   9.444  10.129
71696W        W43956   0.419  26.976   1.947
71697W        W43957  26.284  15.310  14.892
71698W        W43958  14.796  10.574  11.075
71699W        W43959  28.458   2.559   2.927
71700W        W43960   1.727  38.039   3.758
71701W        W43961  23.181  20.605   4.546
71702W        W43962  38.308  10.696  12.502
71703W        W43963  27.921  32.785  13.127
71704W        W43964  20.965  17.768  13.392
71705W        W43965  42.311  11.707   3.447
71706W        W43966   6.870  16.608  14.871
71707W        W43967   5.727  25.723   2.723
71708W        W43968  41.441  40.453  13.296
71709W        W43969  33.441  23.097   4.109
71710W        W43970  20.600  22.911  14.391
71711W        W43971  37.023  17.196  13.162
71712W        W43972  11.349  39.315   3.725
71713W        W43973  22.572  12.193  10.602
71714W        W43974   1.716  33.648  10.749
71715W        W43975  23.721   3.693   3.341
71716W        W43976   1.544   9.798  10.716
71717W        W43977   6.462  20.426   4.149
71718W        W43978  15.620  31.147  10.680
71719W        W43979  37.783  43.441  12.489
71720W        W43980  37.790  32.920   3.659
71721W        W43981  28.004  35.428  14.851
71722W        W43982  36.181   5.305  10.626
71723W        W43983  34.539  13.026   0.311
71724W        W43984  23.901   9.824  12.025
71725W        W43985  26.691  31.822   4.640
71726W        W43986  15.379  31.633  12.924
71727W        W43987  35.760  14.834   3.875
71728W        W43988  40.030  42.916  10.411
71729W        W43989  10.261  27.612  11.042
71730W        W43990  34.287  27.822  11.359
71731W        W43991  30.899  14.519  11.089
71732W        W43992  42.833  38.855   4.332
71733W        W43993  35.944  13.028   1.894
71734W        W43994  22.400  39.266   4.659
71735W        W43995  14.728   6.841   2.638
71736W        W43996  33.662  21.792   4.536
71737W        W43997  40.260   1.443   0.302
71738W        W43998  36.345  31.090  13.501
71739W        W43999  25.149  38.389   2.955
71740W        W44000  17.749  42.200  13.898
71741W        W44001  38.361  18.037   3.907
71742W        W44002   4.391  27.382  10.522
71743W        W44003   4.387  41.328  11.132
71744W        W44004  14.978  14.852   3.044
71745W        W44005  34.106   3.840   1.017
71746W        W44006   4.064  18.722   4.972
71747W        W44007   8.327  23.167   2.184
71748W        W44008  26.660   1.391   4.595
71749W        W44009  42.796  31.177  14.726
71750W        W44010  37.961  21.237   0.840
71751W        W44011   1.322  22.765  13.330
71752W        W44012  29.521  16.819  13.400
71753W        W44013  35.816   9.200   1.629
71754W        W44014  16.215  16.307   4.482
71755W        W44015  26.738   5.313   0.949
71756W        W44016  30.318  40.001  13.565
71757W        W44017   3.283  30.881   1.362
71758W        W44018   9.436   0.473   4.478
71759W        W44019  21.184  40.952   4.145
71760W        W44020  15.360  30.069   2.101
71761W        W44021   2.572   4.494  10.300
71762W        W44022  23.610  20.942  10.171
71763W        W44023  34.375  11.850   3.843
71764W        W44024   7.933  36.428   3.424
71765W        W44025  34.495   3.954   0.229
71766W        W44026  17.534   1.407  12.999
71767W        W44027  33.421  19.779  11.159
71768W        W44028  30.858  42.451  13.805
71769W        W44029  21.264  39.610  11.108
71770W        W44030  11.352  23.775   5.007
71771W        W44031   3.013  21.165   4.353
71772W        W44032  35.265  37.991  14.500
71773W        W44033  22.801  11.803   3.138
71774W        W44034   6.886  42.884   1.382
71775W        W44035  12.870  30.444   0.253
71776W        W44036  31.995  31.046  14.757
71777W        W44037  16.074  31.200   0.626
71778W        W44038  21.762  43.866  12.559
71779W        W44039  11.238  27.892   0.961
71780W        W44040  29.935  10.622  11.331
71781W        W44041  20.659  34.108   0.480
71782W        W44042  11.609  41.335   3.130
71783W        W44043  11.225   2.823   4.935
71784W        W44044  38.970  33.562   4.028
71785W        W44045   8.873  23.591  13.369
71786W        W44046  17.166  14.580   4.393
71787W        W44047   0.885  30.148  13.937
71788W        W44048  40.379   7.852  11.596
71789W        W44049  38.822  20.698  14.945
71790W        W44050  19.816  36.616  11.183
71791W        W44051  10.805   9.399   4.582
71792W        W44052  37.549  35.963   0.574
71793W        W44053   6.430  14.420  11.096
71794W        W44054  33.923  35.136  12.406
71795W        W44055  16.658  43.896  12.396
71796W        W44056  34.542  14.402   1.245
71797W        W44057   4.162  16.114  11.547
71798W        W44058  14.583  23.449  10.126
71799W        W44059  24.101  38.429   4.909
71800W        W44060   2.738  37.270   0.787
71801W        W44061   8.672  20.761  12.528
71802W        W44062   6.910  19.695  13.838
71803W        W44063  23.888  15.341   2.712
71804W        W44064  40.491   3.850   0.264
71805W        W44065  28.194  25.612   3.255
71806W        W44066   7.883  35.799   4.546
71807W        W44067   5.180  30.181  13.961
71808W        W44068  10.724  15.404   4.648
71809W        W44069   0.052  12.696   1.315
71810W        W44070  41.982  28.413   0.940
71811W        W44071  30.112  18.238   3.053
71812W        W44072  36.213   4.803   2.378
71813W        W44073  41.478  27.273  13.527
71814W        W44074  42.460  31.453  14.438
71815W        W44075  39.876   0.931   0.724
71816W        W44076  27.086  30.192  11.603
71817W        W44077  15.491  21.408  10.237
71818W        W44078  41.954   3.702  12.887
71819W        W44079  25.747   3.322  13.268
71820W        W44080  30.552  19.498  10.720
71821W        W44081  12.804  24.855  10.573
71822W        W44082  25.231  12.134   1.775
71823W        W44083  35.397  27.057  13.080
71824W        W44084  24.914  22.451  14.480
71825W        W44085  23.290   0.224   3.706
71826W        W44086  27.638  39.184   4.777
71827W        W44087  22.249  40.838   2.390
71828W        W44088  15.785  16.815   2.767
71829W        W44089  42.371  14.770   4.074
71830W        W44090  30.287   4.310   0.493
71831W        W44091   0.779  27.293  11.940
71832W        W44092  33.414  30.408   0.782
71833W        W44093  25.739  33.389  12.828
71834W        W44094  25.568  12.328  13.544
71835W        W44095  18.026   2.205  14.289
71836W        W44096  34.629  16.151  13.177
71837W        W44097   2.755   2.995   9.929
71838W        W44098   0.983   8.604  14.035
71839W        W44099  20.251   3.197   0.315
71840W        W44100  24.206  38.388  11.918
71841W        W44101  24.611   6.657   2.370
71842W        W44102  22.977  28.415  12.435
71843W        W44103  10.556  12.736  14.819
71844W        W44104  16.652  27.068   4.398
71845W        W44105  36.850   5.707   0.326
71846W        W44106   7.906   2.543   3.079
71847W        W44107  38.206   1.705  10.757
71848W        W44108   5.223  23.487   1.446
71849W        W44109  20.152  42.041   2.315
71850W        W44110   8.771  25.002   2.343
71851W        W44111  23.267  10.743  14.363
71852W        W44112  32.093  13.257  10.407
71853W        W44113   0.689  31.388  14.968
71854W        W44114  12.755   9.509  12.410
71855W        W44115  16.023   6.666  13.830
71856W        W44116  33.716  26.164   3.966
71857W        W44117  24.467  34.376   2.107
71858W        W44118  24.078   6.254  12.085
71859W        W44119  41.387  31.131   0.037
71860W        W44120  15.565  23.598   4.147
71861W        W44121  17.509  13.316  13.952
71862W        W44122  23.758  26.770  11.104
71863W        W44123  28.895  36.159  11.220
71864W        W44124   9.838   1.684   2.223
71865W        W44125  12.777   7.877   0.302
71866W        W44126  41.720   7.422   2.887
71867W        W44127  33.955  26.507   3.574
71868W        W44128   5.286  11.774  12.834
71869W        W44129  28.900  42.807  12.941
71870W        W44130  18.768  41.916  13.945
71871W        W44131  16.281  37.755   2.286
71872W        W44132   7.427  28.754  13.388
71873W        W44133  11.331   9.317  11.976
71874W        W44134  12.245  18.533   3.260
71875W        W44135  19.713  24.482  13.036
71876W        W44136  19.124  30.171   4.056
71877W        W44137  41.941   9.941  14.959
71878W        W44138   2.406  19.794   3.281
71879W        W44139  40.199  17.472  13.930
71880W        W44140  21.503  31.659  12.984
71881W        W44141   7.251  14.287   0.682
71882W        W44142  19.653  25.091   0.546
71883W        W44143  13.629   4.176   1.946
71884W        W44144  39.811   5.321   3.747
71885W        W44145   9.211  16.725   2.717
71886W        W44146  31.914   5.844  11.631
71887W        W44147  40.431   5.730   0.906
71888W        W44148  22.349   5.713  14.190
71889W        W44149   4.733  26.457   4.595
71890W        W44150  15.875  40.210   4.299
71891W        W44151  18.467  27.714   2.902
71892W        W44152  14.782  40.075   0.314
71893W        W44153  27.987  38.603   2.660
71894W        W44154  32.155  37.905  11.210
71895W        W44155   7.764  18.533  13.614
71896W        W44156  24.238  28.990   3.301
71897W        W44157   5.932  43.833   2.352
71898W        W44158  27.093  22.335   0.739
71899W        W44159  31.140  14.735  11.650
71900W        W44160  14.764   3.309   2.400
71901W        W44161  42.751  40.510   2.767
71902W        W44162  43.442   9.785   3.853
71903W        W44163  13.573  31.399   0.858
71904W        W44164  32.895  25.548   0.715
71905W        W44165  25.364  32.929   2.653
71906W        W44166  29.214  43.401  14.515
71907W        W44167  21.804  11.627   0.286
71908W        W44168  16.041  18.949  12.466
71909W        W44169   0.108  27.043  13.015
71910W        W44170  22.622  35.102   3.530
71911W        W44171  20.049   7.778  13.780
71912W        W44172   7.833  29.020  11.702
71913W        W44173  29.291  34.402  14.530
71914W        W44174  42.502   9.799  12.355
71915W        W44175  18.991  11.061   0.267
71916W        W44176  17.460  23.052   4.202
71917W        W44177   9.378  18.837  11.986
71918W        W44178  16.611  27.668  11.035
71919W        W44179   9.086  30.903   0.475
71920W        W44180   7.128  39.097  12.447
71921W        W44181  24.259  20.284  12.989
71922W        W44182  25.660  34.349  11.544
71923W        W44183  41.532  41.777   2.330
71924W        W44184  36.055   1.798  11.527
71925W        W44185   4.660  24.097   4.648
71926W        W44186  20.251  26.759   5.358
71927W        W44187  33.415  14.911   3.257
71928W        W44188  19.197  29.445   4.559
71929W        W44189  31.908  21.564  11.876
71930W        W44190   2.352  29.332   3.717
71931W        W44191  27.577  15.843  10.489
71932W        W44192   1.030  12.817  14.894
71933W        W44193   8.007  35.675  13.960
71934W        W44194  39.823  43.074   2.865
71935W        W44195  17.729  43.362  10.600
71936W        W44196  11.314  17.636   0.351
71937W        W44197  32.900   4.413   3.268
71938W        W44198  28.204  44.237  11.578
71939W        W44199  42.442  43.275  14.567
71940W        W44200  15.279  27.454  12.163
71941W        W44201   8.165  22.568   1.238
71942W        W44202  38.887   9.329   2.136
71943W        W44203  18.102  10.783   0.750
71944W        W44204  34.865  14.106   3.364
71945W        W44205   1.182  43.416  13.486
71946W        W44206  14.839  28.570   2.866
71947W        W44207   7.977  13.729  14.352
71948W        W44208  31.564  21.150  14.306
71949W        W44209   6.141  39.510  10.457
71950W        W44210  20.633  37.813  11.937
71951W        W44211  32.610  41.999  14.326
71952W        W44212  13.655  18.573   2.903
71953W        W44213  19.313  35.902   3.954
71954W        W44214   9.175  13.335  12.883
71955W        W44215  19.748  27.001   1.194
71956W        W44216  29.238  23.435  10.679
71957W        W44217  16.027  16.699   1.463
71958W        W44218  24.659   0.669   3.254
71959W        W44219  28.726  21.043  14.057
71960W        W44220  14.147   9.330  12.546
71961W        W44221  41.504   7.744  13.036
71962W        W44222   4.443  44.534   1.784
71963W        W44223  39.057  25.197  12.524
71964W        W44224  29.386  16.949   5.063
71965W        W44225   3.352  42.011   1.456
71966W        W44226  39.726   6.612  11.267
71967W        W44227  44.255  32.907  11.207
71968W        W44228  16.820  38.877   0.320
71969W        W44229  14.416   4.686   1.453
71970W        W44230  43.481  34.355   1.391
71971W        W44231  15.785  26.652  14.413
71972W        W44232   8.367  37.932  14.089
71973W        W44233  40.424  23.487   4.544
71974W        W44234  42.166  26.537   2.391
71975W        W44235  19.140  44.505   2.851
71976W        W44236  37.846  19.068   0.025
71977W        W44237  37.572  43.505  11.668
71978W        W44238  24.911  29.024  11.169
71979W        W44239  31.438  26.461   1.774
71980W        W44240  36.509  41.140  12.170
71981W        W44241  21.585  22.152   1.636
71982W        W44242  17.004  27.461  10.183
71983W        W44243   0.426  37.973   3.170
71984W        W44244   7.811  35.199  14.017
71985W        W44245  26.619  36.868  14.127
71986W        W44246  12.397  43.504   2.232
71987W        W44247  12.930  24.999   2.011
71988W        W44248  33.726   7.877  11.435
71989W        W44249  27.661  29.032  13.962
71990W        W44250  29.100   7.936  11.898
71991W        W44251   2.478   8.613   9.767
71992W        W44252  29.559  21.963   0.935
71993W        W44253  12.266  23.833  13.361
71994W        W44254  18.482  25.966  14.794
71995W        W44255  18.442  41.876   1.685
71996W        W44256  10.178  13.242   4.573
71997W        W44257  38.690  21.030   0.322
71998W        W44258  25.917   5.205   4.318
71999W        W44259  23.265  39.145   1.874
72000W        W44260   8.898  17.581   2.721
72001W        W44261  13.652  38.300   1.792
72002W        W44262  16.123  22.195   1.006
72003W        W44263  40.970  20.226  13.553
72004W        W44264  20.156   2.027   0.697
72005W        W44265  22.529   0.001   1.808
72006W        W44266  17.166  25.766  13.546
72007W        W44267  44.237  38.594  12.452
72008W        W44268  16.134   0.234   0.175
72009W        W44269  27.571  16.753   4.035
72010W        W44270  28.399   5.773   0.282
72011W        W44271  18.657  41.570   0.456
72012W        W44272  41.986  33.090  12.485
72013W        W44273  36.215  13.140  12.920
72014W        W44274  32.521  34.353   1.260
72015W        W44275  40.024  18.253  11.915
72016W        W44276  22.620  25.574  14.035
72017W        W44277  37.080  28.090  11.155
72018W        W44278  22.279   6.048  14.900
72019W        W44279  14.908  44.070   3.592
72020W        W44280  34.777  42.810   4.531
72021W        W44281   3.190  34.091  10.761
72022W        W44282  26.434  41.934   4.796
72023W        W44283  36.902  38.447   4.594
72024W        W44284  27.341  36.866   4.271
72025W        W44285   5.396   6.267  13.350
72026W        W44286  13.286  11.895  12.554
72027W        W44287  20.582  16.063   2.933
72028W        W44288   7.793  41.288   2.261
72029W        W44289  43.735  30.252   0.876
72030W        W44290  23.100   3.492   2.399
72031W        W44291  19.538  25.669  13.595
72032W        W44292  33.390   9.087  10.681
72033W        W44293   6.856  22.159  11.386
72034W        W44294  36.455  12.874   3.100
72035W        W44295   0.801  21.986  13.591
72036W        W44296  37.402  26.488   0.784
72037W        W44297  28.876  40.295  12.978
72038W        W44298  23.876  30.869  12.324
72039W        W44299  18.196  33.755   4.569
72040W        W44300   9.302  37.872   2.168
72041W        W44301  15.404   4.543  12.362
72042W        W44302  16.859  36.434  14.800
72043W        W44303   0.637  34.403  11.116
72044W        W44304  35.153  25.187   3.963
72045W        W44305  40.070  23.988   2.925
72046W        W44306  43.312   0.880   4.563
72047W        W44307  29.522   6.802  12.154
72048W        W44308  42.949  12.872  11.380
72049W        W44309  22.573  22.778   3.182
72050W        W44310  17.002   3.734   3.448
72051W        W44311  39.436   4.180  13.860
72052W        W44312  14.301  31.675   1.512
72053W        W44313  26.038   2.258   1.263
72054W        W44314   5.749  35.895  13.898
72055W        W44315  36.615  32.322   1.811
72056W        W44316  39.832  14.327   3.333
72057W        W44317  19.518  41.925  14.433
72058W        W44318  34.041  27.280   1.448
72059W        W44319  15.790   4.670  10.624
72060W        W44320  11.097   4.108   3.610
72061W        W44321  12.680  39.753  11.996
72062W        W44322  41.277  17.123  12.929
72063W        W44323  36.728  16.833  12.405
72064W        W44324   6.742  41.279   2.719
72065W        W44325  35.986  14.608  10.498
72066W        W44326  39.349  23.975  13.905
72067W        W44327  33.932  22.609  13.512
72068W        W44328  23.316   4.385   2.376
72069W        W44329  15.066   2.239  10.683
72070W        W44330  38.674  20.648   0.926
72071W        W44331  11.479  31.461  14.879
72072W        W44332  41.574  28.550   1.231
72073W        W44333  36.284  31.038  10.814
72074W        W44334  14.207  33.738  14.400
72075W        W44335   2.988   3.728  12.546
72076W        W44336  21.650  34.927   4.144
72077W        W44337  15.666  10.936  13.951
72078W        W44338   3.452  17.496  12.435
72079W        W44339   2.435  22.499  12.404
72080W        W44340   7.472  43.261   2.185
72081W        W44341  44.173  18.812  12.523
72082W        W44342  40.064  32.377   2.721
72083W        W44343  22.889  21.038   4.439
72084W        W44344  40.842  17.390   0.923
72085W        W44345   1.962   0.021  11.147
72086W        W44346  27.504  33.616   2.903
72087W        W44347  14.352  24.531  13.386
72088W        W44348  18.721  39.365   3.045
72089W        W44349   4.665  42.324  11.169
72090W        W44350  13.254  42.501   4.729
72091W        W44351  14.636  15.286   4.593
72092W        W44352  23.198  44.419  14.169
72093W        W44353   0.312  29.099  13.557
72094W        W44354  42.595  11.167   4.825
72095W        W44355  14.296  28.981   1.477
72096W        W44356  13.280  20.991   3.718
72097W        W44357  42.001   7.190  14.251
72098W        W44358  36.960  38.914  14.394
72099W        W44359  27.167   5.155   3.357
72100W        W44360   4.159  15.519  13.908
72101W        W44361  20.885  29.897  11.313
72102W        W44362  14.251   9.136   2.686
72103W        W44363   6.336  27.507   2.770
72104W        W44364  29.542  14.014   4.923
72105W        W44365   4.517  15.831  11.329
72106W        W44366  18.697   9.986  11.946
72107W        W44367  10.696  31.517  12.043
72108W        W44368  13.423  28.171   2.725
72109W        W44369  44.376  11.251   1.463
72110W        W44370  21.186  12.220  14.896
72111W        W44371  13.608  25.083  13.901
72112W        W44372  31.416  22.287   2.855
72113W        W44373  38.343  32.334   3.323
72114W        W44374  15.730  18.051   0.523
72115W        W44375  23.523  28.699  14.920
72116W        W44376   2.577  10.714  11.672
72117W        W44377  11.919  27.983   2.290
72118W        W44378  26.104  11.380   3.167
72119W        W44379  32.506  25.248   0.425
72120W        W44380  33.861  35.553   2.845
72121W        W44381  42.045  10.825   3.644
72122W        W44382  23.424   8.817   0.976
72123W        W44383  15.558  30.873  11.928
72124W        W44384  20.159  20.735  11.633
72125W        W44385   9.293  27.400  12.973
72126W        W44386  30.082  37.605  14.410
72127W        W44387  20.620  44.506  12.110
72128W        W44388  40.156  17.546   0.893
72129W        W44389   5.335   1.361  12.542
72130W        W44390   5.507  41.018  12.924
72131W        W44391   0.984  27.998  10.770
72132W        W44392  25.942  35.467  13.990
72133W        W44393  17.574  44.706   3.360
72134W        W44394  27.529   1.638  14.945
72135W        W44395  37.293  40.866   0.193
72136W        W44396  42.720   8.352  14.088
72137W        W44397   8.757  35.882   4.816
72138W        W44398  44.870  14.314  10.779
72139W        W44399  24.139  27.673   5.778
72140W        W44400  38.994  21.635   1.311
72141W        W44401  35.967  24.938  12.653
72142W        W44402  32.484  35.945   2.755
72143W        W44403  33.032  29.740  10.480
72144W        W44404  16.189   1.224   2.503
72145W        W44405  31.929  37.898  14.845
72146W        W44406  16.602  29.836   0.438
72147W        W44407   2.900  21.172   2.937
72148W        W44408  40.928  24.838  11.758
72149W        W44409  23.604  39.044   1.223
72150W        W44410  26.185  16.834   2.058
72151W        W44411   1.269   6.674   0.491
72152W        W44412  34.724  21.009  14.878
72153W        W44413  24.079  22.717   3.709
72154W        W44414  25.705  23.109  14.093
72155W        W44415  35.004  37.920  10.567
72156W        W44416  40.588   7.870   2.316
72157W        W44417  34.679  23.027   4.685
72158W        W44418   8.748  37.962  12.450
72159W        W44419  26.130  31.833   0.921
72160W        W44420   2.073  38.857  12.551
72161W        W44421  29.173  18.708  12.661
72162W        W44422  27.232  30.161  10.638
72163W        W44423  13.778   7.312   2.173
72164W        W44424  29.877  13.520  14.492
72165W        W44425  33.820  41.859   4.618
72166W        W44426  36.882   5.880   3.935
72167W        W44427  28.023   2.252   3.799
72168W        W44428  25.691  21.157  13.031
72169W        W44429  15.125  39.285  13.020
72170W        W44430  32.431   8.145   4.068
72171W        W44431   9.809  35.469   0.342
72172W        W44432   6.210   9.419   4.822
72173W        W44433   2.897  24.304  13.015
72174W        W44434  32.808   5.287   0.036
72175W        W44435   2.488   5.279   3.174
72176W        W44436  32.365  18.347   1.360
72177W        W44437   9.216  14.670   3.193
72178W        W44438   9.131  23.738  13.788
72179W        W44439   4.427  39.694  13.982
72180W        W44440  26.606  33.077  12.958
72181W        W44441  28.605  30.271   9.801
72182W        W44442  17.331  15.421  12.444
72183W        W44443  26.750   6.250   1.205
72184W        W44444   0.151  36.011  14.498
72185W        W44445  10.211  41.895  13.555
72186W        W44446  19.655   0.289   2.322
72187W        W44447  34.925   7.274   1.683
72188W        W44448  40.093   1.892  10.513
72189W        W44449  40.897   0.003  12.979
72190W        W44450  43.305  38.043   2.859
72191W        W44451  30.515  35.352   4.017
72192W        W44452  22.017  20.567  11.524
72193W        W44453  17.597  40.965   1.338
72194W        W44454  29.704   4.835  11.615
72195W        W44455  31.330  19.784  13.948
72196W        W44456  15.867  42.271   1.301
72197W        W44457  16.217  37.843  12.397
72198W        W44458  17.341   6.396   3.838
72199W        W44459  17.395  42.870  12.730
72200W        W44460  26.937   2.300  13.992
72201W        W44461  39.386  27.735  14.760
72202W        W44462  43.407  12.123   1.648
72203W        W44463  34.337  21.943  14.787
72204W        W44464  11.823   7.226  13.708
72205W        W44465   8.401  41.766  11.231
72206W        W44466  36.796  25.199  12.937
72207W        W44467  32.330   9.658   0.272
72208W        W44468  16.446  31.669   4.073
72209W        W44469  38.368  28.640  11.140
72210W        W44470  31.885  43.001   2.441
72211W        W44471  24.838  36.519  14.348
72212W        W44472   5.189   4.783  10.141
72213W        W44473  31.374  28.113   2.785
72214W        W44474  28.833  15.096  11.871
72215W        W44475   7.894  32.963  11.146
72216W        W44476  44.187  24.677  10.639
72217W        W44477  26.903   7.187  13.031
72218W        W44478  19.291  16.416  10.833
72219W        W44479  32.901  22.648  10.683
72220W        W44480  19.357  23.952  11.127
72221W        W44481  18.411  43.237   0.498
72222W        W44482  22.705  20.707   2.395
72223W        W44483  10.074   6.334   2.632
72224W        W44484  22.833  38.467   0.592
72225W        W44485  17.861  38.627  14.396
72226W        W44486  36.924  43.352  14.310
72227W        W44487  37.689  17.535   0.758
72228W        W44488  41.815  40.558   2.742
72229W        W44489  21.276   3.181  12.965
72230W        W44490  43.593   2.379  14.018
72231W        W44491  31.965   0.685  13.952
72232W        W44492  19.144  13.607   0.642
72233W        W44493   0.087  30.608   1.891
72234W        W44494  32.316  23.657   2.764
72235W        W44495  41.275  17.130   1.191
72236W        W44496  10.115  28.159   3.758
72237W        W44497   7.408  21.507  13.887
72238W        W44498  42.593  26.657  10.715
72239W        W44499  28.182  37.198  13.351
72240W        W44500  25.166   7.168  12.437
72241W        W44501   1.253   9.173  12.436
72242W        W44502  37.439   4.847  10.467
72243W        W44503   9.662  34.427   2.220
72244W        W44504  14.050  17.097  12.329
72245W        W44505  43.551  24.208  11.115
72246W        W44506  10.351   0.207   3.717
72247W        W44507  40.861  30.683  12.487
72248W        W44508   1.773  37.679   1.814
72249W        W44509  17.192  21.614   1.696
72250W        W44510   9.612  38.410  13.597
72251W        W44511  38.056   5.280  14.335
72252W        W44512  35.828  30.240   2.154
72253W        W44513  43.365  23.055  13.643
72254W        W44514  23.923  29.392   5.196
72255W        W44515   1.862  20.620   2.210
72256W        W44516  13.837  44.720   0.345
72257W        W44517  32.322  10.663  13.077
72258W        W44518   8.753   7.929   1.822
72259W        W44519  12.290  40.060  12.019
72260W        W44520  13.752  41.273  13.897
72261W        W44521   3.286  38.853  13.134
72262W        W44522  40.249   4.701  14.226
72263W        W44523  20.602  42.565  11.601
72264W        W44524  29.480  11.973  13.329
72265W        W44525  24.097  34.905  10.577
72266W        W44526  32.160  26.752   1.289
72267W        W44527  34.381  43.843   3.178
72268W        W44528  21.191  10.027   4.052
72269W        W44529  31.102  23.086  10.600
72270W        W44530  38.507  43.968   3.398
72271W        W44531   8.602  38.395   4.193
72272W        W44532  27.496  33.472   1.456
72273W        W44533  42.468  30.094   0.294
72274W        W44534  35.005  33.533  13.402
72275W        W44535   1.924  22.529   4.222
72276W        W44536   1.786  27.458  11.647
72277W        W44537  34.002  35.625   4.382
72278W        W44538  34.526  17.026   2.292
72279W        W44539   4.667  33.975   4.622
72280W        W44540  24.980  28.868  12.482
72281W        W44541  34.501  13.357   1.299
72282W        W44542   1.508  16.718  12.665
72283W        W44543  34.939  16.267  10.208
72284W        W44544  19.302  12.161   3.718
72285W        W44545  37.929  17.517   4.979
72286W        W44546  32.579  39.619  13.819
72287W        W44547   6.103  21.192  10.534
72288W        W44548  35.539  11.632  14.698
72289W        W44549  16.100  30.854   1.038
72290W        W44550  35.965  26.251  11.530
72291W        W44551   4.342   3.815   0.321
72292W        W44552  41.541  42.329  12.572
72293W        W44553  26.148  44.499  11.991
72294W        W44554   0.296   0.098  10.717
72295W        W44555  34.290  26.562   2.228
72296W        W44556  30.265   4.136   1.540
72297W        W44557  12.916  16.351  12.458
72298W        W44558  26.919  25.037   3.690
72299W        W44559  18.495  12.238   3.335
72300W        W44560  27.442  40.377   2.257
72301W        W44561  33.371  31.543  14.036
72302W        W44562  37.984  11.577  12.450
72303W        W44563  15.357  14.264   3.758
72304W        W44564  28.102  14.202   1.976
72305W        W44565   1.401  19.036   2.454
72306W        W44566  11.098  26.101   3.115
72307W        W44567   2.713  18.206   0.963
72308W        W44568   4.732  40.448  10.915
72309W        W44569  18.266  42.349  13.608
72310W        W44570   1.825   5.768   0.393
72311W        W44571  27.555  18.803   3.419
72312W        W44572  27.394   1.122   4.117
72313W        W44573  20.340  21.202  14.520
72314W        W44574   8.551  43.373   1.770
72315W        W44575  28.174  15.694  11.472
72316W        W44576  32.308   5.352   2.676
72317W        W44577   2.635  23.861  11.340
72318W        W44578  44.879  31.324  12.333
72319W        W44579   6.135   9.512  11.086
72320W        W44580  29.635  34.783  12.049
72321W        W44581  29.064   5.607   3.358
72322W        W44582  43.688  30.455  14.432
72323W        W44583  28.382  26.630   4.583
72324W        W44584   4.774  24.972   1.127
72325W        W44585  38.867  19.159   3.771
72326W        W44586   9.240  28.547  13.052
72327W        W44587  21.085  34.565  14.312
72328W        W44588   7.130   3.794   3.335
72329W        W44589  31.446  41.372  11.420
72330W        W44590   5.621  36.268   2.765
72331W        W44591   5.824  13.587   0.495
72332W        W44592  36.771  15.175   3.176
72333W        W44593  13.708  25.404   3.419
72334W        W44594  31.366  41.046  13.380
72335W        W44595  38.820  20.238   0.174
72336W        W44596  40.004   7.076   2.292
72337W        W44597  14.244  40.287  14.420
72338W        W44598  23.279  26.225   2.260
72339W        W44599  15.424   0.434  11.425
72340W        W44600  39.075  16.693   2.315
72341W        W44601  14.525  22.822  11.646
72342W        W44602  25.585  32.805  14.511
72343W        W44603  17.718  14.360  14.113
72344W        W44604  33.023  36.563   0.707
72345W        W44605   1.318   2.077   0.296
72346W        W44606  23.079  20.523  11.565
72347W        W44607  20.364   8.606  13.361
72348W        W44608  25.764   8.219   1.906
72349W        W44609  26.751  35.476  11.622
72350W        W44610  43.326  12.281   2.138
72351W        W44611  12.738  25.212   4.255
72352W        W44612   4.358  34.349  12.862
72353W        W44613  26.719   7.153  12.098
72354W        W44614  34.282  34.380   1.021
72355W        W44615  42.279  44.822   0.978
72356W        W44616  34.537  13.377   3.137
72357W        W44617  43.820   6.703  11.101
72358W        W44618  24.067  11.305  12.973
72359W        W44619  36.587  43.312  13.859
72360W        W44620  40.168  11.337   3.390
72361W        W44621  18.783  36.615  12.658
72362W        W44622  19.584   7.905  10.626
72363W        W44623  10.297  14.537   1.213
72364W        W44624  37.078  21.219  10.990
72365W        W44625   8.478  19.654  11.595
72366W        W44626  25.036  30.104   3.721
72367W        W44627  19.308  39.874   2.731
72368W        W44628  18.363  38.601   2.715
72369W        W44629  16.586   2.889  14.761
72370W        W44630   0.461  24.481   1.445
72371W        W44631  31.095  19.737  13.504
72372W        W44632  31.416  27.534   4.034
72373W        W44633  12.771  39.961  13.926
72374W        W44634  19.099  44.997   4.258
72375W        W44635  42.094  44.239  14.191
72376W        W44636  42.346  25.290   4.099
72377W        W44637  36.334  40.943  11.461
72378W        W44638  23.247   1.109   1.811
72379W        W44639  13.278  37.946   3.131
72380W        W44640   9.116  23.396  11.945
72381W        W44641  41.030  11.046   0.903
72382W        W44642   4.694  31.275  14.928
72383W        W44643  31.867  11.333  12.636
72384W        W44644  14.638   5.335   4.074
72385W        W44645   5.208  25.196   2.728
72386W        W44646   2.014  41.998   4.161
72387W        W44647  40.948   8.659  10.752
72388W        W44648  36.232  14.240   3.639
72389W        W44649  37.501  18.293   0.411
72390W        W44650  26.506  38.868   2.580
72391W        W44651  27.687   4.357  12.443
72392W        W44652   8.805  10.271   2.723
72393W        W44653  44.775  33.034  10.640
72394W        W44654   9.669  14.269   4.454
72395W        W44655   5.814  44.816   3.254
72396W        W44656   0.507   7.209   3.184
72397W        W44657  23.924  21.790  13.004
72398W        W44658  18.334  23.605  13.946
72399W        W44659  12.310  42.777  13.961
72400W        W44660   8.401   4.235   3.015
72401W        W44661  12.614  28.452  11.954
72402W        W44662  34.451  29.417   4.570
72403W        W44663  29.326   0.747   3.202
72404W        W44664  33.617  36.734   3.202
72405W        W44665  44.984  14.857  14.732
72406W        W44666  12.378  11.341  14.627
72407W        W44667  15.101   6.428  11.060
72408W        W44668  26.176  10.839  12.851
72409W        W44669  40.064   2.990  14.217
72410W        W44670  23.053  37.426  14.681
72411W        W44671  43.857  40.008  10.663
72412W        W44672  31.133  10.402  12.686
72413W        W44673  19.964   8.404   2.928
72414W        W44674  13.885   4.243  13.342
72415W        W44675  21.752   5.310   3.717
72416W        W44676   5.709  44.977  13.400
72417W        W44677   2.756  19.881   4.276
72418W        W44678  18.339  27.152   3.635
72419W        W44679  32.568   8.581  11.155
72420W        W44680  18.357  25.808  10.749
72421W        W44681   0.283  36.447   1.402
72422W        W44682   9.382  19.607   3.263
72423W        W44683   4.907  26.059  14.235
72424W        W44684   1.249  15.102   0.207
72425W        W44685  19.445  15.191   2.149
72426W        W44686  42.662  32.135   1.742
72427W        W44687  20.118  38.114  14.967
72428W        W44688  33.634  41.510   3.343
72429W        W44689  32.251   0.405  10.114
72430W        W44690  18.871   0.097  14.403
72431W        W44691  33.921  39.300   1.869
72432W        W44692  25.968  23.529   1.445
72433W        W44693  30.547  41.092  13.827
72434W        W44694   1.076  13.349  10.982
72435W        W44695  10.788  18.695   3.280
72436W        W44696  30.937  22.992   0.478
72437W        W44697  31.056  31.627  11.717
72438W        W44698  43.858  23.228  13.578
72439W        W44699  17.672  23.896  12.324
72440W        W44700  32.057   6.213   5.137
72441W        W44701  24.655  36.292  14.797
72442W        W44702  30.540   4.727   2.610
72443W        W44703   1.996  24.580   2.730
72444W        W44704  30.169  40.174  12.402
72445W        W44705  14.097   1.418  11.605
72446W        W44706   3.407   9.745   3.289
72447W        W44707  31.246  17.726   0.234
72448W        W44708  38.466  36.610   4.787
72449W        W44709  35.145   8.699   2.938
72450W        W44710  33.450  18.733  10.563
72451W        W44711   2.593  29.043  14.450
72452W        W44712  41.106  14.799   3.492
72453W        W44713   6.896   6.950   4.079
72454W        W44714  38.192  22.678  11.132
72455W        W44715  26.003  42.952   0.872
72456W        W44716  33.530  41.875  11.580
72457W        W44717  23.244  42.932  10.911
72458W        W44718  29.624  18.815  10.923
72459W        W44719  26.607  16.166  10.684
72460W        W44720   2.479  12.611   4.523
72461W        W44721   1.345  22.776  14.580
72462W        W44722  13.434  32.595  12.429
72463W        W44723  16.063  30.866  10.636
72464W        W44724  38.966  44.196   3.429
72465W        W44725  12.180  13.704   0.218
72466W        W44726  28.986   1.927   1.450
72467W        W44727   8.886  35.852  13.598
72468W        W44728   2.494  17.854  14.520
72469W        W44729  34.610  26.712  12.825
72470W        W44730  39.874   2.807   2.450
72471W        W44731  21.660  13.202   3.747
72472W        W44732  13.027  12.401   3.978
72473W        W44733  17.677  24.214  13.957
72474W        W44734  30.367  23.761   4.814
72475W        W44735  32.226  40.786  12.498
72476W        W44736   2.370   3.162   1.661
72477W        W44737   6.599   7.255   0.377
72478W        W44738   7.821   0.149   4.197
72479W        W44739  44.537  16.137   2.826
72480W        W44740  22.741  42.296  11.734
72481W        W44741  20.147  25.008  12.648
72482W        W44742   0.691  30.910  10.436
72483W        W44743   0.802   2.114   0.523
72484W        W44744  24.180   6.940  11.116
72485W        W44745  28.077  36.901   1.456
72486W        W44746  31.542   7.180  13.470
72487W        W44747  15.800  31.132  11.546
72488W        W44748   5.930  12.791  14.899
72489W        W44749  23.578  35.649  10.791
72490W        W44750   9.948  44.431   0.003
72491W        W44751   8.787  32.224   0.974
72492W        W44752   8.859  28.146   0.287
72493W        W44753   9.002   0.633   1.399
72494W        W44754   1.053  19.804  14.758
72495W        W44755  29.432  20.686  11.576
72496W        W44756  29.139  33.413  13.766
72497W        W44757  35.447  44.575   4.688
72498W        W44758  21.000  41.718   5.168
72499W        W44759  10.971  25.082   4.505
72500W        W44760   7.103  33.470   3.854
72501W        W44761   9.471  33.406  11.484
72502W        W44762  28.369   9.365  13.110
72503W        W44763  37.875  36.584  13.577
72504W        W44764   9.963  23.542   3.333
72505W        W44765  37.122   7.994  12.464
72506W        W44766   5.304  22.947   4.636
72507W        W44767  28.567  35.076  13.433
72508W        W44768  31.327  15.127   2.799
72509W        W44769  42.755   5.368  12.269
72510W        W44770  17.649  38.371   4.149
72511W        W44771  37.605  33.854   1.238
72512W        W44772  43.089  15.256   1.373
72513W        W44773  12.804  18.763  12.455
72514W        W44774  43.811  23.177  14.438
72515W        W44775  10.468  13.207   0.024
72516W        W44776  24.570   8.360  11.575
72517W        W44777  42.386  24.783   4.118
72518W        W44778  39.086   5.302  14.738
72519W        W44779  10.197  22.442   3.015
72520W        W44780  27.087  40.797   4.978
72521W        W44781  30.382  11.798  11.892
72522W        W44782   8.948  29.604   1.949
72523W        W44783   6.257  24.282   5.152
72524W        W44784   0.001   8.590  10.915
72525W        W44785  37.347  34.463  12.862
72526W        W44786  28.047  23.425   3.137
72527W        W44787  11.869  19.707   2.262
72528W        W44788  22.145  39.560   2.421
72529W        W44789  35.468  34.646   1.242
72530W        W44790  42.880  11.389   2.731
72531W        W44791   7.915   5.649  10.686
72532W        W44792  22.615  35.247  11.523
72533W        W44793  23.123  42.044  13.947
72534W        W44794   1.252  42.856   0.379
72535W        W44795  27.565  25.859   3.292
72536W        W44796   5.471  12.757  14.571
72537W        W44797  30.550   9.583   0.370
72538W        W44798  21.099   1.196   0.299
72539W        W44799  28.715  14.599   4.205
72540W        W44800   0.288  10.600  11.954
72541W        W44801  10.776  25.959   3.578
72542W        W44802   2.927   8.897  14.322
72543W        W44803  20.290  15.988  14.034
72544W        W44804  34.070   6.964  13.102
72545W        W44805  14.829  32.823  12.468
72546W        W44806  18.216  15.145   3.292
72547W        W44807  26.268  39.684   2.282
72548W        W44808  27.138  24.638   4.328
72549W        W44809  37.453  35.440  10.606
72550W        W44810   4.620  42.772  14.411
72551W        W44811  39.513   7.797   5.002
72552W        W44812  29.838  18.321  11.383
72553W        W44813   2.423   0.017   3.217
72554W        W44814  39.458  28.978  12.344
72555W        W44815  31.698   6.755   0.262
72556W        W44816  44.455   7.317  10.200
72557W        W44817  43.447  36.443  10.711
72558W        W44818  37.532  43.007   1.749
72559W        W44819   8.468  41.774  14.194
72560W        W44820  13.874   4.793  10.592
72561W        W44821   2.770   7.391  14.050
72562W        W44822  31.888   4.601  14.384
72563W        W44823  24.435  12.918   4.817
72564W        W44824  43.879   8.878  13.348
72565W        W44825  26.675   6.934  12.545
72566W        W44826  38.345  21.897  10.755
72567W        W44827  31.190  14.075  11.019
72568W        W44828  39.275  15.353  11.984
72569W        W44829  24.641  44.417  13.028
72570W        W44830   9.903  21.605   3.295
72571W        W44831  23.619  18.276   0.322
72572W        W44832   7.908  21.177  12.887
72573W        W44833  31.519   4.352   0.779
72574W        W44834   7.715  20.021  12.979
72575W        W44835   4.989  37.961  13.528
72576W        W44836  18.199  35.249  10.823
72577W        W44837  41.913  38.754  12.524
72578W        W44838  20.118  28.208  10.906
72579W        W44839  14.644  25.705   3.962
72580W        W44840  15.140   2.499  11.967
72581W        W44841  35.059  34.945   2.333
72582W        W44842   8.524  35.533   0.927
72583W        W44843  23.504   6.814   1.487
72584W        W44844   7.131   3.616   4.248
72585W        W44845   0.259  41.287   2.223
72586W        W44846  24.524  44.021   0.848
72587W        W44847  35.440  43.540  13.342
72588W        W44848  19.248  37.411   2.959
72589W        W44849  43.845  25.958   0.959
72590W        W44850  44.489  16.104  13.790
72591W        W44851  24.515  16.302  14.654
72592W        W44852   4.889  12.373   2.772
72593W        W44853   8.173  23.201  12.409
72594W        W44854   3.812   3.365   2.691
72595W        W44855  32.620  41.132   4.631
72596W        W44856  39.121  23.565  12.786
72597W        W44857  10.353  31.077  14.859
72598W        W44858  35.358   7.693   2.805
72599W        W44859  11.719  20.704  10.847
72600W        W44860  40.352  23.030  10.723
72601W        W44861  14.749  13.826  13.903
72602W        W44862  13.599   4.803  14.833
72603W        W44863  34.923  36.573  10.684
72604W        W44864  43.787   6.375   3.880
72605W        W44865  27.454  33.340   1.984
72606W        W44866   1.081  17.309  11.541
72607W        W44867   1.715  11.223   3.931
72608W        W44868  29.908  32.815  13.376
72609W        W44869   1.193  27.200   0.953
72610W        W44870   5.689  16.234  13.166
72611W        W44871  16.394  34.791  10.874
72612W        W44872  24.893  31.656  10.709
72613W        W44873  44.268  28.204  14.510
72614W        W44874  44.802  28.665   4.561
72615W        W44875   8.122  44.358  14.250
72616W        W44876  42.980  44.344  14.441
72617W        W44877   6.193  16.179  11.941
72618W        W44878   5.382  29.085  11.956
72619W        W44879  43.009  22.346   5.166
72620W        W44880  39.938  11.690   2.564
72621W        W44881  27.155  21.070   0.864
72622W        W44882  41.930  20.652  10.763
72623W        W44883   8.875  21.672   2.450
72624W        W44884  41.946   5.392  13.347
72625W        W44885   1.684  30.418   3.517
72626W        W44886  10.899  39.912   1.797
72627W        W44887  10.633  44.719   3.638
72628W        W44888  39.492  33.839  13.045
72629W        W44889  26.370  26.644   2.822
72630W        W44890   8.087  43.617   1.868
72631W        W44891  40.941   7.233   2.401
72632W        W44892  21.639  42.030   1.957
72633W        W44893  13.750   3.201   1.742
72634W        W44894   3.012  16.599   1.872
72635W        W44895   6.911  43.452  12.561
72636W        W44896  18.729  38.998   4.737
72637W        W44897  31.626  15.876  14.723
72638W        W44898  42.875  17.106   0.772
72639W        W44899  18.588  17.479  11.383
72640W        W44900  26.938  42.675   3.309
72641W        W44901   6.631  37.842   3.682
72642W        W44902  15.882  17.504  10.273
72643W        W44903  16.424   4.365   2.791
72644W        W44904   8.979  28.662  10.725
72645W        W44905   5.297  18.741   2.790
72646W        W44906   6.417  14.913  11.228
72647W        W44907  31.626  21.572  14.006
72648W        W44908   3.512  20.649  14.254
72649W        W44909   9.151  28.996   0.762
72650W        W44910  16.068  31.662   0.350
72651W        W44911  42.019   2.343   3.850
72652W        W44912  15.688  17.799  14.806
72653W        W44913  41.820  33.929  11.963
72654W        W44914   1.161  28.415  12.408
72655W        W44915  29.218  36.599  12.778
72656W        W44916  11.354  37.022   4.117
72657W        W44917   6.307  20.539   0.177
72658W        W44918   7.161  36.602  11.164
72659W        W44919  10.425  11.580   0.863
72660W        W44920  36.113  36.939   0.560
72661W        W44921   1.130   0.290  13.395
72662W        W44922  20.123   5.255   4.211
72663W        W44923  16.178  24.540  11.595
72664W        W44924  34.485  27.223  12.569
72665W        W44925  30.428  15.063  12.799
72666W        W44926   9.198   4.777   3.336
72667W        W44927  10.299  20.546   3.157
72668W        W44928  22.325  32.467   4.135
72669W        W44929  26.431  28.521  12.032
72670W        W44930  38.892  20.171  11.941
72671W        W44931  27.580  28.192   2.000
72672W        W44932  28.371  10.228   1.906
72673W        W44933  23.728  15.858   4.951
72674W        W44934  26.131  22.105  10.602
72675W        W44935  14.414   5.322  10.945
72676W        W44936  38.019  40.306   4.938
72677W        W44937  23.791  23.740  13.059
72678W        W44938  24.921  22.477  13.931
72679W        W44939  33.356   6.958   2.416
72680W        W44940  27.791  21.984  11.814
72681W        W44941  14.823  29.234  11.075
72682W        W44942   7.181  18.508   4.129
72683W        W44943  12.687  20.159   2.762
72684W        W44944  35.808   0.448   0.932
72685W        W44945  40.924  35.483   4.223
72686W        W44946  25.333   1.769   2.332
72687W        W44947   6.939  31.254   3.026
72688W        W44948  28.792   3.399  14.471
72689W        W44949  31.376  32.579   1.433
72690W        W44950  21.062  37.021  14.841
72691W        W44951  42.609   3.387  14.801
72692W        W44952  19.344  42.059  13.954
72693W        W44953  36.285  14.545   0.933
72694W        W44954  14.697  42.329   2.854
72695W        W44955  43.745  33.119  14.349
72696W        W44956  39.355  42.124  14.492
72697W        W44957  11.800  29.919   2.322
72698W        W44958  27.764   2.889  11.930
72699W        W44959  13.574   0.449  10.710
72700W        W44960  43.307  24.604   2.760
72701W        W44961   5.206  15.398  14.988
72702W        W44962  30.600   7.109  11.702
72703W        W44963  31.517   6.531   2.885
72704W        W44964  30.089  28.285  12.771
72705W        W44965  41.814  32.948  13.847
72706W        W44966  32.938  26.507   1.872
72707W        W44967  44.361  23.516  10.450
72708W        W44968  39.403  19.790   4.759
72709W        W44969  23.149  27.539  14.688
72710W        W44970   8.877  36.648   4.017
72711W        W44971  18.006  39.236  13.547
72712W        W44972  28.303  32.196  10.198
72713W        W44973   9.581  34.516   0.273
72714W        W44974  25.113  40.961   5.053
72715W        W44975   4.481  39.621  14.514
72716W        W44976  18.701   4.339  10.705
72717W        W44977  11.618  33.915  14.769
72718W        W44978  14.574  42.476  12.506
72719W        W44979   2.426  40.408   3.760
72720W        W44980   2.217   4.724  11.592
72721W        W44981  12.358  10.914  14.935
72722W        W44982  33.442  12.051   1.028
72723W        W44983  15.973  36.757   4.229
72724W        W44984  35.063  22.636  10.573
72725W        W44985  16.259   2.105  12.113
72726W        W44986  38.324  35.585  12.451
72727W        W44987  12.307  26.311   4.259
72728W        W44988  31.948  20.460   1.812
72729W        W44989  12.629   9.725  12.863
72730W        W44990  35.836  21.925   4.151
72731W        W44991   3.823  28.266  14.909
72732W        W44992  16.655  40.477   3.368
72733W        W44993  19.955  29.925  12.920
72734W        W44994  44.787   1.378  13.908
72735W        W44995  38.101  23.768  12.353
72736W        W44996  44.312   3.009  11.661
72737W        W44997  17.682  29.071  13.313
72738W        W44998  23.129  27.486   1.454
72739W        W44999  39.656  39.848  10.907
72740W        W45000  10.682  29.855  11.566
72741W        W45001  39.887  10.585   0.995
72742W        W45002  36.370  31.311   3.773
72743W        W45003  41.510  42.331   2.287
72744W        W45004  36.408  28.475  13.906
72745W        W45005  44.209  29.978  13.996
72746W        W45006  20.822  16.720  13.353
72747W        W45007  13.780  29.894   4.652
72748W        W45008   4.699  20.800  10.356
72749W        W45009  42.477   9.265  12.359
72750W        W45010  29.193   1.197   0.182
72751W        W45011  41.778   7.356  12.848
72752W        W45012  12.641   0.200  13.077
72753W        W45013  16.543  43.866   1.283
72754W        W45014   2.297  39.023   1.503
72755W        W45015   0.719  42.730  13.824
72756W        W45016   7.525  18.951  14.530
72757W        W45017   6.933  24.256  11.946
72758W        W45018  39.877  33.345  13.867
72759W        W45019  18.111  27.005   0.304
72760W        W45020  29.915  30.417   3.768
72761W        W45021  29.201  32.038   2.408
72762W        W45022  14.673   8.841  14.741
72763W        W45023  41.463  39.594  11.651
72764W        W45024   1.730   3.909  14.460
72765W        W45025  29.167  43.897   1.781
72766W        W45026   2.389  39.020   5.020
72767W        W45027  43.086  35.828  13.060
72768W        W45028   1.721   5.943  14.161
72769W        W45029   5.385  10.241  10.886
72770W        W45030   5.857  18.347  12.351
72771W        W45031  14.862  24.521   3.609
72772W        W45032  19.176  42.434   1.668
72773W        W45033  32.076  21.290  11.329
72774W        W45034  26.001  32.334  13.706
72775W        W45035  22.868  20.193  13.828
72776W        W45036  12.312  16.828  11.789
72777W        W45037  41.443  26.626  12.308
72778W        W45038   1.682  37.203   2.733
72779W        W45039  44.439  20.069  10.723
72780W        W45040   6.827  24.438   1.212
72781W        W45041  10.329  29.193   3.249
72782W        W45042  29.317  24.722  12.419
72783W        W45043  36.566  23.646  14.443
72784W        W45044   0.364  29.085  12.534
72785W        W45045  15.172  32.987   4.079
72786W        W45046  38.871  15.307   3.906
72787W        W45047  14.985  30.935   9.935
72788W        W45048  39.770  11.781   4.834
72789W        W45049  13.070  15.168  12.915
72790W        W45050  30.911  18.772  11.985
72791W        W45051  22.695   4.912  11.808
72792W        W45052   9.389  37.992   4.533
72793W        W45053  38.266   9.166   0.290
72794W        W45054  43.225  44.584   4.875
72795W        W45055  35.567  32.582   4.450
72796W        W45056  26.541  14.200  11.183
72797W        W45057  43.420   8.656  13.293
72798W        W45058  15.646   0.402   0.084
72799W        W45059  11.642  35.968   1.892
72800W        W45060  18.168  29.020  13.075
72801W        W45061   0.452  41.499   2.651
72802W        W45062  14.150  16.062  11.217
72803W        W45063  12.337  26.178  13.366
72804W        W45064   0.450  27.079  12.626
72805W        W45065  34.528   3.994   0.744
72806W        W45066  26.574  32.006  11.615
72807W        W45067   9.069  21.625  11.608
72808W        W45068  26.269  33.968  12.865
72809W        W45069   4.421  11.123   2.214
72810W        W45070  14.423  25.614  14.905
72811W        W45071  18.407   7.413  12.502
72812W        W45072  24.134  22.545   0.547
72813W        W45073  24.739  31.287  12.526
72814W        W45074  43.410  15.695   3.252
72815W        W45075  37.153  43.160  10.464
72816W        W45076  12.959  31.869  12.076
72817W        W45077  41.915  40.120   1.821
72818W        W45078  35.961  44.575   3.211
72819W        W45079  24.943  29.979  11.291
72820W        W45080  19.113  22.078  11.692
72821W        W45081   2.535  15.470   3.387
72822W        W45082  40.929  38.308  13.564
72823W        W45083   7.339  27.990  11.151
72824W        W45084  26.250  36.021  14.478
72825W        W45085  34.983   6.473   2.816
72826W        W45086  44.658   7.711   3.681
72827W        W45087  39.022  29.716   3.749
72828W        W45088  35.064  40.421  12.412
72829W        W45089  10.517  36.523   4.215
72830W        W45090  39.420   7.432   2.885
72831W        W45091  23.107   2.693   0.224
72832W        W45092  18.046  24.502   0.342
72833W        W45093  43.376   5.061  12.111
72834W        W45094  33.785  22.987  14.881
72835W        W45095  20.607  18.271   1.433
72836W        W45096  28.184  42.361  13.906
72837W        W45097  35.406  40.976  13.564
72838W        W45098   0.232  20.278  11.085
72839W        W45099  39.853  32.149  13.354
72840W        W45100   8.300  29.455  10.644
72841W        W45101  36.338  33.179  10.663
72842W        W45102  22.977  34.524   1.201
72843W        W45103  44.802  12.570   4.188
72844W        W45104  37.611  22.566   1.983
72845W        W45105  39.270  20.635   4.251
72846W        W45106  31.973  11.561  13.990
72847W        W45107  10.195  12.336  10.735
72848W        W45108  20.994  26.452   3.291
72849W        W45109  23.755   3.070   4.508
72850W        W45110  38.495  42.931   3.772
72851W        W45111  20.071   7.415   4.160
72852W        W45112  12.719  21.676   1.065
72853W        W45113  13.374   3.370   1.416
72854W        W45114  33.023  30.480   0.395
72855W        W45115   5.838  29.530   4.599
72856W        W45116  22.789  14.349   4.522
72857W        W45117  15.776   2.660  14.989
72858W        W45118  23.222   4.541  14.760
72859W        W45119  19.931  38.119   3.255
72860W        W45120   6.208  36.362   0.012
72861W        W45121  14.207  15.901   4.215
72862W        W45122  14.327  43.211  12.970
72863W        W45123  21.513  35.342   2.658
72864W        W45124  24.974  21.568  14.197
72865W        W45125  37.477  43.339  10.837
72866W        W45126  43.803   6.189  11.184
72867W        W45127  32.925  23.785  13.884
72868W        W45128  43.422  11.034  13.423
72869W        W45129  43.485  11.694   4.175
72870W        W45130   3.662  40.018  14.193
72871W        W45131  15.630  44.569  12.430
72872W        W45132  24.134  33.439   3.155
72873W        W45133  16.182  38.369   3.304
72874W        W45134   0.186  40.823  11.205
72875W        W45135   4.483   9.669  12.358
72876W        W45136  21.429  29.669   1.830
72877W        W45137  30.536  31.613  11.161
72878W        W45138  18.545  11.214  13.557
72879W        W45139  41.811  21.745  13.729
72880W        W45140  34.239  15.123   0.257
72881W        W45141  14.123   4.960   1.769
72882W        W45142  19.145  27.950  12.182
72883W        W45143   3.541   1.035  11.735
72884W        W45144  22.385  23.498  13.555
72885W        W45145  36.937  17.342  14.115
72886W        W45146   1.976  30.687   2.190
72887W        W45147  21.611  26.807   2.810
72888W        W45148  33.912  43.886   1.887
72889W        W45149  31.517  27.387  12.075
72890W        W45150  42.837  20.710  13.189
72891W        W45151  33.069  18.466  11.944
72892W        W45152   4.792  41.587  13.896
72893W        W45153  19.138  23.662   5.014
72894W        W45154  13.618  23.347  11.825
72895W        W45155  21.592  21.553   5.468
72896W        W45156  35.599  20.688  13.145
72897W        W45157  22.241  12.355  14.804
72898W        W45158   3.552  26.191  14.562
72899W        W45159  37.344   6.623   1.342
72900W        W45160   7.396  14.356   2.885
72901W        W45161  27.918  34.810  12.733
72902W        W45162  21.249  22.187   0.467
72903W        W45163  41.150  34.857   2.765
72904W        W45164  15.553  25.158   1.264
72905W        W45165  26.873  11.218   1.694
72906W        W45166  33.110  43.347  14.629
72907W        W45167  23.419  37.568  13.821
72908W        W45168   2.373   4.976   0.124
72909W        W45169  43.522  39.347  11.680
72910W        W45170  36.625  42.336  11.521
72911W        W45171  10.718  31.054   3.375
72912W        W45172  25.991  25.198   3.946
72913W        W45173   1.255   3.971  12.107
72914W        W45174  21.124  43.678   4.215
72915W        W45175  25.163  27.585   2.633
72916W        W45176  17.658  25.339  11.329
72917W        W45177  18.492  19.217  13.475
72918W        W45178  42.883   1.923   2.099
72919W        W45179   0.825  18.642   1.474
72920W        W45180  31.841  30.994   2.442
72921W        W45181   3.226   7.743   1.304
72922W        W45182  17.122  16.550  11.592
72923W        W45183  30.546  28.160   2.794
72924W        W45184   7.492  25.463   4.135
72925W        W45185  40.578  15.230   0.489
72926W        W45186  39.263   7.339   1.509
72927W        W45187  44.658  11.355  14.973
72928W        W45188  36.868   5.612   3.508
72929W        W45189  33.107  44.314   4.668
72930W        W45190  39.022  17.249  11.168
72931W        W45191  37.159   2.343   4.787
72932W        W45192   3.829   5.429   1.486
72933W        W45193   3.428   6.999  14.730
72934W        W45194  24.482  37.755   1.600
72935W        W45195  17.801  41.295   3.755
72936W        W45196  29.755  39.145  12.630
72937W        W45197   5.287  38.939   1.870
72938W        W45198  39.916   1.448   4.115
72939W        W45199   5.682  41.568   1.930
72940W        W45200  28.814  26.108   3.835
72941W        W45201  41.556  20.487   0.230
72942W        W45202   2.876  36.344  11.923
72943W        W45203  37.624  33.998  11.153
72944W        W45204  21.085  14.384  12.857
72945W        W45205  17.574   6.361   1.232
72946W        W45206  13.731  43.245   0.735
72947W        W45207  24.337  41.978   5.679
72948W        W45208  44.986  41.977  13.545
72949W        W45209  43.344  24.506   3.327
72950W        W45210  34.569  15.640   3.743
72951W        W45211  10.579  20.112  11.948
72952W        W45212  17.626  42.033   1.245
72953W        W45213  30.914  19.502  13.097
72954W        W45214  36.527  18.272   4.045
72955W        W45215  42.071  24.577   1.339
72956W        W45216  28.234   7.728   0.220
72957W        W45217  42.754  34.408   3.337
72958W        W45218  18.329  19.299   0.713
72959W        W45219  16.018  16.009  10.879
72960W        W45220  21.111  33.182  12.578
72961W        W45221   6.185  41.829  12.984
72962W        W45222  39.878  17.501   1.364
72963W        W45223  28.569  25.604  10.280
72964W        W45224  22.137   9.162   0.812
72965W        W45225  26.356  37.958   1.778
72966W        W45226  20.421  36.817   4.247
72967W        W45227  28.342   7.198   1.454
72968W        W45228  33.519  12.555   0.886
72969W        W45229  12.237   6.508   2.391
72970W        W45230  11.634  21.999  14.522
72971W        W45231  34.419  15.277  13.098
72972W        W45232  22.574  31.986   0.822
72973W        W45233  30.113   5.353  10.711
72974W        W45234  31.110   5.585   4.220
72975W        W45235   4.411   8.919  14.457
72976W        W45236  17.173  13.920  14.449
72977W        W45237  31.170  35.437   0.366
72978W        W45238  36.013   2.295   3.760
72979W        W45239  19.381  20.140   2.391
72980W        W45240  16.514  11.630  10.899
72981W        W45241  35.930  19.132  13.189
72982W        W45242  31.862  17.237   2.370
72983W        W45243  23.074  44.070   1.302
72984W        W45244   8.636  26.602  12.310
72985W        W45245   7.347   4.190   3.653
72986W        W45246   6.081  44.998  13.001
72987W        W45247  21.505  33.462  14.963
72988W        W45248   1.342  13.423  12.592
72989W        W45249  30.502  35.242   3.481
72990W        W45250   9.860  12.525  11.217
72991W        W45251  19.233  11.662   4.659
72992W        W45252  39.055  42.908  13.584
72993W        W45253  42.292   1.253   3.630
72994W        W45254  29.491  26.155   1.730
72995W        W45255  10.614  39.358   0.440
72996W        W45256  20.577   7.214   4.213
72997W        W45257  31.162  37.292   0.822
72998W        W45258  37.951  24.379   0.425
72999W        W45259   4.787  16.853  13.878
73000W        W45260   6.938   0.820   2.349
73001W        W45261   0.198  38.073  12.285
73002W        W45262  34.734  44.882   4.157
73003W        W45263  38.985  44.441  11.046
73004W        W45264   3.677   8.895  10.692
73005W        W45265  10.332   9.244   4.415
73006W        W45266   6.692  26.219   1.751
73007W        W45267  31.907  27.008   4.645
73008W        W45268  19.293  20.040   3.665
73009W        W45269  41.934  28.470  14.965
73010W        W45270  20.736   4.214   4.496
73011W        W45271  15.043  17.259   3.360
73012W        W45272   5.214  30.532  10.909
73013W        W45273  31.663  16.651  13.384
73014W        W45274   4.898  41.434  14.835
73015W        W45275  15.785  43.044   0.936
73016W        W45276  10.896  28.412  11.088
73017W        W45277  37.481  44.316  13.853
73018W        W45278   3.665   9.839   1.886
73019W        W45279  16.962  17.074  12.955
73020W        W45280   9.865  43.372   3.718
73021W        W45281   3.069  29.949   0.723
73022W        W45282   8.360   8.694   4.173
73023W        W45283  16.068  41.742   0.483
73024W        W45284  30.017   2.760   3.698
73025W        W45285   1.875   3.334  10.663
73026W        W45286  20.114  20.441   5.409
73027W        W45287   8.225  17.557  12.843
73028W        W45288  28.272  44.069   0.359
73029W        W45289   8.497  41.450   3.906
73030W        W45290  41.392  10.252  13.028
73031W        W45291  20.979  19.654   2.250
73032W        W45292  13.866  33.532   5.178
73033W        W45293  35.410  42.299   1.694
73034W        W45294   4.882  28.070   1.443
73035W        W45295  10.265  13.548  11.310
73036W        W45296  11.223   0.583   0.323
73037W        W45297  37.811  11.899  11.176
73038W        W45298  41.392  41.843  10.633
73039W        W45299  33.394  15.181  14.768
73040W        W45300  43.746  34.273   0.939
73041W        W45301  25.463  30.552   1.659
73042W        W45302  16.128  36.394  11.388
73043W        W45303  42.055  14.204   3.586
73044W        W45304   8.476  10.304  14.341
73045W        W45305  42.091  28.471  14.460
73046W        W45306  31.660  29.121   1.429
73047W        W45307  44.372  24.291  11.429
73048W        W45308   9.901  23.019  10.926
73049W        W45309   3.324  41.718  13.453
73050W        W45310  38.167  38.289   2.422
73051W        W45311   2.572   8.634   4.257
73052W        W45312  14.357  30.625   0.317
73053W        W45313   1.318  14.383   1.007
73054W        W45314  42.716  29.053   2.856
73055W        W45315  13.340  17.313   3.264
73056W        W45316   0.750  26.510  14.037
73057W        W45317  27.529   9.007   2.409
73058W        W45318  43.682   9.697   4.693
73059W        W45319  28.593  18.617   3.793
73060W        W45320  15.218  20.151   4.275
73061W        W45321  34.579   6.349  14.570
73062W        W45322  20.645  15.553  11.914
73063W        W45323  17.581  14.620   0.852
73064W        W45324  23.007  12.142   1.997
73065W        W45325  38.616  23.447   1.723
73066W        W45326  38.030  44.712   3.753
73067W        W45327  13.682  17.408  13.135
73068W        W45328   3.353  41.986   0.345
73069W        W45329  43.906  31.216  11.397
73070W        W45330   5.595  40.792  13.382
73071W        W45331  30.183  16.056   3.173
73072W        W45332  17.641  17.835  13.349
73073W        W45333  39.242  30.572  11.736
73074W        W45334  42.344  15.535   4.690
73075W        W45335   2.764  42.879   4.606
73076W        W45336  36.483  26.244   1.887
73077W        W45337  31.424  20.525   0.425
73078W        W45338  29.486   2.223  12.071
73079W        W45339  41.022  32.652  11.425
73080W        W45340   9.098   4.736  11.155
73081W        W45341  37.473   3.141  10.355
73082W        W45342  24.335  21.513  13.298
73083W        W45343  27.698  29.444   3.483
73084W        W45344  17.100  36.611  11.577
73085W        W45345  37.502  10.885   1.495
73086W        W45346  16.203  18.022  10.469
73087W        W45347  34.339  20.705   5.548
73088W        W45348  20.055  17.858  13.450
73089W        W45349  17.065  30.380   4.748
73090W        W45350  27.206  33.435  12.890
73091W        W45351  42.942  38.730  13.618
73092W        W45352   2.795  29.528  11.545
73093W        W45353   9.725  23.843  14.460
73094W        W45354  39.870  25.765   2.214
73095W        W45355  20.354  28.220   2.183
73096W        W45356  33.138  19.178   1.896
73097W        W45357  33.556   8.588  14.545
73098W        W45358  14.081  42.398  12.396
73099W        W45359  32.861  24.514  14.953
73100W        W45360  39.341  26.654   4.754
73101W        W45361  37.857   7.657  12.868
73102W        W45362  44.750   2.954  12.854
73103W        W45363  35.280  13.760   0.960
73104W        W45364  15.772   0.904   0.806
73105W        W45365  39.392  13.440  13.903
73106W        W45366  33.516  26.345  11.516
73107W        W45367  34.294  30.160  13.952
73108W        W45368   4.571  34.228   3.245
73109W        W45369  18.012  44.105  12.442
73110W        W45370  39.646   0.385   2.284
73111W        W45371  44.444  17.380   3.241
73112W        W45372  20.007  32.210  13.956
73113W        W45373  35.529  39.892  14.285
73114W        W45374  13.763   8.761  10.505
73115W        W45375  17.307   6.222  11.641
73116W        W45376  36.995  35.661   2.368
73117W        W45377  28.430  37.058  11.714
73118W        W45378  13.826  33.437   2.842
73119W        W45379  42.591  39.601  14.985
73120W        W45380  37.507  32.737   2.201
73121W        W45381  16.746  11.138  10.748
73122W        W45382  14.819  19.805   0.798
73123W        W45383  29.902  27.598  13.964
73124W        W45384  26.972  38.801   0.382
73125W        W45385  12.624  28.664  10.531
73126W        W45386   2.653   9.883   1.935
73127W        W45387   7.265  39.793  13.883
73128W        W45388   1.029  19.673   2.999
73129W        W45389  22.021  19.833  12.873
73130W        W45390  17.460  26.501   3.623
73131W        W45391  15.838   6.739  12.509
73132W        W45392  32.452  35.952  11.644
73133W        W45393   6.803  40.017   1.425
73134W        W45394  10.375  40.572  10.866
73135W        W45395  25.920  16.210  11.755
73136W        W45396  33.014  32.160   2.991
73137W        W45397  34.913  14.158  13.459
73138W        W45398  22.027   3.942  12.222
73139W        W45399  17.835  19.029   1.739
73140W        W45400  25.005  39.803   0.492
73141W        W45401  34.071   1.296  12.886
73142W        W45402  35.993  14.683  13.750
73143W        W45403  31.651  32.415   1.823
73144W        W45404  22.736  14.915   1.170
73145W        W45405  37.955   2.917  13.839
73146W        W45406  12.105  12.359   3.637
73147W        W45407  15.612   8.121   0.259
73148W        W45408  16.125  22.630   4.223
73149W        W45409  30.295  38.367   4.866
73150W        W45410  30.907  40.496  11.732
73151W        W45411  31.501   5.122   1.466
73152W        W45412  15.380  28.580   2.782
73153W        W45413   5.311  35.583   0.997
73154W        W45414  31.181  43.237   1.298
73155W        W45415  33.202  38.371  11.196
73156W        W45416   4.103   9.335   0.926
73157W        W45417  38.645  28.472   0.970
73158W        W45418  12.897  10.296   4.654
73159W        W45419  26.664   3.785  11.023
73160W        W45420  14.934  41.454  10.657
73161W        W45421  25.996  30.535   0.275
73162W        W45422  39.565  25.190  11.425
73163W        W45423  31.089  41.461   1.637
73164W        W45424  24.226  33.827   0.820
73165W        W45425  28.132  44.359  10.679
73166W        W45426   5.820  14.316   1.336
73167W        W45427  40.811  30.681   1.274
73168W        W45428  31.727  36.478   0.755
73169W        W45429  23.094  17.723   3.098
73170W        W45430  43.624  43.272   4.141
73171W        W45431  29.424   7.742  13.779
73172W        W45432   0.364  11.870  13.542
73173W        W45433   2.210  11.159   0.953
73174W        W45434  12.552  24.025  11.935
73175W        W45435  30.660   3.504   4.641
73176W        W45436   5.319  44.883  13.748
73177W        W45437   4.611  38.440   2.186
73178W        W45438   6.134  20.957  14.876
73179W        W45439  36.567  21.052   3.594
73180W        W45440  26.859  39.582  12.419
73181W        W45441  15.845   9.290   0.677
73182W        W45442  26.939  30.943   0.812
73183W        W45443  24.977  29.619   1.869
73184W        W45444  38.489  27.260  12.404
73185W        W45445   9.322  26.444   3.067
73186W        W45446   8.697  30.374   1.338
73187W        W45447   8.780  44.796  12.647
73188W        W45448   2.897   2.442   0.302
73189W        W45449  15.073  12.929   4.557
73190W        W45450  10.350  23.743   4.770
73191W        W45451  44.444  10.785   0.293
73192W        W45452  39.243  23.131   1.183
73193W        W45453  41.929  37.443  10.233
73194W        W45454  40.535  11.201  14.798
73195W        W45455  44.893  38.774   0.380
73196W        W45456  10.830  28.733  13.950
73197W        W45457  27.200  16.504   4.661
73198W        W45458   2.684  25.066  12.478
73199W        W45459  22.724  44.422  14.355
73200W        W45460  31.148  29.890   4.146
73201W        W45461  29.015  30.606  11.679
73202W        W45462   2.214   2.239  11.592
73203W        W45463  10.585  35.560   4.204
73204W        W45464  26.217   1.845   2.654
73205W        W45465   2.503  23.319  11.359
73206W        W45466   0.240  15.616   1.939
73207W        W45467   1.218  20.250  12.030
73208W        W45468  14.528  33.902   2.242
73209W        W45469   3.297   4.710   3.671
73210W        W45470   3.704  12.724  11.602
73211W        W45471   0.462  39.086   3.174
73212W        W45472   6.215  35.838  11.632
73213W        W45473  32.880  31.075  11.064
73214W        W45474   4.903  32.605  14.888
73215W        W45475   9.318  24.750   2.318
73216W        W45476  12.741  14.888  11.476
73217W        W45477  32.562   0.282  12.314
73218W        W45478  35.160  38.063  12.956
73219W        W45479  43.746  18.413   1.771
73220W        W45480  27.934  44.772   2.321
73221W        W45481  34.823  18.907  12.596
73222W        W45482   7.670  43.913  12.924
73223W        W45483  23.036   3.279   1.480
73224W        W45484   5.154   4.829  13.898
73225W        W45485  16.248  27.125  11.290
73226W        W45486   4.786   2.919  13.005
73227W        W45487  26.883   4.338   0.905
73228W        W45488  24.406  15.334   2.758
73229W        W45489  26.550  44.134  11.802
73230W        W45490  11.186  29.126  13.876
73231W        W45491  41.964  42.575  12.341
73232W        W45492  34.141  35.023   3.605
73233W        W45493  21.002  25.653  10.366
73234W        W45494  16.293  27.359  13.464
73235W        W45495  17.542  24.434   0.408
73236W        W45496  20.618  44.115  12.848
73237W        W45497  39.013  30.632   0.370
73238W        W45498  31.968  29.176  13.876
73239W        W45499  36.103  32.130   2.202
73240W        W45500  17.575   1.406  14.385
73241W        W45501  41.466  15.646   1.943
73242W        W45502  42.357  21.693  14.486
73243W        W45503  37.591  44.570  13.373
73244W        W45504  10.632   8.860  10.407
73245W        W45505  27.745   7.812  11.954
73246W        W45506  16.140  17.855   5.058
73247W        W45507  43.396  38.842  14.921
73248W        W45508  27.901  16.481   0.349
73249W        W45509  12.377  15.096  14.593
73250W        W45510  14.724  29.490  14.270
73251W        W45511  25.049  43.510   2.775
73252W        W45512   7.063  21.073   0.134
73253W        W45513   3.953  34.634  12.710
73254W        W45514   7.714  31.087  13.615
73255W        W45515   8.995   7.163   2.102
73256W        W45516   2.018  43.507  12.539
73257W        W45517  21.566  37.935  13.794
73258W        W45518  23.714   0.239  14.842
73259W        W45519  19.581  41.172   4.938
73260W        W45520  27.545  29.944  12.912
73261W        W45521   8.417   6.424   1.184
73262W        W45522  28.317  17.934  13.824
73263W        W45523  13.513  29.037  13.875
73264W        W45524  37.310  38.652  12.671
73265W        W45525  34.634  25.523  14.369
73266W        W45526  22.864  14.107   2.576
73267W        W45527  10.453  28.910   2.838
73268W        W45528   6.166  37.430   0.851
73269W        W45529  43.195  36.070   4.205
73270W        W45530  34.101   8.920  10.988
73271W        W45531  20.261  18.638   1.249
73272W        W45532  26.111  10.035   2.936
73273W        W45533  12.843  10.247  11.918
73274W        W45534  36.559  36.970   1.464
73275W        W45535  43.388  10.755  11.921
73276W        W45536  16.031  23.617  14.512
73277W        W45537  34.174  31.333   1.708
73278W        W45538  42.235  44.375  11.893
73279W        W45539  44.825   0.981  10.365
73280W        W45540   4.062  24.713  13.956
73281W        W45541  42.501  15.788   1.842
73282W        W45542  14.583  36.564   3.630
73283W        W45543  22.288  14.613  12.529
73284W        W45544  12.723  21.816  12.183
73285W        W45545   2.368  22.171   0.135
73286W        W45546  32.140  11.362   2.718
73287W        W45547   6.891  21.118  13.042
73288W        W45548  14.060  44.350   3.741
73289W        W45549  23.655  42.490   3.960
73290W        W45550  37.495  24.189  10.592
73291W        W45551  37.545  27.546   4.374
73292W        W45552  39.344  42.442   0.519
73293W        W45553   6.939  13.157  13.758
73294W        W45554  32.940  32.816  11.194
73295W        W45555  33.155   7.272   3.613
73296W        W45556  16.689   9.306   0.523
73297W        W45557  22.023  23.364  14.510
73298W        W45558  19.562   0.358  10.658
73299W        W45559  24.777  27.016   3.326
73300W        W45560  25.938  27.444  14.971
73301W        W45561  36.069  10.866  12.396
73302W        W45562  25.938  12.300  11.507
73303W        W45563  42.414  24.560  14.957
73304W        W45564  33.882  29.714   3.299
73305W        W45565   0.590  43.489   1.760
73306W        W45566  15.718  14.895  11.491
73307W        W45567   0.323  20.270   4.175
73308W        W45568  19.808  22.831   2.149
73309W        W45569  20.340  25.082  10.775
73310W        W45570   6.379   0.263  12.577
73311W        W45571  10.180  24.273   3.160
73312W        W45572   0.855  13.210   1.732
73313W        W45573   7.976  44.370   2.694
73314W        W45574   9.089  39.438   1.890
73315W        W45575  15.161  32.102   3.695
73316W        W45576  34.788  36.599  14.410
73317W        W45577  17.131  14.881  12.300
73318W        W45578  21.231  17.609  10.783
73319W        W45579  27.871  43.491  12.111
73320W        W45580   1.553  20.954   2.556
73321W        W45581   4.238   5.595   1.198
73322W        W45582  13.642  32.851   4.845
73323W        W45583  32.454  44.809   2.278
73324W        W45584   5.246  17.860   3.137
73325W        W45585  42.915  42.873   2.317
73326W        W45586  10.382  23.787   3.111
73327W        W45587  32.037  11.095  11.690
73328W        W45588  13.699  38.307  14.840
73329W        W45589  28.220  37.522  11.557
73330W        W45590  32.556  17.114  12.057
73331W        W45591  17.832  43.838  13.091
73332W        W45592  17.667  15.166  13.459
73333W        W45593  11.607  38.029  11.664
73334W        W45594  40.514   6.663  13.556
73335W        W45595   1.298   2.377   3.419
73336W        W45596  16.110  32.552   2.417
73337W        W45597  44.573  32.338   0.351
73338W        W45598  22.143   2.015  14.058
73339W        W45599   6.084  32.782   1.776
73340W        W45600   9.823  33.744  11.566
73341W        W45601  22.183  14.002  13.265
73342W        W45602  24.432   7.731   3.239
73343W        W45603  19.570  27.952  14.426
73344W        W45604  44.319  10.635   4.670
73345W        W45605  14.088  26.805  12.466
73346W        W45606  23.209  12.937   2.455
73347W        W45607  22.930   0.878  13.046
73348W        W45608  11.241   1.229  12.968
73349W        W45609  24.170  33.307  13.048
73350W        W45610   8.346  25.597   2.634
73351W        W45611  19.322   8.695  10.678
73352W        W45612  17.579  31.039  13.435
73353W        W45613  23.523   8.234   4.820
73354W        W45614  20.483  32.662  13.217
73355W        W45615  15.287  32.436   1.463
73356W        W45616  31.630  25.244  11.203
73357W        W45617   8.105   7.204   0.257
73358W        W45618  40.584  12.886   2.272
73359W        W45619  13.568  41.087   0.194
73360W        W45620  12.456  42.383   3.180
73361W        W45621  38.567  22.211   3.727
73362W        W45622  25.496  17.731   1.030
73363W        W45623   6.745  44.903   0.233
73364W        W45624   9.218  19.116  10.631
73365W        W45625  26.422  44.135  12.305
73366W        W45626   0.046   1.807  11.992
73367W        W45627  40.872   1.295   3.150
73368W        W45628  43.614  19.551   2.295
73369W        W45629   2.728  31.993   2.448
73370W        W45630  38.084   6.887   2.444
73371W        W45631  10.821  18.526   0.525
73372W        W45632  10.761  37.549  10.731
73373W        W45633  17.942  11.899   3.873
73374W        W45634   7.786  12.513   0.050
73375W        W45635  20.972  25.438   2.338
73376W        W45636   7.452  41.566  13.400
73377W        W45637  34.059  28.855  12.114
73378W        W45638   2.687  12.759   5.227
73379W        W45639  11.745  42.521   3.716
73380W        W45640  25.587  24.329  12.849
73381W        W45641  17.752  34.793  11.974
73382W        W45642  42.899   2.522  13.571
73383W        W45643  15.994  39.173   0.017
73384W        W45644  22.444   9.829  11.112
73385W        W45645   0.477  37.983  10.411
73386W        W45646  20.607  18.114   3.794
73387W        W45647  16.060   6.860   2.172
73388W        W45648  18.486  28.584   0.272
73389W        W45649  39.802  20.670   3.319
73390W        W45650   9.280  19.471   0.792
73391W        W45651  33.519  29.390   4.161
73392W        W45652  30.245  23.329  12.680
73393W        W45653  15.444  25.916  14.911
73394W        W45654  26.481  19.541   3.668
73395W        W45655  41.868   1.543  13.487
73396W        W45656  44.942  22.307  13.138
73397W        W45657  38.994  17.806   0.482
73398W        W45658  44.382   1.735  14.985
73399W        W45659  28.495  16.564  13.387
73400W        W45660   7.114  30.018   1.305
73401W        W45661  36.884  17.632   0.416
73402W        W45662  29.162  44.022  11.566
73403W        W45663  20.782  25.718   1.023
73404W        W45664  35.622  15.716  14.478
73405W        W45665  44.078   5.810   2.210
73406W        W45666   2.977  40.700   4.502
73407W        W45667  16.070  38.969   2.835
73408W        W45668  43.210   6.381  13.371
73409W        W45669  14.787   1.684   1.032
73410W        W45670  16.268  33.158   0.244
73411W        W45671  25.223   7.170  11.543
73412W        W45672   5.917  18.166  13.365
73413W        W45673  15.782  27.396  12.816
73414W        W45674  31.545  28.593   2.725
73415W        W45675  15.330   8.857  12.361
73416W        W45676  20.235  14.288  14.347
73417W        W45677  20.095  18.117   1.358
73418W        W45678  43.350   1.748  10.521
73419W        W45679   6.820  33.907  14.383
73420W        W45680  30.658  27.403   0.673
73421W        W45681  18.904  28.153  13.461
73422W        W45682  22.199  20.893  11.886
73423W        W45683   4.728   0.272  13.964
73424W        W45684  35.966   5.287  13.769
73425W        W45685  22.540  12.418   1.947
73426W        W45686  12.786  29.183   1.145
73427W        W45687  20.301   8.346  10.642
73428W        W45688  33.847  33.638  11.117
73429W        W45689  39.551  42.271  10.666
73430W        W45690   2.887  37.053  12.430
73431W        W45691   4.358   3.707  10.604
73432W        W45692  33.523  20.513   5.138
73433W        W45693   3.969  41.742  14.842
73434W        W45694  34.330  32.939  12.397
73435W        W45695  23.969  39.878  14.971
73436W        W45696  24.238   3.018   1.810
73437W        W45697   1.063  18.526  12.838
73438W        W45698  23.211  42.917   0.800
73439W        W45699   2.792  15.213  13.758
73440W        W45700  44.627   9.406  10.730
73441W        W45701  23.235   7.758  14.379
73442W        W45702  41.583  18.104   0.070
73443W        W45703  15.055  42.823  10.718
73444W        W45704  38.468   4.614   1.219
73445W        W45705  23.476  37.987  12.628
73446W        W45706  18.545  30.933   4.182
73447W        W45707  42.896  39.824  14.250
73448W        W45708  25.937  30.138   3.629
73449W        W45709  25.056  13.231  11.944
73450W        W45710   9.855  44.927  11.568
73451W        W45711  44.821  11.343  11.934
73452W        W45712   5.705  36.642  14.313
73453W        W45713   3.219  29.022  13.285
73454W        W45714  15.867   6.281   4.836
73455W        W45715  32.968   8.419  11.916
73456W        W45716  37.108  27.742   4.796
73457W        W45717  34.311   4.332   1.375
73458W        W45718  34.132   8.377   1.862
73459W        W45719  22.986  41.793  10.498
73460W        W45720   8.678  36.802  13.365
73461W        W45721   0.340   2.960  12.134
73462W        W45722   5.974  26.476  12.803
73463W        W45723  21.585  25.153   0.702
73464W        W45724  21.812  34.439   0.502
73465W        W45725  44.222   5.753  14.022
73466W        W45726  44.350   5.197   0.724
73467W        W45727  36.863  40.414  14.773
73468W        W45728   6.936  38.515   0.413
73469W        W45729  43.072  22.979  12.410
73470W        W45730   7.454  25.488  12.521
73471W        W45731  29.210   1.455   1.483
73472W        W45732  12.844  31.431   4.518
73473W        W45733  23.281  18.538  11.493
73474W        W45734  42.357  27.029   2.383
73475W        W45735  19.657   7.282  13.922
73476W        W45736   2.807  26.901  14.399
73477W        W45737  42.815   7.524   0.891
73478W        W45738  24.138  44.916   2.908
73479W        W45739  19.764   4.620  11.121
73480W        W45740  20.676  27.062  10.410
73481W        W45741  23.800  37.991  13.596
73482W        W45742  31.422  23.632   3.781
73483W        W45743   1.027  25.425  12.097
73484W        W45744  33.450   2.446   4.523
73485W        W45745  27.872  44.299   4.590
73486W        W45746  26.923   2.972  14.961
73487W        W45747  16.716  16.253   1.709
73488W        W45748  25.679  14.883   0.917
73489W        W45749  21.640   4.324   0.733
73490W        W45750   5.481  26.132   0.765
73491W        W45751  32.916  31.026   3.494
73492W        W45752   6.257   8.234  12.584
73493W        W45753  41.315  23.570  11.486
73494W        W45754  17.267   0.642  11.126
73495W        W45755  18.812   2.320  13.074
73496W        W45756   8.341  28.582   3.103
73497W        W45757  25.300   2.967   4.731
73498W        W45758   7.903   7.920   2.343
73499W        W45759  31.225  22.737  11.888
73500W        W45760  43.412  37.585  14.187
73501W        W45761   4.011   5.855  12.189
73502W        W45762  37.826  17.740  14.493
73503W        W45763  23.174  24.215   4.235
73504W        W45764  37.537   5.721  12.446
73505W        W45765  24.178  12.082  13.508
73506W        W45766  12.330  11.198  11.642
73507W        W45767  16.132  10.344   2.355
73508W        W45768  17.126  32.688  13.099
73509W        W45769   2.876   3.835   2.150
73510W        W45770  24.629  30.574  11.758
73511W        W45771  27.221  17.557   0.257
73512W        W45772  38.719  18.871  11.033
73513W        W45773  42.299  15.408  12.539
73514W        W45774  20.642   5.533   2.901
73515W        W45775  16.763  30.918   3.713
73516W        W45776  32.984  14.925   0.017
73517W        W45777  41.753   8.390   2.905
73518W        W45778  31.058  44.208  12.062
73519W        W45779  11.477  14.570   4.740
73520W        W45780  38.714   7.700   3.718
73521W        W45781  17.700   3.815   2.653
73522W        W45782  33.104   0.233  11.594
73523W        W45783  20.670  39.116  13.345
73524W        W45784  20.648  36.986   1.789
73525W        W45785   8.688   7.422   1.724
73526W        W45786  26.256  35.959  12.876
73527W        W45787  20.293   4.664   1.577
73528W        W45788  23.819  12.784  14.451
73529W        W45789  36.550  22.765   0.962
73530W        W45790   8.922  36.425  12.595
73531W        W45791  10.622  19.249  11.464
73532W        W45792   5.654   8.323  13.962
73533W        W45793   4.444  14.292  12.066
73534W        W45794  26.932  21.534   3.028
73535W        W45795  23.818   3.832   2.858
73536W        W45796  18.262  23.593  12.495
73537W        W45797  13.094   7.565  10.804
73538W        W45798  14.176  31.799   2.702
73539W        W45799  14.470   3.282  14.311
73540W        W45800  21.222  42.879  11.131
73541W        W45801  24.422  22.528  13.328
73542W        W45802  39.933   4.965  14.856
73543W        W45803  41.068  34.422  14.408
73544W        W45804  11.742  18.578   0.505
73545W        W45805   0.894  21.994  11.155
73546W        W45806   6.784  33.712  13.911
73547W        W45807   5.247  17.623  11.974
73548W        W45808  34.501  30.615   0.432
73549W        W45809  20.076  29.605  14.030
73550W        W45810  34.459  42.262  12.928
73551W        W45811   8.842  13.067  11.558
73552W        W45812  25.823   6.917   3.295
73553W        W45813  30.060  34.569  12.858
73554W        W45814  23.764  11.169  13.982
73555W        W45815  40.088  42.517   1.280
73556W        W45816  37.488  11.719  11.538
73557W        W45817  29.337  43.560   4.427
73558W        W45818  21.411  37.804  12.445
73559W        W45819  16.391  29.048   2.382
73560W        W45820  20.198  28.742  12.379
73561W        W45821  10.107  31.373  13.888
73562W        W45822  23.653  29.900   1.929
73563W        W45823  39.893  13.470   0.960
73564W        W45824  34.551  41.917  11.550
73565W        W45825   2.707  17.066   4.177
73566W        W45826  19.808  18.894   0.753
73567W        W45827  26.283  20.199  12.051
73568W        W45828   9.257  35.458  12.879
73569W        W45829  23.037  24.616   1.976
73570W        W45830  31.546  21.500   0.289
73571W        W45831   3.795  21.274  10.396
73572W        W45832  21.566  38.976   1.362
73573W        W45833  29.537  14.669  12.611
73574W        W45834  39.863  35.543  13.368
73575W        W45835  41.427  15.593   0.877
73576W        W45836  22.269  28.926  11.468
73577W        W45837  43.785  26.697   3.884
73578W        W45838  30.932   6.678   4.081
73579W        W45839  11.782  21.303   1.446
73580W        W45840  14.097   7.381   1.758
73581W        W45841  39.377  16.410  14.343
73582W        W45842   3.560  29.535   4.150
73583W        W45843  31.434  38.768   4.154
73584W        W45844   1.924  28.017   2.054
73585W        W45845  33.307  41.189  12.178
73586W        W45846  24.461  40.342   4.125
73587W        W45847  29.334  12.253  10.678
73588W        W45848  42.385   4.544  13.984
73589W        W45849   1.261  26.204  14.092
73590W        W45850  20.487   7.063   5.052
73591W        W45851  16.396   7.131  11.472
73592W        W45852   8.211  16.587   3.570
73593W        W45853  40.605   2.279  14.111
73594W        W45854  28.697  31.037  13.873
73595W        W45855  26.668  31.809  13.361
73596W        W45856  30.623  21.639   3.780
73597W        W45857  10.073  10.590   4.495
73598W        W45858  14.289   6.358   3.234
73599W        W45859   9.581  27.071   3.387
73600W        W45860  27.937  23.096   2.661
73601W        W45861  15.487   5.227   3.782
73602W        W45862  31.147  20.511   2.837
73603W        W45863  21.311   4.395  11.282
73604W        W45864  22.106  12.419   2.786
73605W        W45865  36.345  24.539  13.951
73606W        W45866  12.113  12.349   2.149
73607W        W45867  32.902  27.471   4.103
73608W        W45868   9.048  19.632   1.584
73609W        W45869   8.412  35.876  14.704
73610W        W45870   2.838  23.319  13.259
73611W        W45871  43.465   6.018   3.696
73612W        W45872  39.320  18.334   3.113
73613W        W45873  41.368  40.311   3.656
73614W        W45874  16.283  37.491  12.991
73615W        W45875  42.852  29.830   3.674
73616W        W45876  16.547   3.780   1.809
73617W        W45877   2.597  20.630  14.026
73618W        W45878  44.384  32.289  13.157
73619W        W45879  34.617  15.573  14.388
73620W        W45880  41.850   1.411   3.333
73621W        W45881  23.910   9.261  11.814
73622W        W45882  36.371   6.173  14.822
73623W        W45883  11.843  15.742  12.933
73624W        W45884   9.267   8.802   4.628
73625W        W45885  39.974  23.649   1.353
73626W        W45886  37.859   2.565   4.111
73627W        W45887  33.856  23.180  12.381
73628W        W45888  36.662  34.695  12.493
73629W        W45889  31.500   1.960   2.184
73630W        W45890  25.023  23.939  14.409
73631W        W45891  34.778  11.630   2.520
73632W        W45892  38.153  27.152   2.359
73633W        W45893   0.820  23.610   2.219
73634W        W45894  43.846  19.240   0.328
73635W        W45895  27.458  44.332   0.241
73636W        W45896  15.843   5.976   3.216
73637W        W45897  15.115  11.413  12.496
73638W        W45898  24.991  14.941  11.509
73639W        W45899  33.431  32.082   1.670
73640W        W45900   1.897  26.449  10.966
73641W        W45901  20.499   2.044   3.436
73642W        W45902  36.983   4.858   1.228
73643W        W45903  22.515  37.545  10.234
73644W        W45904  20.279  38.178  11.973
73645W        W45905  17.380   9.792   1.744
73646W        W45906   7.629  25.836  14.259
73647W        W45907   5.650  11.794  11.549
73648W        W45908  12.969  40.767  14.464
73649W        W45909  10.745   7.371  13.130
73650W        W45910  21.647  20.186  12.758
73651W        W45911  12.291  15.628   3.253
73652W        W45912  19.776   5.797  11.155
73653W        W45913  21.991  26.238   1.812
73654W        W45914  36.957  28.989  10.767
73655W        W45915   4.794   2.979   0.967
73656W        W45916  37.522  39.658  13.597
73657W        W45917  11.388  10.185   0.925
73658W        W45918  32.139  43.641   9.954
73659W        W45919  14.655   3.183  10.753
73660W        W45920   5.865  36.253  10.453
73661W        W45921  21.655  39.055  12.105
73662W        W45922   1.507  27.912  11.668
73663W        W45923   1.964  31.593   4.131
73664W        W45924  12.488  29.086  10.228
73665W        W45925  40.714  38.979   1.393
73666W        W45926  31.390  39.853  11.220
73667W        W45927   0.316   9.447   0.962
73668W        W45928  41.748  36.235   2.508
73669W        W45929  16.195   5.687   4.401
73670W        W45930  39.461  16.771  11.036
73671W        W45931  18.267  39.320   2.144
73672W        W45932   3.846  37.512  14.744
73673W        W45933   3.278  28.031  14.817
73674W        W45934  16.307  20.215  11.115
73675W        W45935  15.524  40.510   1.492
73676W        W45936  35.405  18.323   5.507
73677W        W45937  42.531  41.282  10.721
73678W        W45938  23.218   6.124  13.344
73679W        W45939  12.184  36.317  14.298
73680W        W45940  30.822  31.667  12.503
73681W        W45941   9.341  24.532  12.041
73682W        W45942  26.188  40.576   1.701
73683W        W45943  34.221   9.225  14.467
73684W        W45944  41.193   7.245  13.798
73685W        W45945  11.217  12.049   0.359
73686W        W45946  30.561  19.126  13.121
73687W        W45947  17.508   1.328   0.294
73688W        W45948  32.883  22.617  13.389
73689W        W45949  19.483  37.835   4.779
73690W        W45950  17.629  29.207   4.237
73691W        W45951   3.323   7.772   2.817
73692W        W45952   3.879  28.500   1.800
73693W        W45953  42.435  32.472  14.283
73694W        W45954  36.578  25.606   3.635
73695W        W45955  34.121   7.758  10.631
73696W        W45956  12.642  22.600  13.887
73697W        W45957  37.184   2.461   0.941
73698W        W45958  28.262  38.805   0.496
73699W        W45959  34.378  19.134   3.728
73700W        W45960  30.514  31.574  10.250
73701W        W45961  39.440  18.115   4.486
73702W        W45962  27.904  33.861   4.205
73703W        W45963  16.998  22.006  12.546
73704W        W45964   4.879  12.093  12.900
73705W        W45965  16.166  20.994   0.252
73706W        W45966  20.714  15.309   3.768
73707W        W45967   6.216  22.088  10.680
73708W        W45968  42.067  44.502  13.702
73709W        W45969  29.010  42.938   1.963
73710W        W45970   0.489   4.818  13.043
73711W        W45971  17.826  15.492   1.337
73712W        W45972  11.147  30.253   3.514
73713W        W45973  43.212  30.377   2.382
73714W        W45974  42.163  33.020  14.261
73715W        W45975  20.722  17.792   2.454
73716W        W45976   2.149  15.266  14.258
73717W        W45977   2.839   6.292   2.270
73718W        W45978   6.800  10.318   3.768
73719W        W45979   7.309   8.837  13.853
73720W        W45980  26.727   7.191   1.694
73721W        W45981   5.319  42.531  11.111
73722W        W45982  13.247  35.420  12.753
73723W        W45983  31.261  38.028  14.955
73724W        W45984   1.250  32.967   2.601
73725W        W45985  33.997   5.180   2.197
73726W        W45986  25.459  24.691  14.764
73727W        W45987  30.587  26.064   3.373
73728W        W45988  11.488  30.627   3.466
73729W        W45989  30.043  44.617   1.301
73730W        W45990  31.815  10.880   2.024
73731W        W45991  36.547  18.871   1.390
73732W        W45992  33.273  17.145   5.092
73733W        W45993  28.617   3.180   2.332
73734W        W45994  19.705   0.328   4.479
73735W        W45995  13.887  21.107  14.333
73736W        W45996  42.391  33.716   0.815
73737W        W45997  11.586  34.456   0.869
73738W        W45998   3.763   8.187   4.568
73739W        W45999  44.886  11.708   3.836
73740W        W46000  22.879  42.715   4.898
73741W        W46001  38.883   0.128   3.314
73742W        W46002  28.634   6.173  12.077
73743W        W46003  21.054   1.223  12.743
73744W        W46004  34.985  10.580  10.644
73745W        W46005  11.306  34.551   4.573
73746W        W46006  23.585  37.118   4.871
73747W        W46007  18.860  17.599  14.362
73748W        W46008   8.741  26.088   0.526
73749W        W46009  24.723  17.459  13.166
73750W        W46010  43.807   0.293  14.548
73751W        W46011  22.946  27.898   5.293
73752W        W46012  18.737   5.027   1.805
73753W        W46013  36.965  33.435   0.035
73754W        W46014  31.581  30.182   3.297
73755W        W46015   4.281  21.086  10.514
73756W        W46016  24.326  36.524  14.433
73757W        W46017   8.518  29.927  14.317
73758W        W46018   0.730   6.233   3.847
73759W        W46019  34.604  36.064   0.106
73760W        W46020   2.622  29.599  13.825
73761W        W46021  40.132  38.663   0.292
73762W        W46022  24.693   9.850  13.913
73763W        W46023  39.332  20.483  11.920
73764W        W46024  34.961  42.337   4.694
73765W        W46025  17.089  43.337  14.438
73766W        W46026  29.004  43.770  14.877
73767W        W46027  36.898  38.884   4.335
73768W        W46028  30.063   9.372   0.306
73769W        W46029  10.390  32.565  14.638
73770W        W46030   9.664  39.462  10.854
73771W        W46031   7.053  33.253  10.738
73772W        W46032  42.387  44.601  14.939
73773W        W46033  27.983  32.193   1.939
73774W        W46034  22.182  36.476  12.586
73775W        W46035   2.987   1.863  14.425
73776W        W46036   0.722  17.177  12.688
73777W        W46037  16.290  40.464   2.081
73778W        W46038   2.282  27.407   3.556
73779W        W46039  21.238  38.967  14.830
73780W        W46040  37.239  44.956   0.782
73781W        W46041  18.142  12.313  11.993
73782W        W46042  42.296   6.949   3.751
73783W        W46043  38.005  39.060  13.412
73784W        W46044  30.580  22.774   2.892
73785W        W46045  36.555   3.175  12.539
73786W        W46046  21.016  38.497  14.786
73787W        W46047  42.913   0.382   4.549
73788W        W46048  36.815  37.086   2.372
73789W        W46049  31.418   9.156  11.737
73790W        W46050  18.752  17.545  13.492
73791W        W46051  15.717  43.047   1.827
73792W        W46052  21.001   8.456  13.149
73793W        W46053  16.342   1.031  13.503
73794W        W46054  24.222  34.011  11.744
73795W        W46055  21.054  28.519   1.561
73796W        W46056  26.007  41.237   5.060
73797W        W46057   5.311   0.290  11.447
73798W        W46058  22.844  14.282   2.084
73799W        W46059  37.956   9.322   9.782
73800W        W46060   2.724  11.681  13.013
73801W        W46061  43.935   6.903   1.372
73802W        W46062   1.280  43.915   2.805
73803W        W46063   8.749  26.188  11.972
73804W        W46064  10.895   1.404   1.376
73805W        W46065  37.887  21.547   1.266
73806W        W46066  32.474  37.961   3.197
73807W        W46067  29.531  29.925   9.666
73808W        W46068   9.323  25.302  14.653
73809W        W46069   4.338   5.247   4.507
73810W        W46070  33.478  21.280  12.895
73811W        W46071   1.471  28.031   1.827
73812W        W46072  35.054  42.002   2.370
73813W        W46073  40.057  10.232  12.496
73814W        W46074   1.129  31.722   2.220
73815W        W46075  39.961  27.981  12.713
73816W        W46076  30.699  30.897  12.408
73817W        W46077  36.997  41.547  11.535
73818W        W46078  12.599  44.748  10.613
73819W        W46079  23.204  37.646  10.740
73820W        W46080  42.780  20.990  10.040
73821W        W46081  16.655  44.596   3.232
73822W        W46082  35.965  12.327   0.218
73823W        W46083  38.852   8.631   3.639
73824W        W46084  29.431  24.198   2.548
73825W        W46085  29.611  37.411  14.528
73826W        W46086  11.945  37.237   3.659
73827W        W46087  27.680  26.218  12.379
73828W        W46088   6.905  37.394  13.974
73829W        W46089  12.690  26.515   4.591
73830W        W46090   9.402   6.325  14.508
73831W        W46091  33.184   6.760   0.245
73832W        W46092  32.056  39.353  12.006
73833W        W46093  42.805  34.557  11.125
73834W        W46094   6.308  19.744   1.803
73835W        W46095  17.822  37.531   1.648
73836W        W46096   7.916  35.695  14.806
73837W        W46097   6.395  16.651  12.143
73838W        W46098  25.248  41.715   9.904
73839W        W46099  31.350   7.683   5.046
73840W        W46100  22.567  38.418   1.835
73841W        W46101  18.401   7.693  12.015
73842W        W46102  11.108   4.307   4.544
73843W        W46103  17.568  15.173  11.574
73844W        W46104   9.666   4.665  13.902
73845W        W46105  34.098  11.218  11.998
73846W        W46106  28.491   3.781  14.266
73847W        W46107  28.934  23.999   3.211
73848W        W46108  25.995  16.276  13.091
73849W        W46109  21.834   7.721  14.249
73850W        W46110  29.472  19.830  13.489
73851W        W46111  26.519  19.535   2.201
73852W        W46112  39.496  35.863  11.581
73853W        W46113  28.039  13.522  11.246
73854W        W46114  28.262  16.193  14.441
73855W        W46115  13.425  14.808  12.028
73856W        W46116  34.012  21.242   0.366
73857W        W46117  11.174   2.870   1.037
73858W        W46118   5.937  22.666  12.369
73859W        W46119  23.019  43.810  14.860
73860W        W46120   8.693   5.269  12.607
73861W        W46121  33.927  36.868  14.331
73862W        W46122  34.526  41.110  13.976
73863W        W46123  28.031  38.307   3.467
73864W        W46124   5.147  26.140   4.300
73865W        W46125  24.294  31.093  14.020
73866W        W46126  33.912  22.109  11.991
73867W        W46127  32.885  27.567  11.971
73868W        W46128   2.486  24.966  14.472
73869W        W46129   8.635  30.820  13.316
73870W        W46130  31.049   1.057  12.325
73871W        W46131  29.161  31.047   2.409
73872W        W46132  30.106  23.792  12.860
73873W        W46133  21.520  32.592   2.990
73874W        W46134  31.141  39.469   0.708
73875W        W46135   2.841  39.871   1.660
73876W        W46136  19.957  20.201  11.646
73877W        W46137  12.693   6.144   1.278
73878W        W46138  23.603  30.695  10.560
73879W        W46139   2.730  19.790  13.396
73880W        W46140   4.319  41.583  11.615
73881W        W46141  28.740  33.118  14.550
73882W        W46142  16.174  41.967   0.946
73883W        W46143  25.106  42.432  13.015
73884W        W46144  22.631  11.696   2.654
73885W        W46145  15.310  19.667   1.289
73886W        W46146  34.615  19.895  13.962
73887W        W46147  22.687   2.266  12.359
73888W        W46148   2.994   0.131  13.337
73889W        W46149  23.791  37.938   3.741
73890W        W46150  16.231  41.462  13.416
73891W        W46151   4.458   1.799   2.213
73892W        W46152  39.169  26.432  12.600
73893W        W46153  32.678  40.825  11.680
73894W        W46154  42.707  36.569   4.027
73895W        W46155   6.159  43.781   0.963
73896W        W46156  11.633  18.494  14.369
73897W        W46157   0.562  23.793  14.872
73898W        W46158  40.749  18.517   0.789
73899W        W46159  10.616  16.089  12.886
73900W        W46160  13.004   1.533   2.881
73901W        W46161  41.308  28.353   4.085
73902W        W46162  24.567   7.933  11.882
73903W        W46163  34.517   2.905   4.567
73904W        W46164   2.052  19.119   4.143
73905W        W46165   6.662  40.667  14.884
73906W        W46166   3.521   6.800   4.885
73907W        W46167  44.469  21.105  10.488
73908W        W46168   0.477  16.608   4.111
73909W        W46169  32.831  42.102   4.643
73910W        W46170  20.678  42.797  11.067
73911W        W46171  15.666  15.175  10.557
73912W        W46172  42.825   6.300   0.414
73913W        W46173  36.356  21.706   0.016
73914W        W46174  28.566  18.021   2.708
73915W        W46175  17.345   3.396   1.614
73916W        W46176  13.330  29.550  14.336
73917W        W46177  42.301  16.897   1.388
73918W        W46178   9.756  10.330   4.117
73919W        W46179   6.963  40.011  13.496
73920W        W46180   1.011  43.799   1.270
73921W        W46181   3.221   7.652  11.235
73922W        W46182  18.016  19.928   2.831
73923W        W46183  20.154   7.853  11.562
73924W        W46184  43.658  11.608  14.774
73925W        W46185  21.256  25.950  14.733
73926W        W46186  33.297  31.146   1.264
73927W        W46187  43.478  42.131  13.611
73928W        W46188  38.095  30.764  14.111
73929W        W46189   5.412   0.118   4.358
73930W        W46190   6.824   7.215   2.657
73931W        W46191  39.845   6.711   4.111
73932W        W46192  23.071  33.280  13.004
73933W        W46193  23.339   6.001  12.477
73934W        W46194  17.148  41.339  10.040
73935W        W46195  16.796  17.131  14.698
73936W        W46196  23.845  18.127  14.413
73937W        W46197   8.639  15.654  13.508
73938W        W46198  17.560   7.007   0.734
73939W        W46199  39.869  10.442  13.913
73940W        W46200   0.738  43.893  12.720
73941W        W46201  30.312  14.642  11.966
73942W        W46202  40.979  41.225   1.952
73943W        W46203  26.041   0.348  13.482
73944W        W46204  32.101  30.167   4.142
73945W        W46205  40.066  22.657  10.947
73946W        W46206  14.878  14.636   1.255
73947W        W46207  35.554  42.703   3.245
73948W        W46208  35.264   9.186  13.538
73949W        W46209  30.714  33.423  10.682
73950W        W46210  12.877  10.899   0.007
73951W        W46211  18.477  24.989   3.243
73952W        W46212   5.921   5.152   0.633
73953W        W46213  28.550   7.704  13.936
73954W        W46214   5.241   0.225  14.117
73955W        W46215  27.673  12.208  12.641
73956W        W46216  36.541   1.790   3.163
73957W        W46217  19.993  35.866   1.254
73958W        W46218  10.993  42.774   4.835
73959W        W46219  22.092  37.823  10.392
73960W        W46220  28.331  14.702  10.358
73961W        W46221   2.376  20.594  13.573
73962W        W46222   1.421   9.423  11.074
73963W        W46223  30.817   8.884   3.306
73964W        W46224  26.899  39.816   2.751
73965W        W46225   2.952  16.390   3.276
73966W        W46226  37.603  40.943  14.735
73967W        W46227  43.601  26.840  10.411
73968W        W46228  44.067  33.404  11.098
73969W        W46229  27.399  29.910   1.515
73970W        W46230  43.898  27.181  10.684
73971W        W46231  17.419   5.475   2.092
73972W        W46232  39.870  17.877  14.055
73973W        W46233  16.024  14.803   4.974
73974W        W46234  14.546   2.169   1.155
73975W        W46235  30.529  13.403   4.598
73976W        W46236   5.844  22.923  11.935
73977W        W46237   6.953  12.980  12.903
73978W        W46238  23.472  31.351  12.083
73979W        W46239  22.333  28.676   1.020
73980W        W46240   0.202  23.612  13.258
73981W        W46241  23.199   0.685   2.112
73982W        W46242  27.912  22.530   0.531
73983W        W46243  20.642  27.515  12.890
73984W        W46244  32.527  34.863   1.305
73985W        W46245  24.154  17.727   2.192
73986W        W46246  32.120  33.626   1.277
73987W        W46247  20.673  20.218   0.383
73988W        W46248  12.131  20.162   0.952
73989W        W46249  25.512   0.785   2.272
73990W        W46250   7.773  11.256  11.956
73991W        W46251   1.354   0.810  12.841
73992W        W46252  30.542  37.593  11.499
73993W        W46253  20.656  18.231  10.058
73994W        W46254  41.065  26.764  10.984
73995W        W46255  37.471  21.054   0.755
73996W        W46256  32.186  32.031  12.610
73997W        W46257  31.977  43.862   1.419
73998W        W46258  26.045  18.993  12.402
73999W        W46259  16.601  33.538  13.506
74000W        W46260  40.799   4.290   3.816
74001W        W46261  44.862  21.317   1.987
74002W        W46262   8.432  32.924   4.108
74003W        W46263  24.455  22.222  14.666
74004W        W46264  30.481   6.037   3.835
74005W        W46265   3.950  16.503  13.850
74006W        W46266  12.482  22.701   0.325
74007W        W46267  22.221   2.751   0.368
74008W        W46268  13.676  20.780  13.939
74009W        W46269   0.322  42.494  11.978
74010W        W46270   4.389   2.333  14.955
74011W        W46271   3.180  38.964   1.336
74012W        W46272  30.001  26.355   1.938
74013W        W46273  34.873   7.742   1.933
74014W        W46274  13.369  28.690   3.161
74015W        W46275  36.473  42.087  14.238
74016W        W46276  13.641   1.945   1.757
74017W        W46277  43.023   5.272   4.983
74018W        W46278  21.178  21.931  12.211
74019W        W46279  23.608   7.157   0.136
74020W        W46280   6.789  21.745   1.962
74021W        W46281  31.905  25.246  12.502
74022W        W46282   8.420  15.225   1.361
74023W        W46283   5.680  35.577   1.870
74024W        W46284   8.400  12.290   4.096
74025W        W46285   2.945  14.794  14.354
74026W        W46286  30.384   2.282   2.938
74027W        W46287  42.746  43.808   1.624
74028W        W46288   5.019   0.739  11.442
74029W        W46289  30.653   6.797   1.914
74030W        W46290  13.314  36.120   5.319
74031W        W46291  27.083  44.218  14.899
74032W        W46292  14.589  26.736  13.920
74033W        W46293  41.265   4.407   1.773
74034W        W46294  38.177  32.593   0.595
74035W        W46295  33.735  42.973   3.295
74036W        W46296   6.150   1.786  11.033
74037W        W46297   4.018  27.061  14.340
74038W        W46298  26.226  26.987  11.952
74039W        W46299  23.147  15.120  10.768
74040W        W46300  29.162  44.048   2.717
74041W        W46301  35.017  18.739   5.510
74042W        W46302  19.551  33.652   1.949
74043W        W46303  11.158  38.299  10.711
74044W        W46304  38.969  26.912  11.192
74045W        W46305  34.559  26.096   2.930
74046W        W46306  14.139  42.135  13.501
74047W        W46307  39.403  36.947   3.156
74048W        W46308   1.855   7.401   0.436
74049W        W46309   4.105   1.139   2.705
74050W        W46310  42.050  29.007  13.479
74051W        W46311  22.084   2.215   0.020
74052W        W46312  27.882   5.793   0.257
74053W        W46313  32.080  40.114  12.906
74054W        W46314  23.513  44.354  11.444
74055W        W46315  42.784  36.042   2.835
74056W        W46316  10.588  18.028  11.963
74057W        W46317  16.659  24.537  11.874
74058W        W46318  23.388  20.408   4.114
74059W        W46319  34.895  27.582   4.425
74060W        W46320   3.774  22.602  13.647
74061W        W46321   2.747  30.073   4.468
74062W        W46322  28.536  19.682   3.060
74063W        W46323  32.371  44.231   1.369
74064W        W46324  43.086  31.001   5.044
74065W        W46325  32.148   9.332  14.520
74066W        W46326   7.624  28.572   2.322
74067W        W46327   6.250  29.899   4.755
74068W        W46328   8.354  25.045   2.683
74069W        W46329   4.713  23.604   4.486
74070W        W46330   5.333  35.371   2.384
74071W        W46331  21.123  18.739  14.428
74072W        W46332  42.284  21.721  13.924
74073W        W46333  29.989  25.091  14.076
74074W        W46334  22.464   1.802  12.205
74075W        W46335   5.455  12.375   0.842
74076W        W46336  30.060  43.826   0.433
74077W        W46337  22.041  29.487  13.958
74078W        W46338  34.450   5.441  11.914
74079W        W46339  40.985   7.885  12.879
74080W        W46340  10.414  40.128  11.627
74081W        W46341   4.977  36.333   4.572
74082W        W46342  41.018  26.762  13.017
74083W        W46343  12.897  19.155   3.666
74084W        W46344   3.026   9.387  13.473
74085W        W46345  31.547  44.190   3.642
74086W        W46346  10.479  18.263   3.252
74087W        W46347  15.673  25.198  11.186
74088W        W46348  23.652  26.168   1.159
74089W        W46349  38.281  38.364  13.881
74090W        W46350  21.757  33.709  10.294
74091W        W46351  30.528  18.965   1.202
74092W        W46352  29.014  44.966  13.269
74093W        W46353  13.311  19.547   4.946
74094W        W46354  26.925   4.264  11.123
74095W        W46355  16.670  39.316   2.848
74096W        W46356  24.017  29.548   3.429
74097W        W46357  40.800   4.905  10.657
74098W        W46358  11.392  17.768   4.943
74099W        W46359  26.750  36.732   0.457
74100W        W46360  34.899  16.718  14.633
74101W        W46361  38.383   7.149  14.472
74102W        W46362  40.506   7.899   1.366
74103W        W46363   0.277  22.201  14.838
74104W        W46364  11.277   5.847   0.926
74105W        W46365  15.244  36.998   3.248
74106W        W46366  18.733  27.272   2.873
74107W        W46367  10.640  19.648   3.739
74108W        W46368   4.156  24.588  11.930
74109W        W46369  27.051   7.376  10.379
74110W        W46370  39.017  30.041   1.224
74111W        W46371   2.925  18.817  13.129
74112W        W46372  27.577  15.426  14.297
74113W        W46373  17.093  27.834   2.345
74114W        W46374   2.974  16.091   1.695
74115W        W46375  36.747  12.711   1.195
74116W        W46376  25.626  41.831   4.174
74117W        W46377  28.710  44.944  12.842
74118W        W46378  16.227  21.347   1.281
74119W        W46379   5.263  20.673   3.025
74120W        W46380   4.661  20.306   3.397
74121W        W46381  40.194  30.497   5.194
74122W        W46382  39.689  19.140  13.425
74123W        W46383   6.582  44.447   0.988
74124W        W46384  32.254   0.532  10.634
74125W        W46385  21.960  32.035  13.764
74126W        W46386   5.354  42.855   2.348
74127W        W46387  26.516  17.524  13.293
74128W        W46388  19.502  12.240  14.350
74129W        W46389  36.275  16.840   9.840
74130W        W46390  23.979  11.969   3.667
74131W        W46391  30.078   7.003   1.294
74132W        W46392  21.672  17.167  10.764
74133W        W46393   1.996  34.754  13.786
74134W        W46394  32.280   5.222  14.939
74135W        W46395  28.968  34.084  11.383
74136W        W46396  33.044  28.425   2.950
74137W        W46397   6.288  27.859  10.506
74138W        W46398  34.013  12.222  12.924
74139W        W46399  16.833   4.323  12.447
74140W        W46400  42.179  31.530  14.004
74141W        W46401  15.139  30.354  10.583
74142W        W46402  18.199  22.162  12.673
74143W        W46403  13.927   0.799  14.953
74144W        W46404   0.865  11.475  14.723
74145W        W46405  18.507  18.745  13.300
74146W        W46406  11.196  20.656  10.970
74147W        W46407  31.307  26.149  12.546
74148W        W46408   1.630  18.285   0.875
74149W        W46409  10.157  16.163   2.418
74150W        W46410   1.427  27.583  13.410
74151W        W46411  21.023  28.118  13.623
74152W        W46412  22.656  10.791   1.603
74153W        W46413  14.711  30.985   0.377
74154W        W46414  41.537  37.951  12.274
74155W        W46415  42.276  27.642   4.625
74156W        W46416  42.098  39.463  14.878
74157W        W46417  34.684   9.218   0.352
74158W        W46418  15.251   5.788   2.602
74159W        W46419   1.042  40.850  12.689
74160W        W46420  11.760  27.613  14.034
74161W        W46421  21.775  16.216  11.813
74162W        W46422  39.080  22.390   4.554
74163W        W46423  40.293  15.806   4.994
74164W        W46424   9.712  17.265   1.230
74165W        W46425  18.694   7.907   2.908
74166W        W46426  32.896   5.709   0.428
74167W        W46427  13.923   2.896  14.928
74168W        W46428  41.779   9.879   3.669
74169W        W46429  24.489   0.176   3.198
74170W        W46430  27.149   3.905   2.607
74171W        W46431  38.530  28.104  13.911
74172W        W46432  36.192  42.234   1.293
74173W        W46433  13.155   8.471   4.823
74174W        W46434  33.762   6.579  13.175
74175W        W46435  38.087   5.658   2.972
74176W        W46436   7.649  36.921  12.782
74177W        W46437  32.935   4.321   0.783
74178W        W46438  20.965   9.735   3.673
74179W        W46439  21.128  40.696  14.478
74180W        W46440  20.287  20.053   2.675
74181W        W46441  15.400  23.126   3.954
74182W        W46442   1.363  13.603   2.278
74183W        W46443  37.046  11.159   2.737
74184W        W46444  38.466   7.686  12.249
74185W        W46445  42.456   9.141   2.753
74186W        W46446  27.689  35.233   4.659
74187W        W46447  31.526  35.120   1.178
74188W        W46448  30.347  16.230   1.268
74189W        W46449   8.098  36.004   2.635
74190W        W46450  11.045  33.797  14.831
74191W        W46451  33.046  23.425  12.399
74192W        W46452   2.722   7.703  12.481
74193W        W46453  35.549  15.623   3.886
74194W        W46454  30.500   6.129   2.580
74195W        W46455  12.551   0.300  14.781
74196W        W46456  36.811  19.917  11.048
74197W        W46457   9.338  13.196   0.616
74198W        W46458  44.334   3.372   0.738
74199W        W46459  36.847   8.231  12.076
74200W        W46460  36.852  23.916   1.411
74201W        W46461  14.443   9.834  11.935
74202W        W46462  10.248  22.230  11.255
74203W        W46463   8.824  13.748   1.227
74204W        W46464  40.019  38.830   4.582
74205W        W46465  40.498  15.537   1.789
74206W        W46466  25.747   1.545   2.567
74207W        W46467  11.801  33.026  11.521
74208W        W46468   5.837  11.591  14.891
74209W        W46469  27.893  28.724   1.199
74210W        W46470  20.563  25.817   4.062
74211W        W46471  21.832  10.578   4.162
74212W        W46472  18.746  26.915  11.498
74213W        W46473  13.986  29.981   0.729
74214W        W46474  28.397   4.929   1.217
74215W        W46475  41.733  31.976   3.752
74216W        W46476  24.520   5.327   1.846
74217W        W46477  33.966  44.080  14.869
74218W        W46478  24.117   7.953  14.348
74219W        W46479   4.001  36.018   2.546
74220W        W46480   3.498  24.137   3.436
74221W        W46481  42.489  33.111  14.656
74222W        W46482  26.476  21.165  13.367
74223W        W46483  14.193  21.868   3.272
74224W        W46484  34.591  35.369   1.913
74225W        W46485  37.794   7.671  11.069
74226W        W46486   6.345   4.827   4.184
74227W        W46487  29.519  26.578  11.203
74228W        W46488  39.819  39.853  13.947
74229W        W46489  35.703   9.943  14.904
74230W        W46490  34.074  31.652  10.626
74231W        W46491   7.147  37.227   5.033
74232W        W46492  25.256  25.599   0.354
74233W        W46493  15.734  13.374  14.526
74234W        W46494  39.058  21.568   4.169
74235W        W46495  42.079  14.990   1.432
74236W        W46496  44.251  20.755  13.536
74237W        W46497   6.295  28.093  12.887
74238W        W46498  25.357  43.110   4.646
74239W        W46499  31.371  21.008   1.351
74240W        W46500  30.494  44.869  12.714
74241W        W46501  39.939  28.466   3.646
74242W        W46502   6.683   7.751  13.364
74243W        W46503  40.592   0.861  14.316
74244W        W46504  12.817  39.011   0.780
74245W        W46505  29.689  10.243   4.611
74246W        W46506  39.512  26.969   2.613
74247W        W46507  26.217  22.165   0.757
74248W        W46508  25.575  15.786   1.057
74249W        W46509  16.920  36.546   0.700
74250W        W46510   4.952  15.233   2.236
74251W        W46511  37.298  43.980   2.031
74252W        W46512  12.686  11.443   4.241
74253W        W46513  15.592   5.822   4.108
74254W        W46514  31.036   4.905  11.871
74255W        W46515  44.965  26.086  11.575
74256W        W46516  17.272  20.345   1.870
74257W        W46517  10.975   9.380   2.749
74258W        W46518  32.672   7.910   1.862
74259W        W46519  25.615   7.408   3.671
74260W        W46520  11.598  30.216  11.566
74261W        W46521  31.403   2.114   5.021
74262W        W46522  18.198  40.053  11.995
74263W        W46523  25.988  13.203  12.386
74264W        W46524   0.997   9.124  11.983
74265W        W46525  22.267  13.399   2.732
74266W        W46526  41.670  44.743   2.828
74267W        W46527  43.009  19.764  13.399
74268W        W46528  24.661  22.042  14.212
74269W        W46529   3.214  26.568  14.429
74270W        W46530  21.773  17.755  12.948
74271W        W46531   8.352  13.239   2.788
74272W        W46532  40.867  40.102  12.110
74273W        W46533  23.475  26.353  11.199
74274W        W46534  13.784  30.980   1.760
74275W        W46535  12.324  25.709  10.737
74276W        W46536  35.797  18.690  10.543
74277W        W46537  35.253  11.761  12.091
74278W        W46538  28.917  43.444   1.788
74279W        W46539  28.474  40.800  14.989
74280W        W46540  33.904  39.362  14.479
74281W        W46541  24.547  16.203   3.974
74282W        W46542  13.260  30.552   5.779
74283W        W46543  32.452  38.552   4.322
74284W        W46544  42.085  20.539   0.154
74285W        W46545  38.930  30.006  10.271
74286W        W46546  13.251  35.584   2.949
74287W        W46547  32.702  44.796  12.488
74288W        W46548  18.445  42.953   4.373
74289W        W46549  24.765   2.794   4.597
74290W        W46550  23.716  36.395   0.927
74291W        W46551  16.048  20.131  11.580
74292W        W46552   7.395  32.568  14.938
74293W        W46553  43.374  22.066   0.766
74294W        W46554   6.963  41.936  13.421
74295W        W46555  36.494  30.431   0.409
74296W        W46556  17.674  42.442  11.578
74297W        W46557  12.719  40.617  11.566
74298W        W46558  36.845   0.760   1.099
74299W        W46559  34.369  27.854   3.893
74300W        W46560   2.213  44.857  10.726
74301W        W46561  43.968  29.281  13.408
74302W        W46562  12.181   3.519  14.945
74303W        W46563  42.903  14.351   1.301
74304W        W46564  25.160  14.856   2.752
74305W        W46565  12.488  33.979  11.828
74306W        W46566   8.384  42.427  14.951
74307W        W46567  19.594   1.324   1.844
74308W        W46568  25.761  39.892   2.291
74309W        W46569  21.459   0.910  14.328
74310W        W46570  28.589  18.148   4.019
74311W        W46571  33.858  10.235   3.143
74312W        W46572   3.612  22.562  10.300
74313W        W46573   1.777  27.880   4.449
74314W        W46574  31.960   9.814   3.861
74315W        W46575  34.418  22.958   1.299
74316W        W46576  22.033   2.969  13.363
74317W        W46577  39.979   3.838   4.083
74318W        W46578  21.525  44.889  14.583
74319W        W46579  28.694  11.107  11.931
74320W        W46580  33.357  14.917   0.488
74321W        W46581  20.241  40.328   0.882
74322W        W46582  27.646  42.816   3.833
74323W        W46583  17.781  10.059   0.891
74324W        W46584  41.336  29.436   0.808
74325W        W46585  17.815  16.773  12.114
74326W        W46586  11.902   9.298   2.859
74327W        W46587  14.859  40.849  11.997
74328W        W46588  22.872  41.954   2.216
74329W        W46589  16.110   7.519   3.718
74330W        W46590  38.508  43.204  14.329
74331W        W46591  20.125  23.892   1.307
74332W        W46592  28.882  14.066  11.616
74333W        W46593   2.173  32.973   4.093
74334W        W46594  44.913  36.042  11.628
74335W        W46595   0.440  38.817   1.265
74336W        W46596  34.755  19.039   4.097
74337W        W46597  28.999  12.818   4.803
74338W        W46598  40.533  40.422  13.827
74339W        W46599  20.303   3.736  11.674
74340W        W46600  34.905  26.918  13.362
74341W        W46601  39.458  39.921  10.418
74342W        W46602  27.368  37.366  12.760
74343W        W46603  38.786  28.591  11.995
74344W        W46604  38.098   5.085  13.033
74345W        W46605  43.227   2.521  14.569
74346W        W46606  41.080  40.317  14.876
74347W        W46607  18.250  10.146   4.627
74348W        W46608  10.531  39.872  11.152
74349W        W46609  17.937  25.077  11.659
74350W        W46610  10.927  38.530  11.143
74351W        W46611   2.672   4.930  11.566
74352W        W46612  30.024  21.080  11.615
74353W        W46613  21.307  13.347  10.980
74354W        W46614  31.557  32.585  14.667
74355W        W46615  24.921  14.262  14.816
74356W        W46616   6.855  25.208   2.361
74357W        W46617  28.059  19.388   4.829
74358W        W46618  35.292  36.601  14.331
74359W        W46619  22.604  17.305   1.243
74360W        W46620  25.523  30.276  13.217
74361W        W46621  17.469   5.079  14.526
74362W        W46622  10.226  27.919  14.011
74363W        W46623  37.009  15.462  11.976
74364W        W46624  33.039  35.394   4.233
74365W        W46625  28.098   4.334  12.098
74366W        W46626  25.083  39.917  10.622
74367W        W46627  10.892  29.008   4.338
74368W        W46628  14.117  36.544   3.379
74369W        W46629   9.384  12.288  14.276
74370W        W46630  22.675   1.849   1.188
74371W        W46631  24.158  43.511  13.786
74372W        W46632  39.234  22.788   0.341
74373W        W46633  42.577  21.026  12.641
74374W        W46634  11.607  41.395   4.496
74375W        W46635  39.996  26.694  11.981
74376W        W46636  12.085  38.205  12.414
74377W        W46637  17.447  30.123   0.772
74378W        W46638  39.011  36.368   3.737
74379W        W46639  21.531   6.251   2.761
74380W        W46640  19.298  39.946   0.820
74381W        W46641  40.770  27.455  14.795
74382W        W46642  19.131  20.245  13.959
74383W        W46643  29.412  35.898   4.361
74384W        W46644   3.703  33.049  14.222
74385W        W46645  10.965  37.487   3.768
74386W        W46646  10.262  35.321  13.745
74387W        W46647  38.783  37.398  14.106
74388W        W46648  11.297   8.308   0.495
74389W        W46649  21.671  15.172   3.328
74390W        W46650  13.701  31.085  10.592
74391W        W46651  28.187   4.329  13.141
74392W        W46652  42.998  41.874  13.583
74393W        W46653  41.742  44.604   1.303
74394W        W46654  24.275  42.877   2.751
74395W        W46655  12.185  13.182  10.912
74396W        W46656  12.425  36.570  12.992
74397W        W46657  34.887  29.221  10.905
74398W        W46658  14.760  44.561  13.590
74399W        W46659  22.856  39.439   1.737
74400W        W46660  27.724  33.094   1.143
74401W        W46661   2.964  43.798   3.588
74402W        W46662  17.243  16.955   5.141
74403W        W46663  32.394  36.395   1.466
74404W        W46664  26.385  26.478   2.015
74405W        W46665  35.400   0.964   1.410
74406W        W46666  33.410  37.607  14.024
74407W        W46667  34.463  18.011   2.176
74408W        W46668  20.174  38.567   3.383
74409W        W46669  34.511   6.324  12.102
74410W        W46670   6.140  37.888  11.059
74411W        W46671  30.525  41.013   2.889
74412W        W46672   9.872   5.164  13.864
74413W        W46673  17.116  34.659   3.376
74414W        W46674  21.636  41.195   4.127
74415W        W46675  35.127  42.985  13.144
74416W        W46676  37.017  38.040  10.666
74417W        W46677   7.972  17.034   1.454
74418W        W46678  27.218   9.466   1.774
74419W        W46679  31.581  43.341   0.983
74420W        W46680  15.736   8.092   3.214
74421W        W46681  18.712  34.415   0.793
74422W        W46682   3.876   7.351  11.278
74423W        W46683   4.260  22.539   4.231
74424W        W46684  19.194   2.498   4.846
74425W        W46685  38.003  38.296   4.770
74426W        W46686  36.323  44.424  11.880
74427W        W46687   5.804  14.104   4.433
74428W        W46688  37.291  19.193   1.426
74429W        W46689  18.677  29.637   4.618
74430W        W46690  20.169   7.438  10.205
74431W        W46691   2.326  33.569   2.365
74432W        W46692   1.357  39.925   3.035
74433W        W46693   9.149  18.567  10.625
74434W        W46694   9.859  21.130  14.690
74435W        W46695  40.884  29.389  12.802
74436W        W46696  20.520  28.757   4.351
74437W        W46697  31.637  22.510  13.897
74438W        W46698  39.029  12.569  10.744
74439W        W46699   7.450   3.699  11.508
74440W        W46700   6.920  44.268   4.354
74441W        W46701  14.765  36.882  11.636
74442W        W46702   8.833  36.861  12.317
74443W        W46703  33.422  29.764   1.333
74444W        W46704  35.548  31.033   0.160
74445W        W46705  29.093  17.688  11.212
74446W        W46706  13.867  10.749  11.916
74447W        W46707   6.096  14.804  10.810
74448W        W46708  27.505   1.898   1.720
74449W        W46709  38.012  36.277  14.482
74450W        W46710  32.643  17.122  13.986
74451W        W46711   3.773  12.857  13.830
74452W        W46712  21.152  22.815   1.892
74453W        W46713  11.702   2.004  10.039
74454W        W46714  12.388  34.537  12.896
74455W        W46715  38.768   0.865  12.947
74456W        W46716  13.763  27.412   3.325
74457W        W46717   7.295  44.350  13.702
74458W        W46718  15.223  15.156  14.010
74459W        W46719  26.706  12.254   4.573
74460W        W46720  36.873   3.350   0.949
74461W        W46721  35.243  14.830   3.476
74462W        W46722  31.958   5.998   3.732
74463W        W46723  38.590  44.679   4.305
74464W        W46724  18.315  32.811  13.520
74465W        W46725   9.778  12.859  13.492
74466W        W46726  31.861  31.447   4.584
74467W        W46727   4.725  41.459  10.560
74468W        W46728  27.257   3.253  14.430
74469W        W46729  21.026  35.000  12.824
74470W        W46730   6.206  21.544   1.114
74471W        W46731  19.449   4.918   2.539
74472W        W46732  12.142  44.947  14.397
74473W        W46733  16.967  25.000  10.683
74474W        W46734   8.884   2.711   1.365
74475W        W46735  44.410  35.863  11.025
74476W        W46736  43.935  26.800   3.206
74477W        W46737   7.661  23.101  12.404
74478W        W46738  28.018  34.679  10.591
74479W        W46739   0.013  29.641   3.266
74480W        W46740  19.577  17.513  11.498
74481W        W46741  34.079  10.943   2.848
74482W        W46742  26.108  40.949  14.029
74483W        W46743   8.335  26.723   3.476
74484W        W46744  23.568  34.923  13.914
74485W        W46745  44.267  15.676  11.942
74486W        W46746  34.406  40.650   2.843
74487W        W46747   9.750   6.438   3.121
74488W        W46748   4.827  15.065   3.142
74489W        W46749  39.386  34.865   3.262
74490W        W46750  15.597  14.202  13.871
74491W        W46751  21.904  14.489   4.907
74492W        W46752  25.487  29.864  12.904
74493W        W46753   9.291   2.928   0.355
74494W        W46754   2.371  20.281   3.520
74495W        W46755  11.806  32.125   2.728
74496W        W46756  19.669  23.407   3.861
74497W        W46757  21.464   2.447   1.325
74498W        W46758  42.834   6.727   1.416
74499W        W46759  27.891   9.103   0.377
74500W        W46760   6.874   3.323   2.887
74501W        W46761   5.805  15.390  12.379
74502W        W46762  21.796  29.382  10.597
74503W        W46763  26.936  14.767  14.527
74504W        W46764   8.718  16.589   2.745
74505W        W46765  36.324   8.795  13.966
74506W        W46766  12.034  17.996  13.009
74507W        W46767  29.601  27.666  10.696
74508W        W46768   9.558  15.736  14.846
74509W        W46769   5.249  32.666  13.684
74510W        W46770   1.496  29.159   0.276
74511W        W46771  29.388  21.587   4.273
74512W        W46772  11.273  13.208   0.429
74513W        W46773  28.119  44.248   3.173
74514W        W46774  39.378   6.131   0.247
74515W        W46775   6.129  44.369   4.105
74516W        W46776  32.563  42.357  13.453
74517W        W46777  22.757   4.914   3.089
74518W        W46778  17.173  21.148   0.354
74519W        W46779  44.896  43.833   4.201
74520W        W46780  28.449  11.784   3.373
74521W        W46781   5.300  40.815   4.340
74522W        W46782  41.716  27.625   2.206
74523W        W46783  29.637  23.649  10.417
74524W        W46784  13.617  37.557  10.665
74525W        W46785  37.382  39.825   3.270
74526W        W46786  42.341   5.307   4.847
74527W        W46787  13.292  43.770  12.517
74528W        W46788  12.072  26.468   1.488
74529W        W46789   8.434   6.705  11.669
74530W        W46790   9.821  30.047  13.961
74531W        W46791  14.598   2.713  12.057
74532W        W46792  31.110  25.552   3.868
74533W        W46793   6.639  36.465  14.707
74534W        W46794   0.990  31.600   3.939
74535W        W46795  35.377  40.011  11.144
74536W        W46796  40.014  22.160  12.125
74537W        W46797  30.682  40.790   3.391
74538W        W46798  11.833  40.395   4.198
74539W        W46799  38.509   7.127  11.190
74540W        W46800  24.517  10.731  13.743
74541W        W46801  31.843  21.707  13.311
74542W        W46802   8.340  30.382  14.526
74543W        W46803   2.364  15.703   2.429
74544W        W46804  29.479  23.202  11.462
74545W        W46805  18.268  22.276   0.298
74546W        W46806  43.893  25.654  12.005
74547W        W46807  12.414  34.345  14.425
74548W        W46808  24.545  41.696  10.719
74549W        W46809   4.773  27.606   4.612
74550W        W46810  14.828  43.057   2.154
74551W        W46811  22.560  26.053   1.773
74552W        W46812   4.908  34.034  13.508
74553W        W46813   9.694  24.173  12.174
74554W        W46814  12.111   7.276   0.093
74555W        W46815  26.173   1.513   4.682
74556W        W46816  16.663  34.399  11.648
74557W        W46817  18.488  32.175  11.603
74558W        W46818  16.639  19.665   1.928
74559W        W46819  40.280  27.165  12.504
74560W        W46820  33.599  19.733   2.720
74561W        W46821  34.327  31.775   3.604
74562W        W46822  26.635  14.577  14.146
74563W        W46823  17.641  21.636  12.837
74564W        W46824   0.111  14.854   4.164
74565W        W46825  33.001  20.104  13.525
74566W        W46826  18.509   5.646  11.260
74567W        W46827  36.001  18.954  14.207
74568W        W46828  12.708  21.331  12.046
74569W        W46829  10.836  39.431   3.772
74570W        W46830   8.469  39.393   1.411
74571W        W46831  19.964  15.225   2.250
74572W        W46832  17.362  19.222   1.776
74573W        W46833  34.959  21.280   5.020
74574W        W46834  37.473  24.952   0.907
74575W        W46835  37.042  32.628   2.408
74576W        W46836   7.854   0.412  13.404
74577W        W46837  29.044  34.984   0.877
74578W        W46838  26.213  44.236   1.439
74579W        W46839  35.886   7.695   3.775
74580W        W46840  43.561  23.556   4.477
74581W        W46841  18.640   7.819  10.536
74582W        W46842  29.156  15.602  12.917
74583W        W46843  18.638  43.771  14.030
74584W        W46844  39.361  16.788   4.225
74585W        W46845  31.689  20.052   4.789
74586W        W46846  28.118  28.373  14.361
74587W        W46847  24.605  39.918   5.556
74588W        W46848  37.833   8.169  12.097
74589W        W46849  21.058  37.567  14.865
74590W        W46850  29.649   3.141   3.695
74591W        W46851  22.802  16.134  13.827
74592W        W46852   3.668  18.982   2.776
74593W        W46853  34.539  44.085   0.951
74594W        W46854  42.805  16.583  13.771
74595W        W46855  27.964  40.329   2.342
74596W        W46856  24.518  43.405   4.042
74597W        W46857   7.436  39.500  10.716
74598W        W46858   3.274  16.084   0.379
74599W        W46859  26.721  37.316   0.988
74600W        W46860   6.834  19.771   1.347
74601W        W46861  42.274  34.019   1.795
74602W        W46862   9.474  44.778   1.751
74603W        W46863  14.338  33.480   0.889
74604W        W46864  12.348  27.615   2.119
74605W        W46865  17.321  35.961   3.675
74606W        W46866   1.955  43.081  11.417
74607W        W46867  20.134  14.638  12.964
74608W        W46868  40.822  13.372   2.329
74609W        W46869  22.629  20.218   3.851
74610W        W46870  13.566   9.593  14.542
74611W        W46871  25.387  31.870  12.430
74612W        W46872  42.002   7.402  12.358
74613W        W46873  40.700  20.256  13.040
74614W        W46874   9.710   7.360   1.217
74615W        W46875  17.072  12.658   1.745
74616W        W46876  11.231   5.532   0.513
74617W        W46877   9.767  25.602   3.743
74618W        W46878  27.463   8.210  11.120
74619W        W46879  33.489   6.284  14.452
74620W        W46880  39.508  15.600   5.015
74621W        W46881  13.672  29.529  10.973
74622W        W46882  37.065  38.304   4.125
74623W        W46883  33.678   0.678   1.248
74624W        W46884  44.004  27.534  14.430
74625W        W46885  39.044  21.062   4.098
74626W        W46886  17.436  25.731   4.444
74627W        W46887  31.856   3.269   2.181
74628W        W46888   8.469   3.503   4.306
74629W        W46889  27.786   4.158   3.788
74630W        W46890  22.598  38.057   4.060
74631W        W46891  14.306  36.125   3.641
74632W        W46892  28.622  27.199  14.721
74633W        W46893  18.583   4.763  13.459
74634W        W46894  25.779   3.703   4.615
74635W        W46895  11.045  43.483  12.956
74636W        W46896   2.879  25.296   0.407
74637W        W46897  23.451  42.454  12.573
74638W        W46898   8.094  22.006  12.916
74639W        W46899  18.773  27.978  10.380
74640W        W46900  25.278  21.147   2.758
74641W        W46901  15.590  14.715   1.814
74642W        W46902   0.829   0.399   0.526
74643W        W46903  43.805   1.804  14.248
74644W        W46904  23.159  24.445   2.436
74645W        W46905  42.309  24.491   1.818
74646W        W46906  27.467   2.411   2.968
74647W        W46907   9.639  40.452   1.368
74648W        W46908  15.627  38.042  10.608
74649W        W46909  15.828   9.699   3.938
74650W        W46910  42.934   7.716   4.504
74651W        W46911   6.284   9.142  10.746
74652W        W46912   7.196   3.436  11.073
74653W        W46913  21.869  29.084   0.408
74654W        W46914  14.203  33.048  13.798
74655W        W46915   4.521  28.395  14.512
74656W        W46916  28.089  42.777   2.010
74657W        W46917  28.560  24.146   2.126
74658W        W46918  13.642   1.665  12.556
74659W        W46919  39.366  43.278   2.680
74660W        W46920   8.249  20.725   0.511
74661W        W46921  21.877  37.246  14.855
74662W        W46922  26.939  31.499  14.678
74663W        W46923  37.436   2.351   2.322
74664W        W46924  13.722   0.753   0.993
74665W        W46925  26.028  39.775   4.150
74666W        W46926  11.684  40.352  14.810
74667W        W46927  34.042  18.930  13.347
74668W        W46928  31.435   2.905   0.648
74669W        W46929  25.794  15.116  12.499
74670W        W46930  43.809   1.999   4.939
74671W        W46931  43.558  18.695   3.660
74672W        W46932   5.143  37.010  11.735
74673W        W46933  32.506   0.039  13.768
74674W        W46934  41.509  33.533   4.205
74675W        W46935  29.399  43.480   3.302
74676W        W46936   5.947   3.408  14.987
74677W        W46937  21.755  32.952   1.685
74678W        W46938  33.408   9.324  11.295
74679W        W46939   0.147  20.311   1.877
74680W        W46940  24.448   6.668   0.257
74681W        W46941   5.882  22.489   1.762
74682W        W46942  33.516   8.188   4.629
74683W        W46943  33.965  39.336  11.510
74684W        W46944  42.468   7.987  13.818
74685W        W46945  34.727  43.258  12.973
74686W        W46946  40.434  29.527  12.564
74687W        W46947  30.109   7.878   0.465
74688W        W46948  42.242  28.769   0.691
74689W        W46949  22.457  33.448   0.165
74690W        W46950  11.787   1.300   0.321
74691W        W46951   8.843   3.239   2.216
74692W        W46952  21.592  19.118  11.202
74693W        W46953  32.806  26.654  11.052
74694W        W46954  35.930   9.115  13.074
74695W        W46955   7.828  39.513  14.997
74696W        W46956   2.775  26.573  13.977
74697W        W46957  43.332  13.876   4.654
74698W        W46958  41.893  18.524   3.138
74699W        W46959   5.256  10.309  12.703
74700W        W46960  43.188  21.707  13.822
74701W        W46961   7.349  38.400  10.608
74702W        W46962   0.164   5.443  12.025
74703W        W46963  44.965  31.508   0.702
74704W        W46964  29.675  36.775  12.433
74705W        W46965  23.997  16.332  13.780
74706W        W46966  20.802  38.017  14.734
74707W        W46967  11.042   5.247   4.123
74708W        W46968  18.575   3.721   2.236
74709W        W46969   6.729  20.706  11.619
74710W        W46970  41.869  15.739  10.785
74711W        W46971   1.778  17.289  14.611
74712W        W46972   0.859  37.179   0.241
74713W        W46973  12.589  32.770   4.877
74714W        W46974   6.770   6.493  14.047
74715W        W46975  17.589  41.314  12.423
74716W        W46976  37.646  14.668   4.198
74717W        W46977  15.819  10.724   1.727
74718W        W46978  44.453   1.777   1.502
74719W        W46979  20.463   5.055  12.402
74720W        W46980  41.869  43.787  14.394
74721W        W46981  31.139  40.064   3.672
74722W        W46982   6.740  39.442  11.716
74723W        W46983  27.023  40.945   1.833
74724W        W46984  33.799  11.074   0.409
74725W        W46985   8.673  17.163   3.588
74726W        W46986  37.554  20.059   0.219
74727W        W46987  33.904  27.999  11.050
74728W        W46988  36.107   0.545   0.452
74729W        W46989  30.157  35.322  12.741
74730W        W46990   3.794  17.382   4.674
74731W        W46991  29.027  30.624  14.609
74732W        W46992  40.535  43.223   0.751
74733W        W46993  42.090  35.983  11.632
74734W        W46994   7.430  25.107   0.684
74735W        W46995  20.777  30.624   0.183
74736W        W46996   8.807  39.322   3.238
74737W        W46997  40.779  15.761  13.468
74738W        W46998  35.336  35.467   4.566
74739W        W46999   0.735  29.589  10.637
74740W        W47000  29.723  23.406  10.884
74741W        W47001  13.655   9.292  12.705
74742W        W47002  22.219  26.752  11.476
74743W        W47003  32.423  14.530   2.417
74744W        W47004  11.193  15.639   4.588
74745W        W47005  19.758  11.787   0.124
74746W        W47006  12.397  20.054   2.264
74747W        W47007  16.954  40.865  13.495
74748W        W47008  31.119  32.078   5.539
74749W        W47009   7.847  28.051  10.499
74750W        W47010   3.363  29.498   0.397
74751W        W47011  41.168  12.340   2.738
74752W        W47012  12.909  34.584   4.592
74753W        W47013  23.963  36.428  10.176
74754W        W47014  38.507  30.879   4.563
74755W        W47015  32.529  29.030  13.042
74756W        W47016  31.194  10.282  10.233
74757W        W47017  30.166  43.788   1.469
74758W        W47018  19.027  15.270  14.408
74759W        W47019  42.479  25.050   4.582
74760W        W47020  38.779  21.764   4.561
74761W        W47021  26.158  17.003  14.845
74762W        W47022  31.972  12.647  12.551
74763W        W47023  26.235   0.313  10.649
74764W        W47024  11.754  34.870   4.537
74765W        W47025  10.424   3.514   4.763
74766W        W47026  13.210   2.879  11.798
74767W        W47027   8.839  13.208   0.914
74768W        W47028  12.020   9.364  13.842
74769W        W47029   0.392  44.728  14.869
74770W        W47030   4.788   8.614  13.098
74771W        W47031   4.956  13.661  13.233
74772W        W47032  44.945  36.286   0.865
74773W        W47033   1.768  26.949  11.060
74774W        W47034  12.287  16.686   4.932
74775W        W47035  28.242  32.507   2.748
74776W        W47036  29.823  42.015  11.406
74777W        W47037  13.325  37.170   0.146
74778W        W47038  43.968  23.689  13.780
74779W        W47039   1.378  35.921  14.682
74780W        W47040  17.807  24.006  11.841
74781W        W47041  11.631  44.852  10.873
74782W        W47042   0.046   9.427  12.848
74783W        W47043  38.802  23.894  12.995
74784W        W47044  39.116  40.089  14.876
74785W        W47045   8.830  27.051  11.449
74786W        W47046  11.762  23.312  12.864
74787W        W47047  12.126  30.673  13.617
74788W        W47048   0.427   4.694  12.512
74789W        W47049   1.556  41.164   1.640
74790W        W47050   7.956   2.963  11.614
74791W        W47051  25.917   2.765  12.058
74792W        W47052   8.978  33.538  11.568
74793W        W47053  39.848  25.357   2.848
74794W        W47054  36.386  11.156   1.794
74795W        W47055   3.506  34.410  11.834
74796W        W47056  15.491   2.665  14.571
74797W        W47057  18.572   1.657   1.590
74798W        W47058  38.361  23.788  11.923
74799W        W47059  39.569  32.385   0.893
74800W        W47060  39.706  23.605   0.918
74801W        W47061  13.590   9.822   2.616
74802W        W47062  20.140  26.972  12.566
74803W        W47063  44.232   6.278  12.463
74804W        W47064  26.026  43.604   3.099
74805W        W47065  23.869  31.563  12.357
74806W        W47066  27.157  16.390   0.037
74807W        W47067  30.656  27.866  14.826
74808W        W47068  39.224  23.650   2.330
74809W        W47069   2.730   5.791  13.801
74810W        W47070  31.543  20.052  14.362
74811W        W47071  14.205  37.711   2.827
74812W        W47072  12.812  16.560   0.891
74813W        W47073  18.922  23.486  13.422
74814W        W47074  20.869   1.994   3.797
74815W        W47075  40.437  22.960   2.250
74816W        W47076  35.422  16.095   3.678
74817W        W47077  27.186  41.828   0.047
74818W        W47078  23.997  24.183  12.828
74819W        W47079  42.017  12.114  14.441
74820W        W47080   6.717  21.127   4.624
74821W        W47081  19.186  30.859  14.245
74822W        W47082  34.009   1.291   4.486
74823W        W47083  36.987   1.567   0.825
74824W        W47084  11.552  33.845  13.918
74825W        W47085   1.494  31.404   2.045
74826W        W47086  10.895  18.724  13.927
74827W        W47087  36.094  29.969   3.627
74828W        W47088  15.533  36.390   2.515
74829W        W47089  15.276  40.602   2.338
74830W        W47090  11.656  30.571   0.968
74831W        W47091   6.881  44.976  14.732
74832W        W47092  40.024  23.195  12.097
74833W        W47093  42.998  29.410  13.267
74834W        W47094  14.144   9.017   1.327
74835W        W47095   7.475  34.349   1.495
74836W        W47096  13.551   7.822   3.767
74837W        W47097  32.053  24.128   2.694
74838W        W47098  13.419  41.774   2.875
74839W        W47099  18.799   9.483  12.034
74840W        W47100  16.877  24.180   1.044
74841W        W47101  13.302  16.775   2.801
74842W        W47102  33.542  23.947   2.826
74843W        W47103  25.612   7.376   1.688
74844W        W47104  35.153  44.448  13.776
74845W        W47105  38.478  15.101   1.325
74846W        W47106  19.509  40.273  14.487
74847W        W47107  21.443  21.634  13.292
74848W        W47108  31.191   6.502   1.373
74849W        W47109  15.325  28.179  11.515
74850W        W47110  29.956  12.891  11.619
74851W        W47111  43.902  33.889   2.683
74852W        W47112  21.817  21.529  12.473
74853W        W47113  18.685   1.790   2.555
74854W        W47114  18.104  37.345   2.044
74855W        W47115  28.647  39.471  13.148
74856W        W47116  26.983  17.017  10.181
74857W        W47117  44.913  18.714  14.746
74858W        W47118  38.601  44.296   0.666
74859W        W47119  35.664   0.218  10.955
74860W        W47120  43.941  16.439  14.133
74861W        W47121   5.812   7.002  10.465
74862W        W47122  18.888  26.281   4.641
74863W        W47123   1.324  19.892  12.375
74864W        W47124  34.681  27.521   2.655
74865W        W47125  41.474  23.493   1.902
74866W        W47126  15.806  14.357   1.242
74867W        W47127  36.066   5.203   3.696
74868W        W47128  32.776  13.276  12.752
74869W        W47129   2.840   1.921   2.350
74870W        W47130  33.442  33.336   3.763
74871W        W47131  15.568  21.447   0.905
74872W        W47132  25.452  30.240   3.485
74873W        W47133   7.361  20.998  13.876
74874W        W47134  22.770   0.502   2.837
74875W        W47135  39.011  21.661   2.290
74876W        W47136   0.719  14.121   2.679
74877W        W47137   3.509  14.625  12.445
74878W        W47138   0.386  42.164  10.705
74879W        W47139  27.071   9.168  14.973
74880W        W47140  10.691   9.092   1.837
74881W        W47141  37.577   8.272   1.791
74882W        W47142  23.647   2.732   0.185
74883W        W47143  33.169  15.644   2.744
74884W        W47144  28.195  21.956  12.646
74885W        W47145  36.767  26.992  12.402
74886W        W47146  22.906  13.770  14.313
74887W        W47147   3.011  33.674   2.683
74888W        W47148  30.539  41.358   4.646
74889W        W47149  34.039   4.417  12.851
74890W        W47150  37.614   8.123   4.582
74891W        W47151   5.676  44.930   0.920
74892W        W47152  13.246  32.129   2.479
74893W        W47153  25.042  12.400  11.130
74894W        W47154   7.278  30.179  13.048
74895W        W47155  33.850  19.666  11.880
74896W        W47156  22.207  26.612  13.874
74897W        W47157  15.571  25.625   2.427
74898W        W47158  32.286   2.634  13.876
74899W        W47159  17.157  41.608  12.375
74900W        W47160  24.187  44.797  11.814
74901W        W47161  28.997  26.013   1.866
74902W        W47162  36.545  28.233   0.036
74903W        W47163  40.393  29.199   2.958
74904W        W47164   7.924  14.303  14.851
74905W        W47165  32.404  30.452   3.107
74906W        W47166  26.442   2.692   0.331
74907W        W47167  33.306  35.504  13.578
74908W        W47168  14.508  18.522  10.643
74909W        W47169  19.061  23.276   3.298
74910W        W47170   0.373  16.054   1.726
74911W        W47171  20.281  33.509  13.337
74912W        W47172   5.571  39.595   0.866
74913W        W47173  28.592  10.689   4.122
74914W        W47174  37.968  33.495  10.795
74915W        W47175  34.437   6.834   3.689
74916W        W47176  14.837  35.898  12.230
74917W        W47177  41.243   2.826   3.594
74918W        W47178  37.275  24.606  11.185
74919W        W47179  15.127  12.807   0.110
74920W        W47180  25.761   9.129   1.821
74921W        W47181  23.728  32.645   3.182
74922W        W47182   5.674  12.030  14.572
74923W        W47183  14.389  13.596   4.971
74924W        W47184  42.214  25.394   3.249
74925W        W47185  21.869  39.901  11.541
74926W        W47186   8.191  20.824  12.640
74927W        W47187   3.780  13.326   0.740
74928W        W47188   3.270  27.064   3.750
74929W        W47189   6.907  26.118  10.705
74930W        W47190  21.602  11.883   1.739
74931W        W47191  14.057  43.936  10.604
74932W        W47192   4.762  29.182   4.873
74933W        W47193   4.370  29.423  14.589
74934W        W47194   6.799  37.923  13.870
74935W        W47195  43.729   1.179  12.144
74936W        W47196  39.328  14.257   4.590
74937W        W47197  37.565  12.883   0.869
74938W        W47198  30.007  14.342  13.047
74939W        W47199  41.893   5.212  12.019
74940W        W47200  31.899   1.399   3.862
74941W        W47201   4.846   3.174   4.593
74942W        W47202  29.110   5.654  12.492
74943W        W47203   9.450  35.791  10.122
74944W        W47204  30.189  41.014  11.545
74945W        W47205  17.136  17.592   3.873
74946W        W47206  41.928  24.999   4.192
74947W        W47207  11.182  38.922  13.891
74948W        W47208  12.634  39.981   3.764
74949W        W47209  17.938  43.608   4.549
74950W        W47210  32.043  30.995  10.742
74951W        W47211   6.250  24.746   3.438
74952W        W47212  35.278  10.204   4.655
74953W        W47213  27.475  20.651  11.494
74954W        W47214  24.534  36.663  11.500
74955W        W47215  37.618  24.498   4.103
74956W        W47216  38.004  27.359   4.221
74957W        W47217   8.066  30.119   3.789
74958W        W47218  31.425  33.919   4.876
74959W        W47219  37.500  11.219  12.450
74960W        W47220  25.212  39.020   0.772
74961W        W47221  32.065  16.985   3.834
74962W        W47222  36.618   6.468   3.321
74963W        W47223  24.108  43.466  12.809
74964W        W47224  16.748  22.737  11.085
74965W        W47225   3.184  33.465   3.181
74966W        W47226  33.301  39.711   3.578
74967W        W47227  23.509   0.894   1.420
74968W        W47228  41.931   4.326   0.594
74969W        W47229  29.643  10.201   3.740
74970W        W47230   1.602  30.412   0.342
74971W        W47231  26.097   3.476  12.863
74972W        W47232  43.016  13.612   0.784
74973W        W47233  31.898  11.385   2.248
74974W        W47234  22.709  14.823  13.413
74975W        W47235  22.423  24.082   1.300
74976W        W47236  32.469  42.423  11.144
74977W        W47237  11.154  39.992   2.242
74978W        W47238  38.270  32.103   1.699
74979W        W47239  16.763  32.072  11.658
74980W        W47240   9.162  29.565   3.892
74981W        W47241  13.615  26.596   3.652
74982W        W47242  11.790  28.001   4.474
74983W        W47243  14.775  31.121  10.466
74984W        W47244   3.949  34.905  12.244
74985W        W47245  33.104  41.486   0.344
74986W        W47246  33.421  19.764  14.880
74987W        W47247   9.244   8.112   1.727
74988W        W47248  25.470  22.274  13.903
74989W        W47249  24.138  14.876   2.854
74990W        W47250  15.621  33.808  11.914
74991W        W47251  42.285  31.908  10.816
74992W        W47252  32.154  15.722  11.163
74993W        W47253   6.718  29.197   1.972
74994W        W47254  23.094   9.857  11.641
74995W        W47255  25.243  24.130  12.515
74996W        W47256   6.345   2.951  14.042
74997W        W47257  20.901   0.189  11.080
74998W        W47258  31.566  36.929   1.662
74999W        W47259  15.108   7.593  14.078
75000W        W47260   0.470  43.522   2.755
75001W        W47261   3.959  10.581   0.661
75002W        W47262  44.469  42.869   2.233
75003W        W47263   2.820  40.263   3.431
75004W        W47264  27.614  14.396   1.843
75005W        W47265  42.940  13.980   0.403
75006W        W47266   4.317  10.144   1.906
75007W        W47267   6.283  18.905  12.997
75008W        W47268  30.382  29.190  13.003
75009W        W47269  21.482  23.659  13.550
75010W        W47270   5.795  15.284  10.599
75011W        W47271  40.223  24.491   1.696
75012W        W47272  26.986  30.684   1.297
75013W        W47273   6.775  22.642   1.560
75014W        W47274  38.393  29.568  14.416
75015W        W47275  21.633   7.211  11.512
75016W        W47276  15.084  16.280   1.513
75017W        W47277  17.022  13.181  13.862
75018W        W47278  29.082  30.330   5.313
75019W        W47279   5.625  23.994   0.867
75020W        W47280  31.724  32.706  13.569
75021W        W47281  19.106  15.875   4.621
75022W        W47282  16.595  22.762   1.246
75023W        W47283  11.820  19.003  14.331
75024W        W47284  22.121   8.442  12.535
75025W        W47285  43.568  18.615   1.180
75026W        W47286  35.540  43.213  10.387
75027W        W47287  28.586  21.147   0.374
75028W        W47288   1.436  42.970  10.719
75029W        W47289   9.152  20.913  13.491
75030W        W47290  20.265  17.520  10.712
75031W        W47291   5.878  44.318  12.185
75032W        W47292  23.560  44.458   2.594
75033W        W47293  21.009  18.360  14.822
75034W        W47294   9.850  15.415  11.131
75035W        W47295  29.632   9.553   2.422
75036W        W47296  10.146  22.483   3.519
75037W        W47297  15.253  10.799  11.075
75038W        W47298  23.530  11.347  13.107
75039W        W47299   9.624  41.825   4.511
75040W        W47300   8.435  14.094  12.140
75041W        W47301   0.875  41.962   1.296
75042W        W47302  19.705  21.084   4.567
75043W        W47303  33.951  11.986   2.180
75044W        W47304  20.226  16.793   0.255
75045W        W47305  30.115  37.598  10.699
75046W        W47306  42.556   4.834  11.659
75047W        W47307  26.202   5.507  14.813
75048W        W47308  29.491   3.353   1.736
75049W        W47309   9.607  32.915  11.344
75050W        W47310  24.974  10.555  12.504
75051W        W47311  15.763  26.940  14.839
75052W        W47312  18.103  42.519  14.061
75053W        W47313  26.585   8.899  11.130
75054W        W47314  12.761  15.836  14.782
75055W        W47315   3.791  32.390   3.279
75056W        W47316   9.751  28.172   0.750
75057W        W47317  28.035  42.828  10.015
75058W        W47318  37.308  28.995  13.045
75059W        W47319   2.652   5.540   4.927
75060W        W47320  24.976  39.677  13.431
75061W        W47321  39.060  27.945   2.791
75062W        W47322  38.120  23.094  14.025
75063W        W47323  35.400  13.140  11.182
75064W        W47324  42.202   3.107  12.367
75065W        W47325  20.292  40.270  10.322
75066W        W47326  15.508  44.391   1.911
75067W        W47327  16.249  10.723   3.121
75068W        W47328  22.259  26.314   0.311
75069W        W47329  26.028  34.856  12.126
75070W        W47330  17.627  34.656   0.750
75071W        W47331   7.138  14.657   1.935
75072W        W47332  17.635  22.469   2.248
75073W        W47333  36.380   2.524   1.337
75074W        W47334  15.466  29.198   2.435
75075W        W47335  39.003  44.761   4.648
75076W        W47336  12.631  21.504   4.160
75077W        W47337  15.848  29.620  11.544
75078W        W47338  28.141   3.039  13.641
75079W        W47339  22.715   0.198  11.157
75080W        W47340  24.913  23.088  12.909
75081W        W47341   4.947  28.892   3.232
75082W        W47342  34.405  16.695   3.162
75083W        W47343  38.049  27.243  13.916
75084W        W47344   8.397   4.706  14.916
75085W        W47345  32.148   9.200  13.564
75086W        W47346  19.343   6.330   4.199
75087W        W47347   1.553  25.457   3.297
75088W        W47348  39.296  39.321  13.473
75089W        W47349  31.354  28.486  10.486
75090W        W47350   2.070  39.257  13.233
75091W        W47351  36.882  36.860  14.381
75092W        W47352  35.297  38.449  14.868
75093W        W47353  22.996  26.068  14.918
75094W        W47354   8.443  16.632  14.863
75095W        W47355  17.742   1.380   4.481
75096W        W47356  35.646   0.094  12.518
75097W        W47357  21.753  22.677  13.719
75098W        W47358  35.090  11.309  14.843
75099W        W47359   8.823   5.163   1.379
75100W        W47360   4.993   4.512   3.214
75101W        W47361   4.821  15.697   4.554
75102W        W47362  22.749  30.641   3.141
75103W        W47363   9.508  23.803  11.272
75104W        W47364   1.901  31.124   1.958
75105W        W47365  15.838  40.998   0.793
75106W        W47366  16.491   8.093  11.554
75107W        W47367  30.703  39.789   3.658
75108W        W47368  33.373   8.836   0.471
75109W        W47369  44.886  43.846  11.698
75110W        W47370  18.943  19.530   2.749
75111W        W47371  31.504  24.821  13.308
75112W        W47372  16.427   2.617   4.116
75113W        W47373  40.836  35.796   2.211
75114W        W47374  19.729   5.852  13.290
75115W        W47375  32.565  34.167   3.429
75116W        W47376  31.563  40.546   1.317
75117W        W47377  28.114  30.897   4.149
75118W        W47378   7.126  29.414   3.200
75119W        W47379  33.477  29.567   0.383
75120W        W47380   8.747  32.096  13.103
75121W        W47381  30.516  41.058  11.155
75122W        W47382  38.952  44.611  10.557
75123W        W47383  29.588  12.891  11.997
75124W        W47384   0.796  10.147  10.612
75125W        W47385   7.290  23.525   2.293
75126W        W47386  19.975  29.116   4.395
75127W        W47387  22.293  40.586   0.809
75128W        W47388  42.886  21.872   4.273
75129W        W47389   7.233  31.934   1.729
75130W        W47390   3.372  19.738   0.048
75131W        W47391  21.854  20.101  11.340
75132W        W47392  41.231  30.638   3.325
75133W        W47393  34.459  13.290   3.646
75134W        W47394   7.667  13.327  11.107
75135W        W47395  15.787  14.595  13.582
75136W        W47396  10.096  21.475   0.863
75137W        W47397  44.830  18.650   1.001
75138W        W47398  41.787  33.392  11.992
75139W        W47399  40.330  38.134   1.940
75140W        W47400   6.793  30.891  12.481
75141W        W47401  25.001  33.411   3.087
75142W        W47402  10.282  14.775  12.916
75143W        W47403   2.763  39.805  14.796
75144W        W47404  34.956  13.689  14.139
75145W        W47405  23.150  16.164  11.972
75146W        W47406  11.158  26.379   4.146
75147W        W47407  27.736  21.713   0.820
75148W        W47408  20.505  33.049   2.693
75149W        W47409  28.977   1.251  12.139
75150W        W47410   2.215  30.745   4.332
75151W        W47411  37.321   4.035   2.194
75152W        W47412  22.159  19.504   1.377
75153W        W47413  11.640  37.442   4.580
75154W        W47414  31.009   1.346   4.057
75155W        W47415   2.311  37.294   0.003
75156W        W47416   8.647  18.532  13.468
75157W        W47417  37.970  17.339   1.168
75158W        W47418  33.884  17.569   3.274
75159W        W47419   2.702  20.078  11.092
75160W        W47420  39.934   7.292   0.205
75161W        W47421  35.184  19.820   0.482
75162W        W47422  19.011  39.888  11.086
75163W        W47423  32.988  41.993  12.755
75164W        W47424  24.544  11.288  12.512
75165W        W47425  37.334  18.856  11.995
75166W        W47426   4.494  27.108   1.449
75167W        W47427   0.917   9.252  13.877
75168W        W47428   2.591  41.447  12.919
75169W        W47429  24.975   8.846  12.019
75170W        W47430  29.705  27.902  13.400
75171W        W47431   6.941  27.789  10.170
75172W        W47432  25.536   5.224   4.675
75173W        W47433  28.371  34.801  12.468
75174W        W47434  23.502  30.118   4.127
75175W        W47435  44.734  31.012   4.370
75176W        W47436  19.988  38.915   9.673
75177W        W47437  17.432   8.170   3.791
75178W        W47438  17.782  36.898   2.838
75179W        W47439  28.108  35.733  13.849
75180W        W47440  20.388  10.884   1.116
75181W        W47441   7.826  33.576   2.267
75182W        W47442  18.257   0.825   0.533
75183W        W47443  21.275  31.774  11.533
75184W        W47444  18.600  28.692  10.974
75185W        W47445  38.115   7.795  13.320
75186W        W47446  20.480  30.501   3.791
75187W        W47447  30.611  10.804   0.721
75188W        W47448  37.053  38.073   0.824
75189W        W47449  37.464  42.354   0.581
75190W        W47450  44.732   6.155  10.378
75191W        W47451  26.083  11.851   3.415
75192W        W47452  27.546  27.550  12.820
75193W        W47453  27.545   9.946  12.857
75194W        W47454  30.815  20.302   1.295
75195W        W47455  34.935  12.886   2.718
75196W        W47456  12.726   9.158   3.397
75197W        W47457  29.258  29.426  13.123
75198W        W47458   3.184  42.419   1.960
75199W        W47459  22.106  14.050  10.631
75200W        W47460   6.843  10.657   4.467
75201W        W47461   9.251  42.516  14.915
75202W        W47462  43.919  31.993   1.322
75203W        W47463  29.414  32.167   1.734
75204W        W47464   7.344  13.093   0.327
75205W        W47465  42.073  16.040   1.491
75206W        W47466  21.350  12.434  11.110
75207W        W47467  19.220  28.201  10.609
75208W        W47468  41.437  19.179  12.069
75209W        W47469  29.228  13.348  12.691
75210W        W47470  38.345  25.952   1.964
75211W        W47471  10.824   7.278   3.353
75212W        W47472   6.222  33.083   0.850
75213W        W47473  15.223  31.547   1.720
75214W        W47474  31.657  21.248  12.750
75215W        W47475  38.650  14.227  12.930
75216W        W47476  42.919  36.865   3.622
75217W        W47477  12.687  26.783   2.091
75218W        W47478   3.801   0.465  12.422
75219W        W47479  39.140  33.081   1.517
75220W        W47480  25.231  18.564  11.579
75221W        W47481  38.858  11.230   3.659
75222W        W47482   9.207   2.721   2.697
75223W        W47483  38.452  12.421  11.932
75224W        W47484  18.234  31.268   1.884
75225W        W47485   5.195  25.824  11.566
75226W        W47486  11.208  41.344  14.017
75227W        W47487  38.111  23.459   0.333
75228W        W47488  40.314  44.299   4.628
75229W        W47489  14.218  20.426  11.507
75230W        W47490  18.704  24.460   0.931
75231W        W47491  41.986  27.786   1.788
75232W        W47492  42.912   2.025  14.961
75233W        W47493  17.557   5.618   4.508
75234W        W47494   6.270   7.300   2.693
75235W        W47495   1.348  21.565  11.153
75236W        W47496  13.475  26.976  11.663
75237W        W47497   9.950  36.583  13.947
75238W        W47498  14.605  33.659   0.429
75239W        W47499  29.145  37.039   4.617
75240W        W47500  37.617  41.598   1.267
75241W        W47501  36.085  17.688   1.726
75242W        W47502  44.837  21.307   0.471
75243W        W47503  31.006  14.317   4.622
75244W        W47504  36.407  25.910   3.245
75245W        W47505   8.257   3.015  12.954
75246W        W47506   2.276  33.404  14.584
75247W        W47507  26.162  36.836  13.917
75248W        W47508  34.571  44.529   1.888
75249W        W47509  41.124  25.688   2.244
75250W        W47510   9.807  15.043  12.834
75251W        W47511  24.277  25.512   1.833
75252W        W47512  17.676  14.049  14.560
75253W        W47513  44.794  37.427   4.435
75254W        W47514   5.629  37.421  13.432
75255W        W47515  11.827  42.361  12.168
75256W        W47516  31.835   4.818   9.787
75257W        W47517  20.783  14.222   2.591
75258W        W47518  35.541  42.511   2.693
75259W        W47519   6.914  35.897   0.335
75260W        W47520  17.770  39.293  14.956
75261W        W47521   8.665  14.366   4.181
75262W        W47522  26.720  18.562   1.870
75263W        W47523  16.129  28.528  13.584
75264W        W47524  16.364  27.028   3.262
75265W        W47525  26.652  44.873  13.421
75266W        W47526  36.091  41.839   2.135
75267W        W47527  35.569  29.351  14.284
75268W        W47528   4.134  16.770  12.092
75269W        W47529  15.227   5.874  10.352
75270W        W47530  31.357  10.225   0.246
75271W        W47531   8.424  22.054   1.650
75272W        W47532  19.805  20.038   3.656
75273W        W47533  37.542  37.512  12.049
75274W        W47534  29.741  32.155  13.760
75275W        W47535  38.333   8.868   4.251
75276W        W47536  44.782  21.700  11.449
75277W        W47537   5.915  11.504  11.941
75278W        W47538  25.007  29.978  14.397
75279W        W47539   9.660   8.111  14.445
75280W        W47540  38.399   2.990   3.092
75281W        W47541  29.662  11.000   4.142
75282W        W47542  33.639  35.322   1.472
75283W        W47543  25.668  40.832   5.010
75284W        W47544  34.793  38.674   5.106
75285W        W47545  37.461  14.085  14.846
75286W        W47546  43.493  40.057   0.424
75287W        W47547  24.065  41.877   1.284
75288W        W47548  37.434  18.334  11.991
75289W        W47549   5.435  44.077  11.996
75290W        W47550  11.841  24.146   4.104
75291W        W47551  39.479  30.319  13.992
75292W        W47552  11.715   8.372   1.780
75293W        W47553  13.330   6.288   1.367
75294W        W47554  14.439  10.173   2.070
75295W        W47555  12.911  24.252   4.141
75296W        W47556  41.304  31.405   1.441
75297W        W47557  33.398  18.293   3.731
75298W        W47558  19.198  40.521  14.826
75299W        W47559  12.655   1.753  12.018
75300W        W47560  22.280   1.425  12.522
75301W        W47561   3.761   5.407  12.972
75302W        W47562  28.277   9.612   3.888
75303W        W47563   9.922   1.227   4.369
75304W        W47564  29.471  13.876  14.451
75305W        W47565  21.524  11.002   4.153
75306W        W47566  17.695  38.787   3.762
75307W        W47567   2.950  13.951   5.024
75308W        W47568   8.149  36.413   2.934
75309W        W47569  23.146   3.292   0.404
75310W        W47570  29.459  44.249   0.883
75311W        W47571  34.865  25.751  13.060
75312W        W47572  12.702  35.916  14.918
75313W        W47573  39.088   2.347   1.025
75314W        W47574  29.233   7.344   3.956
75315W        W47575   5.424  39.373   2.240
75316W        W47576   9.140  11.908   3.207
75317W        W47577  23.496  15.002   2.795
75318W        W47578  34.811  30.064  12.941
75319W        W47579  16.367   6.745   0.316
75320W        W47580  38.951  35.400  13.768
75321W        W47581  40.449  42.025   0.259
75322W        W47582  14.665  38.617  13.393
75323W        W47583   0.968  39.549   3.839
75324W        W47584  37.983   0.927  10.106
75325W        W47585  15.192  14.499   4.670
75326W        W47586  35.392  39.561   4.662
75327W        W47587  28.591  11.792  11.589
75328W        W47588   6.698  42.256  12.190
75329W        W47589  36.945  25.831   4.282
75330W        W47590  34.832  43.882  11.137
75331W        W47591  41.347  15.899   3.805
75332W        W47592  40.170  42.754   4.131
75333W        W47593  26.169   1.040  13.937
75334W        W47594  40.561  18.368   2.741
75335W        W47595  40.006   6.950   3.624
75336W        W47596   7.184  33.376  13.327
75337W        W47597  34.908  12.910  10.349
75338W        W47598   5.391  34.846   0.237
75339W        W47599  34.708  13.866   0.040
75340W        W47600   6.376  37.322  14.006
75341W        W47601  37.313  20.181   2.244
75342W        W47602   6.214  40.023  11.022
75343W        W47603   2.967   5.837   4.142
75344W        W47604  12.271  11.870  12.468
75345W        W47605  18.346  13.237   0.252
75346W        W47606   2.188   7.847   3.043
75347W        W47607   9.209  36.040   4.604
75348W        W47608  19.050   1.956  14.374
75349W        W47609  36.995  43.958   4.963
75350W        W47610  35.826  27.420  14.368
75351W        W47611  19.753  37.815  11.641
75352W        W47612  44.206  42.921   0.241
75353W        W47613  16.702  42.597  14.075
75354W        W47614  42.429  36.934  11.206
75355W        W47615  18.786  33.364   3.181
75356W        W47616  13.804  10.372  11.154
75357W        W47617  21.916  11.285  10.666
75358W        W47618  11.331   5.280   2.774
75359W        W47619  22.640   3.943  11.559
75360W        W47620  17.208  36.447   3.200
75361W        W47621  11.130   0.986   1.700
75362W        W47622  35.095  28.208   2.192
75363W        W47623   0.845  15.314  11.900
75364W        W47624  31.556  25.175   1.413
75365W        W47625  10.230  36.820  11.090
75366W        W47626   6.341  28.842   3.285
75367W        W47627  44.053  39.566  10.838
75368W        W47628  22.742   8.452   3.744
75369W        W47629  18.181   0.970   2.732
75370W        W47630  40.799  22.902  11.610
75371W        W47631  13.630  11.406   0.916
75372W        W47632  20.530  38.848  14.430
75373W        W47633   4.457   1.905   3.064
75374W        W47634  15.672  37.196  11.549
75375W        W47635  11.258   1.933   0.009
75376W        W47636  13.653  22.895   0.630
75377W        W47637  22.122  10.124   4.108
75378W        W47638   7.202   3.737   0.910
75379W        W47639  36.499  38.139  13.795
75380W        W47640   1.846  20.914  12.074
75381W        W47641  22.266  25.590  12.415
75382W        W47642  21.099  25.677  12.834
75383W        W47643  28.867  27.080   1.082
75384W        W47644   5.752   1.297  13.416
75385W        W47645  10.742  42.043  12.360
75386W        W47646  12.788  10.632   3.833
75387W        W47647   9.502  40.931  11.380
75388W        W47648  11.299  13.403  11.403
75389W        W47649   3.712  14.655  14.872
75390W        W47650  10.689  33.564  11.148
75391W        W47651   0.865  21.926  14.102
75392W        W47652  44.455   9.906  12.610
75393W        W47653  20.537  22.034  13.854
75394W        W47654   3.705  39.887   1.830
75395W        W47655  43.722  22.146  13.024
75396W        W47656   9.883   9.718   5.032
75397W        W47657  36.434  28.180   4.746
75398W        W47658  12.732  31.961  14.198
75399W        W47659   9.408  40.895   1.581
75400W        W47660   3.914  35.001  13.526
75401W        W47661  13.880   3.760   0.501
75402W        W47662  19.638  10.249   0.100
75403W        W47663  18.613  14.552   2.664
75404W        W47664   8.014  25.409   4.082
75405W        W47665  17.366  28.446   4.259
75406W        W47666  20.727  16.779  12.320
75407W        W47667  32.673  24.704   2.484
75408W        W47668  39.921  37.797   0.789
75409W        W47669  26.141  13.815  10.739
75410W        W47670  26.264  35.602   1.707
75411W        W47671  12.874   0.064  10.922
75412W        W47672  16.441  23.011   4.078
75413W        W47673  12.122  32.071   1.818
75414W        W47674   8.494  35.202  11.021
75415W        W47675  11.936   8.348   2.795
75416W        W47676  13.880   3.923   3.215
75417W        W47677  33.526   5.738   4.593
75418W        W47678  12.917  30.837  10.228
75419W        W47679  29.036  23.994   0.287
75420W        W47680  44.352   6.042   0.087
75421W        W47681  23.633  38.482  13.811
75422W        W47682  19.252  13.205   4.042
75423W        W47683  18.807  28.383  12.988
75424W        W47684  33.084  18.165   4.279
75425W        W47685   1.872  44.282   0.537
75426W        W47686   4.667  16.888  14.384
75427W        W47687  23.697   9.654  14.432
75428W        W47688  29.682  29.180   1.186
75429W        W47689   8.689  42.263  14.229
75430W        W47690  43.514  42.266   3.115
75431W        W47691  42.258   9.877   5.048
75432W        W47692  33.610  11.123  13.593
75433W        W47693  32.592  20.749  12.975
75434W        W47694  35.652  31.161  11.504
75435W        W47695  18.683  18.965  14.351
75436W        W47696  27.029  33.842   4.686
75437W        W47697  28.908   9.112   0.328
75438W        W47698  29.948  34.374  13.789
75439W        W47699  25.058   5.452  10.903
75440W        W47700  33.567  26.068  14.787
75441W        W47701  32.925  35.149   1.441
75442W        W47702  26.036  40.796  14.539
75443W        W47703  34.141  27.960  12.823
75444W        W47704  21.060  31.552  14.752
75445W        W47705  13.262  35.729  14.087
75446W        W47706  43.346   6.262   4.137
75447W        W47707  13.770  24.241  14.430
75448W        W47708  22.263  22.352   0.799
75449W        W47709  34.622  24.271   1.825
75450W        W47710  32.047  20.719   0.814
75451W        W47711  34.563  19.754  13.165
75452W        W47712   4.910  10.807   4.742
75453W        W47713  42.225  28.982   4.313
75454W        W47714  23.611  19.655   4.564
75455W        W47715  11.875  23.817  12.958
75456W        W47716  37.991  26.002  12.260
75457W        W47717  40.809   7.054  14.744
75458W        W47718  38.064  19.112   3.648
75459W        W47719  41.538  21.900   0.973
75460W        W47720   6.709  13.156  11.233
75461W        W47721  18.218  12.382  11.127
75462W        W47722  28.045  22.941  11.534
75463W        W47723  27.282   5.752  10.657
75464W        W47724  42.414  17.202   1.872
75465W        W47725   1.817  10.281  10.548
75466W        W47726  27.945  44.317   0.044
75467W        W47727  28.856  28.327   0.396
75468W        W47728  18.534  15.294   3.693
75469W        W47729   7.831  26.420  13.034
75470W        W47730  17.807   1.816  11.660
75471W        W47731  15.763  40.492  11.108
75472W        W47732  16.560  44.540   0.174
75473W        W47733   5.249  42.316   4.538
75474W        W47734   1.890  25.482  12.636
75475W        W47735  21.305  18.512   0.860
75476W        W47736  43.823  30.889   1.980
75477W        W47737  42.375   3.383  13.012
75478W        W47738  26.700  32.782  11.034
75479W        W47739   2.671   5.388  11.201
75480W        W47740  22.771  26.623  13.954
75481W        W47741  35.598  37.562   4.730
75482W        W47742  11.827  25.086   3.129
75483W        W47743  33.580  39.307  13.337
75484W        W47744  38.346  12.884   0.345
75485W        W47745  28.341  40.230  10.689
75486W        W47746  15.170  20.024  12.537
75487W        W47747   7.818   2.631   2.580
75488W        W47748  22.487  30.696  11.158
75489W        W47749  26.711  31.619   3.210
75490W        W47750   6.320  21.714   3.777
75491W        W47751  18.857  20.329  12.424
75492W        W47752  28.260  12.910   0.328
75493W        W47753  15.682   6.116  10.217
75494W        W47754  32.902  27.235  10.580
75495W        W47755   9.417  23.159   1.332
75496W        W47756  38.372   3.456  12.859
75497W        W47757  13.714  16.079  13.520
75498W        W47758  37.367  37.607   1.306
75499W        W47759  25.148  22.008  14.416
75500W        W47760  18.647  11.860  12.756
75501W        W47761  35.025  43.763   4.953
75502W        W47762  24.091  37.346   2.830
75503W        W47763  37.775  10.549   3.092
75504W        W47764  37.014   8.398  14.395
75505W        W47765   0.863  13.840  14.912
75506W        W47766  33.552  16.350  11.084
75507W        W47767  43.838   6.628  12.496
75508W        W47768  39.912  27.116   3.893
75509W        W47769  40.695  19.660  12.050
75510W        W47770  17.702   9.187   0.475
75511W        W47771  19.321   0.985   3.856
75512W        W47772  12.037   6.199   1.812
75513W        W47773   4.982  30.679  13.928
75514W        W47774  37.992   8.276  13.975
75515W        W47775  20.640   4.637   0.322
75516W        W47776  27.121  37.307   5.078
75517W        W47777  13.382  37.932  14.141
75518W        W47778  39.048  28.181  10.617
75519W        W47779  43.723  26.911  13.143
75520W        W47780  43.104  19.579  11.562
75521W        W47781  32.887  19.608  10.487
75522W        W47782   4.368  14.502  11.222
75523W        W47783  26.535  20.754  10.592
75524W        W47784  37.663  23.158   5.035
75525W        W47785  24.195  21.426   3.307
75526W        W47786  11.682  38.442  10.749
75527W        W47787  20.254   4.874   3.701
75528W        W47788  34.385  29.307   4.050
75529W        W47789  36.363  19.326  13.496
75530W        W47790  31.667  27.748  13.381
75531W        W47791   9.196  17.818  11.170
75532W        W47792  18.170  34.614   0.917
75533W        W47793  10.631  22.637  13.096
75534W        W47794  13.187  18.443  14.742
75535W        W47795   1.155  12.322   0.046
75536W        W47796  37.917  41.291  11.166
75537W        W47797  28.494  31.499   1.374
75538W        W47798  37.534  37.900  10.689
75539W        W47799  37.475   4.271   4.658
75540W        W47800  19.685  14.635  11.560
75541W        W47801  11.067  31.055  13.057
75542W        W47802  24.091   7.627   2.857
75543W        W47803  37.359  19.063  11.499
75544W        W47804  19.540   6.187  14.514
75545W        W47805  44.575   1.670  12.952
75546W        W47806  42.203  28.555   3.624
75547W        W47807  14.546  30.573   9.832
75548W        W47808  40.850  35.803  11.964
75549W        W47809   7.664  21.541   3.229
75550W        W47810  41.751  23.777   2.266
75551W        W47811  31.722  25.725   1.280
75552W        W47812  42.617  37.907  13.166
75553W        W47813  38.312  37.937  12.024
75554W        W47814  14.130   8.096  14.281
75555W        W47815   1.007  36.676   0.279
75556W        W47816  44.343  17.562   0.433
75557W        W47817  30.407  42.018   3.637
75558W        W47818  22.048  27.839   1.872
75559W        W47819  17.353  13.702  14.895
75560W        W47820  25.513  37.054  14.706
75561W        W47821  42.029   7.272  10.983
75562W        W47822  27.604   7.982   2.327
75563W        W47823  30.667  13.170   1.758
75564W        W47824  36.582  17.795  13.330
75565W        W47825  27.559  20.053   0.046
75566W        W47826   5.205  43.569   4.686
75567W        W47827   4.848  28.418   1.881
75568W        W47828  37.323  39.491  14.937
75569W        W47829  41.005  12.155   3.179
75570W        W47830  27.562   3.410  12.617
75571W        W47831  12.790  42.421   2.736
75572W        W47832  27.193  44.634  13.413
75573W        W47833  41.032   8.379  12.023
75574W        W47834  26.732  33.542  11.521
75575W        W47835  33.294  42.816   0.960
75576W        W47836  30.089  37.078  12.594
75577W        W47837  43.252  18.731  11.518
75578W        W47838  31.642  16.768   2.268
75579W        W47839  43.843  15.605   2.487
75580W        W47840   1.681  44.992  12.625
75581W        W47841  10.254   4.407   2.651
75582W        W47842   1.857   1.849   0.387
75583W        W47843  37.159  37.610  13.523
75584W        W47844  19.313   2.021   2.852
75585W        W47845  29.475  44.458  14.974
75586W        W47846   7.929   7.617   1.482
75587W        W47847  33.097   6.664  13.774
75588W        W47848  34.876  42.454  12.138
75589W        W47849   3.862  16.698  11.211
75590W        W47850  27.563  34.457  13.645
75591W        W47851   4.944  43.525  12.779
75592W        W47852   7.748  34.088  11.648
75593W        W47853   7.214  33.115   2.255
75594W        W47854  44.231  18.570   1.859
75595W        W47855  17.620   2.376  14.743
75596W        W47856  29.942  28.046  14.289
75597W        W47857  38.451  32.247   0.839
75598W        W47858   7.933   1.389  11.516
75599W        W47859   9.448  39.745  13.459
75600W        W47860   7.436  14.642  11.183
75601W        W47861  28.114  15.620   1.977
75602W        W47862   9.999  11.161  14.645
75603W        W47863  20.620   1.511   2.630
75604W        W47864   4.023  37.897   2.816
75605W        W47865   7.409  43.777   2.165
75606W        W47866   1.792  35.569  12.082
75607W        W47867   4.365  26.950   2.298
75608W        W47868  34.520  13.881   3.043
75609W        W47869  38.530  21.705   0.474
75610W        W47870  30.163  39.923  14.042
75611W        W47871  23.743  28.969   0.719
75612W        W47872  16.056  21.113  12.844
75613W        W47873  37.910  42.326  14.716
75614W        W47874   4.863  22.598  11.028
75615W        W47875  25.621  28.990   1.187
75616W        W47876  28.557  33.618  14.519
75617W        W47877  12.066  16.113  11.550
75618W        W47878  41.817   6.480  12.496
75619W        W47879  11.092  10.754  10.938
75620W        W47880   8.282  30.486   3.144
75621W        W47881  20.300  29.524   3.260
75622W        W47882  32.439  42.053  12.081
75623W        W47883   8.396  19.111  13.883
75624W        W47884  20.591  24.782   3.127
75625W        W47885  33.312  11.890  13.915
75626W        W47886  19.234   6.749   4.488
75627W        W47887  37.174  44.379   2.306
75628W        W47888  21.701  27.800   2.277
75629W        W47889  21.202  22.271  12.592
75630W        W47890  20.674   5.681  10.241
75631W        W47891  41.100   3.379  14.518
75632W        W47892   5.777  27.992  11.607
75633W        W47893  10.715  34.336   1.168
75634W        W47894   1.689   5.062   1.870
75635W        W47895  26.284   7.678  10.753
75636W        W47896   5.638   6.998  10.966
75637W        W47897  24.158  28.019  13.384
75638W        W47898   3.995   5.282   4.898
75639W        W47899   6.921  41.853  12.591
75640W        W47900  43.250  12.662  13.864
75641W        W47901  39.809   8.000  12.335
75642W        W47902  19.653   5.966   4.321
75643W        W47903  20.718   6.701   3.314
75644W        W47904  37.482  41.800  13.998
75645W        W47905   3.283  13.704   0.092
75646W        W47906  34.842  35.749  11.111
75647W        W47907  23.079   7.192   3.453
75648W        W47908  25.567  25.483   4.061
75649W        W47909   4.678   1.980   5.383
75650W        W47910  35.348  38.934  14.267
75651W        W47911  30.208  34.389  12.402
75652W        W47912  39.941  40.904  10.729
75653W        W47913  40.307  27.743  13.451
75654W        W47914  30.971  31.085   3.654
75655W        W47915  19.790   3.666  13.963
75656W        W47916  16.276   0.402  14.256
75657W        W47917  34.051  15.736   3.783
75658W        W47918  28.511  19.332   4.068
75659W        W47919   9.360  31.912   3.179
75660W        W47920  40.010  25.157  12.546
75661W        W47921  23.574  43.784   4.671
75662W        W47922  20.104  41.955   4.759
75663W        W47923  21.122  27.797  14.020
75664W        W47924  15.363   7.994   3.598
75665W        W47925  19.248   7.561   3.789
75666W        W47926  11.738  13.458  14.669
75667W        W47927  17.912   2.527  11.899
75668W        W47928  42.289  35.468   0.342
75669W        W47929  34.334  41.790   0.209
75670W        W47930  32.179  17.185  13.766
75671W        W47931  41.421  20.513  12.565
75672W        W47932   5.706  37.964   2.413
75673W        W47933  17.429   9.333   3.083
75674W        W47934   4.430  31.018  14.398
75675W        W47935  34.879  28.108   5.207
75676W        W47936  32.265   6.260   2.111
75677W        W47937  21.134   0.666  14.001
75678W        W47938   9.261   1.497   4.431
75679W        W47939  10.925  39.533  11.941
75680W        W47940  22.680  25.253  13.613
75681W        W47941  33.541  42.284   0.248
75682W        W47942  33.482  25.742   4.221
75683W        W47943  43.382  39.573   0.349
75684W        W47944  18.154  16.912   0.872
75685W        W47945  18.993  25.732   3.486
75686W        W47946  26.939  19.748  11.070
75687W        W47947  24.550  27.086   1.123
75688W        W47948  12.651   6.924  14.877
75689W        W47949   6.466   7.232   2.225
75690W        W47950  25.931  19.411  10.245
75691W        W47951  30.557  28.522   3.200
75692W        W47952  25.935  15.653  14.737
75693W        W47953  40.989  30.107   2.643
75694W        W47954  40.817  17.680  11.136
75695W        W47955  39.425  36.090   3.606
75696W        W47956  11.315  19.679  13.423
75697W        W47957  39.467  38.132  14.863
75698W        W47958  42.626   9.878   1.887
75699W        W47959  11.750  44.383   3.160
75700W        W47960  40.797  35.412  12.335
75701W        W47961  22.156  30.672   4.647
75702W        W47962   9.891  12.171   1.255
75703W        W47963  20.329  20.032   3.644
75704W        W47964  30.378  44.788  13.228
75705W        W47965  14.943  10.614   2.132
75706W        W47966   6.944  20.215   0.421
75707W        W47967   6.273  25.934   2.842
75708W        W47968   3.163  13.550  12.091
75709W        W47969  42.736  41.837   4.668
75710W        W47970  30.046  20.280  10.788
75711W        W47971   0.978  20.260  12.480
75712W        W47972  24.608  11.172  14.873
75713W        W47973   7.259  43.575  11.289
75714W        W47974  39.926  37.387  11.695
75715W        W47975  37.885   4.341   4.305
75716W        W47976  38.772  44.801  13.061
75717W        W47977  44.525  15.136   1.401
75718W        W47978  31.288  14.192   1.509
75719W        W47979   5.493  30.615  13.928
75720W        W47980  13.054  16.278  11.688
75721W        W47981   6.511  39.689  14.374
75722W        W47982   5.628  33.543   4.098
75723W        W47983  10.121   6.360   0.332
75724W        W47984  31.637  34.880   4.207
75725W        W47985   6.454  42.118  12.629
75726W        W47986   2.553  23.062   3.181
75727W        W47987  27.446  41.800  12.494
75728W        W47988  30.024  29.940   0.025
75729W        W47989  44.640  17.041   0.928
75730W        W47990  13.604  24.528   0.071
75731W        W47991  22.421  15.121  12.651
75732W        W47992   0.308   0.563   1.415
75733W        W47993  41.000  23.512  14.913
75734W        W47994   5.241  20.881  10.691
75735W        W47995  44.858  27.659   3.138
75736W        W47996  14.494   7.819  12.195
75737W        W47997  21.655  10.420  13.741
75738W        W47998  27.657   4.696   0.795
75739W        W47999   1.042   4.225   3.224
75740W        W48000  10.230  17.218   2.140
75741W        W48001  12.243   9.718   2.902
75742W        W48002   5.477  22.624   3.963
75743W        W48003  10.324   0.058  13.576
75744W        W48004  32.471   7.861   0.226
75745W        W48005   6.384  10.929   4.578
75746W        W48006  39.828  24.601  10.648
75747W        W48007  36.299  37.989   2.354
75748W        W48008  44.966  29.109   3.333
75749W        W48009  21.221  21.195  11.163
75750W        W48010  20.182  34.179  13.848
75751W        W48011  29.657  21.316  13.446
75752W        W48012  37.191  20.649   3.421
75753W        W48013  12.394  40.542   2.486
75754W        W48014  30.460  37.782   3.546
75755W        W48015  44.930  38.430  13.081
75756W        W48016  35.969   9.567  12.852
75757W        W48017  24.429  11.943   5.006
75758W        W48018  39.488  31.924   4.875
75759W        W48019  31.655  40.099   2.644
75760W        W48020  26.075  38.381   2.676
75761W        W48021  15.134  17.546   9.471
75762W        W48022  24.682  32.006  14.333
75763W        W48023  23.307   6.839  12.059
75764W        W48024  12.212  39.505  14.111
75765W        W48025  13.840  36.473  14.458
75766W        W48026  21.184  11.214  11.128
75767W        W48027   8.019   4.364  13.054
75768W        W48028  41.323  18.747   3.380
75769W        W48029  11.701   3.939   1.391
75770W        W48030  18.192  15.094   1.940
75771W        W48031  24.984  29.138   2.028
75772W        W48032  28.472   3.295   0.529
75773W        W48033  29.127  37.523   3.420
75774W        W48034   9.708  36.432   2.319
75775W        W48035  16.804  36.612  12.906
75776W        W48036  23.434  40.509   2.179
75777W        W48037  34.066  18.232   2.447
75778W        W48038  26.193  28.623  13.953
75779W        W48039  37.091  31.401  12.528
75780W        W48040   5.816  35.912   1.175
75781W        W48041  32.350  42.497  13.003
75782W        W48042  38.042   8.821   1.691
75783W        W48043  23.159  26.896   0.506
75784W        W48044  27.067  36.994  10.591
75785W        W48045  23.990  10.429   5.006
75786W        W48046  43.368  35.685   1.799
75787W        W48047  27.647   8.041   2.870
75788W        W48048   7.853   8.809  13.156
75789W        W48049  40.487  23.442  12.124
75790W        W48050  28.867   6.774   2.669
75791W        W48051   9.456  24.075  14.832
75792W        W48052  41.449   5.687  11.494
75793W        W48053   7.911   5.479  11.166
75794W        W48054  40.802   0.017   3.882
75795W        W48055  38.006   8.158  12.965
75796W        W48056  22.619  18.055   1.716
75797W        W48057  17.751  39.983   2.573
75798W        W48058  32.895   6.479  14.925
75799W        W48059  35.967   0.537   4.239
75800W        W48060  13.456  24.777   3.710
75801W        W48061  22.807  22.765  14.984
75802W        W48062  31.010  44.716   4.316
75803W        W48063  42.416  41.774  10.950
75804W        W48064  22.185   9.711   1.692
75805W        W48065  15.555  16.304   2.840
75806W        W48066  39.220   9.411   0.531
75807W        W48067  12.024  43.747  14.940
75808W        W48068   1.639  26.956  12.415
75809W        W48069   0.432  13.696   4.442
75810W        W48070   9.569  21.540  13.928
75811W        W48071   4.888   9.567  10.598
75812W        W48072  17.352  21.143   1.828
75813W        W48073  13.862  21.919  14.709
75814W        W48074  13.717  38.012   3.887
75815W        W48075   7.276  43.324   4.171
75816W        W48076  11.215  21.635  12.557
75817W        W48077  10.453  36.952  14.767
75818W        W48078  17.770  36.333   2.763
75819W        W48079  38.458  44.741  12.196
75820W        W48080  35.523  23.096  14.684
75821W        W48081   7.232  27.349   2.837
75822W        W48082   1.105   4.705   5.236
75823W        W48083  25.351  17.110   5.069
75824W        W48084  11.365  40.483   2.220
75825W        W48085  19.724   5.663   3.375
75826W        W48086   6.742  10.252   0.872
75827W        W48087   3.955  18.160   0.463
75828W        W48088  34.497  24.598  10.091
75829W        W48089   5.866   2.846  14.933
75830W        W48090   7.686   9.106  12.182
75831W        W48091   6.666  14.719   2.273
75832W        W48092  10.831   2.398   1.108
75833W        W48093  22.404  17.317  12.166
75834W        W48094  29.460  30.576   4.054
75835W        W48095  44.021   9.842   0.505
75836W        W48096   6.166   7.760   2.457
75837W        W48097  13.270  32.979   1.899
75838W        W48098   6.488  26.082   4.655
75839W        W48099   7.757   3.850   1.835
75840W        W48100  32.512  21.647   3.281
75841W        W48101  33.102  14.959   1.816
75842W        W48102  21.199  31.712  13.416
75843W        W48103  26.792  15.657  11.076
75844W        W48104  44.141  15.879  12.984
75845W        W48105  16.075   2.315  14.284
75846W        W48106  28.257  39.722   4.562
75847W        W48107  25.743  21.686  11.434
75848W        W48108  26.870  43.707   4.106
75849W        W48109  43.237  36.220   5.212
75850W        W48110  25.189  33.085   1.733
75851W        W48111   3.990  20.791  14.059
75852W        W48112  26.165  34.714  11.668
75853W        W48113   1.437   2.238   2.930
75854W        W48114  28.368  11.353   4.168
75855W        W48115  26.354  17.528   1.254
75856W        W48116  32.600  17.883   5.090
75857W        W48117  29.556  29.661   2.707
75858W        W48118  35.958  27.568   1.318
75859W        W48119  35.385   1.521  12.375
75860W        W48120  35.097  16.268  11.009
75861W        W48121  30.521  24.550   3.203
75862W        W48122  41.620   6.196   5.010
75863W        W48123  38.942   1.328  13.241
75864W        W48124   8.225   7.154   4.145
75865W        W48125  27.515  36.858  13.616
75866W        W48126   7.631  20.292   1.597
75867W        W48127  32.570  20.206  10.820
75868W        W48128  39.965  28.076   4.261
75869W        W48129  41.490  25.500   3.547
75870W        W48130  38.593  39.040   0.955
75871W        W48131   7.893  40.051   1.795
75872W        W48132  33.430  31.384  14.926
75873W        W48133  34.023   5.962   2.797
75874W        W48134  14.505  43.776  11.104
75875W        W48135  38.493  39.684  10.745
75876W        W48136   0.796  16.824  10.829
75877W        W48137   8.687  28.156   3.073
75878W        W48138   2.076  31.834  14.445
75879W        W48139   3.402  44.961  13.779
75880W        W48140  24.745   2.695   3.621
75881W        W48141  37.937   3.186   0.823
75882W        W48142  10.263  24.806   3.151
75883W        W48143   4.944  35.390  11.965
75884W        W48144  43.258  43.659   1.799
75885W        W48145  27.874  41.934  11.050
75886W        W48146  41.020  32.551   3.829
75887W        W48147  39.837  39.380   2.397
75888W        W48148  27.986  20.218  10.731
75889W        W48149  31.076  18.844   3.760
75890W        W48150  43.651  21.694   0.556
75891W        W48151  39.684   3.415   4.203
75892W        W48152   6.100  17.948   2.320
75893W        W48153  30.585  18.235   4.242
75894W        W48154  27.357  35.561   0.939
75895W        W48155  11.404  24.072   4.401
75896W        W48156  26.435  36.905   0.859
75897W        W48157  30.756  11.853  12.220
75898W        W48158   6.295   4.889   2.896
75899W        W48159  38.824  14.560  11.159
75900W        W48160  20.987  16.645   5.183
75901W        W48161  37.158  15.179  12.439
75902W        W48162  27.951  29.094   0.809
75903W        W48163  40.080  16.235   1.495
75904W        W48164  37.399  10.868  12.088
75905W        W48165   1.544  36.035   2.262
75906W        W48166  41.611  14.326   1.740
75907W        W48167  29.367  38.802  12.508
75908W        W48168  24.480  36.050   4.208
75909W        W48169   6.844  31.438  10.757
75910W        W48170  12.185   9.178  11.554
75911W        W48171  19.694  26.438   4.110
75912W        W48172  34.620  28.555   1.530
75913W        W48173  39.731  10.314  14.425
75914W        W48174  41.028  26.703  13.543
75915W        W48175   6.479   1.760  10.645
75916W        W48176  19.726  25.413  11.126
75917W        W48177  41.758   3.271   2.843
75918W        W48178  30.415  17.021   4.152
75919W        W48179  23.221  41.957  14.452
75920W        W48180  43.860   0.854   1.669
75921W        W48181  35.878  13.263  11.035
75922W        W48182  22.825   1.470  14.353
75923W        W48183  29.172   6.958   1.750
75924W        W48184  40.021  44.658  11.559
75925W        W48185  14.310  43.047   1.783
75926W        W48186   6.591  33.353  10.453
75927W        W48187   9.343  35.901   2.245
75928W        W48188  28.438  12.293   4.153
75929W        W48189  43.578   4.493  13.508
75930W        W48190  29.068  40.347   0.054
75931W        W48191   5.976  13.655   3.682
75932W        W48192  30.888  40.807  12.122
75933W        W48193  12.856  27.292  12.851
75934W        W48194  38.379  44.215  14.454
75935W        W48195  13.557   1.821  12.053
75936W        W48196   5.251  12.107   1.280
75937W        W48197  13.129  37.123  13.276
75938W        W48198   9.317   8.200  10.699
75939W        W48199  31.203  42.104   4.081
75940W        W48200   6.763   4.340   1.467
75941W        W48201   5.319  43.295   0.372
75942W        W48202  17.813   2.295  12.379
75943W        W48203  33.462  39.960  14.965
75944W        W48204   1.714   1.208  10.671
75945W        W48205  41.414   6.799  12.494
75946W        W48206  40.390   1.803   1.911
75947W        W48207  10.394  19.518   1.439
75948W        W48208  28.240  37.142  12.491
75949W        W48209  38.597  41.356  11.937
75950W        W48210  43.885  22.183  11.631
75951W        W48211  26.191  20.278   0.862
75952W        W48212  33.562  31.598   2.657
75953W        W48213  23.906   3.742   3.801
75954W        W48214   7.851  16.819  14.006
75955W        W48215  19.495   9.802  14.825
75956W        W48216   6.345  40.324   4.645
75957W        W48217  43.581  12.823  13.350
75958W        W48218  18.853  43.803  11.994
75959W        W48219  26.615  21.055   4.179
75960W        W48220   3.255  16.864  11.161
75961W        W48221  21.887   1.465  14.499
75962W        W48222  19.028  44.382   0.590
75963W        W48223  35.395  29.565  12.454
75964W        W48224  43.683   9.696   3.333
75965W        W48225  16.582  36.570  11.661
75966W        W48226   7.844   3.397  14.408
75967W        W48227  30.020   8.835   1.411
75968W        W48228  28.959  22.900   3.945
75969W        W48229   2.522   2.108  10.767
75970W        W48230   1.952  27.940   2.543
75971W        W48231   4.223  32.485  13.756
75972W        W48232   5.624  40.528  14.789
75973W        W48233   4.307  19.491   3.266
75974W        W48234  27.842  10.823  11.484
75975W        W48235  33.359  17.018  12.441
75976W        W48236  34.336  17.892  13.057
75977W        W48237   4.503  15.181   1.916
75978W        W48238   2.216  15.215   3.743
75979W        W48239  24.103  35.541  14.266
75980W        W48240  19.313   0.443   4.122
75981W        W48241  23.928  27.641  13.960
75982W        W48242  13.273  12.369  13.494
75983W        W48243  17.740  27.564  14.978
75984W        W48244  44.292  44.406   2.237
75985W        W48245   6.618   6.736   0.422
75986W        W48246  24.236  11.330  12.074
75987W        W48247  34.444  24.619  13.343
75988W        W48248  36.594  28.977   0.874
75989W        W48249  38.058  22.805   2.396
75990W        W48250  25.177  21.262   1.841
75991W        W48251  43.361  13.631  12.756
75992W        W48252   7.609  13.664   1.375
75993W        W48253  19.756  34.446  12.045
75994W        W48254  28.912  19.748   0.425
75995W        W48255  31.678  32.552  10.852
75996W        W48256  17.716  39.293  12.437
75997W        W48257  19.062  28.683  10.731
75998W        W48258  33.984  43.529  14.921
75999W        W48259  43.383  10.169   3.511
76000W        W48260  16.776  34.078  14.278
76001W        W48261  38.606  37.038  11.547
76002W        W48262   5.735  42.505   2.472
76003W        W48263  25.132  36.527  11.028
76004W        W48264  36.574  34.159  13.317
76005W        W48265  27.799  11.227   3.206
76006W        W48266  38.971   5.505  10.762
76007W        W48267   0.904  20.696   0.909
76008W        W48268  13.597  18.203  14.485
76009W        W48269  39.979  26.208   2.474
76010W        W48270  15.746  25.529  13.010
76011W        W48271  27.637   6.773  12.922
76012W        W48272  23.197  43.477  13.483
76013W        W48273  19.669  18.066   1.706
76014W        W48274  29.215  18.158  13.823
76015W        W48275  39.945  27.997  11.699
76016W        W48276  43.619   1.719   1.579
76017W        W48277  32.579   1.410   4.618
76018W        W48278  14.003   5.955  10.836
76019W        W48279  39.427  37.550  14.899
76020W        W48280   4.715  12.614  10.699
76021W        W48281  43.729  18.030  13.561
76022W        W48282   6.819  43.452  11.604
76023W        W48283  42.405  35.998  12.564
76024W        W48284  38.569  41.575   2.252
76025W        W48285  25.896  42.458   4.311
76026W        W48286  35.645  11.326  10.703
76027W        W48287   7.152  27.967   4.086
76028W        W48288  42.261  39.804  12.034
76029W        W48289  17.052  42.747   1.721
76030W        W48290  41.899  15.245   4.539
76031W        W48291  27.989   2.310   2.038
76032W        W48292  10.752   3.424  12.849
76033W        W48293  21.742  41.088  14.384
76034W        W48294  26.942  28.006  10.750
76035W        W48295  16.755  37.957   2.284
76036W        W48296   8.609  31.118  14.498
76037W        W48297  10.130  31.485  11.152
76038W        W48298  34.953  27.602  12.011
76039W        W48299  16.274  20.697   0.670
76040W        W48300  22.469  14.619   0.759
76041W        W48301  43.376  17.532   2.268
76042W        W48302   8.593  13.642   1.927
76043W        W48303  44.458  42.432   4.729
76044W        W48304   3.838  11.222   1.558
76045W        W48305  19.171   6.662  13.559
76046W        W48306   1.239   3.569  11.733
76047W        W48307  18.173  12.101  12.885
76048W        W48308  11.026  29.965  12.470
76049W        W48309   9.716  24.241   1.889
76050W        W48310   3.930  30.034   1.741
76051W        W48311  17.628  24.224   3.418
76052W        W48312  37.643  33.060  11.135
76053W        W48313  11.715  37.969   4.640
76054W        W48314  23.906   8.426   4.478
76055W        W48315   6.480   5.948  12.578
76056W        W48316   8.702  27.643   0.318
76057W        W48317  20.407  19.847   3.150
76058W        W48318  41.469  30.405   0.763
76059W        W48319  36.002  29.127  14.128
76060W        W48320  30.437  44.906  11.731
76061W        W48321  14.327  43.298  11.937
76062W        W48322  24.001   9.915  13.298
76063W        W48323  24.524  12.241   4.118
76064W        W48324   1.207  21.671  11.616
76065W        W48325   2.637  34.120   0.808
76066W        W48326  33.844  35.027  10.152
76067W        W48327  20.946   1.280  12.048
76068W        W48328   6.289  35.502  10.127
76069W        W48329  27.588  16.139   4.691
76070W        W48330  43.800  27.558  12.432
76071W        W48331  11.662  31.695  12.910
76072W        W48332   0.890  38.573   3.632
76073W        W48333  20.758   5.123   0.230
76074W        W48334   1.016  24.107   2.168
76075W        W48335  10.630  13.353   3.211
76076W        W48336  18.146   7.448  13.842
76077W        W48337  38.955  19.700  12.848
76078W        W48338  42.576  10.991   0.284
76079W        W48339  18.041  20.219  12.079
76080W        W48340  22.491  29.653  12.345
76081W        W48341  22.730   6.286  10.007
76082W        W48342  34.042   1.678  11.407
76083W        W48343   9.100  35.100  13.344
76084W        W48344  32.684  35.475   1.809
76085W        W48345   9.650  12.107   0.780
76086W        W48346  22.767  21.567  11.476
76087W        W48347  21.672  18.831   4.881
76088W        W48348  33.691  14.918  12.471
76089W        W48349   4.249  10.207  12.342
76090W        W48350  19.300   8.322   0.668
76091W        W48351   8.788   4.877  12.276
76092W        W48352   5.972  34.023  12.428
76093W        W48353  38.453  16.929  14.082
76094W        W48354  10.539  42.203  13.874
76095W        W48355  41.962  16.622  14.796
76096W        W48356   6.088  16.661  11.703
76097W        W48357  44.919  20.190  11.576
76098W        W48358  25.292  28.554  12.790
76099W        W48359   0.308  23.233   4.423
76100W        W48360   8.966  24.013  14.794
76101W        W48361  18.333  19.352  11.701
76102W        W48362  19.032  10.331  12.166
76103W        W48363   8.394  11.604  11.079
76104W        W48364  44.688  40.440   2.372
76105W        W48365  35.217  40.823  14.520
76106W        W48366   9.966  23.142  13.092
76107W        W48367   7.422  23.449  11.681
76108W        W48368  35.957   1.689   1.792
76109W        W48369  19.428  44.056  11.196
76110W        W48370   6.416  12.112  12.518
76111W        W48371  31.435  12.314   4.140
76112W        W48372  37.108  12.206  13.317
76113W        W48373  35.513  42.297  14.727
76114W        W48374  26.318  28.953   4.147
76115W        W48375   2.974  10.781   4.720
76116W        W48376   3.729  21.159   0.841
76117W        W48377   5.714  13.834   3.240
76118W        W48378  42.233  34.839  12.428
76119W        W48379  30.214  26.441  14.827
76120W        W48380  19.208  30.488   1.408
76121W        W48381   5.532   0.341   1.873
76122W        W48382  24.001  40.238  12.921
76123W        W48383  44.957  27.098  12.507
76124W        W48384  23.029  42.923   3.131
76125W        W48385  32.119  30.417   1.331
76126W        W48386  27.467   2.366  12.898
76127W        W48387  15.492   9.348   2.446
76128W        W48388   7.232  42.572  10.664
76129W        W48389  16.050  37.953   2.695
76130W        W48390  33.083  16.785   0.976
76131W        W48391  26.999  27.588   4.794
76132W        W48392  21.016  35.530   0.934
76133W        W48393  30.707   5.009   0.986
76134W        W48394  24.452  27.007  10.157
76135W        W48395   2.190  30.361   3.355
76136W        W48396  30.974  15.135   3.158
76137W        W48397  31.296  32.962  10.983
76138W        W48398  20.363  21.744  11.134
76139W        W48399  27.645  24.972  10.914
76140W        W48400  39.008  21.138   2.297
76141W        W48401  21.799  16.223   1.979
76142W        W48402   9.192  44.651   0.955
76143W        W48403  43.508  14.128  12.722
76144W        W48404  29.949  15.330   0.396
76145W        W48405  35.694   9.079   2.680
76146W        W48406  44.878  25.495  13.769
76147W        W48407  27.735   8.126  11.539
76148W        W48408  25.508  26.617  12.038
76149W        W48409   6.462  23.464  13.499
76150W        W48410  40.887  23.248   4.492
76151W        W48411  31.736  34.821  13.353
76152W        W48412  32.885   9.291   2.888
76153W        W48413  40.920  18.913   3.664
76154W        W48414  28.495   7.613  13.392
76155W        W48415  10.012  28.033   1.737
76156W        W48416   8.778   8.305  12.503
76157W        W48417  13.323  39.508  11.481
76158W        W48418  36.613  36.564   0.062
76159W        W48419  29.044  28.883  13.957
76160W        W48420  12.152   8.885  12.884
76161W        W48421   8.872  24.748  12.014
76162W        W48422  39.138  24.008   1.185
76163W        W48423  41.335   5.978   2.744
76164W        W48424  30.123  25.104   1.423
76165W        W48425   0.749  20.776  11.634
76166W        W48426  23.291   1.338  14.520
76167W        W48427  15.072   4.364   1.764
76168W        W48428  38.674   9.447  10.327
76169W        W48429  14.982   3.353  14.281
76170W        W48430   9.776  34.848   4.095
76171W        W48431  25.259  26.108   2.339
76172W        W48432  27.730  22.529   1.808
76173W        W48433  40.377  37.073  14.513
76174W        W48434  38.037  31.971  11.594
76175W        W48435  33.184   8.709   1.747
76176W        W48436  22.142  37.619  11.475
76177W        W48437  43.447   6.200  10.670
76178W        W48438  18.041  24.105   3.113
76179W        W48439  18.757  10.646   2.326
76180W        W48440  35.609  30.628   2.430
76181W        W48441   2.489  23.627   4.379
76182W        W48442  37.770  41.538   0.730
76183W        W48443  25.138  28.112  14.728
76184W        W48444  14.913  43.530   2.284
76185W        W48445  20.290   0.870  13.625
76186W        W48446   2.663  13.389  13.402
76187W        W48447   5.595   2.222  13.027
76188W        W48448  20.919   0.714  11.249
76189W        W48449  20.206   5.316   2.730
76190W        W48450   6.152   2.640   4.426
76191W        W48451  14.310   3.835   0.843
76192W        W48452  36.495   3.360   4.660
76193W        W48453  19.893  40.547  12.222
76194W        W48454  32.452  42.907  10.579
76195W        W48455  43.261  40.810  11.110
76196W        W48456  33.398   6.712  14.736
76197W        W48457   9.615  29.658  12.577
76198W        W48458  41.459   4.791   0.993
76199W        W48459  19.020  11.387  11.585
76200W        W48460  14.206  36.773   0.322
76201W        W48461  36.603  40.341   4.612
76202W        W48462   7.127  10.830  10.762
76203W        W48463   3.992  34.918   1.701
76204W        W48464  40.332  43.323  12.443
76205W        W48465  37.793  20.519   4.022
76206W        W48466  18.752  17.617  11.967
76207W        W48467  34.460  16.600  11.028
76208W        W48468  39.070  44.918   0.001
76209W        W48469  18.651   7.394   4.177
76210W        W48470  35.503   2.297   1.393
76211W        W48471  40.427  42.330   1.728
76212W        W48472   9.841   3.887  14.971
76213W        W48473  12.600  44.917   0.729
76214W        W48474  43.013   8.138   4.219
76215W        W48475  31.650  10.818  14.433
76216W        W48476  29.191   0.451  10.829
76217W        W48477  28.021   4.555  10.727
76218W        W48478  22.865  22.100  10.180
76219W        W48479  13.539  44.935   4.230
76220W        W48480  41.016  38.573   1.321
76221W        W48481  24.692  41.789   3.251
76222W        W48482   3.650  42.926  10.801
76223W        W48483  13.355  17.280  13.921
76224W        W48484  16.795  11.990  12.493
76225W        W48485  35.949  44.575   4.127
76226W        W48486  26.127   7.233   1.660
76227W        W48487  32.550  25.115   2.208
76228W        W48488   4.402  32.916   2.404
76229W        W48489  42.734   0.159   1.845
76230W        W48490  14.363  27.498   9.629
76231W        W48491   6.355  43.416   0.432
76232W        W48492  26.828  26.437  11.092
76233W        W48493  16.974  12.735   0.267
76234W        W48494  34.451  26.452   3.739
76235W        W48495  38.877  24.649  12.539
76236W        W48496  33.479  33.203   4.245
76237W        W48497  25.186  39.737  14.298
76238W        W48498   1.401  37.957   2.071
76239W        W48499  26.059  27.947  10.524
76240W        W48500  12.718  37.406   1.110
76241W        W48501  19.733   0.180  14.866
76242W        W48502  41.994  19.017   2.977
76243W        W48503  28.660  31.297  10.597
76244W        W48504   3.679   2.160  12.966
76245W        W48505  35.545  30.606   4.393
76246W        W48506  28.933   5.369   2.896
76247W        W48507  42.832  20.375   4.109
76248W        W48508  26.755  28.933   4.439
76249W        W48509   4.502  33.660   0.862
76250W        W48510  16.309  38.377  13.313
76251W        W48511   9.089   7.811   4.161
76252W        W48512  37.285  17.573  11.444
76253W        W48513  26.800   6.427  11.213
76254W        W48514  11.541  34.897  12.096
76255W        W48515  15.092  41.227  13.261
76256W        W48516  21.149  13.093   2.267
76257W        W48517  39.270  10.082  11.834
76258W        W48518  22.418  27.945  14.240
76259W        W48519  20.295   7.003  14.819
76260W        W48520  25.493  38.572   0.445
76261W        W48521  13.750  20.815   3.845
76262W        W48522   1.624   0.338  13.559
76263W        W48523  44.284   8.064  13.383
76264W        W48524   4.292   6.867  10.739
76265W        W48525  41.311  42.520  11.705
76266W        W48526   8.138  24.947  10.454
76267W        W48527  29.848  32.946   1.894
76268W        W48528  16.284  19.977   3.293
76269W        W48529  22.167  21.308   1.449
76270W        W48530   3.746   4.004  10.645
76271W        W48531  10.637  19.601  14.065
76272W        W48532  19.166  38.280  14.281
76273W        W48533  20.044  43.981   4.616
76274W        W48534  38.169   9.833   5.031
76275W        W48535  33.084  42.629  10.492
76276W        W48536  44.183   5.905  10.277
76277W        W48537  28.959  17.233  10.386
76278W        W48538   1.802  17.961   4.639
76279W        W48539  13.885  19.180  11.175
76280W        W48540  13.233  30.971  14.957
76281W        W48541  26.363  10.929   2.054
76282W        W48542   7.283   6.286  12.529
76283W        W48543  20.760  31.879   4.838
76284W        W48544  40.270   0.089   3.200
76285W        W48545  34.788  31.531  13.593
76286W        W48546  21.423  36.732   3.289
76287W        W48547   1.705  40.664   5.246
76288W        W48548  19.995  27.943   1.897
76289W        W48549   7.124  38.725  11.559
76290W        W48550  39.856  26.614   3.757
76291W        W48551  40.908  27.010   2.764
76292W        W48552   9.277  31.357  13.017
76293W        W48553  25.059  23.116  10.416
76294W        W48554  43.438  34.496  12.445
76295W        W48555  18.086  15.159  11.333
76296W        W48556  28.678  32.492   2.369
76297W        W48557  21.997  25.402   9.623
76298W        W48558  10.154   4.764  11.866
76299W        W48559  13.901   9.772  12.796
76300W        W48560   2.816  29.884  11.180
76301W        W48561   8.322  36.488  11.099
76302W        W48562  25.400  12.386   3.896
76303W        W48563  20.522  42.927  10.545
76304W        W48564  29.891  24.081  13.970
76305W        W48565   5.800  11.600  12.907
76306W        W48566  26.241  36.329   2.256
76307W        W48567  28.594  25.350   2.398
76308W        W48568  21.280   1.481  12.384
76309W        W48569  17.323  39.014  13.897
76310W        W48570  22.000  19.516  13.283
76311W        W48571  35.019  25.121  10.872
76312W        W48572  44.534  35.437   2.294
76313W        W48573  15.334  11.688   3.201
76314W        W48574   6.877  36.064  13.342
76315W        W48575  41.904  26.713   0.002
76316W        W48576  37.613  41.087  10.683
76317W        W48577   1.352   2.505  14.946
76318W        W48578  37.859  22.255  13.536
76319W        W48579  31.434  28.356  14.429
76320W        W48580  22.610  40.191  13.100
76321W        W48581  24.252   3.726  11.143
76322W        W48582  16.536   8.950  13.008
76323W        W48583   2.538   8.487   2.535
76324W        W48584  38.951   6.427   0.234
76325W        W48585   2.500  22.130   2.787
76326W        W48586  29.543   5.707  11.880
76327W        W48587   6.850  12.758   0.940
76328W        W48588  35.859  15.813  11.436
76329W        W48589  13.723  19.067   2.381
76330W        W48590   1.531   3.227   4.597
76331W        W48591   6.621  27.429  14.182
76332W        W48592  20.884  39.790  10.720
76333W        W48593  28.273   8.828  10.248
76334W        W48594  44.573  24.670   0.852
76335W        W48595  10.793   0.859  14.751
76336W        W48596  10.916  38.968   3.202
76337W        W48597   8.219   5.558  11.892
76338W        W48598  31.973  31.566  12.752
76339W        W48599  11.745  22.514  12.425
76340W        W48600  36.932  41.496   2.727
76341W        W48601  13.141  16.836   3.286
76342W        W48602  14.905  44.845   0.886
76343W        W48603  33.692  17.979   0.225
76344W        W48604  25.076  20.059   5.067
76345W        W48605  29.704  14.725   3.166
76346W        W48606  42.391  30.882  10.656
76347W        W48607  28.388  34.830   1.371
76348W        W48608  41.870  29.870  13.997
76349W        W48609  25.046  35.373  14.564
76350W        W48610  21.639  33.410  13.092
76351W        W48611   9.858  25.496  11.571
76352W        W48612  29.683  23.175   3.653
76353W        W48613  33.185  20.530  13.054
76354W        W48614  39.921   1.558  12.280
76355W        W48615  18.514  15.190  11.664
76356W        W48616  16.607  26.542   3.100
76357W        W48617  21.651  23.511  14.048
76358W        W48618   5.671  27.345   5.056
76359W        W48619   7.760   5.014  11.331
76360W        W48620  41.421   4.781  13.617
76361W        W48621  21.415  34.410   0.183
76362W        W48622  33.219   9.535  13.079
76363W        W48623  28.094  42.768   4.621
76364W        W48624   5.337   7.761   0.883
76365W        W48625  16.252   1.000   0.695
76366W        W48626  10.881   0.279   3.875
76367W        W48627  42.485   2.136  11.440
76368W        W48628   0.170  27.713   2.365
76369W        W48629  27.892  37.900  11.698
76370W        W48630  15.980  16.261   0.453
76371W        W48631  10.160   8.289  12.423
76372W        W48632  43.814  40.409  11.414
76373W        W48633  37.471  39.188   5.012
76374W        W48634  35.056  33.212  14.408
76375W        W48635  33.632  11.104   3.581
76376W        W48636  37.696  19.548   0.130
76377W        W48637  39.950   4.364   3.419
76378W        W48638  10.075  28.401  12.717
76379W        W48639  17.769  42.674  11.143
76380W        W48640  37.738  10.142  14.581
76381W        W48641   6.780  33.782   4.687
76382W        W48642   2.676  35.367   4.158
76383W        W48643  27.327  19.312   1.009
76384W        W48644   0.090   3.167  11.321
76385W        W48645   0.252  19.169   3.168
76386W        W48646  12.381  12.195   0.893
76387W        W48647   2.328  16.107  12.326
76388W        W48648  34.878  12.588   1.424
76389W        W48649  28.878  34.913  12.481
76390W        W48650  37.252  27.931   0.801
76391W        W48651  27.614  36.113  13.052
76392W        W48652  44.338   5.417   2.438
76393W        W48653   5.996  34.626   1.841
76394W        W48654  40.455  39.889   4.211
76395W        W48655   8.144  12.775  14.440
76396W        W48656  10.767  32.870  11.647
76397W        W48657  16.512  31.036  14.281
76398W        W48658   8.244   5.904  14.054
76399W        W48659  22.927  25.176   3.149
76400W        W48660  44.042   1.007   1.183
76401W        W48661  35.784   0.750  13.530
76402W        W48662  43.905  26.445   2.846
76403W        W48663   1.529  37.098  13.969
76404W        W48664   0.324  23.660   2.363
76405W        W48665  29.223  27.885   0.071
76406W        W48666  43.522  19.029  13.477
76407W        W48667  33.129  42.983  14.994
76408W        W48668  34.954  36.287   4.970
76409W        W48669  29.095  37.938  12.524
76410W        W48670   5.363   1.441  14.393
76411W        W48671  38.475   0.924   3.167
76412W        W48672  12.234  37.420   0.822
76413W        W48673  37.337  21.966  13.461
76414W        W48674  34.893  13.379   0.912
76415W        W48675  18.429   9.774   1.965
76416W        W48676   8.038  27.448   5.434
76417W        W48677  38.495  31.047   3.135
76418W        W48678  30.197   6.657   0.429
76419W        W48679  28.424  31.591  12.336
76420W        W48680  11.237   4.176   1.427
76421W        W48681  40.940   0.314   0.634
76422W        W48682  42.542  35.227  14.895
76423W        W48683  44.748  26.242  11.131
76424W        W48684  20.093  40.371   4.066
76425W        W48685  41.413  39.902  13.975
76426W        W48686   2.867   2.134   1.243
76427W        W48687  18.720  35.868  14.890
76428W        W48688  32.905  42.156  11.254
76429W        W48689  21.051  43.331  14.045
76430W        W48690  41.015   8.335   3.375
76431W        W48691  11.934  39.705   1.907
76432W        W48692  19.758  39.013  13.293
76433W        W48693  37.371  16.457  14.824
76434W        W48694  34.418  43.799  14.961
76435W        W48695  24.987  20.763  13.578
76436W        W48696  29.931  10.667  13.847
76437W        W48697  34.425  11.247   1.752
76438W        W48698  21.973  40.859  12.757
76439W        W48699  11.069  29.009  12.153
76440W        W48700   1.988   6.963  13.420
76441W        W48701  36.595  42.862   4.088
76442W        W48702  10.761  44.735   3.126
76443W        W48703  36.908  19.357  13.865
76444W        W48704  39.870  40.849   0.452
76445W        W48705  34.808   1.198   1.154
76446W        W48706  37.139  28.683  12.096
76447W        W48707  14.846  30.507   5.046
76448W        W48708  10.783   7.931   2.633
76449W        W48709  43.481  15.228   0.399
76450W        W48710  24.615  37.628   4.778
76451W        W48711  41.415  21.057  11.103
76452W        W48712   2.907  44.738  13.667
76453W        W48713  18.253  41.072  11.432
76454W        W48714  28.892  44.634  11.136
76455W        W48715  36.588  17.730   2.693
76456W        W48716   7.696  44.295   0.859
76457W        W48717  21.603  28.760  10.126
76458W        W48718   6.863  39.507   2.405
76459W        W48719   8.213  38.477   2.422
76460W        W48720  39.381  23.463  13.943
76461W        W48721  21.715   8.394  11.195
76462W        W48722  34.533   3.361   2.262
76463W        W48723  28.134  29.732   1.344
76464W        W48724  29.921   3.418  13.495
76465W        W48725  33.576  21.324   4.748
76466W        W48726  24.636  38.556   3.645
76467W        W48727  25.669  21.048   0.800
76468W        W48728  18.668  35.363   4.588
76469W        W48729   0.404   6.262   3.427
76470W        W48730  15.631   0.583   2.817
76471W        W48731  39.275  32.517  13.957
76472W        W48732  16.426   3.018  12.215
76473W        W48733  13.001  44.846   4.191
76474W        W48734  42.777  16.594   1.362
76475W        W48735   8.110  35.148   2.758
76476W        W48736  28.439  41.773   3.285
76477W        W48737  21.516   9.166  11.574
76478W        W48738  10.709   9.916   4.580
76479W        W48739   9.631   1.329  12.000
76480W        W48740  25.106  27.383   2.169
76481W        W48741   4.262  30.753  10.452
76482W        W48742  22.973  10.778  13.901
76483W        W48743  31.629  44.072  13.328
76484W        W48744  38.540  39.170  10.877
76485W        W48745   7.488  40.362   1.822
76486W        W48746  41.808   3.393  13.267
76487W        W48747   5.854  10.627   4.329
76488W        W48748  23.684  23.954  14.918
76489W        W48749  10.884   9.902  14.835
76490W        W48750   0.469  30.137  11.255
76491W        W48751  25.240  13.448  11.118
76492W        W48752  28.849   1.716  13.318
76493W        W48753  21.636  25.299   4.036
76494W        W48754  29.670  41.807   4.060
76495W        W48755   2.269   9.310   3.547
76496W        W48756   9.856  31.375  13.417
76497W        W48757  28.704  30.781  10.500
76498W        W48758  18.247  24.116  13.900
76499W        W48759   5.908  37.010  11.073
76500W        W48760  35.663  10.604   2.657
76501W        W48761  35.073  10.719   1.252
76502W        W48762  21.164  19.823   0.351
76503W        W48763  30.016   8.587   3.134
76504W        W48764  32.658  24.161  13.597
76505W        W48765  11.915   2.000   3.089
76506W        W48766  27.103  36.586   2.262
76507W        W48767  18.537   7.798  13.896
76508W        W48768  24.837  22.055   3.678
76509W        W48769  14.627  14.765  14.972
76510W        W48770  28.538  25.196  14.722
76511W        W48771  19.517  23.949   4.657
76512W        W48772  14.801  14.827   3.693
76513W        W48773   8.769  16.606  14.034
76514W        W48774   1.467   0.544   3.745
76515W        W48775   2.877  20.036   1.327
76516W        W48776   3.683   2.314   0.878
76517W        W48777  24.126  17.595   1.695
76518W        W48778  37.383  36.925  12.949
76519W        W48779  17.823   6.672   0.378
76520W        W48780  18.503  42.492  14.992
76521W        W48781  20.449  24.688  14.931
76522W        W48782  28.685  13.051   3.597
76523W        W48783  10.081  34.907  14.449
76524W        W48784  24.492  16.238  13.892
76525W        W48785  15.463   8.781  14.383
76526W        W48786   2.783  28.845  12.551
76527W        W48787  19.812  23.698  10.754
76528W        W48788   6.385   1.520  14.508
76529W        W48789  24.135  32.949   3.303
76530W        W48790   3.188  44.761  11.851
76531W        W48791  33.071   1.203   2.720
76532W        W48792  44.854  16.598   2.325
76533W        W48793  31.466  41.240   1.913
76534W        W48794  34.687  34.380  14.580
76535W        W48795  32.669  42.928  11.239
76536W        W48796  44.082  17.580   3.575
76537W        W48797   6.753  15.848  10.612
76538W        W48798  19.483  14.696  13.328
76539W        W48799  22.980   8.806   4.220
76540W        W48800  16.093  27.697   2.870
76541W        W48801  36.482  33.411  12.861
76542W        W48802  34.451  41.595   1.816
76543W        W48803  22.766   9.722   2.221
76544W        W48804   1.405  29.942  14.846
76545W        W48805  32.963   9.182  14.059
76546W        W48806  20.306  13.143   1.904
76547W        W48807  34.379  30.887   0.910
76548W        W48808  38.322   1.227   1.788
76549W        W48809  22.761  20.656  12.045
76550W        W48810  27.021  44.028   2.690
76551W        W48811  44.883  21.560   3.332
76552W        W48812  27.651  20.909  12.961
76553W        W48813  21.453  20.670   1.400
76554W        W48814  23.058  42.206   4.728
76555W        W48815   3.795  43.764  12.599
76556W        W48816  27.478  21.047   4.530
76557W        W48817  22.076  11.865   1.393
76558W        W48818  37.818   6.315   2.380
76559W        W48819  12.708  16.586  12.063
76560W        W48820  42.403  28.267   0.209
76561W        W48821  41.847  39.948  11.687
76562W        W48822  36.795  29.120   4.128
76563W        W48823   5.341  41.797   4.474
76564W        W48824  41.821  12.827   5.066
76565W        W48825  24.677   2.885  14.364
76566W        W48826  23.039  40.316   0.393
76567W        W48827   0.449   1.392   2.670
76568W        W48828  26.114  21.134   3.302
76569W        W48829   2.753  37.927  13.861
76570W        W48830  41.430  31.870  13.356
76571W        W48831  43.907  16.219   0.575
76572W        W48832  21.740  29.541  11.094
76573W        W48833  29.395  25.700   2.690
76574W        W48834  34.329  15.075   4.151
76575W        W48835  33.090  31.432  14.442
76576W        W48836  27.977  30.386   5.049
76577W        W48837  31.277   3.928  11.885
76578W        W48838  27.007  41.365  14.913
76579W        W48839  43.965  39.962  11.183
76580W        W48840  39.584  10.784  14.210
76581W        W48841  33.364  19.638  10.652
76582W        W48842  26.358  31.090   3.967
76583W        W48843   3.908   1.760  12.091
76584W        W48844  23.440   9.700  11.107
76585W        W48845   9.170  22.653   2.569
76586W        W48846  41.846   5.884   0.786
76587W        W48847  43.598  15.612  11.207
76588W        W48848  23.214  16.099   2.364
76589W        W48849  28.140  13.150  13.540
76590W        W48850   1.748  28.083   1.055
76591W        W48851   9.422  22.971  11.864
76592W        W48852  34.234   8.717   0.800
76593W        W48853  43.797  18.746   0.201
76594W        W48854  32.596  27.978  10.755
76595W        W48855  10.180  18.287  12.144
76596W        W48856   8.224   0.739  13.546
76597W        W48857  24.615  30.335  14.450
76598W        W48858  10.623  42.051  11.452
76599W        W48859   9.919  13.629   0.435
76600W        W48860  17.544  13.409   3.217
76601W        W48861  30.911  29.850   4.631
76602W        W48862  29.038  42.505  14.486
76603W        W48863  24.202  32.527  10.998
76604W        W48864  37.736  34.267  13.793
76605W        W48865  18.450  13.663  12.576
76606W        W48866  28.446  43.509   1.574
76607W        W48867   8.222  25.135  11.397
76608W        W48868  21.548  29.026   0.827
76609W        W48869   3.459  41.759  12.945
76610W        W48870  18.919  31.923  10.371
76611W        W48871  24.527  35.537   2.678
76612W        W48872  33.596  10.587  13.562
76613W        W48873  13.069  33.961   3.670
76614W        W48874  43.020   8.635   3.084
76615W        W48875  44.931  25.803  14.521
76616W        W48876  39.305   7.086  10.195
76617W        W48877  22.013  38.760  13.526
76618W        W48878  33.645  16.760   3.688
76619W        W48879  34.035  17.816   4.163
76620W        W48880   6.267  39.018   4.979
76621W        W48881  10.071  32.369   1.240
76622W        W48882  15.499  41.927  14.024
76623W        W48883  14.115  10.383   3.278
76624W        W48884  20.478  36.864  12.415
76625W        W48885  36.906  44.890   0.349
76626W        W48886   0.862  15.879  11.031
76627W        W48887  38.839   4.482   3.361
76628W        W48888  43.180  27.040  14.869
76629W        W48889  44.739  24.734   3.265
76630W        W48890  11.229  20.680   0.847
76631W        W48891  32.959  10.204  14.369
76632W        W48892  44.610  19.569   1.908
76633W        W48893   9.437  13.353   2.139
76634W        W48894  44.865   7.593   4.532
76635W        W48895  13.994  31.009   2.249
76636W        W48896  11.203  35.039   4.434
76637W        W48897  17.874  39.189   4.059
76638W        W48898  31.929   8.797  10.124
76639W        W48899  17.206  36.064   9.958
76640W        W48900  30.573  31.322  10.711
76641W        W48901  17.753  10.954  14.524
76642W        W48902  18.665  19.552   4.696
76643W        W48903  24.056   0.404   0.270
76644W        W48904  43.510  33.693  14.061
76645W        W48905  11.780  24.647  12.675
76646W        W48906  32.043  24.661   2.706
76647W        W48907  26.720  29.663   0.774
76648W        W48908  16.447  17.127  12.847
76649W        W48909   5.860  31.957  12.153
76650W        W48910  23.553  15.854  10.906
76651W        W48911  18.026  35.090   2.578
76652W        W48912   9.955  12.518   2.260
76653W        W48913   7.650  38.413   2.399
76654W        W48914  29.586  34.345   1.774
76655W        W48915  15.836  30.047  14.854
76656W        W48916  16.908  42.742  10.300
76657W        W48917  27.630   8.761  14.484
76658W        W48918  36.440  40.926   1.764
76659W        W48919  37.845   5.634  12.033
76660W        W48920   0.908  21.497   2.879
76661W        W48921  22.636  29.883  10.841
76662W        W48922  41.837   2.736   1.936
76663W        W48923  33.350  12.125   2.779
76664W        W48924  33.987   4.827   1.285
76665W        W48925  25.676  37.819   2.354
76666W        W48926   7.328  11.052   0.912
76667W        W48927  33.993  38.988  13.291
76668W        W48928   7.914  29.574   4.602
76669W        W48929   5.308   3.035   0.808
76670W        W48930  14.714   9.078  10.391
76671W        W48931   7.773   0.959   1.832
76672W        W48932  35.862  42.757   3.670
76673W        W48933   5.465  10.301  11.402
76674W        W48934   5.177  27.616  13.168
76675W        W48935  14.833  39.920   1.359
76676W        W48936  24.328  38.429   0.659
76677W        W48937   7.158  33.869   1.833
76678W        W48938   2.972  32.442   2.400
76679W        W48939  41.241   3.608   1.824
76680W        W48940   5.407  30.304   4.600
76681W        W48941  30.730  12.535  12.953
76682W        W48942   1.227  14.161   2.734
76683W        W48943  30.088  28.966   2.840
76684W        W48944  19.331  27.674  10.672
76685W        W48945  16.475  12.133   0.812
76686W        W48946  37.226   1.296   2.550
76687W        W48947  25.790  37.698  13.088
76688W        W48948  38.013   7.549  10.616
76689W        W48949  38.368  14.789   1.756
76690W        W48950  33.664  34.579  13.816
76691W        W48951  24.930  24.266  13.995
76692W        W48952  12.800   3.739  13.935
76693W        W48953  32.087  34.389   3.291
76694W        W48954  18.164  10.162  12.996
76695W        W48955  14.104  40.460   1.744
76696W        W48956  29.409  16.521  12.080
76697W        W48957   9.147  24.048   3.693
76698W        W48958   5.019  20.274  13.555
76699W        W48959  29.875  37.365  14.000
76700W        W48960   7.803  32.323   4.097
76701W        W48961   5.109   5.628   4.228
76702W        W48962   0.201  19.509   0.177
76703W        W48963  26.000  38.641  13.985
76704W        W48964  17.280   5.506  11.138
76705W        W48965  10.793   8.185   0.477
76706W        W48966  14.143  23.849  14.722
76707W        W48967  37.854   5.346   3.718
76708W        W48968   2.159  15.111   3.241
76709W        W48969   3.035  32.957  12.154
76710W        W48970  41.866  29.878   4.322
76711W        W48971  40.045  16.750   2.769
76712W        W48972  14.411   5.548  14.952
76713W        W48973  29.167  21.551   0.291
76714W        W48974   0.499  23.050  10.391
76715W        W48975   4.768  27.567   1.506
76716W        W48976   0.297  23.991  14.455
76717W        W48977  11.946  15.254   3.136
76718W        W48978  41.427  17.294  13.730
76719W        W48979  13.618  15.900  12.649
76720W        W48980  12.202   4.789  13.396
76721W        W48981  11.675   8.669   1.355
76722W        W48982  22.531  18.153  14.356
76723W        W48983  22.646  44.610   0.884
76724W        W48984   5.370   9.123  12.144
76725W        W48985  39.846  25.670   3.710
76726W        W48986  19.220  10.284   0.803
76727W        W48987  37.368  42.879   1.262
76728W        W48988  31.008  19.268  14.299
76729W        W48989  21.973  18.239  12.477
76730W        W48990  36.041  36.013   0.511
76731W        W48991  39.283  10.701   4.096
76732W        W48992  40.576  32.474   3.589
76733W        W48993  10.280  11.328  10.768
76734W        W48994  17.321  39.885  13.325
76735W        W48995  31.967  36.871  13.935
76736W        W48996  38.507   1.893  12.040
76737W        W48997   0.876  37.014   3.740
76738W        W48998  44.064   9.287  14.804
76739W        W48999  14.771   7.365   0.866
76740W        W49000   1.893   7.771  12.667
76741W        W49001  16.589   1.327  11.626
76742W        W49002   8.767  19.379  10.771
76743W        W49003  38.759   5.234  11.212
76744W        W49004  13.671  17.660  10.696
76745W        W49005  40.471  31.488   3.629
76746W        W49006   4.905  32.515   0.877
76747W        W49007  20.796   6.753  13.153
76748W        W49008  39.702  24.529   1.777
76749W        W49009  24.565  18.997  12.117
76750W        W49010  30.234  40.695  14.383
76751W        W49011   3.348  16.368   4.164
76752W        W49012  23.795  38.330   3.099
76753W        W49013   6.472  41.840   2.446
76754W        W49014  16.968  22.146  14.022
76755W        W49015   7.214  16.159  10.709
76756W        W49016  17.245  36.451  13.829
76757W        W49017  20.465   1.844   4.529
76758W        W49018  18.084  20.974   0.192
76759W        W49019  42.618  15.306  12.141
76760W        W49020  14.121  19.586   1.725
76761W        W49021  36.837  35.952  14.369
76762W        W49022  14.557  12.196   3.391
76763W        W49023  26.898  21.119  10.049
76764W        W49024  23.819   6.740  13.025
76765W        W49025  30.010  10.901  12.812
76766W        W49026  16.828  40.486   2.251
76767W        W49027  12.354   4.314   1.999
76768W        W49028   8.257  37.814  14.595
76769W        W49029  17.733  17.070  14.781
76770W        W49030   0.827   7.324   2.753
76771W        W49031   8.984  28.215  11.472
76772W        W49032   7.882  19.018  12.310
76773W        W49033   6.892  17.641  12.144
76774W        W49034  30.026  40.443  11.648
76775W        W49035   6.241  20.685   3.776
76776W        W49036  10.233  34.559   2.396
76777W        W49037  21.964   4.225   0.316
76778W        W49038  14.736  25.870   0.700
76779W        W49039  20.036   3.392  11.386
76780W        W49040  14.691  16.199  11.282
76781W        W49041  41.411  10.685  14.942
76782W        W49042  18.539  14.017   2.727
76783W        W49043  18.543   1.611   3.338
76784W        W49044  40.608   3.577  10.778
76785W        W49045  15.655  30.632   1.195
76786W        W49046  31.012  25.018   3.155
76787W        W49047  16.793  37.935  14.843
76788W        W49048  23.288  39.023   2.389
76789W        W49049  13.739  40.975  13.476
76790W        W49050  14.933  30.097   1.171
76791W        W49051   7.224  10.313   2.363
76792W        W49052   1.962  43.546  14.770
76793W        W49053  14.797  31.701   3.783
76794W        W49054  15.790  17.046   2.260
76795W        W49055   9.651   1.446   1.764
76796W        W49056   1.921   4.684  11.150
76797W        W49057  32.682  15.553  13.000
76798W        W49058   7.059  28.977  12.418
76799W        W49059  11.633   3.693  13.879
76800W        W49060  23.533   6.108   3.037
76801W        W49061   1.541   5.321   3.536
76802W        W49062  43.182  21.576  11.440
76803W        W49063  14.383  18.182  13.800
76804W        W49064   9.393  32.205  14.930
76805W        W49065  12.094  13.072   0.895
76806W        W49066  29.008   7.910  14.090
76807W        W49067  25.049   5.192  14.941
76808W        W49068  23.304  39.066   3.209
76809W        W49069  25.906   1.431  11.845
76810W        W49070  20.289  27.490   1.163
76811W        W49071  36.513  24.135  14.218
76812W        W49072  26.184  31.092  11.607
76813W        W49073  16.221  30.194   0.534
76814W        W49074  41.315  26.502   2.680
76815W        W49075  17.774  17.277   1.379
76816W        W49076  29.857   8.701  11.585
76817W        W49077   5.248  21.283  12.515
76818W        W49078   0.200  31.704   4.199
76819W        W49079  20.246  35.953  12.816
76820W        W49080  42.514  36.146   3.715
76821W        W49081  16.221  17.161  10.030
76822W        W49082  22.249   4.956  12.600
76823W        W49083   2.704  19.756  11.497
76824W        W49084  12.237  29.174   4.499
76825W        W49085  13.238  36.934  12.814
76826W        W49086  18.626  15.735   0.295
76827W        W49087   3.737  36.103  10.913
76828W        W49088   5.791  14.416  14.022
76829W        W49089   6.144   6.761   1.249
76830W        W49090  31.259  13.260  13.999
76831W        W49091   4.832  29.900   2.162
76832W        W49092  30.435  19.797  11.940
76833W        W49093  41.917  18.281  12.857
76834W        W49094  31.061  31.807  10.134
76835W        W49095  27.152   7.305  12.599
76836W        W49096  21.225  25.433   3.219
76837W        W49097  33.541  30.112   1.752
76838W        W49098  13.599  22.017  12.448
76839W        W49099  27.018  43.007  12.046
76840W        W49100   9.207  12.847   0.212
76841W        W49101  38.428  35.563  11.409
76842W        W49102   4.635   7.459   5.024
76843W        W49103  38.282  33.091   3.721
76844W        W49104  44.724  42.846   4.562
76845W        W49105  19.191  22.495  13.431
76846W        W49106   6.741  31.898  11.615
76847W        W49107  17.211  34.433   2.426
76848W        W49108  16.288  35.160   1.354
76849W        W49109  26.830  25.380   4.267
76850W        W49110  22.282  26.028   2.231
76851W        W49111   8.777  16.095   4.685
76852W        W49112   7.743  10.237  12.406
76853W        W49113  28.552  18.108   0.223
76854W        W49114  44.211   6.823  12.148
76855W        W49115  10.344   9.874  14.040
76856W        W49116   3.335   1.677   1.265
76857W        W49117   3.847  27.388  12.983
76858W        W49118  39.531  21.058   3.072
76859W        W49119  39.820  19.187  12.937
76860W        W49120  42.339  23.385  11.753
76861W        W49121  32.116  26.070  14.362
76862W        W49122   6.337  21.484   4.254
76863W        W49123  17.354  21.487  11.909
76864W        W49124  22.801  12.006  13.467
76865W        W49125  11.814  18.397   4.230
76866W        W49126  11.807  16.138  12.095
76867W        W49127  12.432  32.698  12.480
76868W        W49128  42.484  40.048   0.949
76869W        W49129  31.535  33.110   2.938
76870W        W49130  15.820  43.392   4.433
76871W        W49131  10.365   9.089   0.068
76872W        W49132  37.394  30.417  11.564
76873W        W49133  20.640  13.807   2.307
76874W        W49134  44.845  33.446   4.549
76875W        W49135  38.876  37.583  13.094
76876W        W49136  32.511   8.226   1.472
76877W        W49137   0.268  38.583  13.489
76878W        W49138  14.110  39.355  14.075
76879W        W49139  15.928  30.274   3.574
76880W        W49140  24.991  41.645  14.837
76881W        W49141  41.267  26.890   2.322
76882W        W49142  15.385  22.846   4.862
76883W        W49143   0.361  12.061  14.611
76884W        W49144  29.593   5.211  10.512
76885W        W49145   7.227  36.243  11.995
76886W        W49146  25.042  10.729  13.812
76887W        W49147  32.513  23.622   0.315
76888W        W49148  44.908   5.672  13.494
76889W        W49149   5.514   9.962   0.466
76890W        W49150  17.147   4.346  12.923
76891W        W49151  26.152  14.628  12.113
76892W        W49152   0.057  22.967  13.864
76893W        W49153  21.726  42.751  11.170
76894W        W49154  20.814  26.110  12.822
76895W        W49155  32.500  32.847   3.770
76896W        W49156  38.958  24.912   0.931
76897W        W49157   7.347  10.535   1.885
76898W        W49158  31.547  12.616   1.770
76899W        W49159  37.790   5.715   1.870
76900W        W49160  16.061  25.083   2.238
76901W        W49161  14.016   4.478  14.788
76902W        W49162  22.189   7.214   3.332
76903W        W49163  28.466  21.239  14.533
76904W        W49164  12.577  42.960  12.514
76905W        W49165  25.380  36.995  13.579
76906W        W49166   5.818   1.858   2.694
76907W        W49167  34.094  19.085   1.711
76908W        W49168  36.380  13.019  13.436
76909W        W49169  30.903  13.688  11.607
76910W        W49170  21.400  14.601  14.957
76911W        W49171  34.466  22.218  12.901
76912W        W49172  29.989  33.879   1.462
76913W        W49173  39.304  42.605   4.777
76914W        W49174  16.518   2.181   0.428
76915W        W49175  26.104   2.990  13.032
76916W        W49176  33.961   4.928  14.326
76917W        W49177   8.979  39.044   0.728
76918W        W49178  29.271   3.847  12.082
76919W        W49179   7.152  34.147   0.402
76920W        W49180  37.858  31.839  12.461
76921W        W49181  10.719  22.598   0.862
76922W        W49182   5.877  25.732   5.022
76923W        W49183  14.836  22.562   4.497
76924W        W49184  30.905  40.127   1.778
76925W        W49185  42.530  26.296   1.686
76926W        W49186  21.810  39.337  12.552
76927W        W49187   5.804  27.071   3.374
76928W        W49188  36.080   0.387  12.551
76929W        W49189  18.213   4.825  11.960
76930W        W49190  26.122  36.051   4.509
76931W        W49191  20.626  22.180   1.433
76932W        W49192  30.919  35.790  10.872
76933W        W49193   4.388   3.560  12.577
76934W        W49194  44.591   5.881   2.371
76935W        W49195  18.075  15.734  13.843
76936W        W49196   3.393  16.611   4.609
76937W        W49197   9.252  39.488   3.397
76938W        W49198  26.600   9.795   4.566
76939W        W49199  14.674  42.826  11.982
76940W        W49200  24.492  35.642  11.634
76941W        W49201  11.587  22.777   1.840
76942W        W49202  41.018  12.102   0.814
76943W        W49203   3.227  12.690  12.510
76944W        W49204  18.581  33.939  11.125
76945W        W49205  11.656  18.966   4.350
76946W        W49206  38.855  22.082   4.167
76947W        W49207  42.799  33.162   0.123
76948W        W49208  41.866  29.652  12.460
76949W        W49209   0.246  14.201   1.168
76950W        W49210  38.728  27.443   1.653
76951W        W49211  23.880  29.274  14.284
76952W        W49212   9.427  23.039   2.843
76953W        W49213  10.819   6.666   5.024
76954W        W49214   1.385  39.397  13.774
76955W        W49215  19.941  19.254  13.356
76956W        W49216   2.879  39.337   3.431
76957W        W49217   8.768  15.084   1.723
76958W        W49218  23.383  27.984  14.532
76959W        W49219  25.263   2.724  10.551
76960W        W49220  14.168  33.408   1.918
76961W        W49221  38.105  37.271   2.295
76962W        W49222   7.877  18.689  14.221
76963W        W49223  20.774   4.704   3.224
76964W        W49224   8.741  33.506  14.785
76965W        W49225  37.861  29.541   0.851
76966W        W49226   9.778  38.465  12.651
76967W        W49227  41.523  32.919   3.151
76968W        W49228  36.683   8.310   4.215
76969W        W49229  24.109  20.596   0.445
76970W        W49230  17.937   0.706   2.358
76971W        W49231  12.794  24.066   2.770
76972W        W49232  22.698   8.629  11.509
76973W        W49233   5.175  31.128  10.629
76974W        W49234   5.420  35.751  11.177
76975W        W49235  43.049   9.997  13.451
76976W        W49236  19.847  13.869   4.242
76977W        W49237  44.339  14.128  10.818
76978W        W49238   7.641  35.869   0.816
76979W        W49239  20.493   0.484   3.815
76980W        W49240  43.131  13.193  13.981
76981W        W49241  25.132  14.655  14.058
76982W        W49242  23.620  17.617  12.513
76983W        W49243  36.886   9.435   9.780
76984W        W49244  18.664  16.170   4.547
76985W        W49245  34.644  26.946   2.344
76986W        W49246   3.446  37.973   2.277
76987W        W49247  20.281   9.220   1.300
76988W        W49248  30.647  29.545  12.753
76989W        W49249  20.108  41.290  11.765
76990W        W49250  12.765  43.254   1.813
76991W        W49251  41.892   2.998   2.397
76992W        W49252  43.851  24.686  14.938
76993W        W49253  20.010  13.513   0.988
76994W        W49254  44.767   0.158   0.032
76995W        W49255   5.143  20.132   0.874
76996W        W49256   3.452  28.472  14.565
76997W        W49257  16.583  12.916   4.598
76998W        W49258  41.702  13.013   1.455
76999W        W49259  18.594  20.480   3.390
77000W        W49260   9.950   9.343  14.805
77001W        W49261  32.047  13.257  14.230
77002W        W49262  35.907  11.891   3.830
77003W        W49263  38.446  28.447  14.702
77004W        W49264  16.440  40.959  13.543
77005W        W49265  19.920  29.557  12.017
77006W        W49266   7.361  21.021   2.348
77007W        W49267  22.940  37.314   1.327
77008W        W49268   8.371  19.342   0.952
77009W        W49269  37.891  18.768  10.233
77010W        W49270  40.296   4.272  14.500
77011W        W49271  17.109  37.161  10.672
77012W        W49272   5.908  19.396   3.644
77013W        W49273   5.217  18.653  11.215
77014W        W49274  34.962  29.395   3.322
77015W        W49275   9.822   0.130  14.282
77016W        W49276  15.695  12.040  13.872
77017W        W49277  38.929  27.570   4.194
77018W        W49278  39.472  16.697   4.733
77019W        W49279  21.807   9.694  12.845
77020W        W49280  31.364  30.517   4.695
77021W        W49281  41.834  19.734  13.983
77022W        W49282  30.401  17.516  11.643
77023W        W49283  33.004   1.661   4.842
77024W        W49284  26.425  31.922  10.885
77025W        W49285  30.912  38.577   2.292
77026W        W49286   9.539  26.133   2.714
77027W        W49287   3.490  43.322   3.562
77028W        W49288  18.228  26.192   4.499
77029W        W49289   3.897  22.249   4.034
77030W        W49290  42.522  40.819   2.256
77031W        W49291  11.814  14.439   2.299
77032W        W49292  11.521  16.270  13.844
77033W        W49293   8.839   8.781   4.930
77034W        W49294   2.392  19.902   1.237
77035W        W49295  38.411  27.595   5.062
77036W        W49296  25.463  21.778  14.071
77037W        W49297  24.688  31.437   3.862
77038W        W49298  32.931   3.966   4.196
77039W        W49299  34.492  16.256   4.635
77040W        W49300  25.289  23.944   2.807
77041W        W49301  33.122  27.455  12.535
77042W        W49302  15.847  31.453  13.298
77043W        W49303  11.900  13.758  11.915
77044W        W49304  35.970   7.462  13.591
77045W        W49305  41.305  38.027   2.961
77046W        W49306   6.156   1.325   1.955
77047W        W49307   5.028  30.982  12.013
77048W        W49308  19.593  43.251   0.032
77049W        W49309  11.176  44.872  14.427
77050W        W49310  36.041  22.458  14.535
77051W        W49311   3.390  32.409  12.773
77052W        W49312   9.100  25.524  13.068
77053W        W49313  31.641   3.466  14.982
77054W        W49314  43.467  22.005  13.480
77055W        W49315  39.507  24.227  11.654
77056W        W49316  33.500   2.374  10.890
77057W        W49317   1.387  24.740  14.333
77058W        W49318  28.625  37.311   1.168
77059W        W49319  23.835  22.162   2.177
77060W        W49320  42.026  15.663  13.762
77061W        W49321  12.690  14.155  11.946
77062W        W49322  23.974  14.678  10.804
77063W        W49323  29.278   1.508   2.914
77064W        W49324  14.590  19.052   1.310
77065W        W49325  42.294  41.072  12.563
77066W        W49326  35.549  29.040  14.745
77067W        W49327  28.965  28.565   3.178
77068W        W49328  19.914  30.524   4.587
77069W        W49329  27.199  33.329   2.568
77070W        W49330  32.612   8.317   2.303
77071W        W49331  23.942  42.096  14.902
77072W        W49332   1.058   8.415   2.880
77073W        W49333  23.613  42.028   1.612
77074W        W49334  20.565  40.954   0.158
77075W        W49335  18.165  11.700  14.360
77076W        W49336  26.129   5.896   1.698
77077W        W49337  28.299   5.373  12.404
77078W        W49338  41.502  12.885   3.719
77079W        W49339  17.726  25.686   0.208
77080W        W49340  43.794  36.903   2.669
77081W        W49341  19.022  33.341  11.610
77082W        W49342  16.930   2.526   4.827
77083W        W49343   3.068  20.269   4.556
77084W        W49344  37.089  11.823  13.997
77085W        W49345  38.897  27.579  14.849
77086W        W49346  32.092  24.245  13.631
77087W        W49347   0.345  23.579   3.659
77088W        W49348  23.209   3.763   1.386
77089W        W49349  15.639  33.664   4.638
77090W        W49350  20.320  25.639   3.124
77091W        W49351  16.824   8.878   2.400
77092W        W49352  27.163  17.823   0.900
77093W        W49353  39.023  34.834   4.635
77094W        W49354  42.358   2.968  11.820
77095W        W49355  41.577  37.954   1.195
77096W        W49356  41.433  40.480  12.796
77097W        W49357  33.038  11.764   0.835
77098W        W49358  37.021   5.632  10.652
77099W        W49359  19.133  19.579   3.835
77100W        W49360  14.309  25.490   2.665
77101W        W49361  39.779   8.586  13.014
77102W        W49362  41.136  20.219  10.755
77103W        W49363  27.899  39.780   3.426
77104W        W49364  35.057  38.346   0.358
77105W        W49365  43.024  26.487   4.602
77106W        W49366  37.985  27.524   3.272
77107W        W49367  12.393  29.578  13.488
77108W        W49368  17.286  23.712   2.360
77109W        W49369  32.143  19.073  11.490
77110W        W49370  16.862  16.177   5.464
77111W        W49371  19.575  38.001  13.242
77112W        W49372  24.190  30.186   1.662
77113W        W49373   6.962  30.633   0.312
77114W        W49374   8.834   9.672  14.335
77115W        W49375  17.023  17.167  11.045
77116W        W49376   6.743  40.256  10.575
77117W        W49377   5.311  10.733  12.075
77118W        W49378  33.002  33.908   3.278
77119W        W49379  33.983  13.332   3.897
77120W        W49380  19.839  22.716  14.961
77121W        W49381  21.503  38.373  14.440
77122W        W49382  24.442   5.858   3.451
77123W        W49383   8.370  12.139  11.552
77124W        W49384  33.526  22.887  11.223
77125W        W49385  14.166  16.903  14.844
77126W        W49386  35.504  17.774   3.283
77127W        W49387  44.408  20.136   4.691
77128W        W49388  32.851   5.754   1.081
77129W        W49389   2.179  39.001  13.923
77130W        W49390   5.854  10.551  11.961
77131W        W49391  39.473  30.844  14.187
77132W        W49392  24.287  23.407   3.309
77133W        W49393  33.797  18.392  14.859
77134W        W49394  11.763   5.993   3.157
77135W        W49395  28.881  39.938  14.752
77136W        W49396  43.528  33.363   2.277
77137W        W49397   4.498   1.549   3.869
77138W        W49398  32.384  24.677   3.467
77139W        W49399  12.602   2.542  14.883
77140W        W49400  16.851  15.870  11.817
77141W        W49401   8.415  40.916   1.125
77142W        W49402  26.160   8.637  12.889
77143W        W49403  18.798  10.958  12.966
77144W        W49404  20.646  25.731  11.143
77145W        W49405   5.668   8.792  14.216
77146W        W49406   3.085  18.689   4.498
77147W        W49407  26.059  44.457   3.327
77148W        W49408  21.663  25.822  10.110
77149W        W49409  10.766   4.406   1.590
77150W        W49410  38.935  16.735  14.058
77151W        W49411  36.284  35.352   2.293
77152W        W49412  22.088   0.645  13.584
77153W        W49413  20.699  15.868   1.378
77154W        W49414   7.682  16.718   2.739
77155W        W49415   4.791   6.176   3.657
77156W        W49416  20.251  41.559  14.404
77157W        W49417  32.372  43.217  10.144
77158W        W49418   2.323  22.156   1.479
77159W        W49419  44.273  32.148  12.333
77160W        W49420   7.976  31.588  11.531
77161W        W49421   8.884  43.728   1.592
77162W        W49422  20.018   4.986  14.846
77163W        W49423  42.856  13.772  13.405
77164W        W49424  35.614  44.906   2.943
77165W        W49425  31.562  25.713   2.146
77166W        W49426   7.440  40.925   1.407
77167W        W49427  34.885   7.401  10.937
77168W        W49428  21.205  24.071  14.827
77169W        W49429   5.660  35.281  12.623
77170W        W49430  40.219  15.646   3.159
77171W        W49431  14.613   9.533  12.317
77172W        W49432  25.434   2.249   4.536
77173W        W49433  12.814  13.353   4.837
77174W        W49434  27.150  19.177  13.892
77175W        W49435  44.981  17.692   4.362
77176W        W49436  10.323   0.188   0.394
77177W        W49437  42.065  18.093   3.367
77178W        W49438  19.022  29.028   3.255
77179W        W49439  33.975   4.174   3.287
77180W        W49440  28.393   7.993  10.480
77181W        W49441   7.246  25.662  12.954
77182W        W49442  26.664  34.507  14.027
77183W        W49443   7.327  36.892   1.049
77184W        W49444  30.583  29.097  13.513
77185W        W49445  25.110  41.649  13.453
77186W        W49446   8.154  42.675  11.511
77187W        W49447   9.212  15.686  14.378
77188W        W49448  22.403  32.141  12.308
77189W        W49449  15.702  22.448   0.757
77190W        W49450  23.206   8.179  11.867
77191W        W49451  33.081  18.959  11.062
77192W        W49452   5.449  12.165   1.890
77193W        W49453  22.686  19.985  13.317
77194W        W49454  43.321   7.421   0.948
77195W        W49455  18.335  19.807  11.988
77196W        W49456  15.083  26.493  10.712
77197W        W49457  29.028  18.088   1.018
77198W        W49458  29.577  34.059   3.879
77199W        W49459  37.540   5.635  10.937
77200W        W49460  31.246  21.012   4.201
77201W        W49461   8.156  33.437   0.741
77202W        W49462  40.561   3.770  13.039
77203W        W49463  43.216  25.152   2.953
77204W        W49464  34.381  36.860  14.101
77205W        W49465  18.465  31.935  11.151
77206W        W49466  26.913   8.256  13.004
77207W        W49467   4.137  39.309   4.932
77208W        W49468   2.520  42.408   3.861
77209W        W49469  28.212   1.326   1.378
77210W        W49470  35.961  29.343  13.644
77211W        W49471   6.282   3.977   2.852
77212W        W49472  37.767  40.355   1.345
77213W        W49473   6.755   4.567  10.873
77214W        W49474  17.990  40.105   1.301
77215W        W49475  41.946   0.609  10.737
77216W        W49476   7.666   2.126  11.547
77217W        W49477  14.676  21.155  13.875
77218W        W49478  18.692   4.015  11.139
77219W        W49479  37.375  43.901   4.116
77220W        W49480  23.597  44.028   2.909
77221W        W49481  38.337  11.456  12.047
77222W        W49482   5.288  14.232   4.535
77223W        W49483  11.645   6.375   5.041
77224W        W49484  24.879  30.355  13.980
77225W        W49485  23.551  18.611  12.763
77226W        W49486  24.719  38.615   2.759
77227W        W49487  21.586  25.136  13.396
77228W        W49488  27.060   8.214  14.895
77229W        W49489  13.741  16.693  11.344
77230W        W49490  28.909  41.713  12.139
77231W        W49491  29.382  24.113   1.996
77232W        W49492  30.487  36.759  12.674
77233W        W49493  41.854   9.343  14.083
77234W        W49494  28.484  26.945  13.660
77235W        W49495  38.533   1.496   3.521
77236W        W49496   8.134  30.919  14.512
77237W        W49497  35.574   5.311   1.987
77238W        W49498  20.719  38.266   4.163
77239W        W49499  26.003  38.361   4.083
77240W        W49500  13.693   9.794  11.416
77241W        W49501   7.945  12.514  10.699
77242W        W49502  41.975  32.369   1.085
77243W        W49503  26.110  33.899  13.892
77244W        W49504  14.090  27.486   0.336
77245W        W49505  18.537  24.435  12.177
77246W        W49506   5.030   2.603   0.708
77247W        W49507  19.473   5.241   3.574
77248W        W49508  27.516  19.243  12.437
77249W        W49509  37.721  31.108  14.288
77250W        W49510  36.912   6.175  10.566
77251W        W49511  14.346  25.153  11.566
77252W        W49512  30.102  41.954   1.772
77253W        W49513  11.712  30.942  11.119
77254W        W49514  13.745  18.090  10.433
77255W        W49515  42.370  35.408  10.428
77256W        W49516  13.771  40.505   1.314
77257W        W49517  16.090   5.925   2.192
77258W        W49518   6.466  33.915   1.228
77259W        W49519  39.937  43.029   1.321
77260W        W49520   5.282  17.616  10.606
77261W        W49521  10.364  44.592  13.336
77262W        W49522   7.632  23.893  11.133
77263W        W49523   1.273   9.262   2.631
77264W        W49524  33.468  27.464  14.882
77265W        W49525  28.528  10.280  10.574
77266W        W49526  22.392   6.236  14.405
77267W        W49527  21.689   4.352  12.306
77268W        W49528   6.839  28.709   4.148
77269W        W49529  14.549  36.663  14.943
77270W        W49530   6.188  22.801  11.144
77271W        W49531  41.428  32.912  10.815
77272W        W49532  23.025  19.475   2.385
77273W        W49533  13.773  11.144   3.727
77274W        W49534  21.451  37.674   1.042
77275W        W49535   0.007   9.404  14.431
77276W        W49536  22.656   2.919  11.563
77277W        W49537   4.748  21.300  10.156
77278W        W49538  13.345  11.008   2.214
77279W        W49539  32.568  28.289  13.499
77280W        W49540  28.162  42.814  10.533
77281W        W49541   9.798  30.105   1.315
77282W        W49542  23.769  25.384  12.486
77283W        W49543  34.078  10.820   0.789
77284W        W49544   8.004  26.782   1.636
77285W        W49545  36.335  32.870   0.950
77286W        W49546   1.748  11.899   4.689
77287W        W49547  24.942  27.136   9.988
77288W        W49548   9.888   7.855   4.252
77289W        W49549  43.038  36.372  12.366
77290W        W49550  22.069  33.598   3.677
77291W        W49551  15.202  25.183   4.077
77292W        W49552  21.877  11.715   3.211
77293W        W49553  14.016   6.210   0.635
77294W        W49554   3.726  18.058   0.906
77295W        W49555  43.243  27.591  13.626
77296W        W49556   2.257  22.084  14.618
77297W        W49557   8.760  32.101  11.621
77298W        W49558   7.033  25.799  11.501
77299W        W49559  40.600   5.909  11.148
77300W        W49560  39.355  13.787   0.404
77301W        W49561  35.085  14.654  13.719
77302W        W49562  14.746  15.130   1.301
77303W        W49563  38.260  25.491  12.402
77304W        W49564  16.712  35.887   1.078
77305W        W49565  10.403   6.789   0.198
77306W        W49566  27.466  29.223  14.416
77307W        W49567  12.438  14.563  12.183
77308W        W49568   3.984  31.800  14.496
77309W        W49569  10.344  10.344   2.909
77310W        W49570  18.849   2.787  12.853
77311W        W49571   4.254  18.851   0.230
77312W        W49572  42.368  21.983   3.404
77313W        W49573  21.550   9.589   4.555
77314W        W49574  24.658  31.939   3.777
77315W        W49575  13.886  35.975  13.088
77316W        W49576  28.582  42.809  11.513
77317W        W49577  14.241   8.408   2.187
77318W        W49578  24.567  32.981   0.912
77319W        W49579  33.237  37.432  13.566
77320W        W49580  22.217  12.398   3.668
77321W        W49581  12.267  39.126   4.169
77322W        W49582  41.082   8.011   4.356
77323W        W49583   5.842  31.957   3.588
77324W        W49584   8.132  13.264  12.070
77325W        W49585  16.248   3.219  13.802
77326W        W49586  14.856  20.168   2.032
77327W        W49587  32.467  28.657   4.650
77328W        W49588  17.254  23.186   2.406
77329W        W49589   6.816  43.157   4.323
77330W        W49590  41.495  21.982  13.338
77331W        W49591  39.673  13.131  14.250
77332W        W49592  34.545  33.721   0.520
77333W        W49593  14.284   7.792   0.480
77334W        W49594   5.859  13.819  13.340
77335W        W49595  26.155   2.970   1.705
77336W        W49596   9.170  43.592   4.263
77337W        W49597   5.928  22.626   3.720
77338W        W49598  30.806   2.905  14.362
77339W        W49599  36.292  39.605   0.459
77340W        W49600  36.350   9.510   2.208
77341W        W49601  32.051   2.828  11.204
77342W        W49602  30.257  35.350   0.453
77343W        W49603  11.628  32.865   2.214
77344W        W49604  38.495  21.539  12.914
77345W        W49605  30.848  13.159  12.393
77346W        W49606  30.739  26.647  11.901
77347W        W49607  14.633  21.570   4.503
77348W        W49608  37.466   0.989   1.810
77349W        W49609  21.640  34.818   2.556
77350W        W49610  26.238  32.153   1.323
77351W        W49611  29.918  43.874   2.419
77352W        W49612  36.588   3.377   2.298
77353W        W49613  13.090  44.928   1.489
77354W        W49614  43.800  13.303   2.946
77355W        W49615   4.262  14.255   2.354
77356W        W49616  13.714  33.635  10.355
77357W        W49617  19.553  26.253  10.934
77358W        W49618   1.880  25.130   4.159
77359W        W49619  26.276  22.045   3.375
77360W        W49620  35.302   4.227   4.095
77361W        W49621  25.571  42.377   3.262
77362W        W49622  40.330  30.479  12.191
77363W        W49623  36.494   2.884   4.952
77364W        W49624  13.149   1.978   0.535
77365W        W49625  32.803  23.326   4.662
77366W        W49626  32.211  33.286  10.902
77367W        W49627   0.402  35.955   1.418
77368W        W49628   5.206  31.590   3.456
77369W        W49629  23.811  43.956  12.975
77370W        W49630  29.491  21.188  11.660
77371W        W49631  36.280  34.811   2.805
77372W        W49632  32.458  20.631  11.525
77373W        W49633  10.140  16.650  13.744
77374W        W49634  28.059  38.849  13.533
77375W        W49635  17.591  22.551   4.230
77376W        W49636  36.425  34.713  14.781
77377W        W49637   1.677  25.662   2.369
77378W        W49638   5.818  43.746  14.852
77379W        W49639  34.366  15.298   3.112
77380W        W49640  23.141  10.944   0.303
77381W        W49641  14.768   5.011  11.774
77382W        W49642  29.024  14.317   2.870
77383W        W49643  40.393  44.349  12.487
77384W        W49644  23.598  23.948  11.224
77385W        W49645   1.744  40.258   0.271
77386W        W49646  10.944  27.690  14.830
77387W        W49647  30.454   9.875   5.094
77388W        W49648  25.627  42.418  10.041
77389W        W49649  42.082  32.898   0.603
77390W        W49650  12.245  11.290   2.517
77391W        W49651  25.130  13.798  14.962
77392W        W49652   0.833  38.058   3.780
77393W        W49653   1.503  31.663  12.568
77394W        W49654  42.561  24.640  11.562
77395W        W49655   2.511  25.584   1.665
77396W        W49656  13.700  19.339   1.903
77397W        W49657   9.143  18.327  11.086
77398W        W49658  25.444   6.757  11.131
77399W        W49659   4.668  20.018  12.869
77400W        W49660  11.170  35.700  13.648
77401W        W49661  15.305  38.129   2.411
77402W        W49662  34.148  37.442  14.414
77403W        W49663   3.787  34.116  11.505
77404W        W49664  40.999  28.978  12.485
77405W        W49665  21.234  35.019   3.333
77406W        W49666   0.548  44.502  11.529
77407W        W49667  25.244  29.009   3.011
77408W        W49668  22.009  28.571  12.234
77409W        W49669  24.915  19.730   4.199
77410W        W49670  29.178  26.919  11.042
77411W        W49671  37.127  26.399   0.331
77412W        W49672  13.372  19.891   2.270
77413W        W49673  30.369   8.742  11.591
77414W        W49674  36.917  40.177   1.820
77415W        W49675  24.222  10.407   2.833
77416W        W49676  11.919  38.932  12.951
77417W        W49677  15.521  18.127  10.945
77418W        W49678  15.848  20.012  11.136
77419W        W49679  19.750  40.436  12.681
77420W        W49680  21.737   7.627   0.331
77421W        W49681  13.199  31.883   3.786
77422W        W49682  22.268  31.717   4.550
77423W        W49683  35.024  42.554  10.404
77424W        W49684  11.337  17.292   2.832
77425W        W49685   2.943  26.077   1.357
77426W        W49686   3.299  23.040  14.369
77427W        W49687  15.821  18.490  12.065
77428W        W49688  29.088  35.117   4.499
77429W        W49689  22.988  32.653  12.112
77430W        W49690  33.899   8.120  13.484
77431W        W49691  39.991   6.409   3.685
77432W        W49692  30.574  13.022  12.813
77433W        W49693  24.179   2.482   0.009
77434W        W49694  33.076   1.779   0.974
77435W        W49695  32.153  44.807   5.079
77436W        W49696  24.830  12.089  14.961
77437W        W49697   6.227  19.515   1.323
77438W        W49698  35.147  43.349   0.211
77439W        W49699  35.668   5.429  10.729
77440W        W49700   7.623  32.566   1.235
77441W        W49701  10.731  11.899  11.713
77442W        W49702  29.016  23.534  13.859
77443W        W49703   6.395  11.112  10.615
77444W        W49704   1.632  20.569   1.300
77445W        W49705  21.266  26.552   4.695
77446W        W49706  14.080  44.927   4.127
77447W        W49707  19.041  12.643  12.865
77448W        W49708  40.010   3.419  14.503
77449W        W49709  34.507   3.675  12.149
77450W        W49710  22.211   7.400  13.895
77451W        W49711  17.240  22.208  13.573
77452W        W49712  32.445  18.313  13.277
77453W        W49713   2.537  28.153  13.414
77454W        W49714  36.057  28.829   1.495
77455W        W49715  41.983  33.998   3.123
77456W        W49716  11.690  19.997   4.174
77457W        W49717  41.304  11.690   0.481
77458W        W49718  16.794  28.348  10.645
77459W        W49719  19.707   9.781   0.316
77460W        W49720  29.868  11.672   3.703
77461W        W49721   9.672  20.309  11.622
77462W        W49722   2.937  28.908   1.773
77463W        W49723  35.531  24.414  14.476
77464W        W49724  34.514   1.471   4.612
77465W        W49725  43.945  11.702   2.179
77466W        W49726  34.101  16.565   0.728
77467W        W49727  42.560  36.574   0.019
77468W        W49728  16.231  22.245   2.945
77469W        W49729   1.195  37.427   0.665
77470W        W49730  28.707   5.210   0.280
77471W        W49731   7.771  10.202   0.654
77472W        W49732  32.475  27.932   0.966
77473W        W49733  24.385   6.235  10.705
77474W        W49734   5.317  43.297  11.544
77475W        W49735  43.907  30.138   0.413
77476W        W49736   3.192   6.603  12.623
77477W        W49737  14.060   1.334  10.736
77478W        W49738  26.115   8.276   3.159
77479W        W49739  34.348  12.167   0.907
77480W        W49740  15.653  29.667  14.542
77481W        W49741  17.481  17.279  12.884
77482W        W49742  25.959  18.076   1.321
77483W        W49743  16.926  10.302  10.145
77484W        W49744   0.419   2.395   2.220
77485W        W49745  16.298   7.658  13.840
77486W        W49746   3.131  13.162  10.886
77487W        W49747  26.288  22.002   4.778
77488W        W49748   0.488  35.403   4.059
77489W        W49749  17.376  24.711  10.832
77490W        W49750   3.405  44.950   0.549
77491W        W49751  18.301  32.882  10.669
77492W        W49752  16.107  43.246   0.576
77493W        W49753  15.452  43.003   0.288
77494W        W49754  25.116   4.921  14.501
77495W        W49755  15.334   4.962  10.606
77496W        W49756  40.474  29.871   4.185
77497W        W49757  10.640  39.565  12.846
77498W        W49758  36.045   4.437  11.571
77499W        W49759  38.427  23.221   2.345
77500W        W49760   8.181  30.828  10.699
77501W        W49761  32.697  43.717  13.369
77502W        W49762  22.785   5.599   3.724
77503W        W49763  28.456  16.614  12.423
77504W        W49764  41.350   3.878   4.564
77505W        W49765  28.196  30.419  14.321
77506W        W49766  18.192  27.392   3.190
77507W        W49767  24.409  40.393   3.179
77508W        W49768  36.373  13.338  10.904
77509W        W49769  34.510  10.270  12.057
77510W        W49770  37.603   3.717  12.507
77511W        W49771  12.240   9.219   4.860
77512W        W49772  36.910  29.782  14.935
77513W        W49773  40.389  34.912  11.954
77514W        W49774   1.468  17.692  14.648
77515W        W49775  13.822  37.090  10.609
77516W        W49776   2.436   2.946   4.480
77517W        W49777  29.223  27.804   1.455
77518W        W49778   5.446  36.523  13.487
77519W        W49779  30.872  10.024   0.425
77520W        W49780  37.576  11.618  13.892
77521W        W49781   5.404  21.098   4.136
77522W        W49782  10.073  15.891   0.814
77523W        W49783  43.406   0.147  13.975
77524W        W49784  32.890  26.653  11.981
77525W        W49785  41.389  43.011   0.663
77526W        W49786  11.722  40.417  13.320
77527W        W49787  13.883  31.544   4.011
77528W        W49788   5.601   2.812   0.410
77529W        W49789   3.069   7.118  14.394
77530W        W49790  40.430  25.224  11.523
77531W        W49791  21.333  34.588  12.848
77532W        W49792  34.489  37.827  13.654
77533W        W49793  36.706   0.479  14.473
77534W        W49794   0.377  27.578  14.406
77535W        W49795  27.017  22.519   4.633
77536W        W49796  28.233  43.575  11.620
77537W        W49797  13.252  38.056   3.634
77538W        W49798  33.538  37.132   0.540
77539W        W49799  24.759   3.332   3.856
77540W        W49800  23.000  20.505   5.037
77541W        W49801  24.739  12.071   4.604
77542W        W49802  42.575  15.559  11.121
77543W        W49803  43.665  24.003   0.746
77544W        W49804  36.744  28.608   1.232
77545W        W49805  39.839   9.332  12.092
77546W        W49806  36.441   6.681  11.129
77547W        W49807  39.109   4.685  12.975
77548W        W49808  40.215  14.450   4.508
77549W        W49809  32.464  32.963   0.949
77550W        W49810  41.464  28.924  11.136
77551W        W49811  28.043  37.638  14.349
77552W        W49812  34.133  42.941   4.540
77553W        W49813  14.611  35.452   0.432
77554W        W49814  41.491  26.108   4.313
77555W        W49815  35.395  21.117   4.596
77556W        W49816  21.466  24.573  14.953
77557W        W49817   3.925  43.380  14.974
77558W        W49818  19.314  24.405  13.660
77559W        W49819   8.746   7.261  10.633
77560W        W49820   2.798  37.060  14.942
77561W        W49821  34.088  41.266  11.244
77562W        W49822  13.090  12.575   5.242
77563W        W49823  12.854  10.438  11.445
77564W        W49824   4.884   5.343   2.317
77565W        W49825  24.460   0.762  13.137
77566W        W49826  24.655  42.099   4.545
77567W        W49827  18.607   9.290   3.601
77568W        W49828   8.341  27.703   0.875
77569W        W49829   0.548  15.116  14.462
77570W        W49830   0.857  43.817   3.691
77571W        W49831  43.731   6.124  12.521
77572W        W49832  44.752  38.492  14.970
77573W        W49833  42.405  21.695  12.868
77574W        W49834  29.441  14.849   3.777
77575W        W49835  19.067  14.427   1.049
77576W        W49836   4.902   6.163   0.679
77577W        W49837  15.181   2.447   2.923
77578W        W49838  26.689  14.078  14.273
77579W        W49839  17.117  25.190  13.522
77580W        W49840  19.409  42.604  11.846
77581W        W49841  44.061  35.561  14.070
77582W        W49842  34.685  18.791   9.862
77583W        W49843  11.762  32.168  12.425
77584W        W49844   4.750  24.620  12.514
77585W        W49845  34.877  44.921  13.224
77586W        W49846  35.051  30.640  10.803
77587W        W49847  42.563  43.710   3.313
77588W        W49848  18.539  33.895   4.130
77589W        W49849  21.125  42.974   3.363
77590W        W49850  10.335  13.867  10.445
77591W        W49851  40.451  15.883   2.739
77592W        W49852  11.875   3.783   3.127
77593W        W49853   1.112   2.926   4.544
77594W        W49854   7.204  11.174  14.534
77595W        W49855  20.938  36.545   1.996
77596W        W49856  23.805  28.952   9.972
77597W        W49857   3.999  29.819   4.091
77598W        W49858  18.267  16.513   4.289
77599W        W49859   4.231   7.571   4.328
77600W        W49860  23.536  38.562   2.193
77601W        W49861  35.882  13.872  11.654
77602W        W49862  40.520  19.586   3.323
77603W        W49863  37.834  35.907   1.240
77604W        W49864  27.798  21.469  14.419
77605W        W49865  19.303   6.630  14.920
77606W        W49866  34.826  23.735  11.454
77607W        W49867  19.713  18.562   3.356
77608W        W49868  24.576   4.271  14.170
77609W        W49869  44.543  30.564   4.155
77610W        W49870  16.847  39.996   1.933
77611W        W49871  14.609  25.923  12.389
77612W        W49872   6.360  37.814   1.715
77613W        W49873  10.830   5.881  11.723
77614W        W49874  41.956  40.209   4.925
77615W        W49875  14.679  26.951   0.724
77616W        W49876  40.419  16.989   1.711
77617W        W49877  17.948  18.052  14.960
77618W        W49878  19.053  25.650   0.439
77619W        W49879   7.919  28.678  14.484
77620W        W49880  39.560  21.962   0.382
77621W        W49881  34.314  15.888  14.922
77622W        W49882  36.990  26.510   3.004
77623W        W49883  29.892   5.974   1.349
77624W        W49884  18.373  20.061   2.398
77625W        W49885  40.650  43.537  13.746
77626W        W49886  12.430  36.786  12.482
77627W        W49887  38.210  37.980  11.515
77628W        W49888  40.382  11.666   0.853
77629W        W49889  38.820  20.727  13.901
77630W        W49890  25.676  17.794  11.600
77631W        W49891  36.260  36.047   1.642
77632W        W49892  34.888   6.474   5.092
77633W        W49893  12.085  12.215   0.470
77634W        W49894  40.648  31.929   4.488
77635W        W49895  15.795  29.132  14.347
77636W        W49896  21.985  44.426   3.158
77637W        W49897  39.328  21.287  11.564
77638W        W49898  23.501  18.087  11.524
77639W        W49899  22.554   6.405  11.936
77640W        W49900  17.062  35.936   3.224
77641W        W49901  25.149  20.257  10.744
77642W        W49902   0.274  29.391  14.006
77643W        W49903  39.629  39.341   3.653
77644W        W49904  39.141  29.498  13.433
77645W        W49905   8.237  12.672  13.446
77646W        W49906  40.511  21.056  13.548
77647W        W49907  41.066  17.606   3.728
77648W        W49908  14.023  43.019   2.639
77649W        W49909   2.274  17.562   3.697
77650W        W49910  34.556  44.595   0.908
77651W        W49911  20.772  44.408   4.092
77652W        W49912  26.252  20.104  12.958
77653W        W49913  38.443  15.759   3.205
77654W        W49914  12.701  15.359   0.159
77655W        W49915  30.128   8.514  10.724
77656W        W49916  25.806  32.721   0.938
77657W        W49917  29.065  42.978   0.448
77658W        W49918  10.758  39.407   0.932
77659W        W49919  15.093   1.361   1.975
77660W        W49920   5.278  28.436   1.384
77661W        W49921   5.463  24.535  11.065
77662W        W49922   2.009   1.960  13.316
77663W        W49923   7.396   4.914   1.887
77664W        W49924   0.674  44.877  13.299
77665W        W49925   6.519  13.559   4.521
77666W        W49926  30.067   5.797   2.670
77667W        W49927  18.963   0.440   1.863
77668W        W49928  30.441  30.658   1.755
77669W        W49929   7.349  23.480   0.386
77670W        W49930  24.426   4.382   0.183
77671W        W49931  24.402  16.599  12.043
77672W        W49932   3.954   4.366   0.958
77673W        W49933  21.778   1.383  12.472
77674W        W49934   3.230  34.425   9.941
77675W        W49935   7.385  43.296  12.703
77676W        W49936  19.153  41.593  13.882
77677W        W49937   8.393  42.525   4.609
77678W        W49938  40.373  36.476  12.880
77679W        W49939  40.548  39.016   1.917
77680W        W49940  35.074   4.809   1.326
77681W        W49941  42.928  39.489   3.789
77682W        W49942   9.152   2.198   2.770
77683W        W49943   9.162  15.329   4.864
77684W        W49944  36.111  26.238   2.256
77685W        W49945   7.367  35.151  14.359
77686W        W49946  30.900  43.298  12.521
77687W        W49947  22.587  28.006  14.914
77688W        W49948   1.526  12.658  14.881
77689W        W49949   1.265  33.928   2.895
77690W        W49950  43.565  29.982   2.352
77691W        W49951  37.877  32.446   1.392
77692W        W49952  23.897  20.818   9.710
77693W        W49953   6.929  40.320  11.865
77694W        W49954  17.211  34.839   4.675
77695W        W49955  31.015  18.488   1.435
77696W        W49956  33.158  12.333  10.185
77697W        W49957   2.232  43.530  10.629
77698W        W49958  17.798  22.498  12.556
77699W        W49959  10.924  32.411  10.798
77700W        W49960   2.216  37.951   3.711
77701W        W49961   6.909   7.249  12.857
77702W        W49962  27.055   3.700  13.174
77703W        W49963  22.351  33.041   4.846
77704W        W49964  13.700  40.296   5.124
77705W        W49965  33.096  10.244   0.897
77706W        W49966  11.184  14.595   2.357
77707W        W49967  40.598  13.877   3.846
77708W        W49968  28.660  17.545   4.785
77709W        W49969  16.960   5.200   2.242
77710W        W49970   1.473  41.484   3.333
77711W        W49971  27.806  40.444  11.938
77712W        W49972   4.954  41.803  14.440
77713W        W49973  18.763  14.717  14.343
77714W        W49974  34.570  17.086  10.810
77715W        W49975  39.293  27.913   3.708
77716W        W49976  14.242   0.839  10.766
77717W        W49977  13.663  19.954   0.384
77718W        W49978  36.652  16.058   4.257
77719W        W49979  22.018  33.371  14.049
77720W        W49980  42.418  33.022  11.566
77721W        W49981  36.493  32.361  12.989
77722W        W49982  31.914   1.559  12.428
77723W        W49983  13.131  14.282  13.936
77724W        W49984  29.663  42.911  12.082
77725W        W49985  30.044  19.752   0.243
77726W        W49986  17.788  41.736   2.155
77727W        W49987  10.236  38.832  10.595
77728W        W49988  43.959  27.774  10.831
77729W        W49989  23.007  11.269   4.328
77730W        W49990  24.250  25.111   2.246
77731W        W49991   1.746  27.475   2.349
77732W        W49992  29.638  37.281  12.409
77733W        W49993   3.422  20.686  14.807
77734W        W49994  10.862  19.682   5.354
77735W        W49995  38.294  13.751  10.669
77736W        W49996  20.165  19.025   2.085
77737W        W49997  30.028   5.364  14.925
77738W        W49998  33.177  37.717   1.337
77739W        W49999  24.460  27.457  13.102
77740W        W50000  39.543  21.935  14.860
77741W        W50001  40.971  29.093  11.497
77742W        W50002   7.282  26.694   3.847
77743W        W50003   2.298  34.955   2.327
77744W        W50004   9.372  17.252   0.035
77745W        W50005  30.425   7.941  11.444
77746W        W50006  29.766   3.724  12.193
77747W        W50007  44.961  15.291   1.645
77748W        W50008  24.946  40.478  12.035
77749W        W50009  34.973  17.595   4.797
77750W        W50010  20.048  34.401  12.467
77751W        W50011  10.833  17.506   2.175
77752W        W50012   7.641  38.362  14.486
77753W        W50013   5.930  24.748   1.264
77754W        W50014   3.843   3.392  13.924
77755W        W50015  22.719  15.910  12.123
77756W        W50016  12.618  24.745  13.923
77757W        W50017   2.493   4.330   4.157
77758W        W50018  40.977   0.303   3.110
77759W        W50019  31.111  34.996  14.427
77760W        W50020  44.263  12.856  12.395
77761W        W50021  33.987   6.166  13.409
77762W        W50022  37.320  42.936   2.651
77763W        W50023  27.071  43.954   1.738
77764W        W50024  22.522   4.356  13.619
77765W        W50025   8.903  13.505  12.468
77766W        W50026  18.559   5.257  11.604
77767W        W50027   3.661  29.138  11.191
77768W        W50028   5.411  29.807   4.730
77769W        W50029   7.017  20.227  12.590
77770W        W50030   8.128   3.211  14.009
77771W        W50031   0.708  10.496   5.336
77772W        W50032  28.214  17.124  11.104
77773W        W50033  26.050  12.826   2.354
77774W        W50034  16.808  15.847  10.599
77775W        W50035   3.529   2.398   1.795
77776W        W50036   1.835   3.710   2.138
77777W        W50037  36.043   4.687   3.769
77778W        W50038  29.999   8.902   4.471
77779W        W50039  40.364  43.530   0.273
77780W        W50040   4.904  27.512   0.510
77781W        W50041   8.433  41.555   5.004
77782W        W50042  27.613  44.814  11.883
77783W        W50043  40.460  30.901  13.284
77784W        W50044  24.185  31.981  14.521
77785W        W50045  15.617  17.544  11.995
77786W        W50046  35.339  12.631  11.210
77787W        W50047   8.331  32.458   1.714
77788W        W50048  22.496  29.551  13.733
77789W        W50049  24.850  20.684  10.897
77790W        W50050  23.059   5.072  11.008
77791W        W50051  41.741  12.339  13.948
77792W        W50052  41.504  11.856   0.919
77793W        W50053  15.604  16.233   0.861
77794W        W50054  41.738  30.379   0.315
77795W        W50055  11.576  18.942  12.440
77796W        W50056  12.673  40.247   4.669
77797W        W50057  15.914   3.165  12.069
77798W        W50058   5.090  32.581  11.624
77799W        W50059  16.598   0.942  14.370
77800W        W50060   3.835  40.049  13.639
77801W        W50061   8.714  14.748   3.197
77802W        W50062  42.117   1.464  13.946
77803W        W50063  30.959   9.824  13.651
77804W        W50064  29.544  13.158   2.004
77805W        W50065  22.694   2.439  14.372
77806W        W50066   8.256  22.025  14.350
77807W        W50067  35.406  16.051  11.501
77808W        W50068  27.327   3.025  11.350
77809W        W50069   6.416  34.474  14.964
77810W        W50070  27.508  21.224  13.349
77811W        W50071   8.556  36.339  10.660
77812W        W50072  23.515  39.566   3.575
77813W        W50073   6.500  11.186  14.262
77814W        W50074  34.826  41.966  11.094
77815W        W50075  26.071  42.060   0.187
77816W        W50076  37.058  10.479   3.820
77817W        W50077  31.122  43.785  12.472
77818W        W50078  12.114   4.029  12.027
77819W        W50079  25.959  17.526   4.766
77820W        W50080  11.730  29.606  12.224
77821W        W50081  31.628  36.482  12.377
77822W        W50082  19.880  33.439  12.419
77823W        W50083  22.153  34.299  13.897
77824W        W50084  21.906  14.574  14.879
77825W        W50085  34.167  31.041  10.645
77826W        W50086  27.916  32.394  11.859
77827W        W50087  16.346   5.901  10.981
77828W        W50088  15.428   5.550   0.805
77829W        W50089  41.928  37.561   0.895
77830W        W50090   8.537  43.844  13.451
77831W        W50091  32.740  15.386   0.947
77832W        W50092   7.837  16.251   1.496
77833W        W50093  37.595  43.717  10.328
77834W        W50094  42.891  10.893  14.822
77835W        W50095  25.207  27.485   0.437
77836W        W50096  24.107  30.593  14.764
77837W        W50097   3.397  12.270  11.522
77838W        W50098   7.907  32.769   1.673
77839W        W50099   3.433  16.394  11.147
77840W        W50100  44.532   1.369  10.026
77841W        W50101   2.347   7.316   4.562
77842W        W50102   4.845  23.650   4.989
77843W        W50103  30.322   7.149   0.303
77844W        W50104   5.013   1.404  11.965
77845W        W50105   4.309   5.741  11.466
77846W        W50106   0.058  44.485  12.673
77847W        W50107   8.906  10.826  13.315
77848W        W50108  43.311  23.282  12.723
77849W        W50109  29.233  19.104  13.056
77850W        W50110  18.156  13.239   0.743
77851W        W50111  29.623  30.126   4.229
77852W        W50112  35.429   0.539  10.636
77853W        W50113  10.907   9.836  14.314
77854W        W50114  43.874  24.285  10.708
77855W        W50115  40.852  26.013  13.996
77856W        W50116  20.086  16.123  12.292
77857W        W50117  42.985  21.717   1.830
77858W        W50118   7.333  28.074   4.962
77859W        W50119  32.907   1.512   3.091
77860W        W50120   6.405   1.966  12.615
77861W        W50121  12.022  35.998   4.474
77862W        W50122   9.458  18.133   4.197
77863W        W50123  34.659  35.543  11.601
77864W        W50124  27.616  44.947  13.462
77865W        W50125  23.927  38.172   0.473
77866W        W50126   6.728  24.903  10.625
77867W        W50127  10.347  40.656   1.073
77868W        W50128  19.823  27.240  14.855
77869W        W50129  44.661   3.372  13.349
77870W        W50130  40.485  39.618   3.778
77871W        W50131   7.170   8.614  10.696
77872W        W50132   6.835  26.327  11.180
77873W        W50133  43.809  31.782   2.182
77874W        W50134  33.939  36.824  13.289
77875W        W50135   5.191  13.355   2.201
77876W        W50136  23.466  41.298   3.248
77877W        W50137   8.790  44.166   1.317
77878W        W50138  21.511   0.538   3.722
77879W        W50139  39.829  33.015  11.304
77880W        W50140   3.964  12.050   2.653
77881W        W50141  23.045   7.848  14.859
77882W        W50142   0.539  36.977  14.034
77883W        W50143  16.030  22.957  13.939
77884W        W50144  36.139  32.866   2.292
77885W        W50145  18.172   5.942   0.540
77886W        W50146  33.114  39.815   2.760
77887W        W50147  27.271  20.470   2.730
77888W        W50148  44.363  39.294  14.955
77889W        W50149  39.082  40.860   5.023
77890W        W50150  12.104  43.234  12.853
77891W        W50151  29.971  14.826  12.835
77892W        W50152   0.253  42.475  14.839
77893W        W50153  32.575  24.150   4.659
77894W        W50154  28.362  14.898  13.129
77895W        W50155   6.797  15.371   0.044
77896W        W50156  27.031  25.634  13.398
77897W        W50157  13.871  24.525   4.902
77898W        W50158  12.621  44.208   1.145
77899W        W50159  28.669   6.881   1.904
77900W        W50160  15.121  30.028  13.357
77901W        W50161  37.411  17.522  13.857
77902W        W50162  10.827  28.213   2.179
77903W        W50163  42.426  22.128   0.449
77904W        W50164  18.483  30.561  13.971
77905W        W50165  43.268  40.429  12.254
77906W        W50166  25.113  32.135   4.471
77907W        W50167  32.000  42.020   2.403
77908W        W50168  29.071  38.040  13.522
77909W        W50169  25.986  14.330  14.844
77910W        W50170  43.448  31.363   3.512
77911W        W50171  16.337  39.441  12.053
77912W        W50172   1.304  17.095   3.837
77913W        W50173   3.409  44.451  12.766
77914W        W50174   6.432  38.890   3.130
77915W        W50175  42.447  41.843   2.336
77916W        W50176  34.518  39.373  14.273
77917W        W50177  31.556  36.271   1.197
77918W        W50178  12.675   5.265  10.667
77919W        W50179  26.147   6.303  12.154
77920W        W50180  14.836  33.739  11.571
77921W        W50181  26.499  10.403   4.001
77922W        W50182   0.742  14.244  12.059
77923W        W50183  27.116  22.834  12.518
77924W        W50184  40.855  23.898  14.495
77925W        W50185  41.902  14.266  14.370
77926W        W50186  38.325   4.911  14.798
77927W        W50187  26.559  10.574   4.939
77928W        W50188  39.317  15.248   3.239
77929W        W50189  30.290  13.709   3.725
77930W        W50190  15.681  28.983  10.820
77931W        W50191  33.206  16.464  12.428
77932W        W50192  41.842  13.786   0.683
77933W        W50193   7.398  40.910  12.508
77934W        W50194   3.297   3.285   1.689
77935W        W50195  41.679  32.539   1.474
77936W        W50196  40.597  44.262   1.856
77937W        W50197   7.694  19.722   4.100
77938W        W50198  10.816  44.269   0.416
77939W        W50199  10.281  24.407  14.923
77940W        W50200  40.301  30.569   4.616
77941W        W50201  36.881  32.860   2.835
77942W        W50202  36.973  29.368   1.776
77943W        W50203  37.864  37.491  10.617
77944W        W50204   8.723  10.242  12.664
77945W        W50205   5.816  32.398   0.909
77946W        W50206  19.204  37.536   4.437
77947W        W50207   4.342  35.639   0.517
77948W        W50208   8.819   7.171  12.183
77949W        W50209  16.225  18.521   2.365
77950W        W50210  20.877   6.962  14.466
77951W        W50211  37.322  37.597   4.083
77952W        W50212   7.906  27.434   0.750
77953W        W50213  27.266  35.358  11.683
77954W        W50214   4.249  29.436  13.134
77955W        W50215  20.118  30.508  14.831
77956W        W50216  17.572  15.027   1.327
77957W        W50217  25.859   1.060   2.538
77958W        W50218  10.804   0.185  10.481
77959W        W50219   8.383  38.059  12.981
77960W        W50220  28.657  40.491  13.429
77961W        W50221  43.257  37.684  11.498
77962W        W50222  37.555  22.712   4.773
77963W        W50223  19.580  21.746  13.188
77964W        W50224   1.466  22.139   1.878
77965W        W50225  20.894  18.501  11.909
77966W        W50226   7.314  37.049   0.088
77967W        W50227  33.687  12.366   2.452
77968W        W50228  12.871  40.462   2.319
77969W        W50229   2.083   4.881   1.418
77970W        W50230  26.542  20.615  12.093
77971W        W50231  30.013  18.310   1.400
77972W        W50232  40.453  39.288  12.598
77973W        W50233  10.616  17.257   0.759
77974W        W50234  42.293  43.914  11.661
77975W        W50235  40.949  10.069   0.821
77976W        W50236  26.238  33.364   0.417
77977W        W50237  29.692  35.983  13.933
77978W        W50238  13.780  35.654   0.759
77979W        W50239  18.072  16.601   1.769
77980W        W50240   9.913  35.610   2.931
77981W        W50241  13.409  13.689   2.393
77982W        W50242  19.775  44.951   0.374
77983W        W50243  35.618  30.925  12.798
77984W        W50244   7.237  21.200   4.378
77985W        W50245   4.329  13.394   0.885
77986W        W50246  25.506   4.167   1.472
77987W        W50247   5.933  32.091  14.519
77988W        W50248   4.204  25.800   9.862
77989W        W50249  14.792   4.266  13.481
77990W        W50250  33.117  11.309  11.999
77991W        W50251  29.518  19.303  13.512
77992W        W50252  10.094  43.764   0.283
77993W        W50253  13.127  23.540   0.385
77994W        W50254  18.379  36.424  14.010
77995W        W50255  17.269  17.575  11.412
77996W        W50256  22.709  33.986   1.939
77997W        W50257   8.147  42.415  12.466
77998W        W50258  14.729  37.831  11.647
77999W        W50259  31.585   7.184   2.960
78000W        W50260  14.538   7.384  11.941
78001W        W50261  13.811  41.284   0.607
78002W        W50262  37.427  35.599  13.245
78003W        W50263  43.798  34.487   4.667
78004W        W50264  12.560  23.676   2.171
78005W        W50265  23.362  34.352   0.414
78006W        W50266  28.100   3.570   0.285
78007W        W50267  14.504  19.471   0.183
78008W        W50268  11.311   7.122  10.712
78009W        W50269  17.317  33.833   0.206
78010W        W50270  12.761  28.066  12.323
78011W        W50271  23.178  37.287   3.250
78012W        W50272  32.040  11.142  14.316
78013W        W50273  19.109  34.451   4.011
78014W        W50274   5.819  35.993   3.842
78015W        W50275  16.636  31.060  13.295
78016W        W50276  43.057  36.035   0.368
78017W        W50277  30.255  21.532  11.591
78018W        W50278  16.171  37.573   3.953
78019W        W50279  31.174  20.479  12.915
78020W        W50280  38.393  31.446   2.819
78021W        W50281   2.285  32.478   0.026
78022W        W50282   0.385   1.508   4.539
78023W        W50283  25.211  38.235  11.959
78024W        W50284  23.649  14.610   0.061
78025W        W50285  33.942  39.297  10.633
78026W        W50286  35.518  13.922  10.646
78027W        W50287  24.117  34.089  14.011
78028W        W50288  28.315  25.516  12.083
78029W        W50289  14.300   0.281  10.764
78030W        W50290   3.255  22.090  11.903
78031W        W50291   2.972  43.548  14.897
78032W        W50292  33.366   1.065  11.509
78033W        W50293   8.220  39.365  13.811
78034W        W50294  39.054   6.301   2.515
78035W        W50295  44.504  36.406   4.207
78036W        W50296  44.004  14.624   3.282
78037W        W50297   8.700  22.652   3.305
78038W        W50298  22.091  42.304   1.932
78039W        W50299  21.476  25.077   3.576
78040W        W50300   7.516  37.013   2.856
78041W        W50301   6.411  42.083  14.110
78042W        W50302   4.760   3.020   1.492
78043W        W50303  11.844  10.197   3.724
78044W        W50304  26.488  17.416   2.844
78045W        W50305  17.218  37.776   2.244
78046W        W50306   3.659  14.250  13.551
78047W        W50307  34.416  33.097   3.665
78048W        W50308   9.364  25.826   2.229
78049W        W50309   0.974  13.335  14.812
78050W        W50310   7.688  25.202  11.439
78051W        W50311   0.437  40.933   2.583
78052W        W50312   8.763  17.558  11.066
78053W        W50313  22.923   0.269   2.202
78054W        W50314  22.412   7.704  12.120
78055W        W50315   1.834  36.069  14.932
78056W        W50316  36.594  23.638  13.475
78057W        W50317  41.431   2.862   0.315
78058W        W50318  39.655   6.329   1.196
78059W        W50319   1.429  39.624  11.976
78060W        W50320  14.695   5.823  14.062
78061W        W50321  32.576  20.636   0.876
78062W        W50322  35.134  20.214   3.697
78063W        W50323  27.979   9.258  11.783
78064W        W50324  32.523  38.652   4.822
78065W        W50325  33.000  37.765   1.829
78066W        W50326  21.084  16.317   2.835
78067W        W50327   1.327  42.115   1.514
78068W        W50328   3.472   3.521   2.121
78069W        W50329  13.766  15.829   4.649
78070W        W50330   5.388   4.474   1.354
78071W        W50331  22.118  33.834  10.704
78072W        W50332  23.010  32.191   2.882
78073W        W50333  10.706  15.202   1.392
78074W        W50334  17.232  10.621   0.523
78075W        W50335   8.663   7.130  14.356
78076W        W50336  30.234  33.084   3.364
78077W        W50337  35.302  41.971   4.459
78078W        W50338  35.497  13.639  11.065
78079W        W50339   6.785  38.647  11.111
78080W        W50340  10.386  16.258  12.367
78081W        W50341  25.739  27.129  14.068
78082W        W50342  44.447  26.527  11.928
78083W        W50343  38.854  24.409   1.019
78084W        W50344  19.325  28.935  12.684
78085W        W50345  44.075  26.029  13.498
78086W        W50346  21.524  24.977   3.053
78087W        W50347  29.115  31.393  11.066
78088W        W50348  21.891  32.981  11.557
78089W        W50349  13.608  37.332   1.709
78090W        W50350   8.428  34.024  14.392
78091W        W50351   8.721  43.308   1.271
78092W        W50352  32.994  27.738   0.736
78093W        W50353  18.467   5.773   4.251
78094W        W50354  43.780  37.067   3.604
78095W        W50355  42.539   4.534  14.823
78096W        W50356  38.164  34.276  12.519
78097W        W50357  33.179  41.591  12.494
78098W        W50358  31.449  29.866  14.747
78099W        W50359  22.665   9.611   0.307
78100W        W50360   9.458  16.050   3.033
78101W        W50361  17.014  31.037  14.591
78102W        W50362  17.675  36.521   1.326
78103W        W50363   7.347  40.850   3.089
78104W        W50364  28.035   9.913  10.972
78105W        W50365  40.662  11.300   3.242
78106W        W50366   0.862  24.772   4.147
78107W        W50367  24.234   2.007  12.690
78108W        W50368  42.898  22.012  11.277
78109W        W50369  37.405  35.875   4.575
78110W        W50370  18.201  29.416   4.667
78111W        W50371  39.305   0.303   1.882
78112W        W50372   4.320  39.242  13.020
78113W        W50373   0.779  16.306  14.978
78114W        W50374  28.979  40.152  14.293
78115W        W50375  24.757   2.432  11.189
78116W        W50376   7.824  27.182  10.434
78117W        W50377  13.780  20.268   2.793
78118W        W50378  22.260  33.358   0.788
78119W        W50379  16.418   0.418   0.585
78120W        W50380   5.440  16.109   2.284
78121W        W50381   3.475   8.889  14.341
78122W        W50382  40.998  28.733  11.110
78123W        W50383  33.972  16.029  11.589
78124W        W50384  20.695   8.292  14.707
78125W        W50385  41.031  38.098  12.093
78126W        W50386   5.198  44.776  13.257
78127W        W50387  16.558  16.600   2.473
78128W        W50388  40.281   2.790  12.826
78129W        W50389  23.335  24.712   4.209
78130W        W50390  19.211  24.723   3.614
78131W        W50391  27.674  42.885   1.413
78132W        W50392  35.356   9.383  11.550
78133W        W50393  44.286   9.403  12.584
78134W        W50394  11.089  37.762   3.342
78135W        W50395  39.267   4.906   4.160
78136W        W50396  20.712  14.141   0.607
78137W        W50397  38.531  33.723   0.263
78138W        W50398  16.357  25.612   0.405
78139W        W50399   4.856  16.616   0.228
78140W        W50400  13.049  22.312   4.192
78141W        W50401  43.022  35.005  10.388
78142W        W50402  43.892  39.987   0.754
78143W        W50403  43.272  36.691   1.910
78144W        W50404  19.302   7.170  14.967
78145W        W50405  31.445  23.679  11.827
78146W        W50406  44.199  27.910   2.796
78147W        W50407   7.400  39.514   2.421
78148W        W50408   4.848  23.061   2.869
78149W        W50409  10.725   8.639  13.476
78150W        W50410  16.590  17.841  13.956
78151W        W50411  34.152  14.451  11.153
78152W        W50412   9.419  16.159   3.550
78153W        W50413  40.965  40.731  13.938
78154W        W50414  27.460   3.086  14.872
78155W        W50415  16.935   9.888   2.335
78156W        W50416  18.110  23.186   3.121
78157W        W50417  21.282   2.049  11.552
78158W        W50418   6.485  42.913  13.782
78159W        W50419   4.446  43.040   3.712
78160W        W50420  41.688  20.195  10.810
78161W        W50421  40.638  32.062  13.876
78162W        W50422  10.591  35.594   1.008
78163W        W50423   3.461  31.601   4.167
78164W        W50424  41.288  10.287  11.156
78165W        W50425  26.467  15.033   4.228
78166W        W50426  34.221  34.589  13.813
78167W        W50427  31.522  34.630  12.906
78168W        W50428  16.219  18.475  12.406
78169W        W50429  39.877  24.629   1.278
78170W        W50430  25.140   5.950   0.778
78171W        W50431  40.889  24.051   1.332
78172W        W50432  37.998  44.202   1.400
78173W        W50433  19.274  39.373   2.203
78174W        W50434   5.265  15.588   4.787
78175W        W50435  26.416  18.597  12.161
78176W        W50436  23.703  13.123   3.129
78177W        W50437   7.611  21.479   2.376
78178W        W50438  20.662   5.246  12.841
78179W        W50439  31.897   8.035  14.364
78180W        W50440  22.810  32.629  11.234
78181W        W50441   4.435   7.816  13.932
78182W        W50442  23.670  14.746  11.227
78183W        W50443  33.425  30.115   4.754
78184W        W50444  39.426   3.924   1.228
78185W        W50445  17.292  16.753  12.085
78186W        W50446   7.769  15.309  12.634
78187W        W50447  44.855   5.249   4.606
78188W        W50448  30.176  30.538  11.958
78189W        W50449  21.066  23.685  11.458
78190W        W50450  38.611  22.714   3.670
78191W        W50451  28.461  25.672   4.586
78192W        W50452  30.115  10.402  12.928
78193W        W50453  23.037   7.769   2.763
78194W        W50454   4.872   0.389  12.127
78195W        W50455  36.580  36.671  11.115
78196W        W50456   6.675   6.229   0.406
78197W        W50457  21.541  37.884   2.906
78198W        W50458  36.138  36.565  14.782
78199W        W50459  34.988  33.513   0.681
78200W        W50460  21.909   9.185  10.798
78201W        W50461   4.261  31.534  11.550
78202W        W50462  41.996  42.822  14.773
78203W        W50463  24.253   1.693  14.355
78204W        W50464  28.089  33.398  12.942
78205W        W50465  29.248  31.069  13.815
78206W        W50466  17.361  11.965  11.146
78207W        W50467   1.267   8.895   3.004
78208W        W50468   0.945  27.952   3.573
78209W        W50469  33.693   0.380   3.048
78210W        W50470  27.511   6.216  13.887
78211W        W50471  23.218  40.486   4.593
78212W        W50472  36.391  38.274  11.058
78213W        W50473  14.310  37.124  11.323
78214W        W50474   4.828  42.959   1.662
78215W        W50475  10.401   9.390   0.486
78216W        W50476  44.367  12.302  14.697
78217W        W50477  40.579  41.838   1.708
78218W        W50478  42.305  34.057  10.675
78219W        W50479   6.391  20.711  13.820
78220W        W50480  30.004  20.485   4.195
78221W        W50481   9.372  11.036   4.559
78222W        W50482  20.717  43.591   1.391
78223W        W50483  24.100  19.068   3.275
78224W        W50484   3.031  22.457  11.617
78225W        W50485  12.977  36.153   0.807
78226W        W50486  40.571  10.269  12.433
78227W        W50487  40.400  22.415  12.343
78228W        W50488  28.945   3.711  13.441
78229W        W50489   3.993  23.611   1.770
78230W        W50490  16.703  41.455  12.586
78231W        W50491  20.354  11.744   4.042
78232W        W50492  11.821  17.728   0.164
78233W        W50493   9.779  14.787  14.896
78234W        W50494  15.793   4.984   2.365
78235W        W50495   6.794  34.507   0.302
78236W        W50496  25.925   7.229   1.164
78237W        W50497   1.864   8.363  13.050
78238W        W50498  41.563  38.224  10.533
78239W        W50499  44.503  31.555   0.982
78240W        W50500   0.320  16.904  11.988
78241W        W50501  29.664  19.169  11.632
78242W        W50502   3.707  16.786   1.265
78243W        W50503  43.458  22.435  12.243
78244W        W50504  38.704   0.285   0.199
78245W        W50505  35.370   4.012  11.567
78246W        W50506  16.465   0.358   1.344
78247W        W50507  42.376  44.362  11.416
78248W        W50508   4.497  38.515   3.594
78249W        W50509   8.745  43.003  10.556
78250W        W50510  31.986   3.458  11.660
78251W        W50511  44.445  10.825   3.393
78252W        W50512  23.318  32.862  12.851
78253W        W50513  34.096   0.335  14.865
78254W        W50514  20.228  14.783   2.316
78255W        W50515  44.882   1.350   0.331
78256W        W50516  25.218  25.883   4.636
78257W        W50517  12.935  38.944  12.669
78258W        W50518  17.885  40.973  14.434
78259W        W50519  25.097  36.343  11.504
78260W        W50520  15.661  25.545  11.605
78261W        W50521  12.904  37.091   1.948
78262W        W50522  16.269  10.700  14.540
78263W        W50523  37.047  43.242   0.087
78264W        W50524  32.382   5.466   1.341
78265W        W50525  12.238  26.265   1.935
78266W        W50526   9.777  27.661  13.822
78267W        W50527  17.003  31.032   2.148
78268W        W50528  20.349   6.679  11.679
78269W        W50529  14.112  14.067   3.773
78270W        W50530  15.987   6.390  14.941
78271W        W50531  11.851  15.636  11.572
78272W        W50532  36.370  12.433  12.131
78273W        W50533  33.129  40.839  14.851
78274W        W50534  28.152  14.792  14.943
78275W        W50535   5.696  23.479   0.873
78276W        W50536   5.165  15.968  12.388
78277W        W50537  28.455  29.066  11.086
78278W        W50538   4.757   0.246  14.800
78279W        W50539  17.590  34.005  13.854
78280W        W50540  41.293  22.517  11.524
78281W        W50541  22.248  36.097   1.866
78282W        W50542  29.131  29.218   0.491
78283W        W50543  33.057  43.302  14.101
78284W        W50544  17.245  13.938   1.792
78285W        W50545  41.394  26.106   2.334
78286W        W50546  43.105  16.657   1.758
78287W        W50547  29.844  14.303  11.703
78288W        W50548  27.828  31.410   5.013
78289W        W50549   6.900  22.221   4.274
78290W        W50550   8.836  36.194  14.610
78291W        W50551   5.537  15.275  13.087
78292W        W50552   9.155  10.045  12.510
78293W        W50553  10.269  19.315   2.788
78294W        W50554   5.874  14.818   1.339
78295W        W50555  18.833  13.965   0.909
78296W        W50556   7.367  38.771  13.993
78297W        W50557  34.360  18.372  13.965
78298W        W50558   7.210  11.794  12.549
78299W        W50559  17.391  22.083   1.641
78300W        W50560  17.003  29.772  10.778
78301W        W50561   4.399  25.506   3.182
78302W        W50562  27.184   5.340   1.433
78303W        W50563  16.252   8.003  11.096
78304W        W50564  35.341  40.348  11.976
78305W        W50565   8.866  25.196   4.129
78306W        W50566  29.480   3.291  12.076
78307W        W50567   3.163  37.868   0.486
78308W        W50568  20.733  39.516   0.862
78309W        W50569  32.961   6.967  14.794
78310W        W50570  13.717  36.011   0.333
78311W        W50571  15.072  26.744   1.649
78312W        W50572  14.518  32.070   1.843
78313W        W50573  15.573   9.915  13.953
78314W        W50574  31.590  33.152  11.952
78315W        W50575  25.980  10.151  10.710
78316W        W50576   5.632  44.560   1.357
78317W        W50577  27.662  33.701  12.961
78318W        W50578  22.742  31.015   0.795
78319W        W50579  11.031   3.887   4.210
78320W        W50580  38.587  37.064   2.712
78321W        W50581  37.542  10.737  11.478
78322W        W50582   1.430  12.087  11.461
78323W        W50583   3.688  17.671  11.927
78324W        W50584   5.402   5.609   0.276
78325W        W50585  10.924  32.220   1.534
78326W        W50586  20.201  31.653  10.728
78327W        W50587  40.528   3.354  14.512
78328W        W50588   6.352  27.470  12.211
78329W        W50589  22.943  36.825   3.224
78330W        W50590  14.054   9.768   3.233
78331W        W50591  13.596  42.555  12.384
78332W        W50592  37.816  21.084   2.129
78333W        W50593  32.069  43.622  13.923
78334W        W50594   5.994   3.177   3.735
78335W        W50595  38.114  24.806  10.871
78336W        W50596  27.962  36.726  13.382
78337W        W50597  29.754  31.986  11.540
78338W        W50598  14.655  26.152   2.110
78339W        W50599   5.253  16.322   1.870
78340W        W50600  27.659  44.096  13.877
78341W        W50601  27.178  42.975   1.195
78342W        W50602  11.112  17.129   0.507
78343W        W50603  37.807  33.950  13.406
78344W        W50604  44.265  27.634  12.671
78345W        W50605  34.207  42.787   3.109
78346W        W50606  20.214   9.868  11.570
78347W        W50607  24.251  25.090  12.408
78348W        W50608   9.652  23.129  13.961
78349W        W50609  35.369  29.715   0.984
78350W        W50610  22.085  39.532   3.833
78351W        W50611  34.998  39.644   1.388
78352W        W50612  32.663  30.699  12.150
78353W        W50613  25.997  11.201  14.840
78354W        W50614   8.778   6.002   4.622
78355W        W50615  19.098   6.476  11.412
78356W        W50616  27.389  29.704   4.264
78357W        W50617  12.166  32.378  14.256
78358W        W50618  18.612   4.747   2.334
78359W        W50619  26.167  22.238   2.916
78360W        W50620  44.969  28.547  14.976
78361W        W50621  20.275  12.273  13.948
78362W        W50622  29.988  30.818   3.448
78363W        W50623   9.742   3.470   2.662
78364W        W50624  16.754   8.380   0.916
78365W        W50625   9.210   1.492  12.788
78366W        W50626   8.786  15.587   2.722
78367W        W50627  40.766  23.455  11.640
78368W        W50628  28.026  19.708   3.198
78369W        W50629  39.551  10.983  11.929
78370W        W50630   7.707  20.191  14.910
78371W        W50631  35.496  33.328  14.743
78372W        W50632  23.987  25.099  12.885
78373W        W50633  29.639  27.103  13.852
78374W        W50634  19.228  25.719   4.478
78375W        W50635  22.953   7.741  12.121
78376W        W50636   7.420  43.056  13.318
78377W        W50637  34.124   8.765   2.698
78378W        W50638  18.786   0.411   4.166
78379W        W50639  30.918   5.782   3.775
78380W        W50640  31.637   5.411  12.970
78381W        W50641   6.012  24.657   1.884
78382W        W50642   3.460  44.415  12.123
78383W        W50643   7.855   2.757  13.807
78384W        W50644   4.441  25.199  12.049
78385W        W50645  25.766  24.019  12.439
78386W        W50646  31.586   8.910  10.557
78387W        W50647  12.634  40.900   0.865
78388W        W50648  27.066   6.335   1.654
78389W        W50649  23.272  37.840  14.436
78390W        W50650  30.035   4.914  13.897
78391W        W50651  12.822  15.356  14.645
78392W        W50652   1.050  13.597   1.416
78393W        W50653  41.478  38.294  11.902
78394W        W50654  17.294  22.060   2.515
78395W        W50655  23.425  19.560   5.040
78396W        W50656   9.706   8.728   0.626
78397W        W50657  26.146  29.433  14.894
78398W        W50658  44.509  37.411  13.381
78399W        W50659   5.765  33.558  13.497
78400W        W50660   2.303   8.133  14.333
78401W        W50661  17.036  41.307   4.258
78402W        W50662   7.155  13.625   0.810
78403W        W50663  41.912  11.846   2.741
78404W        W50664  11.695  12.140  14.655
78405W        W50665   0.246  20.222   4.777
78406W        W50666   2.260  33.094  10.512
78407W        W50667  44.546  35.127   1.827
78408W        W50668  30.706  28.363  12.185
78409W        W50669   4.302  43.732  14.237
78410W        W50670   0.374  33.135   0.411
78411W        W50671  23.112   6.784   3.147
78412W        W50672   7.039  19.530  12.918
78413W        W50673  10.470  24.319   4.045
78414W        W50674  40.498  23.197  12.593
78415W        W50675  44.097  17.794   2.735
78416W        W50676   0.818   6.934   0.475
78417W        W50677  23.293  30.551  14.967
78418W        W50678  43.282  36.919  10.882
78419W        W50679  20.415  35.920   4.416
78420W        W50680   6.861  18.747   0.185
78421W        W50681  25.505   6.306   4.575
78422W        W50682  27.669  26.677   4.106
78423W        W50683   9.909  31.554  11.610
78424W        W50684  41.341  13.390   1.482
78425W        W50685  15.271  12.861  12.471
78426W        W50686  33.556  14.376   2.198
78427W        W50687  28.360  18.667  14.396
78428W        W50688  20.578  13.283   3.158
78429W        W50689  26.942   7.562  13.480
78430W        W50690  12.620  34.907   0.313
78431W        W50691  29.507  39.095   2.197
78432W        W50692  30.188   1.033   4.107
78433W        W50693  19.694  11.871   5.066
78434W        W50694  43.012   3.720   1.340
78435W        W50695  42.313   5.647   1.883
78436W        W50696  34.862  30.193  11.003
78437W        W50697   7.201   6.416   0.096
78438W        W50698  23.188  11.753   3.632
78439W        W50699  42.654   1.556  14.962
78440W        W50700  30.316  10.913  11.528
78441W        W50701   7.437  24.584   4.997
78442W        W50702  25.557  18.737   4.935
78443W        W50703  44.910  24.640  13.371
78444W        W50704  25.538  24.543   2.338
78445W        W50705   4.197  12.344  11.163
78446W        W50706   3.817  17.100   0.838
78447W        W50707  29.246  40.509  14.575
78448W        W50708  35.757  24.188  13.476
78449W        W50709  19.676  14.774   3.444
78450W        W50710  27.167  15.206  12.351
78451W        W50711   6.394  13.347  12.812
78452W        W50712  33.349  14.097   0.842
78453W        W50713  14.116   8.447  12.860
78454W        W50714  20.541   6.946  14.043
78455W        W50715  27.590   7.478   2.222
78456W        W50716   6.334  15.621   4.062
78457W        W50717  38.809  19.839  10.990
78458W        W50718  20.035   3.226  13.993
78459W        W50719  25.602  11.559  12.955
78460W        W50720  21.294  10.881  11.522
78461W        W50721  27.077  22.042  10.640
78462W        W50722  20.176   9.373  11.546
78463W        W50723  25.907  36.984   3.755
78464W        W50724  35.427  16.213  14.360
78465W        W50725  14.715  38.955   1.033
78466W        W50726   8.332  30.867  12.070
78467W        W50727  31.984  23.638  14.073
78468W        W50728  25.138  36.648   0.185
78469W        W50729  20.629   8.854  12.026
78470W        W50730  42.939  21.276   5.089
78471W        W50731  11.586  37.044   1.521
78472W        W50732  15.230  29.586  12.093
78473W        W50733   6.592  12.652  11.969
78474W        W50734  40.305  26.112  13.343
78475W        W50735   2.654  17.647  11.007
78476W        W50736  39.581  33.195   1.230
78477W        W50737   4.540  36.688  11.153
78478W        W50738  25.327  37.494   1.683
78479W        W50739  12.811   0.681   1.174
78480W        W50740  36.297  23.946   3.201
78481W        W50741  20.607  18.821   2.262
78482W        W50742  34.850  33.001  11.518
78483W        W50743  13.966   2.717  12.940
78484W        W50744   0.396  14.237  10.746
78485W        W50745   8.225  39.473  13.332
78486W        W50746  16.651  39.377  12.972
78487W        W50747   1.984  36.105   1.938
78488W        W50748   5.267   2.994   2.256
78489W        W50749  34.484  10.596  13.332
78490W        W50750   3.638  43.521   4.042
78491W        W50751  37.860  29.716  13.952
78492W        W50752  17.815  30.862   3.048
78493W        W50753  10.943  28.477  13.505
78494W        W50754  36.086   1.324   0.912
78495W        W50755  20.378  42.275   1.640
78496W        W50756   6.814  20.893   1.353
78497W        W50757  26.596  32.774  12.498
78498W        W50758   9.185  17.375   4.290
78499W        W50759  12.875  44.342  12.536
78500W        W50760   9.912  38.369   4.622
78501W        W50761  33.598  13.885   1.282
78502W        W50762   9.262  43.539  13.363
78503W        W50763  44.439  44.589   3.622
78504W        W50764  12.370  16.287  13.470
78505W        W50765  44.017  36.411   4.072
78506W        W50766  17.535  37.590  11.539
78507W        W50767  12.354  38.065   2.089
78508W        W50768  13.615  13.928  11.441
78509W        W50769   0.033   7.759  12.920
78510W        W50770  39.500  21.072   2.177
78511W        W50771   1.905  21.222  14.137
78512W        W50772  34.432  39.262  13.244
78513W        W50773   0.059  10.706  12.441
78514W        W50774  21.561  11.638  11.987
78515W        W50775   3.287  14.109   0.455
78516W        W50776  13.338  33.591   5.022
78517W        W50777   8.019   2.329  11.853
78518W        W50778  39.131  17.699   4.241
78519W        W50779   8.667   3.185  12.066
78520W        W50780  17.780  43.251  11.956
78521W        W50781  29.836  16.351  13.403
78522W        W50782   9.750  12.638  12.553
78523W        W50783  39.307  41.319  11.124
78524W        W50784   1.832  28.917   2.176
78525W        W50785  34.893  17.276  13.549
78526W        W50786  44.707  12.220   2.109
78527W        W50787  27.090   9.813   4.402
78528W        W50788  28.397   9.576  14.943
78529W        W50789   2.976  43.456  12.913
78530W        W50790  16.418  43.914  12.868
78531W        W50791  10.229  37.238   5.085
78532W        W50792  44.180  16.268  13.314
78533W        W50793  40.445  16.562   4.730
78534W        W50794  30.771  38.453   3.126
78535W        W50795   4.369  14.090   9.915
78536W        W50796  27.773  38.763   3.498
78537W        W50797  29.527   3.758  12.659
78538W        W50798  36.881  16.622  13.797
78539W        W50799  27.481  44.270   4.233
78540W        W50800  21.326  39.455   3.233
78541W        W50801   2.366  35.162   1.258
78542W        W50802  11.379  12.203  12.861
78543W        W50803   3.844  22.236  14.388
78544W        W50804   2.169  19.076   0.869
78545W        W50805  35.506  43.038  12.439
78546W        W50806  11.550  40.280   4.639
78547W        W50807  19.199  30.013   1.185
78548W        W50808  38.383  16.757  14.970
78549W        W50809  43.746  35.405  10.568
78550W        W50810   2.003  42.850  11.906
78551W        W50811  11.718  16.074  14.266
78552W        W50812   8.632  39.181   3.701
78553W        W50813  35.082  44.354  11.148
78554W        W50814  40.337  29.891   0.294
78555W        W50815  23.331  29.165   9.865
78556W        W50816  28.551   8.839  12.452
78557W        W50817  11.996  44.325   3.613
78558W        W50818  21.740  17.785   1.743
78559W        W50819   8.473  38.749   4.580
78560W        W50820  14.139   1.011   2.289
78561W        W50821  21.680  40.448   2.394
78562W        W50822  28.431   0.829  13.319
78563W        W50823  32.140  33.872   2.846
78564W        W50824   5.998  36.851   0.460
78565W        W50825   2.019  24.961   0.788
78566W        W50826  20.929  19.654  14.910
78567W        W50827  40.466  17.007  13.946
78568W        W50828  31.961  16.430  14.405
78569W        W50829  15.787   0.396  14.076
78570W        W50830  12.251  27.924  11.493
78571W        W50831  26.978  12.712  12.677
78572W        W50832   7.690  42.801   2.104
78573W        W50833  27.706  39.472   2.725
78574W        W50834  20.990  14.909   0.003
78575W        W50835  35.525   8.319  10.745
78576W        W50836   3.450  21.289  13.218
78577W        W50837  42.684  26.952  12.513
78578W        W50838  18.708  11.794  12.259
78579W        W50839  29.845  24.240   2.246
78580W        W50840  22.939  25.012  12.833
78581W        W50841   7.195  26.123  14.267
78582W        W50842  30.935  30.585   3.696
78583W        W50843  30.908  11.320  12.317
78584W        W50844  32.843  43.020   0.436
78585W        W50845  23.259  15.278   4.603
78586W        W50846  32.100   7.119  10.753
78587W        W50847   9.747   5.354   2.883
78588W        W50848  27.137  21.256   4.149
78589W        W50849  24.095   0.551   3.102
78590W        W50850  26.700  30.488   3.644
78591W        W50851  42.432  30.142   3.735
78592W        W50852  37.135  18.026  12.269
78593W        W50853  36.095   7.978   0.927
78594W        W50854  20.418  18.639   1.780
78595W        W50855  14.280  27.545   3.282
78596W        W50856  17.089  43.252  13.480
78597W        W50857  15.504   0.418  11.923
78598W        W50858  37.312  23.158   2.024
78599W        W50859   3.217   3.815   1.761
78600W        W50860   3.309  44.458   1.860
78601W        W50861  42.488  35.171  12.098
78602W        W50862  41.045   6.098  14.921
78603W        W50863   3.914  26.660  11.472
78604W        W50864  27.923  15.065   4.242
78605W        W50865  18.512   1.965   2.011
78606W        W50866  18.605  18.422  11.829
78607W        W50867  10.223  25.944  12.046
78608W        W50868  37.119  43.366  11.945
78609W        W50869  44.316  40.257   2.719
78610W        W50870  18.490  23.468  12.047
78611W        W50871  25.981   4.692  13.466
78612W        W50872  22.067   4.857  10.671
78613W        W50873  21.169  14.172   0.284
78614W        W50874  31.977  30.209  13.839
78615W        W50875  22.658  12.216   3.439
78616W        W50876  25.257  21.079  10.773
78617W        W50877  43.533  35.867  13.395
78618W        W50878   6.705  32.414  10.746
78619W        W50879  16.180  22.206   3.442
78620W        W50880  38.053   6.270  13.406
78621W        W50881  42.819  10.363  14.796
78622W        W50882  38.517  41.901   4.588
78623W        W50883  38.954  26.646   1.074
78624W        W50884   9.103  42.976   0.626
78625W        W50885   1.360   3.818  13.390
78626W        W50886  25.571  43.923   3.165
78627W        W50887  28.548  32.180   3.272
78628W        W50888  11.315   9.118  14.205
78629W        W50889  22.576  39.987   0.888
78630W        W50890  20.172  14.122  12.898
78631W        W50891  38.492  25.571  14.217
78632W        W50892  20.342   9.652   0.902
78633W        W50893  42.419  12.331   2.184
78634W        W50894   0.742  19.962  12.075
78635W        W50895  17.283   2.679   2.568
78636W        W50896  35.654  37.463  13.408
78637W        W50897  38.491  39.385   0.010
78638W        W50898  32.462  35.683  10.774
78639W        W50899   9.605  31.663   3.707
78640W        W50900   5.838  28.606   3.090
78641W        W50901  43.635  42.351   0.915
78642W        W50902  17.323  42.984  12.220
78643W        W50903   1.795  27.952  13.594
78644W        W50904   5.576  35.553   3.684
78645W        W50905  36.458  18.308  13.367
78646W        W50906  31.924  36.194   3.783
78647W        W50907  12.891  43.630  11.958
78648W        W50908  23.105  23.538   1.939
78649W        W50909   5.183  31.471  12.449
78650W        W50910   6.787  10.649  12.873
78651W        W50911  31.250   4.834  13.587
78652W        W50912   1.999  38.622  14.935
78653W        W50913  15.455   2.207   4.892
78654W        W50914  25.454   6.796  14.963
78655W        W50915  17.309  10.235  11.943
78656W        W50916  21.771  24.559  12.551
78657W        W50917  18.762  19.148  13.037
78658W        W50918  39.229  11.681  13.320
78659W        W50919  23.024  44.001   1.812
78660W        W50920  10.648  13.318   2.438
78661W        W50921   4.023   4.851   4.172
78662W        W50922  35.626  11.420  11.897
78663W        W50923   8.414   2.085   3.578
78664W        W50924  22.730  34.915  10.096
78665W        W50925  25.381  23.572   4.588
78666W        W50926  13.777  15.203   1.746
78667W        W50927   3.579  36.800   2.356
78668W        W50928  17.840  10.715   3.311
78669W        W50929  31.119  13.779  14.068
78670W        W50930   0.216   7.855  14.558
78671W        W50931  39.137  23.582  14.406
78672W        W50932  22.007  17.316   0.293
78673W        W50933  43.366  31.846  12.518
78674W        W50934   6.707  27.725   4.183
78675W        W50935  12.754  26.926  14.943
78676W        W50936  41.537  35.769   1.662
78677W        W50937  22.753  18.000  10.148
78678W        W50938  14.749  21.959   1.699
78679W        W50939  25.444  39.858  12.523
78680W        W50940  12.940  30.581  12.116
78681W        W50941  37.288  32.161   1.676
78682W        W50942  23.201  28.188  10.090
78683W        W50943  14.559   5.456   2.171
78684W        W50944  17.716  15.760   1.802
78685W        W50945   4.669  18.159   3.226
78686W        W50946  33.577  17.472   2.390
78687W        W50947  34.935  30.541   4.122
78688W        W50948  43.474  19.254   2.783
78689W        W50949  11.876  16.799   0.396
78690W        W50950  32.575  43.738   3.145
78691W        W50951  14.828  10.892   0.271
78692W        W50952  24.758  41.321  14.365
78693W        W50953  37.044  31.299   1.875
78694W        W50954  30.941  31.095   1.192
78695W        W50955  35.457  30.466   1.371
78696W        W50956  39.922  44.154  12.411
78697W        W50957  31.957  43.411  12.538
78698W        W50958  24.921  15.098   0.253
78699W        W50959  21.932  20.356   3.639
78700W        W50960  42.231  29.389  10.427
78701W        W50961  20.080   0.102  11.188
78702W        W50962  16.507  10.287  12.395
78703W        W50963   3.411  33.028   2.018
78704W        W50964  34.887  35.445   2.362
78705W        W50965  27.115  44.492   1.764
78706W        W50966  36.104  23.488   4.125
78707W        W50967   3.892   7.167   4.447
78708W        W50968  22.776  32.861  12.940
78709W        W50969  23.095  17.227   4.390
78710W        W50970   7.802   3.204  12.167
78711W        W50971  35.318  43.063   1.295
78712W        W50972  29.455  18.641  11.483
78713W        W50973  20.114  28.801   0.725
78714W        W50974  12.821  19.752  11.537
78715W        W50975  35.050  40.908   4.179
78716W        W50976   0.744  34.430  12.042
78717W        W50977  20.141  20.543   2.742
78718W        W50978  30.935  24.214  12.440
78719W        W50979   5.782  21.275  13.886
78720W        W50980  16.252  12.287  12.938
78721W        W50981  15.377  11.119   0.887
78722W        W50982  13.714  38.364  12.374
78723W        W50983  41.239  34.082   1.681
78724W        W50984  11.714  26.810  10.649
78725W        W50985  11.983  29.022  14.994
78726W        W50986  38.099  27.189   0.750
78727W        W50987  11.660  29.081  13.596
78728W        W50988  41.498   4.186   5.005
78729W        W50989   7.806  19.837  11.905
78730W        W50990  11.169  37.324   0.784
78731W        W50991  16.211  17.081   0.967
78732W        W50992  25.227  15.766   3.951
78733W        W50993  41.328  13.651   1.938
78734W        W50994  26.706  22.762   3.239
78735W        W50995  42.705  15.061   2.139
78736W        W50996  40.311  30.459  11.204
78737W        W50997  22.997  10.492   1.367
78738W        W50998  14.545  31.144  13.978
78739W        W50999   6.637   6.008  10.628
78740W        W51000  35.616   4.524  10.742
78741W        W51001  42.292  30.472  13.031
78742W        W51002  24.789  28.679  14.901
78743W        W51003  41.196  41.004   4.101
78744W        W51004  42.434  27.052  11.552
78745W        W51005  26.174  23.734  11.511
78746W        W51006  28.900   6.647  12.336
78747W        W51007  38.444  10.835   9.869
78748W        W51008   5.375  19.018   0.190
78749W        W51009   3.388  34.734   0.081
78750W        W51010   8.222  42.435   3.088
78751W        W51011  34.823  15.339  13.520
78752W        W51012  25.786  40.917  11.990
78753W        W51013  34.336  26.249  12.925
78754W        W51014  23.166  29.257   1.607
78755W        W51015  24.193  22.534  11.165
78756W        W51016   6.357   8.683  13.466
78757W        W51017  40.816  23.145   3.674
78758W        W51018  12.292  36.606   2.420
78759W        W51019  14.296  25.280   3.448
78760W        W51020  14.246  25.920  13.567
78761W        W51021  11.397  12.954  12.188
78762W        W51022  20.057  10.392   2.331
78763W        W51023  42.120   5.005   0.243
78764W        W51024  23.036  21.458   0.921
78765W        W51025  38.560   9.150  11.742
78766W        W51026  34.167   7.634  13.840
78767W        W51027  42.082  43.310  12.691
78768W        W51028   8.598  30.704   3.475
78769W        W51029  37.900  10.847   2.696
78770W        W51030  43.336  16.328  13.021
78771W        W51031  39.121  11.408   0.446
78772W        W51032  40.515  43.491   4.771
78773W        W51033  23.028  25.612   3.821
78774W        W51034  40.750  12.680  14.507
78775W        W51035   6.690   8.846  14.387
78776W        W51036  23.065  23.202  14.958
78777W        W51037  24.968   2.333  11.653
78778W        W51038  23.210   8.558  11.511
78779W        W51039   3.329   2.076   3.700
78780W        W51040  35.835  19.811  11.122
78781W        W51041   1.101  17.650  14.233
78782W        W51042  44.424  43.485  12.929
78783W        W51043  36.430  41.828  10.962
78784W        W51044  26.191  31.644   1.440
78785W        W51045  41.487  34.446   2.818
78786W        W51046  33.494  43.237  12.009
78787W        W51047  18.238  35.566   0.450
78788W        W51048  14.330  11.339  11.167
78789W        W51049  20.020  38.973   0.451
78790W        W51050  41.406  27.924   0.320
78791W        W51051  32.714  22.006   2.975
78792W        W51052  10.297  19.713   0.407
78793W        W51053  29.989   2.540   2.610
78794W        W51054   7.280  44.008  12.030
78795W        W51055  35.483  15.116   4.628
78796W        W51056  36.595  30.903  11.764
78797W        W51057  27.252  29.559   3.788
78798W        W51058  18.727  37.414  10.901
78799W        W51059  33.787  33.152   2.600
78800W        W51060  35.455  27.221   3.022
78801W        W51061  28.606   3.357   3.299
78802W        W51062  27.879  43.425  13.552
78803W        W51063   7.036  35.070  12.872
78804W        W51064  33.631  23.053  13.680
78805W        W51065  41.245  33.356  11.081
78806W        W51066  36.984   9.138  13.874
78807W        W51067  10.856   2.399   2.132
78808W        W51068  19.525  39.870  13.646
78809W        W51069  31.893  44.754   1.496
78810W        W51070  18.510  16.626  13.471
78811W        W51071  15.397  13.608   4.119
78812W        W51072  21.179   9.310   0.880
78813W        W51073  44.220  36.985  10.669
78814W        W51074  27.893   3.429   3.066
78815W        W51075  31.604   6.632  13.382
78816W        W51076  35.127  35.475  12.969
78817W        W51077  37.667  40.412   4.555
78818W        W51078  42.332  33.843   1.318
78819W        W51079  17.176   7.758  14.275
78820W        W51080   4.350  41.178   1.233
78821W        W51081  21.462  44.226  10.314
78822W        W51082  36.331  16.559  13.051
78823W        W51083  31.555  11.532   1.426
78824W        W51084   7.397   9.902  11.221
78825W        W51085   6.018  38.912  11.644
78826W        W51086  20.406   2.919  14.891
78827W        W51087   8.278  42.864  10.765
78828W        W51088  32.436  24.649  13.565
78829W        W51089  10.257   9.795   2.334
78830W        W51090  44.379  18.462   4.033
78831W        W51091  26.226  18.366   2.603
78832W        W51092  39.082  32.359   0.451
78833W        W51093  34.590  17.616  10.629
78834W        W51094  27.117  29.047  12.629
78835W        W51095  23.537   9.281   1.189
78836W        W51096   1.375  21.219   4.047
78837W        W51097   1.004  34.030   1.697
78838W        W51098  36.696  18.121   3.056
78839W        W51099  34.999  27.633   3.436
78840W        W51100  36.090   4.955  12.375
78841W        W51101   7.790  16.591   4.898
78842W        W51102  38.349  35.495  14.204
78843W        W51103  32.563  21.821  12.671
78844W        W51104  11.052  21.100   2.818
78845W        W51105  34.265  36.933   0.722
78846W        W51106  12.182  42.893   3.629
78847W        W51107  27.735   6.949   0.070
78848W        W51108  44.534   4.375   1.821
78849W        W51109   6.440  16.068   3.836
78850W        W51110  31.233  40.941  11.661
78851W        W51111  35.806  17.905  12.611
78852W        W51112  27.186  10.869  11.226
78853W        W51113  43.721   5.221  12.496
78854W        W51114   6.697  36.901  13.946
78855W        W51115  19.779  16.651  11.488
78856W        W51116  31.631  22.449  11.074
78857W        W51117  42.699  42.951  14.274
78858W        W51118  42.394  35.716  14.879
78859W        W51119  20.358  18.692   0.680
78860W        W51120  32.077  40.399   4.573
78861W        W51121  11.168  42.474  10.740
78862W        W51122   8.774  38.328  10.319
78863W        W51123  30.166   8.177   0.884
78864W        W51124  33.082  13.168  11.370
78865W        W51125  40.397  18.323  14.792
78866W        W51126  23.365   3.239  10.033
78867W        W51127  12.136  10.811  10.625
78868W        W51128  42.024  14.806  10.777
78869W        W51129  11.645  21.682  12.866
78870W        W51130  22.633   4.822   2.156
78871W        W51131  16.844   8.312  12.465
78872W        W51132  21.094  23.731   4.587
78873W        W51133  12.158   6.784  14.963
78874W        W51134  27.041  10.670   4.678
78875W        W51135  26.886  16.156   1.291
78876W        W51136   7.790  43.033   0.232
78877W        W51137  18.714  19.722  10.479
78878W        W51138   1.968  25.488  11.025
78879W        W51139  12.625  34.172  11.375
78880W        W51140  25.706  35.842   4.736
78881W        W51141  32.428  32.760   2.687
78882W        W51142  28.644  29.623   1.300
78883W        W51143  12.266  17.139  12.590
78884W        W51144  18.725  35.351   2.723
78885W        W51145  24.121  37.205   0.538
78886W        W51146  10.810  25.135   3.107
78887W        W51147  20.042  25.722   3.599
78888W        W51148  23.728  37.580  12.452
78889W        W51149   8.361  44.292   4.298
78890W        W51150   3.231  20.807   3.546
78891W        W51151   3.983   9.758  12.432
78892W        W51152  42.749  31.236  12.917
78893W        W51153  13.401  17.268   1.860
78894W        W51154  17.603  38.262   3.104
78895W        W51155  19.159  32.416   5.089
78896W        W51156   3.058  38.933  12.256
78897W        W51157  24.766   8.238  11.106
78898W        W51158   8.222  43.380  13.289
78899W        W51159  17.562  30.415   3.184
78900W        W51160  15.776  15.099   3.127
78901W        W51161  12.025  30.111   4.111
78902W        W51162  21.045   2.525  10.688
78903W        W51163  13.821  38.635  13.955
78904W        W51164   0.890  38.900  12.203
78905W        W51165  13.818  16.694   1.558
78906W        W51166   7.815  15.406  13.158
78907W        W51167  34.463  38.018   4.651
78908W        W51168  18.028  23.574  12.947
78909W        W51169  31.055  36.413  14.031
78910W        W51170  12.779  29.413   0.198
78911W        W51171   6.702  34.208  13.815
78912W        W51172  21.214  25.299   4.554
78913W        W51173   9.793  14.802   1.218
78914W        W51174   6.387  26.122   0.815
78915W        W51175  33.371  41.582   1.800
78916W        W51176  33.224   3.498  13.346
78917W        W51177   2.737   1.350  10.711
78918W        W51178   8.892  34.221  12.836
78919W        W51179  28.180  38.047   1.811
78920W        W51180  24.413  35.163   4.714
78921W        W51181  37.988  30.225  14.055
78922W        W51182  38.081   8.660   0.373
78923W        W51183  26.636  43.325  13.007
78924W        W51184  35.655  35.507   4.123
78925W        W51185  38.960  22.775  13.045
78926W        W51186   5.401   6.299  11.949
78927W        W51187   1.820   3.846   1.633
78928W        W51188  18.033  15.102   4.590
78929W        W51189   7.791  21.698   1.945
78930W        W51190  15.773  42.052  12.027
78931W        W51191  10.698  25.736  11.961
78932W        W51192  31.866  19.599   4.580
78933W        W51193  17.565   9.916   2.626
78934W        W51194  37.918  11.005   4.004
78935W        W51195   1.770   6.224   3.800
78936W        W51196   3.350   0.077   2.609
78937W        W51197   2.565  36.699  13.208
78938W        W51198  37.495   9.591  10.470
78939W        W51199   8.230  37.508   1.727
78940W        W51200  37.493  44.886   3.748
78941W        W51201   3.780  37.696  12.463
78942W        W51202  37.494   4.287  14.731
78943W        W51203  32.661  18.618  12.725
78944W        W51204  32.993  17.197   0.245
78945W        W51205   0.679  20.950   1.364
78946W        W51206  22.236   2.529  14.024
78947W        W51207  29.171  26.454   4.096
78948W        W51208   0.699  42.020   3.636
78949W        W51209  18.867  27.868   0.645
78950W        W51210  25.189  22.821   2.527
78951W        W51211   9.120  27.463  11.519
78952W        W51212  39.334  25.406   2.874
78953W        W51213  28.182  16.825   4.652
78954W        W51214  18.808  32.095   1.951
78955W        W51215  34.023  40.357  10.672
78956W        W51216   3.216  30.277   4.495
78957W        W51217  21.298  36.091  11.519
78958W        W51218  36.064  20.954  13.192
78959W        W51219   7.333  34.608   3.909
78960W        W51220   3.329  35.652  14.023
78961W        W51221  37.991  12.816  14.069
78962W        W51222  20.247  36.770   2.068
78963W        W51223  40.735  25.488  12.729
78964W        W51224  16.535  13.139   1.867
78965W        W51225  27.740   4.986   0.349
78966W        W51226  32.660  20.389  11.899
78967W        W51227  10.380  26.219   2.377
78968W        W51228   3.705   8.456   1.819
78969W        W51229   0.509  12.936   1.421
78970W        W51230  37.471  10.203   4.623
78971W        W51231  21.252  38.417   4.853
78972W        W51232  20.800  21.542   0.184
78973W        W51233   0.363  23.134   3.919
78974W        W51234  14.112  23.629   0.688
78975W        W51235  21.675  39.455   2.654
78976W        W51236  19.130  16.855   2.495
78977W        W51237  27.528  35.499  11.102
78978W        W51238  15.001   6.276   5.094
78979W        W51239  11.653  40.843  12.032
78980W        W51240   1.321  21.774  14.287
78981W        W51241  27.145  21.969   4.688
78982W        W51242  34.933  18.078  12.144
78983W        W51243   2.371  13.690   3.897
78984W        W51244   2.384  29.572   2.755
78985W        W51245  43.754  18.312  12.039
78986W        W51246  19.899  27.553  13.479
78987W        W51247  27.583   0.041   3.268
78988W        W51248  40.439  38.880   2.424
78989W        W51249  35.999  26.968  11.966
78990W        W51250  41.387  23.177  14.698
78991W        W51251  15.129  39.787  12.884
78992W        W51252  20.578  19.630   4.536
78993W        W51253  11.322  29.876  14.433
78994W        W51254   2.382  42.559  10.730
78995W        W51255  23.251  29.762   0.704
78996W        W51256   7.389   8.904   1.350
78997W        W51257  32.496  31.051  14.669
78998W        W51258  44.406  10.296  12.939
78999W        W51259  44.716  13.005  12.047
79000W        W51260  34.192  44.506  14.210
79001W        W51261  44.004  22.342   4.192
79002W        W51262  24.139  25.990   1.638
79003W        W51263   0.983  28.614  13.841
79004W        W51264  26.881  30.593   4.110
79005W        W51265  31.610  39.411  14.415
79006W        W51266  31.487  19.611  10.656
79007W        W51267  33.952  17.780   1.682
79008W        W51268  33.145  39.466   1.755
79009W        W51269  29.712  40.835  11.552
79010W        W51270  42.817  23.895   3.727
79011W        W51271  29.193  10.246  14.276
79012W        W51272  28.950  14.582  11.921
79013W        W51273  31.621  17.535  10.795
79014W        W51274  18.191  25.035   2.763
79015W        W51275  32.507  32.100  14.389
79016W        W51276  34.540  38.324  11.279
79017W        W51277  29.956   8.322  11.214
79018W        W51278  15.713  18.451  13.110
79019W        W51279   7.822  17.208   2.999
79020W        W51280  18.983  12.303  11.587
79021W        W51281  18.727  13.066  13.455
79022W        W51282   1.505   4.856  14.266
79023W        W51283  30.159   8.577   2.627
79024W        W51284  18.383  41.345   4.991
79025W        W51285  26.073   1.926  13.518
79026W        W51286   8.624  36.039   2.601
79027W        W51287   3.351  30.906  10.616
79028W        W51288   7.010   2.289   0.899
79029W        W51289   8.243  16.663  12.928
79030W        W51290  11.100  23.197   2.368
79031W        W51291  24.894   9.216   4.642
79032W        W51292  30.181  19.136  11.569
79033W        W51293   8.738  15.798   3.665
79034W        W51294   4.436  19.538  13.070
79035W        W51295  26.819   1.381  12.058
79036W        W51296  22.223  13.062  12.528
79037W        W51297  26.001  14.171   5.034
79038W        W51298  32.139   5.259   2.181
79039W        W51299   1.875  42.051   0.409
79040W        W51300  39.682  20.305   1.116
79041W        W51301  37.384  20.137   1.244
79042W        W51302  34.053  11.665  14.222
79043W        W51303  35.038  20.944   2.517
79044W        W51304   7.688   7.645  13.539
79045W        W51305  26.028   8.670   4.230
79046W        W51306  24.561  40.663  10.625
79047W        W51307  34.438  25.128   0.264
79048W        W51308  20.816  20.940   3.704
79049W        W51309  44.210  33.866   0.353
79050W        W51310  31.980  25.726   5.007
79051W        W51311   2.247  22.113  11.051
79052W        W51312   0.468   8.814  11.662
79053W        W51313  36.137   2.504   3.211
79054W        W51314  10.219  18.513  12.588
79055W        W51315  44.588  40.106   1.828
79056W        W51316   9.944   0.896  12.634
79057W        W51317   9.702  26.022  13.292
79058W        W51318  18.173  33.695  13.231
79059W        W51319  15.340  28.610  12.944
79060W        W51320  38.592   3.335   1.350
79061W        W51321  35.538  19.159  10.586
79062W        W51322  30.923   3.921  14.796
79063W        W51323  43.919  37.320   2.033
79064W        W51324  27.378  33.259   4.689
79065W        W51325  31.974  26.025   2.083
79066W        W51326  31.020   0.906   3.349
79067W        W51327  23.558  41.746  13.963
79068W        W51328  31.912  24.113  11.452
79069W        W51329  17.086  14.426   1.945
79070W        W51330  13.780  38.844   3.357
79071W        W51331  41.287  21.440   0.993
79072W        W51332  18.456  43.454   1.241
79073W        W51333  39.095  41.986  11.529
79074W        W51334  31.121   5.993   1.400
79075W        W51335  36.355  25.445  14.941
79076W        W51336  29.211  27.938  11.921
79077W        W51337  37.290   1.996  11.122
79078W        W51338   8.257  10.200   5.053
79079W        W51339  26.790  30.435   2.613
79080W        W51340  29.436  38.828  14.057
79081W        W51341  30.181  38.939  14.358
79082W        W51342  27.256  37.725  13.390
79083W        W51343  12.918   3.588   1.585
79084W        W51344  40.400  34.891   3.178
79085W        W51345   8.342  29.170  13.902
79086W        W51346  19.233  44.285  12.505
79087W        W51347  11.691  30.194  14.264
79088W        W51348   5.376   5.363   3.628
79089W        W51349  32.873   6.805   2.358
79090W        W51350  44.000  18.077   3.411
79091W        W51351  16.821   6.768   1.443
79092W        W51352  13.595  28.801   1.407
79093W        W51353   6.938  15.640   3.288
79094W        W51354  44.389  28.694  12.940
79095W        W51355  29.695   4.741   1.703
79096W        W51356  41.479  28.431  11.932
79097W        W51357  12.798   2.927  13.599
79098W        W51358   7.843   8.422   3.235
79099W        W51359  29.007  16.796  14.302
79100W        W51360   1.284  17.818  13.752
79101W        W51361  10.177  15.221   4.113
79102W        W51362   0.378   8.812  12.180
79103W        W51363  41.879   5.908  13.389
79104W        W51364   4.770  39.876   2.645
79105W        W51365  31.003  39.480  13.274
79106W        W51366  20.259   0.541  14.138
79107W        W51367  15.241  44.891  11.637
79108W        W51368   0.757  33.960   1.238
79109W        W51369  36.258  20.779  11.839
79110W        W51370  23.415  22.190  12.017
79111W        W51371  37.320  40.222  11.101
79112W        W51372  42.045   0.923  12.477
79113W        W51373  34.813  42.397  14.017
79114W        W51374   5.332  24.345  13.886
79115W        W51375   5.806  35.636   2.384
79116W        W51376   7.750  32.357  12.520
79117W        W51377  31.656  10.879  12.551
79118W        W51378  21.681   0.474   1.222
79119W        W51379  28.919  23.027  10.740
79120W        W51380  13.209  36.359   3.891
79121W        W51381  12.264  30.717   4.238
79122W        W51382   4.351  27.672   4.948
79123W        W51383  15.869   3.228  10.999
79124W        W51384  36.842  44.238  11.612
79125W        W51385  36.469  41.330   5.141
79126W        W51386  36.380  15.856  12.533
79127W        W51387  40.735  34.940  12.521
79128W        W51388  13.862  14.727  11.057
79129W        W51389  19.113  28.462  12.562
79130W        W51390  36.801  18.711  10.563
79131W        W51391   9.881  34.043   3.086
79132W        W51392  34.994  30.218   2.790
79133W        W51393  43.303   3.573   0.349
79134W        W51394   4.492  27.925   2.355
79135W        W51395   9.883   7.140   2.281
79136W        W51396  12.699  11.879  13.974
79137W        W51397  42.491   7.149   3.304
79138W        W51398  19.277  37.104  14.896
79139W        W51399  10.827  31.854  11.626
79140W        W51400  43.597  19.725   4.160
79141W        W51401  41.515   1.912   4.912
79142W        W51402   4.162   2.766  14.757
79143W        W51403  22.617  22.054   1.217
79144W        W51404  28.621  21.746  11.631
79145W        W51405  44.361  35.674  13.252
79146W        W51406  38.661   3.643   1.776
79147W        W51407   7.081  26.775  12.367
79148W        W51408  43.005  33.838   2.160
79149W        W51409   3.651  39.775  11.198
79150W        W51410   5.427  42.505   3.694
79151W        W51411   7.324   9.438  12.000
79152W        W51412  12.899  17.011  10.622
79153W        W51413  16.142   3.357  13.272
79154W        W51414  17.548  11.225   2.196
79155W        W51415  19.131  41.691  12.487
79156W        W51416   9.132  38.521   4.317
79157W        W51417  13.609  32.538  14.141
79158W        W51418  16.774  20.009  11.066
79159W        W51419   8.698  17.751   0.339
79160W        W51420  14.558  36.332   1.132
79161W        W51421  18.290  35.545  11.221
79162W        W51422  16.065  17.855   1.552
79163W        W51423  13.590   2.571   4.672
79164W        W51424  24.769   8.235   0.533
79165W        W51425   1.485  40.042  12.941
79166W        W51426  25.175  31.518   1.797
79167W        W51427  14.612  30.835  11.825
79168W        W51428  41.396  31.377  10.676
79169W        W51429  22.479  30.933  13.509
79170W        W51430  21.786   4.788  12.023
79171W        W51431  25.146  26.515  14.073
79172W        W51432  44.043  42.582  11.950
79173W        W51433  18.650  25.020   4.534
79174W        W51434   8.739  33.375   3.201
79175W        W51435  30.884  22.459  11.602
79176W        W51436  16.198  19.826  12.452
79177W        W51437  29.651  39.455  10.880
79178W        W51438  10.850  15.960  11.138
79179W        W51439  14.121  38.523  12.098
79180W        W51440  35.598  43.230   4.232
79181W        W51441  14.275  41.663  13.358
79182W        W51442  28.412  18.222   3.499
79183W        W51443  33.966  33.132  11.147
79184W        W51444  32.404  29.507   0.364
79185W        W51445  21.801   2.234  11.032
79186W        W51446  23.666  35.642   4.207
79187W        W51447  31.855  40.600  12.808
79188W        W51448   9.291  41.353  10.856
79189W        W51449  14.815  13.097  13.448
79190W        W51450  25.674   6.579   4.130
79191W        W51451  12.193  19.786   5.105
79192W        W51452  40.573   3.617  12.539
79193W        W51453  19.523  38.927   3.278
79194W        W51454  42.012  37.926  10.496
79195W        W51455   3.036  31.359   1.376
79196W        W51456   2.468  35.467  14.399
79197W        W51457   8.031  28.501   1.853
79198W        W51458   9.862  32.802   0.309
79199W        W51459  22.070  27.729   3.514
79200W        W51460  36.649  41.539  14.067
79201W        W51461   7.943  17.117  14.425
79202W        W51462  32.004  29.568   2.798
79203W        W51463  18.664  32.053   2.452
79204W        W51464   0.195  16.820   2.770
79205W        W51465   3.266  28.932  14.790
79206W        W51466  13.484   7.987  14.828
79207W        W51467  12.072   7.093   3.164
79208W        W51468  25.454  41.415   0.509
79209W        W51469  30.307  41.363   1.413
79210W        W51470  18.178   1.826   2.381
79211W        W51471  21.230  17.027   3.332
79212W        W51472  40.322  23.557   3.189
79213W        W51473  22.690  23.849   1.729
79214W        W51474   4.856  28.077  14.812
79215W        W51475  44.752   3.865  14.136
79216W        W51476   6.175  37.100  10.637
79217W        W51477  22.093  10.322  13.469
79218W        W51478  26.555  24.005   4.623
79219W        W51479  40.861   0.818   0.757
79220W        W51480  16.042  42.337   3.364
79221W        W51481  11.926   2.202   4.311
79222W        W51482  28.026  42.153   1.590
79223W        W51483  22.573  16.973   3.286
79224W        W51484  26.949   2.744  11.622
79225W        W51485  11.376  41.871  14.740
79226W        W51486  18.023  28.142   2.273
79227W        W51487  12.293  44.735  12.958
79228W        W51488  32.552  13.107   2.646
79229W        W51489  10.786  35.389   0.579
79230W        W51490  27.238  22.188   1.988
79231W        W51491   7.663  30.971  10.730
79232W        W51492  19.246   2.516   2.706
79233W        W51493  17.457  21.910  10.747
79234W        W51494  38.291   5.174   3.465
79235W        W51495  42.916  10.040   4.658
79236W        W51496  11.592  25.086   1.769
79237W        W51497  44.853  32.212  11.061
79238W        W51498  36.585  23.662   4.095
79239W        W51499   1.332  30.579  13.447
79240W        W51500  23.266  27.968   2.804
79241W        W51501   0.350  30.601  12.017
79242W        W51502  28.490  18.252   0.758
79243W        W51503  29.687  13.620   1.754
79244W        W51504  43.415  35.956   3.699
79245W        W51505  20.694   7.489   3.277
79246W        W51506  39.292  36.225   2.363
79247W        W51507  21.079   4.408  12.616
79248W        W51508   6.900  38.120   2.722
79249W        W51509  38.249  42.913  13.980
79250W        W51510   3.837   1.095   3.237
79251W        W51511   4.896  22.238   1.775
79252W        W51512  14.923  38.552  14.404
79253W        W51513   0.877   8.659  12.175
79254W        W51514  41.222  20.038  11.696
79255W        W51515  19.526  13.518  10.816
79256W        W51516  32.801  21.586   0.904
79257W        W51517  43.510  16.876  11.600
79258W        W51518  25.750  12.389  14.033
79259W        W51519  35.576  19.492  13.057
79260W        W51520  24.041  25.562  11.644
79261W        W51521  20.227  15.360   3.162
79262W        W51522  40.583  29.783   1.652
79263W        W51523  23.666  28.100   1.254
79264W        W51524  43.342  24.546   4.303
79265W        W51525   5.781  30.388   1.889
79266W        W51526  29.127  34.591   2.070
79267W        W51527   6.949  24.539   1.693
79268W        W51528   4.873  41.929   4.151
79269W        W51529   2.691   7.219   9.985
79270W        W51530  18.399   1.966  12.991
79271W        W51531  33.107  42.034   3.820
79272W        W51532   5.288   2.012  11.366
79273W        W51533  10.303  14.128   0.477
79274W        W51534  43.920  16.634   1.944
79275W        W51535   4.560  37.948  11.224
79276W        W51536  38.614  13.465  10.977
79277W        W51537   9.939  41.802  14.448
79278W        W51538   7.524  22.327  14.744
79279W        W51539  21.267   9.250   1.378
79280W        W51540  20.297  32.125   1.223
79281W        W51541   2.687  30.894  12.050
79282W        W51542  37.379  14.756  10.799
79283W        W51543   4.359  32.008   0.497
79284W        W51544  13.874  13.718   4.415
79285W        W51545  42.494  34.669  11.990
79286W        W51546  34.367  43.487  13.299
79287W        W51547   1.813  32.179  14.732
79288W        W51548  41.946  26.066  12.374
79289W        W51549  31.878  39.623   4.124
79290W        W51550  20.116  18.269   4.661
79291W        W51551  43.945   9.825   1.017
79292W        W51552  16.622  26.006   2.343
79293W        W51553   1.056  41.432  12.851
79294W        W51554   2.843  44.368   2.579
79295W        W51555   2.632  39.436  12.556
79296W        W51556  17.881  37.019   1.425
79297W        W51557  29.690  24.932  13.026
79298W        W51558  10.798   0.207  11.937
79299W        W51559  11.049  23.642  11.640
79300W        W51560  30.083  20.635   0.756
79301W        W51561  20.258  34.568  11.174
79302W        W51562  25.108  19.036  10.842
79303W        W51563  16.281  35.641   1.199
79304W        W51564  22.548  12.622  11.594
79305W        W51565  22.625  26.422  11.348
79306W        W51566   2.477  17.811  13.965
79307W        W51567  31.126  35.398   1.358
79308W        W51568  37.586  30.308   3.656
79309W        W51569   2.179  36.886   2.299
79310W        W51570  39.968  16.751   1.856
79311W        W51571  10.378  34.002  11.124
79312W        W51572   1.658  25.030   3.658
79313W        W51573   8.622  31.337  13.836
79314W        W51574  25.622   1.632   3.631
79315W        W51575  12.672   4.783  13.145
79316W        W51576  35.366  42.720  14.485
79317W        W51577   0.778  24.177  14.534
79318W        W51578  15.569  23.991  12.076
79319W        W51579  30.815  18.490  14.927
79320W        W51580  37.080   0.561  14.094
79321W        W51581  42.960  34.960  13.037
79322W        W51582  30.483  29.863   0.237
79323W        W51583  33.039  22.007  12.592
79324W        W51584  34.439  20.726  10.657
79325W        W51585  10.543  22.581   1.934
79326W        W51586  20.310  11.817   3.170
79327W        W51587  28.838  14.138  12.137
79328W        W51588  10.546  33.544  14.823
79329W        W51589  21.108  39.055   0.323
79330W        W51590   1.367  43.639   3.952
79331W        W51591  39.540  28.169  12.963
79332W        W51592  36.946  40.187  12.397
79333W        W51593   6.679  30.397  12.449
79334W        W51594  42.808  35.586   1.426
79335W        W51595   7.304  29.353  14.716
79336W        W51596  29.344   0.962  12.429
79337W        W51597  10.699   9.396  12.949
79338W        W51598  22.052   6.686  12.521
79339W        W51599   9.510   8.186   3.879
79340W        W51600  30.023  29.191   3.326
79341W        W51601  31.212  15.164   1.809
79342W        W51602   1.713  22.871  12.466
79343W        W51603  13.932  31.537  10.497
79344W        W51604   0.651  40.347   3.298
79345W        W51605  38.431  34.790   0.550
79346W        W51606  24.296  11.128   4.583
79347W        W51607  39.809  13.792  13.877
79348W        W51608  35.036  11.884   4.425
79349W        W51609   6.965   6.473   4.297
79350W        W51610  12.948  40.621   0.546
79351W        W51611  15.201  17.695   1.284
79352W        W51612  18.846  19.806  13.912
79353W        W51613  42.538   7.119  13.531
79354W        W51614  42.403  21.409   4.024
79355W        W51615  33.117  18.766  12.407
79356W        W51616   6.932  39.005  13.322
79357W        W51617  39.538   5.327  11.614
79358W        W51618  14.496  35.975   2.779
79359W        W51619  24.652  31.078  11.627
79360W        W51620  21.994  38.819   2.908
79361W        W51621   5.889   5.180  14.195
79362W        W51622  43.381  28.346   0.874
79363W        W51623  23.949  40.140  10.170
79364W        W51624   5.473  23.126   4.128
79365W        W51625   8.449  11.201  12.477
79366W        W51626  23.220  16.737   3.737
79367W        W51627  26.640  15.669   0.036
79368W        W51628  11.504  21.121  14.513
79369W        W51629  14.283  19.758   1.198
79370W        W51630  27.536  18.143   2.566
79371W        W51631  12.157  40.107  11.138
79372W        W51632  24.496  40.510   0.184
79373W        W51633  13.772  19.619  11.455
79374W        W51634  36.988  32.596   3.822
79375W        W51635  16.254  28.963   4.814
79376W        W51636  44.505  13.184  14.650
79377W        W51637  42.359  11.196  12.077
79378W        W51638  41.425  39.091  11.610
79379W        W51639  41.515   1.426  10.881
79380W        W51640  15.028  23.796   4.197
79381W        W51641  16.271  33.134  12.255
79382W        W51642  21.239   2.826   3.656
79383W        W51643  44.983  40.985   1.323
79384W        W51644  20.417  35.079   4.449
79385W        W51645   5.275   0.576  11.863
79386W        W51646  36.399  11.544   4.523
79387W        W51647   8.173  14.598   1.898
79388W        W51648  21.833  35.664   1.836
79389W        W51649  19.584  19.656   2.808
79390W        W51650  37.422  28.253   0.428
79391W        W51651  10.045  43.390   0.766
79392W        W51652  40.695   1.821  11.303
79393W        W51653  16.880  11.853   4.289
79394W        W51654   2.596  37.890   2.784
79395W        W51655   8.810  16.115   1.846
79396W        W51656  23.138  28.902   4.337
79397W        W51657   5.424  37.297  13.902
79398W        W51658  24.383   5.371  13.422
79399W        W51659  30.809  15.248   2.677
79400W        W51660  16.148  34.583  12.853
79401W        W51661  27.403  32.273   4.954
79402W        W51662  23.480  16.329  13.235
79403W        W51663  37.473  26.213  12.991
79404W        W51664   3.528  30.243   2.013
79405W        W51665  16.655  15.340   2.094
79406W        W51666  18.400   2.529  12.882
79407W        W51667   9.080  32.506   1.533
79408W        W51668   9.251  18.496  12.993
79409W        W51669  39.893  21.151   3.454
79410W        W51670  19.533   2.879  14.314
79411W        W51671  32.143  39.292   3.747
79412W        W51672   9.812  30.011   3.667
79413W        W51673   4.279  11.928   3.225
79414W        W51674  15.163  14.896  12.768
79415W        W51675  23.802  26.181   2.307
79416W        W51676   7.806  39.785   0.444
79417W        W51677   7.200  44.703   4.318
79418W        W51678  34.674  34.495  10.797
79419W        W51679  19.490  21.006   3.220
79420W        W51680  31.906  40.084  14.865
79421W        W51681  29.492  43.834  14.702
79422W        W51682  28.909   6.636  10.880
79423W        W51683   2.848  16.286  14.785
79424W        W51684  36.397  21.099  11.399
79425W        W51685  39.418  35.190   2.302
79426W        W51686  22.897   1.813   2.828
79427W        W51687  12.492   9.385   2.151
79428W        W51688  40.661  26.128   0.367
79429W        W51689  18.329  21.527  11.168
79430W        W51690  22.773  40.741   3.680
79431W        W51691  39.034  35.979   5.113
79432W        W51692  30.877   2.520  11.060
79433W        W51693  10.454   6.830   1.232
79434W        W51694  26.592   6.194   3.745
79435W        W51695   9.267   2.451   2.240
79436W        W51696  21.573  35.747   2.346
79437W        W51697  37.093  34.876  14.868
79438W        W51698  22.139  25.613  10.106
79439W        W51699   9.876  30.538   2.122
79440W        W51700  16.126  12.728   0.210
79441W        W51701  24.778  20.159  12.902
79442W        W51702  44.959  28.360   2.762
79443W        W51703  44.992   4.791  13.986
79444W        W51704  38.875  15.920   4.545
79445W        W51705   5.240  17.149   2.751
79446W        W51706   7.697  18.503   0.521
79447W        W51707  10.726  37.028   3.322
79448W        W51708   9.737  15.622   3.194
79449W        W51709  15.528   4.897   4.190
79450W        W51710  44.537  14.261   0.487
79451W        W51711   7.276  32.135   0.304
79452W        W51712  41.792  13.783   4.194
79453W        W51713  18.310  31.914   0.013
79454W        W51714  35.295   0.575   0.807
79455W        W51715  16.191  33.222   9.970
79456W        W51716  27.927   6.199  11.456
79457W        W51717  24.523  18.530   1.951
79458W        W51718  15.357  43.115   2.255
79459W        W51719   9.438   4.824   1.845
79460W        W51720   1.016   7.373   2.264
79461W        W51721   7.795  44.725  10.719
79462W        W51722  10.598  35.926  12.192
79463W        W51723   7.732  43.902   2.724
79464W        W51724  42.839  32.091   2.749
79465W        W51725  34.025   9.367  14.912
79466W        W51726  36.268  32.610   3.255
79467W        W51727   5.224  16.541   3.356
79468W        W51728  41.359   1.492  14.361
79469W        W51729   5.188  39.822  11.162
79470W        W51730   0.458  37.835  13.825
79471W        W51731  39.073   1.130  14.786
79472W        W51732  23.552   7.357   3.613
79473W        W51733  10.940  24.703   2.334
79474W        W51734  14.058  43.721  14.557
79475W        W51735  35.885  25.665   1.251
79476W        W51736   1.344  21.522   1.306
79477W        W51737  11.186  44.759   0.024
79478W        W51738  13.271  13.078   4.834
79479W        W51739  39.368  22.624   1.021
79480W        W51740   6.653  36.826  11.495
79481W        W51741  11.510  13.752  12.767
79482W        W51742  32.654   8.714  12.869
79483W        W51743  40.557  30.924  11.936
79484W        W51744   3.877  41.423  12.855
79485W        W51745   2.838  15.059   4.313
79486W        W51746  34.573  25.835  11.156
79487W        W51747  24.372  30.899  13.164
79488W        W51748  44.239   5.408  11.133
79489W        W51749  43.835  38.139  12.090
79490W        W51750  32.714  36.163   4.489
79491W        W51751  14.171  12.570  13.785
79492W        W51752  11.702   1.766   4.505
79493W        W51753  22.621  39.880   2.355
79494W        W51754  24.621  28.970   0.755
79495W        W51755  33.120  44.904   1.269
79496W        W51756  22.584  36.918   1.390
79497W        W51757  15.794  36.559   4.985
79498W        W51758  42.142   8.689   5.210
79499W        W51759   9.597   6.967   3.167
79500W        W51760  44.818  30.244   1.551
79501W        W51761  19.546  25.667   2.773
79502W        W51762  44.728   6.219  11.004
79503W        W51763  38.233  16.540   0.670
79504W        W51764   7.326  41.320  12.843
79505W        W51765  32.073   8.371  13.945
79506W        W51766  28.170  11.189   0.881
79507W        W51767  11.429  35.977   0.818
79508W        W51768  10.998  27.025   2.247
79509W        W51769  22.541  35.860   2.483
79510W        W51770   2.776  42.433   3.418
79511W        W51771  43.708  37.896   0.230
79512W        W51772  31.558  15.185   4.310
79513W        W51773  12.542   4.260  10.615
79514W        W51774   4.411  27.694   5.470
79515W        W51775  30.473  16.243  11.946
79516W        W51776  43.253  39.240  11.190
79517W        W51777  36.129  26.135   2.814
79518W        W51778  22.239   8.364   0.876
79519W        W51779  29.917  15.756   1.896
79520W        W51780   5.624  42.939   5.178
79521W        W51781  23.159  22.145   3.249
79522W        W51782  19.713  10.205   0.619
79523W        W51783   3.814  27.455   1.910
79524W        W51784   9.739   8.471  10.667
79525W        W51785  25.425  30.912   4.868
79526W        W51786   9.716   8.467  14.889
79527W        W51787  18.805  26.515   4.186
79528W        W51788   2.764   5.924   4.608
79529W        W51789  33.830  44.440   0.239
79530W        W51790   9.289  30.055   4.564
79531W        W51791  40.880  31.843   2.870
79532W        W51792   8.951  29.458  10.273
79533W        W51793  27.824   0.875   3.176
79534W        W51794   1.778  30.894   0.691
79535W        W51795  11.342  32.900   3.103
79536W        W51796  24.019  23.491   4.161
79537W        W51797  25.030  22.749  11.271
79538W        W51798   3.806  35.155   2.147
79539W        W51799   9.019  24.203  10.651
79540W        W51800  16.817  23.709   0.229
79541W        W51801  26.239   5.926   4.705
79542W        W51802  11.899  33.486   4.134
79543W        W51803   0.994  39.908  10.257
79544W        W51804  27.108  11.973   4.293
79545W        W51805  12.537   1.954  13.876
79546W        W51806  30.475  34.128   4.412
79547W        W51807   2.986  17.043   2.302
79548W        W51808  24.551  17.869  14.875
79549W        W51809  21.767  30.609   0.782
79550W        W51810  29.286   0.765   0.957
79551W        W51811   7.982  38.298   2.001
79552W        W51812   4.073   1.986   1.769
79553W        W51813  19.510   6.798   4.047
79554W        W51814   2.730  33.928   0.106
79555W        W51815  40.048  36.903   2.558
79556W        W51816  32.080  16.805   4.861
79557W        W51817  44.413  30.880   0.357
79558W        W51818  32.164  43.135   0.031
79559W        W51819  32.651  11.723  10.843
79560W        W51820  36.636  38.336   0.945
79561W        W51821  42.704  20.676  13.729
79562W        W51822  22.676  24.595   4.690
79563W        W51823  19.106  32.597   4.572
79564W        W51824  40.050  39.962  12.503
79565W        W51825   3.842  24.631  14.830
79566W        W51826  18.234  29.300  13.501
79567W        W51827   8.643  39.020   0.350
79568W        W51828  33.947  27.800   1.424
79569W        W51829  32.473  22.081  11.866
79570W        W51830  18.672  29.433  14.970
79571W        W51831   2.874  27.719  10.645
79572W        W51832   5.272  19.487  13.354
79573W        W51833   8.911  31.968  10.014
79574W        W51834  22.590  27.484  12.413
79575W        W51835  29.169   5.408  13.022
79576W        W51836   5.619  29.954  13.441
79577W        W51837  24.678  10.340   2.242
79578W        W51838  20.764  17.506   2.016
79579W        W51839  21.058  25.121   9.973
79580W        W51840  22.151  37.961   0.392
79581W        W51841  42.299  41.282   2.347
79582W        W51842  16.032  43.888   2.730
79583W        W51843  23.388  36.014   0.823
79584W        W51844  12.946  40.997   4.663
79585W        W51845  32.419   3.262  14.367
79586W        W51846  18.973  40.470   2.817
79587W        W51847  14.130  16.821   3.264
79588W        W51848  31.590  23.095   3.742
79589W        W51849  32.858   0.018   3.710
79590W        W51850  28.468   0.434   0.955
79591W        W51851  15.827  11.672   0.541
79592W        W51852  38.843  21.563  11.585
79593W        W51853  38.152  19.536  11.463
79594W        W51854  23.318  43.376  10.632
79595W        W51855   5.717  16.536   4.313
79596W        W51856  11.842   9.412   0.912
79597W        W51857  42.822  16.877   3.864
79598W        W51858   5.870  11.725   0.431
79599W        W51859  15.775  19.383  13.831
79600W        W51860  27.801  15.283  13.736
79601W        W51861  32.898  22.839   3.297
79602W        W51862  26.208  44.425  11.064
79603W        W51863  40.932  43.289  12.064
79604W        W51864  35.654  33.890   1.769
79605W        W51865   7.636   7.843  12.090
79606W        W51866  42.314  31.413  11.588
79607W        W51867  31.788  43.496  14.726
79608W        W51868   7.772   5.916   3.236
79609W        W51869  10.338  16.964   3.120
79610W        W51870   5.236   3.438  11.095
79611W        W51871   3.566  22.522  11.647
79612W        W51872  34.805   5.670  11.541
79613W        W51873  37.872   1.776  14.732
79614W        W51874  15.724  12.393   3.972
79615W        W51875  10.329  35.311  10.950
79616W        W51876  42.324  14.116  11.207
79617W        W51877  10.137  14.812   1.614
79618W        W51878  14.193   7.306   4.575
79619W        W51879   2.471  35.991   0.818
79620W        W51880  32.600  14.297   1.327
79621W        W51881   9.351  19.339  11.896
79622W        W51882  28.922  31.378   2.742
79623W        W51883  14.651  35.622   1.017
79624W        W51884  40.420  24.657  13.390
79625W        W51885  38.473  23.071   0.477
79626W        W51886  15.101  31.556  13.919
79627W        W51887  37.134  43.324  13.845
79628W        W51888  13.701  44.812  14.386
79629W        W51889  42.659  37.812  14.375
79630W        W51890  43.756  14.651  11.337
79631W        W51891  26.977  41.279   5.082
79632W        W51892  43.160  30.534   4.357
79633W        W51893  39.506  18.675  13.554
79634W        W51894  27.294  32.424   0.413
79635W        W51895   2.613   1.319   1.168
79636W        W51896   4.844   1.183  12.426
79637W        W51897  15.702  44.213  14.907
79638W        W51898  12.334  35.536  11.995
79639W        W51899  18.176   4.546  10.925
79640W        W51900  41.000  29.757  10.924
79641W        W51901  34.832  38.886   1.854
79642W        W51902  32.922  34.436   1.627
79643W        W51903   5.425  15.498   3.877
79644W        W51904  32.018  15.429   2.216
79645W        W51905   3.544  41.866   4.483
79646W        W51906  30.939  36.677  11.150
79647W        W51907   6.613  38.398   0.843
79648W        W51908   9.844  36.618   3.169
79649W        W51909   9.021  42.126  12.411
79650W        W51910  14.958  27.421  11.202
79651W        W51911   2.126  40.288  13.554
79652W        W51912  25.429  34.352  10.661
79653W        W51913   5.135  21.835   2.021
79654W        W51914  43.776   7.312   4.581
79655W        W51915  12.939  28.101   2.584
79656W        W51916  26.918  15.579   3.283
79657W        W51917  41.862  44.176  13.314
79658W        W51918  20.204  11.263   4.738
79659W        W51919  35.385   6.362  14.297
79660W        W51920   1.562   5.043  13.768
79661W        W51921  15.378  28.562  11.136
79662W        W51922  35.998  44.050   0.938
79663W        W51923  44.384  23.464   1.857
79664W        W51924  40.541   0.999   3.450
79665W        W51925  33.302   5.362   2.578
79666W        W51926   8.173   4.443  11.135
79667W        W51927   2.948  21.876  14.046
79668W        W51928  16.548   5.316   3.604
79669W        W51929  44.202  20.119  13.920
79670W        W51930  40.682  16.272  14.295
79671W        W51931  11.763  28.797  10.138
79672W        W51932  33.390  33.709  13.398
79673W        W51933  15.716  14.157  13.000
79674W        W51934  22.985  25.114   4.038
79675W        W51935  21.179  34.392  10.710
79676W        W51936  36.165  28.494   2.731
79677W        W51937  25.760  35.819  12.880
79678W        W51938  41.813   3.447  12.413
79679W        W51939  32.575  20.614   0.346
79680W        W51940  44.637  28.735   0.903
79681W        W51941  24.065  13.234  14.374
79682W        W51942   4.272   9.522  11.098
79683W        W51943  41.380  30.422   2.900
79684W        W51944  43.913   2.349  13.036
79685W        W51945  25.364   6.341   0.346
79686W        W51946   0.564   1.859  10.337
79687W        W51947  25.222  41.537  14.340
79688W        W51948  35.114  30.888  12.896
79689W        W51949   6.618  16.482  12.589
79690W        W51950  11.753  28.566   0.949
79691W        W51951  27.084  32.127  13.311
79692W        W51952  37.092   8.578   5.647
79693W        W51953  26.570  19.715  14.850
79694W        W51954   5.167  31.905   2.265
79695W        W51955  32.502  11.288  11.604
79696W        W51956  40.495  32.984   1.741
79697W        W51957  43.362  33.029  10.658
79698W        W51958   8.242  22.629  12.916
79699W        W51959  26.260  42.563   3.827
79700W        W51960  14.527  11.812   0.538
79701W        W51961  33.461   8.862   3.495
79702W        W51962  13.797  31.652  11.714
79703W        W51963   2.957  24.857   3.404
79704W        W51964  40.436  14.040   4.702
79705W        W51965   0.476  26.077  11.558
79706W        W51966  34.018  31.416  11.902
79707W        W51967  23.661  42.924   4.265
79708W        W51968  10.601   5.859  14.895
79709W        W51969  32.513   7.653   9.572
79710W        W51970   3.716   9.439   4.098
79711W        W51971  10.913  40.283   3.988
79712W        W51972  39.698  42.603   0.903
79713W        W51973  37.106   6.938   2.209
79714W        W51974  21.475  16.743   0.974
79715W        W51975  32.927   0.547   3.643
79716W        W51976   4.719  29.158   4.350
79717W        W51977  21.954   6.944  13.892
79718W        W51978  36.568  40.839   3.745
79719W        W51979   3.749   5.196   2.352
79720W        W51980  37.007  16.334   4.524
79721W        W51981  19.119   6.592   1.234
79722W        W51982  44.079   6.871   0.347
79723W        W51983  18.133   6.955   2.657
79724W        W51984  38.252  32.433  11.534
79725W        W51985  19.023  37.345   3.842
79726W        W51986  23.699  10.363  13.376
79727W        W51987  31.577  34.814  14.278
79728W        W51988  21.108  23.506  13.222
79729W        W51989  42.639  32.676  14.949
79730W        W51990  26.332  19.598   0.304
79731W        W51991  20.535  22.698   2.651
79732W        W51992   0.913  14.603  12.881
79733W        W51993  16.063  26.551  13.089
79734W        W51994   9.919  16.252   3.170
79735W        W51995  14.828   4.624  11.419
79736W        W51996   2.261   2.187   1.834
79737W        W51997  43.369  37.539   2.059
79738W        W51998  35.881   3.549   0.300
79739W        W51999  41.474  20.689   3.706
79740W        W52000  20.987  32.380   3.722
79741W        W52001   5.193   2.791   3.710
79742W        W52002   3.667  41.768   3.771
79743W        W52003  17.237   1.273  14.767
79744W        W52004  28.052  20.445   2.166
79745W        W52005  25.013  11.697   2.756
79746W        W52006  31.363  38.821   0.054
79747W        W52007   6.674  43.947  12.507
79748W        W52008  27.667  39.918   0.505
79749W        W52009  16.767  38.626   3.598
79750W        W52010  20.066  25.859  12.451
79751W        W52011  26.257  29.419   0.763
79752W        W52012  40.070  38.186   3.740
79753W        W52013  33.637  10.239   0.379
79754W        W52014   1.734   5.668  12.469
79755W        W52015  23.108   2.456   1.595
79756W        W52016  21.688  32.177   0.546
79757W        W52017  21.702  25.977  13.081
79758W        W52018  26.189  44.753   2.341
79759W        W52019  26.200  43.287   4.581
79760W        W52020  39.637  44.127   1.882
79761W        W52021   7.132  14.336  11.471
79762W        W52022  18.020  23.200  13.868
79763W        W52023   5.603  29.015   3.764
79764W        W52024  30.380  12.756   3.396
79765W        W52025  22.907   2.404   0.630
79766W        W52026  11.118  10.673   4.506
79767W        W52027   6.823  35.943   1.698
79768W        W52028  31.775  30.915   3.699
79769W        W52029  35.576  32.858  14.523
79770W        W52030  25.926  17.768  10.507
79771W        W52031  32.587  42.457  13.994
79772W        W52032  20.781  41.313   2.862
79773W        W52033  17.775  24.545   1.431
79774W        W52034  18.475  39.559  13.388
79775W        W52035   9.629  30.203  12.629
79776W        W52036   1.876  44.414   3.246
79777W        W52037  32.396  11.760  13.820
79778W        W52038  22.666  27.255  11.951
79779W        W52039  36.875   5.397   2.287
79780W        W52040   2.376   7.729  12.848
79781W        W52041  36.815  32.010  14.327
79782W        W52042  38.902  16.535   3.182
79783W        W52043  44.763  16.827  12.075
79784W        W52044  17.484  14.529   1.367
79785W        W52045   6.329  41.331  12.941
79786W        W52046  18.147  43.992  13.950
79787W        W52047  29.450  33.381   2.666
79788W        W52048  14.275   2.285   3.530
79789W        W52049  38.975  41.869   4.832
79790W        W52050  21.992  21.869  11.082
79791W        W52051  40.010  23.556   1.873
79792W        W52052  14.776  10.917  13.053
79793W        W52053  42.458   1.263  13.568
79794W        W52054   4.706  30.604   4.452
79795W        W52055  33.645  14.337  11.076
79796W        W52056  43.830  44.284   4.283
79797W        W52057  34.324  43.037  14.242
79798W        W52058  12.279  25.387  11.132
79799W        W52059  42.671  11.815   2.302
79800W        W52060  11.319  35.313   1.937
79801W        W52061  43.470  22.932   3.711
79802W        W52062  39.339  11.404   3.705
79803W        W52063   9.169  23.727   0.265
79804W        W52064  29.056  34.894   0.305
79805W        W52065  32.393  22.727  12.504
79806W        W52066  12.420  17.842   2.609
79807W        W52067  23.950  19.548   3.221
79808W        W52068  31.900  17.268   5.162
79809W        W52069  11.295   8.398  13.552
79810W        W52070  26.670  13.736   4.339
79811W        W52071  39.056  18.474   4.428
79812W        W52072  27.510  22.064   3.461
79813W        W52073  17.858  29.372  12.346
79814W        W52074  14.340   1.491  11.142
79815W        W52075  27.596  30.189   3.764
79816W        W52076  35.084  36.486   4.485
79817W        W52077   5.748  34.314   2.607
79818W        W52078   1.464  21.181  11.503
79819W        W52079  28.119  12.379   0.320
79820W        W52080  14.207   1.750  12.997
79821W        W52081  38.264  12.398   0.222
79822W        W52082  14.016  32.116  14.835
79823W        W52083  35.326  26.298   0.436
79824W        W52084  22.829  24.654   4.192
79825W        W52085  36.479  21.023  14.263
79826W        W52086  25.914  32.064  11.565
79827W        W52087  32.931   9.912  11.918
79828W        W52088  40.814  17.116  10.528
79829W        W52089  39.765  34.817  12.583
79830W        W52090  23.460  32.765   1.283
79831W        W52091  22.998  43.889  14.329
79832W        W52092  22.628   0.826  11.934
79833W        W52093  43.248  12.183  11.109
79834W        W52094   4.818  10.946  12.067
79835W        W52095   1.856   0.428   2.100
79836W        W52096   5.339  42.152   4.059
79837W        W52097  10.258   0.031  13.084
79838W        W52098  16.773   3.509   2.814
79839W        W52099  26.019  13.257  11.881
79840W        W52100  14.590   9.319   3.678
79841W        W52101  35.158   7.749   2.352
79842W        W52102  29.524  32.109  14.305
79843W        W52103  26.103  26.038   4.639
79844W        W52104  34.703  40.969  14.715
79845W        W52105   1.913  34.080   0.750
79846W        W52106  34.659   3.721   2.746
79847W        W52107  40.076  36.039   1.873
79848W        W52108  25.153  38.486   2.445
79849W        W52109  16.746   1.349   3.166
79850W        W52110  42.826  20.573   2.349
79851W        W52111   7.923  39.510  11.602
79852W        W52112  36.416  39.304   4.480
79853W        W52113  19.505   9.732  12.392
79854W        W52114  27.191  11.574   1.869
79855W        W52115  22.993  34.386  12.106
79856W        W52116   1.607   0.793  13.845
79857W        W52117  36.594  41.105   2.402
79858W        W52118   1.184  35.021  13.771
79859W        W52119  26.137   8.293   0.837
79860W        W52120   2.961   0.177  12.549
79861W        W52121   8.839  28.579  14.510
79862W        W52122  31.526  11.721  10.992
79863W        W52123  39.555  24.979   2.629
79864W        W52124   2.697  18.562   1.467
79865W        W52125  44.230  24.330   2.278
79866W        W52126  40.094   6.303  14.766
79867W        W52127  10.370  37.073   4.261
79868W        W52128  36.086   2.150  10.693
79869W        W52129  25.025  36.894  14.730
79870W        W52130   4.241   6.682   1.697
79871W        W52131  13.081  23.507   3.686
79872W        W52132  36.928  16.807  11.376
79873W        W52133  29.362   4.321   0.769
79874W        W52134  29.056  30.926  10.849
79875W        W52135  29.510  30.093   3.711
79876W        W52136  35.152  17.791  13.485
79877W        W52137  12.398   9.364   4.365
79878W        W52138  34.997  31.996  10.209
79879W        W52139  12.693   3.479   0.888
79880W        W52140  44.397  34.136  11.706
79881W        W52141  38.113  33.066  12.003
79882W        W52142   3.101   1.075  12.140
79883W        W52143  31.733  35.912   3.379
79884W        W52144  15.331  32.662  11.063
79885W        W52145  18.395  28.035  13.452
79886W        W52146  30.781  43.019  11.187
79887W        W52147  13.896  30.516  13.050
79888W        W52148  13.791  33.388  12.491
79889W        W52149  32.549  38.895   2.685
79890W        W52150  18.084  19.021   4.582
79891W        W52151  37.502  44.983   2.835
79892W        W52152  16.726  25.506  14.511
79893W        W52153  35.064  27.674  13.965
79894W        W52154  33.917   2.566  14.667
79895W        W52155  34.933  26.585   3.567
79896W        W52156   1.960  31.860   1.823
79897W        W52157  38.733  22.223  11.028
79898W        W52158  10.191  14.704  10.692
79899W        W52159  18.119  43.310  14.295
79900W        W52160   2.593  36.428   1.059
79901W        W52161  26.188   7.240   4.424
79902W        W52162   3.406   1.011   2.157
79903W        W52163  37.481  44.221   1.348
79904W        W52164  24.638   5.357  12.552
79905W        W52165  25.234  25.921   0.753
79906W        W52166  35.290  39.067   4.854
79907W        W52167  10.552  25.913   1.841
79908W        W52168  30.142  28.919   1.251
79909W        W52169  35.379  38.017   0.926
79910W        W52170  19.908  14.397   5.168
79911W        W52171  43.572   2.625   0.987
79912W        W52172  33.783  44.437  13.882
79913W        W52173  21.887  11.887  11.620
79914W        W52174  40.265  24.986   0.465
79915W        W52175  43.362  38.532  12.301
79916W        W52176  35.979  28.910  12.059
79917W        W52177   8.379  20.336  12.555
79918W        W52178  33.859  39.754   4.739
79919W        W52179  37.589  25.573   0.221
79920W        W52180  41.818  10.690  10.842
79921W        W52181   8.705  26.603  14.767
79922W        W52182  18.199  25.964   4.029
79923W        W52183  34.316  12.629   0.585
79924W        W52184  17.134  37.538   5.369
79925W        W52185  11.782  43.490   1.395
79926W        W52186  26.067  35.676   1.228
79927W        W52187  11.649  15.689   3.655
79928W        W52188  37.538  43.695  14.298
79929W        W52189  15.971  39.467   1.989
79930W        W52190  17.786  15.114   4.136
79931W        W52191  15.292  15.652   2.690
79932W        W52192  19.608  33.367  13.870
79933W        W52193  20.205  40.790  11.714
79934W        W52194   5.425   0.161   4.872
79935W        W52195  25.715   3.979   1.026
79936W        W52196  39.097  37.384   3.258
79937W        W52197  44.716   6.159  12.552
79938W        W52198  10.404  13.402  10.819
79939W        W52199  41.453  31.971  11.465
79940W        W52200   5.458  31.025  12.311
79941W        W52201  10.686  12.859   4.136
79942W        W52202   1.617  37.494   4.154
79943W        W52203  18.134  36.583   4.850
79944W        W52204  26.058  25.969  13.533
79945W        W52205  23.581   1.510  10.611
79946W        W52206  31.199  41.557   0.401
79947W        W52207   8.964  17.027  13.366
79948W        W52208  16.557  26.535   2.578
79949W        W52209  12.175  26.908  11.746
79950W        W52210   0.007  38.821  14.397
79951W        W52211  39.983  21.031   2.358
79952W        W52212  17.116  18.053   4.139
79953W        W52213  19.325  33.502  11.232
79954W        W52214  17.088  16.222  13.407
79955W        W52215  23.494  17.393  11.982
79956W        W52216   3.255  11.027   0.277
79957W        W52217   3.771   4.173  13.582
79958W        W52218   7.915  21.981   0.586
79959W        W52219  13.007  34.858  12.029
79960W        W52220  20.466  36.362  11.456
79961W        W52221  23.629  19.103  12.581
79962W        W52222  35.179  26.566  11.679
79963W        W52223   6.699   6.650   4.701
79964W        W52224  42.531  13.925   3.530
79965W        W52225  18.354   5.375   1.810
79966W        W52226  30.602  43.324   3.928
79967W        W52227  33.669   6.800   0.389
79968W        W52228  21.095   0.574   2.177
79969W        W52229   8.685  42.104  11.493
79970W        W52230   2.426  41.269   1.768
79971W        W52231  40.427  31.440  13.367
79972W        W52232  17.092  13.672   3.299
79973W        W52233  42.113  11.959   4.439
79974W        W52234   4.873   5.154   3.740
79975W        W52235  34.667  17.902   3.358
79976W        W52236  21.246  26.459  11.500
79977W        W52237  19.822   3.773   3.582
79978W        W52238  22.507  12.516   4.913
79979W        W52239  12.661  34.527   0.876
79980W        W52240   2.237  40.859  13.091
79981W        W52241  12.140   0.461  10.289
79982W        W52242  17.764  38.025  13.827
79983W        W52243   6.890  12.694  13.463
79984W        W52244  24.587  22.552   2.207
79985W        W52245  13.146  22.468   3.700
79986W        W52246  31.121  15.114  12.067
79987W        W52247  42.086  17.077   2.241
79988W        W52248  25.596   4.689   4.739
79989W        W52249  22.082   2.266  10.600
79990W        W52250  35.819   9.177  11.551
79991W        W52251   6.710  35.992  13.989
79992W        W52252  12.091   2.016   4.762
79993W        W52253  34.407  36.004  11.125
79994W        W52254  41.936  44.845  14.790
79995W        W52255  40.461  33.257   2.819
79996W        W52256  42.241  17.150  12.422
79997W        W52257  34.344  32.533  13.035
79998W        W52258   5.631  26.074  10.222
79999W        W52259  26.676  10.702   1.709
80000W        W52260  16.720  25.608  12.868
80001W        W52261  23.490  35.908   0.329
80002W        W52262   6.192   1.029  13.570
80003W        W52263  25.562   3.524   3.057
80004W        W52264  41.298  24.458  11.645
80005W        W52265  26.975  26.165  13.553
80006W        W52266  24.173  29.041   0.993
80007W        W52267  15.689  37.780   2.350
80008W        W52268  16.424  32.402  14.893
80009W        W52269  24.554  31.573  11.602
80010W        W52270  39.032  28.158  13.770
80011W        W52271  22.589  30.365  11.565
80012W        W52272  23.884  38.221  11.239
80013W        W52273  25.136  14.280  11.517
80014W        W52274  34.172   4.969   3.620
80015W        W52275  10.749  20.728   0.649
80016W        W52276  18.894  36.076   4.779
80017W        W52277  19.753  34.945   2.299
80018W        W52278  12.196  38.384  10.721
80019W        W52279  16.244  39.543  13.832
80020W        W52280  44.408  25.034  12.713
80021W        W52281   5.651  16.623   0.674
80022W        W52282   4.943  37.380  14.862
80023W        W52283  38.743  37.703  14.554
80024W        W52284  21.497  21.287  11.630
80025W        W52285  40.642  42.019  13.458
80026W        W52286  26.412  16.248   1.434
80027W        W52287  23.744  31.900   1.526
80028W        W52288  36.322   9.879  13.082
80029W        W52289  13.685  39.253  13.814
80030W        W52290  13.571  26.231   0.726
80031W        W52291  14.294  28.171   5.001
80032W        W52292   6.806  25.505   9.929
80033W        W52293  30.987   3.328   3.360
80034W        W52294  26.023  19.028   1.866
80035W        W52295  27.986  21.996   3.646
80036W        W52296  41.033  35.828  12.488
80037W        W52297  20.537  42.526   3.600
80038W        W52298  17.415  31.259  10.653
80039W        W52299  15.766  33.603   3.766
80040W        W52300  43.468  39.034   2.641
80041W        W52301  44.248  40.111  13.070
80042W        W52302  39.641  40.599  14.341
80043W        W52303   5.011  37.314   4.653
80044W        W52304   5.821   1.757  14.023
80045W        W52305  33.686   8.734   1.811
80046W        W52306   3.252  11.166  12.507
80047W        W52307  30.627  26.050   4.941
80048W        W52308  16.358  11.823   4.049
80049W        W52309   6.209  42.033   4.273
80050W        W52310  41.249  18.234   4.236
80051W        W52311  17.086  44.923   4.091
80052W        W52312  42.958  42.925   3.335
80053W        W52313  11.110  38.186   3.076
80054W        W52314  28.889  25.779   2.316
80055W        W52315  23.086   8.209  10.586
80056W        W52316  11.715  22.239   3.259
80057W        W52317  25.454  19.568  12.825
80058W        W52318  20.765  18.349   0.508
80059W        W52319  23.592   2.874   2.351
80060W        W52320   4.278  34.695   0.739
80061W        W52321  19.188   3.303   4.290
80062W        W52322  20.237   2.411   4.252
80063W        W52323  12.775  29.986   5.447
80064W        W52324  16.091  30.159  13.504
80065W        W52325  39.789   2.786  12.983
80066W        W52326  37.324   0.839   0.268
80067W        W52327  18.574   1.381  14.834
80068W        W52328  30.676   4.291  12.963
80069W        W52329  44.794   4.985   0.560
80070W        W52330  20.595   4.194  13.609
80071W        W52331   9.467  28.479  13.507
80072W        W52332   0.456   4.877   2.563
80073W        W52333  13.766  20.599  14.987
80074W        W52334  37.444  27.247   0.330
80075W        W52335  42.269  41.383   0.907
80076W        W52336  13.173  24.720   2.837
80077W        W52337  10.481  40.511   3.840
80078W        W52338  44.413  22.756   3.110
80079W        W52339   0.457   3.260  11.690
80080W        W52340  39.538  24.021   5.182
80081W        W52341   2.209  33.958   2.734
80082W        W52342  16.149  24.127  14.780
80083W        W52343   4.650   5.222  12.068
80084W        W52344  39.961  33.228  14.409
80085W        W52345  22.209  18.220  11.039
80086W        W52346   2.505  27.160   0.485
80087W        W52347  25.924  34.508  10.722
80088W        W52348   3.886  37.355   4.407
80089W        W52349  15.932   4.290   4.813
80090W        W52350   7.340  15.662  12.062
80091W        W52351   7.086  40.292   4.103
80092W        W52352  34.513  22.685   3.773
80093W        W52353  42.763  44.286   3.320
80094W        W52354  22.784  35.643  12.953
80095W        W52355  29.909   2.704  14.448
80096W        W52356  41.901  12.605   4.619
80097W        W52357  20.636  19.635   2.712
80098W        W52358  44.753  35.414  14.987
80099W        W52359  23.639  10.194   3.683
80100W        W52360   8.478  36.078  13.334
80101W        W52361  22.008  39.229   4.253
80102W        W52362  12.110  15.264   4.929
80103W        W52363  31.652  15.123   2.405
80104W        W52364   1.485  34.972   0.761
80105W        W52365   2.547  27.249  13.243
80106W        W52366  35.575  28.037   2.207
80107W        W52367  41.713   7.439  10.612
80108W        W52368  12.646  28.939  13.497
80109W        W52369   7.137  10.911  12.616
80110W        W52370   9.406  32.141   3.655
80111W        W52371  43.947  33.797  12.839
80112W        W52372  20.184   9.621  12.071
80113W        W52373  37.799  15.149   3.286
80114W        W52374  39.415   2.929   2.712
80115W        W52375  11.223  26.077   0.375
80116W        W52376  39.428  31.869   4.354
80117W        W52377   7.520  41.455  11.112
80118W        W52378  10.282  17.999   4.596
80119W        W52379  24.134  18.231  11.031
80120W        W52380  15.688  21.471   1.866
80121W        W52381  20.880  41.525  12.067
80122W        W52382  38.846  39.288   2.513
80123W        W52383  37.742  24.515  13.403
80124W        W52384   9.875   6.420   3.640
80125W        W52385   6.433  24.475   3.034
80126W        W52386   7.141  39.072  14.363
80127W        W52387  43.445  42.051   1.306
80128W        W52388  34.461  29.383   1.250
80129W        W52389   7.983  32.553  12.939
80130W        W52390   4.381  26.079  14.304
80131W        W52391  28.084  37.131   0.545
80132W        W52392  38.199  25.246  13.819
80133W        W52393  28.987   6.128   3.430
80134W        W52394  23.304   3.969  13.807
80135W        W52395  41.442  16.729  12.466
80136W        W52396  25.609  40.313   0.793
80137W        W52397  38.197  28.058  13.504
80138W        W52398  10.581  37.213   1.175
80139W        W52399  39.036   8.933   1.776
80140W        W52400  39.991   0.675  12.490
80141W        W52401  30.664  25.541   3.568
80142W        W52402  10.326  20.250   0.375
80143W        W52403  37.583  26.633  11.647
80144W        W52404  10.297   7.753  13.120
80145W        W52405  24.716  44.976   1.757
80146W        W52406   5.733  30.468  13.407
80147W        W52407  38.389   7.353   4.550
80148W        W52408  39.024  23.112   4.105
80149W        W52409   3.314   4.538   0.994
80150W        W52410  39.031  30.582  10.259
80151W        W52411  18.787   8.506  11.723
80152W        W52412  41.967  25.935  14.377
80153W        W52413  26.756   1.820   2.416
80154W        W52414  38.343  23.678   3.095
80155W        W52415  25.956  12.716  10.273
80156W        W52416  10.080  39.116   1.765
80157W        W52417  17.574  13.817  11.609
80158W        W52418  22.904   7.790   1.444
80159W        W52419   3.928  19.633   0.826
80160W        W52420   7.623  37.487   4.958
80161W        W52421   2.723  30.656  14.863
80162W        W52422  37.046  18.865  13.975
80163W        W52423   1.096  11.578   2.824
80164W        W52424  44.774   9.855  13.013
80165W        W52425  35.329  39.469  14.997
80166W        W52426  24.189  19.093   4.183
80167W        W52427   1.953  41.816  11.129
80168W        W52428   3.026  31.926   0.362
80169W        W52429  25.137   0.701   4.128
80170W        W52430  37.085  18.609  13.037
80171W        W52431  22.480  24.965   3.938
80172W        W52432  26.136  44.795  10.713
80173W        W52433   8.442  12.441   0.360
80174W        W52434   8.654  35.139   2.756
80175W        W52435   8.906  32.015  14.941
80176W        W52436  19.579  12.514   1.426
80177W        W52437  23.614  16.150  11.726
80178W        W52438  25.516   3.206   0.656
80179W        W52439  18.689  39.959  14.242
80180W        W52440  40.867  16.734   3.225
80181W        W52441   9.274  37.207  11.573
80182W        W52442  35.943  13.520   1.771
80183W        W52443  11.613  16.215  12.993
80184W        W52444   5.793  21.256   1.239
80185W        W52445  25.033   1.155  13.745
80186W        W52446   8.107  28.344  14.835
80187W        W52447  35.706  22.222   1.221
80188W        W52448  11.866   7.526  12.010
80189W        W52449  23.304  31.159  11.054
80190W        W52450  19.049  34.879  11.568
80191W        W52451  31.578  14.182   3.918
80192W        W52452   2.855   1.542   3.262
80193W        W52453  30.627   8.901  11.187
80194W        W52454   3.211  10.830   2.569
80195W        W52455  33.469  32.889   0.688
80196W        W52456  44.908   9.182  11.107
80197W        W52457   3.190  39.009   2.691
80198W        W52458  31.024  11.297   4.905
80199W        W52459   1.736  30.068   1.801
80200W        W52460  38.337  22.754   4.585
80201W        W52461  16.627  10.334   2.169
80202W        W52462   9.407   5.863  12.640
80203W        W52463  36.092   6.129  14.067
80204W        W52464   2.016  21.650   2.102
80205W        W52465  12.625   0.476   4.809
80206W        W52466  11.502  44.731   2.420
80207W        W52467  19.529  25.705   1.835
80208W        W52468   7.326  35.263  12.032
80209W        W52469  28.925  28.951  12.439
80210W        W52470  41.685  41.229  13.865
80211W        W52471  32.569  44.204  13.351
80212W        W52472  34.703  22.170  12.448
80213W        W52473  16.625  26.199  11.171
80214W        W52474  36.351  18.596  14.817
80215W        W52475   3.480  10.899  11.545
80216W        W52476  24.124   3.898  14.892
80217W        W52477  13.756  38.913   0.108
80218W        W52478  18.747  24.736  12.558
80219W        W52479  28.503  25.465  13.811
80220W        W52480  12.831  41.999   2.387
80221W        W52481  38.397  35.943  14.462
80222W        W52482   6.363  22.322   4.987
80223W        W52483  42.687   8.033   0.756
80224W        W52484  20.274  29.466  13.569
80225W        W52485   6.778   5.552   0.928
80226W        W52486  20.497  30.508  10.445
80227W        W52487   4.695  11.607   3.266
80228W        W52488  35.344  14.813  10.991
80229W        W52489  23.769  44.129  10.185
80230W        W52490  24.804  38.771  13.328
80231W        W52491   2.507  11.949   2.779
80232W        W52492  32.063   0.425   5.093
80233W        W52493   0.847  32.124  13.211
80234W        W52494   7.711   7.167  10.260
80235W        W52495  44.442  22.776   2.234
80236W        W52496  12.626  44.533  13.839
80237W        W52497   3.481  11.117  14.815
80238W        W52498  15.551   4.401  14.748
80239W        W52499  22.834   6.205  12.536
80240W        W52500  43.796  37.407   1.538
80241W        W52501  27.703  21.081  14.069
80242W        W52502  18.560   5.926  13.866
80243W        W52503  17.234  22.020   3.850
80244W        W52504   9.335   4.785  11.612
80245W        W52505  13.957   9.649  14.185
80246W        W52506  26.657  17.732  13.763
80247W        W52507  24.710  10.238  11.140
80248W        W52508  29.435  22.624  10.662
80249W        W52509   4.411  17.819   4.159
80250W        W52510  27.017  28.961  14.391
80251W        W52511   6.842   9.187  12.011
80252W        W52512   5.735  20.083  10.426
80253W        W52513  25.688  20.184  14.981
80254W        W52514   9.737  12.901   4.032
80255W        W52515   7.008  29.605  10.274
80256W        W52516  10.847  24.656   3.293
80257W        W52517  14.666  32.141  11.359
80258W        W52518  13.188  14.179   2.271
80259W        W52519  17.442  31.654  11.089
80260W        W52520  38.078  43.862  12.440
80261W        W52521  41.935  23.171   4.619
80262W        W52522  23.522  31.535   1.858
80263W        W52523  44.416  30.306   3.282
80264W        W52524  13.863  10.408   0.819
80265W        W52525  29.673  16.024   3.191
80266W        W52526  37.012  35.311   2.818
80267W        W52527  23.983   0.488   4.822
80268W        W52528  15.415  38.652  14.514
80269W        W52529  44.266  10.645  13.560
80270W        W52530   1.899  21.990  11.924
80271W        W52531  14.782  22.353  11.599
80272W        W52532  10.361  30.571   0.052
80273W        W52533  16.083  27.112  13.865
80274W        W52534  27.579  15.356   2.685
80275W        W52535  36.175  18.139  12.290
80276W        W52536  13.619  39.805  10.354
80277W        W52537   1.790  22.997   0.446
80278W        W52538   1.797  28.000  14.135
80279W        W52539  12.657  37.494  10.690
80280W        W52540  13.716  28.240  14.963
80281W        W52541  18.331  43.014   3.150
80282W        W52542  16.129   9.363  10.687
80283W        W52543   0.016   2.231  14.903
80284W        W52544  19.968  20.498  12.056
80285W        W52545  13.122  28.044  10.207
80286W        W52546  42.048  38.317   1.375
80287W        W52547  25.694  16.688  10.651
80288W        W52548   8.868  36.983   3.152
80289W        W52549   8.717  19.521   5.021
80290W        W52550  20.767   3.008  12.969
80291W        W52551  39.499  24.326  12.656
80292W        W52552  17.486  13.875  13.650
80293W        W52553  41.428  44.901  13.012
80294W        W52554  15.913   5.538   2.941
80295W        W52555  25.520  14.372  11.099
80296W        W52556  33.323  22.648   2.960
80297W        W52557  27.478   4.805   2.680
80298W        W52558  11.847  40.706  12.905
80299W        W52559   3.147  28.116  14.304
80300W        W52560   3.540  17.260  11.076
80301W        W52561   3.248  33.505  13.900
80302W        W52562  24.264  17.262  14.555
80303W        W52563   3.750  38.805  11.691
80304W        W52564  24.293   5.851   1.841
80305W        W52565  17.922   5.710   4.128
80306W        W52566  25.656   5.631  14.284
80307W        W52567   4.264  21.630  13.472
80308W        W52568  18.716  41.234   0.056
80309W        W52569  36.280   1.309  11.615
80310W        W52570  18.817  34.980   1.277
80311W        W52571  23.955   2.303  11.599
80312W        W52572  32.169  33.608   2.159
80313W        W52573   6.926  14.143  11.900
80314W        W52574  33.382  43.414  11.034
80315W        W52575  28.809  39.842  11.819
80316W        W52576  11.218  22.140  11.236
80317W        W52577  37.599  23.907  12.390
80318W        W52578  12.243  16.380   3.546
80319W        W52579  15.871  41.966   2.885
80320W        W52580  20.657   5.343  12.007
80321W        W52581   3.902  37.428  10.634
80322W        W52582  21.559  21.255   0.454
80323W        W52583  44.846  23.687   0.743
80324W        W52584  14.695  22.903  12.464
80325W        W52585  35.967  36.156  14.499
80326W        W52586  44.305   4.214  14.754
80327W        W52587   1.842  11.662  12.330
80328W        W52588  33.126  23.066   3.705
80329W        W52589  30.885  32.461   1.340
80330W        W52590  27.700  40.873   0.504
80331W        W52591  13.842  34.394  11.131
80332W        W52592   5.697  34.924  14.827
80333W        W52593  24.865  33.922  14.991
80334W        W52594  18.792  33.288   9.975
80335W        W52595  27.933  25.664  11.019
80336W        W52596  39.768  34.389  14.014
80337W        W52597  22.898   3.742   3.692
80338W        W52598  12.874  24.657   0.857
80339W        W52599  40.699   5.468   4.131
80340W        W52600   9.430  38.838  13.344
80341W        W52601  24.894  42.897  11.264
80342W        W52602  31.455  35.873   2.153
80343W        W52603   2.797  27.447   2.644
80344W        W52604  27.128   1.975   4.989
80345W        W52605  18.546  22.438   2.284
80346W        W52606   8.337  32.996  13.862
80347W        W52607  17.376  30.996   1.307
80348W        W52608  25.127  24.040   1.914
80349W        W52609  43.964  34.934   2.825
80350W        W52610   5.621  16.401   2.878
80351W        W52611  36.501   1.722   2.651
80352W        W52612  23.204   0.277  11.311
80353W        W52613   8.895  25.603  14.796
80354W        W52614  21.015   7.026   5.007
80355W        W52615   5.299  27.971   3.069
80356W        W52616  12.757   7.225   1.928
80357W        W52617  22.315   3.504   2.809
80358W        W52618  12.388  44.445  14.436
80359W        W52619  32.990  40.947   1.304
80360W        W52620  21.748  38.026  10.744
80361W        W52621  19.248   4.761  11.984
80362W        W52622   1.001  36.445   4.372
80363W        W52623  38.035  41.523   2.741
80364W        W52624  17.887  41.725  12.521
80365W        W52625  39.476  28.055   2.531
80366W        W52626  41.478  12.329   0.720
80367W        W52627  35.142  37.050  10.770
80368W        W52628   0.603  30.853   2.230
80369W        W52629   2.844  31.309   2.376
80370W        W52630  22.236  44.525   1.862
80371W        W52631  42.020  21.846   1.249
80372W        W52632  30.441  21.225  12.867
80373W        W52633  16.338  20.113   1.409
80374W        W52634   6.649  15.403  10.844
80375W        W52635   5.388  44.000   1.463
80376W        W52636  28.315   8.689   4.896
80377W        W52637  10.855   2.285  14.532
80378W        W52638  43.608  15.049  12.443
80379W        W52639   7.271  38.043  12.316
80380W        W52640   0.306   0.499   2.331
80381W        W52641  29.037  27.636  13.340
80382W        W52642  27.709  44.459  14.268
80383W        W52643  19.820  34.638   1.690
80384W        W52644  38.836  29.555  11.935
80385W        W52645  38.159  34.985  11.415
80386W        W52646  42.904   7.027   2.829
80387W        W52647  15.615   9.770   3.335
80388W        W52648  22.921   0.464  12.153
80389W        W52649  31.395  24.077  11.495
80390W        W52650  22.306  22.099   9.874
80391W        W52651  34.471   1.094   4.241
80392W        W52652  13.755  41.834  13.833
80393W        W52653  22.608  39.380   3.869
80394W        W52654  15.307  34.728   2.119
80395W        W52655   9.276  36.440  13.973
80396W        W52656   0.953  42.907   1.756
80397W        W52657  23.812  35.535  12.080
80398W        W52658  38.352  19.056  11.439
80399W        W52659   1.329  16.337  14.825
80400W        W52660  32.534  33.566   4.257
80401W        W52661  22.156  36.333   2.319
80402W        W52662  24.696  13.051   1.793
80403W        W52663  20.650  12.229  14.961
80404W        W52664  35.514  42.526   0.704
80405W        W52665  33.894  33.428  12.847
80406W        W52666   3.901   3.191   4.237
80407W        W52667  40.066  43.419   0.979
80408W        W52668  41.929  39.263   3.282
80409W        W52669  35.594  18.385  10.199
80410W        W52670   4.683  17.739  14.283
80411W        W52671   1.432  10.151   2.345
80412W        W52672   4.364  42.299   4.437
80413W        W52673  15.798  20.762   2.292
80414W        W52674  25.060  20.567  11.630
80415W        W52675  29.635  44.487  13.088
80416W        W52676  10.384  44.344   2.944
80417W        W52677  17.288  33.487   2.305
80418W        W52678  28.059   0.761   3.627
80419W        W52679   9.411  35.783   4.982
80420W        W52680   4.750  10.678   3.376
80421W        W52681  19.078   0.294   1.352
80422W        W52682  44.503  28.671  14.402
80423W        W52683   4.472  21.957   1.907
80424W        W52684  31.259  43.946   4.910
80425W        W52685  35.622   0.349   0.457
80426W        W52686  29.757  30.632  13.067
80427W        W52687  32.456  44.839   3.993
80428W        W52688  10.420  36.854  13.938
80429W        W52689  23.656   1.252  14.899
80430W        W52690  23.659  32.309  14.918
80431W        W52691   9.286   3.880   3.815
80432W        W52692  28.473  34.359   2.748
80433W        W52693  19.159  19.668   4.858
80434W        W52694   6.053   0.791  11.540
80435W        W52695   4.496  31.907  14.505
80436W        W52696  34.756   3.221  12.172
80437W        W52697  15.066  41.073  12.401
80438W        W52698  28.651   3.818  14.748
80439W        W52699  26.373   4.246   1.005
80440W        W52700  36.620  21.647   4.425
80441W        W52701   7.227  15.800  13.352
80442W        W52702  34.684  22.745  11.592
80443W        W52703   9.784  41.763  14.933
80444W        W52704  11.920  19.303  14.819
80445W        W52705  21.733  10.685   0.832
80446W        W52706  37.369  12.751   1.750
80447W        W52707  13.578  16.897   5.618
80448W        W52708  13.672  38.335   3.230
80449W        W52709  13.148  27.644  13.075
80450W        W52710  25.731  26.885   2.002
80451W        W52711   8.412  16.744   0.733
80452W        W52712  42.271   6.640   3.265
80453W        W52713  29.127  28.679  13.118
80454W        W52714   0.264  37.830   1.864
80455W        W52715  30.508  25.908  13.949
80456W        W52716   8.462  27.530   4.533
80457W        W52717  22.501  23.718   4.100
80458W        W52718  11.860   5.903  11.541
80459W        W52719  35.538  35.127   2.149
80460W        W52720  19.030  26.217  12.556
80461W        W52721  16.259  13.745  10.753
80462W        W52722  40.897  20.226  14.089
80463W        W52723  18.356  22.328   1.802
80464W        W52724  32.959  41.566   2.148
80465W        W52725  10.781   4.443   3.837
80466W        W52726  14.523  30.862  13.536
80467W        W52727  16.874   6.719   0.425
80468W        W52728   7.258   0.263   2.335
80469W        W52729  19.234  26.630   2.407
80470W        W52730  19.285  27.442   4.046
80471W        W52731  37.816  11.672  11.965
80472W        W52732  14.274  29.168   4.038
80473W        W52733  12.045  22.516  10.717
80474W        W52734  16.990  23.155  12.491
80475W        W52735  29.965   5.317   3.713
80476W        W52736  17.496   9.792  14.048
80477W        W52737   4.946  19.556   3.778
80478W        W52738  43.605  43.158  12.539
80479W        W52739  10.330  37.429   9.947
80480W        W52740   2.455  20.777   0.869
80481W        W52741  40.608  14.144  11.547
80482W        W52742  12.676   5.919  13.988
80483W        W52743   2.795  29.549  13.339
80484W        W52744  43.469  41.950  11.537
80485W        W52745  14.043  21.007  14.815
80486W        W52746  38.328   9.392  11.093
80487W        W52747  33.101   0.881  14.475
80488W        W52748   4.465  15.785  14.223
80489W        W52749  32.125   0.841  14.434
80490W        W52750  24.438  41.785  14.936
80491W        W52751  18.057  28.785  13.527
80492W        W52752  26.143  24.525   2.555
80493W        W52753  19.987   2.183  13.322
80494W        W52754  42.290   4.994  13.072
80495W        W52755  19.108  31.466   1.335
80496W        W52756  24.457  20.726   2.642
80497W        W52757   5.346  29.373  10.412
80498W        W52758  21.608   4.466   1.236
80499W        W52759  34.769  21.179  12.063
80500W        W52760  22.369  26.512   1.046
80501W        W52761   8.646  15.333  14.356
80502W        W52762  30.687  33.805   0.708
80503W        W52763  42.574   1.660  13.888
80504W        W52764  26.928   5.687   4.127
80505W        W52765   8.957  25.385  13.540
80506W        W52766  39.494  10.764  10.493
80507W        W52767  16.028  14.279   5.069
80508W        W52768  32.244  21.667  11.014
80509W        W52769  14.354  11.353  14.975
80510W        W52770  34.127  11.567   4.178
80511W        W52771   1.624  18.834   0.838
80512W        W52772  10.530  20.117  11.444
80513W        W52773  29.097  11.227  12.757
80514W        W52774  24.270  40.334   4.951
80515W        W52775  16.642   5.325   1.803
80516W        W52776  24.811   6.811  12.299
80517W        W52777  15.823  23.018   5.089
80518W        W52778  29.032  17.725   1.389
80519W        W52779  17.698  18.381  13.412
80520W        W52780  30.610  31.847   2.225
80521W        W52781  28.069  23.997  11.611
80522W        W52782  32.209   3.755  14.391
80523W        W52783   7.248  39.420   3.862
80524W        W52784   0.150  33.843  11.693
80525W        W52785  23.657  25.439  14.237
80526W        W52786  33.381  23.047  12.191
80527W        W52787  24.154  36.438  14.925
80528W        W52788   8.725  15.844  14.504
80529W        W52789  33.168  28.440  14.909
80530W        W52790  11.267  35.863  11.983
80531W        W52791  31.443   9.180   1.916
80532W        W52792  10.140  22.603  14.295
80533W        W52793  43.306  18.048   4.131
80534W        W52794  38.581   6.422  11.800
80535W        W52795  26.570  33.020   3.648
80536W        W52796  41.338  37.846  14.709
80537W        W52797  31.005   2.698  10.591
80538W        W52798  28.548  18.572   1.277
80539W        W52799  28.943  28.973   0.926
80540W        W52800  19.034  11.243  13.335
80541W        W52801  12.175  11.107  13.601
80542W        W52802  36.007   1.793  14.239
80543W        W52803  12.246  12.795   2.474
80544W        W52804  12.550  16.098   0.830
80545W        W52805  39.602  31.468   4.103
80546W        W52806  37.024  33.663  11.200
80547W        W52807  16.936  38.899   4.173
80548W        W52808  40.100  31.354   4.128
80549W        W52809  42.678  43.009  13.427
80550W        W52810  31.179  22.196   0.245
80551W        W52811   1.659   4.798   5.136
80552W        W52812  38.527  42.776  13.554
80553W        W52813  43.185  28.396  11.202
80554W        W52814  25.041  38.673  10.000
80555W        W52815  23.042  12.017   2.713
80556W        W52816  32.173  15.706  13.010
80557W        W52817  15.716  15.217   1.695
80558W        W52818  37.345  34.149  14.927
80559W        W52819  26.681  24.115   2.689
80560W        W52820  38.882  40.409   1.819
80561W        W52821  12.393   1.334  14.394
80562W        W52822  44.945  22.744  10.680
80563W        W52823  33.310   5.745   0.819
80564W        W52824  42.800  39.777  11.668
80565W        W52825  34.916  41.324   4.521
80566W        W52826  39.757  28.997   3.747
80567W        W52827   5.919  41.765  12.511
80568W        W52828   4.748  40.446  12.404
80569W        W52829  34.170  19.876   0.474
80570W        W52830   9.972   7.762  12.268
80571W        W52831  40.415   0.803  14.821
80572W        W52832  15.594  22.729   1.226
80573W        W52833  10.265  16.076  11.868
80574W        W52834  26.647   9.688   0.238
80575W        W52835  44.299  39.227   0.902
80576W        W52836  44.336  41.914  11.947
80577W        W52837   1.566  43.049  13.452
80578W        W52838  17.799   6.759  11.981
80579W        W52839   2.448  18.616  10.705
80580W        W52840  19.068   6.162   3.780
80581W        W52841   0.484  15.173   2.517
80582W        W52842  42.312  27.746  13.499
80583W        W52843  19.255   3.792  13.898
80584W        W52844  32.767  15.324   0.431
80585W        W52845  22.350   1.229  14.400
80586W        W52846  21.002  33.583   1.828
80587W        W52847   4.624  25.736   2.741
80588W        W52848  38.125  18.602   3.973
80589W        W52849  41.048  19.263   4.586
80590W        W52850  26.283  26.092   0.825
80591W        W52851  44.869  39.983   2.262
80592W        W52852  23.581   0.018   0.886
80593W        W52853   7.766   0.968   2.699
80594W        W52854  35.046  14.104  10.540
80595W        W52855   3.651  26.672  11.966
80596W        W52856  31.968  28.364   1.915
80597W        W52857   9.246  19.542  14.014
80598W        W52858  20.653   1.910  12.944
80599W        W52859   3.314  15.043   0.373
80600W        W52860  41.381  39.264   1.737
80601W        W52861  31.215   7.417   2.458
80602W        W52862   1.769  34.046  14.765
80603W        W52863   7.777   0.077  13.812
80604W        W52864  18.558  33.533   0.271
80605W        W52865  11.150  43.414   2.708
80606W        W52866  21.776   4.017  13.947
80607W        W52867  20.232  15.285  14.304
80608W        W52868  38.033  26.462   2.834
80609W        W52869  30.989  16.662  13.952
80610W        W52870  35.799  15.906   0.961
80611W        W52871  29.616  38.013   1.332
80612W        W52872  13.301   9.079  11.571
80613W        W52873  25.958  33.902  10.645
80614W        W52874  13.854   0.297  14.590
80615W        W52875  17.739   0.294   4.215
80616W        W52876  39.223  39.873  11.182
80617W        W52877  35.511  42.118   3.041
80618W        W52878  12.047   5.422  11.461
80619W        W52879  35.345  20.271   0.826
80620W        W52880  11.688  26.579   4.939
80621W        W52881   1.358  10.236   1.469
80622W        W52882  29.645  28.927   2.127
80623W        W52883   5.963  35.390  11.637
80624W        W52884  41.727   2.365  14.812
80625W        W52885  29.073  11.103   1.278
80626W        W52886   2.294   3.781  13.691
80627W        W52887  26.443  23.268   1.379
80628W        W52888  31.183  18.320  12.010
80629W        W52889  14.392  26.974  13.438
80630W        W52890  16.252  35.016  12.056
80631W        W52891   9.217   1.170   1.811
80632W        W52892   1.802  30.552   4.585
80633W        W52893  28.541  41.504   0.799
80634W        W52894  40.375   7.761  12.118
80635W        W52895  37.611  13.307   1.992
80636W        W52896  30.417   3.843  11.077
80637W        W52897   2.397  23.015  12.338
80638W        W52898  14.118  27.883  11.029
80639W        W52899  39.588  29.375  13.698
80640W        W52900  35.063  36.453  11.534
80641W        W52901  17.493  26.600   4.542
80642W        W52902  19.385  33.748  13.601
80643W        W52903   1.855  37.401  14.288
80644W        W52904  32.390  31.943   4.286
80645W        W52905  32.201  28.086   0.377
80646W        W52906  40.437  37.151   2.784
80647W        W52907  42.088  28.903  10.278
80648W        W52908   8.318  26.157   0.240
80649W        W52909  34.991  25.202  11.856
80650W        W52910  21.998  20.378   2.791
80651W        W52911   8.728   0.470  13.332
80652W        W52912  33.899   4.366  12.320
80653W        W52913  15.931  29.455   2.857
80654W        W52914  33.201  14.452  14.959
80655W        W52915  10.030   7.883  14.111
80656W        W52916  21.079  29.236   0.008
80657W        W52917  44.317  30.605   3.677
80658W        W52918  28.683  39.331   3.930
80659W        W52919  13.779  12.775   3.989
80660W        W52920  36.395   9.805  14.029
80661W        W52921  30.279  20.679  12.865
80662W        W52922  13.758  16.154   4.249
80663W        W52923  12.756   2.263   2.317
80664W        W52924  14.188   2.333  11.711
80665W        W52925  35.050  43.373   4.226
80666W        W52926  13.785  38.904   4.791
80667W        W52927  43.397   2.010  11.602
80668W        W52928  35.455  15.788  12.210
80669W        W52929  35.411  21.586  12.451
80670W        W52930  41.845  31.862   1.938
80671W        W52931  17.691  34.827   2.886
80672W        W52932   0.096  16.406   1.484
80673W        W52933  36.441  36.491  12.623
80674W        W52934   8.818  29.185  12.539
80675W        W52935  31.915  26.974   2.424
80676W        W52936  28.999   9.816   0.723
80677W        W52937  41.343  33.368   0.340
80678W        W52938  36.051  19.162   4.600
80679W        W52939  19.639  13.486   1.359
80680W        W52940   0.371  34.450   2.217
80681W        W52941  43.813   1.971  10.664
80682W        W52942  32.688  32.039  12.589
80683W        W52943   5.819  17.692   3.325
80684W        W52944  34.316  39.441   2.180
80685W        W52945  43.064  18.969   0.895
80686W        W52946  11.636  23.766  14.524
80687W        W52947   0.409  42.075  11.689
80688W        W52948  22.548  17.820  13.341
80689W        W52949  13.288  11.086   3.489
80690W        W52950  34.536  21.133   0.383
80691W        W52951  26.694  27.961  12.022
80692W        W52952  11.890  43.744   1.843
80693W        W52953  25.618   1.994  13.753
80694W        W52954  44.934   7.489   1.277
80695W        W52955   9.756  38.753   4.925
80696W        W52956  31.092  14.805   4.876
80697W        W52957  39.043  28.925   3.148
80698W        W52958  31.027  17.525   2.585
80699W        W52959   7.831  33.607   4.577
80700W        W52960  14.107   2.023  14.904
80701W        W52961  22.856  11.664  12.569
80702W        W52962  28.057  21.074  11.600
80703W        W52963  21.580  24.343   0.400
80704W        W52964  22.096  23.338  12.307
80705W        W52965   2.935   0.421  14.243
80706W        W52966  19.087  29.632   3.145
80707W        W52967  34.453  44.044   1.797
80708W        W52968   8.263  24.415  14.505
80709W        W52969  21.267   7.269  12.450
80710W        W52970  41.941   1.459  11.157
80711W        W52971  22.819  28.842   5.017
80712W        W52972   9.303   9.811   2.255
80713W        W52973  25.341  41.285  12.841
80714W        W52974  12.864   0.266   3.895
80715W        W52975  26.124   4.916   3.970
80716W        W52976  10.873  20.126   1.482
80717W        W52977  22.243  20.026   1.324
80718W        W52978   9.830  18.768  10.959
80719W        W52979  22.170  38.315  10.643
80720W        W52980  37.455   4.537   0.227
80721W        W52981  40.892  32.103  11.199
80722W        W52982  41.493   5.168   2.287
80723W        W52983  37.351  21.658   1.470
80724W        W52984  25.914  18.519   1.801
80725W        W52985  36.332  33.739  14.827
80726W        W52986  35.430   7.241   1.901
80727W        W52987   9.692   3.210  13.946
80728W        W52988  15.281  38.313   1.530
80729W        W52989  23.633   0.745  14.846
80730W        W52990  28.206   2.854   0.887
80731W        W52991  28.976  38.566  14.245
80732W        W52992  29.169  39.822   2.722
80733W        W52993  42.756  31.835   2.257
80734W        W52994  27.948   1.723   4.516
80735W        W52995   9.911   7.743  12.779
80736W        W52996  17.520  22.166  14.013
80737W        W52997  24.532  35.050   2.865
80738W        W52998  13.327  39.318   4.143
80739W        W52999  14.351  27.916  10.570
80740W        W53000  22.148   6.662  11.207
80741W        W53001  27.292   3.628  14.047
80742W        W53002   5.620  28.242  11.181
80743W        W53003  29.065   2.764   0.059
80744W        W53004  41.887   1.971   3.420
80745W        W53005   9.780  26.937   1.737
80746W        W53006  38.510   0.717   1.738
80747W        W53007   8.180  25.933  12.659
80748W        W53008  20.798  29.042  14.004
80749W        W53009  38.350  33.109   4.742
80750W        W53010  30.644  38.234  12.119
80751W        W53011  43.782  20.681  12.092
80752W        W53012  24.774  39.875  14.562
80753W        W53013  23.182  41.117  10.892
80754W        W53014  37.026   9.396  10.672
80755W        W53015  19.293  18.706   2.559
80756W        W53016  27.081  44.777   2.217
80757W        W53017   1.138  13.289   0.701
80758W        W53018  22.138   8.275   1.907
80759W        W53019  20.761  40.039   0.912
80760W        W53020  32.189   3.147  13.896
80761W        W53021   5.793  43.058   2.518
80762W        W53022  33.670  30.434  11.768
80763W        W53023  30.073  19.673   2.808
80764W        W53024  42.757  33.058   1.834
80765W        W53025  30.064  35.557  13.510
80766W        W53026  22.518  20.151   4.362
80767W        W53027  12.034  24.110  14.591
80768W        W53028  20.149  27.436   1.875
80769W        W53029  17.571   2.718  10.634
80770W        W53030  32.756  19.985  12.620
80771W        W53031  23.797  37.784  14.385
80772W        W53032  19.514   6.292  11.156
80773W        W53033  44.395  44.867  10.890
80774W        W53034  17.701  16.295   0.320
80775W        W53035   0.364   3.972  12.125
80776W        W53036  35.519  37.007  14.840
80777W        W53037  26.167  10.695   3.723
80778W        W53038   0.961   6.909   4.537
80779W        W53039  24.152  37.784  11.167
80780W        W53040   1.728  36.355  12.349
80781W        W53041  25.948  16.397   2.237
80782W        W53042  25.602  27.727   2.868
80783W        W53043   9.102  37.875  12.043
80784W        W53044  13.231   3.042   0.391
80785W        W53045   9.874  17.189  12.895
80786W        W53046   8.553   0.848   1.264
80787W        W53047  40.223  20.676  11.998
80788W        W53048  31.413  21.729   4.243
80789W        W53049  21.747  42.420   1.210
80790W        W53050  10.236  41.537   2.587
80791W        W53051  12.410  16.618  14.092
80792W        W53052  21.543  15.618   3.644
80793W        W53053  41.210  42.941   4.238
80794W        W53054  42.511   6.863   4.852
80795W        W53055  22.274  33.000   1.676
80796W        W53056  10.494  39.400   4.190
80797W        W53057  40.616  34.465  11.862
80798W        W53058  36.284  29.149   4.257
80799W        W53059  27.070  28.917   1.877
80800W        W53060   2.231  23.230   4.170
80801W        W53061  30.827  29.488   3.214
80802W        W53062  12.750  30.412   2.564
80803W        W53063  19.018  18.589   4.202
80804W        W53064  39.115  31.578  10.239
80805W        W53065   7.388  31.095  11.404
80806W        W53066   5.282  10.698  11.149
80807W        W53067  29.467  24.681   3.574
80808W        W53068  29.486  44.919  10.798
80809W        W53069  18.983   5.539  11.469
80810W        W53070  26.040  12.675   0.010
80811W        W53071  25.225  12.235   2.366
80812W        W53072  39.062  36.233  10.388
80813W        W53073  14.531  28.213  11.042
80814W        W53074  28.069  19.268   3.817
80815W        W53075  29.991  43.943  13.353
80816W        W53076  18.239  22.442  12.217
80817W        W53077   7.726  28.246   2.773
80818W        W53078  44.732  27.146  13.398
80819W        W53079   3.930  34.112   0.054
80820W        W53080   4.499  29.687   2.660
80821W        W53081  10.176  19.218   0.418
80822W        W53082  15.222  13.232  10.840
80823W        W53083  24.125  44.944   3.464
80824W        W53084  11.302   2.906   1.876
80825W        W53085   9.368  44.949  14.976
80826W        W53086  27.013  37.514   0.178
80827W        W53087  31.303  19.317   3.893
80828W        W53088  14.618  18.646  13.914
80829W        W53089  39.191  13.352  14.379
80830W        W53090   4.572   8.316   5.221
80831W        W53091  17.647  35.692   1.503
80832W        W53092  37.731   9.116   1.290
80833W        W53093  16.987   2.798   2.158
80834W        W53094  15.115  24.240  11.155
80835W        W53095   9.897  21.839   1.710
80836W        W53096  33.903   9.859   2.765
80837W        W53097  32.149  22.141   3.834
80838W        W53098   6.720   1.016  12.229
80839W        W53099  30.096  18.713  10.729
80840W        W53100  44.228  39.154   1.857
80841W        W53101  32.381   7.450  14.450
80842W        W53102  19.521   9.499   3.196
80843W        W53103  14.774  14.793   4.607
80844W        W53104  38.874  19.029  11.523
80845W        W53105  18.787  22.202   0.281
80846W        W53106   2.697   1.358   2.789
80847W        W53107  31.655  43.464   2.441
80848W        W53108  28.161  36.038   1.449
80849W        W53109  42.905  34.614   0.130
80850W        W53110  14.140  30.398   3.080
80851W        W53111  23.654  22.557  14.911
80852W        W53112  31.990  43.118  10.612
80853W        W53113  28.149  30.085   3.714
80854W        W53114  32.358  35.914   1.193
80855W        W53115  16.316   5.883   2.951
80856W        W53116  37.272  32.479   3.381
80857W        W53117  43.592   2.119   0.886
80858W        W53118  20.750  19.344  13.014
80859W        W53119   8.993  26.524  12.682
80860W        W53120   3.947  21.351   4.026
80861W        W53121  43.098  24.954  12.139
80862W        W53122  28.649   5.331   2.467
80863W        W53123  21.003  19.709   4.255
80864W        W53124  20.778  11.102   2.832
80865W        W53125  44.758  30.646  10.689
80866W        W53126   7.896  33.217  14.076
80867W        W53127  14.824  42.790  11.168
80868W        W53128  15.675  32.390   2.211
80869W        W53129  10.878  16.965  11.188
80870W        W53130  21.546  20.993  14.984
80871W        W53131  19.535  40.790   0.307
80872W        W53132   1.394  11.945   1.500
80873W        W53133  29.120  10.829   2.157
80874W        W53134  22.129  24.711   1.032
80875W        W53135  32.173  34.339  14.865
80876W        W53136  23.379  14.696  11.690
80877W        W53137   6.745  30.309  13.349
80878W        W53138  40.647  24.181  13.316
80879W        W53139   5.441  36.793  11.049
80880W        W53140  38.194  18.512  14.845
80881W        W53141  19.344  31.944   1.439
80882W        W53142  20.262  24.419   2.913
80883W        W53143  29.982  29.914  12.522
80884W        W53144  16.716  40.248  14.470
80885W        W53145  44.228  44.452  13.649
80886W        W53146  16.297   3.989  12.211
80887W        W53147  39.623  23.160   1.863
80888W        W53148  11.382  38.733   0.235
80889W        W53149  24.602  30.604  14.904
80890W        W53150   2.145   1.325   1.967
80891W        W53151  41.810  28.601   0.463
80892W        W53152  25.073  38.743   1.209
80893W        W53153  24.061  11.654  13.843
80894W        W53154  42.442  29.054  12.504
80895W        W53155  17.202  44.298   4.828
80896W        W53156  10.696   1.956   3.622
80897W        W53157  18.681  29.215   1.824
80898W        W53158  21.917  22.846  14.576
80899W        W53159  27.964  35.453  12.870
80900W        W53160   3.043  42.473   4.790
80901W        W53161  23.825  27.021   4.157
80902W        W53162  32.442   5.449   4.100
80903W        W53163  18.234  27.050   0.825
80904W        W53164  10.302  41.242   3.264
80905W        W53165  26.549  34.413  14.525
80906W        W53166   9.766  29.765  11.664
80907W        W53167   7.287   0.501  11.165
80908W        W53168  33.338  36.929   0.999
80909W        W53169  26.475  26.170  13.286
80910W        W53170   4.494  34.397  11.906
80911W        W53171   1.714  12.205   2.803
80912W        W53172   7.782   5.140  10.808
80913W        W53173   7.306  43.255   1.370
80914W        W53174  40.834   8.811   0.212
80915W        W53175  13.376   7.254  11.126
80916W        W53176   9.683  38.845   2.912
80917W        W53177  36.836  20.018  12.803
80918W        W53178  11.155  26.565  12.716
80919W        W53179  25.429  38.380  13.565
80920W        W53180  20.810   8.475   1.328
80921W        W53181  43.559  27.138   3.300
80922W        W53182  23.658  10.842  10.663
80923W        W53183  41.043  14.051   0.834
80924W        W53184   0.155  26.142   1.580
80925W        W53185  44.045  37.587   2.451
80926W        W53186   5.458   3.269  12.973
80927W        W53187  19.756   3.350  14.411
80928W        W53188  31.161  17.641  13.432
80929W        W53189  43.399  11.700  10.943
80930W        W53190  19.593  13.710   1.828
80931W        W53191   3.952  44.109  14.072
80932W        W53192  13.039   2.291  12.486
80933W        W53193  37.069  43.866  14.466
80934W        W53194   7.164  21.690   3.251
80935W        W53195  14.945  29.727   5.495
80936W        W53196  18.912  43.970  11.485
80937W        W53197   5.468  20.444  13.753
80938W        W53198   4.355  44.238   4.463
80939W        W53199  26.913  30.901  11.095
80940W        W53200  44.651   8.234   3.747
80941W        W53201  10.212  43.297   4.082
80942W        W53202  33.669   2.510   2.803
80943W        W53203  31.048  20.236  13.632
80944W        W53204  38.854  42.468   0.762
80945W        W53205  24.892  30.261   4.188
80946W        W53206   7.758  34.839   0.423
80947W        W53207   3.767  31.025   1.462
80948W        W53208   8.747  41.221   4.722
80949W        W53209  37.530  28.053  14.926
80950W        W53210  15.209   7.115  14.289
80951W        W53211  33.099   2.716  14.141
80952W        W53212  12.494  24.984  13.207
80953W        W53213   7.212   9.150   4.588
80954W        W53214  38.492  14.640  12.334
80955W        W53215  28.511  12.587   1.608
80956W        W53216  37.771  23.296  14.868
80957W        W53217  33.956  16.687  11.014
80958W        W53218   1.553  40.327  11.655
80959W        W53219   9.704  26.086   3.215
80960W        W53220  12.361  25.678  13.510
80961W        W53221  29.686  24.008  14.467
80962W        W53222   5.837  21.488  11.101
80963W        W53223  22.232  26.527   4.890
80964W        W53224  18.575  14.295  14.599
80965W        W53225  23.216  44.373  11.860
80966W        W53226   9.778  36.875   1.482
80967W        W53227  33.592  22.622   3.949
80968W        W53228   5.527  27.539  12.799
80969W        W53229  24.000  24.894  14.826
80970W        W53230  36.614   7.781   1.202
80971W        W53231   5.422  41.023   0.917
80972W        W53232  29.435  13.747  12.957
80973W        W53233  35.544  14.248  14.222
80974W        W53234  13.159  12.135   1.643
80975W        W53235   1.866  24.697  12.959
80976W        W53236   2.673   1.387   3.736
80977W        W53237  15.295  23.090   1.497
80978W        W53238  40.592  36.040   1.834
80979W        W53239  39.099   0.751  12.555
80980W        W53240   1.531   8.709  11.460
80981W        W53241   6.668  29.735   1.387
80982W        W53242  27.154  38.059   3.340
80983W        W53243  43.360   3.569   4.223
80984W        W53244  13.006   3.946   2.633
80985W        W53245  42.359  23.560   1.750
80986W        W53246  30.157  14.623  11.446
80987W        W53247  17.701  33.693  14.276
80988W        W53248  43.980   3.839  13.023
80989W        W53249  30.476  14.128  12.963
80990W        W53250  11.622   4.979  14.403
80991W        W53251  30.182  28.779  12.796
80992W        W53252  22.558   3.312   3.688
80993W        W53253  31.131  10.896  12.519
80994W        W53254   1.251  19.797  10.701
80995W        W53255  17.633  20.524  11.211
80996W        W53256   1.853   1.033  11.712
80997W        W53257  19.147  29.913   3.614
80998W        W53258  38.994  23.817   1.739
80999W        W53259   1.579  42.768  14.926
81000W        W53260  34.340  17.603   1.346
81001W        W53261   8.370  21.020   2.442
81002W        W53262   0.522  43.410   3.690
81003W        W53263  23.235   0.246  11.815
81004W        W53264   0.513  43.837   1.370
81005W        W53265  21.639   1.827  14.194
81006W        W53266  36.569  40.907  10.996
81007W        W53267  36.641  12.276   2.268
81008W        W53268  29.901   5.871  14.817
81009W        W53269  16.746  22.314  13.375
81010W        W53270  27.388  32.151   4.152
81011W        W53271  17.816  30.740  11.234
81012W        W53272  41.449  24.219   3.184
81013W        W53273  10.137  24.285  13.627
81014W        W53274  40.776   6.818  12.044
81015W        W53275   6.499  44.021   4.153
81016W        W53276  29.899  28.370   1.839
81017W        W53277  25.770   9.355  13.570
81018W        W53278  13.677  44.026   4.109
81019W        W53279   4.866  10.561  12.963
81020W        W53280  17.196  27.119   2.870
81021W        W53281  13.192   9.228  12.463
81022W        W53282  24.156  31.087   2.232
81023W        W53283   3.289   5.978  14.978
81024W        W53284  29.449  24.122  11.578
81025W        W53285  19.041  35.625   3.216
81026W        W53286  15.369  20.841  11.625
81027W        W53287  31.222  27.455  13.387
81028W        W53288  21.356  18.624   3.771
81029W        W53289  27.942  21.146  13.616
81030W        W53290   3.462  18.724   1.873
81031W        W53291   5.758  29.893   1.685
81032W        W53292   9.909   3.009  13.531
81033W        W53293  33.070  37.207   2.642
81034W        W53294  12.787  43.988   0.709
81035W        W53295  24.703  34.028   0.966
81036W        W53296  21.129   4.080  11.642
81037W        W53297   6.354  31.929   3.682
81038W        W53298  41.772  22.674   4.633
81039W        W53299   9.642  13.128  12.852
81040W        W53300  25.659   5.705   3.771
81041W        W53301   0.400   8.836  10.671
81042W        W53302  12.803   4.264   2.274
81043W        W53303  21.685  30.874   4.613
81044W        W53304   9.888  24.389   0.910
81045W        W53305   4.558   0.885   2.787
81046W        W53306  41.779  27.637   0.026
81047W        W53307   8.647   6.942   3.456
81048W        W53308   7.294  14.641   2.428
81049W        W53309   0.757   7.185  11.948
81050W        W53310   2.780  42.454  13.255
81051W        W53311  38.852  17.326   0.636
81052W        W53312  37.103  18.196  12.730
81053W        W53313  21.947  25.250  12.105
81054W        W53314  10.120  38.760   3.644
81055W        W53315  26.853   1.742   0.264
81056W        W53316   9.155  41.382  14.451
81057W        W53317   3.113  13.168   3.590
81058W        W53318  34.926  26.015   0.677
81059W        W53319  18.676  14.753   3.613
81060W        W53320   4.954  29.960   3.672
81061W        W53321  14.084  20.309   0.332
81062W        W53322   2.717  33.654  12.959
81063W        W53323   7.648  44.991  14.800
81064W        W53324  31.674  23.976   3.029
81065W        W53325   6.366  44.618   0.540
81066W        W53326  32.441  23.154   3.358
81067W        W53327  31.098  35.951  14.241
81068W        W53328  39.890  27.536   3.087
81069W        W53329  29.985  29.402   4.630
81070W        W53330   7.452   1.613   0.164
81071W        W53331  17.791  41.323   0.971
81072W        W53332  19.531   4.495   0.825
81073W        W53333  40.821  33.431  14.226
81074W        W53334  43.752  34.620   0.108
81075W        W53335  28.336  24.670  12.373
81076W        W53336  42.958  19.208   1.351
81077W        W53337  36.530   9.442   4.723
81078W        W53338  25.196  13.630   2.797
81079W        W53339   0.466  36.345   2.830
81080W        W53340  23.588   6.739   1.972
81081W        W53341  35.025  30.182  14.367
81082W        W53342   3.928   5.478   2.753
81083W        W53343  38.360  36.898  12.800
81084W        W53344  26.496  29.050  13.306
81085W        W53345  34.524  39.278  12.263
81086W        W53346  44.930  11.361  10.550
81087W        W53347  12.810  44.086   3.424
81088W        W53348  22.714  11.285   1.466
81089W        W53349   8.894   6.393  14.325
81090W        W53350  16.757  32.970  11.984
81091W        W53351   2.458  35.657  13.876
81092W        W53352  22.542  15.605  13.953
81093W        W53353  15.771  23.313  13.669
81094W        W53354   6.545  19.477  11.120
81095W        W53355  30.947   7.684  13.954
81096W        W53356  41.786  43.094  12.022
81097W        W53357  31.038  38.550  12.135
81098W        W53358  23.524  29.374   3.616
81099W        W53359  24.021  25.579   2.269
81100W        W53360  36.156  36.134  12.344
81101W        W53361  32.407  33.196   2.381
81102W        W53362  30.024  15.849   0.525
81103W        W53363  33.957  44.082   2.919
81104W        W53364  18.641   6.160  14.453
81105W        W53365  35.885  38.783   2.865
81106W        W53366  41.011  13.135  14.265
81107W        W53367  23.784  27.987   5.003
81108W        W53368   1.327  38.556   3.323
81109W        W53369  26.221  44.912  11.204
81110W        W53370  40.388  15.537   3.640
81111W        W53371  27.991  25.075   3.106
81112W        W53372  39.565   1.724   0.817
81113W        W53373   8.763  21.712   3.476
81114W        W53374   9.723  11.598  14.348
81115W        W53375  27.393  36.890  12.565
81116W        W53376  21.224  21.224   1.830
81117W        W53377  33.154   5.246  12.067
81118W        W53378  40.293  11.205  12.949
81119W        W53379   3.401   3.828   3.094
81120W        W53380  42.834  19.402  14.857
81121W        W53381  30.528  44.674   0.508
81122W        W53382  26.960  35.099  12.510
81123W        W53383  13.231  29.321  12.605
81124W        W53384  26.746  39.990  11.180
81125W        W53385  35.666  31.693   4.309
81126W        W53386  44.741  13.525   3.325
81127W        W53387   5.416  15.332  14.519
81128W        W53388  16.558  22.497  10.673
81129W        W53389  20.802  43.344   2.433
81130W        W53390  18.054  41.757  10.993
81131W        W53391   0.485  17.161   4.966
81132W        W53392  44.038  25.653   0.226
81133W        W53393  42.367  31.648   4.658
81134W        W53394  11.225  22.295   0.763
81135W        W53395   6.275  15.945  13.534
81136W        W53396   0.874   1.411   4.339
81137W        W53397  14.130  17.759  10.931
81138W        W53398  29.871  10.744  14.510
81139W        W53399   1.389  38.082   3.099
81140W        W53400  25.987  44.461   0.844
81141W        W53401  35.893  42.082  10.914
81142W        W53402  11.280   0.904  11.847
81143W        W53403  27.517  42.816   1.940
81144W        W53404  19.086   4.215   2.779
81145W        W53405  16.705  33.166  10.479
81146W        W53406  33.875  31.562  13.843
81147W        W53407  20.324  14.263  14.837
81148W        W53408   3.356  15.905  10.967
81149W        W53409  39.936   7.670  14.370
81150W        W53410  44.470  33.193   1.373
81151W        W53411  27.983  27.043   3.901
81152W        W53412   3.513  36.569  10.734
81153W        W53413  25.446  13.430   1.211
81154W        W53414  17.696  37.425  12.328
81155W        W53415  15.802  31.048   4.522
81156W        W53416  16.691  39.792  13.770
81157W        W53417   3.084  18.683   3.768
81158W        W53418  40.120  31.629  11.556
81159W        W53419  34.974  14.890   4.835
81160W        W53420  29.516  35.836   2.063
81161W        W53421  16.778  37.939   0.794
81162W        W53422  41.019  27.584  10.799
81163W        W53423  18.161  35.456   4.630
81164W        W53424  44.231  30.574   2.163
81165W        W53425  18.889   7.705   1.897
81166W        W53426   5.185  19.109  12.903
81167W        W53427  31.653  20.005   3.333
81168W        W53428  21.063  20.527   4.641
81169W        W53429  23.685  38.245   2.612
81170W        W53430   6.313  31.224  11.114
81171W        W53431   9.254  19.764  14.486
81172W        W53432  44.896  40.246   2.819
81173W        W53433  38.956  22.481   3.300
81174W        W53434  24.176  23.521  14.289
81175W        W53435  19.094  44.502  12.042
81176W        W53436   9.616  29.035  13.401
81177W        W53437  40.390   8.635   2.830
81178W        W53438  10.557  37.869   1.688
81179W        W53439  30.505  30.020  10.169
81180W        W53440  37.709  16.551  11.579
81181W        W53441  36.051  25.005   3.947
81182W        W53442  43.824  33.108  11.426
81183W        W53443  14.822  40.115  11.503
81184W        W53444  36.911  18.382   0.897
81185W        W53445  43.447   1.389   4.546
81186W        W53446  29.121   7.107  11.028
81187W        W53447  35.029  29.002  14.967
81188W        W53448   3.953  12.873  11.173
81189W        W53449  36.059  23.956   1.808
81190W        W53450   7.430  29.567   2.799
81191W        W53451  13.000   2.031  10.509
81192W        W53452  28.237  33.178  14.415
81193W        W53453  38.401  32.626   4.561
81194W        W53454  33.622  26.732  12.487
81195W        W53455  41.618   7.892   2.140
81196W        W53456   1.448  10.690   2.381
81197W        W53457   8.790  34.400   2.310
81198W        W53458  38.790  28.903   3.590
81199W        W53459  26.560  12.277  10.701
81200W        W53460  26.551  10.283  12.211
81201W        W53461  17.877  21.577  11.828
81202W        W53462  21.626  18.766  12.962
81203W        W53463  26.043  33.328  12.037
81204W        W53464  11.113  11.264   3.303
81205W        W53465  33.612  40.997  11.403
81206W        W53466  35.946  11.712   3.296
81207W        W53467  13.700  16.294  14.774
81208W        W53468  13.688   5.639   4.897
81209W        W53469  44.481  27.184   3.879
81210W        W53470  39.521  13.185  14.760
81211W        W53471  26.491   4.284   0.522
81212W        W53472  16.603  24.608   0.370
81213W        W53473  43.320  33.273   3.142
81214W        W53474  37.839  25.932   4.289
81215W        W53475  41.037   8.300   0.618
81216W        W53476   2.292  18.153   2.881
81217W        W53477  25.127   7.217  14.982
81218W        W53478  37.058  39.056  12.899
81219W        W53479  25.734   6.264  11.848
81220W        W53480  25.218  10.325   3.328
81221W        W53481   1.806  31.714  10.622
81222W        W53482  15.402  38.829   3.254
81223W        W53483   0.589  26.641  10.410
81224W        W53484  13.257  29.880  10.730
81225W        W53485  42.811   5.747   1.756
81226W        W53486  15.079  36.942   4.610
81227W        W53487  40.750  32.917  12.325
81228W        W53488  33.469  13.772  13.500
81229W        W53489   5.750  19.221  11.418
81230W        W53490   3.578   4.691   2.400
81231W        W53491  33.258  15.030   3.860
81232W        W53492   2.459  15.078   2.181
81233W        W53493   3.959  37.220   3.885
81234W        W53494  28.406  19.951  14.961
81235W        W53495  32.468  18.150   0.880
81236W        W53496  27.931  30.645  11.598
81237W        W53497  12.302  15.088  10.367
81238W        W53498  21.667  31.406   3.363
81239W        W53499  11.086  41.117  10.640
81240W        W53500  26.127   1.258   0.331
81241W        W53501  40.135  40.705  12.078
81242W        W53502  34.449   2.682  14.606
81243W        W53503  13.830  28.645   2.207
81244W        W53504  43.419   7.303  14.828
81245W        W53505  30.061   6.198  13.574
81246W        W53506  24.686  13.362   4.681
81247W        W53507  16.348  33.709  13.973
81248W        W53508  34.054   2.976   1.725
81249W        W53509   7.735  27.199   4.133
81250W        W53510  19.425   5.828  12.345
81251W        W53511  41.877  33.817  13.029
81252W        W53512  17.073  37.681   0.417
81253W        W53513   5.827  33.473  12.451
81254W        W53514  23.561  24.314   0.798
81255W        W53515  10.928   8.813   2.196
81256W        W53516  40.804  15.778   2.353
81257W        W53517  37.554  23.344   3.322
81258W        W53518  39.621  18.623  11.219
81259W        W53519  17.343  24.188   0.805
81260W        W53520  21.102  32.127   4.525
81261W        W53521  34.141  13.300   0.464
81262W        W53522  16.225  25.864  14.448
81263W        W53523  40.748  12.096  13.842
81264W        W53524   9.895  16.301  10.860
81265W        W53525  17.884  33.848  12.313
81266W        W53526  16.540  36.963  13.957
81267W        W53527  41.569  35.316   0.186
81268W        W53528  16.380   4.357   3.615
81269W        W53529   6.782   1.199   3.147
81270W        W53530   2.198   9.754   1.752
81271W        W53531  17.948  37.488   0.325
81272W        W53532  41.692  14.639   2.877
81273W        W53533  20.037  34.746  10.193
81274W        W53534   1.964  32.601  13.559
81275W        W53535  42.301  20.466   4.123
81276W        W53536  23.220  25.968   1.384
81277W        W53537  34.883   6.436   3.777
81278W        W53538   7.900   8.764   4.532
81279W        W53539  37.975  44.092  10.367
81280W        W53540  40.634  10.066   1.905
81281W        W53541   1.488  27.215   1.404
81282W        W53542  33.918  27.219  13.787
81283W        W53543  17.067   1.456  11.662
81284W        W53544   1.346   4.416   2.377
81285W        W53545   9.785  35.934  12.454
81286W        W53546   4.114  41.512   0.882
81287W        W53547  42.923  31.070  13.732
81288W        W53548  32.850   7.917  12.014
81289W        W53549  24.444  29.431   4.638
81290W        W53550  32.958   5.206  13.016
81291W        W53551  11.666  38.789  12.082
81292W        W53552  44.204  38.423   3.105
81293W        W53553  43.924  23.080  12.041
81294W        W53554  35.904   0.784   1.351
81295W        W53555   5.387  32.355   2.399
81296W        W53556   8.771  12.207   1.955
81297W        W53557  27.684   5.168   4.173
81298W        W53558  18.099   9.444  10.896
81299W        W53559  35.482  43.293  12.877
81300W        W53560  27.247   2.871  10.732
81301W        W53561  15.025  19.586   0.293
81302W        W53562  15.091  24.423  14.477
81303W        W53563   7.218   5.447   1.182
81304W        W53564   3.669  19.512   0.398
81305W        W53565  13.479  34.183   0.206
81306W        W53566  25.055   6.751   2.104
81307W        W53567   3.870  29.265   3.815
81308W        W53568  43.413  12.585   1.291
81309W        W53569  32.233   8.018  14.775
81310W        W53570  14.998  43.779  11.792
81311W        W53571  41.737  26.737   3.682
81312W        W53572  30.187  37.019   0.410
81313W        W53573  11.206  36.783   3.161
81314W        W53574  25.930  33.387   2.241
81315W        W53575   7.433  14.125  11.099
81316W        W53576  39.575  23.266  14.457
81317W        W53577  13.212  38.209   2.688
81318W        W53578  20.501  22.323  13.414
81319W        W53579   2.938  15.347   0.210
81320W        W53580  35.485  35.129   0.331
81321W        W53581  36.886  12.236   4.675
81322W        W53582  42.758   2.970   4.797
81323W        W53583  16.898  18.997   0.860
81324W        W53584  21.559  24.173  14.412
81325W        W53585  15.325  15.806   0.732
81326W        W53586   1.340  14.577   5.070
81327W        W53587  32.153  13.499   4.246
81328W        W53588  25.333  39.398  13.029
81329W        W53589  14.977  21.540   1.453
81330W        W53590  21.801  25.946  14.916
81331W        W53591  33.818  23.643   1.403
81332W        W53592  41.335  13.714   2.801
81333W        W53593   8.673  39.837  13.873
81334W        W53594  34.739   0.929  10.930
81335W        W53595  16.051  10.280  10.745
81336W        W53596  29.392   5.628   4.376
81337W        W53597  31.410  17.546   4.139
81338W        W53598   7.950  28.715  10.640
81339W        W53599   1.172  26.175   3.687
81340W        W53600  22.548  22.536   4.590
81341W        W53601  43.878  43.407   2.968
81342W        W53602   7.631  44.844   4.599
81343W        W53603  21.914  28.104   0.490
81344W        W53604  18.558  33.322   0.756
81345W        W53605  18.741  34.146   1.518
81346W        W53606  33.711  43.304  10.635
81347W        W53607  28.042  16.356   4.860
81348W        W53608   7.265  20.495   2.335
81349W        W53609  30.905  38.268  12.559
81350W        W53610  27.134   8.248  11.538
81351W        W53611  21.767   1.306   1.891
81352W        W53612  30.470  40.656   3.859
81353W        W53613  21.815  11.663  13.357
81354W        W53614  30.054  31.003   2.964
81355W        W53615  33.958  10.778  14.316
81356W        W53616  36.951  14.045   0.399
81357W        W53617  13.324  23.055   2.237
81358W        W53618  27.710  43.531  14.596
81359W        W53619   5.769  36.619  14.851
81360W        W53620  26.775  33.947   5.180
81361W        W53621  10.981  39.824  13.688
81362W        W53622  44.935  41.010   4.011
81363W        W53623   6.621  15.122  13.979
81364W        W53624   4.324   4.230   4.577
81365W        W53625   3.052  35.971   4.667
81366W        W53626  32.525   5.737  14.993
81367W        W53627  27.421  10.269  12.061
81368W        W53628   9.222   5.267   1.752
81369W        W53629   2.880  30.425   4.071
81370W        W53630   0.864  44.597   0.917
81371W        W53631  11.580  24.991   3.565
81372W        W53632   3.287  22.610  12.054
81373W        W53633   5.652  21.809  13.829
81374W        W53634  28.436   0.388   2.511
81375W        W53635  43.819   5.154   4.545
81376W        W53636  37.861   0.177   4.607
81377W        W53637  15.811   7.984   4.220
81378W        W53638  14.645  31.164  14.872
81379W        W53639  15.189  13.646   5.054
81380W        W53640   9.878  36.063   0.821
81381W        W53641  31.181  25.688   4.911
81382W        W53642  25.152  13.689  10.671
81383W        W53643  35.500   0.341  13.278
81384W        W53644  36.823   0.899   0.316
81385W        W53645  18.747  16.630  13.963
81386W        W53646  20.963  27.897  11.197
81387W        W53647  12.901  34.572  12.901
81388W        W53648  39.485  38.075   0.851
81389W        W53649  15.416  27.246  11.065
81390W        W53650  44.774   8.635  12.170
81391W        W53651  14.310  41.992   2.799
81392W        W53652   4.305   0.439   3.843
81393W        W53653  18.090  42.906  11.648
81394W        W53654  32.919  16.663  13.971
81395W        W53655  10.159  25.353   4.032
81396W        W53656   6.425   4.456   1.036
81397W        W53657   3.904  21.809   4.293
81398W        W53658  18.589  13.322  14.728
81399W        W53659  26.465  34.551  10.639
81400W        W53660   5.853  26.630  12.337
81401W        W53661  26.630  39.856   3.647
81402W        W53662  38.793  38.385  14.036
81403W        W53663  20.912  22.660  13.410
81404W        W53664  32.182   8.734   0.711
81405W        W53665   1.374  10.131   0.572
81406W        W53666  26.123  12.695   4.419
81407W        W53667  15.459  17.361  11.076
81408W        W53668  39.440  39.264   1.277
81409W        W53669  28.665  26.098  13.404
81410W        W53670  40.774   5.329  10.943
81411W        W53671   6.533   1.972   3.330
81412W        W53672  44.283  24.557   4.770
81413W        W53673   7.152  32.831  11.508
81414W        W53674  20.645  25.715  14.646
81415W        W53675   4.080  33.852  12.859
81416W        W53676  14.246  18.310   4.843
81417W        W53677  37.906   0.337   1.781
81418W        W53678   1.075  38.820   4.482
81419W        W53679  40.460  29.701  10.520
81420W        W53680  35.617  27.493   4.545
81421W        W53681  31.668   2.754   2.386
81422W        W53682  39.539  31.490   2.840
81423W        W53683  33.141  17.793   2.266
81424W        W53684  25.716  41.612   3.723
81425W        W53685  27.043  25.211   4.925
81426W        W53686  40.935  41.577   2.702
81427W        W53687  11.763  24.223  11.201
81428W        W53688  16.881   8.086   2.610
81429W        W53689  10.552  17.712  12.957
81430W        W53690  12.773   5.796   3.895
81431W        W53691   1.737   7.714   4.018
81432W        W53692  20.631   1.804   1.445
81433W        W53693  43.668  20.466  11.128
81434W        W53694  20.634  37.289  14.993
81435W        W53695  19.581  31.002   2.404
81436W        W53696   7.802   8.293  11.263
81437W        W53697  37.092  42.400  14.347
81438W        W53698   3.027  34.784  12.151
81439W        W53699  13.769  12.882  14.828
81440W        W53700  31.354  41.381   0.900
81441W        W53701  25.776  25.743   0.355
81442W        W53702   8.816  21.777  12.814
81443W        W53703  24.410  30.020  11.036
81444W        W53704   2.863  13.561   4.338
81445W        W53705  36.276   3.913   0.324
81446W        W53706  16.564  20.768   1.701
81447W        W53707  39.963   8.112  11.473
81448W        W53708  41.381   2.947   2.322
81449W        W53709  11.657  39.750   3.905
81450W        W53710  22.053  37.889  12.505
81451W        W53711  23.490  31.738   3.203
81452W        W53712  30.641  20.756  11.112
81453W        W53713  21.991  21.405  14.347
81454W        W53714  15.340  14.500   1.398
81455W        W53715  11.961  42.345  13.061
81456W        W53716  41.107  13.849   3.783
81457W        W53717  32.506  25.515   2.521
81458W        W53718  37.519  34.889  12.585
81459W        W53719  35.596  35.421   1.696
81460W        W53720  12.078  38.495  11.972
81461W        W53721  13.073  17.239  11.568
81462W        W53722  11.178  23.826   0.737
81463W        W53723  29.606  44.226  11.427
81464W        W53724   0.770  41.895   0.388
81465W        W53725  22.993  29.608  12.880
81466W        W53726  25.596  36.482   3.668
81467W        W53727  18.988  16.371  11.664
81468W        W53728  39.023  11.026  12.041
81469W        W53729  44.482   0.256   4.598
81470W        W53730  15.309  34.633   1.366
81471W        W53731  30.951  20.785  13.876
81472W        W53732   4.963  31.700  11.493
81473W        W53733  42.759  34.428   4.639
81474W        W53734  40.015  11.073   1.001
81475W        W53735  44.864  33.748   4.095
81476W        W53736  25.763  43.228   3.376
81477W        W53737   2.466  15.851   4.323
81478W        W53738  28.717  10.724  10.386
81479W        W53739  28.889  42.390   1.231
81480W        W53740   8.168   9.316   0.464
81481W        W53741  43.339  11.842  13.414
81482W        W53742  15.714  11.229  14.563
81483W        W53743  43.292  14.096  13.477
81484W        W53744  14.301  10.921   0.289
81485W        W53745  43.802  17.767  11.975
81486W        W53746   9.762  38.045  11.457
81487W        W53747  10.646  22.283   3.275
81488W        W53748  27.473  40.538   3.742
81489W        W53749  15.587   6.341   2.919
81490W        W53750  30.561  28.364   2.298
81491W        W53751  16.063  15.172   3.527
81492W        W53752  35.830  13.246  11.944
81493W        W53753  13.324  41.690  14.951
81494W        W53754  30.639  40.357   0.807
81495W        W53755   7.134   5.330   4.063
81496W        W53756   0.936  39.103   0.407
81497W        W53757  14.607  37.414   4.132
81498W        W53758  32.752  24.988   4.123
81499W        W53759  40.661  14.256  14.001
81500W        W53760  16.569  35.879   4.115
81501W        W53761   3.376   9.410   1.889
81502W        W53762  35.122  33.943   1.539
81503W        W53763  23.734  42.459   1.338
81504W        W53764  39.948   8.818   2.682
81505W        W53765  20.673  41.336  13.082
81506W        W53766  29.696  27.140   2.099
81507W        W53767  34.090  24.885   2.182
81508W        W53768  10.114   1.033  11.170
81509W        W53769   7.780  25.884   4.052
81510W        W53770  21.510   3.564   3.755
81511W        W53771  14.709  12.688   1.459
81512W        W53772  33.567  42.101  13.853
81513W        W53773   6.705  27.042   3.409
81514W        W53774   1.713  36.016   4.095
81515W        W53775  15.128  39.456  13.512
81516W        W53776   4.678   1.497  10.017
81517W        W53777  27.742   4.374   2.849
81518W        W53778  21.228   0.261   1.313
81519W        W53779  30.603  26.964  10.545
81520W        W53780   5.206  14.912   3.463
81521W        W53781  19.069  16.763   0.841
81522W        W53782  27.495  30.021   1.041
81523W        W53783  22.926   0.429   1.709
81524W        W53784  40.285   7.650   2.918
81525W        W53785  28.601  20.053   2.699
81526W        W53786  18.523  38.365   3.395
81527W        W53787  19.745  16.041  14.423
81528W        W53788   2.907  19.187  12.251
81529W        W53789  23.122  16.028  12.964
81530W        W53790  35.049   8.684   4.268
81531W        W53791  44.312  17.480  10.593
81532W        W53792   2.271  12.686  13.870
81533W        W53793  36.036  40.409  12.503
81534W        W53794   3.944  14.211  11.278
81535W        W53795  13.196   8.290   1.037
81536W        W53796  43.297  16.170  14.429
81537W        W53797  17.730  29.928   3.357
81538W        W53798  38.942  31.842  10.644
81539W        W53799  23.758  22.716  12.069
81540W        W53800  19.833  27.149   3.674
81541W        W53801  22.674  44.750   3.608
81542W        W53802  18.083  41.325   3.296
81543W        W53803   9.212  11.247  10.560
81544W        W53804   5.151  11.647  11.549
81545W        W53805  44.886  36.714   3.118
81546W        W53806  42.899  23.350   3.710
81547W        W53807  33.786  26.232   2.182
81548W        W53808  24.015   5.123  11.724
81549W        W53809  11.314  30.484   2.361
81550W        W53810  28.044  11.364  13.817
81551W        W53811  24.565   2.963   4.162
81552W        W53812  11.923  41.127   1.773
81553W        W53813   1.240  23.297  14.495
81554W        W53814   6.370  40.819   2.189
81555W        W53815  13.883  11.127   2.286
81556W        W53816  33.582   2.447   0.523
81557W        W53817  31.015  18.785   2.729
81558W        W53818  14.836  40.920   1.826
81559W        W53819  14.655  19.949   0.320
81560W        W53820  13.745  32.608  10.735
81561W        W53821  38.362  33.431  11.537
81562W        W53822  12.323  39.805  11.568
81563W        W53823  39.237  29.736  13.887
81564W        W53824  41.388  29.407  12.425
81565W        W53825  22.674  14.171  14.824
81566W        W53826  14.576   1.236  10.731
81567W        W53827  24.766   7.049  11.810
81568W        W53828  37.545  15.169   1.901
81569W        W53829  16.294  20.828  14.080
81570W        W53830  27.722   7.208   1.779
81571W        W53831  36.905  35.074   0.877
81572W        W53832   3.465  41.839  14.805
81573W        W53833  30.351  18.724  12.839
81574W        W53834  31.854   2.784   0.928
81575W        W53835  27.502  37.051  11.243
81576W        W53836  24.908   9.981   4.971
81577W        W53837  40.616  22.252   0.661
81578W        W53838  33.798  24.887   2.916
81579W        W53839  25.577  15.785  13.848
81580W        W53840  17.013  40.648  14.333
81581W        W53841  44.861   0.240   2.311
81582W        W53842  18.000  18.910   2.598
81583W        W53843  43.352  26.750   0.501
81584W        W53844  17.649   4.158   1.258
81585W        W53845   1.768  34.405   1.377
81586W        W53846  13.346  26.082  13.433
81587W        W53847  25.447  13.665   0.427
81588W        W53848   0.461  33.643  13.488
81589W        W53849  30.355  22.920  11.100
81590W        W53850  44.226  29.195   4.173
81591W        W53851  27.674  19.365  13.854
81592W        W53852   9.267  28.225  14.981
81593W        W53853  11.169  31.201   0.241
81594W        W53854  39.089  42.261   1.224
81595W        W53855   3.261  26.188  14.997
81596W        W53856  10.804  38.007   2.691
81597W        W53857  20.581  15.135  13.927
81598W        W53858  10.724  40.047   1.247
81599W        W53859  29.097  29.097   3.208
81600W        W53860   3.208  20.200   0.864
81601W        W53861  17.185   3.388  10.665
81602W        W53862  38.285  19.829  11.067
81603W        W53863  42.732  42.256  11.519
81604W        W53864   7.717  19.223   0.135
81605W        W53865  15.849  27.796   0.372
81606W        W53866   9.689   6.494   0.033
81607W        W53867  18.734  38.688   0.901
81608W        W53868  18.378   9.872   2.851
81609W        W53869   9.080  43.284   3.263
81610W        W53870  42.338   8.344  10.647
81611W        W53871  33.564  41.804  13.415
81612W        W53872  13.453   7.335  12.912
81613W        W53873  30.433  18.975   0.685
81614W        W53874  35.081  40.326  11.493
81615W        W53875  12.739  38.829   0.284
81616W        W53876  21.083  29.205   3.218
81617W        W53877  25.550  30.570  11.582
81618W        W53878  13.311   9.123  14.446
81619W        W53879  17.701   6.579  14.444
81620W        W53880  28.235   3.821   0.723
81621W        W53881  35.626   3.999  10.750
81622W        W53882  34.511  21.578   3.967
81623W        W53883  35.649  44.756  10.705
81624W        W53884  11.256   9.601   2.378
81625W        W53885  22.563  24.873  10.209
81626W        W53886  33.187  33.619   2.380
81627W        W53887  28.557  11.603   0.556
81628W        W53888  19.245  39.464  14.746
81629W        W53889  31.094  39.589   0.209
81630W        W53890  26.904  33.558  10.683
81631W        W53891  24.042  15.063  11.156
81632W        W53892  29.140   6.410   4.413
81633W        W53893  12.137  40.818   4.058
81634W        W53894   8.677  24.471   4.707
81635W        W53895   5.200   7.722   2.505
81636W        W53896  38.753  27.594  12.016
81637W        W53897  42.320  44.968   2.759
81638W        W53898   7.376  20.317  11.119
81639W        W53899  22.123  45.000  12.330
81640W        W53900  43.100  23.925  14.233
81641W        W53901   7.052   0.317   3.278
81642W        W53902  10.119  26.540   0.761
81643W        W53903  30.172  19.789  10.958
81644W        W53904  33.620  40.331  12.467
81645W        W53905  20.667  18.654  10.869
81646W        W53906  37.308  36.032   3.302
81647W        W53907  34.798   7.515   0.384
81648W        W53908  13.736  35.024   4.971
81649W        W53909  33.047   2.943  12.931
81650W        W53910   9.436   0.684  12.584
81651W        W53911   5.957  11.270   4.676
81652W        W53912   6.362  16.103  10.391
81653W        W53913  17.787  20.671   2.808
81654W        W53914   3.499  28.441  11.023
81655W        W53915  30.376  32.639   5.499
81656W        W53916   6.735  34.411   2.388
81657W        W53917  42.031  39.494  13.935
81658W        W53918  17.818  23.281   4.970
81659W        W53919  28.679  17.385  11.150
81660W        W53920  31.762  28.739   2.259
81661W        W53921  19.062  42.909  12.109
81662W        W53922  43.373   4.335  11.142
81663W        W53923   6.320  32.578   0.836
81664W        W53924   5.611  20.038  14.965
81665W        W53925  24.325   6.425  12.513
81666W        W53926   2.584   4.276   0.244
81667W        W53927  34.359   7.902   3.670
81668W        W53928  39.527  30.947  10.878
81669W        W53929  10.208  42.992  12.491
81670W        W53930   0.269  36.812  13.033
81671W        W53931   4.060  19.562   2.304
81672W        W53932  36.532  18.168   4.980
81673W        W53933  35.047  26.596   2.603
81674W        W53934  42.062  17.276  10.166
81675W        W53935  38.396  43.800   0.733
81676W        W53936  28.922  35.506   0.813
81677W        W53937  32.433  21.073   3.768
81678W        W53938  30.079   4.339   0.015
81679W        W53939  39.276  26.877  10.794
81680W        W53940  14.778  10.877   1.697
81681W        W53941  27.916  18.103  14.097
81682W        W53942  24.978  36.552  12.885
81683W        W53943   5.940  20.271   1.350
81684W        W53944  42.916  13.187   2.410
81685W        W53945  37.545  16.786   1.741
81686W        W53946  14.719  21.699  11.148
81687W        W53947  21.032  29.877   2.140
81688W        W53948  43.298  29.984   0.968
81689W        W53949  27.526  31.660  12.940
81690W        W53950  26.051  27.952   1.658
81691W        W53951   9.778  26.294  13.707
81692W        W53952   9.386  21.365  13.453
81693W        W53953  23.612  20.250   3.670
81694W        W53954  14.549  36.303   3.189
81695W        W53955  31.954  16.315   1.697
81696W        W53956  17.046  38.229   1.145
81697W        W53957  14.812  15.179  12.486
81698W        W53958  42.316  20.886   2.350
81699W        W53959  42.708  31.588  10.328
81700W        W53960  33.156   9.688  13.907
81701W        W53961  18.166  28.011  12.919
81702W        W53962  25.230  25.702  11.146
81703W        W53963  12.253  17.877  14.305
81704W        W53964  34.582   3.882   1.310
81705W        W53965  33.167  17.820   0.515
81706W        W53966  31.431  36.622  11.013
81707W        W53967  18.120  29.291   0.070
81708W        W53968   0.212  35.933   4.080
81709W        W53969  35.576  27.481  14.846
81710W        W53970  36.869   2.152  14.675
81711W        W53971  24.046  25.386   1.398
81712W        W53972  34.862   0.441  12.047
81713W        W53973  23.634  44.755  11.153
81714W        W53974   1.868  24.821  10.573
81715W        W53975  30.230   3.587   4.947
81716W        W53976  34.291   7.623  11.981
81717W        W53977  20.864  19.223  12.513
81718W        W53978  34.684  44.399  10.574
81719W        W53979  28.665  41.447  14.893
81720W        W53980  32.356  22.515  13.339
81721W        W53981   2.252  10.727  14.451
81722W        W53982  37.097  35.379  13.580
81723W        W53983  32.345  34.342  12.099
81724W        W53984   9.291  21.104   4.828
81725W        W53985  42.819   6.009   2.708
81726W        W53986  12.370  36.127  13.754
81727W        W53987  28.057   6.227  10.522
81728W        W53988  12.534   3.291  13.874
81729W        W53989   9.667  23.726   0.467
81730W        W53990  21.547  40.797   2.769
81731W        W53991  37.240   7.198  11.998
81732W        W53992  15.804  20.523   0.845
81733W        W53993  42.351  14.829  14.004
81734W        W53994  23.815  35.856   5.160
81735W        W53995   3.198  44.258  13.597
81736W        W53996  16.809  19.301   4.653
81737W        W53997  39.487  32.767   4.157
81738W        W53998  17.647  25.302   3.120
81739W        W53999  34.976   6.904  12.954
81740W        W54000   8.720   9.154  12.229
81741W        W54001  14.181  31.398   3.024
81742W        W54002  32.434  33.579   0.839
81743W        W54003  28.895  30.341   0.968
81744W        W54004  24.607  44.489   4.147
81745W        W54005  18.633  34.351  14.838
81746W        W54006   3.238   6.412  10.447
81747W        W54007  24.143  28.836  12.430
81748W        W54008   8.419  23.620   3.507
81749W        W54009  43.741  31.712   3.740
81750W        W54010  23.113  12.334   3.690
81751W        W54011  23.696  40.847   3.728
81752W        W54012   4.456   8.908   0.283
81753W        W54013  19.631  17.806  10.700
81754W        W54014  25.653  34.417  13.807
81755W        W54015  12.023  44.862   4.245
81756W        W54016  42.852  26.253  14.799
81757W        W54017   3.801  35.542  11.588
81758W        W54018   7.228  17.589  10.753
81759W        W54019  39.064  19.548  13.361
81760W        W54020  17.128   8.004  10.722
81761W        W54021  22.137  28.515  13.824
81762W        W54022  34.967  31.692   4.922
81763W        W54023  19.619   6.716   1.199
81764W        W54024  30.902  11.722  11.730
81765W        W54025  26.025  44.550  12.938
81766W        W54026  23.770  32.133   4.047
81767W        W54027  10.890  29.621  12.836
81768W        W54028  29.680  25.525   1.356
81769W        W54029  26.019  13.353  14.083
81770W        W54030  29.579  13.563   0.677
81771W        W54031  29.526  23.931   1.000
81772W        W54032   9.858  13.873   2.643
81773W        W54033   1.726  25.974   0.958
81774W        W54034  35.365  37.543  11.543
81775W        W54035  22.155  33.027   2.626
81776W        W54036  10.655  22.508  10.136
81777W        W54037  15.841  22.661   4.685
81778W        W54038  20.494  16.717   0.708
81779W        W54039   6.880  39.473  13.617
81780W        W54040  30.023  27.434  12.046
81781W        W54041  11.642  12.309   1.912
81782W        W54042  28.615  34.155   4.023
81783W        W54043  16.040  42.688   3.856
81784W        W54044  25.000  11.334   0.221
81785W        W54045  25.671  43.682  11.886
81786W        W54046  13.310   7.848   0.291
81787W        W54047  35.667  17.779  13.449
81788W        W54048   2.506  22.626  12.889
81789W        W54049   7.269  36.321   3.235
81790W        W54050  19.336   6.525   0.760
81791W        W54051  11.311  25.550  10.650
81792W        W54052  22.551  38.004  11.526
81793W        W54053  24.627  31.628   4.332
81794W        W54054  14.945  14.855   1.719
81795W        W54055  28.394  13.846  11.491
81796W        W54056   4.593  12.740   4.090
81797W        W54057  17.075  20.001  11.962
81798W        W54058   6.174  42.345   1.164
81799W        W54059  33.135  13.583   0.431
81800W        W54060  21.815   6.726  12.032
81801W        W54061  44.346   0.908   5.339
81802W        W54062  33.166   5.468   4.893
81803W        W54063   9.327  37.358   0.430
81804W        W54064  13.483  16.750   1.957
81805W        W54065   6.160  16.971  13.515
81806W        W54066   6.891  13.662  12.131
81807W        W54067  26.553  44.472  10.636
81808W        W54068  17.854   2.217   2.352
81809W        W54069  24.189  32.160   3.732
81810W        W54070  30.160  41.899  14.279
81811W        W54071  18.824   6.761  11.889
81812W        W54072  28.956  36.687  13.235
81813W        W54073  12.818  38.367   0.024
81814W        W54074  37.075  11.228   4.986
81815W        W54075  40.978  39.863   4.733
81816W        W54076  10.898   4.849  13.856
81817W        W54077  29.673  36.539  14.784
81818W        W54078  14.892  44.349  12.996
81819W        W54079  10.280  14.101   1.479
81820W        W54080   3.324  33.079  10.828
81821W        W54081   0.278  14.691  12.089
81822W        W54082  44.271  44.421   1.313
81823W        W54083  21.972  42.998   0.226
81824W        W54084  11.283  19.627   4.667
81825W        W54085   4.878  24.842   0.614
81826W        W54086  12.079  25.895  12.079
81827W        W54087   6.219  30.205  12.362
81828W        W54088  29.243  37.841   1.024
81829W        W54089  29.455  27.913   0.982
81830W        W54090  20.986  35.723  13.444
81831W        W54091  39.273   8.599  11.023
81832W        W54092  43.285  33.355  13.464
81833W        W54093   9.424  39.986  14.996
81834W        W54094  31.985  17.293  11.944
81835W        W54095  35.343  40.487   4.069
81836W        W54096  20.542   7.297   1.891
81837W        W54097  44.004  11.252   1.099
81838W        W54098  15.559   3.194  12.481
81839W        W54099  25.549  12.676   0.740
81840W        W54100  33.132  22.685   4.137
81841W        W54101  14.822  25.033   2.800
81842W        W54102  24.174  24.702   3.740
81843W        W54103  39.447  44.404  12.414
81844W        W54104  31.563  16.584   4.736
81845W        W54105  38.073  22.288   4.593
81846W        W54106  15.082  44.972   3.188
81847W        W54107   8.150  36.403   0.913
81848W        W54108  42.018  11.220  13.346
81849W        W54109  13.685  38.016   4.396
81850W        W54110  15.327  21.265   3.636
81851W        W54111  23.278  36.620   4.207
81852W        W54112  12.101  18.752  13.379
81853W        W54113   7.183   2.711   4.154
81854W        W54114  44.418  35.126   4.605
81855W        W54115  38.798  33.096   3.805
81856W        W54116   7.704   6.783  13.636
81857W        W54117   3.937  43.987   4.211
81858W        W54118   3.774   2.879  12.082
81859W        W54119  18.682  31.984   3.375
81860W        W54120  40.813  12.454  11.072
81861W        W54121   5.437   6.463  14.388
81862W        W54122  20.771   3.387  10.633
81863W        W54123   7.441  18.625   1.528
81864W        W54124  37.863  36.872   3.566
81865W        W54125  33.796  37.039   1.860
81866W        W54126  14.244  35.118  10.751
81867W        W54127  13.650  16.340   0.386
81868W        W54128   8.377  22.816  10.740
81869W        W54129  18.553   3.347   2.636
81870W        W54130   4.790   9.087   2.653
81871W        W54131  26.504  23.386   4.580
81872W        W54132  36.915  28.845   3.636
81873W        W54133  39.732  14.188   1.273
81874W        W54134  24.517  38.743  14.804
81875W        W54135  25.280   9.696   2.114
81876W        W54136  34.349  20.346   0.628
81877W        W54137  25.842   0.610  13.902
81878W        W54138  30.138  22.033   0.467
81879W        W54139  22.530   0.772  12.442
81880W        W54140  43.247  21.571   0.221
81881W        W54141   7.457  36.452   3.705
81882W        W54142   3.285  38.713   0.421
81883W        W54143   7.764  35.162   3.583
81884W        W54144   2.972  35.507   3.745
81885W        W54145  36.158  24.647  11.833
81886W        W54146  42.765   2.786   3.805
81887W        W54147  16.008  19.579  14.303
81888W        W54148  42.784   4.737  12.936
81889W        W54149  22.624  31.520  12.015
81890W        W54150  10.814  31.044   2.884
81891W        W54151  32.980  16.887   1.889
81892W        W54152   0.626  12.418  14.878
81893W        W54153  24.504  35.112   2.346
81894W        W54154  16.162   0.173  13.790
81895W        W54155  14.871  43.905   0.810
81896W        W54156  15.519  44.972  13.271
81897W        W54157  17.663  23.955  14.424
81898W        W54158   8.878  37.489   2.914
81899W        W54159  20.700  25.303   4.081
81900W        W54160   1.621  10.981  14.905
81901W        W54161  43.000  12.224  13.497
81902W        W54162  17.012  41.904  14.549
81903W        W54163  19.216   9.049   0.271
81904W        W54164  36.793  34.581   0.718
81905W        W54165  15.321  13.330   3.619
81906W        W54166  13.897  32.170  13.798
81907W        W54167   6.938   4.872  12.578
81908W        W54168  13.197  23.703  11.196
81909W        W54169  39.559  26.707  12.823
81910W        W54170  30.683   1.885   4.634
81911W        W54171  28.061  35.549  10.635
81912W        W54172  40.252  21.346   3.769
81913W        W54173  30.210  22.044  13.096
81914W        W54174  26.124  34.907   0.573
81915W        W54175  36.667   8.132   3.721
81916W        W54176   6.931  19.106  12.632
81917W        W54177  26.908  18.970  14.325
81918W        W54178  17.776  13.216  10.728
81919W        W54179  11.929  32.559  11.217
81920W        W54180  25.654  22.889  12.445
81921W        W54181  40.609  34.812   0.470
81922W        W54182  36.861  44.555  12.791
81923W        W54183  35.165  31.871   5.376
81924W        W54184   7.873  29.180  12.718
81925W        W54185  16.128  38.914   4.611
81926W        W54186  23.651  23.599  14.363
81927W        W54187  37.857  40.509   1.828
81928W        W54188   3.349  32.993   1.502
81929W        W54189   3.969  34.092   4.111
81930W        W54190  29.990  44.605  14.892
81931W        W54191  25.513  41.073   1.453
81932W        W54192  16.534  33.718   4.774
81933W        W54193  27.223  25.124   4.474
81934W        W54194  30.400   4.190   3.226
81935W        W54195  33.711  38.064   4.048
81936W        W54196  42.557  33.397  10.739
81937W        W54197  12.686  13.162  12.092
81938W        W54198  36.415  32.402  11.222
81939W        W54199   1.806  41.711   0.802
81940W        W54200  43.810   9.449   0.280
81941W        W54201  32.605  29.381  11.188
81942W        W54202  36.461  13.319  12.036
81943W        W54203  38.053  17.600  11.111
81944W        W54204  25.084  15.558  13.939
81945W        W54205  44.735   8.088  12.107
81946W        W54206  19.946  29.613   0.624
81947W        W54207  12.267  16.576   2.230
81948W        W54208  23.777  39.748  12.871
81949W        W54209   4.782   1.386   2.922
81950W        W54210   7.198  22.188   3.830
81951W        W54211   9.113  16.545   1.720
81952W        W54212   8.246   7.235  10.928
81953W        W54213  25.520  25.447   0.762
81954W        W54214  34.635   8.595  13.600
81955W        W54215  44.720  27.815  11.487
81956W        W54216   0.057   4.904   1.420
81957W        W54217  15.036  13.580  11.172
81958W        W54218   3.901  34.017   0.570
81959W        W54219  38.592  15.248  10.637
81960W        W54220  17.296   0.949  13.022
81961W        W54221   8.402  20.535  13.044
81962W        W54222  23.009  16.969  10.033
81963W        W54223  18.871  25.461  11.394
81964W        W54224  26.643  29.627   2.717
81965W        W54225  30.332   6.299   3.424
81966W        W54226   7.176  16.510   1.955
81967W        W54227  18.593  27.711   0.240
81968W        W54228  29.902  35.527  14.096
81969W        W54229  32.571  29.580  12.993
81970W        W54230  23.505  26.705   4.464
81971W        W54231  23.733  15.396   4.739
81972W        W54232  17.659  38.065  12.940
81973W        W54233  21.564  42.667   4.552
81974W        W54234  23.271  15.051  11.330
81975W        W54235  20.803  41.606  14.452
81976W        W54236  32.835  40.890   0.782
81977W        W54237  32.868   3.257  11.649
81978W        W54238  13.624   6.344   1.894
81979W        W54239  39.804  40.964   2.250
81980W        W54240   7.065  22.129   2.932
81981W        W54241  24.654   5.557  11.217
81982W        W54242   5.902   0.246   0.177
81983W        W54243  19.628  23.246   2.409
81984W        W54244  32.789  26.105   4.193
81985W        W54245  30.197   6.640  14.560
81986W        W54246  29.657  20.057   0.411
81987W        W54247   1.484   1.498  14.458
81988W        W54248  22.735   2.356   1.247
81989W        W54249   1.654   3.380   3.283
81990W        W54250  15.408   5.287   1.255
81991W        W54251  40.292  39.246  14.358
81992W        W54252  12.148   9.721  11.984
81993W        W54253  22.512  34.666  13.900
81994W        W54254  16.809   9.133   0.999
81995W        W54255  21.241  35.090   0.791
81996W        W54256  18.303  36.823  13.695
81997W        W54257  24.638  38.481   1.059
81998W        W54258  11.614  27.864   3.063
81999W        W54259  11.845  31.469   3.665
82000W        W54260  35.964  43.585  10.643
82001W        W54261  16.733  21.554  14.886
82002W        W54262   4.178  31.858  13.180
82003W        W54263  37.393  41.278   1.970
82004W        W54264  21.669   9.843   0.391
82005W        W54265  32.874  29.607   3.783
82006W        W54266  40.389  18.102   4.714
82007W        W54267   6.873  20.853   3.808
82008W        W54268  13.318  34.425   1.893
82009W        W54269   3.197  30.960   3.244
82010W        W54270  34.940  29.596   4.722
82011W        W54271  23.380   7.311   4.873
82012W        W54272  42.357  25.420   1.650
82013W        W54273   7.272  15.077   0.011
82014W        W54274  18.268  21.083   2.308
82015W        W54275  21.236  14.320   2.857
82016W        W54276  33.618  16.296   3.294
82017W        W54277  35.627  21.007  14.829
82018W        W54278   5.242   1.296   1.728
82019W        W54279  41.451  18.490  13.805
82020W        W54280   5.414  11.952  10.007
82021W        W54281  34.808  19.584  13.575
82022W        W54282   1.426   1.561   0.284
82023W        W54283  19.690   8.166  11.267
82024W        W54284  17.167   5.483   1.348
82025W        W54285  11.167  40.472  12.538
82026W        W54286  40.859  13.057  13.716
82027W        W54287  13.210   0.006  12.124
82028W        W54288  19.324  26.959  13.818
82029W        W54289  19.114   3.975   1.434
82030W        W54290  31.093  40.170   0.352
82031W        W54291  43.581  26.107  11.940
82032W        W54292  20.465  33.417  14.864
82033W        W54293  20.512   1.272   1.716
82034W        W54294  41.029  27.606  12.577
82035W        W54295  24.924  30.209  14.862
82036W        W54296  12.801  39.393  12.387
82037W        W54297  26.434  14.797   0.462
82038W        W54298   9.725  13.232   1.334
82039W        W54299  22.665  18.087   2.622
82040W        W54300  42.856  19.013  11.685
82041W        W54301  40.433  31.013  14.286
82042W        W54302   3.485  34.936  11.079
82043W        W54303  26.987   9.964  11.672
82044W        W54304  27.042  10.270   2.382
82045W        W54305  37.254  15.681  12.393
82046W        W54306  24.545  14.016   1.918
82047W        W54307  29.194  42.865  10.666
82048W        W54308  35.590  18.185   5.057
82049W        W54309   2.747   2.001   1.844
82050W        W54310  25.515   2.229   0.557
82051W        W54311  24.386   6.343   0.659
82052W        W54312  33.219  38.519  11.978
82053W        W54313  18.535  37.532  14.345
82054W        W54314  11.165   7.308   1.004
82055W        W54315  14.644  22.227  13.935
82056W        W54316  44.476  35.492   1.387
82057W        W54317  36.387  16.655   1.215
82058W        W54318  21.976  15.669  11.782
82059W        W54319  18.713  44.049   2.044
82060W        W54320   1.207  34.994  13.249
82061W        W54321  20.232   8.615   4.749
82062W        W54322  37.179  35.120  13.131
82063W        W54323  11.188  11.392  11.612
82064W        W54324  43.015   4.800   3.363
82065W        W54325   6.190   0.491   3.765
82066W        W54326  26.215  33.582  11.584
82067W        W54327  20.629  36.934   0.383
82068W        W54328  44.356  16.099  10.559
82069W        W54329  11.296   5.815   2.900
82070W        W54330  16.745  38.910   1.865
82071W        W54331  40.529  43.235   1.672
82072W        W54332  22.578  19.514  11.000
82073W        W54333  20.481  39.714   0.394
82074W        W54334   6.230  18.765  14.337
82075W        W54335  15.194   6.238   1.441
82076W        W54336  31.957  19.096   3.290
82077W        W54337   4.513   4.965   4.072
82078W        W54338  12.147  22.499  11.557
82079W        W54339   2.183  38.351  11.548
82080W        W54340  34.391  14.701   0.546
82081W        W54341  26.174  42.799   2.713
82082W        W54342  23.521   2.190  13.793
82083W        W54343  39.141  22.186  10.714
82084W        W54344  41.485  19.042   4.697
82085W        W54345   7.382   6.406  14.595
82086W        W54346  41.855  20.397   3.099
82087W        W54347  23.137  38.847   1.421
82088W        W54348  32.511  17.090   4.066
82089W        W54349   0.030   8.702   0.737
82090W        W54350  16.277   2.666   2.774
82091W        W54351  43.673  15.386  10.451
82092W        W54352   5.184  11.090   1.347
82093W        W54353  37.424  23.925   0.789
82094W        W54354  35.317  43.128  11.492
82095W        W54355   5.088  32.834  12.091
82096W        W54356  11.183  22.093  12.805
82097W        W54357  40.955   3.867  14.354
82098W        W54358  27.894  38.428  11.699
82099W        W54359   6.206  10.937   4.094
82100W        W54360   6.312  15.875  14.367
82101W        W54361   8.256  31.372   4.168
82102W        W54362   2.889  11.600   2.673
82103W        W54363  40.222  26.672   5.113
82104W        W54364  16.892  28.394   4.056
82105W        W54365  16.502   6.941  14.330
82106W        W54366   0.309  31.678   1.290
82107W        W54367  39.202  12.538  13.457
82108W        W54368  28.373  39.794  14.888
82109W        W54369  13.297  42.964  14.595
82110W        W54370   5.449   6.897   2.659
82111W        W54371  28.047  14.682  11.650
82112W        W54372   2.713  42.114   0.834
82113W        W54373  40.876  32.515  14.014
82114W        W54374  15.210  15.807  10.210
82115W        W54375  38.759  19.572  12.325
82116W        W54376  20.025   9.077   4.603
82117W        W54377  30.632  44.387  12.999
82118W        W54378  26.534  10.225  11.666
82119W        W54379  35.396  42.784  10.690
82120W        W54380  24.448  12.600   1.865
82121W        W54381  23.614  37.348   2.606
82122W        W54382  13.109   3.113   3.220
82123W        W54383  34.146   4.928   1.776
82124W        W54384   0.554  28.161   4.836
82125W        W54385  34.139  22.169  12.468
82126W        W54386  41.932  43.457   0.878
82127W        W54387  37.295   5.552  13.298
82128W        W54388  43.737   3.452   0.630
82129W        W54389  35.266   0.979   4.388
82130W        W54390  35.939  32.521  14.682
82131W        W54391   9.910  22.683   0.300
82132W        W54392  20.333  39.190   5.077
82133W        W54393  41.227  29.226  14.515
82134W        W54394  28.722  19.059   1.184
82135W        W54395  24.010  22.016  14.829
82136W        W54396  31.311   2.288  10.809
82137W        W54397  12.696  32.710  12.958
82138W        W54398  29.661  29.126   3.706
82139W        W54399  34.878   3.717   3.223
82140W        W54400  20.228  44.794  13.512
82141W        W54401  31.853   7.478  14.466
82142W        W54402   1.184   6.135   1.325
82143W        W54403   8.851  23.950   1.467
82144W        W54404  19.157  34.565   3.013
82145W        W54405  43.269  43.692   4.101
82146W        W54406  25.625  42.105   4.596
82147W        W54407  40.409  32.415   0.360
82148W        W54408  28.001   0.581   2.758
82149W        W54409  36.362   3.190   0.935
82150W        W54410  44.603  26.059  13.632
82151W        W54411   1.308   7.919  13.829
82152W        W54412  11.813  23.500  13.363
82153W        W54413  27.031   0.272   0.299
82154W        W54414  18.060   8.019  13.767
82155W        W54415  40.399  35.388  14.581
82156W        W54416  31.862  27.578   0.275
82157W        W54417  10.624  37.137  11.010
82158W        W54418  39.767  14.375   4.813
82159W        W54419  36.193   7.708   2.333
82160W        W54420  18.623  11.942  14.374
82161W        W54421  13.430   4.974   1.492
82162W        W54422  14.539   7.453   3.733
82163W        W54423  25.682  37.878   4.677
82164W        W54424  32.392  35.157  10.700
82165W        W54425  22.987   2.778   4.168
82166W        W54426  21.959  26.776   1.757
82167W        W54427  35.483  10.734   0.891
82168W        W54428  25.611  27.930  13.677
82169W        W54429  35.475   2.330  10.739
82170W        W54430  42.412   2.312   2.823
82171W        W54431   1.252  22.662  10.425
82172W        W54432  13.732  42.369  13.009
82173W        W54433  32.705  26.991   2.765
82174W        W54434  37.579  34.458   4.399
82175W        W54435  10.906   9.242   0.800
82176W        W54436   2.001   0.210   4.524
82177W        W54437  28.436  10.107  14.052
82178W        W54438  31.933  21.720   4.116
82179W        W54439  42.424   3.394   1.255
82180W        W54440  31.178  34.919  13.382
82181W        W54441   6.126  33.143  10.372
82182W        W54442  13.808   5.689   2.749
82183W        W54443  18.028  41.515  13.761
82184W        W54444  28.042  30.102   2.714
82185W        W54445  35.941  38.027   4.368
82186W        W54446  41.517  27.173   1.918
82187W        W54447  44.771  16.175  12.547
82188W        W54448  25.431  33.849  10.616
82189W        W54449   3.298   4.181   3.700
82190W        W54450  18.114  34.296   0.013
82191W        W54451  25.728  38.996  14.273
82192W        W54452  37.351  43.724   3.109
82193W        W54453  29.871  43.185  12.504
82194W        W54454  15.045  12.817  14.325
82195W        W54455  17.797  34.522  11.024
82196W        W54456  42.063   1.159  10.711
82197W        W54457  36.514   0.348  10.740
82198W        W54458  19.874  43.975   0.363
82199W        W54459   4.359   9.850  12.800
82200W        W54460   7.285  22.172  11.104
82201W        W54461  22.409   8.844   3.708
82202W        W54462  34.314  15.727  12.326
82203W        W54463  24.272   5.330  14.391
82204W        W54464   6.940   2.852  12.507
82205W        W54465  42.979  26.514   0.219
82206W        W54466  42.875  11.719  11.807
82207W        W54467   3.515  28.684   1.467
82208W        W54468  21.962   8.792   4.187
82209W        W54469  10.159   8.865  14.223
82210W        W54470  40.502   6.814   4.288
82211W        W54471  24.474  11.206   3.133
82212W        W54472  19.715  19.661  10.224
82213W        W54473  24.317   6.669  12.977
82214W        W54474   9.334   9.263  14.029
82215W        W54475  44.972  17.793   0.003
82216W        W54476  39.343  24.379  10.714
82217W        W54477  23.458   3.969  13.300
82218W        W54478  17.110  18.589   0.592
82219W        W54479  31.158  43.974   0.783
82220W        W54480   7.679  39.774  12.914
82221W        W54481   9.236   4.319  13.880
82222W        W54482  43.294  32.009   3.759
82223W        W54483   7.794  42.967  14.326
82224W        W54484  29.982  39.820   1.699
82225W        W54485  19.312  36.580  14.830
82226W        W54486  39.367  27.675   1.398
82227W        W54487  35.075  28.620  12.046
82228W        W54488  35.817  18.187   4.606
82229W        W54489  39.391  44.539   3.283
82230W        W54490  30.567  32.002  13.465
82231W        W54491  32.871  43.064  10.289
82232W        W54492   7.363  12.403  13.392
82233W        W54493  20.241   2.527   2.844
82234W        W54494  44.335  42.442   4.246
82235W        W54495  16.220  14.812   0.392
82236W        W54496   1.892   9.665  13.345
82237W        W54497  43.293  41.813   3.819
82238W        W54498  14.552  13.536  11.357
82239W        W54499   1.256   0.230  14.965
82240W        W54500  18.213  17.999   4.853
82241W        W54501  43.970  33.827   0.848
82242W        W54502  30.338  17.828  12.793
82243W        W54503   7.965   1.840   2.747
82244W        W54504  13.670  22.371  14.876
82245W        W54505  21.555  23.601   1.199
82246W        W54506  10.590  27.564  13.108
82247W        W54507   3.481  26.690  11.204
82248W        W54508  12.201  25.636  11.618
82249W        W54509   4.859  39.752  11.575
82250W        W54510  33.506  33.012  12.072
82251W        W54511  11.325  27.087  13.636
82252W        W54512  12.832  12.390  13.885
82253W        W54513  19.989  40.555   0.152
82254W        W54514  11.062   4.915  11.974
82255W        W54515   3.975  25.018   2.084
82256W        W54516  39.236  24.714  13.411
82257W        W54517  24.733  33.942   3.677
82258W        W54518  21.650  32.003  14.334
82259W        W54519  21.732  25.649   4.920
82260W        W54520  31.018  20.554   0.886
82261W        W54521  42.049  18.534   4.333
82262W        W54522  16.657  42.175   0.827
82263W        W54523  15.084  27.245   1.855
82264W        W54524  12.060   6.691   4.175
82265W        W54525  15.161  38.101   4.097
82266W        W54526   6.454   2.258  11.151
82267W        W54527  39.883  27.904  13.222
82268W        W54528  33.928  42.819  10.717
82269W        W54529   5.258  26.435   0.350
82270W        W54530  36.340  19.770  11.002
82271W        W54531  38.044  10.243  12.510
82272W        W54532   3.190  37.804  14.972
82273W        W54533  29.942  18.356   0.084
82274W        W54534  22.745   1.764   0.669
82275W        W54535  16.781  43.556   3.264
82276W        W54536   5.994  16.644  13.133
82277W        W54537  29.179  23.910   4.099
82278W        W54538  34.480   0.541   1.765
82279W        W54539  35.309  44.424  12.024
82280W        W54540  19.506  18.574  11.647
82281W        W54541  37.920   8.853  10.594
82282W        W54542   3.213  36.226  14.956
82283W        W54543  37.016   8.902  10.691
82284W        W54544  30.119  24.785  14.495
82285W        W54545  29.885  27.589   2.298
82286W        W54546   9.695   4.630  12.547
82287W        W54547   8.416  41.484  14.881
82288W        W54548   7.894  16.314  14.938
82289W        W54549  11.778   7.116   1.642
82290W        W54550  16.430  14.914   3.218
82291W        W54551  26.549  28.708  10.722
82292W        W54552  36.952  41.039   3.449
82293W        W54553   6.369  41.432   4.630
82294W        W54554   4.341  39.463   3.870
82295W        W54555  35.581  11.174  14.943
82296W        W54556  30.049  28.512  14.985
82297W        W54557  29.462  19.760   1.738
82298W        W54558   2.402  27.070   4.395
82299W        W54559  40.886  29.975   2.098
82300W        W54560  30.878  14.383   1.780
82301W        W54561  26.464  38.435   3.431
82302W        W54562  22.232  31.910  10.837
82303W        W54563  39.936   7.486   3.747
82304W        W54564  10.999   8.263   0.940
82305W        W54565   3.839  25.639  10.486
82306W        W54566  22.733  44.947   0.486
82307W        W54567  18.551  10.601  10.764
82308W        W54568  22.627  20.375   1.206
82309W        W54569  22.768  30.977  10.208
82310W        W54570  24.112   6.482   2.309
82311W        W54571  25.690  10.805   4.893
82312W        W54572  20.467  32.013  13.801
82313W        W54573  32.571  22.332   4.031
82314W        W54574  40.875  18.715  13.506
82315W        W54575  42.354  11.544   0.386
82316W        W54576   9.156   0.856   3.243
82317W        W54577  23.533  24.727   1.113
82318W        W54578  23.288  41.032  13.346
82319W        W54579  42.498   5.898   3.656
82320W        W54580   3.831  19.547  14.869
82321W        W54581  28.612  42.144  14.348
82322W        W54582  12.019  29.153  10.960
82323W        W54583  41.510  20.839  14.500
82324W        W54584  12.802  31.029  12.606
82325W        W54585  29.332   8.334   2.865
82326W        W54586  38.093  30.833  12.579
82327W        W54587   5.949   7.528  14.905
82328W        W54588  44.393  18.307  11.574
82329W        W54589   5.405   9.731   3.709
82330W        W54590  21.382  22.096  13.041
82331W        W54591   5.742  23.228  13.957
82332W        W54592  33.453  26.747  10.087
82333W        W54593  16.016  42.568  12.423
82334W        W54594  10.645  28.946  10.275
82335W        W54595  43.779  14.149   4.330
82336W        W54596  29.425  17.213  14.711
82337W        W54597  10.637   1.718   1.730
82338W        W54598  13.956  15.224   2.754
82339W        W54599  40.437  28.278   4.386
82340W        W54600  29.687  39.264  13.293
82341W        W54601   6.013  35.808   4.834
82342W        W54602  28.575  32.588  14.502
82343W        W54603  25.137  30.101   1.682
82344W        W54604  33.102   7.190  12.647
82345W        W54605  12.819  16.162   4.319
82346W        W54606   3.988  38.669   0.981
82347W        W54607  32.936  33.586  10.521
82348W        W54608  19.303   0.447  14.359
82349W        W54609  11.567  25.448  14.859
82350W        W54610  36.958   1.789  14.318
82351W        W54611  12.839   7.292  13.406
82352W        W54612  44.533  20.849  14.296
82353W        W54613  29.676  30.572  13.970
82354W        W54614   3.778  37.952  12.931
82355W        W54615  20.745  17.322  13.978
82356W        W54616  42.072  27.620  12.858
82357W        W54617  17.211  32.922  12.631
82358W        W54618  20.357  31.435   2.889
82359W        W54619  43.496   3.831   4.669
82360W        W54620  18.069  43.941  10.737
82361W        W54621   0.029  41.369   4.389
82362W        W54622  33.863  15.761  14.040
82363W        W54623   4.386  31.637  12.556
82364W        W54624  26.978  24.021   2.284
82365W        W54625   1.147   3.284  11.126
82366W        W54626   7.877   4.202  14.046
82367W        W54627  27.487  11.771   4.580
82368W        W54628  22.635  17.620  10.514
82369W        W54629   9.605   2.465  10.660
82370W        W54630   4.268  16.297   2.893
82371W        W54631  44.015  13.293  12.455
82372W        W54632  35.142   3.931   2.834
82373W        W54633   7.866   5.254   1.466
82374W        W54634  30.107  14.089   4.192
82375W        W54635   9.810  44.781   3.343
82376W        W54636  42.803   8.076  12.569
82377W        W54637  30.025   9.178  11.658
82378W        W54638  34.820  17.148   1.876
82379W        W54639  42.394  42.339   1.264
82380W        W54640  12.019  19.210  12.529
82381W        W54641  40.592  12.769  11.480
82382W        W54642  44.229  14.099  13.030
82383W        W54643  43.278  29.689   4.800
82384W        W54644  38.477  10.263   9.815
82385W        W54645  27.438  34.628   0.859
82386W        W54646   2.422   6.884  10.554
82387W        W54647   0.563  43.891  11.195
82388W        W54648  36.919  30.429   4.732
82389W        W54649  28.381  10.204   3.975
82390W        W54650   5.477  25.248  10.145
82391W        W54651  22.129  12.372   4.576
82392W        W54652   3.927  35.659   1.215
82393W        W54653   4.350   5.211   3.583
82394W        W54654  16.112  10.777   0.487
82395W        W54655  32.599  14.454   3.989
82396W        W54656   9.278  26.345   2.191
82397W        W54657   9.454   9.722   4.705
82398W        W54658  38.385  29.042   4.300
82399W        W54659  15.874  13.225   4.909
82400W        W54660  10.635  11.403  11.635
82401W        W54661  11.641  24.912  14.951
82402W        W54662  35.550  12.371   3.190
82403W        W54663  23.252  18.278   0.878
82404W        W54664   8.693  22.631   2.803
82405W        W54665  33.944  19.107   4.679
82406W        W54666   1.727  15.199  14.992
82407W        W54667  42.661  27.760  13.895
82408W        W54668  10.010   1.592  10.171
82409W        W54669   6.471   5.508  10.631
82410W        W54670  11.826  24.961  11.793
82411W        W54671  41.325  27.899   3.390
82412W        W54672  23.542  38.113  11.667
82413W        W54673  40.528  34.762  11.467
82414W        W54674  41.091  38.071   1.294
82415W        W54675  19.594  43.114   0.567
82416W        W54676  19.092  29.101  13.122
82417W        W54677   9.213  17.176   2.330
82418W        W54678  41.274   7.252   0.285
82419W        W54679  37.317   8.794   3.353
82420W        W54680  43.886  17.822   0.500
82421W        W54681  39.994   6.793  14.971
82422W        W54682  30.381  43.028   2.246
82423W        W54683  31.931   1.464   2.821
82424W        W54684  41.909   6.597   1.288
82425W        W54685  41.472  43.243  14.246
82426W        W54686  23.054   0.930   2.765
82427W        W54687  43.115   8.428  14.919
82428W        W54688  43.536  20.120   3.822
82429W        W54689   1.938  41.938   1.257
82430W        W54690  26.195  25.076  11.672
82431W        W54691  16.098  26.558   3.911
82432W        W54692  44.247  13.231  12.014
82433W        W54693  14.327  15.743  14.241
82434W        W54694  30.245  40.403  10.771
82435W        W54695  14.162  22.677   1.737
82436W        W54696   0.417  14.765   0.987
82437W        W54697  33.523  23.515   0.540
82438W        W54698  22.085  12.840  11.446
82439W        W54699  15.736  34.235  12.881
82440W        W54700  23.027   1.177   2.269
82441W        W54701  31.865  38.557  13.514
82442W        W54702  34.329  33.512  11.070
82443W        W54703   6.638   8.852   0.810
82444W        W54704  28.815  33.959  14.197
82445W        W54705  35.500  21.433  10.624
82446W        W54706  31.482  16.810   1.753
82447W        W54707  13.217  25.029   2.424
82448W        W54708  29.454  20.212  12.427
82449W        W54709  40.483  29.107  11.717
82450W        W54710  24.193  15.531   4.929
82451W        W54711  21.059  35.496  14.983
82452W        W54712  43.430   1.008  10.049
82453W        W54713  18.983  11.284  14.220
82454W        W54714  29.489  12.567   2.682
82455W        W54715  17.718  39.273   1.678
82456W        W54716   5.881   9.271  14.421
82457W        W54717   6.000  30.371   2.370
82458W        W54718   4.322  23.132  11.633
82459W        W54719  37.562  16.855  10.758
82460W        W54720  11.741  40.639   3.695
82461W        W54721  35.892  12.397   3.636
82462W        W54722   1.515   6.671   3.674
82463W        W54723  11.136  22.990  11.120
82464W        W54724  37.837  33.457   2.669
82465W        W54725   1.908  34.789  11.118
82466W        W54726  15.167  28.269   1.950
82467W        W54727  43.533  43.177  11.267
82468W        W54728  34.301   7.404  13.179
82469W        W54729   9.259  13.364   0.071
82470W        W54730  19.493   3.284  14.881
82471W        W54731  24.109  14.045  12.540
82472W        W54732  32.623  36.864   0.330
82473W        W54733  42.334  41.895   1.749
82474W        W54734  28.524  35.009  10.163
82475W        W54735   4.350  34.818  11.566
82476W        W54736  17.587  37.392   3.097
82477W        W54737  25.135  42.248   4.689
82478W        W54738  24.790  23.466   2.743
82479W        W54739  36.540  28.611   0.391
82480W        W54740  13.807  12.362  13.488
82481W        W54741  12.851  22.105  13.799
82482W        W54742  36.258  17.033  14.829
82483W        W54743  27.124  41.613   2.375
82484W        W54744  36.816  44.245   1.917
82485W        W54745  13.712  10.742   2.946
82486W        W54746  40.099  38.515  12.461
82487W        W54747  43.387  17.047  12.455
82488W        W54748  35.935  19.731   3.269
82489W        W54749   8.077  19.339   0.501
82490W        W54750  37.445  33.279   3.567
82491W        W54751  36.446  18.760   4.220
82492W        W54752  33.425  13.588   1.727
82493W        W54753  39.977   9.186   1.270
82494W        W54754   1.930  29.140  10.716
82495W        W54755  17.284  16.330  12.573
82496W        W54756  22.677   8.264   4.212
82497W        W54757  24.635  13.730  11.656
82498W        W54758  43.963   4.845   9.936
82499W        W54759  42.860  42.312  12.555
82500W        W54760  14.806  33.941  12.042
82501W        W54761  37.603  37.882  14.937
82502W        W54762  34.938  42.519   2.380
82503W        W54763  31.399   0.807   4.687
82504W        W54764  44.375  16.782   1.434
82505W        W54765  13.878   0.169  11.031
82506W        W54766  21.805  15.284   1.932
82507W        W54767  41.810   0.059   4.193
82508W        W54768  38.233  18.230   1.056
82509W        W54769   2.586  16.386  13.291
82510W        W54770  31.201  12.702  11.038
82511W        W54771  39.364  15.558   2.795
82512W        W54772  36.428  34.215  10.478
82513W        W54773   4.120  30.090  13.326
82514W        W54774  15.712  28.855  13.550
82515W        W54775  38.556   5.742   2.728
82516W        W54776  44.398  22.561  13.334
82517W        W54777  29.989  44.921  11.027
82518W        W54778  15.852  15.834  11.616
82519W        W54779  13.609  26.199  14.812
82520W        W54780  12.861  37.005  10.579
82521W        W54781  17.732  12.425   0.205
82522W        W54782  31.199  34.579   2.340
82523W        W54783  21.949  40.034   1.317
82524W        W54784  23.928  32.410   2.732
82525W        W54785  33.322   5.921   2.339
82526W        W54786  12.385  26.520   2.877
82527W        W54787  18.663   8.642  12.197
82528W        W54788  26.495  38.803  12.839
82529W        W54789  28.562   0.925   3.638
82530W        W54790  34.395  36.487  10.761
82531W        W54791   1.741  36.672   2.760
82532W        W54792   7.960  16.844  14.859
82533W        W54793  22.395  41.790   1.295
82534W        W54794  36.474   1.856  14.472
82535W        W54795  11.386  31.425   3.406
82536W        W54796  20.268  21.749   2.157
82537W        W54797   3.811  19.215   3.226
82538W        W54798  39.455  17.131  14.864
82539W        W54799  36.126  41.766  10.542
82540W        W54800  33.845   9.299  12.476
82541W        W54801  44.808   1.823  14.187
82542W        W54802   8.564   4.322  12.968
82543W        W54803  41.885  21.245  10.965
82544W        W54804  17.323   2.580  11.099
82545W        W54805  13.498  23.087  11.123
82546W        W54806  34.950  20.444  12.501
82547W        W54807   1.633   7.634  14.110
82548W        W54808  16.398  36.041   1.487
82549W        W54809  28.518   7.861   3.744
82550W        W54810   9.918  41.573   2.176
82551W        W54811  22.478  32.410  13.074
82552W        W54812  11.483  30.060   9.800
82553W        W54813  26.148  44.011   1.924
82554W        W54814  13.798  31.253   4.447
82555W        W54815  13.778  29.958   2.877
82556W        W54816  43.402   1.184   0.953
82557W        W54817   4.724   1.072  14.419
82558W        W54818  15.489  17.044   3.152
82559W        W54819   0.542  21.734  12.092
82560W        W54820  23.243  21.479   2.292
82561W        W54821  29.111  16.580   2.038
82562W        W54822  11.625  43.414  10.688
82563W        W54823  21.549  21.597  12.053
82564W        W54824   7.654  43.854   1.712
82565W        W54825   3.231  32.038  12.421
82566W        W54826  24.447  36.503   1.649
82567W        W54827  41.027  42.961  14.985
82568W        W54828  16.608  43.527   1.980
82569W        W54829  11.222  29.416   4.121
82570W        W54830  32.611  16.277   2.365
82571W        W54831   5.163  44.422   4.188
82572W        W54832  28.356  12.190   0.813
82573W        W54833  34.463   0.596   4.517
82574W        W54834  42.860  26.486  14.335
82575W        W54835  32.908  22.205  12.120
82576W        W54836  30.199  24.657   2.356
82577W        W54837  36.976  12.157   1.847
82578W        W54838  20.819  23.034  11.179
82579W        W54839  14.220  39.374  12.510
82580W        W54840   4.676  33.600   4.261
82581W        W54841   3.767  25.020   3.176
82582W        W54842   8.749  25.861   2.783
82583W        W54843  19.571  38.774   0.304
82584W        W54844  14.059   4.874   5.268
82585W        W54845  21.076  37.774   2.697
82586W        W54846   9.684  41.808  13.782
82587W        W54847  11.135  20.738  10.451
82588W        W54848  16.631   1.823   2.262
82589W        W54849  38.444  10.003  13.955
82590W        W54850  36.478  43.976  12.417
82591W        W54851  39.973  23.176   1.055
82592W        W54852  22.956  24.040   0.378
82593W        W54853  14.422   0.244   3.884
82594W        W54854  24.408  15.737  12.468
82595W        W54855  15.056  19.243   1.462
82596W        W54856  28.147  16.182   1.800
82597W        W54857  10.110  40.504  12.492
82598W        W54858  22.601  34.116   3.195
82599W        W54859  10.605  25.741   4.071
82600W        W54860  41.560  23.210  11.252
82601W        W54861  23.979  44.439  14.191
82602W        W54862  13.087  28.675  11.988
82603W        W54863  28.186  15.901   4.593
82604W        W54864  25.104  20.920   3.203
82605W        W54865  34.956  23.378  12.418
82606W        W54866  39.240  34.569  11.525
82607W        W54867  32.400   4.356   2.288
82608W        W54868  19.929   3.753  10.401
82609W        W54869  12.859  22.605   1.295
82610W        W54870  24.109  11.933   2.652
82611W        W54871   2.450  39.312  13.577
82612W        W54872  31.754  30.893  13.382
82613W        W54873   7.956  39.056   0.912
82614W        W54874  12.378  13.077  13.923
82615W        W54875  33.130  27.115   1.228
82616W        W54876  21.748   3.169   4.929
82617W        W54877  32.632  41.135  13.764
82618W        W54878  39.487  15.351   1.782
82619W        W54879  33.018  44.652   0.821
82620W        W54880  25.440  41.617  10.652
82621W        W54881   5.500   4.402   3.296
82622W        W54882  33.074  16.832   4.603
82623W        W54883   8.307  40.433  13.055
82624W        W54884   8.433  16.167  12.901
82625W        W54885  16.340   5.431   2.687
82626W        W54886  17.903  36.619  14.743
82627W        W54887  24.367   7.206  11.529
82628W        W54888  29.616  38.700  12.038
82629W        W54889  35.058  24.499   2.634
82630W        W54890  18.763  37.319   2.772
82631W        W54891  23.961  11.311  10.733
82632W        W54892  11.501   2.777  13.041
82633W        W54893   7.213  44.772  10.428
82634W        W54894  19.588  38.522  13.066
82635W        W54895  10.979  15.169  14.620
82636W        W54896  13.801  19.254  14.067
82637W        W54897  24.130   8.834   4.806
82638W        W54898  39.602   3.413   3.243
82639W        W54899  38.144  31.792   4.088
82640W        W54900  34.888   3.725   4.384
82641W        W54901  15.622  29.564   4.706
82642W        W54902  37.859  22.685   4.348
82643W        W54903  28.670  42.017   2.884
82644W        W54904  39.805  23.259   3.690
82645W        W54905  38.268  26.991  13.506
82646W        W54906  13.477   2.882  13.034
82647W        W54907  42.382  43.114   4.138
82648W        W54908  11.867  33.111   2.646
82649W        W54909   1.984   5.782   1.268
82650W        W54910   3.759   2.261  12.017
82651W        W54911  32.695  36.535  13.369
82652W        W54912   6.407   6.937  14.484
82653W        W54913  38.198  35.125   2.381
82654W        W54914   5.228   4.781   3.598
82655W        W54915  41.219  18.369  13.357
82656W        W54916   7.163  27.667  11.921
82657W        W54917  40.508   7.433  11.332
82658W        W54918   8.655  15.211   3.614
82659W        W54919   4.322  11.173  13.844
82660W        W54920  20.223   9.956   3.250
82661W        W54921  34.795  25.456   3.588
82662W        W54922   8.112  28.161   1.022
82663W        W54923  14.263  16.383  14.767
82664W        W54924  34.130  30.504  11.996
82665W        W54925  23.544  10.469  11.460
82666W        W54926  16.770   5.029   3.246
82667W        W54927  34.884  25.101  14.517
82668W        W54928  27.410   5.358   3.775
82669W        W54929  28.042  22.178  14.772
82670W        W54930  38.584  20.670  13.438
82671W        W54931  33.725  40.521  11.123
82672W        W54932  25.169  14.691   0.022
82673W        W54933  32.508  41.352  13.313
82674W        W54934  32.600  17.498  14.922
82675W        W54935  28.092  15.700  10.945
82676W        W54936   0.035   2.705  12.483
82677W        W54937  24.431  10.522  11.959
82678W        W54938  30.515  37.320  11.938
82679W        W54939  11.120  20.992  14.188
82680W        W54940  16.319   4.430  12.500
82681W        W54941   7.751  11.410   0.752
82682W        W54942  42.558  14.554  12.492
82683W        W54943   7.954  33.212  12.429
82684W        W54944   3.267  34.360  14.323
82685W        W54945  23.682   1.713   4.440
82686W        W54946   6.207  42.710   0.771
82687W        W54947   4.323   1.776  10.932
82688W        W54948  25.024  37.875   4.064
82689W        W54949  30.848   5.003  13.862
82690W        W54950  18.543   0.751  10.823
82691W        W54951  39.970   9.678   1.583
82692W        W54952  40.611  30.045   3.505
82693W        W54953  40.339  43.008   3.247
82694W        W54954   9.911  17.742   1.852
82695W        W54955  23.125  18.344   4.428
82696W        W54956  41.512  27.425  11.080
82697W        W54957  23.983   7.426   2.391
82698W        W54958  32.891  11.592   2.647
82699W        W54959  42.417   0.696  13.178
82700W        W54960  17.207   9.127   0.661
82701W        W54961   9.197  44.937   3.712
82702W        W54962   5.916  19.613  14.936
82703W        W54963  38.727  38.784   3.410
82704W        W54964  18.662  38.347  10.576
82705W        W54965  11.180  40.485  14.303
82706W        W54966  33.353  26.598   3.654
82707W        W54967  35.078  37.576   1.421
82708W        W54968  11.909  26.570   0.292
82709W        W54969  41.365  13.188   1.002
82710W        W54970   6.621  16.804  14.424
82711W        W54971  44.030  12.436  13.381
82712W        W54972  21.115  13.393  13.301
82713W        W54973  26.560  19.247  11.388
82714W        W54974  39.417  29.489   0.236
82715W        W54975  13.834  13.208   1.714
82716W        W54976  38.593  38.044   0.827
82717W        W54977  26.584  11.589  12.037
82718W        W54978  32.097  36.368   1.895
82719W        W54979  20.106   6.870   1.331
82720W        W54980  38.888  26.004  12.365
82721W        W54981   7.613  17.790   2.551
82722W        W54982  39.629  37.501  14.399
82723W        W54983  36.203  40.562   0.202
82724W        W54984  22.140   6.701   1.317
82725W        W54985  34.054  20.714   0.349
82726W        W54986  37.520  20.222   4.659
82727W        W54987  26.010  25.750   2.802
82728W        W54988  20.129   8.615  11.965
82729W        W54989  29.640  12.675  14.502
82730W        W54990  19.142  38.057   1.945
82731W        W54991  18.045   0.487   1.735
82732W        W54992  34.152   8.297   0.523
82733W        W54993  16.751  31.978   0.775
82734W        W54994  29.414   6.742  10.754
82735W        W54995  38.136  24.974   2.770
82736W        W54996  41.874  31.748   4.190
82737W        W54997   2.710  35.543   4.650
82738W        W54998  11.859  33.136   1.827
82739W        W54999   4.745  24.707   3.218
82740W        W55000  29.092   9.136   3.335
82741W        W55001   2.947  29.993  12.586
82742W        W55002  44.983   0.817  11.403
82743W        W55003  20.103  40.263   1.752
82744W        W55004   7.540   1.761   4.102
82745W        W55005   2.967  25.948  11.974
82746W        W55006  20.136  20.274   0.869
82747W        W55007  40.890   6.859   1.982
82748W        W55008  17.158   8.909  11.470
82749W        W55009  38.920  30.996  12.126
82750W        W55010  27.989  10.358  13.933
82751W        W55011  18.966  32.385   4.110
82752W        W55012  44.623  30.444   9.909
82753W        W55013   6.490   0.961   1.385
82754W        W55014  37.941  43.962  14.519
82755W        W55015  37.017   4.201   2.929
82756W        W55016  23.671  14.493   2.734
82757W        W55017  37.615  36.984  14.855
82758W        W55018  28.869  17.573  14.863
82759W        W55019  32.605  28.484  10.554
82760W        W55020  31.401  20.475  12.437
82761W        W55021  24.684   7.125   0.332
82762W        W55022  41.018  34.989  12.959
82763W        W55023  38.216  20.889  10.546
82764W        W55024  16.650  14.867   1.193
82765W        W55025  37.862  17.277  12.171
82766W        W55026  17.139  26.728   0.008
82767W        W55027  33.886  23.342   3.294
82768W        W55028  25.231  16.213  14.342
82769W        W55029   8.603   3.778  13.408
82770W        W55030  10.707  15.078  14.144
82771W        W55031  38.430  44.996   3.940
82772W        W55032  44.347  33.610  10.682
82773W        W55033  43.596  15.113  11.148
82774W        W55034  26.930  12.944  13.677
82775W        W55035   9.782  43.126   2.900
82776W        W55036   9.734  18.042  12.093
82777W        W55037  24.779  27.525  13.495
82778W        W55038  10.913  30.066  14.184
82779W        W55039  16.917  23.113  14.418
82780W        W55040  30.937  22.092  11.258
82781W        W55041  26.927  36.512  12.964
82782W        W55042  13.808  13.667   3.906
82783W        W55043  20.551   4.190   3.162
82784W        W55044  34.870  24.585   3.860
82785W        W55045  23.136  27.646   4.881
82786W        W55046  44.930   2.156   0.708
82787W        W55047  15.280   9.805   1.765
82788W        W55048  11.154  34.870  13.464
82789W        W55049  29.908   9.901  14.908
82790W        W55050  18.108  22.667  14.992
82791W        W55051  17.171  33.661   3.238
82792W        W55052   2.514  44.935   0.915
82793W        W55053   6.982  17.145  13.041
82794W        W55054  16.728   6.039  12.446
82795W        W55055  31.389  18.223  14.928
82796W        W55056  23.690  34.114  14.724
82797W        W55057  41.934   0.482   1.722
82798W        W55058  23.148  17.279   4.921
82799W        W55059  31.632  32.143   2.424
82800W        W55060  38.753   0.198   2.009
82801W        W55061   0.474  17.735  13.349
82802W        W55062  39.808  17.746  11.152
82803W        W55063  29.091  36.102   4.010
82804W        W55064  40.487  16.958   2.895
82805W        W55065   9.112  14.142   4.030
82806W        W55066  38.348  26.098   4.255
82807W        W55067  22.040  11.065   4.066
82808W        W55068   0.449   8.619   3.335
82809W        W55069  25.157  24.940   3.698
82810W        W55070   6.657   3.265  12.329
82811W        W55071  32.818  41.329  12.197
82812W        W55072   4.629   7.912  13.037
82813W        W55073  40.581  18.748   4.186
82814W        W55074  22.281  41.451  11.076
82815W        W55075  41.351  35.939   0.720
82816W        W55076  42.733   6.697  14.299
82817W        W55077  42.087   2.291   2.202
82818W        W55078  12.588  35.409   0.436
82819W        W55079  43.986  15.379  10.846
82820W        W55080   7.598  26.590   9.806
82821W        W55081  20.110  38.258   1.772
82822W        W55082  32.480  10.602   2.400
82823W        W55083  28.495  23.751  12.400
82824W        W55084  34.054   7.415   0.006
82825W        W55085   4.663  38.308  12.868
82826W        W55086  34.436  29.451  11.210
82827W        W55087  15.802  24.056   0.178
82828W        W55088  43.851  20.360   4.145
82829W        W55089   5.316  28.658   0.348
82830W        W55090  40.695  20.114  11.671
82831W        W55091  32.623  11.400  12.080
82832W        W55092  41.521  23.068   0.897
82833W        W55093  18.237  40.087   4.557
82834W        W55094  10.845   1.749  14.772
82835W        W55095  23.584  28.579  11.478
82836W        W55096   1.522  26.041  11.495
82837W        W55097  11.072  29.316   0.884
82838W        W55098  15.720   8.868   4.022
82839W        W55099  40.802   9.826   0.289
82840W        W55100  17.340  11.595  13.245
82841W        W55101   5.703   0.729   0.305
82842W        W55102  28.128  23.058   3.954
82843W        W55103  17.175  40.345  14.729
82844W        W55104  41.917  26.079   2.281
82845W        W55105   0.319  38.450   4.464
82846W        W55106  37.795  44.332   0.925
82847W        W55107  14.135  42.285  11.379
82848W        W55108   8.837  17.770   3.779
82849W        W55109  15.974  21.892   2.656
82850W        W55110   0.805  13.750   4.793
82851W        W55111  44.756   3.606   1.803
82852W        W55112  41.063  23.623   0.447
82853W        W55113  31.053  19.544   4.283
82854W        W55114   5.807  35.127   2.285
82855W        W55115  29.254  28.139  13.284
82856W        W55116   4.672   2.811  11.644
82857W        W55117  28.515  44.021  14.866
82858W        W55118  36.602  15.161   3.670
82859W        W55119   6.373  21.202  13.971
82860W        W55120  40.885  18.237   0.371
82861W        W55121  40.836  19.190   4.129
82862W        W55122  20.556  26.567  13.601
82863W        W55123  13.686  33.473  14.303
82864W        W55124  22.673  20.583   4.605
82865W        W55125  28.415  10.590   2.758
82866W        W55126  41.878  17.316   4.959
82867W        W55127  34.577  42.057  12.463
82868W        W55128   1.022  16.290  12.018
82869W        W55129  22.319  20.003   4.845
82870W        W55130  38.590  40.053   0.840
82871W        W55131  35.383  18.141   2.722
82872W        W55132  14.647   6.599  13.989
82873W        W55133  36.858  43.951  12.061
82874W        W55134  26.124  42.495   0.471
82875W        W55135  29.824   5.703   1.812
82876W        W55136   4.667  43.960  14.511
82877W        W55137  38.877   1.627  14.862
82878W        W55138  27.808  18.129  11.606
82879W        W55139  12.193  15.113   0.080
82880W        W55140   5.479  22.292  13.700
82881W        W55141  30.563  15.299  13.786
82882W        W55142  10.148  18.238  12.997
82883W        W55143   5.196  31.618  13.014
82884W        W55144  30.600  40.597   1.719
82885W        W55145  34.655   5.888  14.793
82886W        W55146  12.686   4.587   1.696
82887W        W55147   8.857   9.957  10.350
82888W        W55148   1.182  17.846  11.593
82889W        W55149   8.856  14.039  11.556
82890W        W55150  41.520  36.907   4.352
82891W        W55151  19.784  13.218   1.794
82892W        W55152  28.736  14.193  14.558
82893W        W55153  21.979  41.785  10.750
82894W        W55154  32.589  23.025  13.544
82895W        W55155  29.561  23.751   2.307
82896W        W55156  18.619  15.952  12.534
82897W        W55157  44.395   7.606   3.228
82898W        W55158  28.615  36.840   1.414
82899W        W55159  11.094  28.525  11.994
82900W        W55160  27.950  35.282  11.453
82901W        W55161   1.323  18.530   1.666
82902W        W55162  43.261   9.055   4.535
82903W        W55163   6.425   8.852  12.955
82904W        W55164  11.345  42.432  12.059
82905W        W55165  13.682  18.226  11.493
82906W        W55166  40.077   5.652  13.516
82907W        W55167  24.222  24.633  11.144
82908W        W55168  35.060  38.503   4.196
82909W        W55169  20.268   6.692  11.159
82910W        W55170   4.873  17.331  14.521
82911W        W55171   1.175  33.825  12.633
82912W        W55172  11.175  22.534   2.780
82913W        W55173  23.493   3.533   0.724
82914W        W55174   5.656  25.566   3.642
82915W        W55175  10.799   4.948   3.753
82916W        W55176  24.000  13.098  11.114
82917W        W55177  44.107  35.735   3.311
82918W        W55178  42.265  41.571  13.530
82919W        W55179  15.380  23.646  13.891
82920W        W55180  19.976  12.653  11.923
82921W        W55181  26.040  42.643  14.971
82922W        W55182   8.923   4.177   1.185
82923W        W55183   3.135  12.652  10.764
82924W        W55184   4.024  26.155   1.523
82925W        W55185  21.854  12.380   4.025
82926W        W55186  39.863  10.335   2.797
82927W        W55187  42.869   1.883   3.921
82928W        W55188  30.000  37.598   3.622
82929W        W55189  10.977  21.760  12.101
82930W        W55190  20.357  31.664  11.707
82931W        W55191   4.966   2.809  14.443
82932W        W55192   5.698  19.028  12.865
82933W        W55193  37.444  44.909   4.843
82934W        W55194  17.133   1.982  10.628
82935W        W55195  39.102   6.583   4.727
82936W        W55196  26.736   1.537   3.677
82937W        W55197  14.214  20.158  12.358
82938W        W55198  40.836  38.555  11.985
82939W        W55199  34.014  41.866  14.028
82940W        W55200  28.768  27.648   1.637
82941W        W55201   7.704  11.251   1.637
82942W        W55202  16.067   1.028   1.881
82943W        W55203  28.396  44.934   0.854
82944W        W55204   1.216  27.364  12.451
82945W        W55205  22.677   4.348   2.407
82946W        W55206  36.958  36.588  13.650
82947W        W55207  30.115   7.188  11.105
82948W        W55208  11.374  16.689   0.398
82949W        W55209  44.040   3.810   3.898
82950W        W55210  13.912  41.538  11.901
82951W        W55211  27.863  39.973   2.951
82952W        W55212  42.858   4.321   0.146
82953W        W55213  44.749   1.221   4.674
82954W        W55214  22.662  17.817   1.254
82955W        W55215   3.775   1.440  14.085
82956W        W55216  12.897  38.299  11.082
82957W        W55217  14.216  43.999  11.502
82958W        W55218  33.846  17.780   1.174
82959W        W55219  43.446  38.401   3.800
82960W        W55220  25.632  21.857  12.605
82961W        W55221  23.737  16.143   2.627
82962W        W55222   9.753  33.898  12.753
82963W        W55223   0.744  36.884   4.233
82964W        W55224  22.828  12.163  13.956
82965W        W55225   2.801  27.167  13.933
82966W        W55226  24.409  16.272   1.668
82967W        W55227  24.986  19.796  14.450
82968W        W55228  20.614   1.973  14.550
82969W        W55229  23.303   9.488  10.642
82970W        W55230  10.473  29.897  12.931
82971W        W55231  23.121  10.225  14.980
82972W        W55232   0.418  11.292   4.352
82973W        W55233  41.715  17.814   5.038
82974W        W55234  22.235   7.192  12.499
82975W        W55235   4.794   5.929  13.944
82976W        W55236  15.345  17.837   0.800
82977W        W55237  18.854  27.057   1.166
82978W        W55238  17.062   9.185  13.011
82979W        W55239   1.535   9.738   1.458
82980W        W55240   6.159  20.295  10.626
82981W        W55241  33.654  35.869   3.206
82982W        W55242  11.869  34.002   0.793
82983W        W55243  31.383  36.921  12.544
82984W        W55244   2.034  23.982   3.310
82985W        W55245  26.595   5.201   0.033
82986W        W55246  39.490   2.818  14.782
82987W        W55247  18.596  19.097  11.099
82988W        W55248  39.611  42.910  14.927
82989W        W55249   7.160  23.031  12.492
82990W        W55250  35.927  15.318  11.607
82991W        W55251  18.757   0.903   0.449
82992W        W55252  15.839  26.065   0.807
82993W        W55253   0.313  43.507  12.833
82994W        W55254  27.171   2.756  13.069
82995W        W55255   7.153  29.104   3.923
82996W        W55256  34.634   3.651  14.314
82997W        W55257   8.258  32.209   4.645
82998W        W55258  42.795  24.544   2.957
82999W        W55259  43.748  40.231   4.639
83000W        W55260  13.536   2.471  14.437
83001W        W55261  33.600  18.769  11.049
83002W        W55262  39.486  34.625   1.094
83003W        W55263  20.795  41.454  10.678
83004W        W55264  26.169   1.077   1.755
83005W        W55265  32.397  25.531   0.850
83006W        W55266   7.732  24.981  10.069
83007W        W55267   9.164   7.316   1.215
83008W        W55268  30.598   1.136  10.643
83009W        W55269  24.215   5.613   0.702
83010W        W55270  37.588   3.744   4.774
83011W        W55271   9.391   1.666  11.145
83012W        W55272  30.561  33.156   4.616
83013W        W55273  40.845  23.230  10.759
83014W        W55274  28.306  30.948  10.795
83015W        W55275  33.841  28.984  13.906
83016W        W55276  38.393  25.691   4.609
83017W        W55277   2.194  34.997   2.844
83018W        W55278   3.341   7.193   1.051
83019W        W55279   2.508  11.943   1.882
83020W        W55280   2.378  38.379  12.438
83021W        W55281   2.859  21.359  14.726
83022W        W55282  29.096  38.925  11.926
83023W        W55283  44.789  34.950  13.024
83024W        W55284  40.759  17.655   1.694
83025W        W55285  33.924  20.579   0.914
83026W        W55286  34.037  14.540  12.631
83027W        W55287  14.604   1.356  11.591
83028W        W55288   6.663   7.396   4.145
83029W        W55289  30.037  15.694  12.260
83030W        W55290  33.368  28.071   4.633
83031W        W55291  44.950   1.841   3.559
83032W        W55292  38.152  20.733   0.873
83033W        W55293   6.643  22.993  11.321
83034W        W55294   5.086  19.910   4.905
83035W        W55295  26.212  38.889  11.394
83036W        W55296  14.446  28.458  10.595
83037W        W55297  24.108  21.109   0.697
83038W        W55298  36.765   8.237  11.140
83039W        W55299  17.537  25.190   0.884
83040W        W55300  27.204  17.901   4.248
83041W        W55301  22.776  37.115   0.474
83042W        W55302  43.458  33.202  14.864
83043W        W55303  34.036   3.156   2.250
83044W        W55304  41.970   7.770  11.603
83045W        W55305  30.595  22.667   0.240
83046W        W55306  15.163  37.058  11.906
83047W        W55307   4.394  17.854  14.907
83048W        W55308  24.619   3.858   0.083
83049W        W55309  41.036  34.961   0.761
83050W        W55310  43.258  13.656  13.745
83051W        W55311  22.465   3.044  14.998
83052W        W55312  29.075   8.612   0.397
83053W        W55313   3.460  39.279  12.051
83054W        W55314  21.430  27.969  13.251
83055W        W55315  18.975  39.301  12.492
83056W        W55316   0.239  23.701  10.984
83057W        W55317  34.589   0.491  14.884
83058W        W55318   2.220  17.655   1.325
83059W        W55319   7.424   2.240   4.858
83060W        W55320  26.701  14.674  13.638
83061W        W55321  14.653  24.075   4.421
83062W        W55322  28.549  35.491  14.821
83063W        W55323  33.673   1.640  12.890
83064W        W55324  42.262   9.925  10.312
83065W        W55325  32.800  22.533   2.845
83066W        W55326  23.152  25.235  11.649
83067W        W55327  26.395  43.498   4.111
83068W        W55328  43.770   7.351   1.874
83069W        W55329   9.120  12.274  12.906
83070W        W55330  39.550   5.729   4.627
83071W        W55331  40.958  27.672   0.393
83072W        W55332  41.465  44.437  10.644
83073W        W55333  32.262  41.498  13.772
83074W        W55334   1.707   5.795   3.154
83075W        W55335  33.812   7.477  14.556
83076W        W55336   4.886  41.075   1.655
83077W        W55337  39.132  15.137  12.952
83078W        W55338  37.945   0.681   3.841
83079W        W55339  15.504  17.544  12.850
83080W        W55340  24.130  44.876   0.987
83081W        W55341  38.820  34.326  14.936
83082W        W55342  12.757  42.882   4.703
83083W        W55343  44.269  30.412  10.883
83084W        W55344  28.131  22.482   3.440
83085W        W55345  20.528   7.351  12.058
83086W        W55346  33.496  34.870  10.721
83087W        W55347  15.201  39.367   0.103
83088W        W55348   2.991  31.381  13.569
83089W        W55349   3.214  19.012  10.608
83090W        W55350   8.226  40.134   3.643
83091W        W55351   3.169   9.875   1.925
83092W        W55352  31.186   6.847  14.363
83093W        W55353  35.879  16.775   0.543
83094W        W55354  17.868   7.542  10.186
83095W        W55355  19.091  37.521  11.239
83096W        W55356  30.365  42.613  13.823
83097W        W55357  30.603  33.974  10.781
83098W        W55358  41.088  16.600  14.406
83099W        W55359  30.657  28.603  12.629
83100W        W55360  29.499   0.518   3.671
83101W        W55361  11.736  20.776   2.422
83102W        W55362  14.089   1.842  11.945
83103W        W55363   7.075  38.106   3.536
83104W        W55364  23.305  18.790   4.663
83105W        W55365  39.285  40.368   2.617
83106W        W55366  44.594   8.729   1.496
83107W        W55367  43.911  34.182   2.223
83108W        W55368   2.041  33.063   2.194
83109W        W55369  26.235  29.078  11.567
83110W        W55370  32.535  28.791   4.133
83111W        W55371   0.367   4.398   4.868
83112W        W55372   8.859  43.330   4.599
83113W        W55373  14.869  39.022   1.508
83114W        W55374   9.469  16.305  12.737
83115W        W55375   1.346  28.249   3.703
83116W        W55376  36.977   5.745  13.990
83117W        W55377  14.181  30.333  10.740
83118W        W55378  16.341  27.586  13.930
83119W        W55379  13.519  20.943   2.496
83120W        W55380   5.149  38.404   0.688
83121W        W55381  30.496  12.289   4.123
83122W        W55382  43.673  42.004  12.863
83123W        W55383  24.722   1.834  13.395
83124W        W55384  43.979  33.150   0.407
83125W        W55385  10.733  23.659  14.342
83126W        W55386  42.285  22.327  13.951
83127W        W55387  17.485  21.572   0.374
83128W        W55388  42.842  32.241   5.158
83129W        W55389  36.894  25.486   1.738
83130W        W55390  17.757  40.756  13.937
83131W        W55391  16.646  43.143   4.201
83132W        W55392   1.923  26.242   0.524
83133W        W55393   7.319  21.482  14.840
83134W        W55394  31.512  24.282   4.013
83135W        W55395  26.172   5.306   3.265
83136W        W55396  22.460   1.171   2.244
83137W        W55397   9.233  26.023  12.095
83138W        W55398  16.759  33.133  12.467
83139W        W55399  43.749  30.408  11.086
83140W        W55400  25.824  15.740  10.767
83141W        W55401  23.637  29.628   1.021
83142W        W55402   4.380   2.834   1.943
83143W        W55403  11.530  12.803   4.781
83144W        W55404  24.771  42.812  12.824
83145W        W55405   2.221  21.528  14.754
83146W        W55406  22.153  31.500  11.138
83147W        W55407  20.545  20.492   3.781
83148W        W55408  28.712  10.424  14.392
83149W        W55409  26.159  29.459  12.094
83150W        W55410  18.944   8.321  12.479
83151W        W55411  23.657  30.435  14.602
83152W        W55412  22.435   7.561   0.645
83153W        W55413  34.567  26.777   1.846
83154W        W55414   1.572  42.254  13.836
83155W        W55415  15.706  42.065   0.790
83156W        W55416  15.009   3.275  12.493
83157W        W55417  26.370  38.930  10.614
83158W        W55418  33.108   0.906   4.068
83159W        W55419  16.153  13.578  12.455
83160W        W55420  17.576   8.377  14.033
83161W        W55421  26.604  13.549   0.073
83162W        W55422  29.112  36.134   2.193
83163W        W55423  15.412  19.664  10.834
83164W        W55424  29.725   1.014   4.946
83165W        W55425  19.038   8.542   5.113
83166W        W55426  33.473  12.644  13.568
83167W        W55427  40.265   5.426  13.090
83168W        W55428  38.339  40.402  11.988
83169W        W55429   9.848  42.290  11.125
83170W        W55430  30.128  17.226   4.530
83171W        W55431  37.593  18.611  11.606
83172W        W55432  44.816  14.376  14.309
83173W        W55433  29.705   3.189   0.872
83174W        W55434  10.763  42.724  13.145
83175W        W55435  23.292  16.769   4.234
83176W        W55436  37.079  32.011   1.237
83177W        W55437   9.650   0.218  12.835
83178W        W55438   9.491  39.863   1.769
83179W        W55439  16.692  22.832  13.359
83180W        W55440  23.281  22.243   2.703
83181W        W55441  14.367  40.884  11.176
83182W        W55442   7.182  34.145  14.051
83183W        W55443   1.050  26.161   1.704
83184W        W55444  44.435  40.002   5.014
83185W        W55445  34.550   9.885   1.582
83186W        W55446  43.320  11.612   2.878
83187W        W55447  20.803   7.374   4.679
83188W        W55448  12.215  18.962   2.408
83189W        W55449   8.777  10.275  11.211
83190W        W55450  37.090  42.023   5.059
83191W        W55451  12.765  22.163  10.959
83192W        W55452   9.914   9.195   0.708
83193W        W55453  44.725  29.712   0.711
83194W        W55454   1.368  30.549   0.780
83195W        W55455   9.472  30.462   2.449
83196W        W55456  29.964  21.734  13.415
83197W        W55457  36.245  23.997  13.332
83198W        W55458  35.853  29.925  11.890
83199W        W55459  31.339   6.507  11.582
83200W        W55460   0.448  29.403   0.912
83201W        W55461  14.124  10.271   1.671
83202W        W55462  17.746  12.587  13.412
83203W        W55463  37.381  20.253   4.173
83204W        W55464   0.198  22.033  12.313
83205W        W55465  15.231  34.835   2.617
83206W        W55466  11.658  14.281  12.142
83207W        W55467  23.347  32.398   4.163
83208W        W55468  43.736  43.406  11.690
83209W        W55469  39.453   2.653   0.690
83210W        W55470  10.390  41.042   2.729
83211W        W55471  43.979  21.607   3.689
83212W        W55472  31.197  35.510  14.472
83213W        W55473  20.510   9.766  13.867
83214W        W55474  37.758  28.965   2.068
83215W        W55475  32.640  39.970  14.484
83216W        W55476   5.503  21.991  14.986
83217W        W55477  36.107   0.069   4.104
83218W        W55478  11.616  26.439  13.844
83219W        W55479  21.082  43.982   4.602
83220W        W55480   3.502  14.021   4.767
83221W        W55481  12.065  38.165  13.997
83222W        W55482  22.225  16.043   0.880
83223W        W55483  23.112  22.341  14.933
83224W        W55484   6.901  10.256  14.416
83225W        W55485  24.807   4.854  12.583
83226W        W55486  12.305  24.995   4.494
83227W        W55487  26.244  20.290  11.134
83228W        W55488  43.912   1.621   4.583
83229W        W55489   0.198  25.964  12.019
83230W        W55490  20.141  15.041  14.751
83231W        W55491   1.763  12.117  11.894
83232W        W55492  18.123  14.150   1.868
83233W        W55493  12.874  25.927   3.116
83234W        W55494  18.130  11.124   0.284
83235W        W55495  10.773  42.458  12.686
83236W        W55496  43.973   6.658  13.022
83237W        W55497  13.829  31.115   0.509
83238W        W55498  26.268  19.442  12.354
83239W        W55499   0.800   2.390   3.265
83240W        W55500  31.990   7.509   2.856
83241W        W55501  36.974  37.433  14.509
83242W        W55502  14.211  36.236   4.354
83243W        W55503  13.594   9.253   1.903
83244W        W55504   1.514  11.756   2.536
83245W        W55505  36.565  13.121  14.002
83246W        W55506  26.403   5.432  11.016
83247W        W55507  23.770  38.822   3.252
83248W        W55508  40.930  34.967   3.330
83249W        W55509  25.786  23.728   3.550
83250W        W55510  19.997  29.224   4.910
83251W        W55511  11.305  14.460  12.483
83252W        W55512  15.577   0.260  10.114
83253W        W55513  29.807  43.316   1.633
83254W        W55514  11.241  27.374   0.970
83255W        W55515  36.448  23.167  14.649
83256W        W55516  14.283   7.403   2.270
83257W        W55517  35.850   3.723   1.261
83258W        W55518  26.250  25.245  10.463
83259W        W55519  28.760  29.445  13.310
83260W        W55520   5.636  11.241   0.294
83261W        W55521  20.476  14.621   0.726
83262W        W55522  24.960  28.497   3.389
83263W        W55523  14.610  32.602  10.601
83264W        W55524  22.338  38.461   0.414
83265W        W55525  44.472  18.109  11.111
83266W        W55526   4.396  14.972  11.013
83267W        W55527   0.784   2.409  13.520
83268W        W55528  22.564  15.394   3.643
83269W        W55529  38.362  42.445  10.567
83270W        W55530  22.692  16.260  11.309
83271W        W55531  13.665  36.055  14.063
83272W        W55532  39.259   3.418   0.323
83273W        W55533  20.469  38.141  11.078
83274W        W55534  13.003  37.356   2.409
83275W        W55535  31.080   1.864   2.451
83276W        W55536  23.058  38.133  10.816
83277W        W55537  10.766   1.743   4.130
83278W        W55538  34.002  18.863   1.258
83279W        W55539  31.730  22.969   2.012
83280W        W55540  22.935  17.090  14.445
83281W        W55541  21.735  11.865  14.266
83282W        W55542  34.414   6.298   4.555
83283W        W55543  35.849  12.819   1.439
83284W        W55544   4.818  37.088   3.367
83285W        W55545  41.728   6.770  14.448
83286W        W55546  27.358  18.680  14.392
83287W        W55547   1.876   6.222  13.730
83288W        W55548  27.515  18.060  13.276
83289W        W55549  20.837   8.961   1.493
83290W        W55550  23.282   3.565  11.117
83291W        W55551   3.440  31.591  12.186
83292W        W55552  27.068  37.994  14.875
83293W        W55553  13.134  26.909   2.315
83294W        W55554  16.068  29.132  11.634
83295W        W55555   3.065  10.534  11.318
83296W        W55556  16.188  41.535  12.426
83297W        W55557  35.601   8.449   4.814
83298W        W55558  28.974   0.799  10.483
83299W        W55559  32.867   1.520   3.584
83300W        W55560  35.722  39.306  12.018
83301W        W55561  23.714  30.828   2.283
83302W        W55562  11.420  26.446  13.127
83303W        W55563  32.525   4.430   0.366
83304W        W55564  24.037   7.320  11.890
83305W        W55565  25.422  30.551   2.188
83306W        W55566  13.775  17.662   1.155
83307W        W55567   2.244  21.780   4.619
83308W        W55568  15.699  19.530  11.955
83309W        W55569   2.500  36.458  14.655
83310W        W55570   1.827  35.480  11.552
83311W        W55571  15.769  19.323  10.610
83312W        W55572   1.511  40.881   2.076
83313W        W55573   6.362  11.707  14.963
83314W        W55574  40.435   1.009   5.166
83315W        W55575  36.860  24.099  11.976
83316W        W55576  27.658  11.391   1.068
83317W        W55577  10.438  38.506   4.509
83318W        W55578   5.075   0.887   2.775
83319W        W55579  12.214  10.632   1.700
83320W        W55580  40.971  21.898   4.294
83321W        W55581  39.366   2.337  14.715
83322W        W55582  20.228  43.446   4.701
83323W        W55583   8.010  23.104  10.972
83324W        W55584  35.095  40.539  13.427
83325W        W55585  38.625  27.018   3.156
83326W        W55586   6.459  11.250   0.712
83327W        W55587  29.408   3.959   0.408
83328W        W55588  16.820   0.338  11.118
83329W        W55589   7.951  42.519   0.222
83330W        W55590  37.355  29.445  11.169
83331W        W55591  33.332  33.611  13.926
83332W        W55592  11.271  33.045   4.337
83333W        W55593   3.369  20.007   3.188
83334W        W55594  16.848  12.042  14.939
83335W        W55595  44.085  29.835   1.688
83336W        W55596  19.161  39.877  14.442
83337W        W55597  15.258   7.847  13.074
83338W        W55598   7.348   4.217   3.111
83339W        W55599  18.514  37.965   2.116
83340W        W55600  17.598  36.117   4.117
83341W        W55601  12.255  20.319   1.816
83342W        W55602  11.780  15.426  11.130
83343W        W55603  44.217  38.723   0.933
83344W        W55604  30.590  13.570  14.982
83345W        W55605  43.893  26.575  11.962
83346W        W55606  30.647  38.066  13.852
83347W        W55607   5.886  38.657  14.823
83348W        W55608  21.588  38.550   2.700
83349W        W55609   3.004  26.640  13.495
83350W        W55610   2.345  14.629   3.149
83351W        W55611  21.027  30.461  10.293
83352W        W55612   4.177  13.603   0.365
83353W        W55613  16.376  15.637  10.777
83354W        W55614   0.651  32.954  12.444
83355W        W55615   7.730  40.353  10.272
83356W        W55616  31.960   0.876  11.362
83357W        W55617  20.718  35.547  13.008
83358W        W55618  21.721  27.560   4.782
83359W        W55619   4.402  36.415  11.558
83360W        W55620   7.604  38.628   3.962
83361W        W55621  34.557   6.777  11.891
83362W        W55622  38.109  30.929  14.618
83363W        W55623  35.392   2.973   3.672
83364W        W55624  17.022  22.458   1.588
83365W        W55625  23.092  20.989   4.915
83366W        W55626  24.115   3.258  11.296
83367W        W55627  27.487  33.816   2.158
83368W        W55628  42.343  36.390   4.477
83369W        W55629  41.027  18.313  12.883
83370W        W55630  42.262  42.400  14.917
83371W        W55631  18.161  31.990   1.071
83372W        W55632  33.660  36.376  12.090
83373W        W55633  29.479  22.806  14.013
83374W        W55634  35.455  19.694  12.053
83375W        W55635  28.312   1.563  13.233
83376W        W55636  30.930  15.895  12.875
83377W        W55637  32.896  13.229  13.229
83378W        W55638   3.827  17.797   2.143
83379W        W55639  26.381  14.118  12.093
83380W        W55640  44.297  44.684  14.635
83381W        W55641  29.471  12.148   2.355
83382W        W55642  39.160  19.068  13.531
83383W        W55643  25.030  23.788   1.446
83384W        W55644  28.603   1.866   4.140
83385W        W55645  19.369   0.311  11.140
83386W        W55646  17.201   5.608  13.673
83387W        W55647  25.696   4.608   1.687
83388W        W55648   4.896  25.441  12.900
83389W        W55649  38.854   0.865  11.214
83390W        W55650  11.671   8.187  11.281
83391W        W55651  30.197  34.905   0.702
83392W        W55652  33.394  19.612   0.771
83393W        W55653   3.881  41.307   1.448
83394W        W55654  33.412   5.781   1.784
83395W        W55655  37.966   4.261   0.968
83396W        W55656  44.887  10.304  10.066
83397W        W55657  13.121  40.515   4.626
83398W        W55658  43.287  14.062   1.495
83399W        W55659   6.337   3.451   2.840
83400W        W55660  33.581   0.804  12.118
83401W        W55661   0.212  21.149   4.153
83402W        W55662   3.901  40.045   3.237
83403W        W55663  12.075  39.527   3.180
83404W        W55664  16.083  12.555  10.450
83405W        W55665  40.411  15.549  11.632
83406W        W55666  23.731  15.746   2.986
83407W        W55667  30.492  34.988   4.941
83408W        W55668   4.926   3.662  12.175
83409W        W55669  22.023  10.406  12.451
83410W        W55670  43.567  10.157  10.711
83411W        W55671   2.139  37.320   4.065
83412W        W55672  31.850   7.443   4.872
83413W        W55673  29.929  11.304  10.739
83414W        W55674  35.598   7.430   0.872
83415W        W55675   7.780   6.868   3.234
83416W        W55676  12.129  39.600  11.141
83417W        W55677  31.868  31.176   1.470
83418W        W55678  36.627  24.611  12.011
83419W        W55679  18.820  44.261  10.586
83420W        W55680  22.260  35.150  13.570
83421W        W55681  28.388  23.957  12.944
83422W        W55682   7.725  26.472   2.756
83423W        W55683   8.931  41.284   3.648
83424W        W55684  33.053   2.624  13.333
83425W        W55685  32.320   4.270  12.489
83426W        W55686  42.336  20.687  14.715
83427W        W55687  41.078  13.828   2.358
83428W        W55688  13.425  35.434  14.752
83429W        W55689  31.958  14.830  14.015
83430W        W55690  43.176   0.171   4.980
83431W        W55691  34.029  21.260   4.448
83432W        W55692   1.864  14.099  12.483
83433W        W55693  42.537  33.136   2.288
83434W        W55694  40.997  26.695  10.463
83435W        W55695  35.295  24.518   0.077
83436W        W55696  21.849  42.278  12.621
83437W        W55697   1.073  43.014  12.374
83438W        W55698  34.880  15.655  13.931
83439W        W55699  17.030  37.154   0.409
83440W        W55700  18.685  40.391   4.130
83441W        W55701   8.046  34.074   1.475
83442W        W55702  19.063  41.851   0.298
83443W        W55703  15.723  35.472  11.894
83444W        W55704  16.402  41.357   1.430
83445W        W55705  21.846  27.484  11.005
83446W        W55706   2.296   0.304   1.405
83447W        W55707  38.081  39.056   1.756
83448W        W55708  17.051  33.958   2.208
83449W        W55709  31.142   8.838   3.700
83450W        W55710   2.677  20.169  11.993
83451W        W55711  27.347   5.420   4.662
83452W        W55712  43.907  34.045   3.714
83453W        W55713  27.803  12.087   3.611
83454W        W55714  14.496  40.520  14.018
83455W        W55715  21.180  21.734  11.211
83456W        W55716  40.259  27.136  10.694
83457W        W55717  35.626  13.476  12.359
83458W        W55718  21.717  37.008  10.877
83459W        W55719   9.003  16.255   3.854
83460W        W55720  43.886  29.577  14.713
83461W        W55721   3.278   5.223  14.355
83462W        W55722   7.771  43.208  10.479
83463W        W55723  38.400  41.830  14.151
83464W        W55724   0.344  34.730  11.979
83465W        W55725   6.718   9.333   4.666
83466W        W55726  44.328  22.576   3.589
83467W        W55727  43.938  10.287   1.250
83468W        W55728  12.944  18.071  13.814
83469W        W55729  33.662  18.653   5.128
83470W        W55730  12.857  21.019  14.305
83471W        W55731  22.213  17.795  12.632
83472W        W55732  13.828  20.311   3.497
83473W        W55733  16.152  33.048  13.837
83474W        W55734  30.821  32.768  10.992
83475W        W55735  21.649  22.092  11.944
83476W        W55736   5.697  10.345  12.410
83477W        W55737  21.122  12.605   4.156
83478W        W55738  30.401   9.114  14.014
83479W        W55739   7.161  42.897   2.345
83480W        W55740  21.894  22.680   2.273
83481W        W55741  37.946  14.537  14.112
83482W        W55742  30.136   0.810  12.689
83483W        W55743   3.375  36.652  13.676
83484W        W55744  34.485   2.439  12.804
83485W        W55745  22.046   5.924  12.901
83486W        W55746   3.235  19.783   3.701
83487W        W55747  22.760  29.359   3.229
83488W        W55748  19.115   8.832   2.679
83489W        W55749  34.519  10.896  13.789
83490W        W55750   8.509  23.373   1.733
83491W        W55751   6.024   0.386   1.693
83492W        W55752  25.209   3.955  13.080
83493W        W55753  14.615  40.262   4.544
83494W        W55754  44.813  24.757   1.855
83495W        W55755  19.218  34.420  12.071
83496W        W55756  34.797  20.284  10.183
83497W        W55757   2.300  14.514  14.077
83498W        W55758   4.300   4.174   2.742
83499W        W55759  21.921  37.540   1.311
83500W        W55760  29.499  10.458  11.581
83501W        W55761  24.342  25.422   2.701
83502W        W55762   4.409  13.657  13.531
83503W        W55763  33.728  25.257   4.118
83504W        W55764  25.852   4.251  11.131
83505W        W55765   3.789  23.536   1.264
83506W        W55766  11.732  43.944  12.791
83507W        W55767  20.512  18.157  14.570
83508W        W55768   9.214  22.054   2.304
83509W        W55769  36.714  29.500   4.946
83510W        W55770  44.719  33.495  14.510
83511W        W55771   3.186  25.242   1.494
83512W        W55772  27.967  15.713   0.974
83513W        W55773   1.905  29.002  13.896
83514W        W55774   6.355  35.046   3.867
83515W        W55775  22.791  43.755  12.430
83516W        W55776  28.185   8.439  10.620
83517W        W55777  24.734  32.468   4.637
83518W        W55778  25.701  25.264   1.741
83519W        W55779  37.863   0.220   0.052
83520W        W55780  20.226  15.847  13.545
83521W        W55781  12.110  27.188   3.365
83522W        W55782  39.500  11.367  11.541
83523W        W55783   6.816  42.505  12.644
83524W        W55784  26.661  29.215   0.497
83525W        W55785  25.549  30.743  13.456
83526W        W55786  32.927  11.897   2.203
83527W        W55787  41.242   0.409  14.964
83528W        W55788  42.853   3.388   3.111
83529W        W55789   2.036  30.490  11.749
83530W        W55790   4.656   5.823   1.386
83531W        W55791  28.521  23.736  11.510
83532W        W55792   2.568  43.118  13.608
83533W        W55793  21.006  42.815  10.665
83534W        W55794   7.389  16.826   3.162
83535W        W55795  13.550  28.194   3.225
83536W        W55796  30.415  15.118   4.479
83537W        W55797   3.608  38.353  11.942
83538W        W55798  27.291   1.851  12.946
83539W        W55799  28.149  22.702  14.541
83540W        W55800  26.353  29.290   2.372
83541W        W55801  15.240  15.713  14.337
83542W        W55802   4.551  40.932  12.533
83543W        W55803  30.449  27.490   1.162
83544W        W55804  14.177  18.768  14.844
83545W        W55805   0.895   4.299   1.453
83546W        W55806   4.534   0.985  10.137
83547W        W55807  22.915  19.671   5.077
83548W        W55808  19.196   5.795   4.156
83549W        W55809  20.783  37.048   3.735
83550W        W55810   1.416  11.868   2.029
83551W        W55811  16.669   3.001   4.802
83552W        W55812   0.183  19.708   3.178
83553W        W55813   4.231   6.416  12.724
83554W        W55814   7.474  16.021  12.935
83555W        W55815   3.210  24.902  12.420
83556W        W55816   1.809  13.029   3.104
83557W        W55817  22.761  27.941  10.294
83558W        W55818  28.229  15.558  13.871
83559W        W55819  40.431  28.215  10.578
83560W        W55820  31.648  44.379   0.733
83561W        W55821  25.027  17.124  13.896
83562W        W55822  33.323  29.859  13.868
83563W        W55823  18.494   4.819   0.966
83564W        W55824  40.026   6.518   0.889
83565W        W55825  37.363  20.937  12.510
83566W        W55826  15.320   3.456  12.099
83567W        W55827  26.635  14.732  11.128
83568W        W55828  29.361  10.668  14.534
83569W        W55829  17.216  42.018   4.490
83570W        W55830   4.801  29.708  11.541
83571W        W55831  22.305  40.736  11.836
83572W        W55832  12.973  23.514  10.764
83573W        W55833  29.536  24.614   4.749
83574W        W55834  31.046  22.091  14.371
83575W        W55835  28.165  16.078   4.110
83576W        W55836  31.866  38.128   5.013
83577W        W55837  33.452  15.811   0.939
83578W        W55838  30.448   2.166  11.030
83579W        W55839   4.291  20.942   1.723
83580W        W55840  39.090  38.293   1.295
83581W        W55841  18.486  23.585   1.944
83582W        W55842  15.741   7.839   1.292
83583W        W55843  24.784   0.238  14.455
83584W        W55844  20.580  21.322  10.558
83585W        W55845  41.447  11.186  13.052
83586W        W55846  27.489  15.564  14.798
83587W        W55847   7.348  41.388   3.082
83588W        W55848  40.895  30.465   2.241
83589W        W55849  39.985  42.284  14.018
83590W        W55850  44.363  32.391   1.806
83591W        W55851  39.062  42.255   2.748
83592W        W55852  20.551  40.974   4.687
83593W        W55853  27.219   2.698   3.312
83594W        W55854  42.905   4.112  11.111
83595W        W55855  19.797  23.213  14.779
83596W        W55856   7.441  28.983  12.092
83597W        W55857   9.402  28.267   2.885
83598W        W55858  33.541   0.978  13.491
83599W        W55859  22.833  43.236  10.722
83600W        W55860   5.485  42.050   2.637
83601W        W55861  42.112  20.785   4.577
83602W        W55862  12.137   0.230  13.102
83603W        W55863  42.254  19.571   3.815
83604W        W55864  29.885   3.762  13.057
83605W        W55865  10.272  25.305  11.166
83606W        W55866  40.828  36.583   4.069
83607W        W55867  14.813  34.368   2.208
83608W        W55868  21.843  16.783  13.626
83609W        W55869  26.109  36.462  11.428
83610W        W55870   3.341  42.423  14.129
83611W        W55871  38.052  30.029  13.537
83612W        W55872   3.412   5.914   4.406
83613W        W55873  42.353  27.183  14.504
83614W        W55874  30.570  15.079   3.979
83615W        W55875  17.748  19.534   1.634
83616W        W55876  34.578   8.384  10.341
83617W        W55877   0.917  10.829  10.762
83618W        W55878  36.324  41.633  14.467
83619W        W55879  29.084  20.665  14.772
83620W        W55880   2.289   6.342  10.603
83621W        W55881  15.708  29.746   3.728
83622W        W55882  44.470   4.266  13.374
83623W        W55883   0.736   5.380   0.750
83624W        W55884   7.792  22.513   5.210
83625W        W55885  24.507  27.544  14.864
83626W        W55886  14.774  36.213  14.830
83627W        W55887   7.120   2.669   3.623
83628W        W55888  41.086  44.206  14.442
83629W        W55889  30.961  31.004  14.768
83630W        W55890  23.227  11.304   4.838
83631W        W55891  17.639  42.747  13.940
83632W        W55892   4.035   7.120  11.700
83633W        W55893  16.311  44.012   4.110
83634W        W55894  40.291  10.665  11.175
83635W        W55895   7.688  26.213  10.164
83636W        W55896  44.413  11.204  11.674
83637W        W55897  44.366  23.201  14.437
83638W        W55898  28.949  36.377   1.767
83639W        W55899  24.729  34.674  11.638
83640W        W55900   7.685  17.728   3.070
83641W        W55901  40.841  18.308   4.899
83642W        W55902  22.399  37.273  12.904
83643W        W55903  16.179  34.309   2.397
83644W        W55904   6.815  20.248   2.255
83645W        W55905  19.989  36.067   0.435
83646W        W55906  25.933   6.713  10.967
83647W        W55907  21.996  32.940  12.432
83648W        W55908  13.725  35.552  12.852
83649W        W55909  21.300  19.310   4.092
83650W        W55910  24.630   2.572   0.899
83651W        W55911  17.152  27.085  12.979
83652W        W55912  13.159  28.361  12.382
83653W        W55913  16.166  20.079  14.354
83654W        W55914  11.087  43.236  12.491
83655W        W55915  44.258  30.798  13.607
83656W        W55916  44.028  16.827  11.625
83657W        W55917  36.543  27.149   0.241
83658W        W55918   8.710   0.475   3.375
83659W        W55919  43.801  35.201   0.484
83660W        W55920  41.947   2.734   2.872
83661W        W55921  10.344  10.553   4.028
83662W        W55922  26.097  12.254  10.474
83663W        W55923  32.568  44.457  13.797
83664W        W55924  22.019  23.108   4.488
83665W        W55925  41.303  23.051  11.667
83666W        W55926   8.043  28.466  12.425
83667W        W55927  10.769  44.924  14.761
83668W        W55928   7.905  16.651   0.745
83669W        W55929  41.514  34.883  11.618
83670W        W55930  38.085  19.184   2.517
83671W        W55931  37.800   8.313   2.864
83672W        W55932  27.521  31.934   1.913
83673W        W55933   2.423   4.422   1.341
83674W        W55934   8.903  30.146   0.922
83675W        W55935  14.361  10.948   2.379
83676W        W55936  11.632  36.999  11.005
83677W        W55937  24.273  19.229   0.814
83678W        W55938   4.306  20.003   3.213
83679W        W55939  11.859  44.509  14.328
83680W        W55940  20.150  14.154   3.511
83681W        W55941  20.649  40.998   3.890
83682W        W55942  18.977  32.624   1.256
83683W        W55943  30.939  10.877  11.527
83684W        W55944  34.586  18.018  11.407
83685W        W55945  44.359  33.957  14.082
83686W        W55946  37.134  16.125  11.252
83687W        W55947  38.078   4.843  12.573
83688W        W55948  43.114  40.714  10.612
83689W        W55949  14.127  19.955  11.370
83690W        W55950  34.508  15.676  11.433
83691W        W55951   0.299  16.474   2.055
83692W        W55952  15.627  16.825  13.992
83693W        W55953  36.960  21.048   3.236
83694W        W55954  31.979  12.782  10.653
83695W        W55955  35.724  16.373   0.248
83696W        W55956  23.075   2.479  13.797
83697W        W55957  38.910  10.762   2.290
83698W        W55958  33.208  44.417  13.007
83699W        W55959  32.086   1.300  14.675
83700W        W55960   4.468  23.808   2.667
83701W        W55961   5.855  40.836   4.510
83702W        W55962  24.125  16.639   4.586
83703W        W55963   1.053  19.589  13.931
83704W        W55964  41.469  29.832  12.086
83705W        W55965  25.442  30.568  12.451
83706W        W55966  24.169  44.745   4.317
83707W        W55967  16.508   8.269   1.355
83708W        W55968  25.683  30.987  10.809
83709W        W55969  21.707  10.503   2.424
83710W        W55970  40.810  17.205   1.425
83711W        W55971  25.622  38.543   3.771
83712W        W55972   0.082   7.840  11.452
83713W        W55973  32.655  18.532   1.809
83714W        W55974  12.902  21.069   1.809
83715W        W55975  26.441  39.050   1.201
83716W        W55976  32.456  35.391   1.332
83717W        W55977  16.518  17.490  14.357
83718W        W55978  26.895  36.402   1.188
83719W        W55979  39.324  23.979  12.992
83720W        W55980  12.070  27.861   2.786
83721W        W55981   3.454  26.191  12.076
83722W        W55982  22.040  33.480   2.835
83723W        W55983  10.643  32.941  13.615
83724W        W55984  16.858  25.450   0.393
83725W        W55985  42.598  29.363  14.222
83726W        W55986  44.992  30.017   4.620
83727W        W55987  34.711  24.165   0.360
83728W        W55988  14.118  26.979  10.349
83729W        W55989  36.438  38.476   1.445
83730W        W55990   0.466   8.280  14.307
83731W        W55991   4.579  19.582  14.137
83732W        W55992  43.019   7.226   4.167
83733W        W55993   1.867  40.000   4.637
83734W        W55994  36.058  31.958   1.329
83735W        W55995  16.772  22.713   0.196
83736W        W55996   8.757  12.106   1.212
83737W        W55997  36.430  29.124  14.959
83738W        W55998  26.510  33.039  12.029
83739W        W55999  22.740  14.790  12.349
83740W        W56000  37.490  22.975  11.531
83741W        W56001  28.638  41.027   0.971
83742W        W56002  27.458  11.151  10.606
83743W        W56003  25.453  15.268   2.838
83744W        W56004   8.682  22.844   4.202
83745W        W56005  17.684   5.499   5.424
83746W        W56006  25.956  22.198  11.464
83747W        W56007   4.745  15.555   0.908
83748W        W56008   2.246  27.711  13.484
83749W        W56009   0.081  27.919   3.529
83750W        W56010  23.738   1.392   0.815
83751W        W56011  28.531  42.278  11.517
83752W        W56012   9.933  37.094  13.860
83753W        W56013   3.038  24.006  12.063
83754W        W56014   1.279  25.665  13.900
83755W        W56015  18.970  16.452  14.911
83756W        W56016  19.719  31.131  14.352
83757W        W56017  19.343   1.202   2.284
83758W        W56018  34.571  24.108   3.617
83759W        W56019  38.994  12.544  13.979
83760W        W56020  38.403   6.770  12.134
83761W        W56021  39.881  22.965  11.609
83762W        W56022  24.197  12.125   1.695
83763W        W56023  38.030  29.514  10.321
83764W        W56024  18.115  13.605   4.595
83765W        W56025  35.121  29.849   3.642
83766W        W56026  14.371  39.503   1.823
83767W        W56027  43.227   6.354   5.106
83768W        W56028  29.939  44.362   4.688
83769W        W56029  22.001  28.816  13.376
83770W        W56030  17.822  22.995  11.422
83771W        W56031  18.172   9.825  13.363
83772W        W56032   0.942  20.164  13.431
83773W        W56033  44.901  44.437  14.300
83774W        W56034  16.644   6.026   0.900
83775W        W56035  22.618  29.848  11.420
83776W        W56036  11.691  40.962   2.237
83777W        W56037  38.424   7.246  10.225
83778W        W56038  33.816  33.475  11.971
83779W        W56039  18.037  38.912   2.406
83780W        W56040  21.663  23.518  12.566
83781W        W56041  38.873  32.483   4.410
83782W        W56042  16.987   8.239   4.075
83783W        W56043  36.459  11.199   4.154
83784W        W56044   6.292  21.522   0.601
83785W        W56045  20.211  15.779  14.511
83786W        W56046  43.658  23.811  11.462
83787W        W56047   8.895  32.870  11.232
83788W        W56048  31.285  24.242   0.862
83789W        W56049  42.379  42.348  13.954
83790W        W56050  20.941  36.805   0.795
83791W        W56051  22.662   2.381  11.421
83792W        W56052  28.888  30.456   4.844
83793W        W56053  30.658   0.739  12.903
83794W        W56054  17.370  27.691  14.167
83795W        W56055   3.673  40.994  13.950
83796W        W56056  39.074   1.530  13.717
83797W        W56057   9.253  21.922   4.933
83798W        W56058  36.753  41.461   3.226
83799W        W56059  38.341  26.564  14.437
83800W        W56060  15.810  19.504  11.085
83801W        W56061  15.241  21.000  14.842
83802W        W56062  11.376  28.798  12.949
83803W        W56063  11.782   0.997   2.260
83804W        W56064  11.591  23.611  14.024
83805W        W56065  33.681  42.285   2.263
83806W        W56066  19.251  27.244  12.659
83807W        W56067  40.080  16.707  12.140
83808W        W56068   6.701  14.758  13.022
83809W        W56069  18.334   1.713  13.433
83810W        W56070  42.102  31.507  11.098
83811W        W56071  11.806  41.649   3.483
83812W        W56072  12.246  25.971  12.913
83813W        W56073  10.699  37.401   1.889
83814W        W56074  11.758   5.010  13.531
83815W        W56075  16.385   8.498  11.213
83816W        W56076  33.501   1.150   5.175
83817W        W56077  12.266  31.324  10.606
83818W        W56078  22.233  39.443  14.768
83819W        W56079   1.907  38.806   4.125
83820W        W56080  38.837  23.545   2.670
83821W        W56081  23.376   7.441  14.776
83822W        W56082  26.937  41.295   1.430
83823W        W56083  14.615  30.003   2.823
83824W        W56084  43.519  12.213   0.749
83825W        W56085  35.303  12.696   2.394
83826W        W56086   1.245  27.097   4.172
83827W        W56087  10.308  43.827   2.910
83828W        W56088  35.030  21.293  10.986
83829W        W56089  28.370  10.839  14.409
83830W        W56090   3.436  25.913  11.661
83831W        W56091  12.679  41.798   4.497
83832W        W56092  30.652  29.811   5.093
83833W        W56093  42.350  15.027   4.586
83834W        W56094  16.628  27.492   0.507
83835W        W56095  21.046   7.202  11.154
83836W        W56096   3.206   0.320  14.702
83837W        W56097  39.222  30.235   3.670
83838W        W56098  11.852   4.258  13.068
83839W        W56099  30.565  30.491   3.367
83840W        W56100  12.747  12.199  13.427
83841W        W56101   1.218   0.060   2.181
83842W        W56102   9.188  24.601   3.718
83843W        W56103  34.543  44.886  12.808
83844W        W56104  19.603  34.556   1.214
83845W        W56105  16.957  14.630  12.715
83846W        W56106  16.810  10.632  10.587
83847W        W56107  35.981  17.153   0.881
83848W        W56108   3.047  33.174   2.775
83849W        W56109  22.026  13.834   2.875
83850W        W56110   6.394  11.680  14.448
83851W        W56111  41.832  41.452   4.011
83852W        W56112   7.817  41.729  11.943
83853W        W56113  35.715   6.827  12.446
83854W        W56114   1.280  31.420  13.050
83855W        W56115  32.028   0.093   2.330
83856W        W56116  12.399  44.874   2.177
83857W        W56117  31.645  38.018   1.156
83858W        W56118  18.092  38.776  13.272
83859W        W56119  21.912   6.982   0.953
83860W        W56120  14.989  14.062   5.578
83861W        W56121   3.839  42.770  12.514
83862W        W56122  29.468   1.760  11.016
83863W        W56123  42.132  36.625  12.045
83864W        W56124  25.768   7.526   4.515
83865W        W56125   4.895   0.405   4.442
83866W        W56126   8.776   2.995  12.862
83867W        W56127  10.105  42.523  13.944
83868W        W56128  12.082  22.629  13.017
83869W        W56129  11.844  39.542  11.593
83870W        W56130   3.305  32.110   4.148
83871W        W56131  26.358   1.201  11.921
83872W        W56132  34.795  23.451   1.800
83873W        W56133  12.809  18.231   1.374
83874W        W56134  14.890   3.786  12.385
83875W        W56135  41.278  43.737  12.501
83876W        W56136  38.077  40.988   2.690
83877W        W56137   6.150   2.662   0.375
83878W        W56138  31.543  11.345   3.238
83879W        W56139  16.856  18.923  14.895
83880W        W56140   5.232  19.230   1.930
83881W        W56141  39.980  25.555   4.687
83882W        W56142  12.546  25.169  12.355
83883W        W56143  44.368  20.616  10.707
83884W        W56144  21.984  36.201   3.748
83885W        W56145  12.073  34.505   1.780
83886W        W56146  20.058  31.190  11.035
83887W        W56147  10.554  17.027   1.357
83888W        W56148  34.916  21.151   1.792
83889W        W56149   6.181  15.623  10.179
83890W        W56150   6.973  32.934  13.424
83891W        W56151  11.679  17.677   2.664
83892W        W56152  24.544  38.100  10.437
83893W        W56153  30.405  16.184   2.697
83894W        W56154   3.553  41.459  11.470
83895W        W56155   1.728  28.885   3.175
83896W        W56156  29.497   6.389   2.284
83897W        W56157  37.347  14.402  12.675
83898W        W56158  37.552   1.753   2.919
83899W        W56159   0.976  23.133   3.239
83900W        W56160  40.875  16.675  13.917
83901W        W56161   6.463  28.584  12.924
83902W        W56162  40.760  41.460  11.673
83903W        W56163  15.343  35.437  14.213
83904W        W56164  35.994  17.009  10.741
83905W        W56165  32.935  25.489   0.203
83906W        W56166  17.198  19.465   5.023
83907W        W56167  36.319  23.185   1.178
83908W        W56168  14.350   2.866  10.460
83909W        W56169  14.382  21.578   3.667
83910W        W56170  30.900   5.136   0.110
83911W        W56171  44.528   1.019  11.210
83912W        W56172  24.559  10.163   3.326
83913W        W56173   7.880   4.288   3.585
83914W        W56174  43.030  11.524   4.530
83915W        W56175   1.704  33.111   4.244
83916W        W56176  24.667  43.998  10.373
83917W        W56177  24.181  31.332   4.109
83918W        W56178  41.808  15.301  11.627
83919W        W56179   1.233  30.560   1.733
83920W        W56180  44.738  34.487  14.800
83921W        W56181  35.947   5.150  11.060
83922W        W56182  20.376  12.847   0.383
83923W        W56183  12.316  23.554  12.945
83924W        W56184   4.717  43.425  11.484
83925W        W56185   1.490  42.346   0.752
83926W        W56186   7.971  10.567   2.364
83927W        W56187   2.538  13.917   2.633
83928W        W56188  42.563   0.376   4.052
83929W        W56189  21.000  43.017  13.305
83930W        W56190  42.769   1.540   1.763
83931W        W56191  10.255  18.691   3.393
83932W        W56192   3.503  40.931   1.618
83933W        W56193   9.960  44.592  14.380
83934W        W56194  37.340  29.621   0.778
83935W        W56195   8.016  25.085  13.890
83936W        W56196  27.019   4.967  14.777
83937W        W56197   9.216  26.719  11.315
83938W        W56198  44.564   0.408   2.725
83939W        W56199  29.457  18.338  11.036
83940W        W56200  37.353  25.130  13.883
83941W        W56201  27.877  34.884   1.277
83942W        W56202  33.910  21.193  11.158
83943W        W56203  40.439  40.702  14.514
83944W        W56204  20.711  44.973  12.341
83945W        W56205  19.841  35.528   1.852
83946W        W56206   5.668   3.756  12.893
83947W        W56207   2.434   9.467   4.458
83948W        W56208  22.150  32.018   2.907
83949W        W56209   7.347  41.055   2.208
83950W        W56210  33.579  44.502  11.123
83951W        W56211  29.150  41.826   2.980
83952W        W56212  20.202   3.039   4.274
83953W        W56213  27.918   2.208  13.906
83954W        W56214  42.950  28.202   0.529
83955W        W56215  12.869  43.086   3.702
83956W        W56216  38.481   1.976  14.890
83957W        W56217  39.305  20.004  11.021
83958W        W56218   6.123  12.581   0.391
83959W        W56219   0.205  28.964   4.366
83960W        W56220  19.146  17.025  12.476
83961W        W56221   8.219  39.278   0.231
83962W        W56222  30.581  23.042  10.626
83963W        W56223  35.629  33.015   2.252
83964W        W56224  16.588  22.714  11.575
83965W        W56225  27.990  36.793   3.248
83966W        W56226  14.643  36.517   2.130
83967W        W56227   7.254  42.056  10.644
83968W        W56228  23.544  24.406  12.599
83969W        W56229  13.462  26.555  13.582
83970W        W56230   8.838  43.558   3.619
83971W        W56231  40.128  11.642  12.375
83972W        W56232  35.456   0.542   4.194
83973W        W56233   0.013  27.560  12.882
83974W        W56234  28.053   7.212   4.626
83975W        W56235   7.902  38.855  13.576
83976W        W56236  28.943  24.651   0.879
83977W        W56237  25.271   2.416  11.021
83978W        W56238  24.166  33.463   2.642
83979W        W56239  33.035   3.768   1.327
83980W        W56240  13.931  26.745  13.464
83981W        W56241  37.364   9.704   3.420
83982W        W56242  28.870  11.915   4.846
83983W        W56243  10.648  15.202  10.748
83984W        W56244  27.669   4.950  13.152
83985W        W56245   6.468   1.247  14.936
83986W        W56246  25.951  36.333  13.761
83987W        W56247  20.477  12.729  14.800
83988W        W56248  11.916  13.909   2.270
83989W        W56249  29.483   4.654  12.639
83990W        W56250  26.558  27.512   5.064
83991W        W56251   6.205  35.802  13.045
83992W        W56252  17.279  38.827  13.057
83993W        W56253  15.185  42.946  12.099
83994W        W56254   5.291   1.058  11.716
83995W        W56255  28.010  43.283  10.734
83996W        W56256   0.319  17.578  11.050
83997W        W56257  32.545  23.993   1.895
83998W        W56258  20.753   1.637   4.153
83999W        W56259  39.089  15.223   1.428
84000W        W56260  43.439  29.651  14.978
84001W        W56261   9.885  21.188  10.711
84002W        W56262  30.542  19.119  14.120
84003W        W56263  32.433   0.067   0.916
84004W        W56264  13.251  31.443   1.340
84005W        W56265  24.721   9.687  11.645
84006W        W56266  33.693  44.845   4.176
84007W        W56267  33.629  44.682  12.917
84008W        W56268  28.563  13.113  13.849
84009W        W56269  36.871  20.682  12.591
84010W        W56270  28.940   4.630  10.593
84011W        W56271  23.751  11.751  13.416
84012W        W56272   5.156  19.159   4.664
84013W        W56273  25.564  25.713  11.568
84014W        W56274   2.090  30.524   0.482
84015W        W56275  30.442  12.131  14.469
84016W        W56276   1.024  36.115   3.109
84017W        W56277  42.733  24.921  13.513
84018W        W56278  34.442  10.059  13.352
84019W        W56279  30.969  32.444  14.793
84020W        W56280  22.041   6.428  12.989
84021W        W56281   7.502  41.444   4.805
84022W        W56282  38.431  13.599   2.825
84023W        W56283  11.687  43.970  13.299
84024W        W56284  12.141  44.756   0.934
84025W        W56285  24.283   9.819   4.217
84026W        W56286  15.038  39.325  10.611
84027W        W56287   6.236   4.650  14.807
84028W        W56288  14.853  37.452  13.944
84029W        W56289   8.247  27.493  13.928
84030W        W56290  31.092  44.866  14.288
84031W        W56291  18.155   8.159   4.170
84032W        W56292  26.513   4.519   1.393
84033W        W56293  37.363  26.568  12.128
84034W        W56294  41.012  18.591   2.641
84035W        W56295  19.190  21.012   2.795
84036W        W56296  15.434  19.979  12.974
84037W        W56297  10.681   2.321   1.634
84038W        W56298  37.354   3.992   0.188
84039W        W56299  20.177  23.505  11.043
84040W        W56300   8.756  22.690  14.052
84041W        W56301   7.877  42.440  11.124
84042W        W56302   8.302   6.539  14.834
84043W        W56303  24.558  16.911  13.947
84044W        W56304  35.388  42.505   3.734
84045W        W56305  44.757  41.392  12.435
84046W        W56306  29.628   7.156   0.945
84047W        W56307   9.713  14.585   1.802
84048W        W56308  19.507   6.823   4.938
84049W        W56309  33.030  29.360   2.756
84050W        W56310  23.202  25.192   3.576
84051W        W56311  12.110  18.125  11.687
84052W        W56312  22.030  41.271  10.646
84053W        W56313   6.572  41.241   3.307
84054W        W56314   5.631  25.069  13.357
84055W        W56315  24.632  32.942  14.228
84056W        W56316  17.432  41.760   1.737
84057W        W56317  34.967   4.267   1.270
84058W        W56318  17.134  30.474   0.536
84059W        W56319   5.725  31.492  11.886
84060W        W56320  35.357  41.294  10.728
84061W        W56321  44.521  29.179  13.042
84062W        W56322   1.984  17.777  14.506
84063W        W56323  43.379  37.713   1.571
84064W        W56324  14.649  18.272   0.225
84065W        W56325  11.121  14.751  14.287
84066W        W56326  14.587   9.189   1.529
84067W        W56327  24.101  40.800   0.382
84068W        W56328  44.807   8.167  14.068
84069W        W56329  20.059   1.694   3.313
84070W        W56330  42.499  21.551  11.880
84071W        W56331  19.685   7.126   0.346
84072W        W56332  42.593  39.369  12.953
84073W        W56333   6.425  25.177  12.071
84074W        W56334  13.829  40.701   4.765
84075W        W56335  20.557  29.481   2.811
84076W        W56336  40.292  16.104  12.931
84077W        W56337  28.948   8.598  13.553
84078W        W56338  33.491  20.532  10.479
84079W        W56339   4.698  19.730  12.433
84080W        W56340   4.369  43.832  13.731
84081W        W56341   8.780   5.239   2.381
84082W        W56342  33.409   0.017   4.972
84083W        W56343  30.378  10.383  11.525
84084W        W56344   2.496  10.298  12.968
84085W        W56345  33.079  38.115  12.916
84086W        W56346  23.972   3.711   2.366
84087W        W56347  11.167   1.326   0.885
84088W        W56348  28.244  43.783  12.482
84089W        W56349   0.021   3.500  13.911
84090W        W56350  37.966  15.936   0.397
84091W        W56351  16.966  26.675   4.544
84092W        W56352  17.448  38.843   4.197
84093W        W56353  27.404  21.586  14.060
84094W        W56354  21.281  38.117  12.026
84095W        W56355   2.661  40.365  12.359
84096W        W56356  13.640  34.646   0.913
84097W        W56357  38.242  22.158  11.174
84098W        W56358  19.654  31.711  11.135
84099W        W56359  24.963  44.452   4.715
84100W        W56360   0.668  33.845  12.496
84101W        W56361  18.695  32.133   0.297
84102W        W56362   1.312  21.232   1.727
84103W        W56363  13.122   1.737   0.982
84104W        W56364  32.838  29.869   2.777
84105W        W56365  25.847   4.194  14.492
84106W        W56366  15.190  14.934   9.824
84107W        W56367  30.137  11.726   0.814
84108W        W56368  17.283  37.841   1.414
84109W        W56369  43.493  16.659  14.916
84110W        W56370  18.737  35.566   0.313
84111W        W56371   0.436  18.976  12.485
84112W        W56372  14.881  12.050   0.811
84113W        W56373  32.140  40.139  14.407
84114W        W56374   3.476   4.317   3.228
84115W        W56375  37.574  17.243   0.360
84116W        W56376   5.466  41.793  12.225
84117W        W56377  21.260  13.176  13.755
84118W        W56378  20.796  15.614  10.902
84119W        W56379  30.938  15.376  12.900
84120W        W56380   0.276   8.914  13.584
84121W        W56381  12.811   5.110   1.753
84122W        W56382  32.380  35.065   1.756
84123W        W56383  40.737   6.010   3.263
84124W        W56384  25.586   1.328  13.045
84125W        W56385  14.569  11.236  11.619
84126W        W56386  19.551  30.697   2.817
84127W        W56387   8.561  42.495  13.652
84128W        W56388  34.816  30.660  13.634
84129W        W56389   5.975  20.711   4.882
84130W        W56390  28.170  44.187   1.816
84131W        W56391   0.173  29.533  12.842
84132W        W56392  27.713  35.855   3.626
84133W        W56393   0.863  16.858  11.330
84134W        W56394   6.097  23.319  11.190
84135W        W56395  39.476  37.951  11.183
84136W        W56396  42.338  35.291   1.347
84137W        W56397   9.296  35.669  12.404
84138W        W56398   4.779  30.585   3.930
84139W        W56399  36.340  15.074   0.929
84140W        W56400   6.410  11.751   1.449
84141W        W56401   2.943  23.227  11.638
84142W        W56402  35.458  16.500   4.877
84143W        W56403  42.040  28.012  14.765
84144W        W56404  11.655  32.648   2.746
84145W        W56405  12.240   9.334  12.484
84146W        W56406  40.119   3.430   3.295
84147W        W56407  13.039  20.196  11.367
84148W        W56408  43.018   0.539  11.605
84149W        W56409  13.363  44.514  12.097
84150W        W56410  19.677  28.531   3.812
84151W        W56411  43.279   9.438   2.387
84152W        W56412  18.435   0.846   2.313
84153W        W56413  36.851  34.888   1.364
84154W        W56414  22.669  25.970  11.120
84155W        W56415  10.855  24.622  10.776
84156W        W56416  20.110   5.583   5.471
84157W        W56417  27.516   4.391  11.560
84158W        W56418  10.063   4.715  12.914
84159W        W56419  30.121   2.469  13.764
84160W        W56420  28.985  37.581  13.753
84161W        W56421  28.576   2.291   1.995
84162W        W56422  34.878  14.694  11.758
84163W        W56423   0.844  10.368  12.924
84164W        W56424  26.139  25.225   1.010
84165W        W56425  29.556  35.552  13.696
84166W        W56426  31.536  44.841   4.225
84167W        W56427   4.035  32.480  10.673
84168W        W56428  42.878  18.063  11.711
84169W        W56429  40.928   7.347   4.695
84170W        W56430   1.516  17.362  13.795
84171W        W56431  15.847  24.087  10.760
84172W        W56432  28.196   9.748  10.505
84173W        W56433   9.331  27.214   0.899
84174W        W56434  34.684  28.157   1.846
84175W        W56435   0.399  20.645   0.789
84176W        W56436  32.002   3.974   1.112
84177W        W56437  28.487   6.006   4.135
84178W        W56438  11.485  31.964  14.758
84179W        W56439  21.215  38.616  11.126
84180W        W56440  33.392   1.382  14.534
84181W        W56441   2.554  17.749   2.709
84182W        W56442  37.622  32.992   1.374
84183W        W56443   1.144   5.497   2.119
84184W        W56444  13.002  44.493   3.785
84185W        W56445  40.213  43.877  13.450
84186W        W56446  32.887  30.171   2.258
84187W        W56447   8.183  31.570   0.388
84188W        W56448  31.601   5.371  10.930
84189W        W56449  38.032  30.423   1.799
84190W        W56450  33.528  43.781  10.680
84191W        W56451  11.707   9.846   1.180
84192W        W56452  27.018  23.827   0.821
84193W        W56453  12.364  20.210   4.833
84194W        W56454  34.151  15.119   0.791
84195W        W56455   5.517  29.048  10.046
84196W        W56456   7.230  14.491  10.740
84197W        W56457  24.765  29.056  13.984
84198W        W56458  26.472   9.592   0.718
84199W        W56459  40.504  17.798  14.697
84200W        W56460  29.929  37.383   1.404
84201W        W56461  12.155  30.005  14.403
84202W        W56462  31.501  27.900  12.158
84203W        W56463  44.049   6.796   3.655
84204W        W56464  24.162  18.060  12.036
84205W        W56465  33.252  36.382  13.578
84206W        W56466  31.354  20.666  13.554
84207W        W56467  10.776  21.238   2.324
84208W        W56468  43.570  39.048   3.170
84209W        W56469  28.620  10.682   1.706
84210W        W56470  38.540  36.005   4.180
84211W        W56471  22.737   3.885  14.923
84212W        W56472  14.379  19.235  14.740
84213W        W56473  37.916  27.606   1.685
84214W        W56474  16.134  16.686  10.324
84215W        W56475  19.571  10.650   0.869
84216W        W56476  39.323  11.666  11.134
84217W        W56477   9.085  12.558   4.569
84218W        W56478  10.907   6.821   0.359
84219W        W56479  40.964  11.825   1.602
84220W        W56480  15.070  11.582  14.954
84221W        W56481  36.318   1.330   3.060
84222W        W56482  31.396  35.501   3.459
84223W        W56483   0.839  29.708  11.717
84224W        W56484  29.471   1.951   4.689
84225W        W56485   4.764  22.950  13.944
84226W        W56486  11.380  34.127  14.371
84227W        W56487  21.501  16.112   3.089
84228W        W56488  22.630  26.683   4.599
84229W        W56489  24.407  24.240  13.915
84230W        W56490  11.909   6.028  14.310
84231W        W56491   4.333  17.826   1.995
84232W        W56492  39.450  16.855  13.362
84233W        W56493   5.347  27.906   0.036
84234W        W56494  33.072  14.097   0.401
84235W        W56495  24.229   4.705  11.509
84236W        W56496  41.999  38.137  11.404
84237W        W56497  29.404  18.783   3.528
84238W        W56498  26.535  38.467   2.917
84239W        W56499  37.815  37.897  11.825
84240W        W56500  25.749  26.190  11.327
84241W        W56501  19.817  25.485   3.179
84242W        W56502  18.632  27.711  14.399
84243W        W56503  11.112  35.325  14.682
84244W        W56504  44.133  18.386  13.604
84245W        W56505   8.287  14.123   3.866
84246W        W56506   0.925   7.928  11.284
84247W        W56507  16.555  37.276   1.498
84248W        W56508  18.761  43.249  12.764
84249W        W56509  26.603  16.976  12.034
84250W        W56510   9.710   8.362   2.446
84251W        W56511   4.308  10.794  12.144
84252W        W56512  14.110  15.346   3.217
84253W        W56513  28.607  30.114  14.459
84254W        W56514  24.570  21.666   3.885
84255W        W56515  30.103  28.147   0.372
84256W        W56516  38.808   5.720  14.852
84257W        W56517  12.782  30.023   1.675
84258W        W56518  28.667   0.443   4.030
84259W        W56519  31.392  28.690  13.464
84260W        W56520  32.104   3.272   2.629
84261W        W56521  35.907  22.533   1.846
84262W        W56522  31.612  13.597  14.229
84263W        W56523  36.535  23.147   4.157
84264W        W56524  44.810  22.966  11.144
84265W        W56525  21.637  25.711  11.046
84266W        W56526  24.571   4.293  14.696
84267W        W56527  21.512  14.218  11.466
84268W        W56528  29.982   3.459   0.355
84269W        W56529  41.381  40.148   1.865
84270W        W56530  31.991  44.958  11.325
84271W        W56531  16.982  26.480  11.506
84272W        W56532  14.809  15.801  13.076
84273W        W56533  10.297   4.964  13.292
84274W        W56534  12.393   5.821  13.397
84275W        W56535  35.752   9.046   3.604
84276W        W56536  32.113  15.855   4.532
84277W        W56537  33.378  27.069   2.396
84278W        W56538  15.094   6.198   2.897
84279W        W56539  25.047  35.700   3.764
84280W        W56540  32.600  17.399   4.930
84281W        W56541  12.301   9.809  11.516
84282W        W56542  31.470  40.557  12.469
84283W        W56543  10.699  18.663  12.698
84284W        W56544  32.572  10.858   3.347
84285W        W56545  10.289   3.612  14.953
84286W        W56546   2.232  32.501  11.201
84287W        W56547  37.191  27.227   4.625
84288W        W56548  39.938  34.398   0.312
84289W        W56549   6.889   9.152   0.470
84290W        W56550  13.034  41.463  11.997
84291W        W56551  40.411   2.391  13.135
84292W        W56552  12.110  35.452  14.495
84293W        W56553  10.348  40.113   4.151
84294W        W56554  17.530   8.164   2.223
84295W        W56555  30.856  38.990   3.367
84296W        W56556  40.778  23.522   2.170
84297W        W56557  19.631  23.923   3.754
84298W        W56558  20.760   4.806  11.215
84299W        W56559  27.244  36.635   0.235
84300W        W56560  19.686  38.306   0.536
84301W        W56561  44.986   0.037  12.030
84302W        W56562  30.121  22.833  12.563
84303W        W56563   6.355  19.658   3.605
84304W        W56564   3.672  30.544   3.644
84305W        W56565  26.517  27.067   1.278
84306W        W56566   4.743   9.737  11.089
84307W        W56567  31.962  35.369  14.893
84308W        W56568   5.079  23.541  14.799
84309W        W56569  27.152  35.020   3.834
84310W        W56570  35.895   0.833   4.665
84311W        W56571  19.312   9.691   4.566
84312W        W56572  15.754   9.260  11.746
84313W        W56573  13.586  30.700   2.304
84314W        W56574  37.070   8.235   5.240
84315W        W56575  23.957   2.472  13.902
84316W        W56576  11.011  18.057   0.356
84317W        W56577   6.365  36.066   3.855
84318W        W56578  35.281   1.434   1.264
84319W        W56579   4.451  12.388  12.906
84320W        W56580   0.327  41.556  11.726
84321W        W56581   0.500  32.436  11.570
84322W        W56582  39.834  41.297  11.206
84323W        W56583   2.559  20.275   4.632
84324W        W56584  38.845  27.519  10.180
84325W        W56585  41.732  20.969   9.946
84326W        W56586  29.360  40.508   0.467
84327W        W56587  30.489   3.334   0.303
84328W        W56588  21.895  28.771   9.684
84329W        W56589   0.058  11.879  13.057
84330W        W56590   1.160  25.129   1.849
84331W        W56591  32.644  15.787  10.879
84332W        W56592  35.948  29.759   1.917
84333W        W56593  24.230  34.869  11.069
84334W        W56594  35.596  28.818  14.290
84335W        W56595  27.583  14.422  10.814
84336W        W56596   4.194  33.800  11.604
84337W        W56597  33.043  27.993  11.009
84338W        W56598  16.559  24.290  13.555
84339W        W56599  11.409  30.535  11.178
84340W        W56600   6.446  37.432  12.670
84341W        W56601   3.626  24.890   4.096
84342W        W56602   1.295  15.398   1.158
84343W        W56603  26.658  41.431  11.591
84344W        W56604  44.584   5.290   5.243
84345W        W56605  32.858  11.237  10.649
84346W        W56606  37.275  38.855   0.483
84347W        W56607  31.757   6.772  12.552
84348W        W56608   3.720  11.749  14.397
84349W        W56609  21.716  25.751  14.438
84350W        W56610  40.851  40.880   3.731
84351W        W56611  16.449  14.629   5.511
84352W        W56612  37.105  44.396   0.312
84353W        W56613  20.024   3.550   4.385
84354W        W56614  33.978  10.865  11.077
84355W        W56615  41.028  35.042   0.233
84356W        W56616  43.410  16.122   4.396
84357W        W56617  12.818  11.253   4.712
84358W        W56618  18.702   1.737  11.697
84359W        W56619  21.784  17.190  13.935
84360W        W56620   3.872  35.025   3.193
84361W        W56621  36.423  41.352  10.717
84362W        W56622  24.345   3.430   1.008
84363W        W56623   6.490  15.821  11.114
84364W        W56624  39.814  43.764  10.709
84365W        W56625   7.444  16.496   3.558
84366W        W56626  31.832   6.862  11.223
84367W        W56627   1.304  16.784  11.562
84368W        W56628  36.610  11.178  10.654
84369W        W56629  32.169   9.135   3.273
84370W        W56630  21.777  16.492   2.854
84371W        W56631  43.169  11.365  12.542
84372W        W56632  34.746   5.676  13.493
84373W        W56633  14.046  39.873   4.302
84374W        W56634   4.094  43.743   0.905
84375W        W56635  11.223   8.892   3.725
84376W        W56636   5.845  39.532  14.746
84377W        W56637  37.950  21.263  14.989
84378W        W56638   1.666  29.207  13.459
84379W        W56639  22.611   4.142   1.376
84380W        W56640  44.300  10.176   2.752
84381W        W56641   7.742  13.415   1.833
84382W        W56642  31.059  12.876  13.181
84383W        W56643  40.331  38.936   4.175
84384W        W56644   3.828  34.632  10.834
84385W        W56645  31.828   6.827   2.586
84386W        W56646   2.234  26.130   2.811
84387W        W56647  26.252   2.383  13.319
84388W        W56648  19.169   8.514  12.042
84389W        W56649  41.300  29.987  14.591
84390W        W56650  13.659  13.406   0.684
84391W        W56651  23.083  10.379  11.682
84392W        W56652   9.065   6.869  12.831
84393W        W56653  30.216  30.462  11.134
84394W        W56654  17.661  15.671  11.661
84395W        W56655  33.500  41.026  13.931
84396W        W56656  13.109  10.772   0.457
84397W        W56657  17.303  27.904   4.956
84398W        W56658  35.409  31.444  14.210
84399W        W56659   8.692  23.743   0.526
84400W        W56660  27.957  42.770   0.749
84401W        W56661   8.694  20.678  10.969
84402W        W56662  14.205  43.298  14.952
84403W        W56663  27.728  42.354   3.593
84404W        W56664  29.450   1.331   1.025
84405W        W56665  32.681  11.693   4.281
84406W        W56666   2.370  11.203  14.224
84407W        W56667  19.396  26.167   4.644
84408W        W56668  43.917  22.703  10.751
84409W        W56669  14.231   8.238   0.854
84410W        W56670  34.990  14.134   1.283
84411W        W56671  31.078  30.308   2.290
84412W        W56672  30.972   9.881   2.420
84413W        W56673   1.013  38.467  13.982
84414W        W56674   1.182  39.140   2.756
84415W        W56675  28.866  25.092  10.456
84416W        W56676  17.341  28.682   0.931
84417W        W56677   3.677  23.181  12.974
84418W        W56678  19.836  19.539   5.146
84419W        W56679  43.744   7.638   3.852
84420W        W56680  31.584   3.307   0.995
84421W        W56681  19.131   8.472  14.332
84422W        W56682  16.128  15.198   4.024
84423W        W56683   1.737  36.975  11.443
84424W        W56684  20.607  40.832   2.393
84425W        W56685  26.972  28.911   2.752
84426W        W56686  41.969  11.306   2.829
84427W        W56687  19.490   0.491  13.054
84428W        W56688  33.034  36.783  11.443
84429W        W56689   4.322   2.440  11.515
84430W        W56690  25.974  19.528   2.483
84431W        W56691  24.247  31.898   3.279
84432W        W56692  31.931  16.767   2.979
84433W        W56693  37.034  27.509   3.256
84434W        W56694  29.225   5.753   3.841
84435W        W56695  23.171  35.342  12.465
84436W        W56696   2.720  36.320   2.831
84437W        W56697  42.990   7.374   9.835
84438W        W56698   0.996  35.913  12.037
84439W        W56699   7.838  12.629   4.609
84440W        W56700  17.597  25.198  10.826
84441W        W56701  16.661  44.852  12.491
84442W        W56702  25.033   8.354  13.975
84443W        W56703  23.190   6.661   4.598
84444W        W56704  19.527  14.652   0.335
84445W        W56705  16.155   2.975  10.621
84446W        W56706  29.731   2.483   4.601
84447W        W56707  32.369  37.119   3.757
84448W        W56708   7.446  28.488  11.335
84449W        W56709   3.523   8.731  12.382
84450W        W56710   1.843  36.156  11.146
84451W        W56711  16.186  19.142  11.669
84452W        W56712  15.424  31.645   3.125
84453W        W56713  34.503  37.509   0.290
84454W        W56714  36.793  21.781  14.691
84455W        W56715   1.083  11.765  11.206
84456W        W56716  37.670   2.502  12.034
84457W        W56717  24.472  33.432   4.352
84458W        W56718  13.340  42.696   3.350
84459W        W56719  44.430  37.912   2.320
84460W        W56720  31.465  24.368   4.505
84461W        W56721  27.231  37.389  11.865
84462W        W56722  10.240   3.392   2.840
84463W        W56723  19.533  18.552   4.162
84464W        W56724  17.674   8.416   9.707
84465W        W56725  28.071  11.010  10.222
84466W        W56726  37.939   9.672   5.495
84467W        W56727  43.301  14.794  14.169
84468W        W56728  37.788  37.465  11.542
84469W        W56729   8.126   1.340   1.837
84470W        W56730   7.304  17.591  14.452
84471W        W56731  13.008   3.972  12.195
84472W        W56732  26.043  36.403  14.773
84473W        W56733   1.186  17.618  11.113
84474W        W56734  13.957   5.479  14.684
84475W        W56735   4.806  42.912   1.156
84476W        W56736  26.067  35.420  13.027
84477W        W56737  41.953  41.790   0.978
84478W        W56738  19.831  16.333  14.888
84479W        W56739  30.629   3.342  11.953
84480W        W56740   3.283  36.527   3.654
84481W        W56741  16.976  32.983  11.370
84482W        W56742   3.355  27.886  10.482
84483W        W56743  10.186  39.627  14.402
84484W        W56744  18.228  34.315  11.208
84485W        W56745  19.777  28.644  12.092
84486W        W56746  13.696  10.561  12.353
84487W        W56747  20.093  33.968  14.348
84488W        W56748  30.871  43.073  14.925
84489W        W56749  32.231  41.961  12.544
84490W        W56750  14.277  10.156   0.645
84491W        W56751   6.302  44.104   1.500
84492W        W56752   1.535  35.765  11.181
84493W        W56753  25.690  26.138   1.983
84494W        W56754  41.786  40.858  12.798
84495W        W56755  30.385  21.470   2.306
84496W        W56756  15.187  14.578  12.341
84497W        W56757  36.270  22.628  11.985
84498W        W56758   9.914   2.626   0.824
84499W        W56759   4.214  41.233  12.231
84500W        W56760  39.064  39.336   0.809
84501W        W56761  35.561  36.934  13.421
84502W        W56762  11.181  36.808   1.782
84503W        W56763  30.406  32.154   1.805
84504W        W56764   6.677  35.828  10.913
84505W        W56765  34.955  16.930   4.033
84506W        W56766  34.383  12.614  14.532
84507W        W56767  20.839  30.111  12.105
84508W        W56768  17.458   4.998   2.245
84509W        W56769   3.498  17.777  13.071
84510W        W56770   3.228  13.087   4.614
84511W        W56771  11.622   3.509  13.387
84512W        W56772   1.661  25.001  13.904
84513W        W56773  44.789  34.877  14.065
84514W        W56774   1.802  28.054   3.483
84515W        W56775  40.408  15.134  13.887
84516W        W56776  28.117   2.093  11.236
84517W        W56777  13.304  22.280  14.018
84518W        W56778  34.577   7.126   2.433
84519W        W56779  36.645   8.878  13.569
84520W        W56780  38.727  18.168  13.532
84521W        W56781  41.589   9.221   1.502
84522W        W56782   2.658  26.405   2.734
84523W        W56783  14.883  18.358   4.160
84524W        W56784   1.717  41.914   3.701
84525W        W56785  35.869  18.364   1.823
84526W        W56786  26.139  35.129  11.391
84527W        W56787   2.777  25.754   3.680
84528W        W56788  32.151  28.155   1.323
84529W        W56789  40.331   7.383  12.562
84530W        W56790   8.474  39.962   4.063
84531W        W56791  23.065  13.845  12.033
84532W        W56792  23.166   6.251  13.855
84533W        W56793   7.682  44.363  14.515
84534W        W56794  19.662  36.872   3.182
84535W        W56795  15.027  35.291  13.241
84536W        W56796  41.527  25.936   0.921
84537W        W56797  32.153  37.375  12.596
84538W        W56798  24.574  29.539   4.154
84539W        W56799  26.555  23.313  12.648
84540W        W56800  17.745   9.282   1.466
84541W        W56801   3.963  43.343  14.393
84542W        W56802  22.599  23.002  10.584
84543W        W56803   0.019  16.555  11.728
84544W        W56804  25.175  24.377  13.151
84545W        W56805  34.063  28.127  14.256
84546W        W56806  22.464  33.518  11.932
84547W        W56807  18.704  41.326  12.630
84548W        W56808  35.004  40.854   0.963
84549W        W56809  11.299  10.186   4.640
84550W        W56810  17.035   4.648   4.143
84551W        W56811  25.954  20.595  12.108
84552W        W56812  38.791   3.793  13.956
84553W        W56813  28.706  24.640   2.569
84554W        W56814  32.301  37.110   2.251
84555W        W56815  23.948   3.240   1.420
84556W        W56816  41.267   8.209   2.935
84557W        W56817  22.064  32.734   1.290
84558W        W56818  29.884  43.892  11.171
84559W        W56819  22.712   7.325   4.194
84560W        W56820  34.007  14.496   4.725
84561W        W56821  20.106  12.624   2.716
84562W        W56822  27.586  30.607   4.207
84563W        W56823  18.551  29.029  10.593
84564W        W56824  14.269   0.622   0.294
84565W        W56825  37.484  35.540   2.118
84566W        W56826  13.034  44.843   2.803
84567W        W56827  25.979  43.718  13.521
84568W        W56828   9.259  19.006  12.866
84569W        W56829  26.063  36.449  14.253
84570W        W56830  44.578   4.787   4.431
84571W        W56831   8.459  29.770   1.831
84572W        W56832  22.518  14.345   3.675
84573W        W56833  39.402  21.496  12.040
84574W        W56834  23.606  18.536   5.029
84575W        W56835  44.392   1.900  10.063
84576W        W56836  15.851  32.078   2.572
84577W        W56837  37.370  18.600   1.970
84578W        W56838  22.710  35.519   0.649
84579W        W56839  34.861  26.391   0.270
84580W        W56840   0.360  13.955  11.605
84581W        W56841   2.160   9.649   3.186
84582W        W56842   8.421  29.474   4.594
84583W        W56843  18.615  33.653   1.176
84584W        W56844  38.880  20.342  11.077
84585W        W56845  42.239  43.917   0.882
84586W        W56846  39.555  25.710  11.582
84587W        W56847  24.739  38.589   4.523
84588W        W56848  18.518  16.689   2.890
84589W        W56849  20.197  39.246  13.085
84590W        W56850  37.413  31.878   3.775
84591W        W56851  13.994  14.530  10.211
84592W        W56852  16.859  22.008   1.756
84593W        W56853  14.161   8.490   1.329
84594W        W56854  13.491   4.304  14.800
84595W        W56855  10.047  42.832  14.351
84596W        W56856  43.527  25.799  10.430
84597W        W56857  19.319  41.707   3.296
84598W        W56858  41.659  21.487  13.328
84599W        W56859  27.436   0.461  12.588
84600W        W56860  22.691  39.828   0.412
84601W        W56861  14.563  32.869   2.058
84602W        W56862  25.131   0.566   3.622
84603W        W56863  23.604  22.246  10.613
84604W        W56864  31.921  19.640   5.100
84605W        W56865  39.337  13.366   5.135
84606W        W56866  15.175  22.798   1.914
84607W        W56867   2.826  39.445   0.456
84608W        W56868   0.018  44.507   2.925
84609W        W56869   0.772  20.832   2.293
84610W        W56870  28.663   5.758  11.720
84611W        W56871   9.909  11.206   4.424
84612W        W56872  36.565  11.439  11.101
84613W        W56873  40.860  36.488  11.393
84614W        W56874  19.743   5.872  12.777
84615W        W56875  18.007   6.302  11.242
84616W        W56876  42.479  18.103   0.054
84617W        W56877  40.747  44.032   3.514
84618W        W56878  21.430  22.135   0.941
84619W        W56879  39.081  43.903  11.084
84620W        W56880  12.150  26.667   0.850
84621W        W56881  31.481   6.326   0.468
84622W        W56882  29.042  12.798  11.857
84623W        W56883  12.609   7.440   0.013
84624W        W56884  16.083   8.169  12.012
84625W        W56885  23.870   5.362  13.435
84626W        W56886  36.423   1.918  14.971
84627W        W56887  20.030  22.403  13.059
84628W        W56888   7.610   2.195   2.830
84629W        W56889  33.024   2.273   1.404
84630W        W56890  25.186   2.665   4.329
84631W        W56891  35.822  43.867  14.071
84632W        W56892  12.576  23.563  12.497
84633W        W56893   6.232  29.486   1.211
84634W        W56894  30.358  43.326   1.722
84635W        W56895   8.035  27.647  11.522
84636W        W56896   5.787  28.035  12.931
84637W        W56897  24.417  27.399  10.624
84638W        W56898  10.350  11.075   4.098
84639W        W56899  13.607  36.493   1.222
84640W        W56900  14.536  32.936   3.577
84641W        W56901  43.499  28.043   1.282
84642W        W56902  31.900  21.758   2.458
84643W        W56903  23.613  10.666   4.681
84644W        W56904   3.741   9.617  11.237
84645W        W56905  35.558  34.509  14.017
84646W        W56906   0.677   8.227  12.474
84647W        W56907  23.646  12.189  11.769
84648W        W56908  39.330  20.275   4.610
84649W        W56909   0.382   1.777  12.391
84650W        W56910  11.353  11.334   4.913
84651W        W56911   1.103  44.950   0.554
84652W        W56912  38.062  39.061  12.395
84653W        W56913   5.404  31.676   4.354
84654W        W56914  10.119  12.078  11.203
84655W        W56915  33.998  26.989  13.344
84656W        W56916  43.362  35.623   2.975
84657W        W56917   6.700  24.420  11.530
84658W        W56918  18.839  36.374  14.916
84659W        W56919  29.200  43.952   4.721
84660W        W56920  44.768  34.300   2.716
84661W        W56921   5.747   8.826  14.727
84662W        W56922  17.646   5.643   1.671
84663W        W56923  18.362  28.283   3.252
84664W        W56924  29.745  29.603  10.009
84665W        W56925   2.752  20.573  11.231
84666W        W56926  40.428  11.710  13.017
84667W        W56927  31.170   8.273  11.317
84668W        W56928  29.712   6.191  11.956
84669W        W56929   6.245   2.797  13.035
84670W        W56930  23.440  36.353   4.636
84671W        W56931  32.002  26.237  14.843
84672W        W56932  37.113  20.372   1.685
84673W        W56933   4.482  42.185  12.386
84674W        W56934  28.647  12.580   0.188
84675W        W56935  43.457  17.568   0.312
84676W        W56936  23.822  14.393   5.065
84677W        W56937  11.747  11.393   1.692
84678W        W56938   3.016  20.000   2.347
84679W        W56939   4.229  41.978   2.970
84680W        W56940   9.407  40.622  13.834
84681W        W56941   9.668   4.013  14.498
84682W        W56942   5.481  27.725  11.128
84683W        W56943  38.518  36.847  14.667
84684W        W56944   5.691  21.298   3.692
84685W        W56945  14.822  12.537  12.191
84686W        W56946  17.242  13.290  12.405
84687W        W56947  43.098   7.438   2.554
84688W        W56948  33.792  18.657   1.703
84689W        W56949  15.133  24.953  12.023
84690W        W56950   2.445   6.579   4.024
84691W        W56951   6.244  31.446  12.955
84692W        W56952   1.596  38.976   4.516
84693W        W56953   9.943   0.453   2.862
84694W        W56954  26.251  17.660   0.439
84695W        W56955  35.550  40.750   3.644
84696W        W56956  23.493  42.636   3.216
84697W        W56957  37.304  10.573   4.289
84698W        W56958  23.455   0.827   4.834
84699W        W56959  10.276  32.247   3.150
84700W        W56960  29.214   3.706   3.794
84701W        W56961  41.820  38.037  14.368
84702W        W56962  25.195  32.520   0.453
84703W        W56963  12.603   1.756  10.683
84704W        W56964  32.387  35.407   4.138
84705W        W56965   7.945  34.688   3.706
84706W        W56966  37.963  28.602   2.396
84707W        W56967  14.296   2.428   0.774
84708W        W56968  24.487  42.263  12.292
84709W        W56969   1.271   7.228   0.541
84710W        W56970   7.069  22.038  13.031
84711W        W56971  27.907  22.242   2.241
84712W        W56972  23.540  20.157  14.323
84713W        W56973  12.705  17.546   1.752
84714W        W56974   9.587  31.001   0.858
84715W        W56975  16.169   3.784  14.213
84716W        W56976  41.495  31.749   5.091
84717W        W56977  18.512  41.778   2.838
84718W        W56978  14.248   3.839  11.407
84719W        W56979  34.428  24.114   2.273
84720W        W56980  11.593  12.348   0.576
84721W        W56981  26.929  40.653   0.830
84722W        W56982  12.852   3.511  12.370
84723W        W56983  41.874  19.675   0.895
84724W        W56984  19.803  42.901  14.614
84725W        W56985  34.611  43.873  10.659
84726W        W56986  10.856   3.369   3.538
84727W        W56987  34.783  14.079   3.900
84728W        W56988  10.794  32.081  12.073
84729W        W56989  16.098  27.885  11.085
84730W        W56990  31.466   1.293  12.478
84731W        W56991  39.740   6.753  12.031
84732W        W56992  24.982  33.503   4.453
84733W        W56993   4.434  11.762  14.039
84734W        W56994  29.915  13.553   3.224
84735W        W56995  25.242  37.994   2.559
84736W        W56996   9.612  35.754  11.599
84737W        W56997  11.264   1.434   4.493
84738W        W56998  21.245  40.219  14.334
84739W        W56999  29.489  39.622  11.893
84740W        W57000  22.568  43.554   1.797
84741W        W57001  21.693  38.005  13.313
84742W        W57002  23.864  24.522  13.508
84743W        W57003  23.129  25.545  10.679
84744W        W57004  31.808   4.478  13.067
84745W        W57005  33.222  40.352  10.956
84746W        W57006   4.692  18.278  14.855
84747W        W57007  28.419  16.115   1.356
84748W        W57008   2.039   3.218   2.306
84749W        W57009   7.188  39.951   2.760
84750W        W57010  31.429  26.426  11.421
84751W        W57011  23.435   0.856  13.138
84752W        W57012  24.273  32.920   2.791
84753W        W57013  42.910  12.567  11.937
84754W        W57014  26.587  41.006  13.830
84755W        W57015  27.704   7.528   4.873
84756W        W57016  44.920  28.074  12.995
84757W        W57017  30.009  28.099  13.782
84758W        W57018   2.827  17.645  11.504
84759W        W57019  15.308  36.533  12.165
84760W        W57020  11.060  14.306   1.937
84761W        W57021  28.401  32.494   5.067
84762W        W57022   8.175  12.939  13.000
84763W        W57023  13.730  37.918   2.894
84764W        W57024   8.330  19.787   0.567
84765W        W57025  23.180  29.875  14.270
84766W        W57026  30.896  28.282   1.911
84767W        W57027  12.393  22.498  11.101
84768W        W57028  16.295  40.457   0.262
84769W        W57029  30.456  41.234   3.789
84770W        W57030  33.267  39.759   1.323
84771W        W57031  18.889  25.151   4.096
84772W        W57032  22.829  35.001   1.425
84773W        W57033  18.652  41.335  11.605
84774W        W57034  37.915  28.604   3.738
84775W        W57035  34.823  21.259   3.313
84776W        W57036  13.727   8.341  11.744
84777W        W57037  37.577  36.901   1.824
84778W        W57038   7.979   3.112   2.447
84779W        W57039  36.011  26.681   2.939
84780W        W57040   2.339  43.373  13.995
84781W        W57041   7.653  12.225  12.030
84782W        W57042  17.704   2.768  11.412
84783W        W57043  40.912   9.650   2.149
84784W        W57044  24.691  18.459   0.284
84785W        W57045   8.623  16.579  11.118
84786W        W57046  34.865  21.042  13.478
84787W        W57047  36.493  35.116   4.051
84788W        W57048  44.520  37.904   1.425
84789W        W57049  18.871  16.765  12.020
84790W        W57050  32.332  38.883  12.195
84791W        W57051  11.948  38.428   3.777
84792W        W57052  18.464  42.405  12.239
84793W        W57053  28.025  36.601   2.737
84794W        W57054  11.020  17.409   4.177
84795W        W57055  25.663  34.373  12.418
84796W        W57056  11.416  21.082  10.696
84797W        W57057  42.361  25.826  13.181
84798W        W57058  41.039  18.106  11.324
84799W        W57059   0.164   9.711  14.038
84800W        W57060  32.937  29.566  14.056
84801W        W57061  20.163   8.205   0.798
84802W        W57062  36.547   0.941  14.734
84803W        W57063  35.290  31.359  12.881
84804W        W57064   1.707  33.469  11.227
84805W        W57065  19.056  12.133  12.931
84806W        W57066  16.503  12.156   2.752
84807W        W57067  17.581  20.480  12.070
84808W        W57068  29.842   1.253   2.226
84809W        W57069  31.738  42.981  13.395
84810W        W57070  30.923  13.211   4.295
84811W        W57071  28.874  19.091  10.660
84812W        W57072   2.707  15.294   3.851
84813W        W57073  32.030  42.284   0.381
84814W        W57074  15.546  34.716   5.340
84815W        W57075   3.016  19.679  12.959
84816W        W57076  27.339  36.276   1.429
84817W        W57077  18.260  26.133   0.751
84818W        W57078  17.603  36.281  11.560
84819W        W57079  20.543  13.695   2.825
84820W        W57080  21.961  25.768  11.465
84821W        W57081  30.415  15.836   0.903
84822W        W57082  32.076  25.733  14.769
84823W        W57083  15.841   8.830   0.366
84824W        W57084  28.280  35.403  11.083
84825W        W57085  22.694  17.254   5.203
84826W        W57086  28.181   7.691   4.725
84827W        W57087  20.900  35.198   4.884
84828W        W57088   0.666  18.298   4.132
84829W        W57089  12.785  13.064   1.759
84830W        W57090  24.681  42.471  11.412
84831W        W57091  43.961  10.628   3.534
84832W        W57092  40.934  42.570  10.484
84833W        W57093  25.621   9.970   1.362
84834W        W57094  18.660  38.189   4.317
84835W        W57095  19.488  15.288  14.730
84836W        W57096  34.578   0.319   1.290
84837W        W57097  40.510   4.752   0.687
84838W        W57098  41.075  21.503  14.832
84839W        W57099  40.770  35.025  11.102
84840W        W57100  38.920  36.350   4.736
84841W        W57101  23.003  21.577  12.989
84842W        W57102  25.207  21.933  10.859
84843W        W57103  29.595  43.861  13.703
84844W        W57104  32.074  19.131  10.617
84845W        W57105  11.233  35.444   4.760
84846W        W57106  37.419  33.607  12.421
84847W        W57107   0.323   6.379  11.652
84848W        W57108  41.861  12.395   0.384
84849W        W57109  22.603   4.929  11.249
84850W        W57110   0.897  27.026  14.273
84851W        W57111  23.747  11.252  14.993
84852W        W57112  11.249  28.582   2.218
84853W        W57113  21.686  22.064  12.492
84854W        W57114  35.795  16.613   1.038
84855W        W57115  14.123  18.723   1.268
84856W        W57116  36.017  36.461   0.786
84857W        W57117  41.545   4.494  14.750
84858W        W57118  19.190  13.295  13.415
84859W        W57119  32.703  33.624   2.146
84860W        W57120  27.564  23.555   3.319
84861W        W57121  32.605  13.157  13.633
84862W        W57122   0.702  27.087   0.045
84863W        W57123  21.234  30.454  12.083
84864W        W57124  26.731  29.126   3.402
84865W        W57125  33.042   3.857  11.581
84866W        W57126  20.628  38.075   1.802
84867W        W57127   5.158  28.088   5.602
84868W        W57128  33.968  30.141   4.063
84869W        W57129  23.828  24.338   2.833
84870W        W57130  15.478  11.378   4.868
84871W        W57131  18.218   2.643   0.770
84872W        W57132  10.218  24.961  14.891
84873W        W57133  35.853  42.756  11.965
84874W        W57134  24.276  42.732  13.530
84875W        W57135  20.693  40.876  12.370
84876W        W57136  37.529   5.310   4.444
84877W        W57137   2.244  42.851   4.608
84878W        W57138  19.006  31.437  11.126
84879W        W57139  25.702  38.858  11.475
84880W        W57140  42.954  40.001   1.667
84881W        W57141  21.614  36.328   3.037
84882W        W57142  35.294  44.936  13.529
84883W        W57143  42.252   2.200  12.304
84884W        W57144  26.234   3.486  11.970
84885W        W57145  12.076  37.619   2.191
84886W        W57146   4.459  13.630   4.606
84887W        W57147   6.730  16.730   1.742
84888W        W57148  31.385  39.740   3.981
84889W        W57149   1.539   7.428  14.568
84890W        W57150  28.256  22.507  11.971
84891W        W57151  25.214   0.508  11.559
84892W        W57152  43.956   2.981   1.859
84893W        W57153  30.531   7.882  10.925
84894W        W57154  35.254  42.683  13.987
84895W        W57155  17.272  39.482   1.417
84896W        W57156  42.501  35.358  14.295
84897W        W57157  33.901  14.202  11.532
84898W        W57158  30.988  32.107   0.374
84899W        W57159  12.406  37.553  11.909
84900W        W57160   7.182  29.875   2.434
84901W        W57161  42.933  19.932  14.961
84902W        W57162  10.805  39.814   4.146
84903W        W57163  25.192  32.005   0.897
84904W        W57164  26.605  20.106  13.436
84905W        W57165  33.401  31.477  13.019
84906W        W57166  39.384   8.393   5.056
84907W        W57167  30.460  32.900   5.062
84908W        W57168  12.689  37.308   3.230
84909W        W57169   1.976   9.897  11.617
84910W        W57170  15.825  34.920   1.331
84911W        W57171  41.125  42.863  11.297
84912W        W57172  37.102  24.706   0.154
84913W        W57173  35.595  16.121  11.023
84914W        W57174  36.503  27.624   1.237
84915W        W57175  37.147  12.314   3.286
84916W        W57176  10.188  17.592   4.259
84917W        W57177  23.755   8.952   2.612
84918W        W57178  37.478  18.240   3.041
84919W        W57179   8.870  31.087   3.242
84920W        W57180  11.793  12.971  14.877
84921W        W57181  13.716  36.867   3.473
84922W        W57182  11.104  14.222  12.994
84923W        W57183  38.435   3.929  11.885
84924W        W57184  37.377  11.389   1.417
84925W        W57185  41.950  34.555  10.553
84926W        W57186   3.203  43.509   0.812
84927W        W57187  17.137  40.050  13.764
84928W        W57188   7.906  44.194   4.086
84929W        W57189   6.258  23.739  13.023
84930W        W57190  15.833   7.592   3.286
84931W        W57191  13.760  25.254  14.427
84932W        W57192   4.260   0.843  11.111
84933W        W57193  13.119  19.718  14.526
84934W        W57194   0.015  35.577   1.383
84935W        W57195   1.250  42.633  10.347
84936W        W57196  26.003  31.410   4.318
84937W        W57197  30.234  43.838   3.509
84938W        W57198   8.872  16.317  11.968
84939W        W57199  35.139  29.681  14.282
84940W        W57200  31.086  28.000   0.050
84941W        W57201  33.039  29.245  10.633
84942W        W57202   0.001  28.877   2.663
84943W        W57203  34.059  13.641   1.359
84944W        W57204  25.776  12.178   0.013
84945W        W57205  10.402   9.573  13.628
84946W        W57206  30.348   9.158  10.824
84947W        W57207  13.482  32.065   3.080
84948W        W57208  15.598   7.738  14.915
84949W        W57209   9.864   5.637  12.505
84950W        W57210  38.007  16.104  11.871
84951W        W57211  43.193  22.983  11.563
84952W        W57212  37.990   7.866   2.690
84953W        W57213  39.460   6.187  13.828
84954W        W57214  25.185  40.042   0.912
84955W        W57215   7.471  38.886   4.484
84956W        W57216  26.883  17.581   1.295
84957W        W57217  36.025  30.394   4.312
84958W        W57218  15.446  18.164   0.090
84959W        W57219  20.163  13.563   2.446
84960W        W57220   4.901   4.421   2.176
84961W        W57221  13.727   2.197   3.711
84962W        W57222  43.295  11.222  14.752
84963W        W57223  42.765  25.138  11.607
84964W        W57224  26.189  31.574   0.235
84965W        W57225  42.075  31.923   3.383
84966W        W57226  23.953   7.503  10.240
84967W        W57227   3.273  27.658   2.695
84968W        W57228  22.070  12.235  10.446
84969W        W57229  40.975  28.211  11.089
84970W        W57230  32.750  28.938  10.334
84971W        W57231   7.387   3.488  14.650
84972W        W57232  13.587  26.196   1.887
84973W        W57233  34.607   6.468  14.076
84974W        W57234   0.786  40.983   1.678
84975W        W57235  29.210  20.772  11.117
84976W        W57236  16.519   7.719   5.686
84977W        W57237  38.956   1.846   4.614
84978W        W57238  12.171  18.324   4.597
84979W        W57239  33.285  25.476   3.809
84980W        W57240  34.519  39.159   3.722
84981W        W57241  16.383  19.559   4.466
84982W        W57242  15.426  18.153   3.374
84983W        W57243  42.125  25.905   4.024
84984W        W57244  19.216   7.333   0.455
84985W        W57245  27.204  27.528   2.594
84986W        W57246  44.847   4.346   4.121
84987W        W57247  15.542  29.486  14.064
84988W        W57248  34.365  16.190  10.689
84989W        W57249  30.517  43.517   2.190
84990W        W57250   2.295   3.671   1.794
84991W        W57251  26.669   6.820  11.541
84992W        W57252  18.599  11.821   2.096
84993W        W57253  20.786   6.680  11.291
84994W        W57254  26.547   7.521   4.119
84995W        W57255   9.139  35.286   3.210
84996W        W57256   0.924  18.362   4.937
84997W        W57257   1.403  10.778  10.934
84998W        W57258  12.600  18.562   1.720
84999W        W57259   9.335  21.692  12.654
85000W        W57260   9.193  15.722  11.920
85001W        W57261  37.622   6.240  11.562
85002W        W57262   4.834  12.728   0.208
85003W        W57263   9.196   2.469   3.229
85004W        W57264  10.257   6.737  10.962
85005W        W57265  21.230   6.566   3.112
85006W        W57266  38.634   6.609   1.329
85007W        W57267  23.990   5.569   3.525
85008W        W57268  35.604  43.866  10.939
85009W        W57269  13.859  15.491  14.338
85010W        W57270  40.931  12.415   2.281
85011W        W57271  10.267  28.443   1.404
85012W        W57272  20.980  36.895  12.530
85013W        W57273  28.138  38.308  13.521
85014W        W57274  42.273  35.208   4.919
85015W        W57275  31.585  43.491   4.216
85016W        W57276  34.350  34.427  12.057
85017W        W57277  28.120  26.301   9.798
85018W        W57278   9.822   4.207  14.056
85019W        W57279  10.202   0.668   3.906
85020W        W57280   4.722  15.696   5.082
85021W        W57281  11.527  44.566  13.889
85022W        W57282  20.706  11.242  14.061
85023W        W57283   0.410  38.289   3.585
85024W        W57284  21.664  24.920  12.922
85025W        W57285  38.222  12.174  10.718
85026W        W57286  42.899   7.364  11.870
85027W        W57287  32.323  27.998   1.796
85028W        W57288  41.905   3.939  12.417
85029W        W57289  33.521   7.069  10.837
85030W        W57290  29.150  38.527  13.743
85031W        W57291  21.133   1.551   4.508
85032W        W57292  40.017   0.166   2.694
85033W        W57293   3.223   3.189  14.494
85034W        W57294  30.465  36.357   4.690
85035W        W57295  32.026  42.273   4.330
85036W        W57296  11.383  38.087   4.269
85037W        W57297  18.205  21.122   1.184
85038W        W57298   7.966  38.010  11.498
85039W        W57299   8.360  28.437  14.371
85040W        W57300  21.795  38.339  14.023
85041W        W57301  42.233  26.121  13.949
85042W        W57302   6.971  39.507   1.495
85043W        W57303  29.182  39.829   0.178
85044W        W57304  13.990   2.066  12.628
85045W        W57305  43.885  13.911  10.642
85046W        W57306  35.565  19.393  11.025
85047W        W57307  42.895  38.913  12.913
85048W        W57308  44.279  22.576   0.497
85049W        W57309  38.755   3.329   0.431
85050W        W57310  27.514  32.630   1.260
85051W        W57311  37.916  36.261  13.984
85052W        W57312  24.149  20.851  12.997
85053W        W57313  27.501   9.655  14.339
85054W        W57314   8.934  21.340   1.595
85055W        W57315  19.991  17.247  12.190
85056W        W57316  24.755  12.285  13.664
85057W        W57317  29.006   4.102   2.105
85058W        W57318  27.823  26.283   2.894
85059W        W57319   0.518  37.125  12.072
85060W        W57320  29.254  11.351   0.794
85061W        W57321   6.517  25.257  10.303
85062W        W57322   3.436  44.554   3.334
85063W        W57323  44.050  44.251  14.499
85064W        W57324  21.059  40.532  13.976
85065W        W57325   9.830  28.629   0.479
85066W        W57326  33.933  31.926   2.799
85067W        W57327  12.676  16.042   2.679
85068W        W57328  12.187  21.207   0.437
85069W        W57329  25.968  22.041   1.178
85070W        W57330  44.173  17.985  13.275
85071W        W57331  30.166   0.707   1.424
85072W        W57332  35.887  33.009   2.740
85073W        W57333   3.464  16.088   1.912
85074W        W57334  38.271   0.292  13.435
85075W        W57335  36.364  35.176  11.557
85076W        W57336  26.545  30.100  14.273
85077W        W57337  24.569  31.194  13.557
85078W        W57338  25.910  43.374  12.569
85079W        W57339  41.403  32.569   4.184
85080W        W57340  35.666  26.693  11.616
85081W        W57341  18.785  35.387  13.963
85082W        W57342   1.966  26.126  13.614
85083W        W57343  34.544  30.227  14.807
85084W        W57344  16.776   3.265   0.598
85085W        W57345  43.393  44.521  12.967
85086W        W57346  43.720  12.702   2.259
85087W        W57347   1.265  43.533   2.328
85088W        W57348  11.604   0.824  14.347
85089W        W57349  20.099  15.311  10.650
85090W        W57350  28.557  32.513   3.688
85091W        W57351  23.385  21.141   0.281
85092W        W57352  37.546   5.092  13.803
85093W        W57353  17.032  44.606   0.428
85094W        W57354  16.736  11.453   4.032
85095W        W57355  30.113  10.630   0.776
85096W        W57356  11.022  40.857   2.691
85097W        W57357  15.356  14.267  13.376
85098W        W57358  29.735  43.397  14.534
85099W        W57359  33.690  39.538  12.012
85100W        W57360  20.719   4.701   4.727
85101W        W57361  37.966  43.030   4.767
85102W        W57362  31.007  15.873   0.226
85103W        W57363  40.245  13.951   4.221
85104W        W57364  16.013  31.911   1.792
85105W        W57365   4.332  40.256  12.937
85106W        W57366  19.188   4.800   1.656
85107W        W57367  38.627  35.988  14.909
85108W        W57368   6.078   3.607   4.069
85109W        W57369  14.650  40.066   3.314
85110W        W57370  42.104  25.435  13.613
85111W        W57371  27.032   7.366   2.982
85112W        W57372  17.373   7.212  10.365
85113W        W57373  10.375  33.690   3.694
85114W        W57374  18.204  30.436   2.284
85115W        W57375  32.959  32.797   0.922
85116W        W57376  42.179  37.637  14.310
85117W        W57377  14.842  35.441  11.954
85118W        W57378  23.329  12.144  14.053
85119W        W57379  13.680  18.525  12.281
85120W        W57380  33.361   7.170   4.583
85121W        W57381  42.508   2.871   1.372
85122W        W57382   7.426  27.929  14.931
85123W        W57383   2.517   7.696   3.406
85124W        W57384  35.475  16.377   0.703
85125W        W57385  32.532   7.028   5.330
85126W        W57386  37.111   4.167  12.000
85127W        W57387  16.025  41.837  12.850
85128W        W57388  27.370  11.088   1.964
85129W        W57389  26.707  21.137   5.076
85130W        W57390   8.258  16.945  11.167
85131W        W57391   3.862  35.386  10.208
85132W        W57392  12.014  41.453   4.875
85133W        W57393  28.041  17.790   1.881
85134W        W57394  20.399  33.428  12.608
85135W        W57395  34.646  20.091   3.581
85136W        W57396  23.049  31.689  13.257
85137W        W57397  42.329   5.569   3.305
85138W        W57398  14.113   5.722   2.320
85139W        W57399  23.273  23.013   4.283
85140W        W57400  42.408  41.822   1.228
85141W        W57401  34.327  40.006   4.643
85142W        W57402  24.794  17.659   0.287
85143W        W57403  28.574  40.981  13.261
85144W        W57404  38.502  37.176  13.307
85145W        W57405  30.710  22.357   1.682
85146W        W57406   3.805   7.299   3.152
85147W        W57407  17.903   1.815  13.149
85148W        W57408  34.873  37.417  13.825
85149W        W57409  26.583  24.967  10.750
85150W        W57410  14.092  25.038  11.997
85151W        W57411  14.640  17.186   5.054
85152W        W57412  13.205   2.659  13.442
85153W        W57413  13.962   7.777   0.051
85154W        W57414  25.684  39.957  12.051
85155W        W57415  10.747  41.491  12.360
85156W        W57416   0.238  32.123  14.504
85157W        W57417  22.976  27.109  13.801
85158W        W57418  20.148   0.220   2.126
85159W        W57419  33.344  35.609  13.086
85160W        W57420  44.763  10.261  11.582
85161W        W57421  43.459   9.858   0.349
85162W        W57422   1.323  41.951   0.444
85163W        W57423  17.466  22.789   3.759
85164W        W57424  42.840  30.630  10.747
85165W        W57425  29.441  43.358  14.955
85166W        W57426  38.838  11.565  12.777
85167W        W57427  40.371  27.775  11.507
85168W        W57428  17.406  36.112  12.040
85169W        W57429   6.948  24.227   2.148
85170W        W57430  32.934   4.079   0.322
85171W        W57431  14.637   5.428   3.543
85172W        W57432  14.161  42.577  13.775
85173W        W57433  42.802  37.570   0.884
85174W        W57434  39.461   1.705   4.201
85175W        W57435   9.419  27.884  11.576
85176W        W57436   8.716  17.061  10.997
85177W        W57437  44.540  16.543  10.759
85178W        W57438   5.357  39.371  14.454
85179W        W57439  27.960  23.004  10.673
85180W        W57440  40.323  35.456  13.572
85181W        W57441  11.746  41.905  13.420
85182W        W57442   9.297  18.333   2.358
85183W        W57443  28.094  31.196  13.436
85184W        W57444  29.206  21.135   1.023
85185W        W57445  13.818   5.044  14.433
85186W        W57446  31.193   6.830   0.320
85187W        W57447  33.647  37.784  13.588
85188W        W57448  19.117  36.381   2.788
85189W        W57449  26.218  38.160  12.492
85190W        W57450  28.747   5.485  12.163
85191W        W57451   5.323  39.745  12.675
85192W        W57452  19.524  40.274   4.872
85193W        W57453  35.528  16.493   3.316
85194W        W57454  34.857  15.494  10.685
85195W        W57455   3.662   3.885  14.003
85196W        W57456  37.549  35.598  13.749
85197W        W57457  20.179  23.526  13.925
85198W        W57458   9.327  25.415  13.897
85199W        W57459  40.982  16.699  10.787
85200W        W57460  41.406   6.522   1.388
85201W        W57461  41.824   1.248  12.125
85202W        W57462   1.324  22.773   0.446
85203W        W57463  29.061  11.806  10.635
85204W        W57464  20.123  14.484  11.943
85205W        W57465  27.906  33.908  13.837
85206W        W57466   1.656  42.826   2.731
85207W        W57467  37.997  12.136   4.575
85208W        W57468  13.681  10.707   3.443
85209W        W57469  34.147  27.006   3.117
85210W        W57470  11.154  13.791   1.949
85211W        W57471  44.084  25.271  12.337
85212W        W57472   3.833  43.088  13.913
85213W        W57473  43.801  30.175   1.376
85214W        W57474  21.821  44.693  11.609
85215W        W57475   6.635  38.741   1.898
85216W        W57476  30.519  35.749  11.206
85217W        W57477  32.754  14.842   2.188
85218W        W57478  27.031   0.222  14.198
85219W        W57479  18.150  34.428  11.701
85220W        W57480  16.330  35.735   4.999
85221W        W57481  16.513  15.800  12.237
85222W        W57482  11.864  14.200   4.048
85223W        W57483  14.458   9.711   4.178
85224W        W57484  25.321   7.708  12.354
85225W        W57485  15.356  13.546  12.538
85226W        W57486  14.074   9.415  11.215
85227W        W57487  12.261  39.921  13.787
85228W        W57488  29.922  42.964   2.478
85229W        W57489   3.683  15.269  14.569
85230W        W57490  28.086   2.226  12.410
85231W        W57491  31.976  12.571   0.391
85232W        W57492   5.218  37.977   3.338
85233W        W57493   4.044  32.622   3.681
85234W        W57494  36.027  22.519  10.625
85235W        W57495  30.708   1.710  11.362
85236W        W57496  21.747   9.236   1.675
85237W        W57497  33.416  21.702  13.512
85238W        W57498  24.628   4.938   3.322
85239W        W57499  24.725   4.171   2.788
85240W        W57500  41.053   3.713  12.891
85241W        W57501  32.345  35.618   2.191
85242W        W57502  15.571   3.649   4.692
85243W        W57503  25.516  35.425  14.784
85244W        W57504   8.693  30.206   3.284
85245W        W57505  27.403  34.840  12.598
85246W        W57506  34.978   4.255  14.707
85247W        W57507  11.789   9.221  11.168
85248W        W57508  32.458  17.764  11.011
85249W        W57509  13.404  24.283   2.685
85250W        W57510  30.385  38.418  12.543
85251W        W57511  24.186  29.114  11.943
85252W        W57512   3.249  19.878  13.571
85253W        W57513  37.160  31.575   3.223
85254W        W57514  16.696  28.427   0.341
85255W        W57515  13.142  37.371  10.801
85256W        W57516  38.465  38.093   3.675
85257W        W57517  38.427   7.570   5.362
85258W        W57518  42.073  32.958   4.554
85259W        W57519  37.942  39.182  13.914
85260W        W57520   0.439  34.976   2.279
85261W        W57521  26.584  31.883  14.207
85262W        W57522  28.536  39.203  10.207
85263W        W57523  20.001  43.361  13.770
85264W        W57524   3.840  25.347   1.703
85265W        W57525  25.196  31.891   2.224
85266W        W57526  26.393  24.980   3.712
85267W        W57527   7.698  27.178  13.601
85268W        W57528   3.562  15.556  13.924
85269W        W57529  11.822  28.137   3.982
85270W        W57530  32.175  36.146   3.238
85271W        W57531  23.393  28.708   3.239
85272W        W57532  23.758  36.897  14.437
85273W        W57533  13.074  43.394   2.799
85274W        W57534   7.817  15.791  12.408
85275W        W57535  32.041   4.276  13.575
85276W        W57536   6.024  43.489   4.513
85277W        W57537  41.220  37.581   3.168
85278W        W57538  12.290  39.008   2.289
85279W        W57539   9.541  33.302   2.784
85280W        W57540   9.095  42.889  10.176
85281W        W57541  20.261   7.359  12.949
85282W        W57542   7.755  14.189  14.370
85283W        W57543   8.190   6.048  14.911
85284W        W57544  30.374  43.020  14.137
85285W        W57545  42.977  10.265   0.795
85286W        W57546  20.300  32.578   0.981
85287W        W57547  19.167  41.340   2.315
85288W        W57548  37.061  40.651   3.792
85289W        W57549  26.654   6.753  14.030
85290W        W57550  23.952  33.770  13.033
85291W        W57551  27.006  16.253   3.099
85292W        W57552  11.644  39.084  12.519
85293W        W57553  34.852  24.197   4.964
85294W        W57554  32.053  22.111   1.803
85295W        W57555  36.481   5.682  12.575
85296W        W57556   0.902   1.181  11.019
85297W        W57557   6.295  14.168   2.663
85298W        W57558  10.481  13.864   3.279
85299W        W57559  41.483  30.007   0.065
85300W        W57560  29.486  35.560  14.964
85301W        W57561  24.196  19.599  14.016
85302W        W57562  21.684  19.021   2.619
85303W        W57563   4.415   0.518  11.920
85304W        W57564  43.797  21.250  10.686
85305W        W57565  10.423   5.180   9.970
85306W        W57566   0.085  15.280   3.838
85307W        W57567  18.600  28.065   2.386
85308W        W57568  43.315  10.657  10.950
85309W        W57569   1.736  16.195   2.891
85310W        W57570   5.267  42.738   1.829
85311W        W57571  20.721  13.823  11.569
85312W        W57572   5.889  31.111  13.162
85313W        W57573   8.201  28.944   4.613
85314W        W57574  42.514  25.297  11.048
85315W        W57575  16.805  44.446   3.692
85316W        W57576  39.957  15.131  12.655
85317W        W57577  44.384  10.032   0.833
85318W        W57578  13.404  29.023   3.761
85319W        W57579   0.422  40.136   1.698
85320W        W57580   7.187  34.770  13.404
85321W        W57581   4.752   1.883   2.647
85322W        W57582  31.619  19.742  13.482
85323W        W57583  13.988  44.393   1.729
85324W        W57584  37.803  39.000   4.140
85325W        W57585  28.935  31.487  13.738
85326W        W57586   6.925   3.844   1.421
85327W        W57587  44.159  11.479  14.806
85328W        W57588  25.442  14.263  13.896
85329W        W57589  35.000   0.276   1.647
85330W        W57590  30.472  30.422   0.884
85331W        W57591  34.966  33.663  14.679
85332W        W57592  14.802  14.079  12.946
85333W        W57593  42.763  24.653   3.455
85334W        W57594   5.877  40.537   2.785
85335W        W57595  12.926  37.789  11.054
85336W        W57596  30.723  40.997  11.644
85337W        W57597   1.019  44.970  11.297
85338W        W57598  22.642  18.582   2.762
85339W        W57599  37.951  37.826  14.497
85340W        W57600  36.056  39.890  12.380
85341W        W57601  36.418   7.909  14.215
85342W        W57602  23.969  23.439   1.499
85343W        W57603  28.143  42.200  14.805
85344W        W57604  11.651  17.307  11.870
85345W        W57605  28.310  12.661   2.067
85346W        W57606   8.349  14.719   1.416
85347W        W57607   1.430   3.133   1.747
85348W        W57608  15.653   9.273   1.170
85349W        W57609  16.527   1.998  13.375
85350W        W57610   8.825  31.024  14.969
85351W        W57611  23.106  13.152   1.759
85352W        W57612   4.607  28.419   2.370
85353W        W57613  14.278  19.185  14.232
85354W        W57614  40.039  27.566   3.572
85355W        W57615  19.857  32.137   2.847
85356W        W57616  31.187  37.621   0.388
85357W        W57617  34.977  43.883   1.959
85358W        W57618   2.853  34.173  14.622
85359W        W57619  42.762   0.792  14.975
85360W        W57620   0.033  21.608  12.067
85361W        W57621  33.406  19.002  11.484
85362W        W57622  40.569  28.923  14.955
85363W        W57623  25.149  21.286  12.160
85364W        W57624  27.220  29.372   3.306
85365W        W57625  18.570   7.633  14.420
85366W        W57626  12.198  37.175  13.844
85367W        W57627  16.473  41.349   4.280
85368W        W57628  18.682  18.113   0.743
85369W        W57629  42.487  10.673   2.334
85370W        W57630  43.017   7.245   3.305
85371W        W57631  25.651   3.725  12.908
85372W        W57632  44.355  10.002   1.359
85373W        W57633  32.133  39.342   2.154
85374W        W57634  14.671  27.976  14.830
85375W        W57635  34.009  20.063   0.934
85376W        W57636   0.920  11.580   0.295
85377W        W57637  34.106   3.872   1.518
85378W        W57638  30.794  39.466  14.777
85379W        W57639  14.667  22.727  14.008
85380W        W57640  39.541  13.953   1.715
85381W        W57641  22.373  39.982   3.869
85382W        W57642  39.322  17.071  11.563
85383W        W57643  20.668  21.157  12.792
85384W        W57644  37.972  11.942  13.806
85385W        W57645  30.934  10.683  14.777
85386W        W57646  37.803  35.066  10.490
85387W        W57647  17.418   4.034   3.519
85388W        W57648  42.542   7.980  12.032
85389W        W57649  29.126   0.863  12.957
85390W        W57650   3.044  20.532  14.482
85391W        W57651  35.365  44.844   2.481
85392W        W57652  21.165   4.487   4.583
85393W        W57653  42.872   9.446  12.048
85394W        W57654  22.697  27.476  14.961
85395W        W57655  29.123  12.642   0.380
85396W        W57656  26.172  36.655   3.245
85397W        W57657   1.197  32.343   3.849
85398W        W57658  37.501  12.490  10.370
85399W        W57659  20.646  38.496  12.531
85400W        W57660  20.550  11.667  11.836
85401W        W57661  23.154   5.578   0.385
85402W        W57662  39.200  43.339   4.229
85403W        W57663  33.612  17.222  12.029
85404W        W57664   8.147  34.518  12.534
85405W        W57665  37.658  21.110   2.721
85406W        W57666  20.027  37.577   2.341
85407W        W57667  14.599  27.937   3.134
85408W        W57668  31.394  36.856  14.424
85409W        W57669  35.192  20.642  13.504
85410W        W57670  18.220  10.878   1.374
85411W        W57671  19.210  28.880   1.287
85412W        W57672  42.534  19.038   3.143
85413W        W57673  24.715   2.836   1.711
85414W        W57674   7.325   2.432   2.466
85415W        W57675   7.452  37.228  11.958
85416W        W57676   7.245  42.288   1.374
85417W        W57677  36.918   6.762  11.946
85418W        W57678  27.166   2.920   0.824
85419W        W57679   8.627  39.532   0.031
85420W        W57680  11.357  28.643  13.857
85421W        W57681  24.614  38.597  13.780
85422W        W57682  19.976  26.413  11.207
85423W        W57683  31.934   2.315  11.321
85424W        W57684  36.971  11.602  14.925
85425W        W57685  22.515  35.879   1.309
85426W        W57686  16.802  23.237   3.741
85427W        W57687  24.858  41.384   2.309
85428W        W57688  39.870  24.522  14.892
85429W        W57689  24.752  12.349   3.307
85430W        W57690  32.448  39.583   4.872
85431W        W57691   7.430  18.048   1.708
85432W        W57692   2.416  30.506  13.340
85433W        W57693  38.500  14.305  11.492
85434W        W57694  12.699   4.837   3.228
85435W        W57695   3.422  35.398   1.855
85436W        W57696  13.247  36.602   3.407
85437W        W57697  18.592   6.935   3.940
85438W        W57698  25.021  14.739  12.911
85439W        W57699  19.735  10.331   3.635
85440W        W57700  20.719   9.423  10.945
85441W        W57701  36.374  32.562   4.199
85442W        W57702  20.765  16.146   1.912
85443W        W57703  32.553  35.315  12.033
85444W        W57704  43.929  10.916   3.116
85445W        W57705  14.729  38.058   3.744
85446W        W57706  13.493  27.027   1.957
85447W        W57707  24.183   0.546  13.555
85448W        W57708  38.684  13.741  13.553
85449W        W57709  37.162  18.167   2.157
85450W        W57710  39.012  41.300   4.131
85451W        W57711  13.905  15.136  13.526
85452W        W57712  22.220   2.412  11.652
85453W        W57713  25.030  20.497  14.977
85454W        W57714  29.637   0.382  10.541
85455W        W57715  18.480   7.838   5.007
85456W        W57716  31.677  36.763   4.105
85457W        W57717  14.964  16.077  12.477
85458W        W57718  30.285  19.691   2.342
85459W        W57719  10.392  27.201   3.766
85460W        W57720   5.391   0.728  13.145
85461W        W57721  38.254  44.333   4.618
85462W        W57722   9.974   4.893   2.725
85463W        W57723  16.515  16.288   0.338
85464W        W57724  43.136  16.214   1.426
85465W        W57725  31.169  19.117  13.793
85466W        W57726  17.643  25.776  12.846
85467W        W57727  25.997  32.029   1.783
85468W        W57728  30.104  30.203   2.436
85469W        W57729   1.677  40.928  14.914
85470W        W57730  18.546   2.884   1.763
85471W        W57731  40.962  17.106  14.450
85472W        W57732  24.659  27.594   9.632
85473W        W57733  24.027  27.570   4.768
85474W        W57734   2.824  30.358   2.644
85475W        W57735  43.446   3.009  11.612
85476W        W57736  25.003  27.612  14.804
85477W        W57737  28.023  43.592  11.145
85478W        W57738  15.062   1.854   1.698
85479W        W57739  27.013  30.276   3.286
85480W        W57740  43.512  15.121   4.882
85481W        W57741  27.562  22.557  12.454
85482W        W57742  42.050  35.058  10.713
85483W        W57743  16.069   6.785   0.762
85484W        W57744  33.000   7.210  11.683
85485W        W57745  24.763  22.579   2.766
85486W        W57746  40.108  42.954   0.037
85487W        W57747   0.264  17.616  14.319
85488W        W57748  39.355  19.749  13.742
85489W        W57749  40.826  39.504   2.511
85490W        W57750  12.764  23.195   3.374
85491W        W57751  43.857  40.635   3.592
85492W        W57752  10.478  38.077  13.547
85493W        W57753  22.340  35.896  13.380
85494W        W57754   8.240  14.059  12.637
85495W        W57755  10.382  33.937  14.403
85496W        W57756  22.510  38.845   2.826
85497W        W57757  34.919  43.759   0.027
85498W        W57758   0.442  42.866   3.233
85499W        W57759  15.263  44.494  13.365
85500W        W57760  11.713  24.397  14.997
85501W        W57761   2.442  30.545   5.217
85502W        W57762  18.714  22.271   2.771
85503W        W57763   5.373  29.107  11.432
85504W        W57764  23.209  26.604  12.146
85505W        W57765  34.503   3.660   3.564
85506W        W57766  43.565  25.946   4.239
85507W        W57767  35.876  30.079  10.911
85508W        W57768  31.853  20.773   4.141
85509W        W57769  35.014   4.729   0.009
85510W        W57770  18.760  28.398   0.714
85511W        W57771   8.170  41.010  10.646
85512W        W57772  21.254  24.500  10.918
85513W        W57773   0.797  35.594   4.900
85514W        W57774  40.746  15.750  14.399
85515W        W57775  21.594  32.891   3.395
85516W        W57776  19.118  31.510   4.293
85517W        W57777   0.009  33.386  14.087
85518W        W57778  24.945  11.132   2.711
85519W        W57779  21.576  32.695  11.913
85520W        W57780  18.704   0.516  13.352
85521W        W57781  40.634  19.314  14.075
85522W        W57782   0.001   8.785  11.411
85523W        W57783  35.375  26.194   0.923
85524W        W57784  11.125  16.493  13.566
85525W        W57785   9.151  24.094   4.205
85526W        W57786   9.780  18.577  12.868
85527W        W57787  34.560  24.181  13.580
85528W        W57788  16.010  11.199  12.558
85529W        W57789   6.341  35.505  10.682
85530W        W57790  40.041   5.408   1.773
85531W        W57791  32.929  35.623  10.574
85532W        W57792  37.901  44.293  12.623
85533W        W57793   2.506   5.579   4.195
85534W        W57794  31.584  26.552  12.805
85535W        W57795   7.584  12.751   2.761
85536W        W57796  38.320  13.584  11.427
85537W        W57797  44.731  31.510  14.719
85538W        W57798  13.283  27.020  12.961
85539W        W57799  37.388   3.882  11.006
85540W        W57800  10.298  28.629  11.861
85541W        W57801  40.144  43.539   1.497
85542W        W57802  19.556  26.931  14.279
85543W        W57803  29.020  23.763   1.284
85544W        W57804  19.498  39.945   2.249
85545W        W57805  10.439  15.119  14.818
85546W        W57806  17.625  12.877  13.019
85547W        W57807  31.147  26.848  11.607
85548W        W57808  20.781   1.981  11.563
85549W        W57809   2.953  21.465  13.079
85550W        W57810  40.078  21.478  11.183
85551W        W57811  24.153   2.761   0.752
85552W        W57812  37.720  14.528  13.621
85553W        W57813   7.256  28.418  13.994
85554W        W57814  28.023  40.781   1.749
85555W        W57815  38.084  28.682  10.695
85556W        W57816  37.219   1.394  14.522
85557W        W57817   0.296  43.163  10.645
85558W        W57818  24.582  16.824   4.728
85559W        W57819  35.507  30.993   4.719
85560W        W57820  40.529  23.198   4.102
85561W        W57821   2.039  25.963  11.720
85562W        W57822  15.197  13.608   2.920
85563W        W57823  28.887   0.403   2.798
85564W        W57824  17.285   0.204  13.401
85565W        W57825  43.279  28.207   4.790
85566W        W57826  11.952  41.979   1.933
85567W        W57827  25.191  43.437  12.969
85568W        W57828   2.197  23.708  11.144
85569W        W57829   3.939   6.918  13.809
85570W        W57830  38.968   2.239  13.047
85571W        W57831   1.872  40.519  12.947
85572W        W57832  25.158  21.584   1.356
85573W        W57833  31.897   8.872   1.734
85574W        W57834   8.879  35.096  12.881
85575W        W57835  17.532  10.852   2.942
85576W        W57836  25.885  29.576   0.345
85577W        W57837  36.970  25.632  10.842
85578W        W57838   5.645  16.992  14.284
85579W        W57839  35.035  28.513   0.233
85580W        W57840  14.786  28.884  12.072
85581W        W57841  26.634  12.084  11.920
85582W        W57842  19.976  14.282  10.650
85583W        W57843   6.413  42.375   3.755
85584W        W57844  11.146  40.026  11.182
85585W        W57845  34.177   6.227  13.909
85586W        W57846  21.913  31.602  14.037
85587W        W57847  39.859  27.111  14.319
85588W        W57848  37.558   0.679   3.261
85589W        W57849  27.141  15.841   0.063
85590W        W57850  18.157  26.314   1.771
85591W        W57851  35.550  34.542   4.086
85592W        W57852   4.749  36.012  12.638
85593W        W57853  28.325  40.807  12.842
85594W        W57854  25.588  30.048   1.405
85595W        W57855  39.258   7.731  14.348
85596W        W57856  33.059  12.310   0.817
85597W        W57857  43.480  38.078  12.939
85598W        W57858   0.029  20.589   3.628
85599W        W57859  10.235  30.003  14.870
85600W        W57860  17.225  15.072  10.479
85601W        W57861   4.191  24.219   2.800
85602W        W57862  24.613   3.907   3.227
85603W        W57863   3.393  37.397  10.683
85604W        W57864  10.287  39.859   2.679
85605W        W57865   3.268   6.164   0.766
85606W        W57866   2.637   7.897  13.998
85607W        W57867  22.095  41.830  14.267
85608W        W57868  15.723   8.412   0.652
85609W        W57869  11.370  11.955   0.858
85610W        W57870   4.183  10.216   4.734
85611W        W57871  20.903  26.954   0.502
85612W        W57872  13.879  32.117  14.316
85613W        W57873  22.872   7.326   1.149
85614W        W57874  42.117  25.071  10.833
85615W        W57875  26.507  42.972  10.490
85616W        W57876  29.586   3.353  13.028
85617W        W57877   6.201  14.485   2.228
85618W        W57878  27.965   9.707  14.707
85619W        W57879  40.519   7.347   1.525
85620W        W57880  15.381   9.594  14.939
85621W        W57881  31.740  17.717   2.214
85622W        W57882  21.030  16.022  13.332
85623W        W57883   1.413  27.593  14.795
85624W        W57884  23.691  15.382   3.354
85625W        W57885   2.913  23.503   3.863
85626W        W57886  33.211  24.771  13.868
85627W        W57887  20.238  16.125   1.935
85628W        W57888  38.803  22.760  13.897
85629W        W57889   4.837  29.812   1.263
85630W        W57890  38.409  43.040   0.303
85631W        W57891   6.938  38.922   4.516
85632W        W57892  11.605  10.822   2.552
85633W        W57893  32.571  15.395  11.202
85634W        W57894  37.040  42.285   3.476
85635W        W57895   7.408  19.573  12.059
85636W        W57896  23.972  20.464   3.351
85637W        W57897  20.582  29.637   3.793
85638W        W57898  41.986  27.356  13.299
85639W        W57899  19.196  42.678   3.070
85640W        W57900  31.433   3.694  13.930
85641W        W57901  44.215  43.836   0.760
85642W        W57902  26.810  44.331  13.615
85643W        W57903  26.458  14.662  13.039
85644W        W57904  13.836  26.430   0.302
85645W        W57905   7.205  41.460  11.490
85646W        W57906  14.600  14.780   2.095
85647W        W57907  35.003  39.934  12.646
85648W        W57908  21.651  18.832  11.629
85649W        W57909   3.764  26.858  12.438
85650W        W57910  43.815  16.146  14.535
85651W        W57911  38.664   7.313   4.987
85652W        W57912  13.561  22.442   0.898
85653W        W57913  39.435  36.408  13.082
85654W        W57914   1.535  39.022  14.593
85655W        W57915   4.913  39.467  11.992
85656W        W57916  39.365  21.866  13.821
85657W        W57917   4.735  30.369  11.003
85658W        W57918  33.586  32.456  11.939
85659W        W57919  23.685  38.767  11.036
85660W        W57920  29.698   9.834  13.621
85661W        W57921  43.795   7.012  14.019
85662W        W57922  33.698   6.085   0.840
85663W        W57923  12.387   9.897  12.419
85664W        W57924   7.219  41.835   4.401
85665W        W57925  12.399  29.391   2.666
85666W        W57926  16.080   3.375  10.274
85667W        W57927  20.798  41.232   4.322
85668W        W57928  39.772  30.116   4.079
85669W        W57929  42.949   5.596  11.298
85670W        W57930   2.402  40.895  14.405
85671W        W57931  12.505   1.896   4.466
85672W        W57932  31.630   4.060   4.200
85673W        W57933  31.661  41.791   3.275
85674W        W57934  11.089  34.315  14.850
85675W        W57935   6.653   6.846  13.080
85676W        W57936  26.948  44.337  11.568
85677W        W57937  25.145  17.393  13.466
85678W        W57938  29.401  36.392  13.298
85679W        W57939  13.129  23.512  11.656
85680W        W57940  17.107   9.348   0.200
85681W        W57941   5.704  39.137   0.555
85682W        W57942  25.320   4.003  12.579
85683W        W57943  25.024  40.753  11.502
85684W        W57944  32.417  22.029  11.356
85685W        W57945  16.333  38.262   2.314
85686W        W57946   2.182  19.762  13.939
85687W        W57947   3.341  32.634   4.177
85688W        W57948  24.091  38.937   5.030
85689W        W57949   3.421  19.724   0.901
85690W        W57950   4.152  14.511  10.235
85691W        W57951  35.435   9.250  13.055
85692W        W57952  40.540  20.268   2.729
85693W        W57953  16.987  10.586   4.507
85694W        W57954  40.002  28.472  12.856
85695W        W57955  43.447  12.363  14.390
85696W        W57956  42.752  11.328   0.689
85697W        W57957  21.292  14.162  12.433
85698W        W57958   2.768  35.316   2.852
85699W        W57959  36.848   2.393   2.182
85700W        W57960  25.096  11.856  11.155
85701W        W57961  28.995  42.487  11.425
85702W        W57962  11.851  31.179  12.566
85703W        W57963  19.548  38.395  13.556
85704W        W57964  15.105  14.581  14.758
85705W        W57965  40.122  20.517   2.514
85706W        W57966   4.730  18.550  11.292
85707W        W57967   1.581  26.957  13.630
85708W        W57968  21.583   4.352   3.463
85709W        W57969  12.582  38.353   0.471
85710W        W57970  21.820  37.092  13.050
85711W        W57971   5.353  37.456   0.280
85712W        W57972  12.739  35.879  12.073
85713W        W57973   1.455  14.356   4.622
85714W        W57974  21.272   1.516  11.470
85715W        W57975  32.182  29.034   0.525
85716W        W57976  18.520  11.342   3.439
85717W        W57977  14.840  26.188  14.315
85718W        W57978  22.986  29.545   3.664
85719W        W57979   9.816  41.240  14.991
85720W        W57980  26.848   6.987   3.325
85721W        W57981   6.867   0.707  10.926
85722W        W57982  34.013  20.195   5.123
85723W        W57983   8.146  22.650  11.167
85724W        W57984  39.567  16.656  10.538
85725W        W57985  10.952  17.612  14.417
85726W        W57986  34.827  11.348  14.405
85727W        W57987   4.690  33.531   1.827
85728W        W57988   6.467  43.510   4.192
85729W        W57989   6.986   1.787  10.777
85730W        W57990  42.546  33.616  14.845
85731W        W57991  11.385  26.057   2.119
85732W        W57992   8.227  25.275  11.899
85733W        W57993  33.839  18.821   4.247
85734W        W57994  18.379  16.001  13.007
85735W        W57995  18.981  11.965   2.400
85736W        W57996  11.407  12.952  11.635
85737W        W57997  30.676   1.502   0.240
85738W        W57998  35.617   0.832   3.267
85739W        W57999  36.645  22.233  12.845
85740W        W58000   2.161  24.473  13.301
85741W        W58001  25.662  41.034   2.007
85742W        W58002  40.057  35.057  14.781
85743W        W58003  31.723  30.587  14.924
85744W        W58004  11.238  38.231   0.310
85745W        W58005  44.547  28.128  10.938
85746W        W58006   3.013  18.500  13.543
85747W        W58007   5.318  44.620  10.256
85748W        W58008  13.529   1.422  10.727
85749W        W58009  23.040   9.316  14.146
85750W        W58010  35.857  39.808  13.292
85751W        W58011  30.353   3.104  11.539
85752W        W58012  23.172  34.118  14.466
85753W        W58013  18.942  17.798   1.872
85754W        W58014  37.873  20.881   0.420
85755W        W58015  39.620  17.759  14.502
85756W        W58016  39.442   4.371  10.522
85757W        W58017   6.724  13.151   1.242
85758W        W58018  31.802  26.933  12.043
85759W        W58019  36.402  43.375   3.372
85760W        W58020  21.284   9.258  14.661
85761W        W58021   1.263  34.112   1.190
85762W        W58022  40.395  10.917  14.393
85763W        W58023  18.093  12.622  12.623
85764W        W58024  40.482  39.084   4.671
85765W        W58025  26.685  14.219  11.685
85766W        W58026  25.964   6.814   2.000
85767W        W58027  20.182   1.796  13.631
85768W        W58028  25.487  24.048   1.455
85769W        W58029  12.746  14.171   4.812
85770W        W58030  16.089  23.497   0.875
85771W        W58031  27.181  11.366   2.351
85772W        W58032   3.240  32.432   3.328
85773W        W58033  17.125  36.944   3.683
85774W        W58034  41.763   0.214  12.154
85775W        W58035  29.611  18.009   4.148
85776W        W58036   5.248  43.413  13.967
85777W        W58037  17.276   6.456   4.874
85778W        W58038  35.265  41.972   4.982
85779W        W58039  24.980  25.441  12.663
85780W        W58040  23.676   8.859  13.925
85781W        W58041  17.641  40.549  10.827
85782W        W58042   9.205  41.018   4.011
85783W        W58043   5.798  20.542   1.778
85784W        W58044   4.164  43.836  10.520
85785W        W58045  30.468  39.342  11.215
85786W        W58046  15.741  38.073  14.992
85787W        W58047  34.956   4.799  13.068
85788W        W58048  21.573  23.887   3.251
85789W        W58049   7.229   4.195  12.015
85790W        W58050  29.462  10.797  14.015
85791W        W58051   5.932  13.867  10.699
85792W        W58052  43.936  28.459  14.835
85793W        W58053  20.303  25.541   0.995
85794W        W58054  18.322  41.008   0.785
85795W        W58055  30.049  30.160   1.906
85796W        W58056  30.545  23.620   2.246
85797W        W58057  16.433  33.570  10.275
85798W        W58058  25.484  20.551   3.686
85799W        W58059  20.593  41.709   0.875
85800W        W58060  11.325  44.280  13.497
85801W        W58061  25.548  12.243   4.375
85802W        W58062  27.570  31.984  10.098
85803W        W58063  44.488   1.960   1.994
85804W        W58064   8.955  21.491   4.959
85805W        W58065   5.792   1.188   2.303
85806W        W58066  12.780  40.264  10.685
85807W        W58067   1.791  42.095   1.722
85808W        W58068   9.147   3.418  10.694
85809W        W58069  11.579  27.677   2.571
85810W        W58070  35.448  30.915   1.723
85811W        W58071  10.800  23.285  11.899
85812W        W58072  20.561  33.740   4.271
85813W        W58073  44.323   9.148   0.745
85814W        W58074  13.045  35.569  13.610
85815W        W58075   7.934  26.251  14.360
85816W        W58076  29.068  44.459   4.113
85817W        W58077  14.622  41.012  10.743
85818W        W58078   6.209  23.061  12.575
85819W        W58079  30.160  26.706   4.069
85820W        W58080  35.417  24.527  11.152
85821W        W58081  38.084  27.821  11.276
85822W        W58082  24.222   0.750   2.021
85823W        W58083  30.025   4.608  14.325
85824W        W58084  33.545  43.050   1.964
85825W        W58085  25.464   9.769  13.351
85826W        W58086  41.252  17.719   0.047
85827W        W58087  40.212  14.337  11.256
85828W        W58088   9.690  23.946   2.380
85829W        W58089  44.804  27.897  12.007
85830W        W58090   5.196  27.061   4.118
85831W        W58091  18.680  26.600   2.296
85832W        W58092  24.220  39.005  11.114
85833W        W58093  30.947  27.833   0.720
85834W        W58094  25.159  25.633  13.607
85835W        W58095  42.775  29.942   1.040
85836W        W58096  29.903  44.396  11.034
85837W        W58097   5.833  31.159   4.175
85838W        W58098  29.933  14.836  14.507
85839W        W58099  25.944  39.519   4.928
85840W        W58100  16.544   6.827  10.136
85841W        W58101  40.602   4.870  12.785
85842W        W58102  37.025  11.235  10.995
85843W        W58103  41.061  29.603  11.416
85844W        W58104  27.908  43.940  14.333
85845W        W58105  40.915  11.151  11.638
85846W        W58106  35.835  17.620   1.210
85847W        W58107   7.213  20.768  11.295
85848W        W58108   9.742  33.397  11.953
85849W        W58109  28.837   4.464  11.443
85850W        W58110  28.307  21.982  11.990
85851W        W58111  41.224  44.514  12.085
85852W        W58112   9.665  14.495   0.735
85853W        W58113   7.171  10.380   4.143
85854W        W58114  27.867  30.563   2.888
85855W        W58115  29.013  41.647  13.505
85856W        W58116   8.241   0.430   1.425
85857W        W58117   0.375  37.304  11.076
85858W        W58118  16.205  35.236  13.511
85859W        W58119  32.564  22.180  14.101
85860W        W58120  17.108   9.758  14.404
85861W        W58121  25.088  14.577  12.427
85862W        W58122  43.865  26.821   9.950
85863W        W58123  11.719   9.622   0.214
85864W        W58124  40.241   3.861   0.709
85865W        W58125  29.079  27.293  12.949
85866W        W58126  24.417  34.579   4.045
85867W        W58127   3.218  41.086   0.816
85868W        W58128  17.778  44.993   4.713
85869W        W58129  26.521  33.109   4.718
85870W        W58130  18.196   5.648   2.242
85871W        W58131  14.213  37.318   0.268
85872W        W58132  18.679  35.941  13.981
85873W        W58133  21.026  25.130  11.636
85874W        W58134  44.430  43.888   3.990
85875W        W58135   8.552  44.580  13.045
85876W        W58136  37.845  13.144   2.424
85877W        W58137  43.201  21.593   2.320
85878W        W58138  21.689  43.434  14.429
85879W        W58139   4.253   3.388   3.248
85880W        W58140  15.773  17.485   3.235
85881W        W58141   8.664   5.023  11.278
85882W        W58142  20.190  42.549  13.032
85883W        W58143  13.819  31.254  11.412
85884W        W58144  33.449  21.947   1.835
85885W        W58145  26.343  30.529  13.744
85886W        W58146  40.174  40.184   3.671
85887W        W58147  32.248  28.058  13.880
85888W        W58148  25.191   2.506   4.892
85889W        W58149  16.565  23.954   1.867
85890W        W58150  16.237   9.642   0.568
85891W        W58151   2.515  19.675  11.974
85892W        W58152  35.632  33.026  11.157
85893W        W58153  10.353   2.100   2.990
85894W        W58154  26.581  43.762   1.780
85895W        W58155  36.300   7.344  11.826
85896W        W58156  12.369   6.703  11.188
85897W        W58157  21.838  18.407   4.015
85898W        W58158  31.936  44.811   2.776
85899W        W58159  26.442  42.959  14.395
85900W        W58160  36.202  28.142  11.687
85901W        W58161  41.073  11.204  13.426
85902W        W58162  17.264  23.213   2.946
85903W        W58163   7.377  18.627  11.293
85904W        W58164  29.937  41.485  12.413
85905W        W58165  10.725  41.758   3.806
85906W        W58166  33.524  15.743   0.418
85907W        W58167  30.961  21.981   0.673
85908W        W58168  41.284  13.117   3.252
85909W        W58169  19.123  12.705   2.747
85910W        W58170  34.984  13.918   1.771
85911W        W58171  11.588  23.493   4.153
85912W        W58172   7.715  11.636   5.006
85913W        W58173  10.698  11.408   0.425
85914W        W58174  37.871   9.610   1.342
85915W        W58175   4.795  25.597  11.342
85916W        W58176   2.576  17.321  12.801
85917W        W58177  40.344   8.747   0.006
85918W        W58178   4.068  33.925  14.052
85919W        W58179   7.509  13.670  13.438
85920W        W58180  44.473  26.727   1.024
85921W        W58181   9.244  38.957   4.634
85922W        W58182  23.286  33.991  11.983
85923W        W58183   8.718   9.262  12.756
85924W        W58184   3.528  21.165   4.302
85925W        W58185  14.575  41.968   3.239
85926W        W58186  40.913   9.233  10.988
85927W        W58187  20.180  18.876  14.768
85928W        W58188  10.427  29.717  10.765
85929W        W58189   3.208  35.352   4.691
85930W        W58190   8.865  14.831   1.269
85931W        W58191  40.516  29.684   2.765
85932W        W58192  42.060  16.759   1.819
85933W        W58193  16.467   8.797  14.270
85934W        W58194   3.666  35.980  14.951
85935W        W58195  31.149  23.983   2.213
85936W        W58196  18.422   2.144   1.497
85937W        W58197  14.824   5.140  11.289
85938W        W58198  43.260  44.969   4.523
85939W        W58199  10.740  21.914   4.129
85940W        W58200  20.059  21.093   0.449
85941W        W58201  32.127   4.600   1.916
85942W        W58202  29.524  28.680  13.924
85943W        W58203  30.244  31.473   0.777
85944W        W58204  25.629  43.440   2.406
85945W        W58205  33.465   8.246  10.546
85946W        W58206   6.777   6.738  11.535
85947W        W58207   9.079   5.903  14.563
85948W        W58208  40.938  16.753  12.555
85949W        W58209  14.119  40.483   3.341
85950W        W58210  10.653   8.929   1.367
85951W        W58211  29.080  28.908  11.895
85952W        W58212  18.118  27.524   0.336
85953W        W58213  14.320  28.902  13.457
85954W        W58214   8.255  20.520  11.761
85955W        W58215  34.272   8.425   3.713
85956W        W58216   5.415  36.069   0.259
85957W        W58217  43.864  29.645  14.208
85958W        W58218  44.795  44.237   2.293
85959W        W58219  36.861  29.610  13.001
85960W        W58220  39.485  28.370   3.952
85961W        W58221  18.364  19.024  10.635
85962W        W58222  40.600  15.489   4.109
85963W        W58223   4.356  28.483   4.519
85964W        W58224   6.193  30.192   0.201
85965W        W58225  37.105  35.595  14.071
85966W        W58226  34.971   7.124  12.010
85967W        W58227  32.485   8.181   4.579
85968W        W58228  12.325  33.163   3.591
85969W        W58229   5.134   2.168  12.740
85970W        W58230   3.263  26.590   1.214
85971W        W58231  17.252   7.363   3.184
85972W        W58232   4.744   3.329  14.331
85973W        W58233  36.832  27.449  13.592
85974W        W58234  23.467  24.028   0.379
85975W        W58235  23.543  12.391  12.270
85976W        W58236  33.898  10.201  13.848
85977W        W58237  30.211  25.529   2.725
85978W        W58238  43.926   1.983   2.708
85979W        W58239  18.516  25.548  12.234
85980W        W58240  19.348  36.852   2.124
85981W        W58241  40.275  13.274   1.304
85982W        W58242  14.924  20.996  10.652
85983W        W58243  12.874  10.039  12.398
85984W        W58244   6.054  28.407   0.837
85985W        W58245  44.422  23.040  14.927
85986W        W58246  17.991  36.272  14.322
85987W        W58247  19.280  40.917   4.106
85988W        W58248   3.909  23.697   0.755
85989W        W58249  14.573  23.559   0.467
85990W        W58250  27.616   3.458   1.308
85991W        W58251  33.528  40.966   4.328
85992W        W58252   0.143  21.708  14.818
85993W        W58253   1.838   0.530  11.674
85994W        W58254   7.163  15.889  10.276
85995W        W58255  27.381  31.205   1.945
85996W        W58256  42.831  31.090  10.466
85997W        W58257  25.908   3.613   0.369
85998W        W58258  22.151  16.569  14.617
85999W        W58259  43.370  13.707   3.088
86000W        W58260   0.466  20.293  12.437
86001W        W58261  26.584  16.388   2.810
86002W        W58262   2.061  11.427   0.546
86003W        W58263   0.096  11.600  11.595
86004W        W58264   0.973   9.436  12.831
86005W        W58265   7.287  10.296   1.421
86006W        W58266  15.770  30.038   4.549
86007W        W58267  10.242   6.168   5.050
86008W        W58268  14.299  10.695  10.515
86009W        W58269  42.126   6.891  11.713
86010W        W58270  41.309  33.879   0.343
86011W        W58271   4.916  23.355   1.964
86012W        W58272  17.653  36.452  12.414
86013W        W58273  43.284  39.777   5.085
86014W        W58274  30.110   0.215   0.467
86015W        W58275  11.691  42.564   1.326
86016W        W58276  20.278  12.219   0.927
86017W        W58277  38.891  44.872  13.930
86018W        W58278  41.300  40.374   2.727
86019W        W58279  25.711   1.273   4.629
86020W        W58280  28.539  33.518  10.136
86021W        W58281   7.371   7.718   3.158
86022W        W58282  36.930  19.922   5.453
86023W        W58283  41.207  27.455   3.628
86024W        W58284   5.913  13.338  10.699
86025W        W58285   7.406  30.064  11.857
86026W        W58286   0.836  38.638   2.679
86027W        W58287   6.905   4.858  11.301
86028W        W58288  28.915  25.966   0.402
86029W        W58289  35.477   8.811   1.646
86030W        W58290  10.244  27.210   2.837
86031W        W58291  27.343  39.458  12.513
86032W        W58292  31.811   2.784  14.016
86033W        W58293  34.899  18.337   2.790
86034W        W58294   3.828  32.181   0.699
86035W        W58295  13.523  26.452   1.207
86036W        W58296  24.143  26.426   2.622
86037W        W58297   2.858  16.283  12.394
86038W        W58298  38.283   3.637  13.945
86039W        W58299  13.730   0.718   3.823
86040W        W58300   7.751  42.369  11.643
86041W        W58301  21.371  22.217   3.679
86042W        W58302  25.903  13.213  11.397
86043W        W58303  13.040  41.578  12.823
86044W        W58304   0.900  13.141  11.861
86045W        W58305   1.361  15.301   0.661
86046W        W58306  33.853  32.157  12.372
86047W        W58307   1.313  27.433   3.247
86048W        W58308  16.189  17.617  14.730
86049W        W58309  16.810  26.017  13.854
86050W        W58310  35.895  14.929   0.745
86051W        W58311  28.925  37.094   4.134
86052W        W58312  33.120  36.803  13.158
86053W        W58313  25.180  30.619   2.701
86054W        W58314  13.827   4.126  11.380
86055W        W58315  29.560   6.256  14.985
86056W        W58316  33.035  24.121  10.674
86057W        W58317  33.274  35.950   2.263
86058W        W58318  36.571   6.191  12.505
86059W        W58319  16.048  32.191   5.122
86060W        W58320   7.614  32.795  13.981
86061W        W58321  36.950  37.462   3.718
86062W        W58322  42.324  18.825  14.275
86063W        W58323  25.143  11.873  11.991
86064W        W58324  13.228  12.769   0.335
86065W        W58325  27.275  36.060   2.117
86066W        W58326  26.706  19.508  12.601
86067W        W58327  23.684  29.072  12.469
86068W        W58328  15.339   7.236   3.367
86069W        W58329  11.165  10.644   0.835
86070W        W58330   5.239  40.856   2.267
86071W        W58331  30.139  36.301  13.014
86072W        W58332  17.786  26.108   3.781
86073W        W58333  19.861  30.118  13.918
86074W        W58334  35.351  18.345  11.957
86075W        W58335   7.885  15.850   1.839
86076W        W58336  11.538  23.616   2.232
86077W        W58337  41.900  12.283  11.527
86078W        W58338  41.902  29.177  11.292
86079W        W58339  38.649  34.064  13.939
86080W        W58340  29.653  14.671  11.276
86081W        W58341  15.876   7.265  12.362
86082W        W58342  26.720  12.088  13.916
86083W        W58343  34.194  27.579   0.601
86084W        W58344  44.868  39.115  11.156
86085W        W58345  21.475  19.869  11.654
86086W        W58346  14.889  11.824   4.229
86087W        W58347  43.653  28.661  11.058
86088W        W58348  15.938  11.274   4.638
86089W        W58349  31.775  19.597  14.776
86090W        W58350   2.737  30.879   0.361
86091W        W58351  35.099  23.031   0.379
86092W        W58352   5.434  30.386   0.856
86093W        W58353  18.963   9.557   1.969
86094W        W58354  39.321  10.728  12.353
86095W        W58355  34.852  29.903   3.200
86096W        W58356  11.764  17.671   0.683
86097W        W58357  21.404   8.750   1.243
86098W        W58358  12.166  40.039   0.979
86099W        W58359  18.520  25.252  14.351
86100W        W58360  33.546  37.282   1.327
86101W        W58361  22.570  21.612   2.571
86102W        W58362  12.693  33.229  13.052
86103W        W58363  27.505  34.372  14.155
86104W        W58364  21.129  25.007  13.623
86105W        W58365  42.406   5.825  13.482
86106W        W58366  29.361  37.436  14.074
86107W        W58367  22.298  30.123   3.765
86108W        W58368  33.942  42.053   0.513
86109W        W58369  15.138  38.792   0.796
86110W        W58370   9.810  35.556  14.076
86111W        W58371  19.556  39.059  11.060
86112W        W58372  39.019   0.010   4.178
86113W        W58373  38.111  39.341   3.382
86114W        W58374  31.847  11.809   4.674
86115W        W58375  26.064  11.379  10.917
86116W        W58376  34.913   0.966   2.776
86117W        W58377  15.443  30.441   3.596
86118W        W58378  37.537  17.361   3.410
86119W        W58379  11.368  25.402  13.637
86120W        W58380  20.540  23.484   1.440
86121W        W58381  28.540  42.489  11.058
86122W        W58382   6.134  13.163  13.216
86123W        W58383  12.842  19.820   1.307
86124W        W58384   1.979  25.155  13.534
86125W        W58385  16.740   3.462  10.942
86126W        W58386   2.988  21.657  12.077
86127W        W58387   0.065  33.491  14.885
86128W        W58388  38.386  32.498  14.862
86129W        W58389   8.665   3.438   0.818
86130W        W58390   1.794  41.520   2.562
86131W        W58391   5.182   9.269  11.307
86132W        W58392  29.691  17.975  11.737
86133W        W58393   3.592  13.331   3.716
86134W        W58394  10.128   9.925   3.202
86135W        W58395  33.991  18.494  13.589
86136W        W58396   0.949  11.368  11.944
86137W        W58397  44.977   4.788  13.118
86138W        W58398  11.772   3.687   4.571
86139W        W58399   6.760  28.143   1.867
86140W        W58400  22.996  44.807  13.367
86141W        W58401   1.438  33.396  12.552
86142W        W58402  42.985   9.068  12.426
86143W        W58403  33.434  24.434  13.511
86144W        W58404  25.049  32.580   2.425
86145W        W58405  11.756  28.479   2.297
86146W        W58406   2.301  36.001   2.725
86147W        W58407   0.706  21.749   2.035
86148W        W58408  10.120  22.030  14.887
86149W        W58409  25.959  35.972   1.919
86150W        W58410  44.860   7.610  11.863
86151W        W58411  24.221  36.427  10.652
86152W        W58412  37.956   7.332  14.261
86153W        W58413  12.623  10.386   3.343
86154W        W58414  24.015  38.797   3.726
86155W        W58415  14.493   1.255   0.982
86156W        W58416  13.147   5.651   0.736
86157W        W58417  35.838  36.513   2.647
86158W        W58418  20.191  39.027  13.575
86159W        W58419   8.255  16.247   0.700
86160W        W58420  29.950  11.994   0.407
86161W        W58421  14.706   7.099   2.181
86162W        W58422  28.213   7.705   1.541
86163W        W58423  20.648   5.313   2.412
86164W        W58424  37.048  19.853   0.931
86165W        W58425  10.279  31.214   3.165
86166W        W58426  33.387   3.217   3.906
86167W        W58427  17.027  38.955  14.320
86168W        W58428  24.374  13.043  14.796
86169W        W58429  18.124  27.706   4.545
86170W        W58430  24.991  39.001   5.096
86171W        W58431  19.964  34.966  11.051
86172W        W58432  32.379  44.257   2.244
86173W        W58433  29.435  32.864  11.044
86174W        W58434  43.971  43.996   1.388
86175W        W58435  42.043  14.199  13.879
86176W        W58436  10.368  25.218  13.348
86177W        W58437   8.155  35.913   0.733
86178W        W58438  26.914  16.606   0.431
86179W        W58439   9.626  12.142   2.146
86180W        W58440  38.979  11.985  12.500
86181W        W58441  17.543  14.132   0.998
86182W        W58442  22.924   1.717  11.986
86183W        W58443   6.339  21.984  13.427
86184W        W58444  29.469  23.308  14.004
86185W        W58445  25.062   5.043   3.649
86186W        W58446  30.553  44.051  12.096
86187W        W58447   8.355  23.395   0.738
86188W        W58448  35.000   0.352  11.529
86189W        W58449   0.532   9.250  14.506
86190W        W58450  15.425  37.627   1.910
86191W        W58451  12.797   4.737  10.659
86192W        W58452  19.462  34.037  11.294
86193W        W58453  33.613  22.539  10.243
86194W        W58454  19.673  24.527   3.444
86195W        W58455  13.097  27.867   4.051
86196W        W58456  23.648  29.598   0.023
86197W        W58457   5.951  29.067   2.364
86198W        W58458   7.832   5.094   3.355
86199W        W58459  20.457  27.406   0.659
86200W        W58460  29.371  20.702   0.265
86201W        W58461  40.335   1.946   5.090
86202W        W58462   9.529  42.709  14.380
86203W        W58463  31.331  29.339   3.233
86204W        W58464  26.196  34.449   1.832
86205W        W58465  10.506  25.748  11.113
86206W        W58466  18.185   7.850  13.297
86207W        W58467  41.714   8.780  11.114
86208W        W58468  43.397  18.438  14.300
86209W        W58469  44.972   4.792  14.505
86210W        W58470   4.877  10.498   0.879
86211W        W58471  37.041  20.815  14.957
86212W        W58472  39.348   1.528   2.835
86213W        W58473  12.319  18.519  12.957
86214W        W58474   0.445  37.312  11.588
86215W        W58475  18.724  27.134  11.979
86216W        W58476  36.804  37.355   1.913
86217W        W58477  42.831  19.092   4.783
86218W        W58478  32.908  21.745  11.694
86219W        W58479  21.129  40.549  12.421
86220W        W58480   2.457   7.133   1.256
86221W        W58481  20.781   8.392   3.321
86222W        W58482   3.173  15.249  14.439
86223W        W58483  21.976  36.788   3.221
86224W        W58484  44.953   0.042   0.885
86225W        W58485   8.388  36.658   3.318
86226W        W58486  37.135  38.911  11.948
86227W        W58487  44.116  39.896  13.545
86228W        W58488  26.079  43.997  11.917
86229W        W58489  44.460  29.471  11.137
86230W        W58490   3.269   2.806   1.988
86231W        W58491  39.619  34.980   1.878
86232W        W58492  28.094   6.897  11.158
86233W        W58493  29.660  32.095  10.089
86234W        W58494  35.934  27.199  11.506
86235W        W58495   1.766  33.067   1.750
86236W        W58496  13.470  34.339   1.407
86237W        W58497  39.505  33.935   3.286
86238W        W58498  21.088  37.407  14.330
86239W        W58499  13.008   4.888   3.678
86240W        W58500  39.553   2.755   4.693
86241W        W58501  19.984   5.208  12.552
86242W        W58502  41.195   9.803   2.782
86243W        W58503  16.223  14.098   2.853
86244W        W58504  16.991  11.152  11.578
86245W        W58505   6.896   9.679   0.457
86246W        W58506   7.043   2.759   2.195
86247W        W58507  16.632  41.875  11.049
86248W        W58508   2.855  11.767  14.885
86249W        W58509  11.625  18.244  11.724
86250W        W58510  16.710   7.317  10.269
86251W        W58511  43.798  37.883   4.243
86252W        W58512  18.584   5.621  14.674
86253W        W58513  19.181  40.474   4.356
86254W        W58514  36.636  33.345  11.042
86255W        W58515  36.140  14.327   1.848
86256W        W58516  42.698  27.436   2.352
86257W        W58517  29.007  12.365   2.794
86258W        W58518  22.945  11.397  14.462
86259W        W58519  37.372  34.608   0.572
86260W        W58520  14.708  21.133  13.063
86261W        W58521   0.940   9.672  13.551
86262W        W58522  37.875  44.927  14.271
86263W        W58523  17.790  31.028   4.915
86264W        W58524   6.797  28.140  13.977
86265W        W58525  17.174  41.309  13.261
86266W        W58526  31.998  40.809   1.478
86267W        W58527  14.612  42.589   3.716
86268W        W58528  27.429  41.949   3.371
86269W        W58529  10.908  22.089   3.671
86270W        W58530  35.809  16.836   0.041
86271W        W58531  10.772   4.761   3.274
86272W        W58532   2.832  44.515   0.856
86273W        W58533   7.304   5.286  11.453
86274W        W58534  15.451  10.571   0.794
86275W        W58535  28.672   9.733  12.915
86276W        W58536  13.048   1.854   4.562
86277W        W58537   3.126  39.404  12.447
86278W        W58538   5.810  42.357   0.784
86279W        W58539  44.426  30.864  13.136
86280W        W58540   6.183  20.863  11.724
86281W        W58541  13.227   5.718  11.468
86282W        W58542  37.388  27.049   2.732
86283W        W58543  11.134  27.719   2.806
86284W        W58544   8.796  19.469  14.870
86285W        W58545  22.107  26.526  13.334
86286W        W58546  10.433  28.243   2.962
86287W        W58547  13.858  34.351   1.812
86288W        W58548   6.733  38.063  11.063
86289W        W58549  40.383  44.858  12.498
86290W        W58550  11.386  22.664   2.307
86291W        W58551  10.847  26.565   3.553
86292W        W58552   6.214  44.337  12.797
86293W        W58553  36.582  35.453  11.935
86294W        W58554  29.951  12.058  14.351
86295W        W58555  16.088  37.388  11.137
86296W        W58556  43.052  18.785   2.754
86297W        W58557  34.809  20.000   4.565
86298W        W58558  29.255  18.009   1.839
86299W        W58559  40.846  19.428   3.679
86300W        W58560  40.741  34.349   1.656
86301W        W58561  21.014  31.023   2.687
86302W        W58562  40.076   6.891  12.838
86303W        W58563  24.499  42.028  14.054
86304W        W58564   0.584  12.999   3.142
86305W        W58565   7.345  36.000  12.441
86306W        W58566  44.780  39.010  14.830
86307W        W58567   0.016  43.912   1.391
86308W        W58568  14.191   9.019   4.549
86309W        W58569  15.644  40.137   9.961
86310W        W58570   9.862  26.703  13.068
86311W        W58571  33.180   0.007   3.276
86312W        W58572  39.449   6.757   1.404
86313W        W58573  36.817   6.412   4.791
86314W        W58574  38.916  34.065   0.441
86315W        W58575  35.985  22.554   2.950
86316W        W58576  32.602  14.119   2.154
86317W        W58577   0.532  37.445   5.067
86318W        W58578  41.647  37.836   3.929
86319W        W58579  18.152  35.993  13.880
86320W        W58580  19.577  17.531  13.351
86321W        W58581  13.803  25.887   3.258
86322W        W58582  22.954  17.394  14.868
86323W        W58583  44.087  20.640   3.769
86324W        W58584   9.087   5.493  12.830
86325W        W58585  40.824  13.402   3.867
86326W        W58586  36.271  32.111   4.517
86327W        W58587  18.616  21.569   0.814
86328W        W58588  31.577  13.114  14.411
86329W        W58589   9.717  10.179  14.264
86330W        W58590  36.514  39.821   4.475
86331W        W58591  28.788   1.776   2.858
86332W        W58592   3.304  25.191   3.249
86333W        W58593   0.594  19.633  14.873
86334W        W58594   2.834  35.918  11.427
86335W        W58595  34.140  28.409   2.784
86336W        W58596  21.509   0.081  11.652
86337W        W58597   5.164  42.667  14.338
86338W        W58598  42.330  24.444  12.008
86339W        W58599  21.057   7.943  13.006
86340W        W58600  33.603   7.683   0.973
86341W        W58601  29.094  14.286   0.203
86342W        W58602  28.641  13.806  12.483
86343W        W58603   7.893  31.002  11.191
86344W        W58604  32.310  24.832   3.939
86345W        W58605  27.396  31.746   5.012
86346W        W58606  17.140  18.548   0.090
86347W        W58607  22.506  24.771  13.568
86348W        W58608   2.955   9.937  14.256
86349W        W58609   5.284  44.091   0.498
86350W        W58610  23.047  26.184  13.464
86351W        W58611   0.977  22.018   0.118
86352W        W58612  41.171  37.477  13.428
86353W        W58613   4.021  35.363   3.582
86354W        W58614   5.377  26.794  14.367
86355W        W58615  36.486  34.124  11.650
86356W        W58616  43.531  33.357  11.059
86357W        W58617  41.066   1.180   1.725
86358W        W58618  16.659  31.215   4.191
86359W        W58619   7.935  24.562  12.374
86360W        W58620  13.436  34.130  11.038
86361W        W58621  22.504  21.811  11.106
86362W        W58622  24.022   8.273  10.657
86363W        W58623  24.637  41.864  13.582
86364W        W58624  34.331   2.007  11.652
86365W        W58625  12.777  17.603  13.608
86366W        W58626   2.201  21.068   2.165
86367W        W58627  39.306  25.148  13.763
86368W        W58628  24.582  34.999   0.402
86369W        W58629  41.084   2.091   4.167
86370W        W58630  22.212  41.762   4.575
86371W        W58631   9.607  44.396  12.467
86372W        W58632  35.625  33.968   4.148
86373W        W58633  37.564  37.301   3.185
86374W        W58634   8.686   6.777  10.827
86375W        W58635  26.066  17.779  12.138
86376W        W58636  12.323  12.942   1.995
86377W        W58637  16.315   2.087   4.139
86378W        W58638   9.887  40.803  13.835
86379W        W58639  44.513  36.580  14.065
86380W        W58640  41.498  38.056  11.379
86381W        W58641  26.073  11.411  11.959
86382W        W58642  38.326   1.845  13.445
86383W        W58643  15.331  43.225   4.417
86384W        W58644  44.236  37.202  14.690
86385W        W58645   1.804  16.216  13.957
86386W        W58646  35.112  33.041  12.939
86387W        W58647  19.088  15.186  13.489
86388W        W58648  38.876  41.904  14.386
86389W        W58649   1.380  37.329   1.779
86390W        W58650  41.288  28.517  12.397
86391W        W58651  32.465   9.679   2.866
86392W        W58652   5.275  31.326   2.984
86393W        W58653  42.532  39.106  14.521
86394W        W58654  31.516  31.139  12.364
86395W        W58655  41.492   1.812   2.291
86396W        W58656   2.716  32.523   3.357
86397W        W58657  23.108  29.811   3.241
86398W        W58658  22.231  11.286  13.971
86399W        W58659  27.794  15.547   3.306
86400W        W58660  16.228  25.174  11.180
86401W        W58661   9.171  44.868  13.982
86402W        W58662  11.127  24.324   0.635
86403W        W58663   7.159   7.750   1.858
86404W        W58664  33.220  19.617  10.098
86405W        W58665   7.520  21.047   0.337
86406W        W58666  34.873  25.362   1.229
86407W        W58667   0.466  36.438   4.291
86408W        W58668   4.933  27.468   3.781
86409W        W58669  41.372  43.349  13.753
86410W        W58670   1.362  16.000  13.817
86411W        W58671  26.669  42.505  14.633
86412W        W58672  12.385   7.431   2.346
86413W        W58673   5.880  28.059   2.357
86414W        W58674  36.987  11.080  14.902
86415W        W58675  15.267   1.172   1.134
86416W        W58676  13.064  31.405   0.186
86417W        W58677  16.588  18.083   4.111
86418W        W58678  13.666   6.884   3.384
86419W        W58679  32.224   4.167  13.072
86420W        W58680  22.945  34.396  11.102
86421W        W58681  10.919  35.012   3.109
86422W        W58682  19.019  27.991   2.082
86423W        W58683  27.469  23.459  12.072
86424W        W58684  29.982  22.751   0.908
86425W        W58685  31.387  14.317   4.956
86426W        W58686   0.740  13.786   3.373
86427W        W58687  17.104  11.617   4.934
86428W        W58688  22.584  24.565  12.582
86429W        W58689  30.804  44.240   4.122
86430W        W58690  27.920  13.998  10.994
86431W        W58691  43.067  13.723  11.041
86432W        W58692   5.420   9.642   1.494
86433W        W58693   0.162  14.535   3.338
86434W        W58694  24.244  20.424  12.010
86435W        W58695  25.015  39.313   0.312
86436W        W58696   0.347  16.600  11.036
86437W        W58697   0.527  21.751   2.583
86438W        W58698   9.125   3.399  12.128
86439W        W58699  12.104  31.458  12.945
86440W        W58700  21.402  36.862  12.835
86441W        W58701  41.424  30.999  11.659
86442W        W58702  15.708  12.302   2.196
86443W        W58703  18.267  30.863  13.422
86444W        W58704  18.683  26.436  14.750
86445W        W58705  28.230  16.689   2.648
86446W        W58706  41.337  10.390   0.796
86447W        W58707  13.133  39.276  14.027
86448W        W58708  19.692  37.412  13.351
86449W        W58709  41.822   6.424  11.950
86450W        W58710  28.137   0.188  11.591
86451W        W58711   9.283  22.642  13.736
86452W        W58712  18.179  37.965  12.925
86453W        W58713  10.436  30.050   4.253
86454W        W58714  16.564   1.786  12.407
86455W        W58715  14.154   7.794  13.851
86456W        W58716  13.879  25.051   1.732
86457W        W58717  12.359  29.898   2.797
86458W        W58718  41.638  26.037   1.816
86459W        W58719   0.711   4.166  11.640
86460W        W58720  19.039  27.741  11.492
86461W        W58721  10.284  33.258  13.827
86462W        W58722  44.607  39.838  11.640
86463W        W58723  33.882  32.942   1.271
86464W        W58724  44.852  32.859  11.968
86465W        W58725   9.841  22.554  11.244
86466W        W58726  10.060  18.114  11.669
86467W        W58727  42.232  20.015   2.258
86468W        W58728  44.049  15.548   4.163
86469W        W58729  32.940  20.618   1.894
86470W        W58730   7.781  35.797  11.064
86471W        W58731  36.998  23.630  12.163
86472W        W58732  34.390  26.750  11.059
86473W        W58733   9.690  11.658   2.316
86474W        W58734   1.986   0.841   1.794
86475W        W58735  12.893  22.760  11.970
86476W        W58736  17.782  32.618  14.365
86477W        W58737   9.815  31.476   0.972
86478W        W58738  35.768   1.404  11.716
86479W        W58739  40.970   3.665   3.074
86480W        W58740  16.585  13.236  14.160
86481W        W58741  29.596  43.489  11.382
86482W        W58742  12.058  38.738  12.451
86483W        W58743  20.798  25.595   4.522
86484W        W58744  18.714  26.718  14.328
86485W        W58745  32.114   3.367  14.773
86486W        W58746  19.162  20.560  10.719
86487W        W58747  39.776  34.741  14.480
86488W        W58748  37.162  32.865  14.424
86489W        W58749   0.446  37.836   4.708
86490W        W58750  43.945  34.585   1.301
86491W        W58751  24.922   5.893  12.938
86492W        W58752   8.317  26.628  11.911
86493W        W58753  40.810  32.422  12.107
86494W        W58754  25.214  29.089  11.618
86495W        W58755   5.227   1.138  11.176
86496W        W58756   4.023  37.387  12.898
86497W        W58757  27.589  16.249  11.919
86498W        W58758  42.575  31.162   0.961
86499W        W58759  20.230  28.536   3.149
86500W        W58760  44.753   2.063   2.567
86501W        W58761  28.204  20.180   1.742
86502W        W58762  37.319  33.489   2.622
86503W        W58763  41.472  31.342  13.475
86504W        W58764  41.703  39.103   1.064
86505W        W58765  32.457   5.163   3.130
86506W        W58766  37.609   9.702  11.422
86507W        W58767  34.010  29.070   3.303
86508W        W58768  29.741  35.043   2.804
86509W        W58769   3.841   0.691  14.272
86510W        W58770  29.403  14.894   1.910
86511W        W58771  23.660  41.392   3.718
86512W        W58772  31.506  44.578  13.370
86513W        W58773   5.202  22.005  14.033
86514W        W58774  44.439  27.209  14.303
86515W        W58775  41.150  25.567  14.788
86516W        W58776  13.870  34.784   2.321
86517W        W58777  35.925  39.556   4.575
86518W        W58778  15.523   6.086  11.959
86519W        W58779  12.087  17.472  14.793
86520W        W58780  30.777  18.713   3.323
86521W        W58781  22.124  41.832  14.778
86522W        W58782  33.399   3.013  13.316
86523W        W58783  19.389  35.952   1.256
86524W        W58784  32.550  24.187   3.395
86525W        W58785   8.759  40.337  13.458
86526W        W58786  14.091  30.350  14.871
86527W        W58787   0.482  29.200   1.647
86528W        W58788  44.441  41.548   0.521
86529W        W58789  43.568   9.136  14.987
86530W        W58790  30.574  11.061   3.581
86531W        W58791   1.359   5.947  10.787
86532W        W58792   9.340  33.902  11.607
86533W        W58793  11.892  25.877  14.725
86534W        W58794  30.213  32.879   1.481
86535W        W58795  38.594  39.382   0.572
86536W        W58796  42.345  21.509  10.982
86537W        W58797  12.759  20.833  14.810
86538W        W58798  38.860  32.647   1.551
86539W        W58799  29.120  33.141  14.920
86540W        W58800   9.247  10.317   3.258
86541W        W58801  29.015  22.518  12.491
86542W        W58802   8.423  11.621   3.611
86543W        W58803  33.561  38.829  13.548
86544W        W58804  29.707  22.990   5.185
86545W        W58805  12.824  28.025   9.766
86546W        W58806   9.630  20.739  10.873
86547W        W58807  34.918  23.304   3.378
86548W        W58808   6.292  13.714  11.434
86549W        W58809   7.757  27.597   9.687
86550W        W58810   5.175  27.537   1.924
86551W        W58811  10.911  13.726  12.111
86552W        W58812   9.177  22.663   4.120
86553W        W58813   1.724  24.627   3.205
86554W        W58814  40.864  30.450   0.389
86555W        W58815  38.932  24.525   0.507
86556W        W58816   6.154  10.970  11.050
86557W        W58817  21.837   3.695   0.266
86558W        W58818   7.648  23.120  14.550
86559W        W58819  32.255  38.472   2.680
86560W        W58820   6.651  23.041  10.817
86561W        W58821  12.269  14.239   2.083
86562W        W58822  43.264  44.403  12.052
86563W        W58823   6.956  31.140  12.048
86564W        W58824  44.862  33.542  10.768
86565W        W58825  19.488  12.705   0.038
86566W        W58826  14.364  24.974  12.448
86567W        W58827  11.834  22.796  14.410
86568W        W58828   6.738   4.632  14.717
86569W        W58829   0.475  37.919   1.143
86570W        W58830  33.529  34.929   2.304
86571W        W58831  30.059   0.183  12.561
86572W        W58832  36.854  37.954  11.988
86573W        W58833  40.516  26.973  11.106
86574W        W58834  17.514   3.658  14.335
86575W        W58835  31.944  31.934  10.671
86576W        W58836   6.191  32.040  14.981
86577W        W58837  15.132  14.819   2.196
86578W        W58838  32.820  12.338   4.283
86579W        W58839  19.913  33.958  13.448
86580W        W58840  29.050   4.184   2.618
86581W        W58841  40.531  37.045   1.931
86582W        W58842  18.523   6.169  11.120
86583W        W58843  38.739  30.551  12.917
86584W        W58844  13.650  28.558   4.195
86585W        W58845  43.330  22.796  12.993
86586W        W58846  19.823  36.849   2.339
86587W        W58847  16.979  15.214   9.775
86588W        W58848  11.345  20.638  13.854
86589W        W58849  19.488   5.938  10.753
86590W        W58850   3.882  12.384   0.175
86591W        W58851  27.887   4.294  11.154
86592W        W58852  44.826  34.129  11.400
86593W        W58853  29.216  25.267   1.406
86594W        W58854  17.104  18.147   5.057
86595W        W58855  16.101  14.384  13.986
86596W        W58856   5.491   7.330  14.753
86597W        W58857  35.508  33.736  13.390
86598W        W58858   9.113  17.596  14.616
86599W        W58859  20.034  21.625  14.634
86600W        W58860   2.688  37.663  11.083
86601W        W58861  26.491  43.842   3.728
86602W        W58862   2.461   0.322  12.459
86603W        W58863  33.033   5.907   4.595
86604W        W58864  31.210  31.183   5.051
86605W        W58865  24.641  31.394   4.799
86606W        W58866   0.568   1.865  11.902
86607W        W58867  19.214  35.758   4.434
86608W        W58868  25.694  23.179   4.478
86609W        W58869  25.757  28.188  11.627
86610W        W58870  25.106  12.378  12.955
86611W        W58871  30.651  37.371   0.905
86612W        W58872  40.818  11.290  14.365
86613W        W58873  15.872  20.978   1.814
86614W        W58874  31.281  11.125   1.207
86615W        W58875  41.350  12.446  14.365
86616W        W58876  13.251  38.567  14.866
86617W        W58877   2.309  16.536   3.662
86618W        W58878   7.702  36.855  11.715
86619W        W58879   8.641  20.305  13.848
86620W        W58880  39.496  29.428   1.230
86621W        W58881  39.681  26.549  10.953
86622W        W58882  29.677  27.433   3.578
86623W        W58883  15.701  10.165  11.087
86624W        W58884  13.398   0.232  13.494
86625W        W58885  24.129   3.464   4.629
86626W        W58886  33.870  13.286  11.986
86627W        W58887  44.401   6.674  13.517
86628W        W58888  17.801  43.162   3.307
86629W        W58889  20.598  31.885  11.079
86630W        W58890  21.755  41.362  12.348
86631W        W58891  40.440  29.716  14.366
86632W        W58892  11.342  16.035  13.420
86633W        W58893   2.948   0.636  11.949
86634W        W58894  39.232  38.282   0.313
86635W        W58895  17.524  39.076   1.208
86636W        W58896  16.473  42.655   4.189
86637W        W58897  18.803   3.708  12.489
86638W        W58898  25.769  14.873  11.118
86639W        W58899  18.053   6.956   3.527
86640W        W58900  11.890  16.543  11.780
86641W        W58901  32.532  27.940  13.075
86642W        W58902  30.122  27.966  14.850
86643W        W58903   0.233  43.354   3.247
86644W        W58904  32.931  37.633   4.196
86645W        W58905  25.536   1.440  14.517
86646W        W58906  22.161  17.731  10.769
86647W        W58907  18.723  12.763   4.481
86648W        W58908  40.073  20.116  10.633
86649W        W58909   0.512   4.055  11.193
86650W        W58910  30.677  42.449   3.796
86651W        W58911  26.646  38.448  14.128
86652W        W58912   6.952  32.657  12.045
86653W        W58913   0.047  31.427   1.674
86654W        W58914  44.863   0.863  12.342
86655W        W58915  36.918  25.079   2.136
86656W        W58916  10.353  27.930   1.387
86657W        W58917  30.553   0.919   2.555
86658W        W58918   0.325  30.539  10.607
86659W        W58919  31.036  20.843   4.659
86660W        W58920   1.173  24.107   0.921
86661W        W58921  24.499   6.994  10.642
86662W        W58922  44.818  39.457   3.214
86663W        W58923  27.112  28.410   1.949
86664W        W58924   0.256  17.549  13.786
86665W        W58925  23.480  30.880   1.415
86666W        W58926  13.601  13.121  11.040
86667W        W58927  42.936   2.669   3.291
86668W        W58928  26.386  24.994  13.813
86669W        W58929  42.758  36.868  13.002
86670W        W58930  38.974  20.770  10.084
86671W        W58931  21.094  39.742   4.312
86672W        W58932  20.411  32.932  14.348
86673W        W58933  23.197   9.433  12.861
86674W        W58934  42.710   3.732   1.760
86675W        W58935  25.008  43.141   3.157
86676W        W58936  35.203  44.497  13.267
86677W        W58937   6.526  13.188  12.001
86678W        W58938  12.171  20.814   0.818
86679W        W58939   7.438  24.174  11.999
86680W        W58940  25.629  29.675  13.985
86681W        W58941   8.741  37.954   1.411
86682W        W58942  25.670  14.688   0.024
86683W        W58943  32.492  25.261   3.684
86684W        W58944  42.754   3.434  13.387
86685W        W58945  21.281  11.089   2.751
86686W        W58946   4.923  32.097   3.749
86687W        W58947  26.008  40.393  13.653
86688W        W58948  39.837  17.189  11.585
86689W        W58949   4.009  31.207   2.760
86690W        W58950  15.262  40.518  14.434
86691W        W58951  17.466  37.369   0.685
86692W        W58952  17.245  10.848   3.366
86693W        W58953  10.776  41.940   0.989
86694W        W58954  27.921  38.159   2.976
86695W        W58955  31.930  43.868  11.198
86696W        W58956  40.859  43.797   0.368
86697W        W58957  38.819  33.403   2.764
86698W        W58958  13.886  31.428  13.179
86699W        W58959  36.465  25.733   1.880
86700W        W58960  21.122  16.587  13.792
86701W        W58961   5.921  19.986  13.668
86702W        W58962  28.911  10.898  14.528
86703W        W58963  16.835  17.625  11.133
86704W        W58964   2.523  21.726   1.021
86705W        W58965  31.087  15.137   4.046
86706W        W58966  27.964  16.774  12.510
86707W        W58967   3.957  11.157  12.955
86708W        W58968  11.394   0.875  10.876
86709W        W58969  15.072  44.006  13.371
86710W        W58970  30.044   1.909  12.570
86711W        W58971  11.860  41.816  14.968
86712W        W58972  13.695  31.945   2.637
86713W        W58973  37.827  31.485  11.471
86714W        W58974  38.760  20.745   4.368
86715W        W58975  31.358  44.183   0.347
86716W        W58976  14.777  32.038   0.287
86717W        W58977  39.853  15.644  14.345
86718W        W58978  13.254   1.331  12.638
86719W        W58979  23.074   8.531   2.969
86720W        W58980  22.651  44.362   1.335
86721W        W58981  41.584   3.664  14.082
86722W        W58982  25.981  14.076  11.174
86723W        W58983  24.073  12.764   3.156
86724W        W58984  41.288  39.079  12.925
86725W        W58985  32.029   0.714   3.112
86726W        W58986  28.684   1.242  10.398
86727W        W58987  27.110  20.234   2.272
86728W        W58988  18.140   4.952   1.353
86729W        W58989  35.313  15.879   0.766
86730W        W58990  34.836  18.601   4.644
86731W        W58991  22.455  13.225   2.302
86732W        W58992   0.024  16.270   2.933
86733W        W58993  44.403   1.128   1.530
86734W        W58994  10.182  17.844   3.346
86735W        W58995  37.058  17.628  13.482
86736W        W58996  21.892  20.698   5.049
86737W        W58997  40.433  39.990   4.904
86738W        W58998  37.011  42.552   4.160
86739W        W58999  29.627  21.209   0.294
86740W        W59000   6.677  42.926   0.866
86741W        W59001  20.121  21.289  11.106
86742W        W59002   2.125  20.027  12.878
86743W        W59003   8.179  27.645   0.363
86744W        W59004   8.155  43.393  12.253
86745W        W59005  25.124  12.112  10.711
86746W        W59006  37.520   3.243  13.047
86747W        W59007  41.547  40.960   4.464
86748W        W59008  15.074  14.192   2.365
86749W        W59009  27.203  40.351  13.451
86750W        W59010  40.988  43.716   1.372
86751W        W59011  27.110  15.836  13.105
86752W        W59012  13.225  29.378  10.740
86753W        W59013  26.113   1.325   1.311
86754W        W59014   6.784  40.140   3.721
86755W        W59015  29.420  25.463  11.995
86756W        W59016  14.833  37.383  12.408
86757W        W59017   0.431  21.799   0.318
86758W        W59018  44.860  27.717  10.795
86759W        W59019  28.714  37.348   3.683
86760W        W59020  20.105   4.100  13.463
86761W        W59021  29.143  40.960  12.455
86762W        W59022  29.117  24.537   4.456
86763W        W59023   2.171  24.995  12.608
86764W        W59024   4.794  33.506   2.325
86765W        W59025  21.264  12.048   2.816
86766W        W59026  32.481  33.611  13.916
86767W        W59027  10.607  34.853   1.327
86768W        W59028  13.771  24.602  11.996
86769W        W59029   7.005  27.462   0.642
86770W        W59030  18.872  33.506  13.616
86771W        W59031  39.108  15.697   1.679
86772W        W59032   8.220  35.875   0.190
86773W        W59033  33.514  43.778   0.747
86774W        W59034  16.955  12.929  11.224
86775W        W59035  24.586  25.067   4.098
86776W        W59036  34.187  39.160   4.155
86777W        W59037   8.413   4.294   3.521
86778W        W59038  39.903  42.766   3.353
86779W        W59039  15.620  31.703  10.683
86780W        W59040  14.614   0.403  12.083
86781W        W59041  44.699  34.645   1.802
86782W        W59042  25.749   5.819  10.681
86783W        W59043  15.820  36.313   4.530
86784W        W59044   8.581  26.987   0.283
86785W        W59045  20.159  42.479   0.485
86786W        W59046  20.679  11.886   0.934
86787W        W59047   2.000  11.814  10.934
86788W        W59048  17.572  23.059  14.094
86789W        W59049  21.666  27.324   4.284
86790W        W59050  21.128  44.924  13.320
86791W        W59051  27.960   7.140   0.482
86792W        W59052  34.019  40.684   1.375
86793W        W59053  43.658  17.876   1.852
86794W        W59054  22.157  32.022  14.269
86795W        W59055  39.466  16.091   0.284
86796W        W59056  29.405  33.056   3.820
86797W        W59057  40.284  42.551  11.126
86798W        W59058   5.322  39.985   1.879
86799W        W59059   7.304  19.337   3.580
86800W        W59060   7.002   6.505  11.928
86801W        W59061   8.485  27.437  13.476
86802W        W59062  36.063   8.775   2.942
86803W        W59063  43.835  22.668  13.050
86804W        W59064  44.926  38.479  11.562
86805W        W59065  33.885  13.670  14.788
86806W        W59066  44.879  18.718  13.861
86807W        W59067  33.107  23.044  13.561
86808W        W59068  33.938   5.048   0.800
86809W        W59069  33.958  10.892  14.879
86810W        W59070  15.314  12.089   4.085
86811W        W59071  17.882   4.377  13.804
86812W        W59072  19.561  37.298   2.268
86813W        W59073  19.057  26.936   0.320
86814W        W59074   8.869  17.036   1.731
86815W        W59075  36.497   0.396   5.124
86816W        W59076  43.043  32.496  11.731
86817W        W59077  40.962   3.695   2.574
86818W        W59078  21.797  14.689   1.206
86819W        W59079  27.230  27.049  11.790
86820W        W59080  36.479   6.078   5.043
86821W        W59081  25.666  33.961   3.714
86822W        W59082  13.889   4.451  10.979
86823W        W59083  26.466  11.053   1.411
86824W        W59084  40.657  37.489  14.334
86825W        W59085  43.049  26.006  10.560
86826W        W59086  37.141   6.343  11.425
86827W        W59087  30.395  42.791   1.710
86828W        W59088  33.577   4.202  11.380
86829W        W59089  19.176  10.744  14.904
86830W        W59090  10.790   9.856   2.266
86831W        W59091  24.067  24.440   3.308
86832W        W59092  32.491  15.058   3.142
86833W        W59093  21.243  24.285  13.860
86834W        W59094  43.222  20.598  13.802
86835W        W59095   7.173  10.351   3.262
86836W        W59096  42.956  36.214  13.400
86837W        W59097  29.643  39.457   3.869
86838W        W59098   4.356   9.920  13.304
86839W        W59099   1.807  11.366  10.719
86840W        W59100  21.987   8.892   0.386
86841W        W59101  15.060  30.963   4.892
86842W        W59102  11.597  16.935  10.470
86843W        W59103  16.485  38.776  11.080
86844W        W59104  29.328  15.867   4.751
86845W        W59105  33.494  18.813  12.038
86846W        W59106  13.122  26.108  14.995
86847W        W59107  44.958  39.520  11.440
86848W        W59108  28.519   2.384  12.602
86849W        W59109  38.949  13.281   0.795
86850W        W59110   4.808  28.520  10.984
86851W        W59111  18.743  27.722   3.849
86852W        W59112  35.023   6.259   1.806
86853W        W59113  13.651  29.460   1.945
86854W        W59114  27.496  31.434   9.535
86855W        W59115   0.680  24.807  13.307
86856W        W59116  38.418   0.897  10.909
86857W        W59117  12.565  33.932  13.977
86858W        W59118  10.783   6.962  14.871
86859W        W59119  13.329  30.263  12.938
86860W        W59120   7.734  33.556   1.025
86861W        W59121   2.893  20.953   1.284
86862W        W59122  12.101  39.507   0.491
86863W        W59123   4.508  26.952   4.597
86864W        W59124  30.990  16.526   0.778
86865W        W59125   4.793  31.483  10.658
86866W        W59126  22.109  20.844   3.733
86867W        W59127  33.421  40.036   4.715
86868W        W59128  19.131  29.632   4.069
86869W        W59129  29.639  34.490   4.184
86870W        W59130  42.516  23.439   0.862
86871W        W59131  22.471  43.256   3.727
86872W        W59132  18.388   6.279   3.080
86873W        W59133  17.211  39.539  13.766
86874W        W59134  11.562   6.038  11.954
86875W        W59135  32.118  30.657  12.129
86876W        W59136  25.122  19.747   3.731
86877W        W59137  22.923   1.179   3.668
86878W        W59138   0.200  18.731   0.185
86879W        W59139  28.019   4.903  12.355
86880W        W59140   8.915  20.466   1.419
86881W        W59141   8.334  42.528   0.963
86882W        W59142   7.966   7.375  12.104
86883W        W59143   3.568  36.148   4.868
86884W        W59144  28.744   7.474  11.058
86885W        W59145  41.521   8.262   3.381
86886W        W59146  38.321   3.225   3.559
86887W        W59147   6.791   1.397  14.223
86888W        W59148   2.526   3.165   0.971
86889W        W59149  44.163   5.364   1.912
86890W        W59150  12.051  25.236  14.952
86891W        W59151  37.990  43.429   2.595
86892W        W59152   9.157  24.768   1.234
86893W        W59153  11.395  41.257   1.806
86894W        W59154  18.768  16.276   3.073
86895W        W59155  43.344  42.513  13.912
86896W        W59156  34.721  39.997   2.775
86897W        W59157  10.906  25.976  14.415
86898W        W59158  40.612  12.594  10.613
86899W        W59159  37.382  35.369  12.438
86900W        W59160   9.936  42.389  12.616
86901W        W59161  38.462   0.415  10.696
86902W        W59162  17.025   7.402   1.845
86903W        W59163  13.184  15.105  11.651
86904W        W59164  24.160  40.016   5.333
86905W        W59165   8.133  32.728   1.206
86906W        W59166  32.879  43.204   2.717
86907W        W59167  39.065  18.829   5.124
86908W        W59168  32.166  15.473   2.726
86909W        W59169   6.109  35.960   0.739
86910W        W59170  20.793  21.464  11.005
86911W        W59171  10.241   4.451  13.407
86912W        W59172   5.774  43.111  13.155
86913W        W59173  34.940   9.849  11.178
86914W        W59174  34.910  24.015  13.965
86915W        W59175  20.086  25.556  12.850
86916W        W59176   5.091  18.657   0.870
86917W        W59177  17.337  28.895   4.573
86918W        W59178  22.953  15.759   3.741
86919W        W59179  33.225   3.229   5.212
86920W        W59180  44.794  44.302  13.074
86921W        W59181  34.102   6.151  12.393
86922W        W59182  43.593   5.731  14.825
86923W        W59183  18.189  28.636  10.645
86924W        W59184   7.914  43.797   0.806
86925W        W59185  12.391  34.408   1.318
86926W        W59186  40.570  17.140   3.381
86927W        W59187   3.882   2.852   4.611
86928W        W59188  33.903  39.789   2.341
86929W        W59189  25.438   5.084  11.095
86930W        W59190   5.877  19.596   3.130
86931W        W59191  25.997  15.244   2.893
86932W        W59192   7.594   1.921  13.274
86933W        W59193  41.368  32.934   3.784
86934W        W59194  20.061  44.191  10.458
86935W        W59195  40.267   9.776  12.307
86936W        W59196   0.869  40.566   2.595
86937W        W59197  21.384   0.034   3.646
86938W        W59198  40.805  10.567   0.932
86939W        W59199  12.313  13.782   1.876
86940W        W59200  43.898  31.716  11.489
86941W        W59201  19.812  24.095   0.466
86942W        W59202  40.894  10.803  14.514
86943W        W59203  35.032  28.675  13.526
86944W        W59204  16.374  20.352  12.452
86945W        W59205  23.975  25.095  11.934
86946W        W59206   4.690   1.881   3.525
86947W        W59207  30.372   4.220  14.245
86948W        W59208   6.122  12.867  11.978
86949W        W59209   1.968  38.325  12.771
86950W        W59210   8.883  10.727   2.126
86951W        W59211  43.274   6.026   0.249
86952W        W59212  39.651  38.064  12.675
86953W        W59213  39.494   3.481  11.238
86954W        W59214  22.427  14.645  11.381
86955W        W59215  41.280  33.521  13.324
86956W        W59216  14.107   6.077   3.629
86957W        W59217  22.535  40.360   1.246
86958W        W59218  27.931  17.785   2.741
86959W        W59219   6.520   0.568   2.576
86960W        W59220  18.501  28.622   2.803
86961W        W59221  29.433  38.372   0.941
86962W        W59222  18.599  44.245  14.269
86963W        W59223  11.932  40.978  12.464
86964W        W59224  26.491  21.347  12.466
86965W        W59225  23.663  14.235  14.421
86966W        W59226  42.780   3.462   0.332
86967W        W59227  40.761  26.534  13.952
86968W        W59228  17.766  21.278   3.676
86969W        W59229  28.306  39.075   5.155
86970W        W59230   0.843  32.589  14.984
86971W        W59231   2.199  33.787  11.611
86972W        W59232  22.065   2.481   2.795
86973W        W59233  29.568   4.114   3.853
86974W        W59234   6.743  11.858  12.842
86975W        W59235   0.912  41.841  13.530
86976W        W59236  23.007  24.906  13.357
86977W        W59237  30.774  42.757   2.052
86978W        W59238   1.386  42.415  11.599
86979W        W59239  35.649  22.169  14.659
86980W        W59240  40.147  43.463   2.957
86981W        W59241  28.376  12.771   3.955
86982W        W59242   5.135  11.062  10.798
86983W        W59243   6.117  32.923  13.137
86984W        W59244   8.606  19.529   2.242
86985W        W59245  35.148   0.647  14.264
86986W        W59246  40.493  19.792  12.959
86987W        W59247  33.736  44.026   1.148
86988W        W59248   3.512  10.093  11.122
86989W        W59249  37.954  15.318  13.444
86990W        W59250  25.007   8.730  13.495
86991W        W59251  40.086  14.685  12.881
86992W        W59252   7.657   9.695   0.085
86993W        W59253  31.986  22.622  12.952
86994W        W59254  41.801  41.334  14.556
86995W        W59255  27.205  22.546  12.024
86996W        W59256  32.627  19.172  10.740
86997W        W59257  32.026  27.995   4.102
86998W        W59258   5.365  29.458  14.843
86999W        W59259  40.887  22.570  12.440
87000W        W59260  38.366  12.894   1.811
87001W        W59261  16.062  16.598   2.342
87002W        W59262  15.564  10.291  10.595
87003W        W59263  30.696  38.458  11.261
87004W        W59264  11.053  43.038  14.351
87005W        W59265  21.251  31.220  10.806
87006W        W59266   2.223  11.152  10.941
87007W        W59267  21.132  42.501  11.572
87008W        W59268  23.654  34.603   3.228
87009W        W59269  25.521  18.855   1.804
87010W        W59270  31.822  35.165   3.828
87011W        W59271  39.541   6.735   3.573
87012W        W59272  12.437  33.532   1.575
87013W        W59273   2.367  36.940   1.776
87014W        W59274  32.469   3.069   3.160
87015W        W59275   8.283  30.925   0.891
87016W        W59276  21.214  16.338   4.130
87017W        W59277  17.498  36.069  14.454
87018W        W59278   6.726   5.120  13.061
87019W        W59279  10.848  26.463  10.590
87020W        W59280   0.555   1.928  11.344
87021W        W59281  33.688  42.821  11.167
87022W        W59282   3.289   1.811   0.336
87023W        W59283  16.295   0.054   0.956
87024W        W59284   8.959  15.516   0.755
87025W        W59285  19.784  42.534  10.682
87026W        W59286   9.183  41.634  12.485
87027W        W59287  14.688  39.047  13.093
87028W        W59288  21.585   9.291   3.727
87029W        W59289  20.915  16.692  14.785
87030W        W59290  17.385  22.632  13.856
87031W        W59291  19.662   2.417  14.030
87032W        W59292  11.569  23.722  12.522
87033W        W59293  16.953  26.985   9.965
87034W        W59294   2.342  38.027   2.354
87035W        W59295   7.164  41.950   3.897
87036W        W59296  29.693  40.838  10.777
87037W        W59297  19.062  29.572  12.912
87038W        W59298  30.410  22.018   2.321
87039W        W59299  31.198  44.383  14.465
87040W        W59300  36.952  13.526   0.352
87041W        W59301  14.572  21.054   4.529
87042W        W59302  21.446  21.065   2.276
87043W        W59303  40.116  15.159   2.973
87044W        W59304   6.762  40.422  13.759
87045W        W59305   1.061   0.842   2.269
87046W        W59306  14.786  30.523   4.194
87047W        W59307   4.900  26.697  13.400
87048W        W59308  33.070   3.639   3.795
87049W        W59309  17.351  31.526   3.430
87050W        W59310  20.337   1.716   0.330
87051W        W59311  34.357   9.291  12.387
87052W        W59312   4.337   5.803   2.759
87053W        W59313   3.226  13.149   1.542
87054W        W59314  26.920  20.097   2.735
87055W        W59315  36.484  39.528   4.026
87056W        W59316  21.113   3.885  12.738
87057W        W59317  19.747  28.014  10.468
87058W        W59318  11.241  23.583   4.545
87059W        W59319  42.799  43.675  10.756
87060W        W59320  19.317  37.293   1.776
87061W        W59321  16.820   5.705  11.067
87062W        W59322  42.347  24.326  10.899
87063W        W59323  33.166  33.991   0.269
87064W        W59324  11.829  23.718   2.666
87065W        W59325  43.384   1.820  14.792
87066W        W59326   0.226  12.122  11.971
87067W        W59327  14.221   3.383   4.358
87068W        W59328  11.106  13.281  13.453
87069W        W59329   6.741  17.746   3.806
87070W        W59330  42.400  15.754   2.845
87071W        W59331  34.143  35.931   2.655
87072W        W59332   3.842  41.639  13.342
87073W        W59333  15.232  44.835   1.856
87074W        W59334  29.583  31.435  11.323
87075W        W59335  33.504  31.046  12.314
87076W        W59336   1.775  37.951  11.278
87077W        W59337  12.631  29.558   0.700
87078W        W59338   6.383   6.853  12.546
87079W        W59339  10.668  29.062   0.676
87080W        W59340  24.078   4.406  14.799
87081W        W59341  38.146  26.090  11.763
87082W        W59342   1.383  13.112   4.848
87083W        W59343  17.595  32.169   1.850
87084W        W59344  18.152  30.511  10.729
87085W        W59345  26.475   6.428  12.532
87086W        W59346   0.763  41.269   2.311
87087W        W59347  40.996  39.094  14.332
87088W        W59348  32.967  37.319  14.013
87089W        W59349  19.648  23.564   4.342
87090W        W59350  25.623   9.670   4.521
87091W        W59351  15.822   4.756  11.627
87092W        W59352  21.808  42.231  14.009
87093W        W59353  17.702  36.956   0.942
87094W        W59354  44.876  29.831   1.886
87095W        W59355   4.624  21.105   3.629
87096W        W59356  18.296  35.036   1.223
87097W        W59357   8.324  31.350  10.619
87098W        W59358  31.475   7.916  10.427
87099W        W59359  29.035   2.689   2.258
87100W        W59360   8.147  43.362  10.802
87101W        W59361  42.359  18.532  11.179
87102W        W59362   7.407  28.547   5.147
87103W        W59363   4.898   4.162  14.405
87104W        W59364  17.952  43.079   0.272
87105W        W59365  27.035   9.465  13.615
87106W        W59366  19.244  42.981   0.945
87107W        W59367   4.491  29.961   3.887
87108W        W59368  26.162  42.260  10.919
87109W        W59369   3.331  21.128  11.662
87110W        W59370  33.453  35.778  10.592
87111W        W59371  31.854   9.829  14.259
87112W        W59372  21.641  36.532   0.167
87113W        W59373   2.744  35.373  13.536
87114W        W59374  23.246  33.561   3.152
87115W        W59375  20.707  43.896  10.782
87116W        W59376  18.305   3.116  14.520
87117W        W59377  26.957   0.535   3.542
87118W        W59378  12.597  34.681  12.415
87119W        W59379   2.979   5.333   2.913
87120W        W59380  33.396  14.340  10.090
87121W        W59381  29.993  22.693  13.413
87122W        W59382  40.017   8.647   3.226
87123W        W59383  17.473  30.505   1.528
87124W        W59384  35.049   4.407   3.663
87125W        W59385  10.405  34.405  10.558
87126W        W59386   6.869  16.007  13.783
87127W        W59387  24.153  21.296   5.061
87128W        W59388  10.869  12.265   4.845
87129W        W59389   5.414  22.987   3.086
87130W        W59390   4.011   9.836   0.539
87131W        W59391  39.901  25.599   0.497
87132W        W59392   6.120  33.542  14.767
87133W        W59393  13.621  44.043  12.147
87134W        W59394  37.666  42.312  11.202
87135W        W59395   2.459   2.659  12.377
87136W        W59396  20.447  29.216   4.592
87137W        W59397   4.640  41.489   0.901
87138W        W59398  25.432  16.200   3.785
87139W        W59399   4.003  35.888  13.819
87140W        W59400  38.318  27.099  14.378
87141W        W59401   3.810  29.513  10.676
87142W        W59402  42.808  26.390  10.282
87143W        W59403  30.444   4.388  11.094
87144W        W59404   7.259  41.757   1.474
87145W        W59405  17.976  44.902   0.904
87146W        W59406  38.458  31.109  11.370
87147W        W59407   3.740  16.570   2.605
87148W        W59408  36.451  19.147   0.548
87149W        W59409  33.596   6.270   4.166
87150W        W59410  38.054  17.068  11.158
87151W        W59411  21.092  44.500   4.490
87152W        W59412  37.162  19.244   2.731
87153W        W59413   8.758  26.978  11.958
87154W        W59414  32.616  31.409   3.282
87155W        W59415   4.581   8.101  10.053
87156W        W59416  18.213  22.492  14.482
87157W        W59417  38.826   1.876  14.045
87158W        W59418  30.538  42.001   2.080
87159W        W59419   1.692   9.836  12.882
87160W        W59420  32.299  25.227  11.223
87161W        W59421  27.510  34.656   2.640
87162W        W59422   0.354  16.222  13.317
87163W        W59423  33.022  22.101   2.126
87164W        W59424   1.031  19.007  11.168
87165W        W59425   3.525  42.956   4.224
87166W        W59426  18.004  44.840  14.516
87167W        W59427  16.709  37.699   4.586
87168W        W59428  34.616  35.190   3.477
87169W        W59429   0.479   1.035   3.310
87170W        W59430  39.801  42.873   5.036
87171W        W59431  23.527  12.079   3.927
87172W        W59432  33.775  20.714   5.574
87173W        W59433   0.856   1.620  13.244
87174W        W59434   9.673   0.201  11.052
87175W        W59435   8.747  42.864   0.968
87176W        W59436   8.728  44.381  11.013
87177W        W59437  16.533  14.542   1.730
87178W        W59438  20.084  44.689  10.663
87179W        W59439   7.227  26.020   1.777
87180W        W59440  42.942  29.708   0.194
87181W        W59441  35.445   0.538   3.673
87182W        W59442  14.377  18.664   0.418
87183W        W59443   2.367  13.105  11.244
87184W        W59444  20.082  37.047   4.670
87185W        W59445   3.901  18.206  13.260
87186W        W59446  27.402  19.350   4.122
87187W        W59447   6.626   4.389   4.181
87188W        W59448  14.263  23.289  11.658
87189W        W59449  11.568  43.867   2.250
87190W        W59450   6.132  22.273   2.150
87191W        W59451  44.343   9.337   0.268
87192W        W59452   5.168  44.308   2.250
87193W        W59453   3.881  40.027  10.818
87194W        W59454   4.261  13.667   4.126
87195W        W59455  32.328  19.450   3.168
87196W        W59456  31.965  18.571   2.669
87197W        W59457   5.629  32.953  13.986
87198W        W59458  15.573  12.747   4.709
87199W        W59459  34.031  16.873  11.852
87200W        W59460  22.078   1.964  11.388
87201W        W59461  27.700  41.760   0.301
87202W        W59462  30.956  17.519   4.433
87203W        W59463  19.835  19.327  11.635
87204W        W59464   2.858  22.065   3.404
87205W        W59465  14.617   2.579  11.546
87206W        W59466  17.271  28.513  12.002
87207W        W59467  15.708  36.044   0.748
87208W        W59468  23.398  23.081  11.981
87209W        W59469  25.816  29.836  14.869
87210W        W59470  26.123  11.567   0.741
87211W        W59471   8.408  35.386  11.571
87212W        W59472  31.998  11.084  13.107
87213W        W59473  42.475  33.699  10.325
87214W        W59474  18.127  18.252   2.489
87215W        W59475  20.034   1.582   4.687
87216W        W59476   6.940  35.552   3.693
87217W        W59477  44.830   1.665   2.217
87218W        W59478  11.819  26.473  12.461
87219W        W59479  30.390  43.791  11.153
87220W        W59480  33.090  29.270  11.384
87221W        W59481  34.322  32.226   2.706
87222W        W59482  35.261  16.097   0.284
87223W        W59483  17.335  14.168   0.480
87224W        W59484  25.263  12.371   3.401
87225W        W59485  17.818  40.053  12.676
87226W        W59486  35.074   5.195   4.548
87227W        W59487  26.174  13.650  12.181
87228W        W59488  11.625  30.128   3.238
87229W        W59489  17.745  22.014   1.269
87230W        W59490  40.490  38.893  11.769
87231W        W59491  39.500   9.576  10.989
87232W        W59492  40.093  31.091   3.658
87233W        W59493  34.804  31.113  14.284
87234W        W59494   4.972  32.650   4.090
87235W        W59495  25.617  11.498  11.146
87236W        W59496   2.927  12.463   3.579
87237W        W59497  34.582  23.547   0.829
87238W        W59498  44.899  43.838  14.487
87239W        W59499   5.980  18.070   1.791
87240W        W59500  25.337  22.200   3.679
87241W        W59501  30.058   0.445   0.982
87242W        W59502  11.108  32.849   2.218
87243W        W59503  41.357   7.858   0.701
87244W        W59504  41.408  16.094   0.710
87245W        W59505  24.051  20.957   2.431
87246W        W59506   4.180   4.096  13.270
87247W        W59507  14.412   7.179  10.867
87248W        W59508  13.217   4.286  12.537
87249W        W59509  26.564  30.672   0.388
87250W        W59510   3.370  12.716  10.284
87251W        W59511  22.135  38.975   0.323
87252W        W59512   8.073  14.654  11.599
87253W        W59513  25.439  28.594   3.239
87254W        W59514   8.236  17.899  10.958
87255W        W59515  24.143  43.994   0.499
87256W        W59516  35.942  33.546  10.676
87257W        W59517  25.965   6.371   4.884
87258W        W59518   3.309  29.649   3.293
87259W        W59519  38.562  32.349   2.732
87260W        W59520   7.895  36.991   1.892
87261W        W59521  39.872  42.483  14.484
87262W        W59522   9.775  29.511  13.589
87263W        W59523  25.044  42.504   3.205
87264W        W59524  38.862  14.724   1.903
87265W        W59525  12.594  41.720   0.521
87266W        W59526   7.064  19.543  11.138
87267W        W59527   2.284   4.744   4.406
87268W        W59528  38.115  18.862   0.426
87269W        W59529  11.903  15.772  13.855
87270W        W59530  22.191  39.840  11.949
87271W        W59531  40.999  27.164   0.452
87272W        W59532  24.708  42.744  14.742
87273W        W59533  25.590  44.037   3.658
87274W        W59534  43.900  23.519  11.132
87275W        W59535   2.397  11.625   0.133
87276W        W59536  10.607  36.996  13.023
87277W        W59537  41.495  31.984  12.805
87278W        W59538  43.852  32.619  13.613
87279W        W59539  39.368  24.506   1.327
87280W        W59540   7.910  17.238  13.056
87281W        W59541   5.391   8.004  14.278
87282W        W59542  44.899  39.832   4.219
87283W        W59543  12.163   1.993  10.818
87284W        W59544  18.058  37.518  11.550
87285W        W59545  38.816  19.995  13.371
87286W        W59546  17.567  17.767   2.148
87287W        W59547  14.547  28.712  14.837
87288W        W59548  40.479  33.545   0.979
87289W        W59549  37.898  36.270   0.324
87290W        W59550  10.921  20.661   2.077
87291W        W59551  25.268   3.447   3.979
87292W        W59552  32.105   2.355   1.221
87293W        W59553   4.674  20.017  11.963
87294W        W59554  18.215   3.897  14.879
87295W        W59555  19.779  27.736  13.956
87296W        W59556  22.006  24.680   3.895
87297W        W59557  29.738  13.989   2.318
87298W        W59558  21.207  34.637   4.230
87299W        W59559  27.218  43.482   3.782
87300W        W59560   4.662   7.713  10.749
87301W        W59561   6.057   1.558  14.936
87302W        W59562  29.966  43.496  13.700
87303W        W59563  25.200  41.288  10.275
87304W        W59564  35.005  44.016  13.449
87305W        W59565  43.582   9.583   0.749
87306W        W59566  14.590  16.827  10.013
87307W        W59567  12.622   4.478   0.768
87308W        W59568   3.691  21.104   3.625
87309W        W59569  28.027  36.291   3.206
87310W        W59570   5.744  12.532  12.022
87311W        W59571   5.224  10.263  13.220
87312W        W59572  10.793  34.769   4.583
87313W        W59573  17.191   1.514  10.806
87314W        W59574  14.703  17.876   4.244
87315W        W59575   3.351  29.653  12.555
87316W        W59576   1.840  37.010  13.382
87317W        W59577  28.683   8.007  14.935
87318W        W59578  14.647  41.259  14.974
87319W        W59579  31.649   1.120  14.918
87320W        W59580  27.448  28.977  11.089
87321W        W59581  14.203  19.276   2.306
87322W        W59582  10.868  17.862  13.362
87323W        W59583  13.282  23.010  11.608
87324W        W59584   9.439  11.684   1.854
87325W        W59585  28.022  29.647  12.858
87326W        W59586  43.468  26.733   2.895
87327W        W59587  24.717  37.784  12.503
87328W        W59588  39.000  35.850   4.619
87329W        W59589  36.170  19.556   0.368
87330W        W59590  24.734  34.920   3.855
87331W        W59591  17.307  35.491  12.365
87332W        W59592   5.648   0.387  12.188
87333W        W59593  13.289  19.371   2.233
87334W        W59594   1.841  20.296   0.409
87335W        W59595  15.998  10.770   4.066
87336W        W59596   0.255  34.414   0.839
87337W        W59597  20.425   5.571  12.477
87338W        W59598  41.968  29.698   1.524
87339W        W59599  32.078  24.138   0.222
87340W        W59600  20.397   3.370  13.094
87341W        W59601  20.339  19.752   5.090
87342W        W59602  23.701  16.710  12.906
87343W        W59603  43.394  27.059  11.741
87344W        W59604   9.159  12.340  12.050
87345W        W59605  25.704  34.011   1.412
87346W        W59606   6.821  35.474   3.166
87347W        W59607  41.689  38.969   0.570
87348W        W59608  40.073  12.790   1.428
87349W        W59609  17.240  14.023  11.960
87350W        W59610  35.881  39.465   2.381
87351W        W59611  41.555  39.468  13.125
87352W        W59612  21.832  20.360  10.434
87353W        W59613  20.000  29.374  11.536
87354W        W59614  25.861   3.957   3.733
87355W        W59615  22.303  20.464   0.406
87356W        W59616  41.386  10.717  12.814
87357W        W59617  24.561   6.723  11.420
87358W        W59618  26.521  43.844  13.091
87359W        W59619  39.109  29.046  13.699
87360W        W59620  27.366   1.821   0.399
87361W        W59621  36.998  22.342  13.844
87362W        W59622   4.187  22.571   0.139
87363W        W59623  35.912   1.947  13.363
87364W        W59624  40.130  39.592  13.385
87365W        W59625  14.866   6.779   4.212
87366W        W59626  16.627   7.768  14.975
87367W        W59627  24.200  42.998  13.974
87368W        W59628  12.846  32.760  12.173
87369W        W59629  38.181  39.537   1.930
87370W        W59630  20.531  40.389  11.649
87371W        W59631   7.597  10.623   0.936
87372W        W59632  18.529  20.757   0.354
87373W        W59633   8.219  44.226   0.815
87374W        W59634  11.369  25.707   2.917
87375W        W59635  29.942  38.888  13.034
87376W        W59636   4.424  35.568  13.929
87377W        W59637   6.347   5.225  11.972
87378W        W59638  33.798  44.471  10.211
87379W        W59639  36.021   6.770   0.351
87380W        W59640  29.425  27.576  13.719
87381W        W59641  15.281  31.606   3.625
87382W        W59642  20.313  38.630   4.198
87383W        W59643  10.817   9.701   0.322
87384W        W59644  38.260  33.583  13.979
87385W        W59645  14.113   5.400  13.329
87386W        W59646  13.887   6.441   2.380
87387W        W59647  28.631  26.818  11.023
87388W        W59648  15.731  40.711   4.137
87389W        W59649  12.323  37.307  11.484
87390W        W59650  30.998  24.377  13.075
87391W        W59651  22.510  31.475   0.861
87392W        W59652   3.403  39.013  14.497
87393W        W59653  42.083  12.780  11.512
87394W        W59654  11.406  11.780   1.800
87395W        W59655  11.355   5.443  14.512
87396W        W59656  43.818  24.113  13.536
87397W        W59657  28.843  34.899  11.590
87398W        W59658   1.311  39.129  11.925
87399W        W59659  12.378  15.570  10.538
87400W        W59660   8.897  16.529  13.553
87401W        W59661  22.320  41.929   0.715
87402W        W59662  15.180  26.107  12.055
87403W        W59663  19.623  18.112   4.663
87404W        W59664  16.414  18.005   0.003
87405W        W59665  16.986  17.722  10.521
87406W        W59666   3.255  18.243   1.822
87407W        W59667   1.390  32.126  13.369
87408W        W59668  24.767  27.240   1.794
87409W        W59669  22.732  29.067  14.004
87410W        W59670  37.066  37.925  14.335
87411W        W59671  16.863  40.814  11.872
87412W        W59672  21.756  44.317   0.808
87413W        W59673   5.351  26.286  14.328
87414W        W59674   6.905  12.889   0.003
87415W        W59675  26.996  12.477   0.410
87416W        W59676  36.738  30.860   3.467
87417W        W59677   1.028  28.548   4.326
87418W        W59678  31.642   7.282  12.597
87419W        W59679  25.869  34.719   1.483
87420W        W59680  22.824  11.321   3.837
87421W        W59681  38.352  13.888   0.508
87422W        W59682  28.437  19.711   1.722
87423W        W59683  34.580   3.384   0.415
87424W        W59684  33.926  37.780   2.882
87425W        W59685  15.776  40.718   3.256
87426W        W59686  33.868  16.076   0.758
87427W        W59687  34.116  37.318   4.207
87428W        W59688  23.429  39.878  14.912
87429W        W59689  41.405  25.494   4.972
87430W        W59690   0.443  12.472   3.715
87431W        W59691  21.937  37.442   0.354
87432W        W59692  36.779   7.297   0.460
87433W        W59693  28.091  22.775   4.392
87434W        W59694   4.843   8.752   5.026
87435W        W59695   6.107  40.870  11.119
87436W        W59696  35.758  36.387   3.654
87437W        W59697  34.083   1.857  14.950
87438W        W59698  18.946  23.969   0.839
87439W        W59699   7.758   0.730  12.014
87440W        W59700   0.377  11.566  14.535
87441W        W59701  32.554  21.648   1.393
87442W        W59702  37.283  41.013  11.668
87443W        W59703  14.080  34.725  14.100
87444W        W59704  29.353  31.037   1.438
87445W        W59705   6.683  44.480   3.517
87446W        W59706  10.718  37.899  12.686
87447W        W59707  38.912   0.516  10.368
87448W        W59708  23.793  18.983  13.055
87449W        W59709  18.737  37.519   9.594
87450W        W59710  43.825  10.792   3.997
87451W        W59711  12.385   8.652   0.783
87452W        W59712   3.387   4.176  14.365
87453W        W59713  13.864  29.153  10.243
87454W        W59714  23.262  40.991  12.370
87455W        W59715  40.798  16.745   0.381
87456W        W59716   3.975  41.222  11.427
87457W        W59717  18.560  40.629  13.341
87458W        W59718  11.383  21.611   4.581
87459W        W59719   7.923   1.561   1.400
87460W        W59720  32.099   6.393  12.506
87461W        W59721  41.433   7.756   5.287
87462W        W59722   7.798  37.165  10.355
87463W        W59723  33.217  31.902  11.465
87464W        W59724  43.534  40.395  10.952
87465W        W59725  33.683  16.267  13.927
87466W        W59726  14.631  35.411  10.586
87467W        W59727  14.523  35.956  10.745
87468W        W59728  28.192  36.599  14.389
87469W        W59729   5.769  42.600  13.119
87470W        W59730  40.783   2.734   1.892
87471W        W59731  12.784  13.627   4.166
87472W        W59732   1.590  27.995   0.551
87473W        W59733  23.505  13.876   3.399
87474W        W59734  32.000   5.898  12.544
87475W        W59735  40.636  44.449  14.578
87476W        W59736   5.196   4.966   1.309
87477W        W59737  39.581   6.305  11.830
87478W        W59738   2.700  27.658   0.333
87479W        W59739   6.002  25.281  11.048
87480W        W59740  28.064  44.707  13.318
87481W        W59741  30.370  25.759  12.041
87482W        W59742  12.822  33.777   0.832
87483W        W59743  38.374   6.691   0.516
87484W        W59744  10.600  44.475  11.533
87485W        W59745  11.388  31.502   1.369
87486W        W59746   5.571   7.475   0.246
87487W        W59747  19.376  32.311   2.760
87488W        W59748   8.412  31.158  12.956
87489W        W59749   5.660  22.232  12.382
87490W        W59750  32.571   5.163  14.457
87491W        W59751  30.345  12.948   1.426
87492W        W59752  34.525  21.242   5.621
87493W        W59753  10.367  28.658   3.300
87494W        W59754  20.748   4.296   2.278
87495W        W59755   9.268  18.770   3.683
87496W        W59756  16.197   7.269  10.287
87497W        W59757   8.915   7.738   1.365
87498W        W59758   2.287  30.514  14.381
87499W        W59759  26.376  38.056  11.040
87500W        W59760  14.739  12.782  10.214
87501W        W59761  35.448  29.911   1.953
87502W        W59762  14.800   0.482   3.591
87503W        W59763   1.225  21.738   4.725
87504W        W59764   1.823  22.461  13.610
87505W        W59765  35.023  19.992  11.562
87506W        W59766  43.762  33.059   1.709
87507W        W59767  20.740   6.587   5.024
87508W        W59768   3.232  31.018  13.859
87509W        W59769   7.227  32.449  13.391
87510W        W59770   6.911  39.131  11.346
87511W        W59771  44.308  16.171   0.260
87512W        W59772   4.325  31.671  10.552
87513W        W59773  13.712   6.909  11.312
87514W        W59774  30.062  26.166  13.865
87515W        W59775  31.840  41.753  13.897
87516W        W59776  33.988  20.514   3.280
87517W        W59777  40.360  15.470  13.458
87518W        W59778  13.264   8.394  13.031
87519W        W59779  13.157  37.043   4.313
87520W        W59780   7.510   9.695   2.337
87521W        W59781  42.791   0.294  14.517
87522W        W59782  38.516  33.721   1.519
87523W        W59783   3.291  13.008   0.208
87524W        W59784   5.529  14.657  13.408
87525W        W59785   2.348   1.777  12.341
87526W        W59786   1.861  26.561   3.844
87527W        W59787  28.585   1.605  11.930
87528W        W59788  41.019   0.421   4.145
87529W        W59789  29.032  28.226   2.473
87530W        W59790  18.677  28.907  12.493
87531W        W59791  21.219  38.866   1.728
87532W        W59792  44.755  12.305   2.609
87533W        W59793  14.674  41.999  13.424
87534W        W59794  19.067  20.653  14.439
87535W        W59795  15.311  42.487  11.892
87536W        W59796  30.404  16.069   4.806
87537W        W59797  10.181  21.101  11.963
87538W        W59798   1.969  11.201  14.552
87539W        W59799  13.987  16.312  14.337
87540W        W59800  35.497  10.784   3.118
87541W        W59801  13.198  10.960   3.965
87542W        W59802  22.123   5.819  12.392
87543W        W59803  20.775  37.865  14.208
87544W        W59804  31.130  13.889   0.480
87545W        W59805  25.463  23.763   0.234
87546W        W59806   9.317  20.158   3.786
87547W        W59807  35.287  20.185  10.034
87548W        W59808   4.151   3.227  13.485
87549W        W59809   6.098  28.435  11.125
87550W        W59810  44.810  31.988  10.612
87551W        W59811  37.092  19.181   4.500
87552W        W59812  27.515  26.357   3.302
87553W        W59813  25.067   3.243  14.968
87554W        W59814  30.976  10.871   2.176
87555W        W59815  34.688  16.076   0.277
87556W        W59816  20.029  43.007  10.662
87557W        W59817  35.372   3.429  12.854
87558W        W59818  44.012   3.153  14.881
87559W        W59819  44.284  15.726   3.746
87560W        W59820  27.544  23.880  13.514
87561W        W59821  15.735  20.781  13.940
87562W        W59822  40.976  40.142  13.799
87563W        W59823  36.403  21.252  12.481
87564W        W59824  13.579   4.754   2.712
87565W        W59825  28.426   5.426  14.909
87566W        W59826   7.266  13.637   1.746
87567W        W59827   4.222  26.395   4.530
87568W        W59828   6.911  21.176   2.094
87569W        W59829  44.174  29.537   3.623
87570W        W59830  31.017  32.937  12.492
87571W        W59831  17.321   3.819  12.999
87572W        W59832  12.822   6.636   1.284
87573W        W59833   8.804  20.803  13.870
87574W        W59834  13.141  27.074   0.978
87575W        W59835  40.560  18.230  11.150
87576W        W59836  44.558  44.939   3.255
87577W        W59837  33.018   5.944  10.385
87578W        W59838  37.991   3.323  10.368
87579W        W59839   8.223  18.649   4.122
87580W        W59840  10.178  24.669   2.095
87581W        W59841  31.348  41.787   4.909
87582W        W59842   7.941   3.474   4.199
87583W        W59843  29.704  28.962   4.566
87584W        W59844  36.442  31.551   1.389
87585W        W59845  31.147   0.876  11.323
87586W        W59846   7.402   7.556  11.509
87587W        W59847  13.306   6.310   4.622
87588W        W59848   6.700  29.920  10.556
87589W        W59849  13.297  20.478   3.767
87590W        W59850  44.553  23.087  10.701
87591W        W59851   8.831  41.918   3.084
87592W        W59852  39.274  21.569   4.638
87593W        W59853  31.281  42.910   1.839
87594W        W59854  33.588   6.942  12.843
87595W        W59855  18.606  31.187  13.162
87596W        W59856  31.532  32.571   2.718
87597W        W59857  38.321   6.836   3.735
87598W        W59858   1.460  21.165   3.092
87599W        W59859  25.660  30.120   2.437
87600W        W59860  30.929  43.692  11.981
87601W        W59861  11.408  11.649   3.132
87602W        W59862  39.270  14.980   3.688
87603W        W59863  44.478   9.663  12.168
87604W        W59864  21.551  23.656  11.090
87605W        W59865  42.443  21.910   0.920
87606W        W59866   9.689   8.208   1.417
87607W        W59867  41.368  42.419  11.199
87608W        W59868   0.541  41.865  11.247
87609W        W59869  42.820  10.538   4.654
87610W        W59870  15.272  37.288  14.931
87611W        W59871   5.545   1.680   4.468
87612W        W59872   1.277  27.075  11.993
87613W        W59873  15.514   1.266  13.416
87614W        W59874  31.462  42.605  11.320
87615W        W59875  30.198   3.697  14.403
87616W        W59876   9.225  42.886   5.146
87617W        W59877   1.815   1.031  11.187
87618W        W59878  27.372  27.490  13.808
87619W        W59879  37.809  21.732  14.793
87620W        W59880  22.203  31.354   3.294
87621W        W59881  24.132  28.328   2.717
87622W        W59882   9.080   4.727  10.643
87623W        W59883   9.124  28.405  13.976
87624W        W59884  16.652  39.549  11.539
87625W        W59885  44.659  14.043  11.916
87626W        W59886  37.409   4.803   4.643
87627W        W59887  40.004  13.120  12.514
87628W        W59888  37.906  12.777   0.055
87629W        W59889  31.082  25.605   4.405
87630W        W59890  31.590  36.590   2.709
87631W        W59891  10.911  41.629  11.454
87632W        W59892  35.584  38.037   0.453
87633W        W59893  33.579  40.537   1.114
87634W        W59894  38.569   1.474   2.238
87635W        W59895  36.976  42.439  12.950
87636W        W59896  34.731   5.241   3.213
87637W        W59897  27.879  44.972   4.109
87638W        W59898  31.449   6.934  12.965
87639W        W59899  36.002  44.885   4.590
87640W        W59900  11.665  37.943   0.252
87641W        W59901  23.539  21.647   0.992
87642W        W59902   2.441  16.279  11.006
87643W        W59903   1.515  16.800  14.535
87644W        W59904  24.762  27.002   2.250
87645W        W59905  41.196  15.672  14.989
87646W        W59906  23.042   9.167   0.980
87647W        W59907  32.537  44.537   0.973
87648W        W59908  21.024   5.201  13.841
87649W        W59909  24.020  12.697   0.882
87650W        W59910  42.009  30.412   3.562
87651W        W59911  14.301  22.729  14.865
87652W        W59912  18.739   3.305  12.808
87653W        W59913   5.650   4.962  11.424
87654W        W59914  28.145  22.753  13.602
87655W        W59915   6.325  10.868   3.169
87656W        W59916  16.147   5.755  13.959
87657W        W59917  21.623  31.395  12.495
87658W        W59918   0.971  42.462   3.689
87659W        W59919  43.372  21.477  12.484
87660W        W59920   6.680  15.922   4.303
87661W        W59921   6.453  41.847  13.501
87662W        W59922  17.038  42.705   2.706
87663W        W59923  11.087  17.134  10.577
87664W        W59924   5.436  33.366   0.782
87665W        W59925  43.326  12.172   4.313
87666W        W59926  14.540  41.130   2.201
87667W        W59927  41.755   4.187  12.851
87668W        W59928   7.469   3.120  11.798
87669W        W59929  35.932  38.574   1.348
87670W        W59930  20.463  36.548   0.738
87671W        W59931  37.533  31.130   1.776
87672W        W59932  35.655   5.029   2.848
87673W        W59933  13.346   4.910   0.262
87674W        W59934  26.923   2.226   4.575
87675W        W59935  15.863  22.168   2.230
87676W        W59936  35.420  30.033  14.754
87677W        W59937  27.946   2.225  10.427
87678W        W59938  32.149  32.064   1.159
87679W        W59939  26.902  43.667   0.162
87680W        W59940  28.436  32.526  11.157
87681W        W59941  38.590  28.171   3.166
87682W        W59942  19.712  14.321   3.719
87683W        W59943  21.112  38.248  12.563
87684W        W59944   9.515  23.244   2.025
87685W        W59945  31.001  44.414  13.984
87686W        W59946  38.655  27.921   0.917
87687W        W59947   2.788  41.963   3.194
87688W        W59948  24.008  38.293   2.227
87689W        W59949  16.693   5.869  14.016
87690W        W59950   3.956  25.407  11.887
87691W        W59951  41.062  11.233  13.926
87692W        W59952  38.032  17.144  14.859
87693W        W59953  22.562  17.041  10.273
87694W        W59954  32.917  32.418  12.864
87695W        W59955  32.026  18.166   1.864
87696W        W59956  40.382   4.710  14.774
87697W        W59957  21.498   9.253  12.977
87698W        W59958  28.262   0.922   4.089
87699W        W59959  20.630  22.941   4.580
87700W        W59960  34.380  22.053   0.813
87701W        W59961  30.409  37.800  12.014
87702W        W59962  23.123  11.954   0.353
87703W        W59963   4.913  42.886  12.146
87704W        W59964  12.941  33.540   1.424
87705W        W59965   6.253  17.841   3.591
87706W        W59966  44.915   6.891   0.333
87707W        W59967  14.191  27.424  13.765
87708W        W59968   1.911  26.646  12.852
87709W        W59969  30.018  17.142  10.675
87710W        W59970   7.662  30.018   1.300
87711W        W59971  25.085   1.250  10.729
87712W        W59972  29.318  19.243   3.309
87713W        W59973  23.284  29.005  11.544
87714W        W59974  26.925  44.343   0.382
87715W        W59975  24.489   1.374   3.755
87716W        W59976  41.804  37.308   5.032
87717W        W59977   0.439  27.521  10.885
87718W        W59978  36.281   2.976  12.922
87719W        W59979   4.710   2.468   0.334
87720W        W59980  30.774  20.816  12.878
87721W        W59981  18.936  14.670  12.380
87722W        W59982  35.497  26.532   4.792
87723W        W59983  19.602  41.755   1.456
87724W        W59984  11.663  28.085   3.513
87725W        W59985  35.504  33.849   2.779
87726W        W59986   7.140   6.024   4.084
87727W        W59987   0.320  22.603   1.625
87728W        W59988   0.424  29.381   4.151
87729W        W59989  14.114  16.582  12.164
87730W        W59990  14.851  25.704  11.983
87731W        W59991  41.888  22.762  13.526
87732W        W59992  27.229  10.278  12.573
87733W        W59993  40.962  24.752   2.150
87734W        W59994  18.505  32.687  14.133
87735W        W59995  41.723   7.891  11.164
87736W        W59996  20.033  11.261   2.363
87737W        W59997  19.818  35.783  10.107
87738W        W59998  44.531  24.704  12.359
87739W        W59999   9.222   4.000   2.406
87740W        W60000   5.969   7.961  13.799
87741W        W60001  32.112   0.824   2.615
87742W        W60002  22.649  27.771   0.390
87743W        W60003   2.690  32.696   4.742
87744W        W60004  24.998  11.328   3.197
87745W        W60005  23.599   6.320   1.556
87746W        W60006  19.978  40.044   4.847
87747W        W60007  10.186  16.317  14.614
87748W        W60008  28.252  33.402  12.461
87749W        W60009   6.582  16.928   4.187
87750W        W60010   7.348   4.296  14.189
87751W        W60011  36.550   9.157  10.717
87752W        W60012  24.496  19.987   0.595
87753W        W60013  16.139   2.993   0.547
87754W        W60014  32.304   9.253   4.194
87755W        W60015  41.891  22.501  12.809
87756W        W60016  44.975  30.876   1.437
87757W        W60017   7.419   1.491  12.996
87758W        W60018  11.127  13.990  12.510
87759W        W60019  14.872   1.336  13.880
87760W        W60020  15.532  26.463   4.548
87761W        W60021  10.497  11.254   1.932
87762W        W60022  23.979  20.006  12.098
87763W        W60023  18.271  39.945   3.485
87764W        W60024  13.782  14.031   1.652
87765W        W60025   0.796  42.408   1.814
87766W        W60026  22.253  18.559   0.445
87767W        W60027   7.766  22.076  13.307
87768W        W60028  25.233  42.268   2.317
87769W        W60029  28.718  17.021   4.689
87770W        W60030  29.586   5.667   3.460
87771W        W60031  10.761   8.033  11.556
87772W        W60032  20.256  28.468   2.628
87773W        W60033   1.826  15.379  12.899
87774W        W60034  37.368  40.456  13.867
87775W        W60035  20.516  36.082   0.450
87776W        W60036  13.179   3.440   0.063
87777W        W60037  38.825   1.934   1.284
87778W        W60038  33.930   9.309  13.532
87779W        W60039  16.038  22.684  10.649
87780W        W60040  41.832  11.592  12.397
87781W        W60041  15.883  33.358   1.425
87782W        W60042   1.041  23.436   2.813
87783W        W60043  36.454  42.237   3.381
87784W        W60044  31.237  11.407  10.189
87785W        W60045  14.143  12.103   4.592
87786W        W60046  30.850  25.553  12.044
87787W        W60047  14.211  33.955   1.811
87788W        W60048  28.160  20.013  12.994
87789W        W60049   4.718  34.606   0.394
87790W        W60050  30.395  44.301  11.247
87791W        W60051  40.087  37.540   0.338
87792W        W60052  32.670  37.808  11.204
87793W        W60053  37.860   9.883   0.852
87794W        W60054  33.417  15.395  13.482
87795W        W60055   9.953  33.391   3.736
87796W        W60056  37.218   1.392   3.582
87797W        W60057  33.934  23.435  14.403
87798W        W60058  31.985  21.073  14.628
87799W        W60059  31.660  11.575  10.441
87800W        W60060  19.532  34.501   0.373
87801W        W60061   7.394   7.244   3.386
87802W        W60062  25.616  27.884  11.235
87803W        W60063  30.904  36.505   3.736
87804W        W60064   3.700  42.120  13.333
87805W        W60065   2.972  25.189   4.800
87806W        W60066  12.669  12.276   4.357
87807W        W60067  31.369  31.505  14.910
87808W        W60068  27.165  18.583   3.151
87809W        W60069  27.753  34.577   1.792
87810W        W60070   7.180  21.083   4.888
87811W        W60071  28.170  24.449   1.913
87812W        W60072  41.584   9.785  11.978
87813W        W60073  36.983  11.365   4.385
87814W        W60074  22.019  29.552  12.528
87815W        W60075   8.256  15.578  11.600
87816W        W60076  31.609  34.586   3.194
87817W        W60077  21.786  36.287  11.595
87818W        W60078  16.172  23.047   4.535
87819W        W60079  35.597  37.096  11.618
87820W        W60080  12.720   2.957   0.890
87821W        W60081  17.432  24.998  11.660
87822W        W60082  27.235   2.877  13.567
87823W        W60083   4.916  30.534   0.233
87824W        W60084  32.341   0.023  10.495
87825W        W60085   3.444   4.702   2.885
87826W        W60086  16.650  17.694   0.375
87827W        W60087  32.538  27.631  14.038
87828W        W60088  12.397  26.888   4.348
87829W        W60089  25.258  35.055   3.265
87830W        W60090   1.362  10.936   0.795
87831W        W60091   0.905  30.325   0.788
87832W        W60092  18.412  19.780   0.487
87833W        W60093  31.641   3.077  11.430
87834W        W60094  29.408  18.245  13.355
87835W        W60095  13.321  21.715   2.872
87836W        W60096  29.777  41.975  10.902
87837W        W60097  19.098  38.220  13.382
87838W        W60098  34.074  33.135   1.770
87839W        W60099   1.797   9.282   3.313
87840W        W60100  25.507  15.255  13.845
87841W        W60101  28.146   8.435  11.601
87842W        W60102  35.655  22.911   3.170
87843W        W60103  33.877  37.403  13.980
87844W        W60104  13.323  24.785   0.683
87845W        W60105  39.542  33.344   2.779
87846W        W60106  15.745   8.253  12.755
87847W        W60107  34.750  19.854  11.155
87848W        W60108  34.073  12.622   4.285
87849W        W60109  32.006  20.267  12.028
87850W        W60110   8.234   4.692   0.807
87851W        W60111  27.930  23.132  14.923
87852W        W60112  36.622   5.312  10.893
87853W        W60113  41.229  42.427  13.081
87854W        W60114   3.028  43.031  14.943
87855W        W60115  12.838  13.576   1.777
87856W        W60116  31.607  30.550   0.448
87857W        W60117  26.739  12.851  11.508
87858W        W60118  12.787  33.207   1.810
87859W        W60119  34.864  20.050  12.877
87860W        W60120  38.341   8.809  14.857
87861W        W60121  17.724  33.175   1.641
87862W        W60122  19.173  38.079   2.475
87863W        W60123  15.762  22.970   0.766
87864W        W60124  27.124  11.684   0.766
87865W        W60125  28.166  24.393  12.778
87866W        W60126  15.991  22.029  13.739
87867W        W60127  37.576  17.152   4.876
87868W        W60128  10.794  34.986  14.989
87869W        W60129   3.651  11.724   4.615
87870W        W60130   6.715   3.781   2.629
87871W        W60131  21.660  18.494   2.642
87872W        W60132   0.337  14.658  14.418
87873W        W60133   0.027  14.065   3.147
87874W        W60134  37.960  40.763  11.189
87875W        W60135  30.057  35.906   1.202
87876W        W60136  14.658  18.690  11.131
87877W        W60137  35.987  13.846   2.615
87878W        W60138  21.784  27.075  11.337
87879W        W60139   6.505   6.423  12.788
87880W        W60140  21.166  11.196   0.269
87881W        W60141   7.812  34.429   4.147
87882W        W60142   7.274   8.382  12.966
87883W        W60143  39.924  19.820   1.812
87884W        W60144  17.188  17.689  13.810
87885W        W60145  42.443  44.885  10.731
87886W        W60146  40.339  34.117   3.608
87887W        W60147   8.429  30.085   2.829
87888W        W60148  33.896  16.257   2.713
87889W        W60149  19.124   3.906  13.361
87890W        W60150   4.383  13.196   4.250
87891W        W60151  44.384   6.488   1.787
87892W        W60152  26.108  21.372  11.154
87893W        W60153  32.043  34.495   4.351
87894W        W60154   0.071  30.537   4.543
87895W        W60155  39.751  10.822  13.590
87896W        W60156  10.291   7.303  14.914
87897W        W60157  23.685  43.777   3.766
87898W        W60158   2.291  37.501  14.526
87899W        W60159  18.017  21.516  14.343
87900W        W60160  24.790  18.369  14.780
87901W        W60161  40.937   9.314  12.967
87902W        W60162  27.166  11.446   1.305
87903W        W60163  23.122  25.689  13.989
87904W        W60164  37.475  18.162  10.750
87905W        W60165  32.397   7.682  11.395
87906W        W60166  44.295  42.302   1.507
87907W        W60167  19.634  38.417  14.045
87908W        W60168   0.434  34.090   4.454
87909W        W60169  37.528  10.439   2.454
87910W        W60170   0.237   9.650  11.113
87911W        W60171  22.752  16.854  12.529
87912W        W60172  15.983  17.667   0.213
87913W        W60173  23.243  12.187  14.889
87914W        W60174  20.069   8.964   5.104
87915W        W60175   2.045   3.672   2.620
87916W        W60176   0.611  14.804  12.512
87917W        W60177   5.964  18.398  10.651
87918W        W60178  35.561  20.140  10.866
87919W        W60179  15.148  10.077   0.805
87920W        W60180  23.967   0.362   1.726
87921W        W60181  42.028  30.303   4.535
87922W        W60182  44.785  16.672   3.719
87923W        W60183  14.788  23.804  11.163
87924W        W60184  30.620  32.116   3.124
87925W        W60185  20.509  20.003  10.228
87926W        W60186   6.223   8.400  13.998
87927W        W60187  41.550   3.225  14.967
87928W        W60188  19.469  12.688  14.047
87929W        W60189   7.355  11.247  10.513
87930W        W60190  42.281  26.526  10.338
87931W        W60191  41.638  23.704  13.876
87932W        W60192  27.660  32.856   0.292
87933W        W60193  43.645   2.229  14.983
87934W        W60194  36.073  13.218   3.213
87935W        W60195  38.840  31.665  13.533
87936W        W60196  18.017  11.279  11.554
87937W        W60197  24.042  27.591   5.278
87938W        W60198  27.133   0.134  13.508
87939W        W60199  17.798  30.559  14.367
87940W        W60200  37.310  12.104   3.731
87941W        W60201  21.362  26.931  13.058
87942W        W60202  30.827  12.852   1.259
87943W        W60203  13.321  25.342  13.558
87944W        W60204  41.894  24.247   3.641
87945W        W60205  13.698   8.472   2.766
87946W        W60206  16.407  41.118   2.705
87947W        W60207  18.565   6.232   3.867
87948W        W60208  18.226  44.980   0.422
87949W        W60209  24.288  44.323  10.177
87950W        W60210   5.525  32.916   2.809
87951W        W60211  28.303   2.252   4.295
87952W        W60212  35.469   6.383  13.406
87953W        W60213  11.084   1.816  13.415
87954W        W60214  44.539   9.452   4.112
87955W        W60215  36.794  32.582  10.354
87956W        W60216  29.193  29.697  14.398
87957W        W60217  33.885  25.760  11.017
87958W        W60218  40.981  33.565   4.072
87959W        W60219  34.956  19.661  11.975
87960W        W60220  35.315  15.614  14.894
87961W        W60221  28.382  32.901  12.904
87962W        W60222   7.787  27.181  11.697
87963W        W60223   7.899  34.381  12.971
87964W        W60224  40.551   6.824  13.054
87965W        W60225  19.067   5.191  12.884
87966W        W60226   0.619   2.322   4.187
87967W        W60227   4.348  28.200   2.789
87968W        W60228  23.666  14.172   0.340
87969W        W60229   8.280  42.366   3.609
87970W        W60230   8.376  28.979  14.404
87971W        W60231  19.567  25.656  14.111
87972W        W60232   5.328  19.504   0.377
87973W        W60233  11.932  16.540  14.356
87974W        W60234  18.625  36.073  10.396
87975W        W60235  31.978  40.823   2.971
87976W        W60236  36.335   6.838   4.178
87977W        W60237  11.231  12.830   3.504
87978W        W60238   1.960  32.521  12.573
87979W        W60239  19.589  19.346  14.414
87980W        W60240  20.716  30.466  13.849
87981W        W60241  30.741  41.833  10.717
87982W        W60242  27.767  14.299  13.527
87983W        W60243   0.295  44.883  12.435
87984W        W60244  39.375   4.385  11.119
87985W        W60245  14.825  38.925   4.564
87986W        W60246   9.543   1.260  13.933
87987W        W60247  19.243  21.714   1.934
87988W        W60248  35.835  14.230   4.242
87989W        W60249  19.547  31.182   1.456
87990W        W60250  17.969  14.619  12.032
87991W        W60251  21.247  16.425   0.089
87992W        W60252   8.639  23.886   3.870
87993W        W60253  37.525  28.361  12.239
87994W        W60254  15.277   8.337   3.226
87995W        W60255  23.082   0.811   0.353
87996W        W60256  33.027  10.721   4.655
87997W        W60257  33.114   2.758  11.602
87998W        W60258  25.525  21.508  11.006
87999W        W60259  37.006  43.442   4.652
88000W        W60260   2.023  44.047  14.692
88001W        W60261  29.635  34.113   4.885
88002W        W60262  20.799  12.297   1.814
88003W        W60263  32.129  10.267   2.942
88004W        W60264   1.075  11.610  12.418
88005W        W60265  21.043   2.458  12.528
88006W        W60266  28.597  28.613  13.775
88007W        W60267  36.106  34.024  12.055
88008W        W60268  31.556  29.542   0.852
88009W        W60269  15.063  32.112  14.817
88010W        W60270  29.128   6.307   3.892
88011W        W60271  11.328  10.782   1.703
88012W        W60272  17.841  12.675   2.797
88013W        W60273  35.930  29.076   0.077
88014W        W60274  32.985   7.746  13.008
88015W        W60275  43.402  23.083   1.771
88016W        W60276  24.096  43.907   2.831
88017W        W60277  25.769  20.914   2.716
88018W        W60278  38.861  12.634  11.220
88019W        W60279  39.072   8.923  14.301
88020W        W60280  44.158  25.984   3.785
88021W        W60281   9.808   7.991  10.843
88022W        W60282   7.404  21.733  14.364
88023W        W60283  37.880   6.101  12.925
88024W        W60284  26.711   7.899   4.540
88025W        W60285   2.720  12.762  12.606
88026W        W60286   5.319  10.865   0.002
88027W        W60287  17.286  30.920   4.808
88028W        W60288  39.323  38.911   2.778
88029W        W60289  43.428  41.626  13.735
88030W        W60290  17.154   8.601  13.830
88031W        W60291  14.219  11.894   3.168
88032W        W60292  35.554  39.305  14.585
88033W        W60293  35.267  16.920   3.171
88034W        W60294   4.312  44.006   2.462
88035W        W60295   4.768  18.696   4.191
88036W        W60296   8.719  10.196   3.300
88037W        W60297  43.971  16.257  10.923
88038W        W60298  16.904  43.785   1.639
88039W        W60299  24.708  10.911   1.696
88040W        W60300  43.853  42.464   4.501
88041W        W60301  34.356  14.736  10.352
88042W        W60302   6.875  10.580  11.327
88043W        W60303  42.566  19.038   0.759
88044W        W60304  28.913   8.669   1.279
88045W        W60305  13.672  18.307   1.912
88046W        W60306  42.498  13.098  11.488
88047W        W60307  37.521  19.762  14.202
88048W        W60308  12.902  39.889   1.118
88049W        W60309  15.233  14.388  12.861
88050W        W60310  29.895   2.992  10.258
88051W        W60311  30.877  21.830  10.444
88052W        W60312  43.971  40.613  14.854
88053W        W60313  37.859  26.887   4.087
88054W        W60314   4.585  17.311  12.377
88055W        W60315  25.512  29.994   3.939
88056W        W60316  30.748  40.531  10.601
88057W        W60317  20.795   7.905   2.663
88058W        W60318  41.537   0.994   3.192
88059W        W60319  44.307  19.555   1.015
88060W        W60320  22.548  15.438  12.243
88061W        W60321  27.045  23.508   3.432
88062W        W60322  27.439  43.534   0.703
88063W        W60323   8.203  15.240   3.381
88064W        W60324  40.183  19.408  14.302
88065W        W60325  33.685  30.447  11.261
88066W        W60326  15.822  11.838  11.570
88067W        W60327  35.669   2.983  12.563
88068W        W60328  23.811  27.913  11.674
88069W        W60329  23.370  23.140   1.270
88070W        W60330   1.501  28.421   3.224
88071W        W60331  13.658  41.759   0.721
88072W        W60332  34.651  32.003  10.654
88073W        W60333  20.168  31.854   4.053
88074W        W60334  39.057   4.258   2.912
88075W        W60335  43.286  20.480  13.270
88076W        W60336   0.019  28.063   0.174
88077W        W60337  29.242  24.686   2.710
88078W        W60338   0.251   7.863   2.403
88079W        W60339  11.753  13.390   0.217
88080W        W60340   7.304  13.177   2.691
88081W        W60341  12.841   7.960   1.710
88082W        W60342  10.337  27.701   3.701
88083W        W60343  35.288  12.588   4.867
88084W        W60344  18.328  38.382   0.752
88085W        W60345   7.937  27.475   4.555
88086W        W60346   9.829   7.631  11.212
88087W        W60347  13.190  12.910  14.409
88088W        W60348  32.497   8.776  14.752
88089W        W60349  17.626  29.752  12.964
88090W        W60350  13.335  36.306  11.514
88091W        W60351  35.086  12.884   0.030
88092W        W60352  23.446  10.194   4.543
88093W        W60353   8.876   1.187  11.705
88094W        W60354   0.191  15.226  13.918
88095W        W60355  43.792  28.257  13.543
88096W        W60356   9.244  10.343   0.477
88097W        W60357   6.910  14.647  11.103
88098W        W60358  29.096  12.765   2.423
88099W        W60359   0.799  27.641   4.787
88100W        W60360  35.419  19.556   3.137
88101W        W60361  27.465  36.406  14.831
88102W        W60362  41.282  26.116   3.813
88103W        W60363   1.547  13.767   1.454
88104W        W60364  22.565  41.078  13.376
88105W        W60365  27.628   4.407  14.084
88106W        W60366   6.475  38.454   2.803
88107W        W60367  26.631   0.466  14.486
88108W        W60368  31.550   6.431  11.123
88109W        W60369   6.890  20.683  10.568
88110W        W60370  44.023  35.780  11.353
88111W        W60371  21.528  39.290   1.792
88112W        W60372  27.529   8.887   0.967
88113W        W60373  23.569  30.877   3.644
88114W        W60374  28.184  32.648  13.529
88115W        W60375  22.046   5.668  13.337
88116W        W60376  20.954  34.077  14.128
88117W        W60377  16.511  35.063  14.419
88118W        W60378  18.691  25.560  10.417
88119W        W60379   5.401  24.652  14.588
88120W        W60380  30.670  24.265  11.142
88121W        W60381  32.874   9.164  10.720
88122W        W60382  31.235  37.656  10.029
88123W        W60383  13.119  26.919  13.461
88124W        W60384  15.987   0.216   2.898
88125W        W60385  24.486   6.402   3.727
88126W        W60386   8.225   9.486   3.815
88127W        W60387  13.595  20.212   0.836
88128W        W60388  19.599  19.460  14.967
88129W        W60389  26.084  37.685  12.343
88130W        W60390  38.239  38.686   1.394
88131W        W60391  41.760   6.325   4.048
88132W        W60392   1.989   1.990   1.426
88133W        W60393  22.991  16.339  13.356
88134W        W60394  28.486  42.339  10.557
88135W        W60395  14.732   6.615  14.848
88136W        W60396   0.334  24.133   4.154
88137W        W60397   0.980   8.610   3.341
88138W        W60398  42.480  34.335   1.432
88139W        W60399  37.942  34.815  12.276
88140W        W60400  27.120   0.500   0.782
88141W        W60401  22.083  32.509   4.632
88142W        W60402  32.821   5.816   2.405
88143W        W60403  10.354   4.690   3.596
88144W        W60404   3.428  36.913   0.845
88145W        W60405   8.448  17.335   2.843
88146W        W60406   3.468  31.639   1.259
88147W        W60407  17.220   5.530  14.640
88148W        W60408   8.252  44.026  11.900
88149W        W60409  24.505  24.756  10.728
88150W        W60410  37.037  37.011  14.845
88151W        W60411   4.467  13.302   1.453
88152W        W60412  18.756  28.936   0.794
88153W        W60413  17.316  12.183   2.347
88154W        W60414  10.366  37.366   3.771
88155W        W60415  15.518  30.942   4.120
88156W        W60416  20.045  39.930  11.036
88157W        W60417  29.499  11.363  13.930
88158W        W60418  22.134  19.331   2.779
88159W        W60419   7.202  20.134   3.199
88160W        W60420  32.308   8.725   3.005
88161W        W60421  34.859   2.755   0.827
88162W        W60422  36.412  44.916   1.482
88163W        W60423  16.868  26.004   0.849
88164W        W60424  14.696  39.429  12.232
88165W        W60425  20.563  11.340   3.224
88166W        W60426  15.815  15.719   1.731
88167W        W60427  43.253   1.633   4.150
88168W        W60428  14.237   2.285  14.452
88169W        W60429  16.650  11.373   2.248
88170W        W60430  18.928  29.532  12.056
88171W        W60431  33.500  12.634   2.832
88172W        W60432  13.400  15.773   4.301
88173W        W60433   7.721  27.200   1.451
88174W        W60434  15.598  36.405   1.352
88175W        W60435   1.891   3.332   1.786
88176W        W60436  24.150  28.138  10.381
88177W        W60437  39.401  43.457  12.399
88178W        W60438  25.173  31.595   0.269
88179W        W60439   0.850  40.319  10.578
88180W        W60440  16.724   2.997   1.240
88181W        W60441  36.572  25.633  14.449
88182W        W60442  19.325   6.722  11.971
88183W        W60443  11.345  35.009  12.891
88184W        W60444  26.024  43.844   3.970
88185W        W60445  33.313  44.408   1.318
88186W        W60446  10.360  26.031  14.425
88187W        W60447   8.632  36.613  14.864
88188W        W60448   1.695  37.460  11.122
88189W        W60449   1.659  24.120   1.053
88190W        W60450  36.607  44.874  11.004
88191W        W60451  31.091  36.918  10.721
88192W        W60452  16.774  33.900  10.487
88193W        W60453   1.291  20.811   4.349
88194W        W60454  14.798  32.530   1.218
88195W        W60455  43.803  32.313  14.505
88196W        W60456   2.286  19.204   1.855
88197W        W60457  12.324  12.238  13.920
88198W        W60458  18.654  32.300  13.787
88199W        W60459  18.171  36.547  12.457
88200W        W60460  11.076  39.326  13.058
88201W        W60461  40.679  21.543  12.474
88202W        W60462   7.315  31.148  14.052
88203W        W60463  44.336   5.283   4.545
88204W        W60464  28.988  40.908   3.269
88205W        W60465  24.221  23.492  10.400
88206W        W60466  37.208  15.524  10.202
88207W        W60467  33.392   0.086   0.312
88208W        W60468  26.084   5.322  14.343
88209W        W60469   1.309  15.878   2.784
88210W        W60470  39.566   7.159   1.924
88211W        W60471  15.785   0.397  13.515
88212W        W60472  37.093  10.857  11.692
88213W        W60473  11.534  29.192  10.769
88214W        W60474  42.392   4.891   1.245
88215W        W60475  13.701  21.059   0.255
88216W        W60476   9.183  14.681  13.765
88217W        W60477  33.266  32.794   4.020
88218W        W60478  12.595  26.073   3.865
88219W        W60479  10.904   1.156  12.119
88220W        W60480   4.716  37.389   3.785
88221W        W60481  18.795  21.963  14.390
88222W        W60482  30.719   9.543  14.048
88223W        W60483  20.042  37.838  10.982
88224W        W60484  40.777   1.275   2.658
88225W        W60485   4.256   0.786   2.321
88226W        W60486  12.875  42.725  12.143
88227W        W60487  29.173  28.763   4.121
88228W        W60488   0.804  36.911  11.168
88229W        W60489  40.327  11.452  14.368
88230W        W60490   5.243  28.414   3.852
88231W        W60491  40.238   3.197  10.714
88232W        W60492  13.934  41.410   4.170
88233W        W60493  33.164  42.477  14.902
88234W        W60494  11.616  42.506  12.613
88235W        W60495  19.064  30.464   4.507
88236W        W60496  37.914  23.305   2.444
88237W        W60497  35.154   5.871  13.868
88238W        W60498  40.048   7.998   2.355
88239W        W60499  16.175  21.067  14.516
88240W        W60500  41.045  10.762  11.976
88241W        W60501   3.200   4.316  12.836
88242W        W60502  18.523  17.945  11.631
88243W        W60503  44.956  35.164   3.177
88244W        W60504   9.815  25.162  13.098
88245W        W60505  23.915  25.133   1.858
88246W        W60506   0.964  44.785  14.076
88247W        W60507  25.095   2.938   3.896
88248W        W60508  20.718  33.374  13.040
88249W        W60509  23.970  41.961   1.991
88250W        W60510  32.386  10.120  11.745
88251W        W60511  14.757  14.816  10.673
88252W        W60512  25.251   6.893  12.021
88253W        W60513   0.448  24.067   1.762
88254W        W60514  30.584  19.779   4.165
88255W        W60515   7.684  40.425   3.229
88256W        W60516  35.475  27.244   2.458
88257W        W60517   3.765  36.374   0.267
88258W        W60518  20.801  13.001   2.684
88259W        W60519   0.790  41.471  12.435
88260W        W60520   0.543  41.695   4.020
88261W        W60521  10.857  21.286   3.270
88262W        W60522  35.107  32.687  14.397
88263W        W60523  16.833  30.105  12.503
88264W        W60524  12.103  34.107   2.166
88265W        W60525  11.249  27.684  13.963
88266W        W60526  41.963  26.694  10.728
88267W        W60527  43.342   7.982   3.808
88268W        W60528  21.515   8.658  11.625
88269W        W60529  25.116   8.768   4.412
88270W        W60530  19.232   8.443   1.189
88271W        W60531  22.103   5.115   4.072
88272W        W60532  34.568  22.179   4.664
88273W        W60533  26.361   9.383  12.801
88274W        W60534  35.073   0.549   0.303
88275W        W60535   1.492  16.372  10.677
88276W        W60536  11.198  33.491   1.484
88277W        W60537  42.945  32.458  13.514
88278W        W60538  35.971  39.052  14.345
88279W        W60539  26.166  36.538   4.814
88280W        W60540   3.372  15.838  13.492
88281W        W60541  36.467  44.791  13.005
88282W        W60542  17.730  33.422  13.092
88283W        W60543  20.728  15.347   4.309
88284W        W60544   1.780   5.007  11.509
88285W        W60545  17.562   1.431   2.726
88286W        W60546  28.109  33.789  11.199
88287W        W60547   9.633  44.049  12.072
88288W        W60548  29.091   6.769  13.257
88289W        W60549   1.036   2.675  13.981
88290W        W60550  40.343  23.171  11.684
88291W        W60551  27.139  26.473   0.818
88292W        W60552  31.181  24.168  11.974
88293W        W60553   0.361  33.414   0.864
88294W        W60554   0.917   8.187   0.958
88295W        W60555  24.313  22.764   1.527
88296W        W60556   0.348  18.135  12.347
88297W        W60557  18.803  21.819   4.895
88298W        W60558   7.796   5.661   4.585
88299W        W60559  44.338  25.153   2.603
88300W        W60560  24.704  21.621  10.555
88301W        W60561  44.709  17.912   0.439
88302W        W60562  31.044  44.777  13.253
88303W        W60563   5.691   9.564  12.891
88304W        W60564  35.139  39.995  10.605
88305W        W60565   1.237   6.090  14.346
88306W        W60566  36.619  44.973  12.534
88307W        W60567  44.471   5.684  12.463
88308W        W60568   1.903   7.163  14.864
88309W        W60569   7.264  40.491   0.464
88310W        W60570  18.293   3.199  11.073
88311W        W60571  41.663  35.820   2.188
88312W        W60572  39.630  17.038   2.965
88313W        W60573  23.677  38.566  14.994
88314W        W60574  38.786  28.071  12.875
88315W        W60575  13.213  34.012  14.782
88316W        W60576   9.402  35.143   0.934
88317W        W60577   2.746  18.019   0.449
88318W        W60578  25.570  34.454  14.739
88319W        W60579   0.185  22.684   4.199
88320W        W60580  15.422   3.978  12.184
88321W        W60581  21.776  33.376   2.390
88322W        W60582   5.695  36.303  13.056
88323W        W60583   7.964  14.172   2.129
88324W        W60584   3.503   0.196   4.124
88325W        W60585  13.725  25.315   0.857
88326W        W60586  24.106  29.149   2.501
88327W        W60587  40.854  10.383  13.005
88328W        W60588  12.334  31.499   0.931
88329W        W60589  42.499  44.858  13.099
88330W        W60590   5.674  39.630   1.801
88331W        W60591  35.606   0.621  14.532
88332W        W60592  15.389  40.353   0.286
88333W        W60593  31.409  35.271   4.469
88334W        W60594  17.079  19.254  12.477
88335W        W60595  26.655  30.850  12.516
88336W        W60596  30.194  33.829   0.928
88337W        W60597   8.143   1.479  10.915
88338W        W60598  19.324  28.424  12.087
88339W        W60599  43.505  32.731  11.622
88340W        W60600  26.231  22.556   3.334
88341W        W60601  44.421  22.969   1.764
88342W        W60602  16.074   9.807   1.852
88343W        W60603  41.932  29.091  10.765
88344W        W60604   1.729  26.728  11.935
88345W        W60605   7.261  39.830   1.208
88346W        W60606  11.183  29.153  11.541
88347W        W60607  13.911  30.025   5.389
88348W        W60608  12.423  37.867   0.628
88349W        W60609  14.268  14.660   0.433
88350W        W60610  35.417   0.874  13.895
88351W        W60611  35.582  34.854   0.787
88352W        W60612  39.461  32.115  10.453
88353W        W60613  36.279  26.715   2.172
88354W        W60614   2.300  13.450  10.572
88355W        W60615  29.577  26.079   1.178
88356W        W60616  10.651  41.900  10.958
88357W        W60617   9.405  17.220  13.651
88358W        W60618  16.652  32.817  13.835
88359W        W60619  22.283  33.307  11.465
88360W        W60620  44.343  43.235   3.146
88361W        W60621  29.485  43.335  11.850
88362W        W60622  24.683  33.556   2.690
88363W        W60623  26.698  13.218  13.034
88364W        W60624  15.096  14.709   5.193
88365W        W60625  27.780  22.588   5.154
88366W        W60626  35.936  41.952   3.285
88367W        W60627  21.191  36.410  10.515
88368W        W60628  17.157  14.161  12.835
88369W        W60629  36.003  11.817   1.136
88370W        W60630  39.143  40.392  14.440
88371W        W60631  18.734  43.698  13.006
88372W        W60632  21.248  17.103   1.740
88373W        W60633  22.289   7.861   1.623
88374W        W60634  36.912  21.103  14.528
88375W        W60635  10.714  21.904   1.483
88376W        W60636  20.221  38.132   4.228
88377W        W60637  21.070  24.916   3.252
88378W        W60638  43.374   1.539  14.357
88379W        W60639  25.563  38.574  14.934
88380W        W60640  14.252  18.084   4.374
88381W        W60641  11.319  14.872   1.352
88382W        W60642  30.486  23.579   3.839
88383W        W60643  10.327  26.649   2.657
88384W        W60644   7.239  28.423   2.655
88385W        W60645  23.490   0.975   2.418
88386W        W60646   4.869  25.146  14.307
88387W        W60647   6.209  43.066  14.455
88388W        W60648   4.965   8.677  13.587
88389W        W60649  19.558  39.285   0.444
88390W        W60650   6.723   4.646   2.639
88391W        W60651   2.798   3.493   1.762
88392W        W60652  20.267  16.076  14.951
88393W        W60653  42.756  40.013   3.727
88394W        W60654  43.430   0.528   3.858
88395W        W60655   6.627  10.267   4.757
88396W        W60656  42.927   5.190  10.910
88397W        W60657  25.972   7.069   0.594
88398W        W60658   1.793  31.132  13.895
88399W        W60659  34.873  19.689  14.483
88400W        W60660  25.141   3.008   1.944
88401W        W60661  33.825  32.044  13.557
88402W        W60662  15.524  23.673   2.150
88403W        W60663  26.692   8.500   3.895
88404W        W60664  11.984   3.375  10.485
88405W        W60665  27.470  20.252  10.705
88406W        W60666  27.681  30.952   3.261
88407W        W60667  43.985  22.983   2.335
88408W        W60668  11.817   2.469   3.301
88409W        W60669   5.234   3.560   0.811
88410W        W60670  12.168  21.242   4.307
88411W        W60671   3.837  40.499  13.337
88412W        W60672  15.251  29.135  11.343
88413W        W60673  12.797  31.383   2.493
88414W        W60674  16.208   2.854  13.417
88415W        W60675  16.544  30.597  12.423
88416W        W60676  37.850  25.287   1.035
88417W        W60677  13.141  29.001  11.598
88418W        W60678  30.378  40.096  13.056
88419W        W60679  29.986  29.475   2.915
88420W        W60680   5.430  29.979  12.101
88421W        W60681  34.585   4.448   0.973
88422W        W60682  10.053   6.728  10.453
88423W        W60683  38.147  32.886   1.471
88424W        W60684  26.513  18.179   3.868
88425W        W60685  40.323   7.474   5.219
88426W        W60686  24.298  32.456   0.810
88427W        W60687  20.293  17.719   2.114
88428W        W60688  36.434  43.900   3.147
88429W        W60689  36.995  23.124  11.501
88430W        W60690   9.776  31.071   3.655
88431W        W60691  30.032  18.219   3.590
88432W        W60692  42.535   7.243  14.433
88433W        W60693   3.191  27.564   3.592
88434W        W60694  26.422   0.906   1.335
88435W        W60695  32.404  42.991   2.569
88436W        W60696  33.907  19.673   2.280
88437W        W60697   5.215  18.211  14.834
88438W        W60698  12.848  39.855   3.147
88439W        W60699  41.921   9.646   4.118
88440W        W60700  20.697  30.962   0.898
88441W        W60701   2.274  16.094  14.132
88442W        W60702   3.479  17.833  14.755
88443W        W60703  35.446  13.795  12.786
88444W        W60704  32.954  10.692   0.666
88445W        W60705  32.085  29.257  11.122
88446W        W60706  20.729  24.100  13.886
88447W        W60707   5.037  12.145  11.474
88448W        W60708  15.232  34.421   2.945
88449W        W60709  37.323   9.280   0.525
88450W        W60710  36.664  18.543  13.858
88451W        W60711  25.540  32.295  14.504
88452W        W60712  11.851  35.424   2.227
88453W        W60713  33.234  28.311  14.010
88454W        W60714  19.664  31.939   2.375
88455W        W60715  27.210   3.317  10.403
88456W        W60716  28.014  27.162   1.403
88457W        W60717  15.742  32.633  13.871
88458W        W60718  40.817  21.246   1.164
88459W        W60719  10.139  42.450   4.609
88460W        W60720  43.718  43.026   4.591
88461W        W60721  18.617   2.329  11.950
88462W        W60722  26.597  40.989  13.309
88463W        W60723  27.787  23.273   1.249
88464W        W60724   4.572  19.939   3.750
88465W        W60725  11.727  22.921  10.463
88466W        W60726  39.373  14.007  10.805
88467W        W60727   2.762  20.739   4.477
88468W        W60728  11.070   3.406   1.928
88469W        W60729  17.043   6.584  11.356
88470W        W60730   1.558   7.925  13.013
88471W        W60731  31.447  39.313  12.979
88472W        W60732  41.494  17.938  11.732
88473W        W60733  16.083  43.286   0.050
88474W        W60734  18.983  13.720   2.773
88475W        W60735  16.273   8.406   3.209
88476W        W60736  25.581  44.007  13.358
88477W        W60737  28.726   0.070   3.255
88478W        W60738  29.194  11.634  12.380
88479W        W60739  22.289  33.969   0.218
88480W        W60740  13.715  36.828  11.110
88481W        W60741  28.116  22.709  11.072
88482W        W60742  34.453  34.067  10.997
88483W        W60743  27.656  35.970  13.947
88484W        W60744  29.879  11.137  11.695
88485W        W60745  31.497  24.817   4.061
88486W        W60746  33.867  21.011  14.508
88487W        W60747  30.708   8.358  11.544
88488W        W60748  40.338  41.690  14.450
88489W        W60749  16.830  42.041   3.183
88490W        W60750  39.410  16.103  14.775
88491W        W60751  27.624  10.435  12.962
88492W        W60752  25.080  40.536   0.902
88493W        W60753   5.181  25.715   1.947
88494W        W60754  40.954  31.090  10.717
88495W        W60755   1.169  28.894  11.186
88496W        W60756  40.271  37.970   4.173
88497W        W60757  29.101  26.086   0.920
88498W        W60758  17.136  22.645   4.521
88499W        W60759  37.887   7.243  13.273
88500W        W60760   8.102  23.061  11.495
88501W        W60761  10.403  20.205   3.742
88502W        W60762   7.394  27.151  12.582
88503W        W60763  39.550   6.430   4.936
88504W        W60764  40.360  31.953   2.812
88505W        W60765   9.475   8.748   9.537
88506W        W60766  18.549   0.384   1.241
88507W        W60767  34.566   6.808   0.424
88508W        W60768   9.625  18.154  11.148
88509W        W60769  28.617   9.040  13.504
88510W        W60770  25.748  39.284  10.121
88511W        W60771  15.301   3.478   3.664
88512W        W60772  20.432  14.265  11.571
88513W        W60773   9.622  22.235   0.329
88514W        W60774   0.634  17.233   1.868
88515W        W60775  16.161   3.693   3.109
88516W        W60776  31.522  43.085  14.321
88517W        W60777  11.320   7.677  10.721
88518W        W60778  15.105  29.777   2.903
88519W        W60779  29.410   5.175   2.850
88520W        W60780  30.406  34.363   3.650
88521W        W60781  25.951  39.244   0.368
88522W        W60782  18.845  15.626  13.387
88523W        W60783  21.392  33.100  11.643
88524W        W60784  26.743  18.778   0.246
88525W        W60785  29.643  43.283   0.401
88526W        W60786   2.555  35.973   3.274
88527W        W60787   3.488  25.479  13.065
88528W        W60788  17.631  10.344   0.360
88529W        W60789  20.604  38.817   1.285
88530W        W60790  22.384  25.405   0.273
88531W        W60791  39.268  41.546  13.547
88532W        W60792   1.977  27.145   0.494
88533W        W60793  27.686   1.969  14.570
88534W        W60794  25.200   9.189   3.292
88535W        W60795  15.058   7.429  12.773
88536W        W60796  13.228   2.401  11.595
88537W        W60797  17.334  41.536   4.641
88538W        W60798  43.095  25.330   0.929
88539W        W60799  43.363  35.514  14.273
88540W        W60800  20.254  16.533  13.929
88541W        W60801  19.310  35.622  11.451
88542W        W60802  19.215  11.861  11.537
88543W        W60803  18.908  19.974   0.477
88544W        W60804  33.191  40.007  14.513
88545W        W60805   0.534  30.121  12.917
88546W        W60806   7.160   1.494  12.558
88547W        W60807   3.437   6.208   1.571
88548W        W60808  38.315  12.603   2.789
88549W        W60809  23.563   7.598   3.112
88550W        W60810   0.428   0.412  14.339
88551W        W60811  38.874  31.637  11.558
88552W        W60812  13.082   3.278  10.664
88553W        W60813  40.881  35.578  11.485
88554W        W60814  19.536   9.891  14.265
88555W        W60815  14.723  21.663  14.779
88556W        W60816  26.247  32.650   1.182
88557W        W60817  16.805  18.062   2.782
88558W        W60818  34.113   6.650  13.540
88559W        W60819  30.187  32.378  13.459
88560W        W60820   8.360  34.028  13.503
88561W        W60821  20.302  11.721   2.320
88562W        W60822  15.689   6.839  13.004
88563W        W60823  33.481  20.041  10.262
88564W        W60824  37.690   6.193   4.252
88565W        W60825  41.427  17.020   0.703
88566W        W60826  22.197  31.741   0.539
88567W        W60827  31.829  41.118   0.009
88568W        W60828  18.463  24.044   1.714
88569W        W60829  26.222  40.377  12.401
88570W        W60830  18.089  31.211  11.422
88571W        W60831   8.299  13.623  12.925
88572W        W60832  41.075  16.552  12.088
88573W        W60833  21.675  44.839  12.099
88574W        W60834  10.913   1.752  14.263
88575W        W60835   9.767  28.078  14.258
88576W        W60836  36.300  42.175  13.129
88577W        W60837  16.429  14.189   3.788
88578W        W60838   2.860  11.056   4.040
88579W        W60839   5.716   4.081  12.011
88580W        W60840  39.976  29.489   3.692
88581W        W60841  13.576  41.650  12.870
88582W        W60842  31.533  26.971  10.645
88583W        W60843  37.710  11.277  10.584
88584W        W60844   1.344  29.637  14.416
88585W        W60845  12.373  23.185   0.178
88586W        W60846  37.678   1.308  11.812
88587W        W60847  36.919  36.350   9.942
88588W        W60848  23.744  44.869  13.995
88589W        W60849  15.056  20.569   4.023
88590W        W60850  34.117  10.105   0.539
88591W        W60851  43.941  12.818   2.734
88592W        W60852  40.402  16.481  13.897
88593W        W60853  40.802  43.242   3.465
88594W        W60854  27.772  27.129  10.502
88595W        W60855  41.714   1.950   3.920
88596W        W60856  44.346  44.190   1.777
88597W        W60857  13.126   9.768  10.712
88598W        W60858  12.225  32.740   2.581
88599W        W60859  28.077  28.570   0.716
88600W        W60860  36.382  29.966  13.894
88601W        W60861   9.209   5.026  12.639
88602W        W60862  13.151   9.799   3.849
88603W        W60863   2.956  19.021  11.109
88604W        W60864  27.509  16.326   3.118
88605W        W60865   2.956   5.245  10.735
88606W        W60866   5.988   0.884  14.017
88607W        W60867   4.591   9.166   0.733
88608W        W60868  14.351  24.898   2.908
88609W        W60869  33.413  33.187  14.210
88610W        W60870   1.835  13.858   2.318
88611W        W60871  31.951   6.840  13.065
88612W        W60872  21.306  15.170   0.354
88613W        W60873   4.412  29.970  14.761
88614W        W60874  33.462  11.690   0.036
88615W        W60875  20.670   3.823   4.841
88616W        W60876  30.378  21.160   3.762
88617W        W60877  38.787   5.397   3.664
88618W        W60878  30.259  44.279   0.264
88619W        W60879  15.454  40.584   0.872
88620W        W60880  15.801  16.585   4.221
88621W        W60881   4.157  29.181   0.868
88622W        W60882  43.447  41.725  12.474
88623W        W60883  43.359  42.237  12.463
88624W        W60884  11.860  34.564   3.640
88625W        W60885   3.719   5.300  14.975
88626W        W60886  36.869  26.221  11.286
88627W        W60887  27.465  26.639  10.608
88628W        W60888  19.235  17.028   0.411
88629W        W60889  27.728  32.185   3.776
88630W        W60890  44.493   2.758   5.054
88631W        W60891  40.949   8.629  11.602
88632W        W60892  22.773  38.721  14.004
88633W        W60893  31.674  29.502   1.831
88634W        W60894  27.505  41.231  12.558
88635W        W60895  27.446  42.009   2.292
88636W        W60896  23.634  11.369   1.477
88637W        W60897  40.954  32.895   1.520
88638W        W60898  23.657  29.370   2.697
88639W        W60899  17.077  40.316   2.701
88640W        W60900  36.116  19.673   2.328
88641W        W60901  40.908  30.053   4.391
88642W        W60902  43.872   8.938   2.847
88643W        W60903   6.674  30.257   3.186
88644W        W60904  35.957  34.301  11.664
88645W        W60905  25.929  41.294   2.742
88646W        W60906   3.908  32.613  14.414
88647W        W60907  13.253  14.304  12.056
88648W        W60908  44.525  15.852  13.343
88649W        W60909  42.477  37.390  10.929
88650W        W60910   5.371  36.159  12.083
88651W        W60911  10.036  28.088  11.058
88652W        W60912   3.262  31.591   2.260
88653W        W60913  32.652  25.005   0.861
88654W        W60914  22.783  11.347  12.181
88655W        W60915  37.434  37.098   0.346
88656W        W60916  15.327  43.428  11.975
88657W        W60917  30.893  10.046  14.156
88658W        W60918   6.989  12.398  11.691
88659W        W60919  31.830  23.633   2.619
88660W        W60920   3.018   7.827  12.089
88661W        W60921  22.428  42.846   2.138
88662W        W60922  18.711   8.110   3.386
88663W        W60923  22.156  43.459   0.481
88664W        W60924  30.029   5.303   4.637
88665W        W60925  36.019  24.849   4.432
88666W        W60926   8.362  12.397   2.237
88667W        W60927  30.968  20.633   3.306
88668W        W60928  41.873  23.316  14.868
88669W        W60929  27.215   6.628   3.289
88670W        W60930  22.093   0.712  13.067
88671W        W60931   5.672  31.051  10.686
88672W        W60932  18.642  22.092   0.967
88673W        W60933   5.029  11.393  14.493
88674W        W60934  12.186  32.475  12.947
88675W        W60935   4.482  19.986   0.267
88676W        W60936   7.919   2.462   3.582
88677W        W60937  15.604  43.265  14.846
88678W        W60938  44.055  18.833  11.095
88679W        W60939  40.040  42.985  13.311
88680W        W60940  37.180  22.983   3.334
88681W        W60941  34.209  44.396  13.590
88682W        W60942  37.734   7.135  11.885
88683W        W60943   9.175  23.491  14.246
88684W        W60944  29.632  32.392  11.905
88685W        W60945  33.328  26.571   2.210
88686W        W60946  37.503  21.249  12.141
88687W        W60947  20.220   0.037   3.786
88688W        W60948  21.164  27.736   2.227
88689W        W60949  28.122  42.472   2.614
88690W        W60950  22.822  35.970  14.375
88691W        W60951  13.315  35.239  14.264
88692W        W60952  26.445  16.583  10.994
88693W        W60953  35.942  44.300   3.655
88694W        W60954  32.026  11.801  11.028
88695W        W60955  38.568  26.655   1.395
88696W        W60956   1.605  36.622  12.754
88697W        W60957  25.160  44.065   5.042
88698W        W60958  14.875  18.924  12.078
88699W        W60959  33.176  29.098   0.381
88700W        W60960  21.894  10.141   1.669
88701W        W60961  43.582  41.024   4.887
88702W        W60962  32.046  42.059  11.657
88703W        W60963  20.008  22.132   3.165
88704W        W60964  13.224  43.035   4.891
88705W        W60965  42.098  24.662   0.407
88706W        W60966   8.437  15.687  13.997
88707W        W60967  38.984  35.964  12.481
88708W        W60968  28.419  15.838   0.752
88709W        W60969  26.009   5.293  11.969
88710W        W60970   0.099  40.814  14.068
88711W        W60971   3.662   7.040  14.255
88712W        W60972  40.357   8.891   2.383
88713W        W60973   4.134  33.413   1.155
88714W        W60974  20.586  24.790  12.844
88715W        W60975  35.950  18.011   4.097
88716W        W60976  35.797  21.694   3.547
88717W        W60977  38.531  36.419   1.436
88718W        W60978  33.886  13.752   2.621
88719W        W60979   4.017  40.571   0.401
88720W        W60980  36.898  33.149  13.038
88721W        W60981   9.194  30.652   0.972
88722W        W60982  23.611   8.343   0.860
88723W        W60983  35.020  25.000  12.499
88724W        W60984  11.664   8.216  12.660
88725W        W60985   0.817  20.839   4.560
88726W        W60986  32.324  38.550   3.826
88727W        W60987  14.145  15.538  11.998
88728W        W60988  41.067   1.874   4.634
88729W        W60989  40.516  34.544  13.889
88730W        W60990  24.251  21.355   1.130
88731W        W60991  29.400   8.848   2.391
88732W        W60992  20.655   0.036   2.785
88733W        W60993   8.342   9.299   3.352
88734W        W60994  30.886  36.094  14.693
88735W        W60995  25.214  25.105   1.912
88736W        W60996  30.172  42.914  12.007
88737W        W60997  22.000  44.998  13.794
88738W        W60998  29.587  28.151  12.870
88739W        W60999  44.501  38.808  11.904
88740W        W61000  21.748  33.057  10.580
88741W        W61001  32.152  15.583   3.684
88742W        W61002   9.575  38.125   3.144
88743W        W61003  26.699  24.889   4.122
88744W        W61004  18.670   8.703  12.719
88745W        W61005  28.412  27.697  11.879
88746W        W61006  18.318  43.305  11.939
88747W        W61007  22.225  18.502   1.370
88748W        W61008  32.164  18.903   0.934
88749W        W61009  34.877   8.182   4.199
88750W        W61010  19.307  42.815  14.505
88751W        W61011  19.678  27.165  12.383
88752W        W61012  22.082  14.289  13.698
88753W        W61013  13.249   8.084  10.814
88754W        W61014   3.979  14.819  14.458
88755W        W61015  42.364  43.558   1.238
88756W        W61016  21.125  37.717   4.137
88757W        W61017  19.978  20.788   3.206
88758W        W61018  42.699  31.315   2.308
88759W        W61019  29.025  38.917  10.227
88760W        W61020   7.110   4.166   1.829
88761W        W61021  28.166  12.321   5.004
88762W        W61022  42.616  20.828   2.773
88763W        W61023  32.964  27.926  12.381
88764W        W61024  21.097   5.696   3.148
88765W        W61025  35.154  35.583   4.089
88766W        W61026  21.884  10.631  12.898
88767W        W61027  39.523  20.103  14.986
88768W        W61028   4.869  42.795  11.137
88769W        W61029  15.261   3.960   0.913
88770W        W61030  22.171  31.069  12.929
88771W        W61031  10.483  27.196  11.867
88772W        W61032   0.513  23.432   2.803
88773W        W61033  15.968  10.607   3.571
88774W        W61034  38.332  33.766  10.534
88775W        W61035  36.078  16.738  11.636
88776W        W61036   6.795  39.609   3.698
88777W        W61037  27.417   2.107  12.106
88778W        W61038  23.475  15.650  14.898
88779W        W61039  18.687   1.338  12.068
88780W        W61040  33.541   3.700   1.117
88781W        W61041   2.761  41.073   3.200
88782W        W61042  17.495  23.098  13.050
88783W        W61043  27.117  12.994   4.406
88784W        W61044  25.541  13.128   0.315
88785W        W61045  41.385  12.215  11.510
88786W        W61046  36.951  38.341   1.364
88787W        W61047  33.521  14.119   3.564
88788W        W61048  11.142  42.352  14.833
88789W        W61049   3.380  44.307  11.613
88790W        W61050  34.583   5.265   3.724
88791W        W61051  31.464   3.449   1.860
88792W        W61052  16.312   1.179  13.993
88793W        W61053  13.799  10.906  11.210
88794W        W61054   7.940  12.253  14.276
88795W        W61055  34.740  10.314   1.821
88796W        W61056  21.343  25.200   1.713
88797W        W61057   5.830   7.690   4.091
88798W        W61058  24.911  27.412  10.447
88799W        W61059  35.929  38.429  12.034
88800W        W61060   4.250  32.082   3.286
88801W        W61061  12.792  14.685  11.000
88802W        W61062  22.136  37.079   1.145
88803W        W61063  13.272  41.530  10.777
88804W        W61064  42.726  17.510   1.054
88805W        W61065  38.473  20.632  12.933
88806W        W61066  12.214  34.054   4.693
88807W        W61067   4.668  18.631  14.301
88808W        W61068  11.126  14.936  12.551
88809W        W61069  36.283  22.698  14.925
88810W        W61070  32.908   1.627  13.334
88811W        W61071  21.698  29.216   1.869
88812W        W61072  24.961  33.670  13.991
88813W        W61073   0.627  19.650   1.165
88814W        W61074   9.359   5.656  14.933
88815W        W61075  10.096  33.387   5.167
88816W        W61076  14.651  28.638   2.362
88817W        W61077  37.807  13.558  11.412
88818W        W61078  42.739   6.179  12.506
88819W        W61079  17.059  13.682  13.021
88820W        W61080   6.354  16.707  14.906
88821W        W61081   2.458  15.908  11.871
88822W        W61082  41.268   9.666  14.747
88823W        W61083  14.680   8.102   2.202
88824W        W61084  16.332  37.443  14.063
88825W        W61085  44.014  31.007   1.503
88826W        W61086  18.720  42.997   1.193
88827W        W61087  14.193  18.587   4.385
88828W        W61088   2.782  30.639  12.972
88829W        W61089   8.232  10.291  12.566
88830W        W61090  20.312   6.418  10.583
88831W        W61091  20.704   4.400   1.364
88832W        W61092   2.159  40.641   4.132
88833W        W61093   2.954  26.174   2.385
88834W        W61094  13.850  14.306  13.827
88835W        W61095   5.742  23.384  12.164
88836W        W61096  21.174   7.679   2.386
88837W        W61097  27.420  30.923  11.171
88838W        W61098   5.833   2.760  11.002
88839W        W61099  43.866  14.227  14.595
88840W        W61100   5.951  29.260   9.818
88841W        W61101  32.097   1.757  13.941
88842W        W61102  37.955  34.669   2.244
88843W        W61103   9.322   4.482   2.588
88844W        W61104  20.028  35.966  12.333
88845W        W61105  26.138  24.578   3.518
88846W        W61106  37.332  19.534  10.596
88847W        W61107  32.243  38.429  11.981
88848W        W61108  33.556  26.203  14.262
88849W        W61109  11.201  13.715   3.904
88850W        W61110  36.721   7.747  11.008
88851W        W61111   2.807  11.857   0.395
88852W        W61112  21.205  30.155  10.705
88853W        W61113  25.557  43.449   2.938
88854W        W61114  32.911  22.874   0.749
88855W        W61115  36.541   8.289  13.840
88856W        W61116  15.610  44.314   2.428
88857W        W61117  18.409  42.890  14.266
88858W        W61118  21.276  37.284  10.888
88859W        W61119  37.097  37.901  14.857
88860W        W61120  12.301  11.146  14.127
88861W        W61121   4.703  11.875   3.716
88862W        W61122  39.868   9.864   3.059
88863W        W61123  19.158   4.350   3.261
88864W        W61124  41.465  43.967   2.164
88865W        W61125   2.673  39.999  11.227
88866W        W61126  37.920  30.651  13.070
88867W        W61127  16.135  12.330  13.863
88868W        W61128   5.237  37.005   2.059
88869W        W61129   7.085   4.117   4.118
88870W        W61130   1.201  32.638  14.283
88871W        W61131  32.879  25.119  13.112
88872W        W61132  10.783  31.989   4.371
88873W        W61133  21.507  39.561  12.956
88874W        W61134  30.033   1.660   4.918
88875W        W61135  19.583  34.478   2.137
88876W        W61136  16.851  23.480   2.155
88877W        W61137  33.619  32.147   0.626
88878W        W61138  38.025  26.964   0.288
88879W        W61139  43.490  35.058  10.110
88880W        W61140  34.410   3.103   4.106
88881W        W61141  42.560  24.224  12.745
88882W        W61142  26.826  40.445   4.148
88883W        W61143   0.653  36.987   2.213
88884W        W61144   2.721  11.497  14.462
88885W        W61145  34.615  25.680   0.923
88886W        W61146  10.030  16.321  11.354
88887W        W61147  27.215  38.569  12.431
88888W        W61148  42.277  34.633  13.428
88889W        W61149   1.257  40.427   2.171
88890W        W61150  12.444  19.579  13.269
88891W        W61151   6.423  39.687  13.454
88892W        W61152  31.070  42.496   0.746
88893W        W61153  44.060  18.533   3.647
88894W        W61154  19.074  29.198  11.690
88895W        W61155  39.561  11.184   4.145
88896W        W61156  27.661  17.630   0.824
88897W        W61157  17.145  16.542   1.846
88898W        W61158  30.536  25.021  14.004
88899W        W61159  27.413  31.096   3.746
88900W        W61160  16.791  33.476  12.907
88901W        W61161  39.984  40.955  14.513
88902W        W61162  26.165   5.446   1.449
88903W        W61163  12.162  19.576  12.084
88904W        W61164  29.669   8.169   3.208
88905W        W61165  40.884  15.161  10.679
88906W        W61166  21.277  11.901  14.499
88907W        W61167  10.754  44.984  13.266
88908W        W61168  37.882  14.260   3.317
88909W        W61169   0.371   7.637   0.445
88910W        W61170  39.482  38.959  13.128
88911W        W61171  44.734   5.870  13.966
88912W        W61172  16.196  34.477   0.502
88913W        W61173  37.313  15.695  10.975
88914W        W61174  21.401  39.845  10.686
88915W        W61175   4.230  11.265  10.878
88916W        W61176  13.074   0.254   2.490
88917W        W61177  31.858  14.017  12.685
88918W        W61178   5.434  16.625  13.453
88919W        W61179  20.116  34.637   2.110
88920W        W61180   1.726  14.657  11.621
88921W        W61181  32.415  27.480   1.913
88922W        W61182  34.166  40.756   2.341
88923W        W61183  14.121   5.433   0.369
88924W        W61184  26.557  41.819   4.295
88925W        W61185   6.827  36.004   3.137
88926W        W61186   0.510  43.280  14.037
88927W        W61187  34.045   2.307  13.405
88928W        W61188  36.466  43.846   3.663
88929W        W61189  27.091  11.885   3.270
88930W        W61190  34.847   4.096   2.412
88931W        W61191  37.438   1.536  14.988
88932W        W61192  20.593  39.959  14.951
88933W        W61193  35.537  40.775   0.792
88934W        W61194  23.863  22.957   1.330
88935W        W61195  35.966  43.540   3.198
88936W        W61196  33.021  39.903   4.434
88937W        W61197  22.994  44.496   4.698
88938W        W61198   9.443  21.761   3.116
88939W        W61199  20.055  42.443  14.539
88940W        W61200  31.261  18.736   1.873
88941W        W61201  40.632  21.767   2.930
88942W        W61202  15.844  32.398   4.670
88943W        W61203  40.800  14.139   3.076
88944W        W61204  39.853  10.365  11.116
88945W        W61205   8.223  36.233  12.050
88946W        W61206   8.767  36.111   0.884
88947W        W61207  31.667   1.015   2.864
88948W        W61208  39.346  26.742   0.767
88949W        W61209   7.471  31.335  14.865
88950W        W61210  10.427  21.218   5.183
88951W        W61211  27.708   5.974   3.804
88952W        W61212  44.398  33.407   2.301
88953W        W61213  37.638   0.432  11.593
88954W        W61214  35.367   3.924  12.973
88955W        W61215  39.088  32.167  10.106
88956W        W61216  26.693  27.637   0.458
88957W        W61217  23.241  19.033   2.213
88958W        W61218  18.898   7.233   3.611
88959W        W61219  20.599  33.005  12.368
88960W        W61220  20.013   2.243   2.429
88961W        W61221  43.861   8.516  10.682
88962W        W61222  31.515  37.778  10.637
88963W        W61223  22.247  29.179   9.616
88964W        W61224  41.958  25.788   3.522
88965W        W61225   3.174  43.840  10.687
88966W        W61226   0.246   5.722  13.885
88967W        W61227  11.741  18.180   0.835
88968W        W61228  28.600  41.963   4.296
88969W        W61229  26.585  22.787   1.290
88970W        W61230  27.507  17.872   2.113
88971W        W61231  10.913  12.867   0.674
88972W        W61232   0.184   1.294  12.516
88973W        W61233  10.144  32.834   1.463
88974W        W61234  32.991  38.407  14.910
88975W        W61235   7.218  25.547  14.952
88976W        W61236  19.106  26.018  10.801
88977W        W61237  16.117  42.278   4.156
88978W        W61238  20.367  42.706  12.524
88979W        W61239  23.199  23.946   0.875
88980W        W61240   8.260  31.650   3.686
88981W        W61241  34.530  43.079  12.535
88982W        W61242  34.732  26.157   3.408
88983W        W61243  27.554  23.101  12.463
88984W        W61244  32.685  38.829  13.440
88985W        W61245  39.853  37.890   3.285
88986W        W61246  24.423  21.677  12.820
88987W        W61247  41.862  24.181   4.552
88988W        W61248  17.812  11.946   1.780
88989W        W61249  25.074  23.642   3.166
88990W        W61250  28.770  25.542  11.157
88991W        W61251  19.929   7.825  14.812
88992W        W61252  16.686   9.033  11.786
88993W        W61253  44.803  11.383   1.746
88994W        W61254  12.100   7.161  12.338
88995W        W61255  34.138  19.797  12.290
88996W        W61256  12.903   7.337   2.962
88997W        W61257   3.900  39.428   3.627
88998W        W61258  18.115  15.052   1.432
88999W        W61259  11.999  32.087  14.687
89000W        W61260  17.147  23.476  11.023
89001W        W61261  29.253  11.424  11.198
89002W        W61262  29.736  32.943   1.355
89003W        W61263   7.164  26.511   0.318
89004W        W61264  37.503  42.827  11.172
89005W        W61265   0.923  20.182  14.370
89006W        W61266  38.014   6.593   4.201
89007W        W61267   9.388  31.497  11.609
89008W        W61268  36.953  25.021  12.039
89009W        W61269  34.190  43.010  13.381
89010W        W61270  21.747  26.114   4.576
89011W        W61271  17.097  29.492  12.024
89012W        W61272   9.962  18.058   4.172
89013W        W61273  33.677  12.669   0.025
89014W        W61274  21.059  13.643   4.131
89015W        W61275  22.175  25.090   2.335
89016W        W61276   9.452  17.625   2.452
89017W        W61277  20.297  17.668  12.091
89018W        W61278  20.136  40.948  14.826
89019W        W61279   2.013  14.080   1.749
89020W        W61280  27.719  22.738   1.310
89021W        W61281  44.357  42.294  12.321
89022W        W61282  38.149  25.135  11.684
89023W        W61283  40.918  31.592  10.478
89024W        W61284  18.003  27.888   3.150
89025W        W61285   1.439  41.772  11.005
89026W        W61286  38.172   1.380   3.145
89027W        W61287  16.566  19.859   2.427
89028W        W61288  10.823  41.911  11.886
89029W        W61289  10.722  31.043   4.440
89030W        W61290  28.574  19.141  12.205
89031W        W61291   1.520   6.366  11.199
89032W        W61292  25.379  35.424   0.637
89033W        W61293   4.483  35.100  11.965
89034W        W61294   3.482   3.992   4.146
89035W        W61295  31.354  41.874   1.351
89036W        W61296  18.397  24.107   0.730
89037W        W61297  33.982  13.289   0.950
89038W        W61298  10.569  25.757  14.008
89039W        W61299  38.634   1.414  10.678
89040W        W61300  23.373  36.112  10.657
89041W        W61301  44.955  38.527   3.642
89042W        W61302  44.514  22.532  14.940
89043W        W61303  27.810  37.066  12.947
89044W        W61304  24.770   5.734  13.417
89045W        W61305  32.981   6.352  13.364
89046W        W61306   2.412  39.982   1.375
89047W        W61307  11.262   7.757   3.805
89048W        W61308  13.263   1.540   2.401
89049W        W61309  40.250  20.065   4.192
89050W        W61310  18.659  41.089  11.137
89051W        W61311  22.355  15.535   3.172
89052W        W61312   0.078  12.816  13.439
89053W        W61313  38.280  31.516   4.643
89054W        W61314  16.715  23.791  13.127
89055W        W61315  31.621  43.245  13.837
89056W        W61316  17.691  36.390  10.761
89057W        W61317  34.105  13.018   1.927
89058W        W61318  23.939  14.936  11.648
89059W        W61319   2.330  38.828  13.390
89060W        W61320  28.147   1.026  14.090
89061W        W61321  10.942  29.544  12.132
89062W        W61322   4.476   6.870  13.873
89063W        W61323  40.009  11.228  13.388
89064W        W61324  37.806   9.713   3.134
89065W        W61325  38.448  39.541   1.038
89066W        W61326  37.150  24.525  11.987
89067W        W61327  25.589  34.895   4.367
89068W        W61328  32.682  20.302   1.302
89069W        W61329   3.830  18.059   4.085
89070W        W61330   5.392   6.266  12.823
89071W        W61331  30.635  26.981  11.509
89072W        W61332  22.162  30.113   4.659
89073W        W61333  12.781   5.682   4.389
89074W        W61334  28.676  16.632  10.686
89075W        W61335  33.353   5.249  13.364
89076W        W61336  22.506  29.732   3.485
89077W        W61337   3.327  15.604  13.005
89078W        W61338  38.105   2.059   4.174
89079W        W61339  29.969  39.917   2.277
89080W        W61340  15.585  27.965  13.655
89081W        W61341  22.895  12.861   3.264
89082W        W61342  18.770   5.529   5.095
89083W        W61343  25.488  24.516   0.943
89084W        W61344  42.710  37.053  14.778
89085W        W61345  25.682   8.080   2.907
89086W        W61346  42.343  29.648   1.106
89087W        W61347  17.863  19.270  11.503
89088W        W61348   8.459  23.008   0.382
89089W        W61349  21.494  13.478   2.401
89090W        W61350  41.931   5.186   1.614
89091W        W61351  36.528   2.653   2.816
89092W        W61352  27.140  26.083   1.175
89093W        W61353   1.451  23.113   0.840
89094W        W61354  35.560   3.293   4.554
89095W        W61355   0.980  30.548   4.654
89096W        W61356  21.547   2.361   4.058
89097W        W61357  39.947  40.432   4.665
89098W        W61358  30.366  32.849  13.165
89099W        W61359  28.995  42.380  10.904
89100W        W61360  37.751   3.471   2.775
89101W        W61361  43.991   3.940   2.901
89102W        W61362  30.579   3.709  12.361
89103W        W61363  15.274  40.803   3.233
89104W        W61364   2.741  37.119  13.434
89105W        W61365  19.719  15.150   0.681
89106W        W61366  38.862  33.845   4.714
89107W        W61367  32.608  37.946   2.702
89108W        W61368   7.642   8.365   2.378
89109W        W61369  17.249   2.376   0.801
89110W        W61370  31.001   0.877  11.846
89111W        W61371   5.515  36.359   3.642
89112W        W61372  21.282  33.082  14.036
89113W        W61373   5.313  27.388  10.609
89114W        W61374   3.995  11.190  14.710
89115W        W61375   6.932  13.387   0.222
89116W        W61376   1.238  10.680  14.215
89117W        W61377  10.648   2.075  12.042
89118W        W61378  29.269   0.044   0.496
89119W        W61379  42.325  25.562   4.563
89120W        W61380  19.256  21.512   0.050
89121W        W61381  33.922  33.189  14.291
89122W        W61382  44.455  41.991   0.825
89123W        W61383  44.969  12.061   4.590
89124W        W61384  31.183  38.609   0.510
89125W        W61385  36.920  17.944  10.513
89126W        W61386  22.274  22.752   4.182
89127W        W61387  44.802   1.857  11.528
89128W        W61388  18.546  31.079  14.417
89129W        W61389  12.728  15.784   2.158
89130W        W61390  38.319  10.793  13.537
89131W        W61391   7.911   8.870   1.318
89132W        W61392   3.083   2.251   4.123
89133W        W61393  20.617   9.892   1.377
89134W        W61394   1.658  18.567  11.152
89135W        W61395  32.582   8.678   4.709
89136W        W61396  29.359  35.519  11.880
89137W        W61397  19.271  42.306   4.235
89138W        W61398  22.551  41.994  14.522
89139W        W61399  30.418  36.838  13.489
89140W        W61400  40.868  37.834   2.721
89141W        W61401   3.798  26.007   3.390
89142W        W61402  11.926  25.576   2.866
89143W        W61403   7.811  43.054  12.480
89144W        W61404   0.322  24.520  13.070
89145W        W61405  27.924   0.818  13.389
89146W        W61406  33.441  39.965  12.157
89147W        W61407  10.965  29.986   0.840
89148W        W61408  36.518   3.878   2.279
89149W        W61409  41.830  17.484   4.144
89150W        W61410  17.487  29.163  12.043
89151W        W61411  39.019  41.060  13.802
89152W        W61412  41.352  24.496   2.727
89153W        W61413  25.574  33.453   3.808
89154W        W61414  14.821  17.404   5.490
89155W        W61415  31.020  42.469   4.397
89156W        W61416  23.067  20.192   1.763
89157W        W61417  17.110   2.485  10.648
89158W        W61418   6.246  37.611  10.626
89159W        W61419   2.690  44.458   3.777
89160W        W61420  10.262  10.357  12.003
89161W        W61421  22.365  30.210  11.129
89162W        W61422  16.082  36.013  11.744
89163W        W61423  22.247  42.534  13.910
89164W        W61424  29.423  26.567   1.400
89165W        W61425  11.789   4.553  11.689
89166W        W61426  34.501   4.459   0.465
89167W        W61427   3.755   7.239  12.955
89168W        W61428  32.422  32.129   0.739
89169W        W61429  26.022  12.561  14.511
89170W        W61430   9.381  37.161  10.656
89171W        W61431  10.094  23.455  14.889
89172W        W61432  19.608  13.786  13.993
89173W        W61433  37.694  19.574  12.395
89174W        W61434  38.029   0.310   1.294
89175W        W61435  34.456  23.540  11.179
89176W        W61436  44.185  27.679   2.181
89177W        W61437  34.788   1.855  10.960
89178W        W61438  42.772   2.729  14.344
89179W        W61439   6.939  14.545  13.419
89180W        W61440   4.910  43.904   1.278
89181W        W61441  37.632   1.191   2.255
89182W        W61442  10.315  38.357  10.441
89183W        W61443  41.398  26.472  13.232
89184W        W61444   7.817  16.592  12.138
89185W        W61445  22.636  36.908  14.574
89186W        W61446  11.785   3.374   0.823
89187W        W61447   9.861  33.979   4.115
89188W        W61448  20.038  20.236   3.204
89189W        W61449  17.624  14.079  12.607
89190W        W61450  13.077  42.160   1.185
89191W        W61451   1.553  41.046  12.017
89192W        W61452   8.382   4.277   0.460
89193W        W61453  17.138  18.973  13.313
89194W        W61454  32.467  41.261  12.560
89195W        W61455  24.668  29.883   0.280
89196W        W61456   0.229  43.853   1.873
89197W        W61457   6.845  44.865   3.136
89198W        W61458  38.423  15.729  10.700
89199W        W61459  36.097  36.466   1.304
89200W        W61460  31.945  42.886   4.653
89201W        W61461  10.718  29.011   3.852
89202W        W61462  42.532  40.302   2.343
89203W        W61463  14.823  44.194  12.032
89204W        W61464  38.896   1.399   4.353
89205W        W61465  17.338  13.683   0.872
89206W        W61466   7.340  28.048  10.658
89207W        W61467  41.984  30.467   0.787
89208W        W61468  31.542  27.282   2.242
89209W        W61469   4.409  25.848   1.315
89210W        W61470  44.282   9.730  10.919
89211W        W61471  39.112  28.688   0.862
89212W        W61472   0.976  23.430  14.916
89213W        W61473   8.738   8.621  13.550
89214W        W61474  27.249   7.326  10.852
89215W        W61475   0.426  40.396   4.240
89216W        W61476   4.902  14.147  11.365
89217W        W61477  30.205  31.938  13.871
89218W        W61478  13.303  42.150   0.726
89219W        W61479  14.751  40.061  14.055
89220W        W61480   7.627   2.879   3.368
89221W        W61481   5.752   6.210  14.034
89222W        W61482  25.960  33.347  14.973
89223W        W61483  30.221  30.008  10.626
89224W        W61484  15.811  38.301   2.397
89225W        W61485  40.956  42.279   3.110
89226W        W61486  27.956  35.776  11.123
89227W        W61487  39.281  21.469  10.713
89228W        W61488  29.574  37.785  12.408
89229W        W61489  33.163  25.163   0.924
89230W        W61490   5.045   1.268  14.803
89231W        W61491   9.075  22.261  12.928
89232W        W61492  24.510  32.404  10.620
89233W        W61493  42.744  28.137   4.087
89234W        W61494  13.406   2.796  14.860
89235W        W61495   3.458   4.227   2.700
89236W        W61496  38.812  21.539  13.350
89237W        W61497  13.470  42.449   1.966
89238W        W61498   5.246  19.233  13.822
89239W        W61499  16.760  24.748  12.732
89240W        W61500  37.826   6.765   3.750
89241W        W61501  30.073  34.971   4.628
89242W        W61502   3.897   9.346  10.802
89243W        W61503  13.329   6.598  11.491
89244W        W61504  39.258  20.478  14.737
89245W        W61505  13.804  10.398  14.058
89246W        W61506  43.377   3.172  13.003
89247W        W61507   7.168  38.540   2.229
89248W        W61508  43.320  21.075   2.347
89249W        W61509  26.801  28.632  14.727
89250W        W61510   4.929  15.523   1.808
89251W        W61511  32.081  12.430   2.287
89252W        W61512   4.350  38.525   3.101
89253W        W61513  22.555  20.426  12.471
89254W        W61514  34.637  39.577   1.775
89255W        W61515  20.536  17.129  13.523
89256W        W61516   7.751  25.974   0.988
89257W        W61517  12.652  18.675   3.591
89258W        W61518  27.785  10.177  13.464
89259W        W61519   6.699  13.704   1.041
89260W        W61520  44.402  24.035  10.472
89261W        W61521  10.843  37.713  14.421
89262W        W61522  37.655  39.445   3.040
89263W        W61523  30.650  32.081  10.280
89264W        W61524  32.545  30.717   4.727
89265W        W61525  16.820  17.737   3.204
89266W        W61526  26.635  19.239   0.059
89267W        W61527  11.225  31.154   4.676
89268W        W61528  37.041  10.365   2.297
89269W        W61529  13.098   5.829   3.281
89270W        W61530  31.557  38.274   3.262
89271W        W61531  36.841  20.685   3.801
89272W        W61532   7.114  16.187   4.289
89273W        W61533  34.126  18.279  14.425
89274W        W61534  28.503  42.975   4.381
89275W        W61535  17.286  14.378  12.352
89276W        W61536  38.799   7.380   1.936
89277W        W61537  30.553  11.126   1.550
89278W        W61538   1.719  24.185   2.919
89279W        W61539  21.564   6.744   2.634
89280W        W61540  44.435  39.172  13.590
89281W        W61541  24.086  22.991  12.407
89282W        W61542   9.498   7.624  12.485
89283W        W61543  10.440  38.876   0.417
89284W        W61544   4.638   2.836   3.354
89285W        W61545  28.126  34.988  11.839
89286W        W61546   2.433   5.706  10.644
89287W        W61547  36.427   1.277  11.115
89288W        W61548  35.859  16.025  10.592
89289W        W61549  35.665   4.800   0.666
89290W        W61550  44.959  26.363   2.405
89291W        W61551  10.645   7.248   0.294
89292W        W61552  35.309  37.850  11.955
89293W        W61553  16.457   6.615   1.854
89294W        W61554  36.520  19.694   4.195
89295W        W61555  34.593   3.453   5.161
89296W        W61556  24.572   4.345  11.623
89297W        W61557  33.558  37.268   3.222
89298W        W61558  36.116  17.586   2.621
89299W        W61559   9.272  26.770  14.903
89300W        W61560   8.482  44.951   1.737
89301W        W61561   7.695  21.193   3.615
89302W        W61562  24.974  13.831  13.010
89303W        W61563  44.943  26.104  10.679
89304W        W61564   6.628  32.843  13.053
89305W        W61565  39.246   7.319  13.136
89306W        W61566  34.518  44.019  11.511
89307W        W61567   6.053  30.848   1.962
89308W        W61568   2.293   5.867   1.701
89309W        W61569   9.458   7.663   4.489
89310W        W61570  26.538   7.704  11.244
89311W        W61571   9.528  10.532   4.526
89312W        W61572  16.830  36.880   3.264
89313W        W61573  44.881  23.095   4.151
89314W        W61574  19.543  12.164  13.444
89315W        W61575   8.838  33.559   3.700
89316W        W61576   4.540  22.795  14.411
89317W        W61577  40.333  25.476   3.074
89318W        W61578  17.599   3.195   3.871
89319W        W61579  10.834   5.923   2.691
89320W        W61580  20.631  17.745   1.168
89321W        W61581   7.772  27.416   3.660
89322W        W61582   5.744  18.093  13.970
89323W        W61583  25.978  43.208  13.465
89324W        W61584   3.392   3.832   0.373
89325W        W61585   4.502  26.888  12.465
89326W        W61586  40.911  27.664   3.216
89327W        W61587  34.053  21.169   4.934
89328W        W61588  23.867   7.613   0.991
89329W        W61589  42.925   1.243   4.222
89330W        W61590   0.350  23.488  14.433
89331W        W61591   8.753  32.165   0.420
89332W        W61592  37.017  36.314   0.308
89333W        W61593  11.717  41.892  11.981
89334W        W61594  10.638  42.439   1.925
89335W        W61595  33.869  42.024  13.017
89336W        W61596  14.342  32.483   1.498
89337W        W61597  27.566  29.238  11.538
89338W        W61598  12.160  16.529   0.065
89339W        W61599   6.019  34.624  14.162
89340W        W61600   0.799   5.189  11.461
89341W        W61601   0.865  29.206   2.185
89342W        W61602  39.909  24.175  14.374
89343W        W61603  33.348  20.484   9.993
89344W        W61604  27.717  15.448  12.962
89345W        W61605  41.549  42.846   3.680
89346W        W61606  24.225  39.375   2.851
89347W        W61607  29.796  32.907   0.516
89348W        W61608  10.918  36.484   0.409
89349W        W61609  25.722  37.975  13.520
89350W        W61610  33.945   9.136   0.900
89351W        W61611  12.009  21.191  14.558
89352W        W61612  30.535  13.745  13.371
89353W        W61613  22.431  11.305  10.763
89354W        W61614  38.725  37.576  10.290
89355W        W61615  11.175  25.491  11.950
89356W        W61616  42.020   9.218  12.614
89357W        W61617  27.963   0.923   5.095
89358W        W61618  24.301  27.141   3.512
89359W        W61619   0.024  23.495   1.178
89360W        W61620  31.226  14.092   0.980
89361W        W61621  13.102  24.850   9.903
89362W        W61622  11.309   5.621   1.914
89363W        W61623  44.029  35.816  13.599
89364W        W61624  36.542  19.123  10.802
89365W        W61625  42.125  12.853   2.359
89366W        W61626  24.613  21.678   4.914
89367W        W61627  39.203  21.032   0.242
89368W        W61628  34.166  23.051   2.778
89369W        W61629  40.955  39.291  13.429
89370W        W61630  41.953  22.050  11.488
89371W        W61631   3.967   1.746   2.391
89372W        W61632  11.841  32.659  14.521
89373W        W61633  26.077  40.992   4.025
89374W        W61634   8.212  33.375  12.020
89375W        W61635  37.969  39.445   3.926
89376W        W61636  15.802  12.794  12.613
89377W        W61637  36.687  31.509   0.956
89378W        W61638  40.541  35.579   2.901
89379W        W61639  30.719  25.547   1.253
89380W        W61640  42.869  37.040   1.770
89381W        W61641   1.983   9.399  12.902
89382W        W61642  14.192  30.035  12.457
89383W        W61643  30.421  29.384   0.075
89384W        W61644  36.576  37.323  11.007
89385W        W61645  28.507   1.457  14.855
89386W        W61646   9.843  26.010  14.127
89387W        W61647   9.444  13.878  13.896
89388W        W61648   3.975  43.810  14.665
89389W        W61649   3.292  27.148  11.160
89390W        W61650  21.442  22.541  13.315
89391W        W61651  11.605   8.188   3.825
89392W        W61652  44.736  36.191  10.775
89393W        W61653  38.365  17.583  10.673
89394W        W61654  26.975  19.566   3.448
89395W        W61655   7.996  19.611  10.631
89396W        W61656  24.121  14.985   4.914
89397W        W61657  43.891  38.015   3.251
89398W        W61658  40.935  42.282  11.994
89399W        W61659  24.094  41.963  12.402
89400W        W61660   4.390  23.644  12.721
89401W        W61661   1.218  29.648  10.755
89402W        W61662  25.383   3.253   1.143
89403W        W61663  41.641  44.726   3.409
89404W        W61664   3.028  11.801  13.639
89405W        W61665  21.223  13.929   3.238
89406W        W61666   6.820  23.568   0.959
89407W        W61667   7.701  43.583   1.271
89408W        W61668   9.368  19.919   1.283
89409W        W61669  15.092  12.851   1.144
89410W        W61670  28.529  37.293   1.666
89411W        W61671  29.192  12.328  11.611
89412W        W61672   6.403  23.955   3.178
89413W        W61673  10.717  16.064  14.435
89414W        W61674  24.074  31.625   0.784
89415W        W61675  36.075  36.904  13.464
89416W        W61676  11.297  31.620  13.264
89417W        W61677  42.825  24.501  12.155
89418W        W61678  10.233  27.062   1.978
89419W        W61679   6.860  10.384  10.631
89420W        W61680   3.225   7.122   1.822
89421W        W61681  39.714  38.437   0.495
89422W        W61682   2.059  42.264   0.873
89423W        W61683  30.400   2.164  11.955
89424W        W61684  12.150  41.342  13.036
89425W        W61685  28.092   2.892  13.164
89426W        W61686  18.053  42.790   5.268
89427W        W61687  34.706  39.764  14.561
89428W        W61688  36.268  27.142  12.478
89429W        W61689  25.594   7.193   0.265
89430W        W61690  32.652  14.144   2.660
89431W        W61691  15.286  17.310   0.917
89432W        W61692   5.285  14.196  12.626
89433W        W61693  13.217  25.123  11.714
89434W        W61694  10.951  34.070  12.000
89435W        W61695  30.623  40.386  13.481
89436W        W61696  18.537  16.131   4.049
89437W        W61697  25.236  13.585   1.756
89438W        W61698   3.313  28.163  12.376
89439W        W61699  38.806  11.085  14.364
89440W        W61700  10.714   8.362   2.334
89441W        W61701   1.191  44.067  14.186
89442W        W61702  24.629  15.097   3.168
89443W        W61703  39.878  32.946   2.875
89444W        W61704  35.044  14.649   1.170
89445W        W61705  10.780  33.883   0.852
89446W        W61706   1.148  38.289   0.800
89447W        W61707  29.541  26.155  13.731
89448W        W61708  18.766  43.091   3.945
89449W        W61709  27.405  17.719  11.621
89450W        W61710   1.953   2.047   2.354
89451W        W61711   5.291  16.881   0.990
89452W        W61712  14.238  26.164   3.355
89453W        W61713  32.538  29.452   1.406
89454W        W61714  35.113  22.486  12.372
89455W        W61715  31.376  13.122   4.530
89456W        W61716  31.547  23.407   4.625
89457W        W61717  22.187  18.232  14.997
89458W        W61718  10.143  43.787   3.911
89459W        W61719   4.725  21.455  11.592
89460W        W61720  34.072   6.620  12.691
89461W        W61721  43.848  20.737  10.718
89462W        W61722  37.127  40.090  11.540
89463W        W61723  22.314  25.525   0.778
89464W        W61724   8.165   1.268  13.431
89465W        W61725  23.159   1.642  13.430
89466W        W61726  10.319  19.150  14.482
89467W        W61727  17.945  41.020  13.514
89468W        W61728  37.342  13.074   5.039
89469W        W61729  10.335  13.136  14.530
89470W        W61730  39.064  15.110   0.493
89471W        W61731  28.624   3.879  11.023
89472W        W61732  36.015  44.398  11.451
89473W        W61733  34.396  31.418   2.293
89474W        W61734  27.767  28.363  14.761
89475W        W61735  16.529  21.806  11.625
89476W        W61736  15.665  13.752   3.157
89477W        W61737  24.954  19.668  12.850
89478W        W61738  18.734  38.856  10.736
89479W        W61739  18.061  21.238  10.319
89480W        W61740   6.183  19.252  13.879
89481W        W61741  15.584  27.241  10.564
89482W        W61742  20.758   9.397   1.253
89483W        W61743  22.940  42.096  10.914
89484W        W61744  39.467  24.970   1.109
89485W        W61745  22.267   1.434   1.819
89486W        W61746  31.732  13.934   3.439
89487W        W61747  25.520   1.949   1.750
89488W        W61748   6.776  21.237   3.103
89489W        W61749  39.073  35.599  12.853
89490W        W61750  33.949  14.984   4.508
89491W        W61751   2.025   0.935   2.305
89492W        W61752  19.788   1.972   4.931
89493W        W61753  17.082  34.400   1.938
89494W        W61754  30.003  20.785   3.751
89495W        W61755  16.602   3.506  13.486
89496W        W61756  43.616   2.538   2.220
89497W        W61757  44.278  34.888  12.908
89498W        W61758  37.410  31.230   2.272
89499W        W61759  24.623  37.256  12.524
89500W        W61760   0.231  15.790  10.520
89501W        W61761  24.457  31.923   1.894
89502W        W61762   1.935  41.997  13.579
89503W        W61763  21.305  32.673   0.766
89504W        W61764   7.733  27.130   9.931
89505W        W61765  10.447  39.514   1.872
89506W        W61766  30.456  38.815   3.630
89507W        W61767   8.309  18.083   3.819
89508W        W61768  23.541  24.741   2.625
89509W        W61769   7.401  42.747   4.900
89510W        W61770  21.001  31.632  12.860
89511W        W61771  11.833  28.092  14.239
89512W        W61772  10.928  31.880  10.761
89513W        W61773  38.019   3.765  13.490
89514W        W61774   0.577  11.538   2.819
89515W        W61775  40.549  40.347   4.011
89516W        W61776  18.235  11.069   3.110
89517W        W61777   4.025  37.391  13.809
89518W        W61778   9.853  29.680  10.655
89519W        W61779  42.324  22.877  10.674
89520W        W61780  42.221   7.429   2.971
89521W        W61781  23.499  26.922  11.521
89522W        W61782  27.479   5.777   1.384
89523W        W61783   4.221   5.804   1.675
89524W        W61784  28.624  35.942   0.506
89525W        W61785  35.437   7.314   2.437
89526W        W61786  37.273  13.687  12.488
89527W        W61787  39.439  31.279  12.329
89528W        W61788  39.626  14.798   0.909
89529W        W61789   7.322  12.609  12.900
89530W        W61790  24.041  11.156   2.231
89531W        W61791  27.530   0.811   0.806
89532W        W61792  37.638  42.847   4.130
89533W        W61793  18.772  14.270  13.083
89534W        W61794  20.574  29.618   4.316
89535W        W61795  34.813  42.981   2.533
89536W        W61796  11.117   7.795   2.231
89537W        W61797  12.077   8.438   3.694
89538W        W61798   9.337   3.942   1.398
89539W        W61799  42.728  10.316  11.671
89540W        W61800  34.018   0.879   2.205
89541W        W61801  27.755  24.349  13.480
89542W        W61802  13.915   2.366   1.922
89543W        W61803  21.462  17.741   3.161
89544W        W61804  40.412   4.689   5.065
89545W        W61805  39.826  10.692  12.472
89546W        W61806  22.686  12.315  12.097
89547W        W61807  22.812  16.663   1.423
89548W        W61808  43.716  29.312   1.598
89549W        W61809  32.353  30.683  12.582
89550W        W61810  35.000  31.399   0.566
89551W        W61811  23.765  21.715  11.522
89552W        W61812  11.762  38.751  11.158
89553W        W61813  12.877  39.777   0.104
89554W        W61814   6.115  21.535  11.572
89555W        W61815  19.766  11.660   4.589
89556W        W61816  11.116  20.656  12.926
89557W        W61817   1.452  27.039   2.279
89558W        W61818  20.602  37.773   4.137
89559W        W61819  31.995  32.581  11.350
89560W        W61820   9.826   4.750  13.409
89561W        W61821  27.144   4.178  14.090
89562W        W61822   9.775  40.460   4.579
89563W        W61823   7.171  20.305   1.843
89564W        W61824  11.266   3.654   1.342
89565W        W61825  14.353  17.722   0.930
89566W        W61826   9.909   9.323   4.127
89567W        W61827  12.084  27.878  10.652
89568W        W61828  20.774  36.464   0.240
89569W        W61829  12.651  29.884  10.150
89570W        W61830   8.364  14.402   2.338
89571W        W61831  14.181  30.569   3.569
89572W        W61832  36.877   6.864   1.324
89573W        W61833  40.543  39.882   1.162
89574W        W61834   1.049  15.841  12.691
89575W        W61835  18.387  36.923  12.725
89576W        W61836  34.122   0.777   0.439
89577W        W61837  28.716  38.521   0.418
89578W        W61838  29.823  14.810  11.779
89579W        W61839  22.099  34.848   2.268
89580W        W61840  31.599  17.327  11.256
89581W        W61841  22.321  39.372  14.256
89582W        W61842  10.990  11.595   2.795
89583W        W61843   6.533  21.724   1.515
89584W        W61844  29.525  11.818   0.953
89585W        W61845  20.192  10.499  12.275
89586W        W61846  43.305  24.358  13.911
89587W        W61847  14.984  38.504   0.316
89588W        W61848  16.265  44.477   4.418
89589W        W61849  27.973  32.978  14.896
89590W        W61850  36.835   7.237  11.699
89591W        W61851  26.088  22.878  13.414
89592W        W61852  17.180  26.188   4.515
89593W        W61853   6.465  26.071  14.219
89594W        W61854  43.431  16.619   4.599
89595W        W61855  14.126   0.794  13.823
89596W        W61856  30.646  33.636  14.504
89597W        W61857  15.094  33.273  13.537
89598W        W61858   4.803   9.680   4.410
89599W        W61859  39.774  38.853   1.282
89600W        W61860  15.250   8.352  12.551
89601W        W61861   9.596  31.995  14.505
89602W        W61862  40.589   4.373   2.414
89603W        W61863  31.912  37.559   2.632
89604W        W61864   0.229  39.273   0.917
89605W        W61865  33.603  41.013   1.317
89606W        W61866  22.208  19.004   3.745
89607W        W61867   9.371   0.685   1.774
89608W        W61868  38.259   7.842  13.858
89609W        W61869   0.829  43.919  14.550
89610W        W61870  14.791  21.802   4.080
89611W        W61871  16.151  29.476   3.681
89612W        W61872  19.522   1.134   0.868
89613W        W61873  14.765  25.239   3.788
89614W        W61874  28.238   8.170   1.756
89615W        W61875  33.959  29.727   4.499
89616W        W61876  18.680  12.312   0.651
89617W        W61877  10.605  10.595  10.772
89618W        W61878  22.673   7.235   2.080
89619W        W61879   8.176   4.712  10.650
89620W        W61880  15.726  35.015   2.227
89621W        W61881  17.399  37.134   4.082
89622W        W61882  36.690  39.333  12.500
89623W        W61883   3.725  21.664   2.871
89624W        W61884  27.555  40.369   2.756
89625W        W61885  20.113   5.499  14.863
89626W        W61886  18.459  41.123  13.506
89627W        W61887   0.738  29.629  13.942
89628W        W61888  39.084  41.586   2.248
89629W        W61889  17.237  28.982  11.111
89630W        W61890  26.197  22.321   3.798
89631W        W61891   0.817  42.402  14.222
89632W        W61892  32.492  20.078  11.514
89633W        W61893   6.715   8.999  12.514
89634W        W61894  17.600   3.668   1.099
89635W        W61895  25.704  43.915   2.172
89636W        W61896  35.575   7.505   4.136
89637W        W61897   0.838  25.896  10.666
89638W        W61898  41.979  15.293   1.026
89639W        W61899  19.216   9.556  12.884
89640W        W61900   7.222  12.648  14.311
89641W        W61901  18.587  42.058   0.280
89642W        W61902  28.159  39.142  11.594
89643W        W61903   6.366   1.855  14.119
89644W        W61904  19.099  15.522  13.915
89645W        W61905   5.680  34.870   1.499
89646W        W61906  41.124  11.765  11.432
89647W        W61907  37.770  21.269   4.531
89648W        W61908  41.819   6.856   4.062
89649W        W61909  18.072   3.652   0.875
89650W        W61910  14.156  31.327  14.651
89651W        W61911  21.982  42.915  13.412
89652W        W61912  19.206  18.758  11.276
89653W        W61913   9.291  33.950   4.400
89654W        W61914   9.872   7.474   0.744
89655W        W61915  11.891   7.827  11.571
89656W        W61916  10.939  26.267  14.859
89657W        W61917  24.934   4.994  11.111
89658W        W61918  28.345  27.310   3.669
89659W        W61919  24.444  41.333  12.004
89660W        W61920  15.353  13.630  11.562
89661W        W61921  32.947  13.769  10.627
89662W        W61922  35.524  44.011   2.864
89663W        W61923   3.484  40.994  11.166
89664W        W61924   6.166  12.559  12.529
89665W        W61925  17.277  23.311   1.905
89666W        W61926  26.718  33.586  12.882
89667W        W61927  26.021  42.680   3.368
89668W        W61928  31.001   2.043  11.141
89669W        W61929  40.726  22.738   0.479
89670W        W61930   7.615  15.237   4.064
89671W        W61931   9.348   8.607  11.542
89672W        W61932  24.046   7.420  14.106
89673W        W61933   2.670  11.784   4.309
89674W        W61934   3.457  41.429   1.784
89675W        W61935  17.898   7.144   4.824
89676W        W61936   0.027  27.956   4.048
89677W        W61937  33.098  37.508   3.379
89678W        W61938   0.503  24.147   2.276
89679W        W61939  24.430  26.144   0.223
89680W        W61940  25.115  27.710   4.136
89681W        W61941  35.489  27.700   4.087
89682W        W61942  28.561  12.290   4.660
89683W        W61943  22.494  20.034  12.821
89684W        W61944  21.529   8.387   3.659
89685W        W61945  13.415   3.773  14.731
89686W        W61946  25.502  28.160  12.489
89687W        W61947  19.736  34.171   2.773
89688W        W61948  23.864   4.879   3.663
89689W        W61949  13.871  32.540   1.296
89690W        W61950   3.924   4.441   0.100
89691W        W61951   2.698  26.403  14.473
89692W        W61952  16.779  33.077   1.787
89693W        W61953  27.667   1.899   0.826
89694W        W61954  43.949   2.939   0.764
89695W        W61955  32.344   3.155  12.088
89696W        W61956   7.720   5.333   0.972
89697W        W61957  42.401  33.183   0.929
89698W        W61958  39.745  21.164   4.912
89699W        W61959  13.586  11.560   2.282
89700W        W61960  42.377  12.605  14.417
89701W        W61961  17.829   0.328  14.474
89702W        W61962   8.706  10.785   2.604
89703W        W61963   1.945  34.110   3.231
89704W        W61964   9.865  22.748   2.784
89705W        W61965  41.797  15.568   2.342
89706W        W61966  28.094  43.310   3.230
89707W        W61967  10.112  37.168   2.284
89708W        W61968   0.844  12.771   3.532
89709W        W61969   4.025  20.561  11.143
89710W        W61970  44.553  17.208   3.718
89711W        W61971   2.456  21.640  11.936
89712W        W61972   5.916  31.098  12.661
89713W        W61973  40.718  21.229   3.603
89714W        W61974  30.489   7.431  13.464
89715W        W61975  15.593  12.117   2.667
89716W        W61976  20.959  10.738   0.124
89717W        W61977  21.805  18.648  13.811
89718W        W61978  38.869  30.481   3.316
89719W        W61979  42.915  15.816   4.647
89720W        W61980   1.759  19.168   1.207
89721W        W61981  30.740  30.141  11.951
89722W        W61982   0.774   7.424   3.701
89723W        W61983  18.459  44.563   0.644
89724W        W61984   8.252  15.756   2.709
89725W        W61985  38.520   2.483   3.112
89726W        W61986  14.341  34.627   4.544
89727W        W61987  41.955   7.776   3.940
89728W        W61988  23.679  21.030  11.069
89729W        W61989   4.193  39.066  11.627
89730W        W61990  38.320  35.168  10.609
89731W        W61991  19.018   5.613  12.595
89732W        W61992  35.753  27.456  12.009
89733W        W61993   7.687  40.340   1.337
89734W        W61994  10.812  16.847  13.367
89735W        W61995   5.449  37.978  12.111
89736W        W61996  35.404  24.949   4.753
89737W        W61997  29.249  22.243   1.873
89738W        W61998  41.182  36.183  12.117
89739W        W61999  11.605  39.728  13.329
89740W        W62000  29.932   9.977   3.374
89741W        W62001  33.619   1.825   5.080
89742W        W62002  34.527  40.030   4.171
89743W        W62003  21.984  40.515   4.446
89744W        W62004  29.385  40.941  11.173
89745W        W62005  12.404  25.496   4.697
89746W        W62006  14.625   1.377  14.343
89747W        W62007  29.103  13.171   0.588
89748W        W62008  41.380  19.697   0.745
89749W        W62009  43.750  15.872   2.916
89750W        W62010   1.994   5.361   3.294
89751W        W62011  39.677   1.411   2.072
89752W        W62012  10.401  37.720   2.884
89753W        W62013   8.444   9.929   2.208
89754W        W62014  18.324   5.165   2.316
89755W        W62015  42.726  35.369   4.717
89756W        W62016  42.457  37.067  12.638
89757W        W62017   6.849  18.145  12.387
89758W        W62018  36.363  29.404  11.152
89759W        W62019   2.967  10.974  13.523
89760W        W62020  23.013  21.591  10.134
89761W        W62021  13.516  28.041   0.849
89762W        W62022  23.580  21.699   1.491
89763W        W62023   3.443   8.979   0.210
89764W        W62024  43.399   5.836   1.184
89765W        W62025  31.073   1.677  14.847
89766W        W62026  28.106  12.252   3.197
89767W        W62027  33.845   8.283  12.988
89768W        W62028   8.437  40.317  13.866
89769W        W62029  31.619   1.999   0.130
89770W        W62030  39.739  21.140  11.856
89771W        W62031  43.382   3.410   2.322
89772W        W62032  36.433  17.026   3.866
89773W        W62033  40.055  38.308   4.661
89774W        W62034   2.259  29.964  14.043
89775W        W62035  37.541  32.026  11.536
89776W        W62036  23.002  36.084   2.465
89777W        W62037  41.808   8.808  12.030
89778W        W62038  43.605  13.226   0.208
89779W        W62039  44.375  26.622   2.654
89780W        W62040  43.147   1.533   2.429
89781W        W62041  39.528   4.404   2.128
89782W        W62042  16.067  35.190  14.153
89783W        W62043   0.868  10.821   4.950
89784W        W62044  33.274  37.445   4.594
89785W        W62045   0.293  35.868  12.897
89786W        W62046   8.160  27.338   1.217
89787W        W62047  16.848   2.870   3.903
89788W        W62048  22.815  29.075   9.760
89789W        W62049  25.940  34.383   2.320
89790W        W62050  17.120  19.322   3.589
89791W        W62051  36.357  39.057   0.800
89792W        W62052  41.203  44.207   3.744
89793W        W62053  24.069  21.146  10.093
89794W        W62054  11.705  31.152  10.646
89795W        W62055  43.438  34.209   0.023
89796W        W62056  38.640  22.784  11.955
89797W        W62057  34.082  26.760   1.296
89798W        W62058  24.144  24.517   5.054
89799W        W62059  10.844  36.031   1.128
89800W        W62060  20.194  23.976   1.838
89801W        W62061  43.048  29.323  14.842
89802W        W62062  40.535  40.546   3.212
89803W        W62063   5.729  11.717   2.017
89804W        W62064  19.634   7.113  11.849
89805W        W62065  41.121  17.568  10.729
89806W        W62066  37.058  20.624   9.826
89807W        W62067   2.014  18.601   2.855
89808W        W62068  41.543  44.607   4.942
89809W        W62069  12.593  37.763  11.458
89810W        W62070  34.053  33.553   0.441
89811W        W62071   7.404  33.945   4.570
89812W        W62072  43.331  20.978   4.886
89813W        W62073  15.094  19.239   3.311
89814W        W62074  29.936  21.060  13.000
89815W        W62075  16.109   7.197  14.014
89816W        W62076   8.074  31.057   0.435
89817W        W62077   7.510  44.845  12.845
89818W        W62078  44.391  33.087   2.712
89819W        W62079  41.607  12.340  10.702
89820W        W62080  22.826  42.555   4.418
89821W        W62081  30.787  26.500   2.035
89822W        W62082  10.359  14.534  14.011
89823W        W62083  33.792  31.120   4.770
89824W        W62084  28.012  39.221  11.035
89825W        W62085  23.102  20.150   1.252
89826W        W62086   5.678  38.777  12.583
89827W        W62087  14.775   7.125  10.516
89828W        W62088   4.411  21.957  10.700
89829W        W62089  11.184  29.055  14.810
89830W        W62090  25.995  11.592  13.335
89831W        W62091  17.784  28.731   4.338
89832W        W62092  30.431  44.818   3.659
89833W        W62093  35.300  34.427  13.001
89834W        W62094  12.922   3.534  11.077
89835W        W62095  14.355  30.454  14.415
89836W        W62096  31.631  14.989  11.457
89837W        W62097  17.689  42.559   0.288
89838W        W62098  44.594   4.235   0.210
89839W        W62099  26.106  21.194   1.048
89840W        W62100  35.117   8.194   1.761
89841W        W62101  42.681  41.685   9.787
89842W        W62102  14.087  33.943   0.804
89843W        W62103  13.486  35.059  11.852
89844W        W62104  12.977   9.799  13.250
89845W        W62105  29.738  26.145  14.267
89846W        W62106   6.694  33.046   2.266
89847W        W62107  35.975  10.621   3.070
89848W        W62108  24.585  32.849  13.723
89849W        W62109  34.735   6.322  11.621
89850W        W62110  23.066   3.978  12.952
89851W        W62111   2.219  10.710  12.071
89852W        W62112   7.983  11.914  11.133
89853W        W62113  32.343   4.317  10.986
89854W        W62114   7.812  17.508  13.505
89855W        W62115   0.322  29.884  13.772
89856W        W62116  11.041  33.311   2.945
89857W        W62117  25.703   2.036   2.645
89858W        W62118   6.161  20.540  12.558
89859W        W62119  36.817  30.016   2.262
89860W        W62120  12.800  44.280   2.089
89861W        W62121  20.815  11.598  13.254
89862W        W62122  23.747  35.057   0.017
89863W        W62123  32.281  12.607  11.042
89864W        W62124  15.597  43.285   3.980
89865W        W62125  16.788  44.074  14.923
89866W        W62126   4.722   0.464   0.260
89867W        W62127  36.578  12.782  13.018
89868W        W62128  11.211  30.459  12.493
89869W        W62129   0.286   0.941   1.054
89870W        W62130  42.484  13.469  11.847
89871W        W62131  11.362  26.705   3.789
89872W        W62132   0.690  23.200  11.579
89873W        W62133  14.374  15.331  13.402
89874W        W62134  22.693  25.235   1.439
89875W        W62135  36.559   4.946  10.540
89876W        W62136  27.163  41.567   3.801
89877W        W62137  36.718  38.822   1.178
89878W        W62138  34.860  28.476   3.370
89879W        W62139  22.498  41.538  12.127
89880W        W62140  32.195  26.955  12.485
89881W        W62141  15.246  25.238  12.451
89882W        W62142  30.236  20.180  13.047
89883W        W62143  36.038  18.869   5.064
89884W        W62144   8.248   5.146   3.042
89885W        W62145   1.308  21.669   3.169
89886W        W62146  26.619  42.388   9.968
89887W        W62147   5.305   5.581   2.651
89888W        W62148  42.476  44.469  14.452
89889W        W62149  14.083  39.816  13.319
89890W        W62150  20.275  24.993  13.990
89891W        W62151  44.366  17.161  12.291
89892W        W62152  14.747  41.503   0.410
89893W        W62153   9.567  15.245   0.040
89894W        W62154   5.898  20.112  11.433
89895W        W62155  13.455  25.507   4.773
89896W        W62156  44.507  15.002   2.460
89897W        W62157  42.885  12.303   2.415
89898W        W62158   5.928  36.767   4.534
89899W        W62159  24.647  40.487  13.357
89900W        W62160  43.248  10.355  12.203
89901W        W62161   9.790  12.188   2.641
89902W        W62162  34.065   7.710   4.062
89903W        W62163  25.587  28.655  10.790
89904W        W62164  31.867  17.791  14.348
89905W        W62165  29.112   9.154  11.248
89906W        W62166  26.175   0.839  12.537
89907W        W62167   1.477   6.123  11.640
89908W        W62168  25.944  37.640   3.239
89909W        W62169  36.413  13.728   4.873
89910W        W62170   7.440   4.405  13.362
89911W        W62171   5.128   4.012   3.138
89912W        W62172  21.860   7.175   4.629
89913W        W62173  40.957  20.305  12.594
89914W        W62174   8.389  25.776   4.308
89915W        W62175   9.932  43.338  14.978
89916W        W62176   9.835  44.903  14.763
89917W        W62177  36.960  40.554   3.287
89918W        W62178  26.559   2.038   1.677
89919W        W62179  29.497  22.215  11.582
89920W        W62180  13.381  24.314   3.935
89921W        W62181  20.572  21.114   0.478
89922W        W62182  39.291  32.452   1.768
89923W        W62183  37.631  35.280  12.909
89924W        W62184  24.162  14.427   2.585
89925W        W62185  40.980  42.084   2.543
89926W        W62186   7.524   1.327   4.893
89927W        W62187  41.030  18.761  11.503
89928W        W62188   4.942  18.395  10.822
89929W        W62189  23.532  20.105  12.326
89930W        W62190  25.090   4.420  11.514
89931W        W62191  34.386  34.479   4.038
89932W        W62192   8.836  25.872  13.444
89933W        W62193  29.567  41.900   2.403
89934W        W62194  37.024  32.516  12.031
89935W        W62195  16.073  14.144   2.306
89936W        W62196   9.440   9.094   1.475
89937W        W62197  30.109  22.540   0.436
89938W        W62198  31.264  29.600  10.986
89939W        W62199  26.538  33.609  13.795
89940W        W62200  14.155  11.285   0.980
89941W        W62201  19.410   9.528  11.200
89942W        W62202  25.986  44.748   4.259
89943W        W62203  39.994  22.652   2.173
89944W        W62204  10.665  41.007   1.899
89945W        W62205  10.873  43.277   3.624
89946W        W62206  17.229  37.695  13.910
89947W        W62207   8.410  20.663   1.477
89948W        W62208  41.767  20.560   0.727
89949W        W62209   9.904   4.257   1.190
89950W        W62210  31.077  15.403   3.590
89951W        W62211  19.545   3.820  11.727
89952W        W62212  26.618  20.958  11.487
89953W        W62213  21.247  38.710  12.741
89954W        W62214  38.488  17.092  14.582
89955W        W62215  12.634  20.834   1.071
89956W        W62216   0.405  34.963   4.353
89957W        W62217   6.687  35.893  11.411
89958W        W62218  13.104  33.653   2.343
89959W        W62219   5.550  24.100   3.174
89960W        W62220  13.147  26.085   0.991
89961W        W62221   5.277   5.754  12.935
89962W        W62222  29.044   7.390  14.012
89963W        W62223   0.224  25.453   2.231
89964W        W62224   8.788  32.495   5.173
89965W        W62225  38.757  27.581  13.015
89966W        W62226  21.325   4.713   4.116
89967W        W62227  17.330  33.258  11.674
89968W        W62228  43.923  12.760  12.984
89969W        W62229  39.792  28.496   1.622
89970W        W62230  38.546   5.236  10.688
89971W        W62231  41.775  13.561  14.833
89972W        W62232  10.708  23.704  10.674
89973W        W62233  43.983  32.903   4.879
89974W        W62234  17.116   9.364  11.698
89975W        W62235  14.131  26.594   3.586
89976W        W62236   4.320  13.120  11.571
89977W        W62237  40.259   2.949  14.726
89978W        W62238  18.527  21.523  13.008
89979W        W62239  21.219  29.735  12.125
89980W        W62240  11.673   9.024  10.709
89981W        W62241  17.243  21.596  14.904
89982W        W62242  21.466  13.518  11.921
89983W        W62243  34.939   5.573  12.048
89984W        W62244  33.465  34.636  12.860
89985W        W62245  14.930  28.899  14.022
89986W        W62246   2.869  28.331  11.601
89987W        W62247  27.207  20.144   4.073
89988W        W62248  26.374  41.328  12.942
89989W        W62249  19.628  42.268   1.425
89990W        W62250   0.156   1.369   3.098
89991W        W62251   0.869  35.187   3.118
89992W        W62252  24.178  36.061  14.217
89993W        W62253  21.222  18.589   2.313
89994W        W62254  26.941  27.500  14.968
89995W        W62255  32.261  29.771  11.152
89996W        W62256   6.467  43.867  11.555
89997W        W62257   2.047   7.255  11.276
89998W        W62258   2.291  23.463   0.423
89999W        W62259  28.891  34.084   2.934
90000W        W62260  43.315   4.928  13.559
90001W        W62261  39.201   1.703  12.986
90002W        W62262   8.784  26.003  12.471
90003W        W62263  27.498   8.525  12.459
90004W        W62264  35.530  38.807  11.014
90005W        W62265  22.197  20.122  10.696
90006W        W62266  36.506  32.320   3.761
90007W        W62267  16.756   3.184   2.421
90008W        W62268  27.053   0.950  13.105
90009W        W62269  34.725  44.974  12.312
90010W        W62270   1.424  11.460   1.678
90011W        W62271  29.857  15.534   3.264
90012W        W62272  35.299  36.584   3.560
90013W        W62273  36.985  26.957  14.449
90014W        W62274  14.364   7.655  11.056
90015W        W62275  30.159  34.010  11.192
90016W        W62276   7.821  35.478  13.521
90017W        W62277  11.578  21.974  11.544
90018W        W62278  20.308  30.776   1.196
90019W        W62279  20.743   3.124   1.651
90020W        W62280   1.307   6.118   4.796
90021W        W62281  30.168  26.692  14.064
90022W        W62282   9.736  32.827   2.680
90023W        W62283  36.466  23.136  12.165
90024W        W62284  43.025   7.104  12.856
90025W        W62285   1.903  22.296   4.691
90026W        W62286  13.652  15.303   1.227
90027W        W62287  27.593  15.909  11.022
90028W        W62288   0.929  13.262  12.347
90029W        W62289  27.621  38.302   1.790
90030W        W62290   2.244  16.364   0.945
90031W        W62291  16.005  13.769   0.391
90032W        W62292  23.112   1.219  11.851
90033W        W62293  27.877  19.569   0.405
90034W        W62294  13.753   3.895  14.109
90035W        W62295   6.185  44.721   0.050
90036W        W62296  22.924  10.757  12.618
90037W        W62297  33.718   7.688  14.092
90038W        W62298  38.670  36.026   1.988
90039W        W62299  34.607  25.905   3.832
90040W        W62300  29.660  39.629  12.407
90041W        W62301  41.424   1.233  13.442
90042W        W62302   5.758  18.383   3.650
90043W        W62303   5.111  11.085   2.654
90044W        W62304  21.785  20.127  14.676
90045W        W62305  23.212  28.244   1.896
90046W        W62306  39.777  11.617  14.717
90047W        W62307  41.048  28.542  14.699
90048W        W62308   7.770  10.552  12.810
90049W        W62309   4.433  43.046  11.941
90050W        W62310   1.385  14.601  11.212
90051W        W62311  42.475  27.500  12.502
90052W        W62312  28.030  26.930  12.261
90053W        W62313  42.901   3.601   3.583
90054W        W62314  42.257  28.066   3.830
90055W        W62315  20.797  32.018   2.661
90056W        W62316  22.012  40.477   3.902
90057W        W62317  24.248  39.832  13.101
90058W        W62318  35.800  19.795  12.713
90059W        W62319  12.269  42.407   4.530
90060W        W62320   4.244   0.362  10.929
90061W        W62321  31.738  39.090  13.659
90062W        W62322  24.234   1.770  13.173
90063W        W62323  30.054  16.832  13.332
90064W        W62324  28.468  22.080  14.446
90065W        W62325  14.206  32.845   2.852
90066W        W62326  43.184   4.053   4.150
90067W        W62327  38.959  33.253  10.452
90068W        W62328  31.626  22.027  13.694
90069W        W62329   5.689  18.930   4.526
90070W        W62330  12.717  42.823  13.072
90071W        W62331   9.713  14.710   2.303
90072W        W62332   5.160  16.810   4.097
90073W        W62333   5.700  13.705  12.090
90074W        W62334  10.272   1.028   2.483
90075W        W62335  15.342  28.047  10.668
90076W        W62336  39.953  23.754   4.603
90077W        W62337  41.314   3.355   0.422
90078W        W62338   1.595   7.968   3.594
90079W        W62339   2.807   2.664  13.401
90080W        W62340  31.094  39.250  11.506
90081W        W62341  20.068  19.381   9.938
90082W        W62342  35.271   7.386  14.409
90083W        W62343  10.822  14.131   4.246
90084W        W62344   9.570  42.365   2.780
90085W        W62345  36.338   7.337   4.817
90086W        W62346  21.469  43.284   3.613
90087W        W62347  37.448  41.497  10.959
90088W        W62348   4.671  39.999  11.163
90089W        W62349  38.449  24.809  13.771
90090W        W62350  29.563   8.276  11.577
90091W        W62351   8.090  25.776  14.472
90092W        W62352   8.181  18.497   2.238
90093W        W62353  12.573  43.527   2.743
90094W        W62354   4.986  31.877  13.513
90095W        W62355  42.370  38.559   3.000
90096W        W62356  14.878  39.578  14.316
90097W        W62357   5.984  16.193   1.383
90098W        W62358  37.348  13.258  13.435
90099W        W62359  13.088  40.005  14.707
90100W        W62360  22.218  31.054  11.434
90101W        W62361   6.742  37.516   4.886
90102W        W62362  34.355  17.170   2.789
90103W        W62363  27.443  24.717  11.938
90104W        W62364   4.263  19.334  11.537
90105W        W62365  28.026  13.050  11.505
90106W        W62366   3.256   7.247   2.743
90107W        W62367  44.759  20.829  12.015
90108W        W62368  33.828  12.063   0.178
90109W        W62369   8.108  41.753   1.155
90110W        W62370  42.016  26.184  11.433
90111W        W62371  37.377  32.982  11.585
90112W        W62372  31.354  19.656   4.699
90113W        W62373  30.109  21.128   0.544
90114W        W62374  38.076   4.399   1.467
90115W        W62375  14.868  13.295  13.918
90116W        W62376  34.822  26.632  12.007
90117W        W62377  43.791  40.426  12.455
90118W        W62378  12.694  21.257   1.369
90119W        W62379  27.663  22.490  11.047
90120W        W62380   8.397  15.723   4.585
90121W        W62381   3.581  12.154  11.982
90122W        W62382  32.991  22.372   3.732
90123W        W62383  40.570   5.747   4.557
90124W        W62384  29.501  34.619  13.554
90125W        W62385   2.223  24.773  14.866
90126W        W62386  31.171  34.061   1.810
90127W        W62387  33.641  22.490   0.422
90128W        W62388  26.924  16.761  12.775
90129W        W62389  28.160  20.469   1.204
90130W        W62390  42.849  22.952  12.902
90131W        W62391  29.932  30.641   1.695
90132W        W62392  13.735  17.727  14.729
90133W        W62393  14.650  26.654  14.873
90134W        W62394  19.628  34.507   3.196
90135W        W62395  28.789  15.840   4.702
90136W        W62396  33.811   3.121  10.234
90137W        W62397   4.264   3.666  14.848
90138W        W62398   9.539  33.912   1.354
90139W        W62399  39.926  32.704  14.609
90140W        W62400  25.996  15.870   2.224
90141W        W62401  13.324  35.781  11.466
90142W        W62402  24.206  31.863   4.153
90143W        W62403  18.637  32.640   0.416
90144W        W62404  38.924  33.475  14.665
90145W        W62405  25.943  31.704  13.054
90146W        W62406  41.668  41.948  13.428
90147W        W62407  29.062  32.428  13.324
90148W        W62408   5.423  39.997   3.207
90149W        W62409  37.562  15.425  10.580
90150W        W62410  43.131  38.443   4.632
90151W        W62411  41.450  41.869  12.936
90152W        W62412  15.068  12.095   3.346
90153W        W62413  15.648  36.032   0.231
90154W        W62414  39.075  36.457  14.444
90155W        W62415  34.327  17.091  12.739
90156W        W62416  24.123  39.848   4.729
90157W        W62417  43.756  36.114  10.429
90158W        W62418  28.590  32.490   4.593
90159W        W62419   0.252   3.834  11.644
90160W        W62420  10.294   6.293  12.874
90161W        W62421   9.709   6.411  11.617
90162W        W62422  33.407  12.377   0.390
90163W        W62423  27.851  27.897  10.780
90164W        W62424  25.539  43.492  13.373
90165W        W62425  28.559  38.489   1.873
90166W        W62426  44.287  25.628  10.685
90167W        W62427   7.340  39.583  13.391
90168W        W62428  11.676  19.563   2.784
90169W        W62429  44.651  24.183   0.713
90170W        W62430   4.801  37.660   3.337
90171W        W62431  26.209   7.796   4.434
90172W        W62432  24.455  32.439  11.965
90173W        W62433  32.958  37.821  13.849
90174W        W62434  33.711  21.097  10.539
90175W        W62435  38.397  39.139  10.392
90176W        W62436  43.095   5.942  10.382
90177W        W62437  12.095  35.952   2.124
90178W        W62438  27.377   4.629  13.403
90179W        W62439  35.535  22.295  12.947
90180W        W62440   7.456  37.685  13.259
90181W        W62441  29.009  18.645   2.716
90182W        W62442   3.914  29.902  13.766
90183W        W62443  22.935   6.384  11.125
90184W        W62444  25.545   8.226  11.545
90185W        W62445   6.797  21.607  13.191
90186W        W62446  35.032  40.941   1.863
90187W        W62447  11.708   3.721   0.033
90188W        W62448   4.086  28.173  13.540
90189W        W62449  14.373  20.937  13.424
90190W        W62450  42.713  33.366   3.665
90191W        W62451  36.511  39.023   2.331
90192W        W62452  32.279  39.471  12.933
90193W        W62453  12.639  37.082  13.429
90194W        W62454   4.024  17.832  11.566
90195W        W62455   9.835  10.053  11.984
90196W        W62456  42.936  24.171   3.298
90197W        W62457  41.286  31.617   0.767
90198W        W62458  10.156  30.181   0.351
90199W        W62459   9.481  26.555  11.733
90200W        W62460   4.878   1.317   4.680
90201W        W62461   4.248  19.673   4.563
90202W        W62462  36.598  35.125   0.060
90203W        W62463  11.857  43.526  12.489
90204W        W62464  13.360  23.131  14.790
90205W        W62465  31.904  29.488   0.193
90206W        W62466  11.287  39.096   0.601
90207W        W62467  25.159  14.334   2.210
90208W        W62468   6.978   4.946   2.286
90209W        W62469  16.736  41.086  13.066
90210W        W62470  15.879   0.209  12.247
90211W        W62471  29.916  24.412  11.656
90212W        W62472  40.519  37.295   1.483
90213W        W62473   4.409  18.745  12.543
90214W        W62474   8.213  40.529   3.308
90215W        W62475  38.938  35.737  10.315
90216W        W62476  38.354  17.883  13.780
90217W        W62477  36.665   9.534   3.575
90218W        W62478  11.425  38.466  13.954
90219W        W62479  30.220  12.375  13.015
90220W        W62480  41.899  42.617   1.297
90221W        W62481   7.919  13.173  10.676
90222W        W62482  17.067  22.626  14.263
90223W        W62483  20.064  29.962   3.852
90224W        W62484  17.360  41.457   0.238
90225W        W62485  37.049   5.100  10.706
90226W        W62486  25.133  25.118  13.528
90227W        W62487  36.375  33.314   0.663
90228W        W62488  21.505  43.416  12.629
90229W        W62489   5.384  12.919   1.916
90230W        W62490  28.243  10.704  10.617
90231W        W62491  43.332   2.138   4.051
90232W        W62492   8.048  44.632   1.747
90233W        W62493  28.605  15.145  14.371
90234W        W62494   2.557   6.836  11.453
90235W        W62495  24.959  29.115  13.461
90236W        W62496  23.645  41.415   4.945
90237W        W62497   4.147  26.604   1.767
90238W        W62498  30.133  37.026   2.770
90239W        W62499  35.817  28.169   4.153
90240W        W62500  22.135  11.072   3.128
90241W        W62501  29.989  42.820  10.312
90242W        W62502  33.106  31.378   0.760
90243W        W62503  17.763   6.875  14.904
90244W        W62504  20.453  29.767   0.454
90245W        W62505  22.534  18.309   2.174
90246W        W62506  33.569  17.103  14.976
90247W        W62507  42.393  21.140  10.635
90248W        W62508  17.240  35.297   4.361
90249W        W62509   7.852  41.029   4.496
90250W        W62510   8.396   3.422  14.418
90251W        W62511  30.664  41.619   2.422
90252W        W62512  35.895  21.438   4.006
90253W        W62513   1.730  43.007   0.370
90254W        W62514  40.575  30.537   0.836
90255W        W62515  34.489   7.248  11.209
90256W        W62516  27.038   8.974  10.839
90257W        W62517  33.904  30.880  11.061
90258W        W62518  12.788  43.312   5.027
90259W        W62519  21.252   6.488  10.341
90260W        W62520  43.985   6.758   0.856
90261W        W62521  40.168  18.049  13.632
90262W        W62522   2.837   4.423  13.208
90263W        W62523  12.110  11.263   0.506
90264W        W62524  32.966  34.038  11.246
90265W        W62525  24.148   9.394  14.572
90266W        W62526  44.423  43.993  12.898
90267W        W62527   5.819  40.746  12.140
90268W        W62528  22.615  17.397  13.643
90269W        W62529  44.534  44.066  10.062
90270W        W62530  42.394  44.843  11.239
90271W        W62531  19.985   3.574  10.911
90272W        W62532  10.902  16.690   0.190
90273W        W62533  43.723  31.488  11.968
90274W        W62534  21.005  35.153  14.607
90275W        W62535   0.934  36.586   3.411
90276W        W62536  30.352  34.582  14.050
90277W        W62537  38.945  27.757  11.553
90278W        W62538  35.561  25.033   0.033
90279W        W62539  17.800  19.657  14.892
90280W        W62540  26.165  32.431   3.188
90281W        W62541  16.756   6.911  11.099
90282W        W62542  19.595  44.659  11.827
90283W        W62543  29.461   6.103   1.845
90284W        W62544  26.537  35.929   1.284
90285W        W62545  20.326  35.373   3.880
90286W        W62546  13.306  39.001  10.692
90287W        W62547   6.487   9.853  13.935
90288W        W62548  10.709  42.216   2.392
90289W        W62549  44.962  38.994  11.644
90290W        W62550   8.917  41.409   4.252
90291W        W62551  14.754  13.575   2.159
90292W        W62552  26.995   6.145  10.478
90293W        W62553  33.873  30.261   4.548
90294W        W62554  43.956   9.417   2.976
90295W        W62555  26.113   6.341   1.411
90296W        W62556  37.494  29.380   2.812
90297W        W62557  39.906  36.984   3.044
90298W        W62558  19.129  43.261  13.438
90299W        W62559   3.652   1.260   1.175
90300W        W62560  19.024  13.577   3.723
90301W        W62561   1.377  19.457   3.704
90302W        W62562  32.492  23.634  10.190
90303W        W62563  28.564  30.377  11.579
90304W        W62564   9.129   0.791   4.135
90305W        W62565   7.308  39.643   4.779
90306W        W62566  20.126  36.966   0.560
90307W        W62567  10.869  27.221  12.216
90308W        W62568  14.081   7.359   0.325
90309W        W62569  42.561  15.699   4.244
90310W        W62570  43.308  36.077   2.714
90311W        W62571  30.127  24.273  13.561
90312W        W62572  22.880  43.095  11.557
90313W        W62573  27.637   1.451  14.463
90314W        W62574  15.026  17.092  14.543
90315W        W62575   4.603  22.430  14.836
90316W        W62576  34.582  11.877   3.374
90317W        W62577  34.537  41.353   0.425
90318W        W62578   8.319  12.765  12.024
90319W        W62579  40.898  15.119   4.339
90320W        W62580  10.352  41.193   1.181
90321W        W62581  18.686  33.050   1.372
90322W        W62582  31.411   2.100  14.657
90323W        W62583  26.037  25.507   4.812
90324W        W62584  30.534  27.071   4.225
90325W        W62585   6.751  35.891   2.199
90326W        W62586  26.105  26.775   1.258
90327W        W62587  40.739  37.934   1.683
90328W        W62588   8.638  41.869   4.203
90329W        W62589  22.326  25.269   1.862
90330W        W62590   2.841   6.387  12.161
90331W        W62591  20.716  25.285   3.211
90332W        W62592  40.563  17.813  13.375
90333W        W62593   8.294  41.705  11.720
90334W        W62594  44.442  30.147   1.897
90335W        W62595  31.675  25.743   2.662
90336W        W62596  16.785  30.126   2.249
90337W        W62597  44.455  42.236   3.427
90338W        W62598  41.581  10.693  11.324
90339W        W62599  20.822  17.633  12.073
90340W        W62600  39.410  25.972   3.660
90341W        W62601   4.154   7.557   4.846
90342W        W62602  17.231   6.758  14.283
90343W        W62603  38.001   6.023   4.704
90344W        W62604  28.040  29.590   4.601
90345W        W62605   0.348  23.042   1.896
90346W        W62606   5.586  43.725   0.306
90347W        W62607  26.222  40.628  13.245
90348W        W62608  41.284  11.642  13.277
90349W        W62609  39.515  10.367  11.488
90350W        W62610  36.799  34.357   3.661
90351W        W62611  20.119  18.121   2.916
90352W        W62612  23.985  42.462   1.800
90353W        W62613  12.380   7.863  13.803
90354W        W62614  25.716  14.047  10.097
90355W        W62615  23.858  40.427   5.264
90356W        W62616   5.429  35.188   0.661
90357W        W62617  27.689   0.505  10.502
90358W        W62618  20.563  19.923  13.978
90359W        W62619  27.013  17.922  11.081
90360W        W62620   0.838  26.394   1.294
90361W        W62621  15.260   0.457  14.733
90362W        W62622  29.000  34.068  11.894
90363W        W62623  44.417  15.268   4.632
90364W        W62624   6.214  29.892  10.351
90365W        W62625  16.366  35.558  13.938
90366W        W62626  14.157  38.422  12.640
90367W        W62627  44.798  10.045  13.860
90368W        W62628  17.190  31.244   3.827
90369W        W62629  30.291  34.039   1.954
90370W        W62630  31.925  36.124   0.434
90371W        W62631  43.519  28.792  11.526
90372W        W62632  23.538  41.842  13.075
90373W        W62633  30.682  43.669   2.752
90374W        W62634   9.247   5.447   2.250
90375W        W62635  42.784  28.194   4.604
90376W        W62636  22.251   1.843   0.422
90377W        W62637  44.964  10.147  13.379
90378W        W62638  44.376  23.658   0.503
90379W        W62639  42.108  22.774  11.164
90380W        W62640  20.803  32.114   1.236
90381W        W62641   8.310  12.596  14.886
90382W        W62642  38.296  25.368  10.788
90383W        W62643  34.215  29.580   2.075
90384W        W62644  36.421  14.553  14.081
90385W        W62645  17.745  33.626  13.538
90386W        W62646  15.153  25.028  14.447
90387W        W62647  17.636   7.092  14.449
90388W        W62648   2.479  33.758  13.421
90389W        W62649  37.965  35.549  10.619
90390W        W62650  15.810  28.514   3.085
90391W        W62651  20.973   3.808   0.934
90392W        W62652  41.308  42.939   1.643
90393W        W62653   9.206  34.588   2.040
90394W        W62654  38.792  20.192   0.717
90395W        W62655  29.703  10.289  14.342
90396W        W62656  30.531   5.671  10.710
90397W        W62657  38.230  11.960  12.002
90398W        W62658   5.541  32.987  11.876
90399W        W62659  14.534   1.706  13.961
90400W        W62660  37.240  41.321   3.109
90401W        W62661   2.399  30.852   1.862
90402W        W62662   2.227   1.172   1.467
90403W        W62663  36.828  38.352   2.780
90404W        W62664  16.006  38.322  12.404
90405W        W62665   0.731  32.040  12.685
90406W        W62666  13.285   5.732   2.781
90407W        W62667  20.050  19.510   2.194
90408W        W62668  36.187  38.560   0.884
90409W        W62669  27.139  10.112  14.455
90410W        W62670   6.191  36.788  13.864
90411W        W62671  42.958  27.913   2.020
90412W        W62672  39.575  10.905   4.685
90413W        W62673   8.715  36.420  12.080
90414W        W62674   8.475   7.986   4.912
90415W        W62675  11.300  38.767  10.867
90416W        W62676  22.461  20.262   2.605
90417W        W62677  41.435  16.648   4.927
90418W        W62678   1.318  23.889   1.437
90419W        W62679  23.688  30.328   2.181
90420W        W62680  27.048  28.053   3.738
90421W        W62681  29.977  18.201  14.567
90422W        W62682  41.475   3.939  11.651
90423W        W62683  30.066  31.983   4.222
90424W        W62684  34.435  27.620   1.294
90425W        W62685   8.869  23.435   4.693
90426W        W62686  12.824  26.118  11.558
90427W        W62687  35.558  12.880  14.743
90428W        W62688  35.152  29.099  14.435
90429W        W62689  23.959  22.228  12.022
90430W        W62690  20.220  22.703   3.617
90431W        W62691   9.703  15.896  12.578
90432W        W62692  26.953  16.543  10.943
90433W        W62693  30.084  32.889   4.732
90434W        W62694   7.774  14.169  10.687
90435W        W62695  24.688  15.237   2.326
90436W        W62696  25.721  39.078   3.768
90437W        W62697   2.531  25.701   0.283
90438W        W62698  31.357  12.837   3.142
90439W        W62699   8.810  20.573   4.278
90440W        W62700  24.655  14.934   4.495
90441W        W62701  12.562  27.564   4.469
90442W        W62702  24.135  35.987   1.480
90443W        W62703  35.677  16.013   3.206
90444W        W62704  32.545  33.592   2.674
90445W        W62705  16.750   4.492   4.560
90446W        W62706  14.032  16.387  11.678
90447W        W62707   9.410  17.215  12.627
90448W        W62708  26.427  15.485   3.121
90449W        W62709  34.603  18.067  14.328
90450W        W62710   9.368  36.393  12.919
90451W        W62711  38.405  20.003   4.488
90452W        W62712  27.582  20.278   4.383
90453W        W62713  38.330  38.926   0.496
90454W        W62714   2.220  17.948  10.115
90455W        W62715  44.950  44.431   0.162
90456W        W62716   4.985   6.731  14.403
90457W        W62717  10.665  29.605   2.675
90458W        W62718  44.252  38.619   1.738
90459W        W62719  16.530  12.649  14.011
90460W        W62720   4.937  25.985   4.749
90461W        W62721  30.989  10.379   1.694
90462W        W62722  33.036   3.445   1.949
90463W        W62723  41.993  13.288  13.024
90464W        W62724   0.247  38.115   4.062
90465W        W62725  15.588  37.348   1.025
90466W        W62726  28.930  20.852   2.168
90467W        W62727   9.326  10.715  10.581
90468W        W62728  27.027  36.367   2.718
90469W        W62729  44.516  16.620  11.646
90470W        W62730   4.463   5.717   3.677
90471W        W62731  21.484  29.454   0.379
90472W        W62732  19.263  35.967   2.460
90473W        W62733   4.206   5.217  14.780
90474W        W62734  43.701  42.955   3.710
90475W        W62735  26.647  26.940   4.156
90476W        W62736  43.449  40.602  14.682
90477W        W62737   6.676  29.827   5.063
90478W        W62738  24.551  22.762   3.285
90479W        W62739  31.692   9.414  13.415
90480W        W62740  21.444  12.603  12.204
90481W        W62741  42.265   2.775   3.740
90482W        W62742  20.426   7.023  13.397
90483W        W62743  18.801  36.948  13.632
90484W        W62744  17.685  23.033  11.948
90485W        W62745  13.798  25.492   3.910
90486W        W62746  10.571  31.497   3.568
90487W        W62747  31.870   5.753   4.943
90488W        W62748  27.181  13.291  13.343
90489W        W62749   1.531   2.886   4.203
90490W        W62750  27.794  10.195   1.190
90491W        W62751  40.024  36.783   4.584
90492W        W62752  30.420  18.548  11.490
90493W        W62753  14.316   3.839  12.357
90494W        W62754  27.103  40.852  13.437
90495W        W62755  37.629   7.347   0.893
90496W        W62756  17.505  17.224  11.948
90497W        W62757  39.655  17.872  13.589
90498W        W62758  42.000   4.449  12.379
90499W        W62759   3.250   4.339   1.840
90500W        W62760   4.987  16.169   1.432
90501W        W62761  26.741   5.846  14.406
90502W        W62762  34.009  12.938   4.831
90503W        W62763  37.449  20.625   2.007
90504W        W62764  37.301   0.913   4.514
90505W        W62765  29.019  30.622   3.793
90506W        W62766  42.715   9.231   2.280
90507W        W62767  42.354   0.518  14.731
90508W        W62768   5.359  40.946   0.403
90509W        W62769  33.136  40.460  14.269
90510W        W62770  37.386  22.264  10.187
90511W        W62771   9.808  42.833  12.830
90512W        W62772  41.826   3.299   0.412
90513W        W62773  10.273   5.346   2.789
90514W        W62774  23.739  44.764   1.333
90515W        W62775   7.719   4.695   9.628
90516W        W62776  18.367   8.883   2.179
90517W        W62777  13.789   6.132  12.007
90518W        W62778  37.397  36.698  12.492
90519W        W62779   4.399   7.911  14.435
90520W        W62780   9.803  22.416  12.617
90521W        W62781   0.410  27.192   0.473
90522W        W62782  23.248  22.414   4.437
90523W        W62783  31.089  14.651   1.330
90524W        W62784  12.094  21.085  11.454
90525W        W62785   4.807  38.605   3.986
90526W        W62786  22.477   7.668   1.147
90527W        W62787  19.012  43.762  11.022
90528W        W62788  36.390  16.683   0.707
90529W        W62789  42.598  20.545   4.542
90530W        W62790   6.160  23.292   1.655
90531W        W62791  30.915  34.423  13.387
90532W        W62792  10.374  24.466   0.773
90533W        W62793  39.392  10.979   2.247
90534W        W62794   4.750  11.384   1.344
90535W        W62795  15.167  29.151  12.373
90536W        W62796  16.923  31.371  10.532
90537W        W62797  13.741  12.508  12.939
90538W        W62798  12.642  17.787   4.169
90539W        W62799  38.551   4.340  14.282
90540W        W62800  34.931   4.783   0.809
90541W        W62801  18.101  19.371  12.606
90542W        W62802  12.588  39.455   0.971
90543W        W62803   8.854  29.888   3.662
90544W        W62804   2.472  39.481  14.460
90545W        W62805  42.608  27.798   0.768
90546W        W62806  18.639  44.532   4.960
90547W        W62807  31.496   6.702   4.773
90548W        W62808  16.793   6.434  14.280
90549W        W62809  32.285   6.393   0.766
90550W        W62810  38.883  34.982   1.371
90551W        W62811  40.720  29.626  11.827
90552W        W62812  28.503  22.635  13.010
90553W        W62813   3.725  40.879   4.911
90554W        W62814   7.622  43.354  10.972
90555W        W62815  14.375  44.383  11.831
90556W        W62816   9.952   6.712   1.298
90557W        W62817  23.431  43.024  14.316
90558W        W62818  18.948  35.850   1.535
90559W        W62819  37.775  38.294  13.835
90560W        W62820  41.368  44.266  11.652
90561W        W62821  38.541   7.755  10.053
90562W        W62822   7.642  44.637  14.068
90563W        W62823   6.475  33.304  13.923
90564W        W62824  10.632  44.479  12.407
90565W        W62825  34.515  39.721  12.496
90566W        W62826  28.885  37.108  13.995
90567W        W62827  24.124  37.427  11.547
90568W        W62828  36.854  25.321  13.901
90569W        W62829  40.274  13.720   1.923
90570W        W62830  20.613   5.782   3.338
90571W        W62831  10.200   6.472  11.488
90572W        W62832  37.252   6.793   2.820
90573W        W62833  44.919  35.088   2.398
90574W        W62834   2.270  17.047   3.666
90575W        W62835  16.568  30.823  11.938
90576W        W62836  29.366  26.081   3.708
90577W        W62837  21.691   9.224   4.221
90578W        W62838  10.128  38.588  11.395
90579W        W62839  43.417  40.922   0.558
90580W        W62840  22.564  32.627   1.411
90581W        W62841  35.901  23.025   2.191
90582W        W62842   2.883   9.792   3.281
90583W        W62843  10.751  15.928   4.609
90584W        W62844  39.094  18.084  10.660
90585W        W62845  35.328  24.262   4.060
90586W        W62846  44.278   2.498  11.967
90587W        W62847  30.988  10.168  14.856
90588W        W62848  33.738  30.603   2.494
90589W        W62849   8.489  32.341  14.959
90590W        W62850  18.977  20.950  11.190
90591W        W62851   0.460  30.889  14.069
90592W        W62852   4.309  21.157   9.937
90593W        W62853  14.097  39.350   4.804
90594W        W62854  43.179  28.957  11.867
90595W        W62855   2.341   9.109   4.001
90596W        W62856   3.427   2.753  12.804
90597W        W62857   9.349  26.500  13.085
90598W        W62858  23.725   1.285   1.748
90599W        W62859  13.822   2.835  13.943
90600W        W62860   1.428  39.805  12.488
90601W        W62861  42.508  20.254  14.955
90602W        W62862   0.972  19.233   2.200
90603W        W62863  34.233   8.721  10.536
90604W        W62864  37.174  14.369   2.828
90605W        W62865   8.654  39.624  13.064
90606W        W62866  32.635  29.579  14.892
90607W        W62867  37.614   6.297   0.543
90608W        W62868  17.175  19.774  12.436
90609W        W62869  28.528   6.683  11.986
90610W        W62870  35.902  21.476  12.496
90611W        W62871   3.753  13.278   1.652
90612W        W62872   8.737   5.248   1.879
90613W        W62873  11.864   7.855   0.596
90614W        W62874  26.660   7.890  14.444
90615W        W62875   3.779   6.485   2.761
90616W        W62876  37.843  25.550   2.975
90617W        W62877  39.135   9.363   3.101
90618W        W62878  40.927  23.120   2.850
90619W        W62879   7.762   4.378   1.301
90620W        W62880   1.809  32.610   1.513
90621W        W62881  28.698   6.202   4.593
90622W        W62882  29.043  36.631  13.743
90623W        W62883  30.508  11.652  11.416
90624W        W62884  28.422  27.240  12.097
90625W        W62885  25.174  34.499  11.478
90626W        W62886  43.961  41.779  11.592
90627W        W62887  28.733   5.929  14.242
90628W        W62888  35.368  26.761  13.534
90629W        W62889  18.233   1.566  11.899
90630W        W62890  33.355  13.234  13.468
90631W        W62891  42.082   7.740  13.016
90632W        W62892  19.204   5.794   5.011
90633W        W62893   4.916  43.250  14.977
90634W        W62894  36.890   2.870  13.489
90635W        W62895  26.117  16.904  12.355
90636W        W62896  34.186  22.622  13.054
90637W        W62897  20.685   5.690  13.078
90638W        W62898  19.043  41.396  11.237
90639W        W62899  33.967  29.440  14.098
90640W        W62900   0.350  21.753  13.543
90641W        W62901  18.815  16.255  12.140
90642W        W62902  15.325   5.365  14.960
90643W        W62903  35.754  32.113   4.591
90644W        W62904  25.503  17.634  14.715
90645W        W62905   7.538  21.935  12.861
90646W        W62906   8.934  38.036   2.784
90647W        W62907  30.673   9.342   2.934
90648W        W62908  41.528   4.874  14.114
90649W        W62909  34.867  27.986  10.803
90650W        W62910  34.226  44.349   0.574
90651W        W62911   6.398  10.425  11.590
90652W        W62912   4.821  21.716   3.196
90653W        W62913  22.907  19.100  11.051
90654W        W62914  35.618   4.431   3.610
90655W        W62915   3.369  25.475  10.758
90656W        W62916  18.696  11.251   2.873
90657W        W62917  43.262  34.821   1.432
90658W        W62918  44.260  33.044  12.666
90659W        W62919  16.480   8.620   2.731
90660W        W62920  32.013  24.477   2.234
90661W        W62921  43.478  30.586   1.742
90662W        W62922  27.061   4.302  10.630
90663W        W62923  14.175  15.649   0.345
90664W        W62924  17.002  11.705   3.628
90665W        W62925  19.563  33.133   1.884
90666W        W62926  28.509  25.226   4.348
90667W        W62927  41.206  21.403  11.664
90668W        W62928  15.579  10.101   0.540
90669W        W62929   1.826   1.016  13.024
90670W        W62930  40.290  22.199  12.804
90671W        W62931  21.203  30.832   4.030
90672W        W62932   6.633  28.955   3.743
90673W        W62933  24.133   1.558  14.860
90674W        W62934  22.558  28.486  11.368
90675W        W62935  42.049  36.453  13.824
90676W        W62936  23.950  13.768  14.406
90677W        W62937  14.850  29.441   5.055
90678W        W62938  10.245  13.819  11.762
90679W        W62939  26.462  31.113   2.721
90680W        W62940  13.689  40.338   0.822
90681W        W62941  37.872  13.281  13.340
90682W        W62942  33.382   0.002  13.825
90683W        W62943  28.000  30.395   3.346
90684W        W62944  23.161  33.439  13.978
90685W        W62945  37.616  30.601  14.104
90686W        W62946  31.847   5.128   2.583
90687W        W62947  33.663  44.121   5.123
90688W        W62948   6.141  27.909  12.397
90689W        W62949  40.657   7.958   0.531
90690W        W62950   3.722  23.189   4.538
90691W        W62951  14.135  34.383  13.330
90692W        W62952  44.281  15.765   2.265
90693W        W62953  42.803  27.009  14.320
90694W        W62954  44.014  42.381  13.241
90695W        W62955  13.680  24.960  12.935
90696W        W62956  36.011  23.815  12.082
90697W        W62957   2.424  40.179  13.960
90698W        W62958  10.210   0.669   0.236
90699W        W62959  41.966  27.192  10.914
90700W        W62960  34.450  11.500   3.045
90701W        W62961  24.284  33.550   2.135
90702W        W62962   1.036  25.760  11.113
90703W        W62963  24.711  34.740  12.539
90704W        W62964  18.559  35.287  13.085
90705W        W62965  44.786   3.332  10.443
90706W        W62966  28.012  36.260   3.736
90707W        W62967  44.940  33.451  13.573
90708W        W62968  37.121  25.200   2.626
90709W        W62969  29.653  42.060   0.882
90710W        W62970  42.960  21.116  14.576
90711W        W62971  14.087  18.169   3.148
90712W        W62972   4.270  36.817   2.339
90713W        W62973  42.030   7.179   2.552
90714W        W62974  20.800  33.985  11.556
90715W        W62975  43.344  44.090  14.843
90716W        W62976  14.288   2.909   2.823
90717W        W62977   5.126   2.762   0.184
90718W        W62978  12.311  35.595   2.420
90719W        W62979  22.110  19.601  10.735
90720W        W62980   1.421  23.629   0.986
90721W        W62981   2.502   0.824   1.127
90722W        W62982  20.983  17.504   3.290
90723W        W62983   9.152  16.536  12.418
90724W        W62984  29.903  27.088   1.176
90725W        W62985  36.872  19.271   4.936
90726W        W62986  37.445  20.017  11.523
90727W        W62987  24.703  39.234  13.504
90728W        W62988  32.647  34.858   4.022
90729W        W62989   8.055  26.029   1.885
90730W        W62990  10.640  17.268   3.422
90731W        W62991   8.955  42.424  13.328
90732W        W62992  43.342   4.382   3.475
90733W        W62993  17.176  32.173  13.037
90734W        W62994  17.369  42.876  14.442
90735W        W62995   0.228  25.100   2.643
90736W        W62996  27.902  28.545   4.582
90737W        W62997  22.577   1.892  11.255
90738W        W62998  10.795  24.713  14.111
90739W        W62999   5.003  28.084  13.308
90740W        W63000   1.366   1.437  10.955
90741W        W63001  16.226  14.252  13.063
90742W        W63002   6.589   3.784  14.469
90743W        W63003  34.007  21.323   2.156
90744W        W63004   2.659  29.573  14.809
90745W        W63005   4.452  33.719   3.324
90746W        W63006  25.519   8.825  10.935
90747W        W63007  17.150  39.331  11.210
90748W        W63008  25.147  43.845   0.408
90749W        W63009  31.132  10.388  12.009
90750W        W63010  18.808  33.012  13.359
90751W        W63011   3.391  17.381  14.049
90752W        W63012  18.812  41.832  11.546
90753W        W63013  38.652  15.868  13.843
90754W        W63014  24.042  18.674  10.749
90755W        W63015  18.011  21.370   4.120
90756W        W63016   7.210   6.563   4.757
90757W        W63017  22.018  42.389   4.641
90758W        W63018  10.075  23.472   0.766
90759W        W63019  42.535  33.610   2.778
90760W        W63020   8.689  32.732   0.807
90761W        W63021  15.464   7.308   2.863
90762W        W63022   9.723  14.107   0.381
90763W        W63023  32.881  21.709  13.451
90764W        W63024  41.095  38.347   4.155
90765W        W63025   8.652  42.922   4.326
90766W        W63026  26.616  18.281  11.100
90767W        W63027  27.021  18.953   2.823
90768W        W63028  22.039   4.448   2.762
90769W        W63029  26.810  26.674   4.567
90770W        W63030  10.944   5.292  10.915
90771W        W63031  22.104   3.980   1.878
90772W        W63032   7.633  15.342  10.785
90773W        W63033  43.241  26.129  13.062
90774W        W63034   7.263  35.281   3.357
90775W        W63035  22.924  29.809   2.348
90776W        W63036   7.604   0.250  10.813
90777W        W63037   9.821  26.578   2.651
90778W        W63038  41.930  12.765  13.031
90779W        W63039  20.105  17.608   1.237
90780W        W63040  18.734   8.729  13.254
90781W        W63041  18.964  13.773  12.420
90782W        W63042  11.052  28.250  13.981
90783W        W63043  20.034   1.023   0.913
90784W        W63044  34.883  26.730   3.074
90785W        W63045  13.581   6.789   3.883
90786W        W63046   5.268  27.692  14.169
90787W        W63047  31.635   5.551  12.431
90788W        W63048  36.976  42.310   4.622
90789W        W63049  38.918  40.752   2.764
90790W        W63050  11.370   9.497  11.187
90791W        W63051  24.117  22.149  11.536
90792W        W63052   7.644  34.339   0.283
90793W        W63053  40.283  21.199  13.119
90794W        W63054  34.917  32.139  12.475
90795W        W63055   4.026   0.380  13.411
90796W        W63056  27.655  44.415  13.303
90797W        W63057   9.503  40.479   0.419
90798W        W63058  22.200   8.311   4.942
90799W        W63059  41.896   5.254   3.648
90800W        W63060  40.820  41.537  14.288
90801W        W63061  31.480  39.521  13.496
90802W        W63062   2.839   6.631  10.730
90803W        W63063  41.500  41.932  11.123
90804W        W63064  23.651  33.583  14.746
90805W        W63065  44.293   2.450   9.944
90806W        W63066  13.897  13.733   4.946
90807W        W63067  30.869  31.561   4.848
90808W        W63068  43.837  20.920   2.365
90809W        W63069  26.133  37.076   1.289
90810W        W63070  19.725  15.196   3.151
90811W        W63071  23.201  42.695   4.108
90812W        W63072  32.852  19.350   3.204
90813W        W63073   9.102  17.955   3.362
90814W        W63074   5.900   6.128  11.968
90815W        W63075  18.034  38.923  11.109
90816W        W63076  10.411  34.946   3.114
90817W        W63077  32.072  14.716   5.159
90818W        W63078  44.875  12.551  13.854
90819W        W63079  14.752  10.939  13.888
90820W        W63080  11.809   0.897  12.583
90821W        W63081  30.782   2.158   3.676
90822W        W63082  40.271  20.254   1.789
90823W        W63083  26.774  24.389  11.159
90824W        W63084  43.789  43.380   2.456
90825W        W63085  24.522  14.277  12.337
90826W        W63086  26.728  32.026  14.699
90827W        W63087  16.057  36.824   0.258
90828W        W63088  14.400  22.038  10.092
90829W        W63089  32.412  29.193   0.957
90830W        W63090  20.303  13.686   3.349
90831W        W63091  10.897  20.532  12.118
90832W        W63092  18.041   1.244  11.538
90833W        W63093  38.548   2.667   1.746
90834W        W63094  40.528  42.395   4.059
90835W        W63095  17.735  11.127   0.879
90836W        W63096  35.387  43.861   0.257
90837W        W63097  41.542  17.383   3.700
90838W        W63098  43.092   8.847   1.245
90839W        W63099  31.091  28.667   3.809
90840W        W63100   5.341  14.861   0.302
90841W        W63101  42.854  32.454   0.373
90842W        W63102  43.007   3.271  11.584
90843W        W63103  40.027   3.795  13.010
90844W        W63104   8.861  34.536  10.657
90845W        W63105  40.800  30.596  13.506
90846W        W63106  39.832  31.675   0.737
90847W        W63107  14.588  31.882   4.490
90848W        W63108   6.470  14.055   2.204
90849W        W63109  21.525   3.998  11.982
90850W        W63110  38.029  16.331  13.387
90851W        W63111  13.133   4.650   0.899
90852W        W63112  42.209   9.164   0.307
90853W        W63113   5.824  17.477   4.908
90854W        W63114  31.478  11.066  12.996
90855W        W63115  17.079   1.706  14.974
90856W        W63116  30.977  26.051  12.119
90857W        W63117   4.412   3.774   1.453
90858W        W63118  41.041  36.369   2.758
90859W        W63119  32.449  32.343  11.361
90860W        W63120  34.938  40.469  10.682
90861W        W63121  11.844  29.437   5.386
90862W        W63122  28.480  14.152   4.343
90863W        W63123  36.570   8.917   4.698
90864W        W63124  38.185  21.262   3.707
90865W        W63125  39.240  30.615  13.056
90866W        W63126  29.203   2.712   0.919
90867W        W63127  37.488   9.991   5.504
90868W        W63128   0.869  14.122   0.883
90869W        W63129  18.924  42.268  13.105
90870W        W63130  38.384  22.465   1.218
90871W        W63131   3.902  17.212  11.964
90872W        W63132  28.414  11.601   0.064
90873W        W63133  37.864  32.123   3.664
90874W        W63134   3.876   2.334   4.548
90875W        W63135   9.647  20.241   4.709
90876W        W63136  11.089  24.218   2.249
90877W        W63137  16.847  29.394   1.686
90878W        W63138  36.120  28.440  13.450
90879W        W63139  19.135  17.140  14.435
90880W        W63140   8.223  16.548  10.791
90881W        W63141   2.772   7.374   0.376
90882W        W63142  23.689  22.623   4.584
90883W        W63143  27.150  14.785  14.988
90884W        W63144  36.105   9.148   4.555
90885W        W63145  17.705  24.346  11.012
90886W        W63146  43.064  24.414  14.370
90887W        W63147  25.724  10.726   0.744
90888W        W63148  32.592  14.118   3.166
90889W        W63149  15.307   3.881  14.833
90890W        W63150  38.016  24.657  11.873
90891W        W63151  24.519  14.071   4.135
90892W        W63152  15.255  36.117   1.615
90893W        W63153   9.820  13.614   3.600
90894W        W63154  17.861   7.380  14.844
90895W        W63155   2.207  32.972  12.451
90896W        W63156  35.195  19.676   2.435
90897W        W63157  43.904  33.735  12.313
90898W        W63158  22.116  29.026   3.901
90899W        W63159  21.803  17.186   1.870
90900W        W63160  10.676  17.119   1.885
90901W        W63161  35.500  13.209   1.648
90902W        W63162   0.276   4.402  13.803
90903W        W63163   2.693  16.619   2.440
90904W        W63164  31.561  24.054   2.524
90905W        W63165  11.477  32.630  11.481
90906W        W63166  11.050   3.418   0.383
90907W        W63167   4.380  39.672   0.323
90908W        W63168   1.856  24.231   1.508
90909W        W63169  43.280  28.507   1.358
90910W        W63170   2.374  18.714  11.551
90911W        W63171   9.910  11.666   0.932
90912W        W63172  31.682  24.180   0.539
90913W        W63173  42.358  29.954  13.027
90914W        W63174  30.483   4.645  10.656
90915W        W63175  39.537  18.105  14.891
90916W        W63176  18.744  44.972   0.454
90917W        W63177  39.246   0.064  13.108
90918W        W63178  37.284  23.636   3.663
90919W        W63179  39.915  17.674  12.604
90920W        W63180  43.196  33.703  11.356
90921W        W63181  44.067  11.549  12.973
90922W        W63182  32.004  13.189  14.733
90923W        W63183   8.524  20.038  13.400
90924W        W63184  36.530   6.162  11.155
90925W        W63185  21.098  12.296  10.652
90926W        W63186  11.861  37.161  12.421
90927W        W63187  32.007  23.767   0.560
90928W        W63188  32.728  16.902  11.621
90929W        W63189   9.536  42.744   4.169
90930W        W63190   9.698   4.708   2.301
90931W        W63191  15.109  32.005  12.292
90932W        W63192  13.117  43.721   3.194
90933W        W63193  40.959  22.914   4.104
90934W        W63194  28.381  25.998   0.279
90935W        W63195   8.538  40.290  12.533
90936W        W63196  26.152  18.647   3.731
90937W        W63197  39.568  12.661   0.969
90938W        W63198  39.965  27.586   4.088
90939W        W63199  27.470  41.137  10.157
90940W        W63200   8.904  21.272  12.687
90941W        W63201  19.845  26.984   4.533
90942W        W63202   4.191  20.805   3.639
90943W        W63203  31.283  31.713   5.105
90944W        W63204  35.591   5.389  12.065
90945W        W63205  14.258   0.118  14.362
90946W        W63206  39.075  44.492   4.208
90947W        W63207  36.917  10.573   0.397
90948W        W63208  36.141  34.901  12.903
90949W        W63209  39.321  37.411  13.343
90950W        W63210  27.039  27.651   1.241
90951W        W63211  39.032  33.522  13.267
90952W        W63212   8.950  11.462   4.654
90953W        W63213   3.639  30.566  12.330
90954W        W63214   6.423  21.267  12.871
90955W        W63215  42.434  34.848   4.572
90956W        W63216  23.791  32.401   4.508
90957W        W63217  17.257  33.399   2.814
90958W        W63218  14.587  31.003   4.159
90959W        W63219  25.681  19.085  13.385
90960W        W63220  18.569  19.187   3.850
90961W        W63221  43.272  40.317   1.920
90962W        W63222  43.801  36.166   2.527
90963W        W63223  23.238  22.600  12.853
90964W        W63224   4.301  10.776   3.661
90965W        W63225  11.870  14.692   3.816
90966W        W63226   2.221  15.169  14.796
90967W        W63227  10.171  30.401   1.103
90968W        W63228  41.075  26.596   1.646
90969W        W63229  24.104  23.892   1.701
90970W        W63230  39.380  21.080   3.571
90971W        W63231  38.864  26.512   0.100
90972W        W63232  40.134   0.627  11.376
90973W        W63233  30.044  15.573  11.456
90974W        W63234  28.016   5.224  10.533
90975W        W63235   6.771  43.644  11.134
90976W        W63236  25.420  26.832  14.369
90977W        W63237  23.105  28.156  14.941
90978W        W63238   4.217  24.613  12.463
90979W        W63239  32.240  37.125  13.030
90980W        W63240  20.361   1.380   0.713
90981W        W63241   2.815  12.122  13.280
90982W        W63242   9.511  26.882  12.189
90983W        W63243  35.613  11.407  13.922
90984W        W63244  32.467  39.957  11.141
90985W        W63245  32.027  17.526   3.754
90986W        W63246   8.762  18.550  12.568
90987W        W63247  34.319  33.843   0.999
90988W        W63248   0.977  18.784   1.945
90989W        W63249   0.396  20.126  14.359
90990W        W63250   2.299  20.233   1.628
90991W        W63251  30.194  10.455  14.240
90992W        W63252  14.289  39.423   4.345
90993W        W63253  18.777  20.589   1.693
90994W        W63254  11.058  36.675   3.637
90995W        W63255  43.781  13.267  12.898
90996W        W63256  38.050  27.061  12.195
90997W        W63257  19.125   4.282  12.873
90998W        W63258  33.667  44.157  12.904
90999W        W63259   5.401   7.808   1.558
91000W        W63260  38.877  24.291   1.530
91001W        W63261  14.380   5.207  14.536
91002W        W63262  35.984  34.512   0.049
91003W        W63263   3.435  30.817   0.872
91004W        W63264  30.099   3.810  12.575
91005W        W63265  16.832   6.039   3.148
91006W        W63266  25.276   8.290   0.496
91007W        W63267  31.709   4.330  14.777
91008W        W63268  23.143  34.186  14.988
91009W        W63269  19.687  44.138  11.671
91010W        W63270  32.107   8.947   4.566
91011W        W63271  14.871   2.952   3.761
91012W        W63272  25.513  37.301   3.286
91013W        W63273  25.995   9.420   0.505
91014W        W63274  10.601  31.303  11.164
91015W        W63275  26.058   1.876   3.201
91016W        W63276  40.217  29.129   1.117
91017W        W63277  16.383  43.985   1.775
91018W        W63278  23.487  42.944   1.558
91019W        W63279  33.548  35.512  12.116
91020W        W63280  14.787  12.587  13.020
91021W        W63281  11.247  34.512   0.382
91022W        W63282  15.299  43.011  11.145
91023W        W63283  13.590  16.991  10.265
91024W        W63284  44.916  39.899  13.793
91025W        W63285  11.865  18.137   3.236
91026W        W63286  40.291  12.288  12.864
91027W        W63287   3.957  19.040   4.228
91028W        W63288  36.511  44.551  14.480
91029W        W63289   5.409  11.657  11.989
91030W        W63290  24.124   0.992   4.801
91031W        W63291   5.169   0.245  13.067
91032W        W63292  31.914   8.310   1.872
91033W        W63293  13.698  26.650   1.678
91034W        W63294  34.954  16.499   0.121
91035W        W63295  37.553   5.350  14.240
91036W        W63296  25.040  20.780  12.111
91037W        W63297  31.641  12.733  11.992
91038W        W63298  30.928   5.750  12.966
91039W        W63299  37.098  26.558  12.566
91040W        W63300  36.294  22.864   1.900
91041W        W63301  14.494   5.879   3.299
91042W        W63302   5.711  41.088   1.705
91043W        W63303  37.286  11.575   3.572
91044W        W63304  28.504  44.952  13.317
91045W        W63305  16.209  11.225  14.762
91046W        W63306  31.486  13.300  14.880
91047W        W63307  30.516   9.633   2.297
91048W        W63308  43.004  22.944  11.064
91049W        W63309  19.855   0.548  11.048
91050W        W63310  16.699  12.854  12.022
91051W        W63311  35.760  31.123  11.993
91052W        W63312  37.066  36.728   2.632
91053W        W63313  42.322  17.229  10.638
91054W        W63314  24.827   3.968  12.422
91055W        W63315  16.180  41.810  14.344
91056W        W63316  33.579   8.695   2.662
91057W        W63317  16.267  35.479  12.628
91058W        W63318  21.937  36.933  12.564
91059W        W63319  18.262  27.591  13.207
91060W        W63320  42.290  22.318  10.633
91061W        W63321  33.085  24.595   4.268
91062W        W63322  22.290  21.068   0.989
91063W        W63323  14.414   3.009   0.086
91064W        W63324   0.815   5.716  12.108
91065W        W63325  40.447  22.798   3.635
91066W        W63326  36.430   3.404   3.127
91067W        W63327   6.543  44.574  13.768
91068W        W63328  42.421  29.194   0.433
91069W        W63329  28.104  30.372   9.752
91070W        W63330   3.820  30.727  14.900
91071W        W63331   5.887   6.744   1.713
91072W        W63332  35.839   2.716  12.967
91073W        W63333   0.509  19.450   2.238
91074W        W63334  42.328   4.764  13.524
91075W        W63335  29.932  34.074  12.710
91076W        W63336  40.884  15.304  11.709
91077W        W63337   8.374  39.038   3.257
91078W        W63338  28.442  43.922  11.256
91079W        W63339  41.972  16.156  13.490
91080W        W63340   5.880   5.455   2.033
91081W        W63341  34.503  22.737  10.709
91082W        W63342  31.150  18.270  12.783
91083W        W63343  44.325  44.548  14.145
91084W        W63344   7.596   3.231  11.329
91085W        W63345  36.641  18.016  12.890
91086W        W63346  44.666   2.400   4.264
91087W        W63347   3.678  43.719   3.196
91088W        W63348  36.816  18.850  14.838
91089W        W63349  41.021   5.713  14.573
91090W        W63350  31.584  26.056   4.948
91091W        W63351  32.614  27.427   0.964
91092W        W63352  39.852   3.683  13.508
91093W        W63353  12.758   3.056  12.584
91094W        W63354  19.137  37.059   0.405
91095W        W63355  16.204   4.367  10.597
91096W        W63356  32.004  22.134  13.096
91097W        W63357  16.704  18.538   2.626
91098W        W63358  11.783  32.311   1.480
91099W        W63359   6.290  41.933  12.160
91100W        W63360  18.173  23.802  14.406
91101W        W63361  32.900  41.258   1.738
91102W        W63362  19.639  15.657   1.367
91103W        W63363  19.750   3.345  13.571
91104W        W63364  36.512  25.406   3.173
91105W        W63365  14.772  19.533   2.179
91106W        W63366  29.253  11.024  13.585
91107W        W63367  43.582  20.506   0.419
91108W        W63368  32.839  18.129  14.856
91109W        W63369  10.794  13.182  12.695
91110W        W63370  19.720  44.817   4.686
91111W        W63371  23.315   3.740   2.911
91112W        W63372  34.444   5.356   2.370
91113W        W63373  24.920  13.411  14.006
91114W        W63374   2.286  36.889  10.758
91115W        W63375  32.656  31.326   0.387
91116W        W63376   0.149  44.194  11.420
91117W        W63377  17.363   8.894   0.217
91118W        W63378  37.500  22.161  13.927
91119W        W63379  18.431  13.423   2.393
91120W        W63380  23.523  39.949  10.347
91121W        W63381  34.115  21.067   2.575
91122W        W63382  17.837  42.824   0.708
91123W        W63383  38.951  12.085  13.524
91124W        W63384  21.201  35.508   4.109
91125W        W63385   9.517  34.991   4.516
91126W        W63386  15.562  27.657   1.370
91127W        W63387  32.350   1.323  12.518
91128W        W63388  41.250  19.741   5.233
91129W        W63389  12.299  16.132  11.101
91130W        W63390  24.892  18.679  11.200
91131W        W63391  16.268  41.581   2.865
91132W        W63392  27.908  13.643  14.330
91133W        W63393  34.978   6.085  12.013
91134W        W63394  41.880  23.115  10.881
91135W        W63395  25.612   5.768   0.952
91136W        W63396  36.500  21.204  11.933
91137W        W63397  44.515  41.382  11.057
91138W        W63398  13.155  12.673   1.715
91139W        W63399   1.833  22.790  11.149
91140W        W63400  29.910  17.304   0.283
91141W        W63401  21.468  14.032  11.959
91142W        W63402  20.575   1.268  14.715
91143W        W63403  14.711  36.001  10.266
91144W        W63404  44.716  29.493   0.247
91145W        W63405  37.873  24.536   2.706
91146W        W63406   6.176  39.504   1.833
91147W        W63407  33.616  13.700  13.022
91148W        W63408  19.682  44.843   3.126
91149W        W63409  12.210   6.962   3.667
91150W        W63410  39.859  14.204  10.724
91151W        W63411  29.545  16.387  10.777
91152W        W63412  36.554  30.340   5.117
91153W        W63413  10.335   1.421  10.919
91154W        W63414   0.852   1.819   4.021
91155W        W63415  22.839  16.517   4.212
91156W        W63416  41.837  40.105  12.162
91157W        W63417  10.252   6.750   0.693
91158W        W63418  29.619  43.403   2.428
91159W        W63419  28.255  33.184   0.325
91160W        W63420  14.347  23.195   3.245
91161W        W63421  14.859  41.865  11.969
91162W        W63422   5.789  18.384  11.828
91163W        W63423  22.391  22.840   2.310
91164W        W63424  30.765  42.539   1.224
91165W        W63425   5.699  25.210   3.239
91166W        W63426  10.880  10.956  11.630
91167W        W63427  10.862  15.212  12.186
91168W        W63428   5.461  24.996   3.658
91169W        W63429  28.852   4.965  12.068
91170W        W63430  20.234  23.504  14.785
91171W        W63431  11.860  17.205   2.817
91172W        W63432  37.637  19.007   2.795
91173W        W63433   3.145  37.064  11.523
91174W        W63434   3.136  42.753  14.482
91175W        W63435  36.953  42.051  13.351
91176W        W63436   4.676   3.983  14.965
91177W        W63437  29.737  22.206   0.163
91178W        W63438  17.369  26.120   0.868
91179W        W63439  42.124  21.235  12.490
91180W        W63440   5.269  11.992  12.357
91181W        W63441  15.642  29.165  10.342
91182W        W63442  16.784  18.100  13.089
91183W        W63443   6.789   8.356   3.501
91184W        W63444   2.815  21.669   0.445
91185W        W63445  37.080  37.541   2.305
91186W        W63446  37.737  10.450  10.495
91187W        W63447  15.689  17.846   1.193
91188W        W63448  37.332   4.398   3.577
91189W        W63449  10.709   4.818  11.189
91190W        W63450  33.610  43.864  13.409
91191W        W63451  34.569  11.386  13.957
91192W        W63452  37.290   6.328   4.579
91193W        W63453  35.366  23.859  13.604
91194W        W63454   5.430  44.006  13.372
91195W        W63455   4.493  15.347   0.435
91196W        W63456  23.446  43.448   1.762
91197W        W63457  31.856  16.793  12.014
91198W        W63458  40.304  36.098   4.588
91199W        W63459   3.935  25.485  12.384
91200W        W63460  34.744  32.543   2.193
91201W        W63461  40.059  29.834  11.194
91202W        W63462  17.224  44.839   4.746
91203W        W63463  10.611  38.941   3.628
91204W        W63464  18.180  15.568  11.005
91205W        W63465  14.506   9.797   0.924
91206W        W63466   7.205   7.188   1.800
91207W        W63467   5.852  37.307   1.261
91208W        W63468  31.074  35.985   0.313
91209W        W63469  23.937  23.980   1.218
91210W        W63470   2.910   9.723  14.728
91211W        W63471  12.662   8.897  14.506
91212W        W63472  38.258  11.380   4.249
91213W        W63473  29.734  22.935  13.003
91214W        W63474  11.217  24.188   1.728
91215W        W63475  33.067   6.511   1.497
91216W        W63476  28.330  32.681  10.054
91217W        W63477  11.390   7.812   0.368
91218W        W63478  37.281  39.500  12.816
91219W        W63479  22.682  38.890   3.691
91220W        W63480   1.977  28.597  12.042
91221W        W63481   8.173  22.706   4.907
91222W        W63482   5.374  43.897   1.966
91223W        W63483  27.164  38.998   1.415
91224W        W63484  42.636  17.654  10.670
91225W        W63485  23.755  21.113   3.152
91226W        W63486  16.566  16.717  14.995
91227W        W63487   8.753  29.685  12.578
91228W        W63488   7.872  16.815  11.664
91229W        W63489  24.220  38.937  10.591
91230W        W63490  24.011  13.584  12.346
91231W        W63491  11.153  34.422   1.958
91232W        W63492  44.213  11.833   3.255
91233W        W63493   9.148   8.365  13.776
91234W        W63494  19.763   6.292  14.960
91235W        W63495  11.405   9.444   3.061
91236W        W63496   2.939   1.065   2.407
91237W        W63497  35.488  44.008   4.751
91238W        W63498  27.723  30.181  10.688
91239W        W63499  28.458   3.836  13.748
91240W        W63500  12.804   6.780  13.361
91241W        W63501  23.694  34.635  10.767
91242W        W63502   6.869  41.624   3.133
91243W        W63503  21.942  35.914  10.684
91244W        W63504  42.258   0.486   1.323
91245W        W63505  34.515  23.419  14.956
91246W        W63506  24.099   0.270  10.708
91247W        W63507  41.015  13.229   1.863
91248W        W63508  30.915   0.425   0.771
91249W        W63509  35.051  35.373   0.516
91250W        W63510  27.755   3.037   2.689
91251W        W63511  43.219  40.217  13.215
91252W        W63512   2.305  43.945  12.426
91253W        W63513  31.003  39.482  12.779
91254W        W63514  24.486  43.870  11.404
91255W        W63515  19.319  21.112  14.366
91256W        W63516   0.389   9.743  12.221
91257W        W63517  12.185  38.662   1.225
91258W        W63518  38.920  37.983   3.044
91259W        W63519  13.301  20.004   4.001
91260W        W63520  31.752  29.369  12.741
91261W        W63521  26.262  26.481  11.174
91262W        W63522   3.495  29.169  12.368
91263W        W63523   5.435   1.374   0.787
91264W        W63524  22.162  26.244  11.513
91265W        W63525   1.256  42.875   3.665
91266W        W63526  14.182  27.425  14.816
91267W        W63527  27.743  13.215  12.845
91268W        W63528  23.585  39.074   3.680
91269W        W63529  44.566  11.862   4.222
91270W        W63530   1.942   5.934  10.712
91271W        W63531  21.257   3.532  10.835
91272W        W63532  21.936   8.417  13.977
91273W        W63533   0.481  20.546  10.712
91274W        W63534  43.002  15.170  14.432
91275W        W63535   4.542   0.198   4.814
91276W        W63536  32.922  24.706  11.932
91277W        W63537  41.964  40.018  10.710
91278W        W63538  34.869   2.665   2.733
91279W        W63539  18.785  43.436   0.838
91280W        W63540  33.101  27.568   2.601
91281W        W63541  43.996  38.970   1.417
91282W        W63542  36.543   2.896   3.293
91283W        W63543  41.927   4.660  12.867
91284W        W63544  32.034  32.821  10.107
91285W        W63545  26.661  34.602   2.707
91286W        W63546  31.328  16.996  14.337
91287W        W63547  23.807   4.192   2.203
91288W        W63548  16.059  21.802   4.110
91289W        W63549   3.276  34.602  10.755
91290W        W63550  28.669  19.506   0.006
91291W        W63551  13.669   4.576  10.140
91292W        W63552   1.166  19.825   1.049
91293W        W63553   6.208   8.404   0.382
91294W        W63554  19.439  32.561  11.766
91295W        W63555  30.516   9.643  12.695
91296W        W63556  24.484  27.034  11.517
91297W        W63557  32.344  18.227  11.160
91298W        W63558  19.443  33.037  11.473
91299W        W63559  25.985   0.932  14.922
91300W        W63560  21.199  25.984  13.241
91301W        W63561  20.761  29.225  12.592
91302W        W63562   8.751  19.073  12.540
91303W        W63563  12.294   1.358   1.745
91304W        W63564   2.731  22.757   0.079
91305W        W63565  36.492   9.300  13.858
91306W        W63566   3.019  30.921  11.045
91307W        W63567  13.548  13.748   2.906
91308W        W63568  33.962  11.235  11.469
91309W        W63569  27.668  23.102   2.192
91310W        W63570  36.504  11.128  12.289
91311W        W63571   0.502  19.942   0.283
91312W        W63572  42.983  37.947   4.596
91313W        W63573  16.554  33.813  14.700
91314W        W63574  37.611  24.693  10.726
91315W        W63575  31.392   9.141   4.353
91316W        W63576  35.547  32.445   0.488
91317W        W63577  14.196  42.751   0.018
91318W        W63578  43.514  18.102  10.725
91319W        W63579  17.067  16.718   2.337
91320W        W63580  42.430   0.719  13.701
91321W        W63581   7.820  11.706   4.498
91322W        W63582  17.776  40.060  10.693
91323W        W63583  33.459  38.015   1.750
91324W        W63584  16.336  36.501   4.507
91325W        W63585  27.075  19.948  10.617
91326W        W63586  41.378  17.529  13.252
91327W        W63587   7.659  11.041   4.212
91328W        W63588  43.088   5.826   2.219
91329W        W63589  21.129  41.486   2.261
91330W        W63590  30.110   2.267   3.546
91331W        W63591  31.618  10.125   3.635
91332W        W63592  15.280  22.303   3.599
91333W        W63593  40.299   1.496   2.609
91334W        W63594  11.558  44.802   4.474
91335W        W63595  21.061  19.563  11.749
91336W        W63596  14.147  40.456   2.791
91337W        W63597  34.895  38.811   4.604
91338W        W63598  28.910  11.875  11.996
91339W        W63599   2.439  28.115   0.278
91340W        W63600  42.328   5.661   0.022
91341W        W63601  27.676  23.064   3.105
91342W        W63602  41.095  30.524  10.683
91343W        W63603  14.886   9.107   3.293
91344W        W63604  32.845  10.370  12.453
91345W        W63605  33.928   8.261   2.825
91346W        W63606  23.740  42.776  11.057
91347W        W63607   9.819  30.553   0.191
91348W        W63608  33.087   0.987  13.260
91349W        W63609  31.117  20.287  14.127
91350W        W63610  19.024  16.617  13.496
91351W        W63611  22.536  12.783  14.834
91352W        W63612  38.096   9.304   4.518
91353W        W63613  39.413  29.346  14.198
91354W        W63614  38.298  44.105   1.878
91355W        W63615  28.406  32.961   2.251
91356W        W63616  17.377  19.494  12.020
91357W        W63617  11.830  43.175  14.741
91358W        W63618   9.117  35.766  11.531
91359W        W63619   8.201  19.315  14.996
91360W        W63620   1.204  18.300  13.529
91361W        W63621  37.990  18.224  10.375
91362W        W63622  18.204  44.901   2.489
91363W        W63623  10.847  13.160   3.662
91364W        W63624  30.474   0.315   4.727
91365W        W63625   1.622  18.090   3.699
91366W        W63626  37.482  39.642  14.477
91367W        W63627  23.930  10.357  11.977
91368W        W63628  16.264  38.441  11.961
91369W        W63629  20.391  24.347   1.167
91370W        W63630  28.595  37.560   3.228
91371W        W63631  36.741  14.187   3.696
91372W        W63632   6.121  37.401  10.161
91373W        W63633  22.763   7.736   0.277
91374W        W63634  31.769   5.345  14.884
91375W        W63635  31.408  20.588  11.504
91376W        W63636  37.820  28.417   1.397
91377W        W63637   6.813   7.942   0.852
91378W        W63638  23.575  31.512  12.819
91379W        W63639  11.715  12.738   3.720
91380W        W63640  36.503  24.905   3.274
91381W        W63641   3.340  11.360   1.648
91382W        W63642   4.729  22.882   1.882
91383W        W63643  20.258  11.144   2.837
91384W        W63644  30.210  34.343   1.318
91385W        W63645   8.147  44.378  14.766
91386W        W63646  26.571  21.970   3.932
91387W        W63647  41.489  38.739   1.650
91388W        W63648  13.501  37.022  13.616
91389W        W63649  12.224  15.651  11.011
91390W        W63650  42.673  21.559   4.656
91391W        W63651  28.480  44.777  11.666
91392W        W63652  33.056  37.448  11.161
91393W        W63653   9.743   4.734  11.154
91394W        W63654  10.750  15.888   2.682
91395W        W63655  37.065  17.143   0.375
91396W        W63656  30.477  42.908  14.628
91397W        W63657  21.273   2.838  13.823
91398W        W63658  12.299  11.116   4.419
91399W        W63659  32.017   1.777  11.948
91400W        W63660   3.296  44.897   0.034
91401W        W63661   5.994  17.181   2.328
91402W        W63662  16.183  32.187   3.358
91403W        W63663  42.537  44.747  12.111
91404W        W63664  36.448  43.183  13.016
91405W        W63665  13.223   0.723  13.481
91406W        W63666  34.663  33.817  14.269
91407W        W63667   2.430   5.150  10.808
91408W        W63668  25.580  31.506   2.128
91409W        W63669  43.322  36.041  12.066
91410W        W63670  43.353  13.627  13.253
91411W        W63671  41.250  32.488  14.388
91412W        W63672  39.911  15.147  13.661
91413W        W63673  37.824  10.262   0.458
91414W        W63674  13.751  30.752  11.499
91415W        W63675  41.527  13.865   1.512
91416W        W63676  18.569   4.676   1.453
91417W        W63677  29.133  23.336  12.640
91418W        W63678   3.194  20.324  11.076
91419W        W63679  17.689  16.296   4.495
91420W        W63680   0.265   4.747   0.399
91421W        W63681  27.208   9.292   0.913
91422W        W63682   3.900   6.666  11.451
91423W        W63683  35.443   6.844  11.437
91424W        W63684   0.249  10.364  13.752
91425W        W63685  17.519   1.821   1.804
91426W        W63686  20.211  32.081   4.596
91427W        W63687  29.152  37.028   2.625
91428W        W63688  12.440   0.768   2.815
91429W        W63689  28.553  20.698  12.426
91430W        W63690  29.122  33.523   5.173
91431W        W63691  17.282  44.372  11.998
91432W        W63692  34.353  33.827   3.736
91433W        W63693   2.741   5.384  13.042
91434W        W63694  40.281   5.233  11.115
91435W        W63695  14.665  40.977  13.813
91436W        W63696  20.826  20.842  13.149
91437W        W63697  20.754  27.607  14.799
91438W        W63698   3.975   8.976   4.101
91439W        W63699  25.942   3.370  12.381
91440W        W63700  28.246  29.049   3.751
91441W        W63701  30.957  29.630   1.261
91442W        W63702   8.650  28.245  13.751
91443W        W63703  25.758  26.676  10.154
91444W        W63704  37.510  44.393  10.634
91445W        W63705   8.412  13.875   0.301
91446W        W63706  27.270  15.239  13.796
91447W        W63707  31.417   4.612   1.443
91448W        W63708  16.735  40.897  13.970
91449W        W63709  26.669   3.751   2.655
91450W        W63710  37.853  10.760   9.326
91451W        W63711   7.706   2.830  14.816
91452W        W63712   9.341  44.453   4.704
91453W        W63713  43.872  14.034   0.892
91454W        W63714  38.841  32.956   4.713
91455W        W63715  39.753   9.238   1.754
91456W        W63716  16.164  21.604  13.999
91457W        W63717   4.820  24.239   4.163
91458W        W63718   7.499  29.057   3.233
91459W        W63719  42.753  44.308  11.962
91460W        W63720  13.091  19.797  11.063
91461W        W63721  24.018  38.186   0.986
91462W        W63722   8.833  20.215  10.722
91463W        W63723  14.674   3.765  14.319
91464W        W63724  23.960  33.612  12.533
91465W        W63725  21.177  44.938   3.183
91466W        W63726  17.604  21.045   2.506
91467W        W63727   0.709   6.856   1.441
91468W        W63728  31.963  11.806   1.775
91469W        W63729  11.687   9.851   0.661
91470W        W63730  27.678   0.990  11.688
91471W        W63731  18.728   9.493  12.748
91472W        W63732  21.846  44.916  10.696
91473W        W63733  42.023  11.636  10.403
91474W        W63734  11.466  24.604   1.926
91475W        W63735   6.440   7.270   3.680
91476W        W63736  33.418   3.010   1.703
91477W        W63737  34.865  42.738  14.401
91478W        W63738   2.295  21.615   3.413
91479W        W63739  15.215  25.144   4.590
91480W        W63740  43.692  45.000   3.615
91481W        W63741  43.045   2.365   1.785
91482W        W63742  12.739   8.283   0.745
91483W        W63743  29.030   0.675  14.926
91484W        W63744  27.061   3.885  12.192
91485W        W63745  37.449  13.334   1.113
91486W        W63746  19.995   6.425  14.501
91487W        W63747   6.531   9.400   0.202
91488W        W63748  16.825  44.268  14.252
91489W        W63749   4.855  27.692   1.020
91490W        W63750  12.722  36.879   1.211
91491W        W63751  17.204  24.094  10.198
91492W        W63752  33.554  28.570   2.134
91493W        W63753  21.669  22.985  11.670
91494W        W63754  27.026  13.596   2.657
91495W        W63755  16.929  40.416   1.277
91496W        W63756   4.770  40.448  11.432
91497W        W63757  29.191   0.482  12.596
91498W        W63758  35.976  36.779  12.246
91499W        W63759  32.046  19.233  12.938
91500W        W63760  32.461  20.013  10.363
91501W        W63761  34.467  41.290  13.486
91502W        W63762  31.131  17.159   3.939
91503W        W63763  27.542   1.994   4.685
91504W        W63764  31.090   7.524  14.926
91505W        W63765  21.986   1.717  12.872
91506W        W63766  11.298   9.321   4.685
91507W        W63767  22.221   5.543  11.930
91508W        W63768  41.541  18.641   4.358
91509W        W63769   1.447  40.489  10.794
91510W        W63770  31.589  34.600   4.657
91511W        W63771  41.207   8.836  11.175
91512W        W63772  18.634   2.957   3.899
91513W        W63773   3.530  34.314  14.774
91514W        W63774  25.618  26.395   1.354
91515W        W63775  16.212  14.116  12.448
91516W        W63776  38.055  41.577   2.211
91517W        W63777  18.575  14.110  10.678
91518W        W63778  20.033  20.662  14.245
91519W        W63779  33.569  24.427  14.026
91520W        W63780  11.762  16.954  13.170
91521W        W63781   6.126   2.178  11.939
91522W        W63782  33.309  33.469  11.897
91523W        W63783  10.087  22.203  13.044
91524W        W63784  18.889  14.286   3.470
91525W        W63785  36.331  28.157  10.673
91526W        W63786  25.381   9.639   1.046
91527W        W63787  35.321  14.146   4.209
91528W        W63788  32.108  10.625   3.334
91529W        W63789  38.709   9.029  12.217
91530W        W63790  32.444  25.849   4.512
91531W        W63791   4.724   8.712   3.129
91532W        W63792   8.481  10.416   2.332
91533W        W63793  44.442  36.665  11.545
91534W        W63794  34.074  40.855  10.549
91535W        W63795   8.158  43.422  11.306
91536W        W63796  42.555   8.435  11.096
91537W        W63797   9.756  37.130   3.184
91538W        W63798  10.045  19.591   2.028
91539W        W63799  31.796  33.257  13.453
91540W        W63800   2.202   8.763   0.673
91541W        W63801  18.300  41.970  11.587
91542W        W63802  23.569   8.516   2.840
91543W        W63803  20.272   8.089   5.467
91544W        W63804  16.310  41.247   5.284
91545W        W63805  29.981  42.226   3.151
91546W        W63806   8.167  16.901   2.744
91547W        W63807   7.326  16.241  14.337
91548W        W63808  28.222   1.306  10.626
91549W        W63809   6.299  39.757  11.441
91550W        W63810  22.220  25.724  14.344
91551W        W63811   6.142  34.535  13.590
91552W        W63812  42.468   7.744   4.805
91553W        W63813   7.912  27.958   5.501
91554W        W63814   5.697  44.939  11.499
91555W        W63815  35.943  14.387  12.440
91556W        W63816  27.002  19.404  14.747
91557W        W63817  10.666   1.220   1.844
91558W        W63818  17.396  40.819  11.762
91559W        W63819  42.269   7.364   0.405
91560W        W63820  40.858  11.465   2.319
91561W        W63821  32.164   1.840   2.469
91562W        W63822  11.363  31.651  14.371
91563W        W63823  31.418   5.736   4.637
91564W        W63824  13.049  43.617  13.849
91565W        W63825   9.133  38.391  13.404
91566W        W63826  43.415  17.598   0.860
91567W        W63827  43.530  18.109   0.952
91568W        W63828  30.686   5.959   4.294
91569W        W63829  39.039  34.529  11.996
91570W        W63830  14.205  18.746   2.419
91571W        W63831  44.751  37.531  10.542
91572W        W63832  43.225  22.281  13.063
91573W        W63833  22.576  11.190  12.648
91574W        W63834  37.291  21.962  11.102
91575W        W63835  31.837  34.407  11.084
91576W        W63836  28.153  13.822  12.123
91577W        W63837  44.859   0.768   2.394
91578W        W63838  33.354  21.429   1.748
91579W        W63839  31.633  13.814  14.802
91580W        W63840  36.996   2.294   4.292
91581W        W63841  21.583  40.046   0.523
91582W        W63842   3.032  26.959   3.286
91583W        W63843  31.374  36.055  14.887
91584W        W63844  10.248  35.694  10.614
91585W        W63845  22.550  39.294  10.828
91586W        W63846  44.053   9.907   2.367
91587W        W63847   7.384  10.291  12.031
91588W        W63848  33.452  23.128  13.200
91589W        W63849   0.438  22.631  12.961
91590W        W63850  43.793  27.523  12.970
91591W        W63851  36.426  34.928   2.000
91592W        W63852  33.132  39.412  11.166
91593W        W63853  26.469   0.517   3.368
91594W        W63854  34.352  11.670  12.047
91595W        W63855  17.569  13.922   3.118
91596W        W63856  41.545   1.435  10.363
91597W        W63857   1.010  23.102  11.146
91598W        W63858  36.061   3.484  13.393
91599W        W63859  35.999  41.429  13.090
91600W        W63860  38.432  27.485  10.680
91601W        W63861   9.013   3.823   4.738
91602W        W63862  18.651  36.290   2.573
91603W        W63863  14.590   5.338   0.800
91604W        W63864  36.787   1.347   3.298
91605W        W63865  10.106  13.822  10.904
91606W        W63866  13.081   3.793  14.352
91607W        W63867  32.073  14.246   2.180
91608W        W63868  41.653  42.981  13.521
91609W        W63869  25.764   4.448  13.946
91610W        W63870  13.900  20.602   2.378
91611W        W63871   5.062  13.756   1.818
91612W        W63872   0.764   7.171   1.856
91613W        W63873  17.112   0.425  14.948
91614W        W63874  33.487  28.938  11.489
91615W        W63875   1.009  35.119  10.589
91616W        W63876  12.065  44.951   2.573
91617W        W63877   4.218  35.905  11.536
91618W        W63878  11.302  18.792   3.153
91619W        W63879  43.864  18.426   4.670
91620W        W63880  38.802  39.360  12.022
91621W        W63881  30.056   0.110  14.794
91622W        W63882  22.418   4.207  11.941
91623W        W63883  18.893  40.907  14.351
91624W        W63884   7.451  16.087   3.880
91625W        W63885  43.739  26.185  13.891
91626W        W63886  20.909  39.263   4.324
91627W        W63887  19.673  44.909  10.948
91628W        W63888  38.040  14.525  11.580
91629W        W63889   8.785  25.419   3.672
91630W        W63890  16.316  29.917   4.518
91631W        W63891  27.063  12.479   4.284
91632W        W63892  10.297  14.370  10.293
91633W        W63893  24.161  23.982   4.183
91634W        W63894  25.979  29.692  12.993
91635W        W63895   4.151   3.957  11.904
91636W        W63896  43.775  19.760   1.353
91637W        W63897  12.186  12.372   4.152
91638W        W63898   2.956  43.879   1.396
91639W        W63899  22.470   3.614  10.757
91640W        W63900  17.102  27.453  11.211
91641W        W63901  13.122   6.870  14.337
91642W        W63902  20.575   2.708  13.407
91643W        W63903  35.139   4.583  12.158
91644W        W63904  30.453  44.947  10.695
91645W        W63905  41.311  18.147  14.163
91646W        W63906  24.663  25.654  13.855
91647W        W63907  34.476  26.612  13.303
91648W        W63908  36.207  32.113   0.044
91649W        W63909  32.067  36.868   2.738
91650W        W63910  13.801  29.057   4.209
91651W        W63911  19.055  34.550   3.513
91652W        W63912  24.488   8.595   1.439
91653W        W63913   3.168   8.932   3.653
91654W        W63914  14.584  18.260   0.753
91655W        W63915   3.395  14.249  13.085
91656W        W63916  13.687  14.449  11.465
91657W        W63917   3.717  26.200   3.864
91658W        W63918  33.953  10.688  10.601
91659W        W63919   3.590   8.253  14.160
91660W        W63920   5.256  41.470   0.193
91661W        W63921   0.970   3.392  14.338
91662W        W63922   3.863  29.389   0.269
91663W        W63923  20.198   4.270  12.920
91664W        W63924  44.991   4.227   0.999
91665W        W63925  25.621   1.076  13.917
91666W        W63926  44.299  24.235   4.116
91667W        W63927   8.711   9.427  10.651
91668W        W63928   5.422  17.864  11.037
91669W        W63929  26.761  25.459  11.120
91670W        W63930  36.876   1.526  11.844
91671W        W63931  25.722  13.652  10.463
91672W        W63932  33.449  43.236  12.874
91673W        W63933  42.596  29.652   0.623
91674W        W63934  11.684  42.859  12.063
91675W        W63935  22.777  11.685   0.726
91676W        W63936  32.637  38.135   4.074
91677W        W63937   8.322  32.130   2.843
91678W        W63938  18.691  12.707  11.553
91679W        W63939   5.019   8.591  10.025
91680W        W63940   0.480  33.922   0.795
91681W        W63941  23.617  39.818   0.799
91682W        W63942  31.137  36.397  10.637
91683W        W63943  39.781   2.537  11.167
91684W        W63944   2.055   7.324   4.135
91685W        W63945  28.065  12.164   4.517
91686W        W63946  33.905  37.919  12.439
91687W        W63947  30.778  30.076   5.517
91688W        W63948   4.735  42.900   0.296
91689W        W63949  39.953   3.075  11.226
91690W        W63950  40.327  33.878   4.716
91691W        W63951  43.183  35.900   2.240
91692W        W63952   8.461  25.734   2.093
91693W        W63953  24.147  35.379   0.690
91694W        W63954  23.406  12.686   3.282
91695W        W63955  42.047  14.323   2.676
91696W        W63956  26.680   8.941  13.526
91697W        W63957  34.464   6.888  13.821
91698W        W63958   0.776  34.444   0.860
91699W        W63959  28.675  12.916  12.305
91700W        W63960  20.045   7.096   1.977
91701W        W63961  23.612   8.095   2.293
91702W        W63962  22.207  15.114   3.904
91703W        W63963   5.487  31.816  14.554
91704W        W63964  31.310   6.924   2.616
91705W        W63965  14.688  39.285   2.152
91706W        W63966  30.917   4.269  11.192
91707W        W63967  32.384  36.614   2.356
91708W        W63968  15.579  43.302  14.325
91709W        W63969  41.380  23.758   1.426
91710W        W63970  38.058  12.426  13.763
91711W        W63971  15.221  32.467  12.493
91712W        W63972   7.439  28.115   5.449
91713W        W63973  35.262  29.320   1.353
91714W        W63974  19.581  34.704  14.483
91715W        W63975  15.867  23.678  14.023
91716W        W63976   2.329  20.265  14.251
91717W        W63977   5.192  24.012   1.368
91718W        W63978  36.020   6.021   1.465
91719W        W63979  37.760   2.736  13.340
91720W        W63980   4.308  31.032   3.321
91721W        W63981   5.801  34.798   4.712
91722W        W63982  11.168  41.926   3.638
91723W        W63983   6.646  33.905   1.729
91724W        W63984  15.706  29.531   0.576
91725W        W63985  12.155   7.456  11.021
91726W        W63986  10.716  33.247  12.533
91727W        W63987  44.933  25.499  14.997
91728W        W63988  11.205  29.915   3.932
91729W        W63989  42.261   5.053   3.346
91730W        W63990   5.196  14.755   2.160
91731W        W63991   8.956  29.708   2.824
91732W        W63992  34.539  31.141   1.341
91733W        W63993  42.120  32.076   4.494
91734W        W63994  30.055  34.174  13.226
91735W        W63995  19.716  18.355  10.721
91736W        W63996  11.772  24.666   2.823
91737W        W63997   0.017  24.094   2.101
91738W        W63998   5.873  11.625   1.452
91739W        W63999  21.222  30.137   1.749
91740W        W64000   3.786  40.927  13.018
91741W        W64001  35.161  23.213  12.871
91742W        W64002  25.898  31.156  13.028
91743W        W64003  13.819  30.669   1.337
91744W        W64004   2.987  40.443  10.449
91745W        W64005  39.141   9.380  14.500
91746W        W64006  26.440  30.480   2.255
91747W        W64007   4.157   4.492  12.879
91748W        W64008  29.696   4.322   4.874
91749W        W64009  36.795  25.123  10.756
91750W        W64010   9.429  37.734   1.217
91751W        W64011  16.108  38.675  14.953
91752W        W64012  19.724   4.930   3.931
91753W        W64013  42.025   3.783   2.908
91754W        W64014  28.029  18.542   1.350
91755W        W64015  14.139  13.716  13.404
91756W        W64016  33.951   8.668  13.348
91757W        W64017  22.552  28.732   0.446
91758W        W64018   2.075  29.517  13.868
91759W        W64019  37.499   4.538  13.334
91760W        W64020   0.167  43.066   2.804
91761W        W64021  36.358   2.179   0.751
91762W        W64022  26.810  44.690  14.488
91763W        W64023  15.870  26.968  13.380
91764W        W64024   0.949  16.569   4.806
91765W        W64025  38.107   1.925  14.291
91766W        W64026  29.013  42.848   5.103
91767W        W64027   1.094  30.137   2.015
91768W        W64028  19.822  15.607   3.466
91769W        W64029  21.210  13.225   0.800
91770W        W64030  29.539  42.892   5.114
91771W        W64031   4.825  42.581   2.446
91772W        W64032  38.809  19.039   1.183
91773W        W64033   6.180   8.690  10.982
91774W        W64034   4.353  20.481   0.268
91775W        W64035  32.382  39.072  11.732
91776W        W64036  14.525   8.757  11.453
91777W        W64037  34.202  39.516  11.924
91778W        W64038  31.387  14.671  12.119
91779W        W64039  42.947  17.329   4.073
91780W        W64040   9.791  43.722  13.870
91781W        W64041  39.350  20.158   4.058
91782W        W64042   3.196  41.130   2.131
91783W        W64043  10.270  20.801  12.609
91784W        W64044  39.217  25.977  11.192
91785W        W64045  37.592  33.044  10.237
91786W        W64046  10.841  36.840   2.791
91787W        W64047  23.331   5.522  12.205
91788W        W64048   1.215  13.170  13.027
91789W        W64049  13.182   0.859  12.063
91790W        W64050  36.307   4.161  14.881
91791W        W64051  33.803  24.547  11.259
91792W        W64052  26.580  21.297  10.504
91793W        W64053  17.370   8.166   2.728
91794W        W64054  17.003  26.761  13.880
91795W        W64055  40.571  24.947  14.566
91796W        W64056  14.197   0.856   0.789
91797W        W64057  18.602   7.941  11.573
91798W        W64058  13.445  12.519  11.289
91799W        W64059  36.532  37.815   1.905
91800W        W64060   4.288  23.171  14.659
91801W        W64061   6.959  16.691  10.750
91802W        W64062   4.616  27.368  12.522
91803W        W64063  14.763  16.839   1.812
91804W        W64064  11.747   8.089  13.504
91805W        W64065  28.629  38.701   4.552
91806W        W64066  21.026   0.662   5.116
91807W        W64067  30.400  41.028  12.908
91808W        W64068  44.394  26.992  13.825
91809W        W64069  14.504  40.490   0.461
91810W        W64070  38.040  35.435  13.464
91811W        W64071  25.213  19.598  12.389
91812W        W64072  28.030   1.338   3.251
91813W        W64073  20.243  36.002   1.677
91814W        W64074   3.711  34.301  13.989
91815W        W64075   9.655   4.352   1.708
91816W        W64076  24.593  11.641   0.062
91817W        W64077   0.726   7.191  11.431
91818W        W64078  36.469  11.163  14.886
91819W        W64079  23.252  18.261  11.960
91820W        W64080  22.542   2.640   2.721
91821W        W64081   6.147   7.580   5.065
91822W        W64082  33.637  32.503   1.416
91823W        W64083  19.045  30.515  14.958
91824W        W64084   2.799  44.997  14.644
91825W        W64085  21.016   1.234  13.976
91826W        W64086   4.294   9.105   2.437
91827W        W64087  32.992  38.933  14.759
91828W        W64088   7.439  35.385  12.935
91829W        W64089   8.717  36.918   1.253
91830W        W64090  10.451  21.596   4.599
91831W        W64091  25.659  35.402   5.024
91832W        W64092  31.537  29.638  12.353
91833W        W64093  33.934   2.557   3.306
91834W        W64094  32.998  11.171  11.492
91835W        W64095  23.299  14.332   4.968
91836W        W64096  31.330  26.192   0.341
91837W        W64097   2.140  24.187   0.882
91838W        W64098  37.856   1.260  14.909
91839W        W64099   5.896  38.596  13.930
91840W        W64100  34.794   0.759  12.492
91841W        W64101  40.544  43.786  13.034
91842W        W64102  10.085  14.799   0.760
91843W        W64103   7.597   4.253  14.980
91844W        W64104  25.897  30.873   0.811
91845W        W64105  26.995  21.101  13.328
91846W        W64106  39.935  34.369   1.287
91847W        W64107  14.682  12.883   2.928
91848W        W64108  31.091   2.735   2.867
91849W        W64109  42.777  25.606  10.744
91850W        W64110   4.509  33.885  12.007
91851W        W64111   7.906   6.380   3.439
91852W        W64112  31.271  37.109   4.948
91853W        W64113   5.608  33.009  13.108
91854W        W64114  11.235  11.257   3.822
91855W        W64115  39.902   2.097   3.270
91856W        W64116  22.614  26.925  10.551
91857W        W64117   3.740  32.622   0.939
91858W        W64118  41.324  14.280  10.912
91859W        W64119  20.583   3.803   2.227
91860W        W64120  21.762  20.958   2.667
91861W        W64121  19.552  18.118  10.290
91862W        W64122  28.942  13.896  12.925
91863W        W64123  17.499  39.803   3.347
91864W        W64124  16.161  42.713   1.416
91865W        W64125  19.267  38.467  11.689
91866W        W64126  20.147   7.359   1.548
91867W        W64127   9.336  19.492  14.911
91868W        W64128  40.131  41.539   1.711
91869W        W64129  40.905  25.983  14.569
91870W        W64130  11.348  10.896  12.460
91871W        W64131   2.270  38.067   0.426
91872W        W64132  28.733   7.666   0.364
91873W        W64133  13.308  23.938  13.498
91874W        W64134  17.106   8.653  12.937
91875W        W64135  36.859  35.087  11.663
91876W        W64136  31.914  32.184   0.696
91877W        W64137   3.908  29.884   3.227
91878W        W64138  32.623  31.295  14.216
91879W        W64139   9.687   3.453   0.887
91880W        W64140  14.704  19.160  13.881
91881W        W64141  18.042  10.759   1.830
91882W        W64142  24.389  41.947   0.623
91883W        W64143  30.868  39.321  14.271
91884W        W64144  28.540  24.481  11.955
91885W        W64145   9.868   0.802  11.553
91886W        W64146  43.082  42.483   2.027
91887W        W64147  34.906  36.907  11.200
91888W        W64148  29.557   7.012  12.629
91889W        W64149  43.988  13.181   4.407
91890W        W64150  25.058   4.422  12.407
91891W        W64151  16.660  38.965   1.364
91892W        W64152  25.673  19.292  11.507
91893W        W64153   9.323  30.894   4.185
91894W        W64154  39.908  11.870   0.669
91895W        W64155   8.953  23.468  11.076
91896W        W64156  35.882  30.873  13.546
91897W        W64157  41.920  27.712  10.932
91898W        W64158  43.483   2.462  12.498
91899W        W64159  38.006   6.997  10.057
91900W        W64160  42.592  24.562   1.371
91901W        W64161  41.751  28.582  13.588
91902W        W64162  22.435  11.234  14.445
91903W        W64163   2.287   4.116  10.574
91904W        W64164  13.736  23.661   1.652
91905W        W64165  43.461  21.771   2.730
91906W        W64166   0.929  12.030   4.072
91907W        W64167   8.259  12.861   3.366
91908W        W64168   8.618  21.841  11.455
91909W        W64169  25.175   6.081  13.377
91910W        W64170  25.013   7.851  14.218
91911W        W64171   0.151  34.506  11.291
91912W        W64172  31.272  18.312  11.168
91913W        W64173  31.873  38.352   3.687
91914W        W64174  37.293  38.140   0.339
91915W        W64175  12.997   6.218  11.652
91916W        W64176  42.152  11.245  10.050
91917W        W64177   3.948  37.963  12.042
91918W        W64178  22.689  42.792  13.820
91919W        W64179  14.660   8.831   0.719
91920W        W64180   9.280  23.672   2.201
91921W        W64181  40.609   0.339  11.467
91922W        W64182   5.687  39.288  14.073
91923W        W64183  24.469   1.387   1.372
91924W        W64184  16.355  24.872   4.191
91925W        W64185  19.569  28.470  14.465
91926W        W64186  44.949  24.451   2.862
91927W        W64187   8.592  40.026  10.796
91928W        W64188  33.416  42.913   1.476
91929W        W64189  30.935   4.841   4.444
91930W        W64190  15.172  33.463   4.710
91931W        W64191  27.108   5.628   3.117
91932W        W64192   7.771  41.286  13.077
91933W        W64193  13.188  22.961  10.739
91934W        W64194  22.049   3.721   2.394
91935W        W64195   2.173  11.396   3.727
91936W        W64196  38.576   2.392   1.297
91937W        W64197  27.099  12.818  12.190
91938W        W64198  10.308  32.518   0.297
91939W        W64199  10.732  18.977  11.059
91940W        W64200  14.671  39.134  14.116
91941W        W64201  17.574  13.486  11.170
91942W        W64202   8.888   2.684  14.279
91943W        W64203  29.699  11.830   4.185
91944W        W64204  23.340   5.766  13.953
91945W        W64205  25.305  13.234   4.886
91946W        W64206   1.190  41.979   3.764
91947W        W64207  25.647  33.938   0.573
91948W        W64208  41.413  22.687  12.518
91949W        W64209  22.280  33.800   4.128
91950W        W64210  41.004  29.455   4.882
91951W        W64211   1.218  31.890  10.647
91952W        W64212  20.094  33.489   0.718
91953W        W64213  43.031  38.440   4.112
91954W        W64214  44.501   6.696  11.546
91955W        W64215  10.697   4.892  10.671
91956W        W64216  44.742  10.285   1.150
91957W        W64217  34.681   2.992  14.947
91958W        W64218   3.777  42.857   3.811
91959W        W64219  22.735  10.253   4.077
91960W        W64220  27.931  31.622   2.719
91961W        W64221  20.648   5.846   3.842
91962W        W64222   6.610  44.775  14.281
91963W        W64223  17.763   2.403   2.826
91964W        W64224  16.943  23.287   0.905
91965W        W64225   4.195  13.255  14.940
91966W        W64226  12.123  24.660   4.123
91967W        W64227  32.208  17.800  11.988
91968W        W64228   8.995  22.815   1.247
91969W        W64229  18.203  26.014   0.249
91970W        W64230  24.683  38.305   3.191
91971W        W64231  35.625  24.123  11.411
91972W        W64232   0.543  28.456  13.319
91973W        W64233   5.906  29.775  11.140
91974W        W64234  34.591  42.827  10.332
91975W        W64235  16.230   1.944  10.743
91976W        W64236   7.753   8.112  13.721
91977W        W64237  19.570  36.626   2.714
91978W        W64238  12.181  40.907  13.315
91979W        W64239  21.310  30.889   2.203
91980W        W64240  10.716  20.780  10.802
91981W        W64241  44.308  10.523   0.940
91982W        W64242  12.708   9.745   4.628
91983W        W64243  13.831  24.086  13.954
91984W        W64244  25.486  38.840  10.211
91985W        W64245  23.535   6.598   2.934
91986W        W64246  25.012  16.435  12.360
91987W        W64247  41.094   2.544  11.616
91988W        W64248  31.175  39.683  14.484
91989W        W64249  37.783   6.723  14.869
91990W        W64250  18.243   9.710   3.411
91991W        W64251  14.246   2.401  11.217
91992W        W64252   0.198  27.671   0.454
91993W        W64253  37.805  13.616  10.584
91994W        W64254  36.647  27.266   2.427
91995W        W64255  24.121  18.582  12.167
91996W        W64256  28.136  23.793   2.783
91997W        W64257  11.396   1.285   1.356
91998W        W64258  12.020  40.547   4.656
91999W        W64259  37.259   9.937  14.088
92000W        W64260  10.072  29.424  11.034
92001W        W64261  18.077  36.032  11.071
92002W        W64262  12.666   9.371  13.259
92003W        W64263  23.684  19.780  11.492
92004W        W64264  18.083  11.478  11.083
92005W        W64265   0.695  12.039   2.733
92006W        W64266  42.450  21.094  11.621
92007W        W64267  27.233  38.266  13.418
92008W        W64268  12.150   4.659   0.852
92009W        W64269   0.439  15.168  12.180
92010W        W64270  39.759  40.105  14.373
92011W        W64271  34.358  10.496  11.164
92012W        W64272  10.675  32.431  12.969
92013W        W64273  28.988  43.213   3.188
92014W        W64274   3.853   5.341   0.977
92015W        W64275   8.634  12.989   0.046
92016W        W64276  25.602  22.703   1.132
92017W        W64277  18.193  15.873   1.277
92018W        W64278  14.412  22.234  11.971
92019W        W64279  39.870   3.004   2.948
92020W        W64280   8.889  17.082  12.866
92021W        W64281  12.608  30.438   4.549
92022W        W64282   2.416  21.048  14.774
92023W        W64283  20.704  14.045   0.097
92024W        W64284  26.346   4.185  11.070
92025W        W64285  16.518  27.113  12.273
92026W        W64286  35.603  11.097  12.547
92027W        W64287  27.599  33.675   3.824
92028W        W64288   6.981  18.590  12.603
92029W        W64289  39.328  26.185  14.897
92030W        W64290   5.217  32.155  14.845
92031W        W64291  18.864  25.395  11.899
92032W        W64292  24.292  22.001  11.081
92033W        W64293   8.759  17.788  12.103
92034W        W64294  15.219  42.736   3.509
92035W        W64295  30.587  12.847   2.703
92036W        W64296  30.121  36.830  13.051
92037W        W64297   6.403  16.791   0.789
92038W        W64298  35.756  42.627   1.915
92039W        W64299  25.462   1.238  11.085
92040W        W64300  42.453   0.597  14.224
92041W        W64301  38.472  30.084  14.939
92042W        W64302  32.417  25.619  12.073
92043W        W64303  13.178   6.895  12.956
92044W        W64304  20.813  23.172  13.548
92045W        W64305  15.096   4.755  11.005
92046W        W64306  16.341  29.012   1.469
92047W        W64307  16.147  14.223  11.498
92048W        W64308  35.118  18.108  14.973
92049W        W64309  13.781  19.693   1.328
92050W        W64310   5.640  40.645  11.151
92051W        W64311   3.472  18.348   4.370
92052W        W64312  27.579  32.296  11.065
92053W        W64313  41.495  28.627   4.482
92054W        W64314  28.077   6.840  12.623
92055W        W64315  32.444  20.949  14.882
92056W        W64316  13.419  40.306  10.795
92057W        W64317  31.500   2.061  11.240
92058W        W64318  22.299   1.372  10.752
92059W        W64319  40.381  18.492   3.320
92060W        W64320   5.017  40.402  10.490
92061W        W64321  28.941  29.558   4.618
92062W        W64322  39.936  20.795  13.126
92063W        W64323  22.098  24.656  10.335
92064W        W64324  35.665  40.866   1.278
92065W        W64325  38.057   7.166  12.793
92066W        W64326  37.053   8.249  13.900
92067W        W64327  43.662  36.546   0.323
92068W        W64328   0.775   6.653  14.097
92069W        W64329  12.564  12.193   0.300
92070W        W64330  42.831  23.666  11.848
92071W        W64331  28.090  41.394  13.828
92072W        W64332  30.498  21.752  11.200
92073W        W64333  33.903  35.380   3.936
92074W        W64334   6.381  28.506   3.855
92075W        W64335  23.384  32.624  13.291
92076W        W64336  20.737  42.780  12.904
92077W        W64337   9.713   6.795   0.434
92078W        W64338  41.622   5.132   0.282
92079W        W64339  38.537  41.062   1.430
92080W        W64340  27.571   4.839   3.186
92081W        W64341  42.865   3.152  12.934
92082W        W64342  28.139  34.297   3.209
92083W        W64343  15.858  36.518  10.946
92084W        W64344  19.048  34.103  14.417
92085W        W64345   9.608  32.061  12.695
92086W        W64346  44.206   6.702  10.708
92087W        W64347  32.896  39.585  11.620
92088W        W64348   2.020   6.354  14.218
92089W        W64349   3.320  15.470  14.877
92090W        W64350  44.885  23.228  12.303
92091W        W64351  28.992   2.163   2.323
92092W        W64352   5.898  28.109   1.264
92093W        W64353  29.902  31.136   1.961
92094W        W64354  25.945  18.730  11.961
92095W        W64355  36.635  22.981   3.324
92096W        W64356  32.259  17.752   2.127
92097W        W64357  23.758  17.652  13.067
92098W        W64358  30.943  14.513   0.843
92099W        W64359   9.111  44.363  13.872
92100W        W64360  27.694  32.087   4.551
92101W        W64361   4.424  30.886   4.832
92102W        W64362  43.610  33.397   4.176
92103W        W64363   3.052  15.487  11.165
92104W        W64364  27.864   4.424  14.548
92105W        W64365  44.854  44.089   3.287
92106W        W64366  26.651  40.002  14.215
92107W        W64367  16.076  31.998   3.825
92108W        W64368  22.116  43.075  11.130
92109W        W64369  12.950   2.152   1.845
92110W        W64370  27.174  34.819  13.552
92111W        W64371  42.291  27.044  10.535
92112W        W64372  43.199  17.272   1.219
92113W        W64373  12.882  18.225   4.270
92114W        W64374  20.250  36.391   1.328
92115W        W64375  36.833  37.462  14.999
92116W        W64376  26.159  41.860   5.471
92117W        W64377   8.952  41.566   2.703
92118W        W64378  15.703  17.099   1.702
92119W        W64379  25.666  42.825   1.977
92120W        W64380  42.418   1.324  11.049
92121W        W64381  42.439  17.813   3.648
92122W        W64382   7.417  28.308   9.839
92123W        W64383  25.694  33.577  10.261
92124W        W64384  19.776  32.668   2.838
92125W        W64385  25.346  29.592  11.597
92126W        W64386   3.341  15.069   2.069
92127W        W64387  26.697   3.674   4.532
92128W        W64388  12.490  25.604   2.887
92129W        W64389  17.818   5.254   9.932
92130W        W64390   1.765  41.965  12.178
92131W        W64391  31.341  38.905  11.143
92132W        W64392  10.801   5.728   2.191
92133W        W64393  13.560   5.422   0.970
92134W        W64394  28.936   0.968   4.597
92135W        W64395   1.766  30.563   4.036
92136W        W64396  23.800   6.463  12.545
92137W        W64397   6.845  12.102  11.293
92138W        W64398  16.753  38.792  13.256
92139W        W64399  14.050  24.569  12.459
92140W        W64400  37.499  34.555   1.858
92141W        W64401   8.805  38.208  13.950
92142W        W64402  12.415  42.057   2.742
92143W        W64403   1.290  10.042   4.852
92144W        W64404  17.511   4.953  12.190
92145W        W64405   1.381  41.826  11.507
92146W        W64406  16.602  11.149  14.437
92147W        W64407  22.719  31.395  13.548
92148W        W64408  15.134   6.745   3.294
92149W        W64409  38.772  12.419  12.747
92150W        W64410  35.770  32.529   2.115
92151W        W64411  28.527  26.126   2.448
92152W        W64412   5.207  40.263   1.479
92153W        W64413   7.596  10.621  10.748
92154W        W64414   8.411  33.023  11.124
92155W        W64415  10.719  41.520  10.603
92156W        W64416   2.134  39.392  12.546
92157W        W64417   6.857   9.329   3.691
92158W        W64418  18.604  41.968  12.009
92159W        W64419  29.405   6.749   2.653
92160W        W64420  39.060  35.149  13.140
92161W        W64421  18.643  27.677   1.968
92162W        W64422  22.000  18.598   3.202
92163W        W64423   7.760  36.053   3.070
92164W        W64424   6.384  38.105  10.673
92165W        W64425  41.401   2.472   1.047
92166W        W64426  35.109  35.490   0.015
92167W        W64427   3.304  23.320   3.535
92168W        W64428  22.446  18.106  10.568
92169W        W64429  13.386  35.404  11.061
92170W        W64430  29.207  14.397   1.139
92171W        W64431   2.291  33.771   0.921
92172W        W64432  17.895  18.773   3.360
92173W        W64433  15.944  40.987   4.516
92174W        W64434  34.154  28.199   3.267
92175W        W64435   6.155  21.936   2.532
92176W        W64436  43.395  33.866  13.575
92177W        W64437  39.085  37.904   2.567
92178W        W64438  13.301   1.738  14.445
92179W        W64439  11.622  30.747  11.596
92180W        W64440   0.055  39.585   1.312
92181W        W64441  15.026   1.937  13.885
92182W        W64442   7.912  19.515  13.799
92183W        W64443  25.681  42.181  12.943
92184W        W64444  39.475  11.413   4.629
92185W        W64445  25.871  21.138   0.002
92186W        W64446  27.812  19.670   3.669
92187W        W64447   9.676  18.946   1.281
92188W        W64448  10.148  40.614   2.532
92189W        W64449  23.954  10.253   0.336
92190W        W64450  30.094  40.157  11.231
92191W        W64451  35.407  33.441   0.291
92192W        W64452   3.395   2.572   3.797
92193W        W64453  41.848   6.415  10.823
92194W        W64454  19.122  19.687  12.223
92195W        W64455   9.594  12.140  14.877
92196W        W64456  12.311  13.420   4.163
92197W        W64457  26.018  21.878  11.051
92198W        W64458  30.521  36.274  14.344
92199W        W64459  12.184  14.045   1.071
92200W        W64460  10.163   3.792  14.467
92201W        W64461   8.602  39.788  11.997
92202W        W64462  29.051  35.333   1.320
92203W        W64463  17.055  33.632  14.795
92204W        W64464  16.616   5.405  11.823
92205W        W64465   4.026  21.729  14.593
92206W        W64466  24.579  19.607   4.548
92207W        W64467  28.983  21.254  13.001
92208W        W64468   7.897  44.053   1.282
92209W        W64469  42.319  29.537  13.791
92210W        W64470  27.601  10.335   3.090
92211W        W64471  41.949  12.584  13.538
92212W        W64472  40.510   8.316  14.319
92213W        W64473  22.077   4.394  12.737
92214W        W64474   9.162  37.837  13.782
92215W        W64475  37.956  13.913  12.301
92216W        W64476  17.316  26.013   3.501
92217W        W64477  33.483  30.082  12.124
92218W        W64478  13.566  35.304  12.358
92219W        W64479  25.063  40.190  13.469
92220W        W64480  12.377  35.112   2.182
92221W        W64481  27.552   9.179  14.040
92222W        W64482  18.009  15.325   3.719
92223W        W64483  32.355  32.949  13.042
92224W        W64484  38.256  31.184   4.201
92225W        W64485  27.028  16.752   3.309
92226W        W64486  23.104  25.658   3.316
92227W        W64487  29.495  21.991   4.618
92228W        W64488  32.115  34.256  10.662
92229W        W64489  30.513  24.255   4.938
92230W        W64490  15.376   5.808   3.096
92231W        W64491  13.165  38.443   3.203
92232W        W64492  18.659  26.459   0.969
92233W        W64493  17.785  14.866   2.180
92234W        W64494  23.091  23.416   2.465
92235W        W64495  29.006  33.208   2.842
92236W        W64496  12.393   1.288   2.778
92237W        W64497  15.031  10.893  14.369
92238W        W64498  21.936  21.212  10.565
92239W        W64499  29.206  11.901  14.276
92240W        W64500  29.912  25.224  13.505
92241W        W64501  15.111  21.988  13.906
92242W        W64502  38.313  13.381   0.478
92243W        W64503  28.433  37.444  10.931
92244W        W64504  38.195  11.209   0.997
92245W        W64505  19.587  31.940  13.813
92246W        W64506  29.682  32.590   9.732
92247W        W64507  44.204  21.791   3.274
92248W        W64508  31.143  22.582   1.974
92249W        W64509  35.338  19.051   3.209
92250W        W64510  13.549  21.541   0.432
92251W        W64511  12.087  17.277  11.590
92252W        W64512  30.141  19.154  13.437
92253W        W64513  30.671   3.527   3.713
92254W        W64514  22.505  28.644  12.373
92255W        W64515   7.228  15.213   3.222
92256W        W64516  43.280  29.672  12.932
92257W        W64517  44.778   3.382   3.061
92258W        W64518   0.169  37.423  14.770
92259W        W64519   4.954  19.237   4.191
92260W        W64520  32.810  19.593   4.563
92261W        W64521  35.751  42.013   4.720
92262W        W64522  15.259  21.325  12.435
92263W        W64523  34.641  22.024  11.248
92264W        W64524  16.363  16.340  13.965
92265W        W64525  37.967  28.437  14.367
92266W        W64526   0.304  39.508   0.433
92267W        W64527  13.321   6.763   4.357
92268W        W64528  18.708   8.129   4.621
92269W        W64529   0.410  13.666  12.964
92270W        W64530  34.458  39.336  13.759
92271W        W64531  39.613   2.233   0.946
92272W        W64532  33.136   9.718   0.789
92273W        W64533  20.803  29.682  11.810
92274W        W64534  14.880  14.153  10.208
92275W        W64535  44.407  23.743  10.930
92276W        W64536  20.100  15.836   4.286
92277W        W64537  27.032  32.294  12.034
92278W        W64538  22.271  26.805  11.992
92279W        W64539  36.458  31.398   0.266
92280W        W64540  20.188  33.328  11.578
92281W        W64541  26.990  38.834  11.967
92282W        W64542  17.836  22.036  11.554
92283W        W64543  43.475   8.185  10.885
92284W        W64544   8.203   9.240  10.462
92285W        W64545   0.976  15.400  14.460
92286W        W64546  32.916  17.394  11.525
92287W        W64547   8.144  37.956   0.082
92288W        W64548  40.206  16.077  11.078
92289W        W64549  38.994  44.729  11.469
92290W        W64550  17.157   4.359   1.219
92291W        W64551  42.679  21.531  11.385
92292W        W64552  43.296  27.370   4.548
92293W        W64553   7.727   7.863  14.624
92294W        W64554  21.242  35.671  12.063
92295W        W64555  18.762  37.765   1.202
92296W        W64556  15.218   1.363   3.019
92297W        W64557   6.688  27.487  11.817
92298W        W64558   5.330  40.273   4.500
92299W        W64559   4.805  34.065   2.193
92300W        W64560  18.163  23.186  11.738
92301W        W64561   1.321  18.102  14.390
92302W        W64562  17.655  16.034  14.850
92303W        W64563  10.876  39.481   4.540
92304W        W64564  39.274  12.606   1.904
92305W        W64565  13.217  33.694  14.327
92306W        W64566  25.000  10.120  11.572
92307W        W64567  21.173  40.858   0.929
92308W        W64568   3.449   3.072   2.406
92309W        W64569  15.567  28.522  10.648
92310W        W64570  34.235  18.046   9.742
92311W        W64571   9.209  22.498   0.861
92312W        W64572  23.470  13.359   2.127
92313W        W64573  17.859  37.663   0.817
92314W        W64574  16.765  19.520  11.221
92315W        W64575  42.621   2.218   0.899
92316W        W64576  18.043   3.526  13.817
92317W        W64577  36.599  42.769  11.254
92318W        W64578   5.129  15.237   4.453
92319W        W64579  35.958  38.674   1.863
92320W        W64580  26.513   2.861   3.967
92321W        W64581  42.425  24.501  13.572
92322W        W64582  21.415  30.623  14.375
92323W        W64583   2.750  38.552  14.516
92324W        W64584  27.274   6.205   1.182
92325W        W64585  22.701   7.240  13.713
92326W        W64586  28.968   1.677  12.448
92327W        W64587  30.946  36.656   2.362
92328W        W64588  42.546  26.552  13.872
92329W        W64589  38.156  31.048  13.405
92330W        W64590  34.842  21.740  14.761
92331W        W64591  28.026  20.294  14.840
92332W        W64592  20.921  16.710   1.037
92333W        W64593  37.731  41.192   3.030
92334W        W64594  36.975  24.273   1.017
92335W        W64595  41.034  11.995  12.449
92336W        W64596   4.176  27.695   2.746
92337W        W64597  43.565  10.946   1.769
92338W        W64598  40.542   6.133  14.983
92339W        W64599  38.818  20.194  14.645
92340W        W64600  37.673  34.407  12.464
92341W        W64601  31.051  40.315  12.245
92342W        W64602  38.520  10.178  11.588
92343W        W64603  41.973  29.408   4.486
92344W        W64604  22.504  37.761  12.781
92345W        W64605  17.803  32.495  12.580
92346W        W64606   7.397  29.791  14.296
92347W        W64607  39.602  38.345   1.372
92348W        W64608  25.035   6.677  11.591
92349W        W64609  23.011  43.047   1.368
92350W        W64610  19.184   7.506   5.033
92351W        W64611  12.783  39.717  14.385
92352W        W64612  39.784   1.317  14.407
92353W        W64613  12.159  31.398  12.102
92354W        W64614  24.633  21.432   2.370
92355W        W64615   5.234  34.988  10.668
92356W        W64616   2.316  30.596   1.414
92357W        W64617  14.389  44.760   0.353
92358W        W64618  44.460  21.246  11.423
92359W        W64619  33.986  30.998   3.825
92360W        W64620  43.779  40.926  14.439
92361W        W64621  43.522  17.328  12.889
92362W        W64622  11.899   6.155   4.608
92363W        W64623  22.599  11.119   3.379
92364W        W64624  41.854  43.486   0.347
92365W        W64625   7.180  17.568   1.814
92366W        W64626  37.887  27.671   3.808
92367W        W64627  34.655  14.548   4.126
92368W        W64628  32.168  25.319   3.260
92369W        W64629  21.050  18.118   4.745
92370W        W64630  42.322   7.168  14.910
92371W        W64631  12.057  28.983   3.653
92372W        W64632  41.461  19.010   1.242
92373W        W64633  39.542  39.085   0.815
92374W        W64634  13.671   1.684  11.582
92375W        W64635  19.856  42.396  12.001
92376W        W64636  29.112  21.706  12.153
92377W        W64637   9.720  23.722   1.894
92378W        W64638  18.006  17.650  13.006
92379W        W64639   9.789   7.743  13.283
92380W        W64640  42.993   1.912  13.995
92381W        W64641   7.863  22.155  11.909
92382W        W64642  10.677  43.220  14.018
92383W        W64643  20.059  38.955   4.653
92384W        W64644  39.856   6.353   0.246
92385W        W64645  10.837  10.237   2.727
92386W        W64646  37.061   7.495   2.194
92387W        W64647  34.324   5.377   2.865
92388W        W64648   1.748  35.276  11.086
92389W        W64649  28.005  15.979  14.048
92390W        W64650  10.713  13.645  11.619
92391W        W64651  34.381   7.693  11.481
92392W        W64652  23.477  42.296  14.769
92393W        W64653  28.357  19.600   2.206
92394W        W64654  11.634  14.272  13.025
92395W        W64655   2.721  19.684  12.517
92396W        W64656   5.653  40.489   4.164
92397W        W64657  41.720   9.896   2.769
92398W        W64658  20.270  28.002  11.754
92399W        W64659  15.475  14.690   3.089
92400W        W64660  17.558  24.951   1.744
92401W        W64661   4.995  16.340  12.071
92402W        W64662  14.075  12.220   0.446
92403W        W64663  16.324  37.667  14.862
92404W        W64664  28.115  44.186   5.053
92405W        W64665  18.022   4.824   0.783
92406W        W64666  25.091  27.884  13.804
92407W        W64667  18.227  20.745   0.807
92408W        W64668  29.040  11.260   3.815
92409W        W64669  34.168  19.588   1.823
92410W        W64670  21.091  17.985   0.203
92411W        W64671  40.459   1.010  12.121
92412W        W64672  35.175   9.854  11.627
92413W        W64673  20.226  35.276  13.912
92414W        W64674  30.584  20.996  14.790
92415W        W64675  22.777   1.332  12.573
92416W        W64676  13.693  26.856  10.020
92417W        W64677  22.690  34.148   4.544
92418W        W64678  12.099  19.338   1.637
92419W        W64679  39.438  19.690   0.328
92420W        W64680  17.838  34.489  13.970
92421W        W64681  30.949  23.307  11.039
92422W        W64682  16.645   2.899  13.789
92423W        W64683  18.737  44.661  11.482
92424W        W64684  11.318  40.804  11.606
92425W        W64685  11.169  11.607   2.272
92426W        W64686  44.974  37.988  14.325
92427W        W64687  36.144  10.711  11.475
92428W        W64688  43.840  40.501   1.167
92429W        W64689  41.865  13.319   2.218
92430W        W64690  17.688  21.559  12.312
92431W        W64691  18.012   3.246  12.783
92432W        W64692  43.511  39.990  12.355
92433W        W64693  22.967   8.793  11.121
92434W        W64694  25.449  36.462  12.424
92435W        W64695  20.039   4.303   1.889
92436W        W64696  18.051  21.600   1.307
92437W        W64697  24.552  11.393   0.512
92438W        W64698  23.939   3.709  10.670
92439W        W64699  31.113  12.794  12.676
92440W        W64700  19.205  17.552   4.232
92441W        W64701  20.249  37.403  10.722
92442W        W64702  16.839  35.529  10.940
92443W        W64703  40.427  29.359   4.210
92444W        W64704  21.532  20.324   3.937
92445W        W64705  35.113  43.458  11.173
92446W        W64706   9.761  40.145   0.854
92447W        W64707  18.674  17.252   4.575
92448W        W64708  42.271  17.662  12.438
92449W        W64709  25.534   0.245   5.230
92450W        W64710  18.538  16.178  14.372
92451W        W64711  15.321  15.616  13.281
92452W        W64712  12.879  25.616  14.891
92453W        W64713   1.795  22.326  10.972
92454W        W64714   4.366  43.359  10.565
92455W        W64715  14.146  33.234  14.294
92456W        W64716  24.656  42.885   4.049
92457W        W64717   4.741   7.172  10.750
92458W        W64718   5.365  39.113   0.949
92459W        W64719   6.596  31.982  14.028
92460W        W64720  23.959  27.604  13.125
92461W        W64721   1.646  21.542  14.593
92462W        W64722  15.073  20.948   3.208
92463W        W64723  35.533  42.959  14.909
92464W        W64724  17.370  37.055  12.212
92465W        W64725  27.466  29.225   1.703
92466W        W64726  29.957   1.327   0.790
92467W        W64727  27.002  23.631  11.946
92468W        W64728  35.321  36.533   2.640
92469W        W64729   5.369  18.229   2.735
92470W        W64730   0.915  31.847   2.986
92471W        W64731   5.858  25.613  10.250
92472W        W64732  12.557  20.583   0.214
92473W        W64733  40.845  11.735   4.028
92474W        W64734  26.543  39.507  11.361
92475W        W64735  17.572   7.644   3.633
92476W        W64736  35.622  15.380  14.082
92477W        W64737  38.632  23.573   0.332
92478W        W64738   2.909   2.390   2.693
92479W        W64739  44.421  24.397  14.090
92480W        W64740  38.481  22.707  12.852
92481W        W64741  11.630   9.731  11.999
92482W        W64742  24.547  26.810   2.654
92483W        W64743  32.629  17.199   2.120
92484W        W64744  16.642  13.801  10.391
92485W        W64745  42.820  27.892  13.426
92486W        W64746  29.611  36.018  12.968
92487W        W64747  43.345  15.259  13.885
92488W        W64748  27.883  33.153   4.838
92489W        W64749  23.046   0.672   3.666
92490W        W64750  44.226   3.873  12.580
92491W        W64751  12.593  18.103   0.102
92492W        W64752  22.991  29.976   1.520
92493W        W64753   9.610  39.950  11.177
92494W        W64754  43.590  39.342  10.765
92495W        W64755  39.535   4.138  12.074
92496W        W64756  38.743   4.913   2.471
92497W        W64757  41.716   9.776  12.982
92498W        W64758  29.176  27.727   3.398
92499W        W64759   2.187  37.092   1.308
92500W        W64760   7.029  21.611  12.194
92501W        W64761  43.235  21.598   0.979
92502W        W64762  23.758   1.416  11.369
92503W        W64763  21.466  18.067   1.369
92504W        W64764  22.122  39.378  10.579
92505W        W64765  16.336  17.266  13.850
92506W        W64766   5.594  21.600   1.797
92507W        W64767  44.317   2.015  11.580
92508W        W64768  28.902  32.372   1.767
92509W        W64769  39.352  24.534   0.807
92510W        W64770   2.170   4.689   4.907
92511W        W64771  17.567   5.136  12.664
92512W        W64772  43.705   5.878   4.120
92513W        W64773  43.161  42.952   2.819
92514W        W64774  31.281  31.018  11.135
92515W        W64775  31.616  33.862   0.951
92516W        W64776  21.817  38.909   3.394
92517W        W64777   3.513  22.266  13.346
92518W        W64778  22.255  36.847  13.793
92519W        W64779  11.197   9.269  10.707
92520W        W64780  12.370   3.906   3.141
92521W        W64781   6.185   5.726  12.917
92522W        W64782  13.368  29.805  12.714
92523W        W64783  42.263  12.335  11.173
92524W        W64784  39.347  37.528   2.831
92525W        W64785   9.986  25.576  13.356
92526W        W64786   9.713  14.135   3.570
92527W        W64787   9.617   7.334  12.064
92528W        W64788  26.272  24.138  12.398
92529W        W64789  16.907  36.035   1.532
92530W        W64790  17.138  23.697  13.405
92531W        W64791  38.633  41.846  11.701
92532W        W64792  25.077  16.882   0.640
92533W        W64793  15.329  21.521  14.999
92534W        W64794  24.715  43.405   1.355
92535W        W64795   7.735  32.879   0.442
92536W        W64796  15.047  33.057   0.225
92537W        W64797  17.405  11.967   0.893
92538W        W64798  14.754  25.750   2.439
92539W        W64799  36.894   7.364  14.510
92540W        W64800  44.299   5.431  13.249
92541W        W64801   7.694  38.421   4.466
92542W        W64802   3.608   4.453  10.865
92543W        W64803  28.373  39.149   4.625
92544W        W64804  20.739  38.256   0.437
92545W        W64805  30.612  22.032  13.409
92546W        W64806  21.908   9.729  12.031
92547W        W64807   3.297  35.665  11.517
92548W        W64808  42.072  10.880  11.241
92549W        W64809  23.250   3.297  13.540
92550W        W64810  31.987   9.398   5.147
92551W        W64811  17.256  17.245   1.381
92552W        W64812  17.563  35.194   1.677
92553W        W64813  11.754  16.224   3.628
92554W        W64814   9.719  23.619   1.372
92555W        W64815  17.083  29.087   0.744
92556W        W64816  16.601  32.877  14.887
92557W        W64817  38.695  32.229   3.715
92558W        W64818  12.376  31.580   4.311
92559W        W64819  42.153   7.383  11.862
92560W        W64820  33.390   1.683  10.288
92561W        W64821  33.858   4.870  13.038
92562W        W64822   1.488  16.203   3.731
92563W        W64823  36.455   4.852   0.423
92564W        W64824   3.453  16.497  13.898
92565W        W64825  37.086  33.892   1.263
92566W        W64826   7.685   4.172  11.114
92567W        W64827  40.922  16.047  12.055
92568W        W64828  29.699  32.312   5.486
92569W        W64829  25.691  18.301  11.639
92570W        W64830  29.965  30.061  10.179
92571W        W64831  23.279  33.884  11.437
92572W        W64832  14.777  41.570   2.224
92573W        W64833  33.453  19.835  14.346
92574W        W64834  22.251  25.631  11.884
92575W        W64835   7.145  37.578   1.725
92576W        W64836  21.590  26.065   0.979
92577W        W64837  25.253  14.172   4.538
92578W        W64838  25.713  33.667  14.141
92579W        W64839  18.657  44.124  13.284
92580W        W64840  40.124  43.829   4.794
92581W        W64841   4.672  43.402   1.411
92582W        W64842  20.912  15.013   1.339
92583W        W64843  15.678  21.538   3.901
92584W        W64844  30.937  28.783  13.799
92585W        W64845  24.718   7.282   1.321
92586W        W64846  24.620  38.982  10.239
92587W        W64847  42.050  23.470   3.207
92588W        W64848  24.226  32.174   1.488
92589W        W64849  37.572  15.641  14.707
92590W        W64850  33.880  17.180  10.903
92591W        W64851   7.262   3.679   1.776
92592W        W64852  27.676   5.731   0.747
92593W        W64853  31.652   8.726   4.538
92594W        W64854  20.574  40.323   1.297
92595W        W64855   2.007   0.770  10.751
92596W        W64856   8.032  43.309   0.668
92597W        W64857   2.460  28.319  12.068
92598W        W64858  37.421  15.458   4.693
92599W        W64859   1.431  44.708  14.957
92600W        W64860  29.947   8.395   3.605
92601W        W64861  22.045   6.365   3.711
92602W        W64862  22.225  22.412  14.458
92603W        W64863   3.840   7.606   3.687
92604W        W64864  37.068  24.120   3.606
92605W        W64865  27.233  13.383  11.972
92606W        W64866   6.693  42.414  14.426
92607W        W64867  30.013  27.518  10.978
92608W        W64868   2.788   2.293   4.597
92609W        W64869  27.045  35.118  10.361
92610W        W64870   1.717  31.790  11.638
92611W        W64871  15.060  31.534  12.497
92612W        W64872  21.002  28.195  13.094
92613W        W64873  28.380   6.817   2.389
92614W        W64874   2.194  11.639   4.575
92615W        W64875   3.756  10.855   0.249
92616W        W64876   0.968  28.065   4.522
92617W        W64877  39.036  44.078   2.398
92618W        W64878   9.277   7.136  10.629
92619W        W64879  44.870  21.818  13.000
92620W        W64880  41.453  11.631   1.415
92621W        W64881  14.570  43.977  13.394
92622W        W64882  16.042  10.179   0.278
92623W        W64883  31.949  33.750   4.967
92624W        W64884  21.074  31.334   4.103
92625W        W64885  20.305   4.568  13.347
92626W        W64886   7.242  20.594   1.403
92627W        W64887  30.618   3.242   4.165
92628W        W64888  20.041  34.589   2.644
92629W        W64889  41.321  14.266   1.274
92630W        W64890  24.056  28.430  11.685
92631W        W64891  15.857  28.750  13.071
92632W        W64892  20.202  33.392   2.255
92633W        W64893  24.304  42.879   1.899
92634W        W64894   4.970  21.577  14.223
92635W        W64895  32.096  27.364  12.778
92636W        W64896  37.566  17.135   4.370
92637W        W64897  10.751  40.430   0.824
92638W        W64898  13.878  36.061   3.979
92639W        W64899  24.587   5.095  13.009
92640W        W64900  18.237  13.990   5.120
92641W        W64901  39.506  32.715  12.101
92642W        W64902   3.961  40.811   1.219
92643W        W64903   1.005   9.505  14.368
92644W        W64904  39.323  11.576  14.965
92645W        W64905   6.179  15.260   4.428
92646W        W64906  40.359  12.108  10.828
92647W        W64907  41.485   8.244   0.356
92648W        W64908  25.030  13.690  13.559
92649W        W64909  44.861  16.222   1.940
92650W        W64910  29.355  33.613   4.106
92651W        W64911  19.314  23.510  11.671
92652W        W64912  26.458  37.326  13.843
92653W        W64913  36.382  12.140   3.647
92654W        W64914  22.880   0.303   3.291
92655W        W64915   4.812  42.609   2.956
92656W        W64916  35.690  13.520   2.333
92657W        W64917  28.422   1.854   4.636
92658W        W64918  34.532   9.245  12.871
92659W        W64919  27.189  24.702  12.850
92660W        W64920  29.029  42.757   2.456
92661W        W64921  22.636  21.238  13.950
92662W        W64922  18.055  15.559   4.174
92663W        W64923  37.063  14.606   1.119
92664W        W64924  16.452  24.041  11.589
92665W        W64925  17.124   8.217   0.020
92666W        W64926  20.076  30.372  13.147
92667W        W64927  12.125  37.395   2.668
92668W        W64928  23.827  35.839   3.737
92669W        W64929   2.352  41.532   3.878
92670W        W64930  12.368  44.417  11.419
92671W        W64931  26.198  17.282  12.031
92672W        W64932  25.253  37.806  14.266
92673W        W64933   2.284  41.545  10.721
92674W        W64934  34.493  12.635  13.558
92675W        W64935  24.046   7.374   3.312
92676W        W64936  27.725  31.961  14.956
92677W        W64937  28.189   0.201  12.437
92678W        W64938  33.313  36.320   3.076
92679W        W64939  36.950  16.242   2.470
92680W        W64940   2.257   9.428  10.984
92681W        W64941  14.693  39.317   3.098
92682W        W64942  40.745  42.303   0.556
92683W        W64943  37.027  31.661   2.290
92684W        W64944  20.602  32.305   3.378
92685W        W64945   2.444  44.225   5.050
92686W        W64946  10.812  25.057   1.376
92687W        W64947  25.640  38.563   9.806
92688W        W64948  25.930  21.562  14.051
92689W        W64949   3.274  19.420  10.913
92690W        W64950  11.705  21.565   1.939
92691W        W64951  11.495  25.128   4.513
92692W        W64952  30.462  29.761   3.785
92693W        W64953  15.231  29.130   3.573
92694W        W64954  25.036   5.227  11.861
92695W        W64955   0.850  22.142   4.696
92696W        W64956  24.777  11.457   2.359
92697W        W64957  35.337  10.567  13.506
92698W        W64958  29.386  36.457   0.204
92699W        W64959  19.375   4.128   4.149
92700W        W64960  42.016  10.599   0.762
92701W        W64961  32.549  10.157   2.658
92702W        W64962   1.408  25.718   3.775
92703W        W64963  14.825  12.728  13.828
92704W        W64964  35.081  20.658   1.852
92705W        W64965  18.511   9.779  12.384
92706W        W64966   2.701   0.254  13.794
92707W        W64967  31.520  37.379  11.571
92708W        W64968  44.940  36.521   3.584
92709W        W64969  21.597   0.963  12.819
92710W        W64970  34.439   8.406   1.414
92711W        W64971   4.677   0.961  13.615
92712W        W64972  17.307  14.444  14.452
92713W        W64973  26.141  19.541  11.530
92714W        W64974  29.834   4.270  13.371
92715W        W64975   0.966  13.337   3.223
92716W        W64976  34.244  41.334  12.138
92717W        W64977   5.308  23.346  14.290
92718W        W64978  37.975   1.162  10.904
92719W        W64979   9.706  43.680  11.119
92720W        W64980   5.691   2.792   4.035
92721W        W64981  32.202  43.492  13.011
92722W        W64982  42.360  27.009   4.726
92723W        W64983  34.458  21.633   0.494
92724W        W64984  33.670  34.156  13.490
92725W        W64985  28.996  39.989  10.507
92726W        W64986  19.535  30.430   4.242
92727W        W64987   8.359  20.812   1.972
92728W        W64988  12.955  25.187  14.615
92729W        W64989  25.825   2.351   1.900
92730W        W64990  26.905  39.302   0.471
92731W        W64991  40.973  34.875  13.811
92732W        W64992  29.092  10.609  12.100
92733W        W64993   0.901  27.415  10.657
92734W        W64994  14.326  33.934  13.505
92735W        W64995  34.927  23.310  11.174
92736W        W64996  41.944   5.642   1.314
92737W        W64997  13.536  12.024  14.416
92738W        W64998   4.302  34.414  10.656
92739W        W64999   8.832   6.118   1.286
92740W        W65000  11.105   3.418  11.136
92741W        W65001  26.044   5.188   0.207
92742W        W65002  44.250   9.668   4.591
92743W        W65003  34.486  20.721  12.414
92744W        W65004  33.389  26.527   3.128
92745W        W65005  39.819  14.692  13.920
92746W        W65006  11.387  35.315  13.294
92747W        W65007  27.394  43.600   0.014
92748W        W65008   4.266  44.161  10.092
92749W        W65009  43.372  15.758  10.774
92750W        W65010  31.812   8.882   5.001
92751W        W65011   0.555  20.622   2.829
92752W        W65012   8.928  20.311  11.220
92753W        W65013  25.450  15.105   0.241
92754W        W65014   5.720  18.150   0.771
92755W        W65015  37.410  20.221   3.245
92756W        W65016  30.675  39.909  14.515
92757W        W65017  40.383  41.207  14.263
92758W        W65018  43.271   9.721  14.377
92759W        W65019  24.632  38.848   3.204
92760W        W65020  15.383  44.455   4.161
92761W        W65021   5.982  26.246  14.990
92762W        W65022   8.127  13.205   4.053
92763W        W65023  24.147  11.490   3.723
92764W        W65024  27.797  39.272   3.444
92765W        W65025  17.661  34.448  13.000
92766W        W65026  18.666  27.993  14.822
92767W        W65027  39.666  30.693   0.935
92768W        W65028  43.504  24.488   0.725
92769W        W65029  39.898  33.636   4.925
92770W        W65030  39.770  44.025  14.382
92771W        W65031   2.690  42.402   2.097
92772W        W65032  39.330  42.361  14.993
92773W        W65033   3.476  42.070   2.461
92774W        W65034  41.469  17.965  13.560
92775W        W65035  24.864  25.720   3.337
92776W        W65036  15.278   7.558   1.310
92777W        W65037  39.983  23.707  13.264
92778W        W65038  42.016  26.962   1.893
92779W        W65039  17.263  20.991  14.415
92780W        W65040  20.774  31.075   3.765
92781W        W65041  11.196   1.794   3.550
92782W        W65042  33.392  31.008  11.037
92783W        W65043  18.854  35.533  13.446
92784W        W65044  14.584  36.474   2.657
92785W        W65045  38.695  19.624   5.016
92786W        W65046  22.716  43.990   4.151
92787W        W65047   9.188  40.941  14.712
92788W        W65048  33.032  35.430   2.192
92789W        W65049  17.033   9.595   0.825
92790W        W65050  43.990  32.503  10.778
92791W        W65051   0.843   5.941   4.574
92792W        W65052  36.613  19.691   5.122
92793W        W65053  21.487  32.858  12.410
92794W        W65054   7.245  11.300   1.412
92795W        W65055   4.455  11.350   0.913
92796W        W65056  44.668  28.074  13.451
92797W        W65057  24.691  30.585   2.927
92798W        W65058  34.148   2.310   3.765
92799W        W65059   4.240  15.295  14.421
92800W        W65060  28.950  17.632  10.722
92801W        W65061  22.659   1.438  10.357
92802W        W65062  10.254  30.495   4.425
92803W        W65063  20.827  21.375  14.401
92804W        W65064  17.535  16.834  10.705
92805W        W65065  30.930   8.288   1.400
92806W        W65066  11.577   5.307   1.448
92807W        W65067  36.782  30.169   1.321
92808W        W65068  13.116  39.090   3.705
92809W        W65069  41.738  24.690   4.571
92810W        W65070  43.341  30.859   2.166
92811W        W65071  11.235  41.770   4.623
92812W        W65072  21.257  30.694  10.701
92813W        W65073  15.943  21.768   1.256
92814W        W65074  40.466  21.609   1.147
92815W        W65075  31.923   6.833   0.743
92816W        W65076  10.340  28.058  11.731
92817W        W65077  13.955  36.937   1.720
92818W        W65078  36.902  31.053  12.973
92819W        W65079   8.659  42.910   1.981
92820W        W65080  16.247  21.845  11.187
92821W        W65081   4.420  20.260  14.802
92822W        W65082  42.969   1.558   4.660
92823W        W65083  39.118  24.726  11.020
92824W        W65084   5.158  14.559  10.471
92825W        W65085   2.771  19.502  11.034
92826W        W65086  37.654  12.123   3.296
92827W        W65087  22.854  37.646   2.279
92828W        W65088  36.929  44.785  11.616
92829W        W65089   4.792  19.200  10.455
92830W        W65090  29.386  26.208   2.798
92831W        W65091   1.419  33.906  12.085
92832W        W65092  11.759  26.101   0.175
92833W        W65093   0.463   1.957  14.962
92834W        W65094  24.473  17.801   1.398
92835W        W65095  25.705  25.250  11.753
92836W        W65096  31.187  30.831  10.221
92837W        W65097  12.883  28.566  11.516
92838W        W65098  30.736  23.482  12.657
92839W        W65099  33.687  19.044   2.542
92840W        W65100  23.979  28.808   2.863
92841W        W65101   9.414   4.462  14.344
92842W        W65102  43.051  15.313   2.434
92843W        W65103  44.886  14.507   0.174
92844W        W65104  22.580  21.513   1.171
92845W        W65105  37.649  35.706  14.736
92846W        W65106  38.500  30.928   3.641
92847W        W65107  40.795  11.248   4.148
92848W        W65108   0.424  29.953  14.829
92849W        W65109   9.593  37.463  14.022
92850W        W65110  43.919   1.851  14.780
92851W        W65111  24.314  18.245  14.626
92852W        W65112   8.729  20.563  14.309
92853W        W65113  31.718  17.213  14.059
92854W        W65114   7.682   9.339  12.643
92855W        W65115  26.878  40.158  11.632
92856W        W65116  37.853   3.404   4.439
92857W        W65117  44.937   3.138   1.638
92858W        W65118  43.229  33.892   1.448
92859W        W65119  14.203  16.414   4.097
92860W        W65120  25.533  41.990  10.311
92861W        W65121  28.399  35.038   2.129
92862W        W65122  44.582   8.764   0.982
92863W        W65123  30.555  27.144   2.939
92864W        W65124  40.397  21.514   0.195
92865W        W65125  14.512  17.397   4.181
92866W        W65126  10.835  37.542  13.908
92867W        W65127  20.570  14.636  11.234
92868W        W65128  15.311  18.560   3.067
92869W        W65129  21.958  10.863  13.849
92870W        W65130  25.319   1.231   2.605
92871W        W65131   0.707  29.625   4.527
92872W        W65132  34.970  25.981  12.521
92873W        W65133  44.061  32.534  10.238
92874W        W65134  13.059  44.194  13.798
92875W        W65135  31.255  30.942  13.450
92876W        W65136  18.687  24.787   3.736
92877W        W65137   9.750  14.646  13.160
92878W        W65138  12.938  20.323  14.968
92879W        W65139  21.663  17.738  13.866
92880W        W65140  17.709  42.536   3.819
92881W        W65141  10.339   6.259   0.809
92882W        W65142  27.982  40.546  13.826
92883W        W65143  27.066   0.511  12.163
92884W        W65144  11.512   9.441  12.447
92885W        W65145  42.993  15.724   5.402
92886W        W65146  38.173  38.530   0.192
92887W        W65147  23.789   0.352   3.569
92888W        W65148  41.911  14.857  13.386
92889W        W65149  21.671  13.346   4.253
92890W        W65150   1.641   6.290  14.568
92891W        W65151  29.963  26.888   0.211
92892W        W65152  24.351  32.593  13.324
92893W        W65153  20.816   3.812  10.921
92894W        W65154   5.906  30.652  12.916
92895W        W65155  43.943  27.427  14.956
92896W        W65156  32.589  37.248  11.114
92897W        W65157  25.746   9.819  13.805
92898W        W65158  26.597  23.525   0.764
92899W        W65159  33.894   0.809  11.440
92900W        W65160  43.402  32.590   4.585
92901W        W65161  25.428  28.394  13.780
92902W        W65162  15.019  40.327  14.895
92903W        W65163   5.663  32.518   1.562
92904W        W65164  15.506   8.558  10.063
92905W        W65165  22.072   3.331  11.558
92906W        W65166  37.027  32.849  13.461
92907W        W65167  14.879  10.726  11.953
92908W        W65168   5.546   4.393   0.861
92909W        W65169  11.449  44.218  14.263
92910W        W65170  31.769  40.023   3.777
92911W        W65171  37.269  26.786   3.398
92912W        W65172  23.330  11.702  12.687
92913W        W65173  21.954   6.949   4.170
92914W        W65174  42.873  29.603   4.147
92915W        W65175  44.884   5.785  10.720
92916W        W65176   3.933  21.725   0.676
92917W        W65177   8.359   4.327  14.328
92918W        W65178  36.805  34.199  14.027
92919W        W65179  20.965   2.030   4.671
92920W        W65180   9.290  25.485   1.845
92921W        W65181  13.559  28.434   1.792
92922W        W65182  36.621   6.715  12.553
92923W        W65183  36.468  26.567   2.654
92924W        W65184  32.053   0.801  14.950
92925W        W65185   9.653  30.920   1.717
92926W        W65186  32.153  31.702   0.765
92927W        W65187   5.680  27.868   5.024
92928W        W65188   9.630  37.447  12.608
92929W        W65189  16.453   5.749  14.855
92930W        W65190  18.568  15.237  11.148
92931W        W65191  42.027  17.699   4.577
92932W        W65192  16.260  21.322  11.853
92933W        W65193  19.236  22.817  12.953
92934W        W65194  14.757  35.477   4.631
92935W        W65195   9.389  22.649  11.469
92936W        W65196  35.393  35.434  14.339
92937W        W65197  31.977  29.967   4.602
92938W        W65198  30.188  31.732  11.629
92939W        W65199  28.137  43.929  11.991
92940W        W65200  21.637  31.375   4.694
92941W        W65201  22.980  20.784  13.339
92942W        W65202   7.264   1.869   3.678
92943W        W65203  31.173  24.490   2.276
92944W        W65204  36.609  40.868  13.493
92945W        W65205   8.098  34.289  10.986
92946W        W65206  13.726   3.865  10.915
92947W        W65207   9.704  17.348  14.252
92948W        W65208  13.653   0.222   0.920
92949W        W65209  36.105  36.400  14.024
92950W        W65210  13.281  42.919   1.907
92951W        W65211  18.242  32.399  14.468
92952W        W65212  28.043   0.060  11.113
92953W        W65213  23.021  25.221  14.200
92954W        W65214  30.837   2.216   2.140
92955W        W65215  14.107  36.512   2.258
92956W        W65216  43.433  22.685   2.700
92957W        W65217  15.557  31.671  14.147
92958W        W65218  18.460  12.813   0.885
92959W        W65219  11.371  27.329  14.846
92960W        W65220  36.664  28.075   3.836
92961W        W65221   6.984   2.193   3.388
92962W        W65222  36.913  19.506   3.246
92963W        W65223  21.350  20.303   5.011
92964W        W65224  11.076  37.417  12.692
92965W        W65225  42.408  32.001  12.306
92966W        W65226  21.686   2.680   1.837
92967W        W65227  44.246   6.778   4.487
92968W        W65228  29.143  10.241   1.395
92969W        W65229  28.512  41.475  11.942
92970W        W65230  13.684   4.676   1.836
92971W        W65231  19.168  13.697  14.351
92972W        W65232   3.636   7.358   4.921
92973W        W65233   2.444  31.477  14.285
92974W        W65234  18.198   5.805   3.174
92975W        W65235  23.267  43.452   3.689
92976W        W65236  37.520  41.317  12.882
92977W        W65237   1.838   9.853  14.881
92978W        W65238  22.133  36.038   2.770
92979W        W65239  25.907  22.088   2.223
92980W        W65240  36.634   1.898   0.430
92981W        W65241  30.626  24.456   1.818
92982W        W65242  33.350  20.386  13.829
92983W        W65243  15.814  15.574  13.445
92984W        W65244  35.428  29.244   0.200
92985W        W65245  17.315  25.459   2.261
92986W        W65246  42.957  16.333   4.564
92987W        W65247  35.000  15.015   2.697
92988W        W65248   7.135  38.853   1.787
92989W        W65249  26.064  28.510  10.610
92990W        W65250   3.410  25.356   4.112
92991W        W65251  26.070  35.941   0.426
92992W        W65252   2.958   0.788   1.437
92993W        W65253  43.428  37.534  12.327
92994W        W65254  13.150  26.488  13.184
92995W        W65255   5.300  15.822   0.323
92996W        W65256  36.021  25.558   3.802
92997W        W65257   0.746  14.435  13.328
92998W        W65258  21.699  21.629   3.970
92999W        W65259  39.643  11.145  14.893
93000W        W65260  35.801  22.457   4.149
93001W        W65261  37.287   5.603  14.931
93002W        W65262  41.554  34.334   0.416
93003W        W65263   6.651   0.288  11.946
93004W        W65264   7.173  12.116  12.989
93005W        W65265   7.586  16.714   1.700
93006W        W65266  23.556  23.595  13.482
93007W        W65267   2.029  39.315   2.934
93008W        W65268  20.705  16.205   4.883
93009W        W65269  14.353  21.042   3.691
93010W        W65270  11.986  43.927  11.911
93011W        W65271  30.081  31.498   4.813
93012W        W65272  28.689  36.830   3.733
93013W        W65273  16.161  35.548   1.703
93014W        W65274  29.081   9.421   2.916
93015W        W65275  28.362  17.171   5.020
93016W        W65276   5.408   4.487   2.278
93017W        W65277  32.334  41.367  14.955
93018W        W65278  19.062  14.509  13.935
93019W        W65279  32.572  14.276  12.502
93020W        W65280  41.098   2.924  13.536
93021W        W65281  33.064   7.202   2.070
93022W        W65282  12.032  27.813   5.352
93023W        W65283  31.342  24.635   1.245
93024W        W65284  19.327   9.295   2.262
93025W        W65285  23.819   8.861   1.932
93026W        W65286  15.298   1.919   0.259
93027W        W65287   6.335  22.592   2.592
93028W        W65288  23.173   8.924  13.745
93029W        W65289   2.810  41.180  14.884
93030W        W65290  31.627  18.297  12.982
93031W        W65291  40.245   7.889   3.840
93032W        W65292  33.482   2.947   3.049
93033W        W65293  13.382  32.485   4.587
93034W        W65294  23.266  43.285  12.175
93035W        W65295  38.773  43.281  14.809
93036W        W65296  13.083  36.236  14.778
93037W        W65297  18.087  21.213  10.841
93038W        W65298  13.787  39.837  11.443
93039W        W65299  41.213  14.268   4.072
93040W        W65300  18.386  35.423   4.157
93041W        W65301  16.614   4.356  12.932
93042W        W65302   1.195  25.389   4.791
93043W        W65303  38.891   4.315  12.584
93044W        W65304  40.503  39.754  12.375
93045W        W65305   1.290   6.470  12.476
93046W        W65306   4.126   9.051  13.574
93047W        W65307   0.811  44.757  12.285
93048W        W65308   1.587  44.057  13.763
93049W        W65309  20.732  11.652   1.413
93050W        W65310  44.260  17.019   4.104
93051W        W65311   5.941  35.923   0.254
93052W        W65312  28.102  17.668   4.107
93053W        W65313   3.304  32.893   0.996
93054W        W65314  12.801   7.881  14.250
93055W        W65315   8.694  40.787  11.304
93056W        W65316  35.398  28.547   3.744
93057W        W65317   1.321  28.088   1.346
93058W        W65318  15.725   5.822   4.609
93059W        W65319  28.050  19.073   0.491
93060W        W65320  11.410   1.369  11.624
93061W        W65321  19.201  15.648  14.949
93062W        W65322  34.131   6.895   4.494
93063W        W65323  19.228  11.305   1.662
93064W        W65324  38.842  42.881  11.262
93065W        W65325  33.660  39.805  13.139
93066W        W65326  27.975  16.633   1.331
93067W        W65327  27.778  35.621   4.980
93068W        W65328  29.916  32.411   1.123
93069W        W65329  12.646  16.557   2.606
93070W        W65330  27.760  43.880   0.404
93071W        W65331  36.378  10.321   4.654
93072W        W65332  42.696   9.804  13.036
93073W        W65333  32.264  26.674  14.880
93074W        W65334  42.364   2.328   1.344
93075W        W65335   1.235  31.426  12.167
93076W        W65336  11.894  33.366   5.241
93077W        W65337  17.655  27.706  12.961
93078W        W65338  42.983  15.293  12.935
93079W        W65339  21.946  22.113   3.871
93080W        W65340  24.977   8.905  11.002
93081W        W65341  10.082  17.556  14.954
93082W        W65342  40.458   2.124   0.979
93083W        W65343  34.005  25.355   2.851
93084W        W65344  31.133  20.047  12.641
93085W        W65345  16.654   0.095   3.386
93086W        W65346  20.598   4.566  12.485
93087W        W65347  11.275  13.666   0.725
93088W        W65348  10.446  21.464   4.108
93089W        W65349   3.862  13.776  13.605
93090W        W65350  29.189  19.842   4.142
93091W        W65351  38.992  13.626   4.797
93092W        W65352  13.293  30.157   2.664
93093W        W65353  30.502  11.035  13.047
93094W        W65354  39.570  29.856  12.046
93095W        W65355  27.122  18.675  13.029
93096W        W65356  44.859  21.289   0.976
93097W        W65357  41.622  44.848  11.824
93098W        W65358   3.193  34.504   4.079
93099W        W65359  30.462   7.658  14.429
93100W        W65360  31.050  22.956   2.334
93101W        W65361   3.450  43.082  11.257
93102W        W65362  23.628  36.545   1.962
93103W        W65363   8.707  17.466  12.550
93104W        W65364  34.351  36.351  11.491
93105W        W65365  24.413   2.186   0.549
93106W        W65366  21.700  43.847  13.887
93107W        W65367   8.344  35.006   0.265
93108W        W65368  40.451   9.308  11.221
93109W        W65369  37.364   4.847  14.247
93110W        W65370   3.263  17.395  14.543
93111W        W65371   9.625  18.775   4.558
93112W        W65372  25.571  38.329   3.309
93113W        W65373  31.463   5.084  12.620
93114W        W65374  24.600  42.541  14.250
93115W        W65375  41.048  32.931   0.384
93116W        W65376   8.368  31.435  13.398
93117W        W65377  27.432  23.697   2.383
93118W        W65378   6.152  15.285  10.986
93119W        W65379  25.187  16.820  13.449
93120W        W65380   3.999  35.440   0.196
93121W        W65381  37.965  35.375   0.045
93122W        W65382  20.448  18.164   0.927
93123W        W65383  44.722   2.241  14.486
93124W        W65384  40.974  43.291   0.434
93125W        W65385  18.871  20.689  13.375
93126W        W65386  38.151  43.427  13.720
93127W        W65387  24.434  34.349   1.288
93128W        W65388   6.826  12.674   4.382
93129W        W65389  19.769  30.853  13.939
93130W        W65390  30.452  33.281   3.785
93131W        W65391   0.315  29.708  11.564
93132W        W65392  43.126   2.344   0.841
93133W        W65393  25.294  20.660  11.128
93134W        W65394   6.176  13.141   4.491
93135W        W65395  44.959  38.457   2.712
93136W        W65396  26.089  19.841   2.878
93137W        W65397  27.140  24.490  11.527
93138W        W65398  44.950  29.163  10.637
93139W        W65399   1.920  13.880  11.177
93140W        W65400  24.086  12.972   2.668
93141W        W65401  39.387  44.269  13.520
93142W        W65402   2.394   0.860   4.985
93143W        W65403  13.355  31.488   2.712
93144W        W65404  11.953  42.444  14.287
93145W        W65405  23.849  12.718  12.944
93146W        W65406  19.586   4.361  10.703
93147W        W65407  28.850  14.721  13.019
93148W        W65408  16.526   6.316  12.022
93149W        W65409  34.062  41.747  11.452
93150W        W65410   7.170  35.509  12.508
93151W        W65411  29.394  18.587   4.810
93152W        W65412  21.147  38.867   4.580
93153W        W65413  37.076  15.343   3.738
93154W        W65414  30.099  21.657   0.827
93155W        W65415  30.589  14.118  12.447
93156W        W65416  21.174   4.212  10.798
93157W        W65417  41.844  36.727   2.234
93158W        W65418  11.629   9.105  11.635
93159W        W65419   4.935  14.231   5.012
93160W        W65420  40.987  12.404  13.066
93161W        W65421  30.327  34.962  13.719
93162W        W65422  40.152   9.413   0.395
93163W        W65423  44.235  12.099  13.031
93164W        W65424  14.448  21.350  11.805
93165W        W65425   1.313  32.276  14.617
93166W        W65426  20.070   2.745   1.711
93167W        W65427   3.959  44.700   0.981
93168W        W65428  28.614  20.570  13.378
93169W        W65429   5.940   9.284   3.049
93170W        W65430  20.040  39.010  14.098
93171W        W65431  16.348  25.963   0.792
93172W        W65432  14.580   6.170   2.862
93173W        W65433   3.782  31.265  14.915
93174W        W65434  18.105  25.104  11.173
93175W        W65435  33.457  29.635  13.412
93176W        W65436  35.029  36.333  12.981
93177W        W65437  30.981   0.584  14.857
93178W        W65438  16.809  38.438   2.561
93179W        W65439  23.041  22.660   2.473
93180W        W65440  31.960  26.772  10.384
93181W        W65441  11.149  41.231  12.876
93182W        W65442   5.383   1.022   3.958
93183W        W65443  40.801   3.142  12.640
93184W        W65444  37.445  36.410  13.831
93185W        W65445  29.832  12.194  10.837
93186W        W65446  40.516  40.158  14.474
93187W        W65447  23.070  19.806  10.688
93188W        W65448  11.350  38.382   3.492
93189W        W65449  37.354  44.777  12.827
93190W        W65450   2.203  36.449   0.676
93191W        W65451  44.992  23.930   4.489
93192W        W65452   8.982  44.758  11.724
93193W        W65453   0.978   4.650  11.656
93194W        W65454   8.609  34.970  11.920
93195W        W65455  13.076  35.372  10.663
93196W        W65456   7.748  41.546   2.717
93197W        W65457  21.697  28.974   4.174
93198W        W65458  22.913  36.531  14.293
93199W        W65459  18.245   8.370  14.354
93200W        W65460  21.310  12.297   5.161
93201W        W65461  15.253  36.385  14.768
93202W        W65462  13.825  11.436  11.284
93203W        W65463  13.816   8.717   0.411
93204W        W65464  28.059   4.337   1.423
93205W        W65465  15.680  18.069   1.853
93206W        W65466  24.700  27.147   4.397
93207W        W65467  29.764   7.774  12.409
93208W        W65468   2.237   8.646   2.126
93209W        W65469  43.472  34.075   4.631
93210W        W65470  11.695  32.112  11.920
93211W        W65471   6.870   9.170   1.826
93212W        W65472   1.509  12.401   0.437
93213W        W65473  43.706  28.827   3.087
93214W        W65474   1.764  32.956   2.600
93215W        W65475  12.727   2.295   3.616
93216W        W65476  22.840  17.325   0.746
93217W        W65477  14.253  41.383  11.140
93218W        W65478   9.101   3.841  12.388
93219W        W65479  38.967  39.026  12.389
93220W        W65480  20.945  14.781   0.891
93221W        W65481  17.220  18.376   2.790
93222W        W65482  37.038  37.262  12.562
93223W        W65483  27.507  38.745   4.482
93224W        W65484   3.278  28.414  11.903
93225W        W65485  13.871  26.225  12.644
93226W        W65486  43.539   2.324   3.558
93227W        W65487  24.105  27.560   3.229
93228W        W65488  20.017  30.783   3.179
93229W        W65489  21.510   7.330  14.166
93230W        W65490  42.927  31.504  13.460
93231W        W65491  25.496  38.744  10.716
93232W        W65492  21.314  29.285   4.072
93233W        W65493  44.717  25.677   0.924
93234W        W65494  36.079  28.964  11.284
93235W        W65495  24.037   8.438   1.633
93236W        W65496   7.687  22.724  12.036
93237W        W65497  32.202  18.717  11.150
93238W        W65498  30.209  34.382  11.548
93239W        W65499   6.508  24.528   1.936
93240W        W65500  39.647  21.636   1.886
93241W        W65501  26.046  43.948   3.459
93242W        W65502  44.635   9.274   3.632
93243W        W65503  41.290  11.557  12.356
93244W        W65504   5.756   4.191  14.260
93245W        W65505  28.443  16.198  13.040
93246W        W65506   9.665  14.566  12.405
93247W        W65507   6.887  22.803   3.302
93248W        W65508   3.895  29.198   4.892
93249W        W65509  20.141  40.114   0.409
93250W        W65510  41.214  43.212  12.496
93251W        W65511   2.212  26.676   1.278
93252W        W65512  31.112   9.451   1.621
93253W        W65513   2.137   5.442  12.131
93254W        W65514  42.380  11.283  10.573
93255W        W65515  42.682  28.566  10.499
93256W        W65516  18.635  27.422  11.549
93257W        W65517  43.804  19.575   0.835
93258W        W65518  31.545  14.401  12.536
93259W        W65519   0.991  29.183  11.715
93260W        W65520  43.659  26.985   0.004
93261W        W65521  32.064  36.300  10.204
93262W        W65522  32.626  23.768   2.359
93263W        W65523  23.616  12.394   4.367
93264W        W65524  28.466  42.326   3.271
93265W        W65525  22.626  27.476   3.243
93266W        W65526   8.366  15.756  12.575
93267W        W65527  23.030  27.714   2.394
93268W        W65528  42.012  19.298  11.103
93269W        W65529  27.075  28.157   1.249
93270W        W65530   6.294  41.960   4.791
93271W        W65531  38.916   6.650  11.468
93272W        W65532   6.857  18.241   1.377
93273W        W65533  32.183  21.628  12.315
93274W        W65534  27.957  29.872   3.252
93275W        W65535   3.915   4.395  11.736
93276W        W65536  40.049  40.233   4.168
93277W        W65537   0.743  13.448   2.290
93278W        W65538  44.243  36.818   4.903
93279W        W65539  37.533  17.198   2.935
93280W        W65540  35.824  16.797  14.540
93281W        W65541   0.219   7.935  12.010
93282W        W65542  43.345  16.375  12.120
93283W        W65543  23.418  21.055  11.541
93284W        W65544  32.104  26.124   2.649
93285W        W65545  36.034  39.094   4.164
93286W        W65546  25.029  10.627   2.527
93287W        W65547   6.943  33.954   3.726
93288W        W65548  42.091   4.588  11.136
93289W        W65549  26.451  13.154  13.880
93290W        W65550  33.093  31.665  11.904
93291W        W65551  19.830  14.742  14.314
93292W        W65552  44.513  24.116   4.583
93293W        W65553   1.855   4.400  13.035
93294W        W65554  17.144  37.335  14.779
93295W        W65555  44.134  40.058  11.688
93296W        W65556  13.858  29.414  11.993
93297W        W65557  32.153  19.189  13.991
93298W        W65558  25.411  39.284  12.506
93299W        W65559   5.271   1.027   2.311
93300W        W65560  31.069  40.608   4.283
93301W        W65561  23.751  43.257  13.993
93302W        W65562  37.065  15.256  11.087
93303W        W65563  28.177  10.730   3.210
93304W        W65564  21.058  36.514   4.612
93305W        W65565   9.038  22.784   4.607
93306W        W65566  29.954  30.479  13.534
93307W        W65567   7.750  37.851  13.679
93308W        W65568   9.258  18.810   2.138
93309W        W65569  29.232   9.606  12.010
93310W        W65570   0.238  28.857  14.031
93311W        W65571   2.845  34.895   0.194
93312W        W65572  22.061  27.548   3.981
93313W        W65573  40.007  33.450  13.372
93314W        W65574  15.589  13.806   3.670
93315W        W65575  37.443  32.086  10.419
93316W        W65576  35.874  21.268  13.538
93317W        W65577  19.666  17.063  14.411
93318W        W65578  12.278  40.867  13.846
93319W        W65579   2.321  35.306  11.551
93320W        W65580  20.249   4.405  11.207
93321W        W65581  10.408   4.018   2.983
93322W        W65582  34.536  43.291   2.255
93323W        W65583  44.997   8.338  14.501
93324W        W65584  18.587  18.263  13.166
93325W        W65585  33.523  17.525   4.196
93326W        W65586  44.325  13.521   1.658
93327W        W65587  20.114  20.202  13.998
93328W        W65588  38.413  26.920  11.483
93329W        W65589  34.947  17.776  14.612
93330W        W65590  22.663   6.876   0.499
93331W        W65591   6.949  29.676  14.065
93332W        W65592  34.445  12.625  11.193
93333W        W65593  13.458  42.490   1.082
93334W        W65594  16.646  32.630  13.347
93335W        W65595   9.365  30.838  12.998
93336W        W65596  31.406   3.035  14.213
93337W        W65597  38.998   2.900   3.794
93338W        W65598  25.088  39.059   2.179
93339W        W65599  26.485   8.405   4.395
93340W        W65600  35.898  10.094  12.846
93341W        W65601  32.729   0.265   3.244
93342W        W65602  40.941  36.467  13.584
93343W        W65603  38.867  16.855  11.456
93344W        W65604  34.384  18.959  11.090
93345W        W65605  29.602  20.456   0.712
93346W        W65606  21.795   2.164   1.623
93347W        W65607  36.429  41.475  10.217
93348W        W65608  16.189  22.308   9.899
93349W        W65609   8.751   6.270  11.544
93350W        W65610  29.427  25.112   0.299
93351W        W65611  17.150  33.953  13.475
93352W        W65612  26.473  36.823  12.604
93353W        W65613  30.930  31.595  13.443
93354W        W65614  32.139  13.270   2.297
93355W        W65615  24.209  11.836  12.084
93356W        W65616  31.917  24.833  11.149
93357W        W65617   3.375  16.425  11.853
93358W        W65618  20.830  30.460   4.750
93359W        W65619  34.397   9.232  10.616
93360W        W65620  20.606  22.633  11.817
93361W        W65621  41.250   9.392   2.444
93362W        W65622  20.042   8.917   3.107
93363W        W65623   5.932  37.522   4.233
93364W        W65624  23.291  10.025  13.009
93365W        W65625  24.765  31.617   1.487
93366W        W65626  43.455  19.774   2.778
93367W        W65627  39.450  44.393  11.456
93368W        W65628   6.932  38.855   0.818
93369W        W65629  15.150   5.676  11.421
93370W        W65630  27.838  35.382   3.808
93371W        W65631  41.610  39.985   1.373
93372W        W65632  37.211  42.427  12.474
93373W        W65633  18.985  40.832  13.516
93374W        W65634  10.061  24.506   1.609
93375W        W65635  11.897  37.810  13.553
93376W        W65636  16.269   0.421   3.293
93377W        W65637  43.397  28.060   2.261
93378W        W65638  12.399  34.057   0.871
93379W        W65639  36.900   9.798   3.194
93380W        W65640   4.375  23.961   1.791
93381W        W65641  28.833  28.137   1.511
93382W        W65642  24.280  28.493  14.854
93383W        W65643  42.873  35.906   1.818
93384W        W65644  19.735  39.444   2.398
93385W        W65645  22.588  23.923  14.347
93386W        W65646  16.543  23.524   4.117
93387W        W65647  31.771  20.205  11.126
93388W        W65648  36.434  29.621   1.648
93389W        W65649  24.526  25.786   5.287
93390W        W65650   0.712   3.860  14.261
93391W        W65651  13.653   5.644   0.491
93392W        W65652  22.808  43.483  11.987
93393W        W65653  10.781   3.341  14.933
93394W        W65654  18.654   2.892   0.896
93395W        W65655  29.436  13.162   0.988
93396W        W65656   5.696  37.640   0.848
93397W        W65657   8.591  28.502  14.965
93398W        W65658   5.418  31.522   1.460
93399W        W65659  32.404  22.156   1.423
93400W        W65660  36.080   7.873  12.643
93401W        W65661  43.993  23.209   4.592
93402W        W65662  33.123  18.712   3.619
93403W        W65663   5.221  16.628   4.583
93404W        W65664  36.551  17.469   1.741
93405W        W65665  38.996  23.222   0.459
93406W        W65666  44.373  14.013   2.229
93407W        W65667  37.136  33.628   1.808
93408W        W65668  38.167  13.104  11.450
93409W        W65669   7.773   8.426  12.753
93410W        W65670  37.829  26.631   1.871
93411W        W65671  44.928  24.333   4.831
93412W        W65672  27.072  28.355   3.123
93413W        W65673  14.751  10.099   1.253
93414W        W65674  38.426  35.582   4.469
93415W        W65675  29.647  35.101  13.457
93416W        W65676   7.721  22.545   0.905
93417W        W65677   9.758  14.518  11.518
93418W        W65678   1.724  39.880   2.664
93419W        W65679  43.472  25.272   0.284
93420W        W65680  32.931  17.357  12.305
93421W        W65681  40.509  34.107  12.651
93422W        W65682  36.030  33.163  12.912
93423W        W65683  22.285  20.970  14.244
93424W        W65684   4.163  39.702   0.941
93425W        W65685  30.377  40.128   1.839
93426W        W65686  33.680  32.170  14.922
93427W        W65687  35.626  14.216   1.867
93428W        W65688  27.163  30.572   4.531
93429W        W65689  32.298   5.770   2.308
93430W        W65690  42.064  20.780   2.796
93431W        W65691  32.882  36.602   3.186
93432W        W65692  11.192  42.982  12.035
93433W        W65693  23.232  19.980   2.238
93434W        W65694  13.882  29.541   1.013
93435W        W65695  10.702  22.731  11.163
93436W        W65696   2.779  33.104   3.698
93437W        W65697  35.394  27.729  12.298
93438W        W65698   1.305  15.132  12.082
93439W        W65699  26.118  31.532   1.940
93440W        W65700  41.802   5.465  12.471
93441W        W65701  22.508   6.300  11.414
93442W        W65702  11.558  10.442  14.042
93443W        W65703  28.746  24.532  14.412
93444W        W65704   6.511   5.713  11.702
93445W        W65705  22.185   8.772   4.643
93446W        W65706  14.652  11.944   4.695
93447W        W65707  43.514  38.453  11.815
93448W        W65708  30.431  28.006  12.444
93449W        W65709  44.311  33.657  11.997
93450W        W65710  32.638  24.211  11.086
93451W        W65711   1.245   9.220  10.625
93452W        W65712  44.876  38.443  12.078
93453W        W65713  25.092  27.722   1.221
93454W        W65714  20.618  23.211   1.010
93455W        W65715  41.862  38.771   4.767
93456W        W65716  30.133  37.458  12.252
93457W        W65717  43.284   6.470   1.246
93458W        W65718  35.071   0.348  12.976
93459W        W65719   7.422  22.577  12.492
93460W        W65720  35.495  20.792   0.293
93461W        W65721  36.550   6.311   2.815
93462W        W65722  25.418   9.704  12.840
93463W        W65723  32.130  20.705   2.309
93464W        W65724   2.997  28.589  13.868
93465W        W65725  23.387  14.802   2.346
93466W        W65726  30.005  38.147  13.507
93467W        W65727  10.750   2.484   4.051
93468W        W65728   9.260   1.954   2.163
93469W        W65729  38.955   5.427  14.258
93470W        W65730   1.770  19.646  14.242
93471W        W65731  20.754   2.439   2.915
93472W        W65732   1.445   7.088   3.080
93473W        W65733  42.997   1.870  11.911
93474W        W65734   1.889  10.194  13.757
93475W        W65735   3.708  30.165   2.793
93476W        W65736  13.775  41.501  13.399
93477W        W65737  11.675  30.643  14.524
93478W        W65738  42.089  32.949  11.983
93479W        W65739  25.568   0.199  13.798
93480W        W65740  26.191  15.936  10.455
93481W        W65741   7.375  44.965   1.910
93482W        W65742   2.166  18.542  11.122
93483W        W65743  37.598  29.079   0.733
93484W        W65744  41.824   4.277   1.599
93485W        W65745  27.200  44.347  14.398
93486W        W65746  36.579   2.238   1.748
93487W        W65747  16.982   9.535  12.654
93488W        W65748   6.730   7.848   3.611
93489W        W65749   8.376  34.495   1.504
93490W        W65750  38.517   0.381   3.032
93491W        W65751  16.493   1.747   1.711
93492W        W65752   4.044  10.574  14.909
93493W        W65753  43.172  32.099   1.826
93494W        W65754  23.154  31.670   0.179
93495W        W65755   2.950   7.975   1.685
93496W        W65756  27.177  22.998   3.249
93497W        W65757  41.848  18.032  14.292
93498W        W65758  35.087   3.221  10.739
93499W        W65759  19.559  13.817  11.231
93500W        W65760  43.365  20.987  10.660
93501W        W65761   3.583  37.324  10.195
93502W        W65762   4.862  26.692  14.390
93503W        W65763  32.320  33.703   3.315
93504W        W65764  10.718  14.779   2.249
93505W        W65765   8.222  43.427   0.205
93506W        W65766  13.050  10.119  13.933
93507W        W65767   8.816  36.625  14.337
93508W        W65768  24.141   3.401  14.010
93509W        W65769  37.097   3.358   1.424
93510W        W65770   4.877  24.275   3.581
93511W        W65771  30.675  34.494  12.554
93512W        W65772  20.153  36.462   2.485
93513W        W65773  35.661  20.982  10.390
93514W        W65774  42.968  26.373  10.908
93515W        W65775   7.784  41.798  10.459
93516W        W65776  36.317  31.914   1.763
93517W        W65777  40.016   1.183  12.621
93518W        W65778  10.184  31.074   1.749
93519W        W65779  38.912  15.869  12.458
93520W        W65780   7.921  25.110   0.820
93521W        W65781  30.676  14.365   2.340
93522W        W65782  42.067  42.239  13.551
93523W        W65783  12.792   2.511   4.089
93524W        W65784  31.642   6.711   1.250
93525W        W65785  38.537   5.909   0.757
93526W        W65786  25.831   7.859  12.455
93527W        W65787  34.371   8.138   4.122
93528W        W65788  29.105  37.554  11.616
93529W        W65789   6.969  40.937   4.820
93530W        W65790  13.453  23.715  13.951
93531W        W65791  29.455   8.522  12.452
93532W        W65792   0.375  41.067  14.423
93533W        W65793  27.355   2.610  12.065
93534W        W65794   1.744  36.567   3.835
93535W        W65795  24.256   9.173  12.167
93536W        W65796  11.743   6.773   3.766
93537W        W65797   2.563  21.079  12.845
93538W        W65798  12.155  24.584   1.340
93539W        W65799   0.531   0.418   1.869
93540W        W65800   4.810  20.990   0.444
93541W        W65801  42.009  27.597  14.443
93542W        W65802  31.456  40.542  13.567
93543W        W65803  15.563  27.141  13.740
93544W        W65804  15.940  10.771   2.723
93545W        W65805  38.694   0.955   4.165
93546W        W65806  43.281   6.061  14.324
93547W        W65807  27.127  44.788  11.683
93548W        W65808  36.562  38.477   2.348
93549W        W65809  25.059   7.972   4.937
93550W        W65810   5.237  19.673  14.890
93551W        W65811  29.879  10.192  12.521
93552W        W65812  10.856  38.487   3.417
93553W        W65813   4.017  32.308   0.249
93554W        W65814  30.437  27.413  14.798
93555W        W65815  11.956  20.028   3.501
93556W        W65816   4.217  21.791  13.962
93557W        W65817  24.082  39.782   0.495
93558W        W65818   8.719  40.559   1.442
93559W        W65819  42.427   7.845   2.787
93560W        W65820   0.420  28.130   2.661
93561W        W65821  42.374  39.016  11.205
93562W        W65822   1.672   5.861  11.168
93563W        W65823  20.566   5.581   4.267
93564W        W65824  11.043  25.028   0.909
93565W        W65825   8.391  26.227   3.663
93566W        W65826   1.706  33.063  13.417
93567W        W65827  27.376  39.490   3.286
93568W        W65828  39.953   3.379   4.642
93569W        W65829  40.535  28.538  12.898
93570W        W65830  21.786  37.928  14.502
93571W        W65831  41.744   3.734   1.904
93572W        W65832  12.094  41.789   0.502
93573W        W65833  32.456  10.405  14.270
93574W        W65834  11.335  41.799   1.810
93575W        W65835  25.859  35.617   0.756
93576W        W65836  34.651  32.002  13.886
93577W        W65837  24.430  19.785  12.870
93578W        W65838   4.787   7.782   2.183
93579W        W65839  36.383   3.436  12.130
93580W        W65840  15.751  39.530   1.517
93581W        W65841  38.856  38.215  14.546
93582W        W65842  28.020   4.108  11.633
93583W        W65843   6.440  22.564  12.502
93584W        W65844  20.110  34.441  13.365
93585W        W65845  40.806  31.198   1.410
93586W        W65846  32.746  19.068  13.587
93587W        W65847  32.947  11.679  11.467
93588W        W65848  25.660  14.562   4.514
93589W        W65849  13.358   4.390   0.283
93590W        W65850  43.756   5.704  13.123
93591W        W65851  42.525   2.246   3.747
93592W        W65852  37.949  19.685   2.410
93593W        W65853   0.551   2.445   1.320
93594W        W65854  12.080   4.198   3.495
93595W        W65855   5.290  33.121   4.079
93596W        W65856  26.034  26.478  11.658
93597W        W65857   5.685  35.561  13.472
93598W        W65858  16.781  20.761   4.762
93599W        W65859  24.644  27.827   3.792
93600W        W65860  11.246  16.339   2.716
93601W        W65861  35.408  22.519  13.429
93602W        W65862  39.533  26.741   4.275
93603W        W65863  20.561  25.572   3.609
93604W        W65864  41.208  31.759   2.401
93605W        W65865  20.736   0.236  14.745
93606W        W65866  40.130  38.123   0.440
93607W        W65867  21.198  14.218  14.401
93608W        W65868  42.836  18.226   0.477
93609W        W65869  32.532  27.078  10.919
93610W        W65870  20.688  16.821  13.934
93611W        W65871   2.275  42.018   3.136
93612W        W65872  38.086  18.623  11.563
93613W        W65873  30.681  39.265  12.452
93614W        W65874  13.826  38.772  12.974
93615W        W65875   2.334   5.932  14.761
93616W        W65876   3.945  33.192   4.582
93617W        W65877  22.087   4.223   1.402
93618W        W65878   3.257  27.442   2.207
93619W        W65879   0.296  28.156   1.186
93620W        W65880  20.156  39.742  12.883
93621W        W65881  33.988  34.994   0.572
93622W        W65882  13.170  38.984   1.186
93623W        W65883  28.911  31.978   9.765
93624W        W65884   3.254   1.351   1.691
93625W        W65885  32.590  31.910   3.195
93626W        W65886  25.932  30.840  14.531
93627W        W65887  13.055  38.998  12.159
93628W        W65888  14.492   5.776  10.666
93629W        W65889  22.786  37.590   4.179
93630W        W65890   0.227  43.404   1.346
93631W        W65891  16.826  26.516   0.397
93632W        W65892  28.859   0.441  11.221
93633W        W65893  22.781  43.852   2.259
93634W        W65894  37.747  14.287   3.823
93635W        W65895  11.937  17.258  10.684
93636W        W65896  15.192  33.965  11.215
93637W        W65897   7.287   5.643  11.907
93638W        W65898  28.878  10.289  13.863
93639W        W65899  41.457  21.410   4.913
93640W        W65900  18.685  21.020   1.975
93641W        W65901  37.536  36.887  10.680
93642W        W65902  13.031  27.503   3.661
93643W        W65903  34.083   6.401   1.867
93644W        W65904   2.843  10.441  12.232
93645W        W65905  15.713  12.974   0.444
93646W        W65906  27.613  13.954  10.584
93647W        W65907  35.854  44.778   1.570
93648W        W65908  35.294  43.892   2.397
93649W        W65909   3.122   4.433  11.020
93650W        W65910   9.313  21.156  12.978
93651W        W65911   6.125  42.455   4.705
93652W        W65912   8.223  16.679   4.644
93653W        W65913   1.231  24.505  10.806
93654W        W65914   8.910  26.136  13.955
93655W        W65915  24.233  30.488   4.961
93656W        W65916  36.082  42.255  13.581
93657W        W65917  42.796  42.198  10.501
93658W        W65918  12.724  43.827  12.573
93659W        W65919  13.107  36.542   4.356
93660W        W65920  27.881  24.604   1.079
93661W        W65921  28.639  43.910  12.172
93662W        W65922  25.028  32.906   3.195
93663W        W65923  13.693  40.761  10.748
93664W        W65924   0.776  30.604  12.989
93665W        W65925  10.191  39.422  14.937
93666W        W65926   0.220  35.772   1.850
93667W        W65927  42.372  35.495  10.921
93668W        W65928   2.656  44.024  14.411
93669W        W65929  18.722  40.837  11.585
93670W        W65930  43.373  44.072  13.907
93671W        W65931  24.191  10.224  11.126
93672W        W65932  30.484  13.822   1.162
93673W        W65933  17.859  38.171   0.857
93674W        W65934  41.543   6.446  14.835
93675W        W65935   5.172  44.799  11.529
93676W        W65936   1.430  21.681  12.537
93677W        W65937  14.585  44.438   1.479
93678W        W65938  16.316  24.604  14.932
93679W        W65939   5.341  10.575   2.671
93680W        W65940  36.083  17.209   0.287
93681W        W65941  16.292  16.787   2.875
93682W        W65942   0.430  24.990   4.534
93683W        W65943   0.350  32.408  14.919
93684W        W65944  36.957   4.182   4.428
93685W        W65945  21.573   7.361   3.319
93686W        W65946  33.042  11.359  14.849
93687W        W65947  44.966   9.735   1.404
93688W        W65948  22.103  30.834  14.315
93689W        W65949  44.947  23.029  14.880
93690W        W65950  15.585  38.057   3.752
93691W        W65951  42.814   5.369   2.116
93692W        W65952  28.465  38.989   1.780
93693W        W65953  35.387  16.827  12.113
93694W        W65954   7.903  18.362   3.730
93695W        W65955  31.465  33.884   4.363
93696W        W65956   7.910  10.643   1.408
93697W        W65957  39.839  43.390   2.422
93698W        W65958   1.482  30.894   2.150
93699W        W65959  11.315  37.060  12.409
93700W        W65960   2.879  32.964   0.318
93701W        W65961  43.438  19.646  11.937
93702W        W65962  37.661   0.470   0.465
93703W        W65963  17.568  39.411   3.706
93704W        W65964  18.279   7.650  14.863
93705W        W65965  28.096  22.491  12.662
93706W        W65966   5.670  18.644  13.499
93707W        W65967  28.467   3.999   1.319
93708W        W65968  34.960  39.675   3.142
93709W        W65969  11.829  19.355  11.202
93710W        W65970  14.915  38.512   3.927
93711W        W65971  42.726  16.728  12.880
93712W        W65972  43.537  20.562  12.507
93713W        W65973  33.892  14.309   3.882
93714W        W65974  20.672   7.414   1.347
93715W        W65975  36.332  40.567  13.832
93716W        W65976  42.191  32.749  12.848
93717W        W65977  11.866   2.389   9.702
93718W        W65978  13.766  26.652   2.207
93719W        W65979  21.765  41.815  11.417
93720W        W65980  11.656  20.966   0.549
93721W        W65981  15.242  17.656   5.651
93722W        W65982  20.895  15.499   0.488
93723W        W65983  28.561  26.311   1.952
93724W        W65984  13.828   7.360  13.273
93725W        W65985  26.041  12.732   3.377
93726W        W65986   3.254   6.134  12.426
93727W        W65987  18.062  25.704  11.553
93728W        W65988  19.531  31.979  13.304
93729W        W65989  35.045  22.744   2.504
93730W        W65990  38.463   6.342  13.923
93731W        W65991   5.229  12.625  11.515
93732W        W65992  20.815  31.049  12.443
93733W        W65993  39.235   2.698  12.936
93734W        W65994  18.360  23.075  14.817
93735W        W65995  33.214  15.080  14.297
93736W        W65996  31.402  35.499  12.080
93737W        W65997   3.500  23.520  14.420
93738W        W65998  41.391  19.481  12.558
93739W        W65999  15.526   7.661  12.449
93740W        W66000  31.373  34.351  14.361
93741W        W66001   5.375  29.182   3.292
93742W        W66002  20.154   7.915   0.328
93743W        W66003  33.857  44.915   3.701
93744W        W66004  18.509  31.083   2.282
93745W        W66005  22.336  28.077  11.572
93746W        W66006   2.472  34.893  14.807
93747W        W66007   1.304  31.943  11.154
93748W        W66008  44.104  17.507  14.691
93749W        W66009  15.044  26.613  12.108
93750W        W66010  31.388  43.891  12.907
93751W        W66011  21.103  19.192  11.404
93752W        W66012  41.815   4.779  10.717
93753W        W66013  19.030  29.632   0.720
93754W        W66014   0.291  10.871   0.830
93755W        W66015   7.509   6.758   1.699
93756W        W66016  22.200  15.434  10.628
93757W        W66017  36.051  37.841   0.685
93758W        W66018   6.347  21.001  12.417
93759W        W66019  35.595  40.933   4.124
93760W        W66020   1.408   1.489   1.231
93761W        W66021  15.325  16.690  14.386
93762W        W66022  35.969  30.565   1.277
93763W        W66023  20.021   8.640  14.203
93764W        W66024  18.542  13.381   3.642
93765W        W66025  36.451  33.445   4.978
93766W        W66026  44.873  42.766  12.042
93767W        W66027   3.542  15.572   3.695
93768W        W66028  31.404  42.822   1.041
93769W        W66029  22.839  32.475   3.270
93770W        W66030  20.454  17.725   1.635
93771W        W66031  19.762  17.592  14.393
93772W        W66032  23.386  25.159  13.057
93773W        W66033   1.275  36.868   2.626
93774W        W66034  10.992  33.276   0.717
93775W        W66035  40.763  43.304   3.975
93776W        W66036  30.161  19.463   4.134
93777W        W66037  43.993   8.940   0.215
93778W        W66038  17.069  41.862   0.413
93779W        W66039  25.038  43.244   0.771
93780W        W66040  16.768   4.188   4.144
93781W        W66041  15.523  12.390  12.491
93782W        W66042   3.888  37.982  14.481
93783W        W66043  27.730  23.035   3.617
93784W        W66044  17.616   5.936  12.424
93785W        W66045  29.336  14.264  11.800
93786W        W66046  31.202   7.946  13.226
93787W        W66047  15.186  28.254   3.737
93788W        W66048  33.044  18.643  14.233
93789W        W66049   9.688  39.209   4.678
93790W        W66050  37.594   0.571   4.202
93791W        W66051   4.770  40.022  11.996
93792W        W66052  28.123  40.951   0.907
93793W        W66053  12.244  40.368  10.694
93794W        W66054  31.374  28.478  11.028
93795W        W66055  19.644   5.528   5.728
93796W        W66056  21.515  40.576  11.993
93797W        W66057  36.362  44.381   2.912
93798W        W66058   2.384  19.107  13.228
93799W        W66059  21.399  39.998   2.312
93800W        W66060  10.181  18.376   2.831
93801W        W66061  23.217   8.696  12.413
93802W        W66062  23.444   5.153  14.738
93803W        W66063  40.435   6.625  10.615
93804W        W66064  26.519  35.689  12.056
93805W        W66065  37.317  41.508  12.427
93806W        W66066  16.523  28.341  14.866
93807W        W66067  13.091  37.126   0.867
93808W        W66068  11.926  25.501   3.854
93809W        W66069  31.102  24.205   2.725
93810W        W66070   5.543   3.617   0.391
93811W        W66071  16.733  21.616  11.157
93812W        W66072  40.744  19.168   0.314
93813W        W66073  43.885   2.194   4.447
93814W        W66074  13.770  17.584   2.697
93815W        W66075  24.688  17.903  12.885
93816W        W66076  18.576  29.623   0.443
93817W        W66077  29.582  29.072   0.252
93818W        W66078  33.067   1.335   1.259
93819W        W66079  19.423  20.006   0.107
93820W        W66080   9.277  17.661   0.623
93821W        W66081   9.471  14.766  11.928
93822W        W66082   8.662  44.244   2.283
93823W        W66083  20.121  23.204  10.625
93824W        W66084  37.015  22.220  11.911
93825W        W66085  34.890  18.814   3.238
93826W        W66086  15.737  32.666   0.196
93827W        W66087  30.150  37.346  13.127
93828W        W66088  28.214  41.747   0.086
93829W        W66089  13.373  17.523   0.796
93830W        W66090   5.657  15.917   2.716
93831W        W66091  35.967  10.221   0.562
93832W        W66092  11.743  39.333   4.245
93833W        W66093  39.902  12.129   4.404
93834W        W66094  40.875   3.433  11.199
93835W        W66095   5.046  35.250   4.137
93836W        W66096  30.645  30.012   3.181
93837W        W66097  14.197  23.138   0.448
93838W        W66098   8.546  42.004   1.014
93839W        W66099  34.073  43.746   0.851
93840W        W66100   7.491  42.071  13.367
93841W        W66101  11.038  17.097   3.761
93842W        W66102  15.367  42.354   1.399
93843W        W66103  29.524  14.720  13.131
93844W        W66104  20.706  32.288  12.906
93845W        W66105  18.323  16.243  13.899
93846W        W66106  36.378   1.450   2.078
93847W        W66107  10.764   8.427   4.207
93848W        W66108  34.399  35.453   2.783
93849W        W66109  39.823   4.361  10.849
93850W        W66110  33.962  34.028   3.340
93851W        W66111  39.858   4.542  14.573
93852W        W66112  23.694  30.461   2.681
93853W        W66113  42.919   7.155   2.167
93854W        W66114  37.344   1.700  11.945
93855W        W66115  22.048   1.553   2.263
93856W        W66116   3.326   7.618   3.701
93857W        W66117   2.652  31.096  10.713
93858W        W66118   3.381  24.620   3.128
93859W        W66119  25.179  28.059  11.000
93860W        W66120   7.698  13.865  13.917
93861W        W66121  18.773  27.034  12.514
93862W        W66122  36.974  44.364  14.258
93863W        W66123  26.394   1.029   3.236
93864W        W66124  10.305  40.439  13.980
93865W        W66125   7.786  17.102  11.238
93866W        W66126   9.626  42.724   1.222
93867W        W66127  11.886  11.303  14.467
93868W        W66128  19.212   8.050   3.670
93869W        W66129  17.737  37.241  11.847
93870W        W66130  19.040  36.149  12.334
93871W        W66131  10.463  13.644   1.318
93872W        W66132   1.310  32.836   4.070
93873W        W66133  12.207  30.968   3.100
93874W        W66134  19.029  34.011  14.948
93875W        W66135  12.083   7.012   2.405
93876W        W66136   1.613  16.651   2.319
93877W        W66137  18.061   1.498  13.821
93878W        W66138   6.682  39.930   4.677
93879W        W66139  37.931  15.797  10.501
93880W        W66140  29.062  42.750  12.415
93881W        W66141   3.082  25.683  12.827
93882W        W66142   6.514  23.539   0.007
93883W        W66143  27.419  39.448   0.389
93884W        W66144  30.390  15.537   4.201
93885W        W66145  35.156  28.108  12.022
93886W        W66146  16.195   6.864  14.831
93887W        W66147  42.294  23.627   4.102
93888W        W66148  40.408  28.345   2.879
93889W        W66149  18.306  23.106  13.018
93890W        W66150   6.687  26.726   1.613
93891W        W66151   8.937   8.782  12.560
93892W        W66152  18.259  21.846   4.090
93893W        W66153   3.910  26.406   3.061
93894W        W66154  42.087  44.896   3.209
93895W        W66155   0.240   4.222  10.792
93896W        W66156  33.665  39.541  11.117
93897W        W66157  14.106  43.465  11.513
93898W        W66158  14.273  21.625  11.400
93899W        W66159  26.660  18.783  14.738
93900W        W66160  21.107  44.677  12.505
93901W        W66161  13.902  18.568   0.226
93902W        W66162  35.381  12.086  13.437
93903W        W66163   0.521   1.943   3.361
93904W        W66164  44.652  44.946  14.313
93905W        W66165  40.785  35.950  11.127
93906W        W66166  26.153  31.522  10.718
93907W        W66167  15.407  34.884  10.383
93908W        W66168  11.659  16.247   0.409
93909W        W66169  34.547  43.850   3.709
93910W        W66170  28.431  10.031  10.116
93911W        W66171  29.745  31.948   3.819
93912W        W66172  25.914  30.193  12.887
93913W        W66173  29.481  11.126  13.107
93914W        W66174  22.017   8.669  10.831
93915W        W66175  21.794   8.812  14.388
93916W        W66176  35.361  31.033   0.659
93917W        W66177  14.716   8.555  10.582
93918W        W66178  36.559  38.971  13.072
93919W        W66179   4.677  34.375  10.210
93920W        W66180  43.679  29.165  11.182
93921W        W66181  24.106  32.564   2.259
93922W        W66182  20.052  13.503  14.066
93923W        W66183  25.227  36.510  13.332
93924W        W66184  40.972  33.296  10.625
93925W        W66185  16.467  10.401   0.519
93926W        W66186  11.733  44.757  10.290
93927W        W66187  29.222  21.041   1.562
93928W        W66188   7.864   0.729  10.708
93929W        W66189  44.709  11.635   4.746
93930W        W66190  31.007   6.001  14.028
93931W        W66191  27.306  35.783   1.645
93932W        W66192   3.803   3.454   1.734
93933W        W66193  12.396  40.581  11.996
93934W        W66194  28.235  22.171   1.768
93935W        W66195  14.531  19.738  11.101
93936W        W66196  31.193  26.567  13.494
93937W        W66197  36.652  42.321   1.045
93938W        W66198  34.338   0.727  11.170
93939W        W66199  40.968  33.531  12.897
93940W        W66200  40.514  25.245   1.741
93941W        W66201  21.283  33.650   0.937
93942W        W66202  40.288   3.975  13.411
93943W        W66203  35.522  12.094  14.967
93944W        W66204  30.153   6.305   2.935
93945W        W66205  44.934  37.798  13.853
93946W        W66206  24.345  16.758   1.437
93947W        W66207  24.212  44.094   1.904
93948W        W66208  17.515  30.899   2.102
93949W        W66209  18.160  41.976   4.081
93950W        W66210  32.099  10.402  13.461
93951W        W66211  14.245  27.526  10.161
93952W        W66212  34.662  28.976  14.327
93953W        W66213   5.826  21.996  11.018
93954W        W66214  33.544  24.027   3.659
93955W        W66215  32.499  19.931  14.818
93956W        W66216  22.243  21.260   4.534
93957W        W66217  36.514  40.310   1.504
93958W        W66218  18.975  35.170   1.752
93959W        W66219   0.392  34.043  12.099
93960W        W66220   1.444  22.110  11.703
93961W        W66221  22.187  17.776   2.922
93962W        W66222  10.148  33.943  12.139
93963W        W66223   3.451  37.469   2.330
93964W        W66224  42.916   3.742  14.470
93965W        W66225  24.299  33.964   1.823
93966W        W66226  37.528  41.309  13.847
93967W        W66227  23.442  33.873   2.662
93968W        W66228  37.416  36.570  11.118
93969W        W66229  36.562  30.169   0.847
93970W        W66230   2.947  37.426   0.296
93971W        W66231  33.012  20.621   3.259
93972W        W66232  22.092  37.472  11.969
93973W        W66233  24.054  30.966   3.158
93974W        W66234  44.522  22.240   3.191
93975W        W66235   8.511  35.661   1.818
93976W        W66236  41.291   1.975  12.473
93977W        W66237  34.182  26.489   4.555
93978W        W66238  18.740   4.415   0.286
93979W        W66239  37.327  24.041   4.069
93980W        W66240   5.287  17.310   4.056
93981W        W66241   6.440  31.172   4.174
93982W        W66242  43.823  15.674  12.233
93983W        W66243  19.643  32.299   0.460
93984W        W66244  27.723   7.844  14.497
93985W        W66245   1.298  12.564   3.669
93986W        W66246   5.625   3.232   2.772
93987W        W66247  37.592   3.639  14.274
93988W        W66248  44.981  23.377   2.674
93989W        W66249  38.782  44.148   3.963
93990W        W66250  12.431  23.367  14.029
93991W        W66251  14.562  30.517   2.748
93992W        W66252   9.158   7.328  11.861
93993W        W66253  11.460   4.124  11.614
93994W        W66254   4.049  16.911  10.040
93995W        W66255   6.934  32.385  11.600
93996W        W66256   5.898  29.492   3.630
93997W        W66257   8.616  31.504   2.712
93998W        W66258  14.995  30.031   2.468
93999W        W66259  22.481  21.710  13.051
94000W        W66260  37.883   3.084   4.027
94001W        W66261   6.533   3.005   0.516
94002W        W66262  33.642   2.950  11.542
94003W        W66263  25.331  35.814   5.122
94004W        W66264  39.565  44.778  14.880
94005W        W66265  38.959  27.360  12.583
94006W        W66266   9.180  32.074  12.421
94007W        W66267   5.687  34.913  13.897
94008W        W66268  38.427  42.795   4.614
94009W        W66269  18.744  40.858  10.680
94010W        W66270  35.191   3.891   2.026
94011W        W66271  22.631  12.482  13.586
94012W        W66272  22.703  18.044  11.023
94013W        W66273  19.079  34.986  13.747
94014W        W66274  34.533  25.093   0.780
94015W        W66275   0.756  30.472  14.338
94016W        W66276  19.486  12.455  13.029
94017W        W66277   1.401   0.168  10.923
94018W        W66278  19.097  24.375  11.285
94019W        W66279  38.063  17.109   4.687
94020W        W66280  16.758  41.713   0.013
94021W        W66281  39.513   9.429   4.600
94022W        W66282  13.541   0.422  12.086
94023W        W66283  40.602  21.609  14.203
94024W        W66284  24.165  14.278  14.306
94025W        W66285  17.552   0.451  11.577
94026W        W66286   5.935  13.273  13.976
94027W        W66287  12.125   5.616  12.507
94028W        W66288  14.570   7.224   4.224
94029W        W66289  37.428  27.040   1.835
94030W        W66290  30.573  32.289  11.947
94031W        W66291  20.523  21.268  11.409
94032W        W66292  26.577  35.057  10.587
94033W        W66293  27.397  36.106   0.929
94034W        W66294  16.484  25.091   0.209
94035W        W66295  15.782  30.332  11.981
94036W        W66296   4.337   3.107  12.803
94037W        W66297   3.870  34.262  13.103
94038W        W66298   2.308   2.807  13.308
94039W        W66299  21.234  19.633  14.474
94040W        W66300  14.668   4.442   2.401
94041W        W66301  29.892  29.443   0.002
94042W        W66302  20.231   4.168   1.407
94043W        W66303  41.482  38.863  14.268
94044W        W66304  36.512  12.864  11.161
94045W        W66305  33.907  15.658  11.977
94046W        W66306   3.685  33.391   3.343
94047W        W66307   0.566  11.776  11.109
94048W        W66308  13.845  17.697  13.542
94049W        W66309   4.699  12.272   0.432
94050W        W66310   3.806   0.394   1.163
94051W        W66311  34.999  19.761   2.900
94052W        W66312  11.796  11.404   4.188
94053W        W66313  29.048  24.787  14.075
94054W        W66314   7.689  10.603   3.454
94055W        W66315   9.837  22.631  11.770
94056W        W66316  31.495  22.749   1.616
94057W        W66317  18.347  22.823  14.070
94058W        W66318  10.477  11.690   2.736
94059W        W66319  43.641  32.193  13.850
94060W        W66320  36.009   3.707  10.955
94061W        W66321  17.309  37.536  11.996
94062W        W66322  37.821  31.343  14.758
94063W        W66323   2.703  29.895   0.336
94064W        W66324   2.419  42.510   0.565
94065W        W66325   2.521  10.846   4.408
94066W        W66326  17.248  24.219   2.598
94067W        W66327   4.360  23.134   0.706
94068W        W66328  42.839  30.350   1.442
94069W        W66329   8.135  20.692   2.769
94070W        W66330  39.762  18.186   0.712
94071W        W66331   0.374  41.266  10.683
94072W        W66332  43.867   2.032   3.222
94073W        W66333  29.677  31.166   0.033
94074W        W66334  26.764   1.145   0.114
94075W        W66335  38.239   8.772   2.197
94076W        W66336   9.458  37.475  13.517
94077W        W66337  22.822  40.806  12.150
94078W        W66338  32.707  29.003   3.672
94079W        W66339  18.040  17.194  11.917
94080W        W66340  42.442  18.118  12.527
94081W        W66341  32.186   6.749  11.610
94082W        W66342  31.558  17.754  14.790
94083W        W66343  27.892  14.947   0.355
94084W        W66344   6.513  43.740   3.215
94085W        W66345  40.064  38.561  11.480
94086W        W66346  33.376  29.427   2.284
94087W        W66347  23.059  43.397   0.976
94088W        W66348  23.578   6.946  12.483
94089W        W66349  10.230  44.964  14.048
94090W        W66350   6.891  31.155   3.536
94091W        W66351  14.076  11.142  11.613
94092W        W66352  21.100  44.026   2.264
94093W        W66353  28.960  35.894  10.775
94094W        W66354  34.045  42.281   0.972
94095W        W66355  33.329  15.318  11.875
94096W        W66356  18.087  20.408  12.886
94097W        W66357   7.419  33.138   4.147
94098W        W66358   4.401  26.663  11.106
94099W        W66359   0.490   9.295  11.973
94100W        W66360  30.991  41.211  11.253
94101W        W66361  39.488  40.631   0.712
94102W        W66362  36.788   0.954   4.391
94103W        W66363  28.604  20.422  14.862
94104W        W66364  37.114   4.938  11.621
94105W        W66365   4.822  28.890   1.670
94106W        W66366  26.218  17.755   3.874
94107W        W66367   2.225  32.447   4.861
94108W        W66368  15.296  24.700   1.396
94109W        W66369  15.845  42.823   0.013
94110W        W66370  13.123  11.479   3.845
94111W        W66371   8.358  26.714   1.086
94112W        W66372  17.228   7.277   1.021
94113W        W66373  42.826  18.022  11.190
94114W        W66374  17.570  19.049  10.475
94115W        W66375  40.786   7.128  11.636
94116W        W66376  13.307  10.115  11.639
94117W        W66377  41.977  12.043   0.771
94118W        W66378  10.185  43.059  10.745
94119W        W66379  17.604  21.964   2.107
94120W        W66380  34.193  25.288   4.392
94121W        W66381  26.713   6.967  13.451
94122W        W66382  32.398  13.995   4.157
94123W        W66383  20.401  36.028  11.915
94124W        W66384   4.680  43.981  10.349
94125W        W66385   4.267  20.988   0.317
94126W        W66386  37.854  37.652  12.455
94127W        W66387  24.548  30.878   2.000
94128W        W66388  33.465  29.116  13.528
94129W        W66389  27.172  26.127  14.530
94130W        W66390  16.831  37.548   2.731
94131W        W66391  29.430   1.236   1.903
94132W        W66392  29.187  30.667  10.356
94133W        W66393  30.643   4.633  12.539
94134W        W66394  19.265  28.156   0.783
94135W        W66395  10.074  34.660  10.182
94136W        W66396  15.238  35.535  11.624
94137W        W66397  23.136   2.370   4.505
94138W        W66398  30.347  30.587  14.487
94139W        W66399   6.860  40.825  12.490
94140W        W66400  38.559   3.894  13.335
94141W        W66401  30.994  21.256   4.973
94142W        W66402  29.412  16.210   1.364
94143W        W66403   7.665  13.244  12.346
94144W        W66404  21.014  31.000   0.469
94145W        W66405  31.607   4.070  10.718
94146W        W66406   2.692  34.582   1.030
94147W        W66407  27.118  41.566  14.434
94148W        W66408  43.006  44.686   2.334
94149W        W66409  33.069   7.907   1.226
94150W        W66410   0.268  19.333   4.031
94151W        W66411  36.061  30.367   4.877
94152W        W66412  43.734  33.022   2.889
94153W        W66413  27.510  18.323   3.647
94154W        W66414  27.510  12.497  12.243
94155W        W66415  16.662  19.143  14.464
94156W        W66416  10.440  20.202   2.815
94157W        W66417  29.831   7.368  12.919
94158W        W66418   8.628  33.392  14.281
94159W        W66419  26.949  20.142   1.778
94160W        W66420  15.558  19.496   4.146
94161W        W66421  31.816  28.436  10.756
94162W        W66422  32.392  44.528   1.785
94163W        W66423  15.652  35.131   0.899
94164W        W66424  43.920  32.624   3.575
94165W        W66425  26.258  28.783   2.180
94166W        W66426  26.554  12.496  12.432
94167W        W66427  28.150   2.727   0.033
94168W        W66428  43.444   4.762  13.072
94169W        W66429  38.611   9.328   3.331
94170W        W66430   3.183  19.273   0.916
94171W        W66431  20.640  35.788   2.440
94172W        W66432  18.126   4.219   3.479
94173W        W66433  39.840  40.431   1.304
94174W        W66434  44.184   4.991   4.154
94175W        W66435   2.447   5.146  14.037
94176W        W66436  19.151  42.798  11.120
94177W        W66437  40.391   0.110  13.005
94178W        W66438  38.048   5.806  10.981
94179W        W66439  39.444  37.619   4.207
94180W        W66440  31.810  37.286   2.210
94181W        W66441  36.458   3.445  10.899
94182W        W66442  27.948  41.269   2.717
94183W        W66443  19.864  24.010  12.958
94184W        W66444  17.103  34.106   1.179
94185W        W66445  19.608  31.489   3.273
94186W        W66446  24.785  36.461  11.898
94187W        W66447  29.456  15.769   1.662
94188W        W66448   2.901  30.927   1.697
94189W        W66449  39.409  26.204  11.638
94190W        W66450  17.724  23.522   2.112
94191W        W66451  11.494  18.679   1.365
94192W        W66452  38.623  29.053  12.797
94193W        W66453  29.098  34.143   1.775
94194W        W66454   1.720  20.299  14.905
94195W        W66455  18.654  24.281   3.713
94196W        W66456  41.771  19.735   3.728
94197W        W66457   4.308  28.771   1.766
94198W        W66458  34.355  22.339  11.615
94199W        W66459  28.096  37.775   3.415
94200W        W66460  39.472   3.451  12.493
94201W        W66461  38.017  42.479  14.230
94202W        W66462  13.770   8.192   2.325
94203W        W66463  32.867  36.361  11.162
94204W        W66464  39.156  32.949  13.443
94205W        W66465  11.764  31.883   4.635
94206W        W66466  19.608  24.029   1.338
94207W        W66467  33.357  42.412  11.254
94208W        W66468  11.117  19.733  12.542
94209W        W66469  22.806   0.455   0.717
94210W        W66470   8.076  19.843  11.068
94211W        W66471   9.128  30.078   2.347
94212W        W66472  35.690  21.168   3.602
94213W        W66473  10.597  38.369  11.586
94214W        W66474  16.558  26.491  13.972
94215W        W66475  20.021  33.006   0.916
94216W        W66476  36.849   3.826   1.349
94217W        W66477  16.955  25.805  10.216
94218W        W66478  13.584  21.003   4.733
94219W        W66479  43.041  16.686  10.645
94220W        W66480  27.040  11.161  14.687
94221W        W66481  28.050  23.949  12.546
94222W        W66482  23.745   7.620  14.480
94223W        W66483  10.190  30.597   4.924
94224W        W66484  34.187  29.447   3.597
94225W        W66485   5.312  43.315  10.662
94226W        W66486  33.641  15.746  12.607
94227W        W66487   7.216  28.935   4.406
94228W        W66488  24.782  25.373   1.782
94229W        W66489  29.741  16.977  13.853
94230W        W66490  25.194  35.959   3.339
94231W        W66491  36.803  24.070  13.255
94232W        W66492  31.075  20.803   3.771
94233W        W66493  33.541  36.806  14.959
94234W        W66494  12.024  22.051  14.177
94235W        W66495   7.050  22.137  10.631
94236W        W66496  37.057  16.210   3.960
94237W        W66497  26.201  14.081  10.300
94238W        W66498  31.922  13.782   2.025
94239W        W66499   7.784  19.388  14.642
94240W        W66500   8.243  22.055   2.598
94241W        W66501  37.282  41.791  11.979
94242W        W66502  43.338  38.273  13.423
94243W        W66503  26.414  13.276   3.173
94244W        W66504  11.866  21.307  10.066
94245W        W66505   0.235  34.538   2.734
94246W        W66506  19.669   2.670   2.422
94247W        W66507  40.066  28.954  12.076
94248W        W66508  24.154  11.058  11.166
94249W        W66509  20.160  30.261  12.506
94250W        W66510  42.007  19.089   2.464
94251W        W66511  24.953  15.759   4.820
94252W        W66512  10.173  37.089  14.329
94253W        W66513   3.773   2.716   2.178
94254W        W66514   6.344  15.711  12.762
94255W        W66515  17.862   7.287   5.326
94256W        W66516  30.387  21.721  12.040
94257W        W66517  42.866   7.133  12.360
94258W        W66518  19.748   7.747  10.154
94259W        W66519  40.820  41.554  13.369
94260W        W66520  27.278  43.338  14.421
94261W        W66521   1.838  29.479   1.962
94262W        W66522  29.253   5.150  12.564
94263W        W66523  43.732  15.067  11.646
94264W        W66524  18.356   3.977  12.527
94265W        W66525  11.284  20.324   4.130
94266W        W66526   4.614  26.836   2.732
94267W        W66527  35.616  39.398  14.098
94268W        W66528   9.875  23.164   4.586
94269W        W66529  36.943  18.596   4.155
94270W        W66530   1.940  22.450  12.221
94271W        W66531  22.691  19.946  12.355
94272W        W66532   2.141  27.044  12.518
94273W        W66533  42.929  13.481  12.993
94274W        W66534  19.259  42.574  10.664
94275W        W66535  42.737  41.015   3.623
94276W        W66536  25.304  32.487  13.194
94277W        W66537  43.928   0.455   3.616
94278W        W66538  11.391   3.827   1.819
94279W        W66539  26.702  20.623   2.334
94280W        W66540   5.139  21.776  11.630
94281W        W66541  22.517   7.816  11.155
94282W        W66542  11.376  14.545   3.760
94283W        W66543  18.245   6.917   0.502
94284W        W66544   5.208  27.002  10.943
94285W        W66545  11.592   8.821  12.973
94286W        W66546  15.574   7.724  10.696
94287W        W66547  29.697   7.182   2.667
94288W        W66548  37.834  34.323  12.945
94289W        W66549   0.275  40.028   3.140
94290W        W66550  23.328  23.012   2.734
94291W        W66551   8.858  34.617   3.699
94292W        W66552  18.575   1.809   4.547
94293W        W66553  38.482  11.850  14.287
94294W        W66554  20.278  26.262   4.667
94295W        W66555  43.389  10.415  12.685
94296W        W66556  24.994  12.657  11.609
94297W        W66557   9.428   6.147   0.868
94298W        W66558  39.191  29.227   3.679
94299W        W66559  32.146   2.810  14.427
94300W        W66560  13.698  24.268  12.668
94301W        W66561  10.618  25.526  14.457
94302W        W66562   3.880  18.731  13.378
94303W        W66563   7.759  42.879   4.555
94304W        W66564  13.598  30.877   0.914
94305W        W66565  40.655  39.211  13.975
94306W        W66566  31.908  28.626   1.338
94307W        W66567  16.420  29.523   2.661
94308W        W66568  19.068  17.804   3.825
94309W        W66569  34.810  40.951   2.731
94310W        W66570  12.629  11.143  13.248
94311W        W66571  17.801   9.052  12.325
94312W        W66572  42.970   1.255  14.687
94313W        W66573  20.569  29.124   1.684
94314W        W66574   0.896   1.438  12.051
94315W        W66575  20.537  38.608  13.432
94316W        W66576   1.556  24.507  13.897
94317W        W66577  38.344  33.141  12.471
94318W        W66578  15.987   3.651   2.611
94319W        W66579  32.508  14.817   4.909
94320W        W66580  14.165  11.381  12.567
94321W        W66581  12.818  37.787   3.410
94322W        W66582  17.531   2.237  10.410
94323W        W66583   4.412  27.550   3.196
94324W        W66584  21.373  20.829   5.067
94325W        W66585  22.422  42.691   9.852
94326W        W66586  26.701  37.295   3.914
94327W        W66587  11.027  22.755   4.371
94328W        W66588  33.318   7.830   3.704
94329W        W66589  18.213  10.093  12.068
94330W        W66590  28.489   2.672   2.320
94331W        W66591  41.865  12.247  13.125
94332W        W66592  37.518  14.874  12.637
94333W        W66593   1.805  13.598  11.599
94334W        W66594  11.261  25.634  13.177
94335W        W66595  20.714  28.433   4.712
94336W        W66596  43.261  15.781  13.042
94337W        W66597   8.239  41.040   2.107
94338W        W66598   1.458  19.908   2.616
94339W        W66599   7.751  25.937  10.978
94340W        W66600  30.776  13.097  13.555
94341W        W66601  34.542  26.491  14.814
94342W        W66602  29.438  33.829   2.358
94343W        W66603  17.127  33.686  13.937
94344W        W66604  31.076  36.951  14.836
94345W        W66605  23.981  15.574  11.068
94346W        W66606  42.439   1.655   4.609
94347W        W66607  11.216  28.200   3.756
94348W        W66608  18.644  28.835   4.166
94349W        W66609  29.517   6.123   4.199
94350W        W66610  33.847  12.842   0.510
94351W        W66611  24.638  21.151   3.275
94352W        W66612  44.692  16.651   2.816
94353W        W66613  35.666   5.253  12.550
94354W        W66614  14.830  26.704  14.381
94355W        W66615  28.828  32.992  12.654
94356W        W66616  41.945  19.407   3.357
94357W        W66617   0.197   8.773  13.087
94358W        W66618  36.029  12.102  11.452
94359W        W66619  41.330  32.437  12.063
94360W        W66620  23.060  34.576  13.409
94361W        W66621  33.890   1.750  13.966
94362W        W66622   4.317  28.987   4.676
94363W        W66623  44.974  22.507   0.143
94364W        W66624  25.138  11.336  11.995
94365W        W66625  35.966  33.324   5.073
94366W        W66626  41.821  23.638   2.775
94367W        W66627   5.407  12.323  14.891
94368W        W66628  26.050   1.960   1.693
94369W        W66629  32.814  33.551  11.939
94370W        W66630   5.230  15.104   4.989
94371W        W66631  20.140  42.883   5.100
94372W        W66632  38.311  29.829   4.528
94373W        W66633  41.066  28.473   1.186
94374W        W66634  37.521  12.022  13.079
94375W        W66635  37.896  21.171  12.467
94376W        W66636  22.172  17.556   1.991
94377W        W66637  16.615  19.082  11.399
94378W        W66638  29.416  23.550  12.267
94379W        W66639  24.841  38.451  14.485
94380W        W66640  42.065  23.921  10.707
94381W        W66641   3.728  39.541  10.392
94382W        W66642  13.657  16.571   5.183
94383W        W66643  11.900  37.495  11.951
94384W        W66644  25.897  23.914  12.944
94385W        W66645  44.932   0.928   1.482
94386W        W66646  40.256  21.763   4.451
94387W        W66647   4.289  19.012  10.512
94388W        W66648  31.078  30.654   0.388
94389W        W66649  16.665  32.291  13.994
94390W        W66650   0.586  41.541   1.912
94391W        W66651  41.521  32.447   3.664
94392W        W66652  15.883  21.566  13.520
94393W        W66653  22.567  31.852  13.372
94394W        W66654  26.567   3.056  11.519
94395W        W66655  40.065  38.488   4.175
94396W        W66656  34.261   1.635   4.189
94397W        W66657  11.021  19.398   0.917
94398W        W66658  24.588  22.587  11.598
94399W        W66659  13.871  37.081  11.554
94400W        W66660   7.811  28.760  13.031
94401W        W66661  32.485  37.999   4.543
94402W        W66662   7.623   8.777  11.012
94403W        W66663  14.175  26.510   2.531
94404W        W66664   3.922  26.673   0.869
94405W        W66665  43.541   0.220  10.805
94406W        W66666  21.543   6.369   3.690
94407W        W66667  30.701   0.904   4.037
94408W        W66668  32.113  34.050   3.667
94409W        W66669   6.802  36.930  12.528
94410W        W66670  38.068  15.159   1.960
94411W        W66671   3.268  36.532   0.439
94412W        W66672  14.141  38.116   1.699
94413W        W66673  15.691  30.869  11.098
94414W        W66674  19.527  23.521   1.932
94415W        W66675  44.440  35.154   2.722
94416W        W66676   5.631  15.704  12.742
94417W        W66677   2.803   3.908   4.571
94418W        W66678  24.608   0.624  11.146
94419W        W66679  19.059  29.495   1.234
94420W        W66680  36.001  23.233  13.916
94421W        W66681  37.993  21.495   2.685
94422W        W66682  12.825  16.191   1.262
94423W        W66683  43.187  26.243   3.601
94424W        W66684  39.359  18.917  12.069
94425W        W66685  35.644   2.650   4.599
94426W        W66686   4.253  39.635   2.265
94427W        W66687  10.661   8.581   1.805
94428W        W66688  33.558   2.736  10.515
94429W        W66689  44.747  13.643   0.497
94430W        W66690  20.533  42.253   3.138
94431W        W66691  13.292  25.479  14.330
94432W        W66692  40.432   6.913   3.288
94433W        W66693  32.598  29.716  10.770
94434W        W66694  22.155  29.467   1.290
94435W        W66695   3.710  35.774  13.389
94436W        W66696  24.046  34.258  12.984
94437W        W66697   5.360  26.325   3.069
94438W        W66698  44.771  17.086   2.564
94439W        W66699   6.305  21.483  13.313
94440W        W66700  10.570  15.533  13.506
94441W        W66701  20.829  43.965   3.788
94442W        W66702   0.476  19.128  14.916
94443W        W66703  26.508   0.564  13.341
94444W        W66704  18.355   1.177   3.154
94445W        W66705  12.262  42.431   0.678
94446W        W66706  31.617  33.541   2.229
94447W        W66707  34.708  18.050   0.786
94448W        W66708  31.523  31.622   4.221
94449W        W66709  21.336  16.759   2.920
94450W        W66710   2.970   7.632  14.459
94451W        W66711  21.671  29.611   4.849
94452W        W66712  35.443  24.075  10.924
94453W        W66713  29.148   8.587   3.353
94454W        W66714  28.681   2.349   1.477
94455W        W66715  27.130  25.312   2.771
94456W        W66716  35.992  44.314  12.764
94457W        W66717  34.944   0.468   3.553
94458W        W66718  32.822  34.457   2.651
94459W        W66719   4.224  14.381  14.342
94460W        W66720  31.035  10.986   0.224
94461W        W66721   7.809   7.407   3.123
94462W        W66722  16.316  18.496   0.445
94463W        W66723  33.300   4.179   1.126
94464W        W66724  25.953  14.600  13.135
94465W        W66725  15.148  31.035   2.426
94466W        W66726  26.590  20.574   1.003
94467W        W66727  26.009   5.801  11.139
94468W        W66728  30.894  19.288   3.570
94469W        W66729  13.098   5.813   1.267
94470W        W66730  21.226  26.180  11.932
94471W        W66731  34.576  42.564  12.539
94472W        W66732  26.314  40.813  11.938
94473W        W66733  23.685   2.322   0.903
94474W        W66734  36.722   9.896   2.247
94475W        W66735  41.336  35.608   2.540
94476W        W66736  23.742  42.384   2.264
94477W        W66737   6.027  23.750  14.848
94478W        W66738  13.826  25.468   4.420
94479W        W66739   4.457  43.842   2.931
94480W        W66740   1.439  15.373   4.662
94481W        W66741  23.538  43.717  14.914
94482W        W66742  41.720  10.783  14.538
94483W        W66743  31.203  20.668  11.987
94484W        W66744  31.524  13.163   3.534
94485W        W66745  18.307  10.193   3.657
94486W        W66746  28.097   8.418  14.008
94487W        W66747  12.271   7.929   2.840
94488W        W66748  33.960   5.781   0.318
94489W        W66749  25.132   0.225  10.727
94490W        W66750  24.178  12.075  11.138
94491W        W66751  27.537  38.985  12.473
94492W        W66752  28.067   4.015  14.076
94493W        W66753   1.475  37.468   0.225
94494W        W66754   6.509   0.927  11.711
94495W        W66755  29.112   7.074   0.926
94496W        W66756  21.690  38.023   1.352
94497W        W66757  41.537  13.586  13.134
94498W        W66758  21.243  43.760   1.426
94499W        W66759  23.677  11.592   3.941
94500W        W66760  39.086  24.895   2.861
94501W        W66761   0.443  44.650   4.195
94502W        W66762  14.642   4.653   1.918
94503W        W66763  27.858  27.503   3.699
94504W        W66764  14.334  26.346  12.478
94505W        W66765  40.006  34.906   4.506
94506W        W66766  32.726  30.686  13.394
94507W        W66767  39.982   2.228  13.433
94508W        W66768  43.605  13.057  14.035
94509W        W66769  27.485  41.129  11.131
94510W        W66770  26.577  29.397   1.190
94511W        W66771  22.200  39.303   2.912
94512W        W66772  30.479  37.424   2.708
94513W        W66773  30.029   6.268   2.419
94514W        W66774  25.175  35.488  10.668
94515W        W66775  26.288  35.044   3.285
94516W        W66776  15.387  38.541   3.742
94517W        W66777  44.000  27.960  13.915
94518W        W66778  44.872   0.015  11.094
94519W        W66779   6.879  32.066   4.591
94520W        W66780  44.736  13.010   1.049
94521W        W66781  10.772  40.867   1.266
94522W        W66782  20.575  11.681   3.589
94523W        W66783  25.544   4.450   0.951
94524W        W66784  15.532  38.458  12.673
94525W        W66785   6.798   8.550  13.981
94526W        W66786  38.711  23.672   2.175
94527W        W66787  21.527  41.791   2.802
94528W        W66788  34.682  30.732  14.951
94529W        W66789   3.730  18.739   1.421
94530W        W66790  43.401   3.285   2.858
94531W        W66791  44.189  40.491   2.284
94532W        W66792  24.512  34.631  13.021
94533W        W66793  40.468   2.893   0.745
94534W        W66794  41.779  34.614   0.797
94535W        W66795  26.763   5.385  13.489
94536W        W66796  22.884  23.053  14.451
94537W        W66797  39.966  11.831  12.839
94538W        W66798  26.570  35.839   0.358
94539W        W66799  13.150  10.456   4.172
94540W        W66800  40.898  21.250   2.056
94541W        W66801  43.701  36.021   1.524
94542W        W66802  32.909  25.466   3.429
94543W        W66803   7.195  24.199   0.899
94544W        W66804  25.573  14.408   3.575
94545W        W66805  22.737  12.873  12.773
94546W        W66806  17.566  37.440  10.629
94547W        W66807  19.269  20.270   0.760
94548W        W66808  38.341   5.170   2.931
94549W        W66809   9.333  36.168  12.437
94550W        W66810  37.073  17.123   1.257
94551W        W66811  31.930  41.582  10.690
94552W        W66812  33.606  24.710   4.100
94553W        W66813  13.392  22.026  10.458
94554W        W66814   7.398  15.153  11.196
94555W        W66815  40.520   7.870   3.326
94556W        W66816  15.419  22.456   2.269
94557W        W66817  31.514  29.748   2.276
94558W        W66818  27.420  20.716   1.195
94559W        W66819  19.033  18.960  12.512
94560W        W66820   4.180  19.189   2.867
94561W        W66821  39.996  10.574   4.593
94562W        W66822   7.722  10.246   4.801
94563W        W66823  26.353  42.140  12.493
94564W        W66824  18.268   0.932  12.892
94565W        W66825   7.381  42.758  12.026
94566W        W66826   0.133  19.783  12.140
94567W        W66827  31.561  38.863  13.218
94568W        W66828  26.268  10.375  12.651
94569W        W66829  41.031  32.195  11.688
94570W        W66830  16.810  22.526   4.957
94571W        W66831  37.129  35.042   4.647
94572W        W66832   0.392   4.359   4.352
94573W        W66833   0.520   7.855   0.910
94574W        W66834  31.623   8.311   0.253
94575W        W66835  31.617  18.073  11.566
94576W        W66836  40.300  32.814   2.627
94577W        W66837  44.443  11.351   3.353
94578W        W66838  37.368  37.992  12.132
94579W        W66839  42.281   1.873  12.701
94580W        W66840  26.552  41.870   2.653
94581W        W66841  41.070  25.881  12.634
94582W        W66842   7.785  16.309  14.023
94583W        W66843  40.927   2.453   4.760
94584W        W66844  42.717   1.432   0.471
94585W        W66845  37.946  14.081  13.784
94586W        W66846  31.915  35.405   3.378
94587W        W66847  40.170   3.100   5.015
94588W        W66848  42.466  12.288   1.651
94589W        W66849   4.327  27.071  10.117
94590W        W66850  27.200   4.224  12.574
94591W        W66851  26.628  36.262  10.831
94592W        W66852  11.353   0.910  13.870
94593W        W66853  13.035  28.347  10.609
94594W        W66854  22.487  22.586   1.183
94595W        W66855  37.117   5.157   1.867
94596W        W66856  37.428   0.959  14.773
94597W        W66857  41.739  36.881  13.852
94598W        W66858  11.289  13.866  10.624
94599W        W66859  12.548  22.899  13.456
94600W        W66860  35.856  21.690  10.876
94601W        W66861   7.305  39.365   4.350
94602W        W66862   0.155  44.260  11.951
94603W        W66863  32.668  11.296  11.127
94604W        W66864  14.569  29.161  13.029
94605W        W66865  35.330  23.621  10.722
94606W        W66866   3.920  23.102  12.053
94607W        W66867   4.220   2.477  14.226
94608W        W66868  37.396  33.032  13.033
94609W        W66869  43.778  41.396  13.372
94610W        W66870  10.700  18.314   0.072
94611W        W66871  18.125   8.141   9.757
94612W        W66872  10.325  34.606   0.962
94613W        W66873   4.732   9.173   3.654
94614W        W66874  29.914   9.004   2.454
94615W        W66875   4.565   8.785   1.660
94616W        W66876  42.811  11.402  14.804
94617W        W66877  30.961  36.571  14.511
94618W        W66878  11.815  35.956  14.361
94619W        W66879  28.204  12.181  14.426
94620W        W66880  24.185   3.381  13.505
94621W        W66881  28.144  24.959   4.070
94622W        W66882   3.935  28.012  14.032
94623W        W66883  26.912  42.274   4.253
94624W        W66884  28.333  17.712   2.356
94625W        W66885  27.629   3.942  13.827
94626W        W66886  16.298  32.050   2.340
94627W        W66887   3.368  19.492   3.171
94628W        W66888  20.602  33.466   0.779
94629W        W66889  18.752  11.100   4.815
94630W        W66890  41.878   1.692  14.426
94631W        W66891  40.563  38.797  14.311
94632W        W66892   4.156  41.573   4.647
94633W        W66893   2.732  37.965   0.194
94634W        W66894  27.246   8.399  13.814
94635W        W66895   4.286  27.941  11.434
94636W        W66896  21.582  42.120   4.525
94637W        W66897  13.367  27.049   3.730
94638W        W66898  23.534  25.570   3.717
94639W        W66899  12.122  23.599   0.384
94640W        W66900   4.603  43.853   0.844
94641W        W66901  42.791  22.938  14.354
94642W        W66902  32.948   5.928  12.367
94643W        W66903  30.717  24.135   3.446
94644W        W66904  12.646  41.331   0.038
94645W        W66905  18.234  20.674  11.597
94646W        W66906  44.580  17.024  11.312
94647W        W66907  42.055  36.455  10.726
94648W        W66908   2.182  32.330   1.804
94649W        W66909   9.571  13.308   3.256
94650W        W66910  18.159  38.784   0.503
94651W        W66911  40.024   9.368  12.580
94652W        W66912  22.530  13.600   4.266
94653W        W66913  31.678  31.835   5.416
94654W        W66914  39.081  35.804   0.824
94655W        W66915  31.522  13.683   1.699
94656W        W66916  44.317   3.413  12.415
94657W        W66917  28.917  11.692  12.814
94658W        W66918  26.405   3.770   0.270
94659W        W66919   7.889  43.406   3.809
94660W        W66920  29.409  19.175   2.413
94661W        W66921  32.988  16.825  14.449
94662W        W66922  31.955  39.775   2.383
94663W        W66923  19.596  42.974  10.923
94664W        W66924  42.104  44.814   2.322
94665W        W66925  15.517  40.858   0.403
94666W        W66926  11.335   4.106  12.979
94667W        W66927  36.908  12.773   3.332
94668W        W66928  23.591  36.004  12.032
94669W        W66929  35.205  18.278  12.952
94670W        W66930  16.324  43.301   3.385
94671W        W66931  27.766  27.041  11.846
94672W        W66932  37.300  40.076   1.234
94673W        W66933   2.630  36.822   2.875
94674W        W66934  20.957  29.165  11.595
94675W        W66935  22.252  27.236   3.615
94676W        W66936  39.824  42.060   3.733
94677W        W66937  41.442  32.010   4.230
94678W        W66938  16.184  32.009  13.985
94679W        W66939  27.560   1.983   3.847
94680W        W66940  44.918  12.880   1.809
94681W        W66941  27.845  33.856   3.390
94682W        W66942   2.719  42.827  11.055
94683W        W66943  44.809  13.756   2.314
94684W        W66944   2.318   3.168  12.415
94685W        W66945  29.901  21.650   4.344
94686W        W66946  20.508   4.047   0.978
94687W        W66947   3.148  17.037  13.728
94688W        W66948  32.875   9.976  11.018
94689W        W66949  34.670  12.580   0.951
94690W        W66950  24.181   5.298   0.300
94691W        W66951  28.288  38.152  11.516
94692W        W66952  43.809   7.665  12.507
94693W        W66953  24.259  14.360  12.909
94694W        W66954  23.396  29.087  12.899
94695W        W66955  10.155  40.894   3.717
94696W        W66956  29.082  10.785   0.010
94697W        W66957  10.601   3.304  12.376
94698W        W66958  35.525  36.331  14.725
94699W        W66959   6.399  12.558   3.586
94700W        W66960  28.450  28.998   2.892
94701W        W66961  21.959  38.600   2.260
94702W        W66962  37.202  14.315  14.452
94703W        W66963  18.356  26.990  14.844
94704W        W66964  11.272  18.142   4.395
94705W        W66965  43.052  30.326  12.784
94706W        W66966  29.406  24.415   4.030
94707W        W66967   6.660  10.285   3.263
94708W        W66968  23.656   5.747  10.795
94709W        W66969  26.719  16.670   1.251
94710W        W66970  30.387  28.302   3.652
94711W        W66971  24.058  16.344   1.298
94712W        W66972  16.037  15.092  10.204
94713W        W66973  10.135  11.560   4.099
94714W        W66974  36.834   9.204   5.082
94715W        W66975  19.452  10.839   0.378
94716W        W66976  42.964  14.507  13.894
94717W        W66977  13.874  21.727   2.842
94718W        W66978  33.916  39.714   1.295
94719W        W66979   5.161  30.475   1.344
94720W        W66980  30.506   0.248   1.738
94721W        W66981   0.287  26.643   1.496
94722W        W66982   4.278  26.498   0.240
94723W        W66983  26.200  17.819   4.390
94724W        W66984   6.899  26.791   2.610
94725W        W66985  21.670  36.474  12.551
94726W        W66986  37.632  15.380  12.580
94727W        W66987  16.929  15.107  11.482
94728W        W66988   7.813  44.488  13.579
94729W        W66989  20.965  15.098   2.244
94730W        W66990  29.141  31.542   2.277
94731W        W66991   5.686  25.099  14.785
94732W        W66992   8.054  17.861   5.089
94733W        W66993   5.903   6.072   3.591
94734W        W66994  41.792  32.896   1.852
94735W        W66995  21.148  11.127  14.766
94736W        W66996  35.850  17.679  14.457
94737W        W66997  32.188  27.147   2.815
94738W        W66998   6.328  36.090   1.433
94739W        W66999  18.470  22.775   2.779
94740W        W67000  44.829  28.493   0.486
94741W        W67001   5.624  24.088  10.698
94742W        W67002  36.204  18.268  12.790
94743W        W67003  21.735  31.745   0.286
94744W        W67004  44.252  19.799  13.475
94745W        W67005  26.021   3.975  10.696
94746W        W67006  41.557  14.621   0.536
94747W        W67007  44.479  36.308  12.683
94748W        W67008  14.211  39.962   2.050
94749W        W67009  37.145  26.309   3.696
94750W        W67010  26.920  41.363   0.443
94751W        W67011  33.836  41.191  14.576
94752W        W67012  19.434  36.140   4.801
94753W        W67013   5.741  31.575  12.937
94754W        W67014  39.300  17.153  12.935
94755W        W67015  22.607  12.585   0.673
94756W        W67016   0.570  16.542  12.950
94757W        W67017  29.966  18.658  13.188
94758W        W67018  32.921  37.970   0.697
94759W        W67019  15.313  20.530   0.681
94760W        W67020   4.354  40.320  12.047
94761W        W67021   8.181  34.492  14.375
94762W        W67022  17.251   0.949  11.587
94763W        W67023  22.510  21.725  10.211
94764W        W67024   5.110  10.281  12.211
94765W        W67025  35.868   3.465   3.076
94766W        W67026   2.801   3.486  13.762
94767W        W67027   3.165  26.039   0.893
94768W        W67028   2.291  26.194   4.727
94769W        W67029  11.101  40.909   2.161
94770W        W67030  13.168  17.031  11.110
94771W        W67031   8.956  43.705  13.746
94772W        W67032  14.728   9.324   2.854
94773W        W67033  29.365  27.404   2.393
94774W        W67034  23.603  31.916   0.250
94775W        W67035   1.356   1.540  12.317
94776W        W67036  28.017  26.454  11.593
94777W        W67037   2.314   3.976   2.269
94778W        W67038  37.432  36.530  12.002
94779W        W67039  25.970  30.324  14.769
94780W        W67040  28.218   3.804  11.998
94781W        W67041  16.646  16.340  11.495
94782W        W67042  40.193   0.428   9.852
94783W        W67043  29.006  20.189  14.527
94784W        W67044   4.955  18.752  12.581
94785W        W67045   0.650   3.267  13.389
94786W        W67046  25.801  23.302  12.700
94787W        W67047  11.397  24.039   2.647
94788W        W67048  37.539  32.645  12.081
94789W        W67049  14.290  11.852  11.107
94790W        W67050  27.046   6.328   0.265
94791W        W67051  12.674  31.717   0.090
94792W        W67052   7.168   0.881   3.690
94793W        W67053  15.574   2.540   3.907
94794W        W67054  42.932  38.056  10.462
94795W        W67055   9.947  41.545   3.716
94796W        W67056  36.023   3.979   2.387
94797W        W67057   4.797  15.088  12.638
94798W        W67058  13.806  11.710  10.848
94799W        W67059  30.680  21.879   1.887
94800W        W67060  32.093  27.266  11.779
94801W        W67061   2.240  27.641   2.236
94802W        W67062   7.862  29.020   1.257
94803W        W67063  20.532  42.635   1.309
94804W        W67064  13.446  18.571   4.835
94805W        W67065  38.605   8.785   0.307
94806W        W67066   6.515  25.733  13.796
94807W        W67067   8.312  30.759  14.047
94808W        W67068  32.788  20.084   3.819
94809W        W67069  15.054  15.383  12.905
94810W        W67070  41.084   4.961  12.942
94811W        W67071   6.648  15.782   4.842
94812W        W67072  14.769  32.360   2.223
94813W        W67073   8.713  16.247  11.476
94814W        W67074  22.782   1.012  11.498
94815W        W67075   9.744  20.636  14.125
94816W        W67076  12.661   7.979  12.407
94817W        W67077  38.030  17.262  12.673
94818W        W67078  30.567  20.780   1.744
94819W        W67079  17.772  20.755   3.671
94820W        W67080  36.321   3.660  14.832
94821W        W67081   2.977   9.602  12.483
94822W        W67082  31.887  14.608  13.365
94823W        W67083  17.425  29.250   3.762
94824W        W67084   4.113  19.501   4.092
94825W        W67085  31.137  10.933   0.731
94826W        W67086  33.570  28.895   3.515
94827W        W67087  18.351  24.743  11.679
94828W        W67088  19.478  18.836   1.680
94829W        W67089   2.913  15.463  12.708
94830W        W67090  29.489  14.613   4.617
94831W        W67091  18.816   8.470   2.961
94832W        W67092   4.003  42.950  14.722
94833W        W67093  19.751   4.916  11.936
94834W        W67094  39.876  22.616  14.788
94835W        W67095  22.445  30.306  14.446
94836W        W67096   8.001  13.929  11.507
94837W        W67097  43.209  29.400   3.796
94838W        W67098  44.809   4.647  12.151
94839W        W67099  33.449  12.966  12.565
94840W        W67100  31.020  24.578   4.110
94841W        W67101   8.637  16.182  12.410
94842W        W67102  13.597  20.592   0.484
94843W        W67103  27.239  20.113   3.139
94844W        W67104  39.272  18.018  12.394
94845W        W67105  15.191  39.320  14.003
94846W        W67106  39.996   1.142   2.867
94847W        W67107  27.493   2.948   3.697
94848W        W67108  33.087  24.097  14.699
94849W        W67109   2.000  11.296  12.697
94850W        W67110  41.600  40.872   1.225
94851W        W67111  25.227   7.241   2.036
94852W        W67112  28.959   8.118   0.392
94853W        W67113  34.343  37.560  11.646
94854W        W67114  29.100  20.507   3.858
94855W        W67115  37.482   0.543  13.297
94856W        W67116  20.707   3.388  12.091
94857W        W67117  35.459  16.189   1.244
94858W        W67118  24.700   8.876   2.290
94859W        W67119  20.738  26.240   2.349
94860W        W67120  24.742  10.051   4.196
94861W        W67121  20.704  29.159   3.646
94862W        W67122  40.416   4.270  11.515
94863W        W67123  36.380  18.614  12.407
94864W        W67124   6.876  10.089  13.551
94865W        W67125  21.008  11.797  14.061
94866W        W67126  23.541  33.897   3.588
94867W        W67127  18.047  16.797   3.860
94868W        W67128  31.371  11.607   4.598
94869W        W67129  34.415  22.621  12.553
94870W        W67130  41.722  29.041   4.227
94871W        W67131  44.900  24.289  12.883
94872W        W67132  28.124  23.527  12.845
94873W        W67133  40.375   7.920  12.606
94874W        W67134  16.759  15.820   0.305
94875W        W67135  33.379   8.864  11.571
94876W        W67136   1.490  29.398  13.002
94877W        W67137  40.786  36.294   3.655
94878W        W67138   1.230   9.593   0.673
94879W        W67139  19.838   1.428   2.274
94880W        W67140  11.673  19.838  12.082
94881W        W67141  30.243  17.128   0.715
94882W        W67142  34.399  25.393  13.901
94883W        W67143  37.907  18.077  14.886
94884W        W67144  14.180  17.111   9.790
94885W        W67145  12.947  22.712   2.344
94886W        W67146  19.022  19.116   4.080
94887W        W67147   6.463  13.319   3.181
94888W        W67148  19.565  26.716  12.158
94889W        W67149  19.787   6.377   5.127
94890W        W67150  13.392  43.287  12.614
94891W        W67151  39.786  41.482  13.441
94892W        W67152  12.914  43.354  12.413
94893W        W67153  12.408  21.138   3.845
94894W        W67154  33.112  20.263   4.264
94895W        W67155  15.447  43.714  14.620
94896W        W67156  37.473  25.735   5.048
94897W        W67157  13.753  11.695  11.731
94898W        W67158   0.432   6.165   0.427
94899W        W67159   7.532  25.129   2.844
94900W        W67160   0.812  25.955  14.020
94901W        W67161  42.076  44.244  10.237
94902W        W67162  13.180   5.167  12.901
94903W        W67163  44.234  13.604  12.816
94904W        W67164  28.147   3.817  11.216
94905W        W67165  39.329  25.185  10.974
94906W        W67166  14.310  19.885  13.422
94907W        W67167  30.577  13.877   2.884
94908W        W67168  17.177  15.244  11.936
94909W        W67169  25.499  41.432  14.973
94910W        W67170   6.159  31.654   3.262
94911W        W67171   6.176  31.529  12.105
94912W        W67172  44.360  34.308  11.213
94913W        W67173  39.396   1.206  11.318
94914W        W67174  15.149  43.061  13.509
94915W        W67175  25.482  27.570   0.868
94916W        W67176  37.519  35.536   1.590
94917W        W67177  36.013  37.099   1.400
94918W        W67178  42.506  33.948   2.242
94919W        W67179  13.319  13.829   1.894
94920W        W67180   6.863  16.668   4.547
94921W        W67181   2.306  32.908   2.617
94922W        W67182  36.140  34.974   3.675
94923W        W67183  33.184  38.843   3.725
94924W        W67184   7.975  23.900   1.318
94925W        W67185  20.327  34.852   3.938
94926W        W67186  32.923  28.944   4.454
94927W        W67187  21.472   4.075   0.264
94928W        W67188   4.264   4.291  13.827
94929W        W67189  28.067  39.459   1.221
94930W        W67190  32.999  32.090   3.494
94931W        W67191   5.219   4.217   1.813
94932W        W67192  39.417  18.019   3.553
94933W        W67193  40.503  30.118  11.847
94934W        W67194   5.854  25.008  12.894
94935W        W67195  22.117  31.479  12.613
94936W        W67196   9.598  25.586   1.454
94937W        W67197  24.678  36.456   0.303
94938W        W67198  14.042  22.672   3.333
94939W        W67199  34.798  41.309  10.634
94940W        W67200  32.342  39.311  12.456
94941W        W67201  44.355   9.123   4.457
94942W        W67202  39.596  43.021   4.146
94943W        W67203  27.545  21.171  11.735
94944W        W67204  18.135  38.677   3.221
94945W        W67205   6.369   3.882   3.756
94946W        W67206  15.635  15.686   4.563
94947W        W67207  28.073  26.473  14.790
94948W        W67208   9.751  24.475   2.337
94949W        W67209  13.407  33.408   1.199
94950W        W67210  29.934  16.624  11.574
94951W        W67211  32.463  24.998  10.734
94952W        W67212  37.355  31.088   4.163
94953W        W67213  16.668  24.957  12.145
94954W        W67214  34.100   4.457   3.749
94955W        W67215  44.389  38.834   2.817
94956W        W67216  13.183  29.659  10.263
94957W        W67217  18.836   5.298  11.050
94958W        W67218  21.611  29.708  12.856
94959W        W67219   9.260  37.574   3.709
94960W        W67220  36.600  36.645  13.107
94961W        W67221  44.867  36.683  10.861
94962W        W67222  39.312  26.445  14.219
94963W        W67223  40.408   9.188   5.004
94964W        W67224   7.653  35.092  11.595
94965W        W67225  10.678   5.343  10.415
94966W        W67226   6.845  43.367   0.248
94967W        W67227   4.231  27.490  13.326
94968W        W67228  19.837  23.598  12.556
94969W        W67229  22.179  27.777   0.170
94970W        W67230   0.503  42.925  12.473
94971W        W67231  14.643  11.598  12.558
94972W        W67232  16.093  15.358  13.043
94973W        W67233  15.572  16.084  11.953
94974W        W67234  35.770  23.612  14.811
94975W        W67235  12.674   2.403  14.388
94976W        W67236  33.315  14.177  12.984
94977W        W67237  33.808  42.037   1.380
94978W        W67238  28.856  30.345   1.738
94979W        W67239  42.822   8.645   3.578
94980W        W67240  16.824   4.016  11.957
94981W        W67241  13.846  35.989   3.438
94982W        W67242   5.731  16.175   0.419
94983W        W67243  43.544   8.952  11.555
94984W        W67244   6.432   2.696   0.919
94985W        W67245  25.694  25.202  10.539
94986W        W67246  11.677  33.376   2.254
94987W        W67247   6.891  44.054   4.820
94988W        W67248   4.414  41.271   4.303
94989W        W67249  25.279   4.442   0.450
94990W        W67250   9.745  24.541   3.240
94991W        W67251  14.721  29.725   3.266
94992W        W67252  19.123  19.972  12.658
94993W        W67253  16.638  18.844  13.661
94994W        W67254  15.758  22.024   3.705
94995W        W67255  40.695  12.160  12.091
94996W        W67256   3.214  32.021   2.606
94997W        W67257  41.513  10.861   0.828
94998W        W67258  42.452  29.147   1.321
94999W        W67259  32.029   0.454  12.461
95000W        W67260  38.457  23.525  13.323
95001W        W67261  39.610  37.483   2.322
95002W        W67262  34.073  30.013   1.803
95003W        W67263  22.127  15.473  13.028
95004W        W67264   7.657   1.606  10.211
95005W        W67265  20.984   7.868   4.022
95006W        W67266  43.465   7.733   4.718
95007W        W67267  35.156  29.458  12.017
95008W        W67268  18.111  29.526  13.036
95009W        W67269  42.073  33.597  10.672
95010W        W67270  40.720   7.288  12.888
95011W        W67271  43.220  25.613   2.336
95012W        W67272  40.539   4.743  13.790
95013W        W67273  33.317  20.305  11.203
95014W        W67274   8.371  38.386   1.397
95015W        W67275   2.872  24.190   4.493
95016W        W67276  34.993  26.920  11.368
95017W        W67277   1.870  34.696   4.037
95018W        W67278  16.914  10.088  13.850
95019W        W67279  30.702  11.573  14.352
95020W        W67280  43.443  24.755   0.287
95021W        W67281  32.890  38.360   4.506
95022W        W67282  23.478  13.875   0.799
95023W        W67283  27.050   6.256  14.298
95024W        W67284  17.214   9.774  14.931
95025W        W67285  31.653   2.047   4.190
95026W        W67286  30.775  42.976  13.832
95027W        W67287  11.093  24.607   1.452
95028W        W67288  18.199  11.600  12.930
95029W        W67289  21.526  23.022   3.684
95030W        W67290  41.912  37.270   1.326
95031W        W67291  40.790  35.802   3.782
95032W        W67292   7.756  39.819   1.359
95033W        W67293  16.930   4.727   5.336
95034W        W67294  23.084   7.358   2.416
95035W        W67295  42.928  10.428  11.204
95036W        W67296   2.471  25.021   3.293
95037W        W67297   7.728   9.573  13.528
95038W        W67298  23.106  15.902   1.326
95039W        W67299  25.932  23.639  14.906
95040W        W67300  12.599  22.546  10.632
95041W        W67301  12.265   7.936   4.630
95042W        W67302   7.897  16.108  14.462
95043W        W67303   7.517   7.630  10.564
95044W        W67304  25.306   9.702  11.523
95045W        W67305   4.769  25.201   3.911
95046W        W67306  43.432  29.037   0.245
95047W        W67307  22.511  35.167   1.799
95048W        W67308  15.692   0.873   1.328
95049W        W67309  12.263  27.914  14.035
95050W        W67310  22.712  17.154   2.154
95051W        W67311  43.915  22.479  11.213
95052W        W67312  30.189  32.578   2.044
95053W        W67313  16.567  13.688   3.712
95054W        W67314  25.497  34.618  11.970
95055W        W67315  40.901  34.675   4.792
95056W        W67316   6.985  37.399   2.884
95057W        W67317   2.907  38.349   0.507
95058W        W67318  15.209   2.256   3.695
95059W        W67319  26.539   4.072  10.595
95060W        W67320  42.851  20.658  14.788
95061W        W67321  16.476  19.727   0.236
95062W        W67322  30.638  26.764   0.658
95063W        W67323  38.464  44.322  13.953
95064W        W67324  32.853   2.030  12.006
95065W        W67325   7.676  10.173   4.283
95066W        W67326   0.016  29.149  14.393
95067W        W67327  25.454  21.618   4.469
95068W        W67328  44.892  36.536  11.787
95069W        W67329  16.081  36.730  11.775
95070W        W67330  42.827  42.406  14.850
95071W        W67331   2.885  15.715  13.598
95072W        W67332  40.270  39.119   0.519
95073W        W67333  36.705  33.569   4.031
95074W        W67334  36.563  33.584  11.478
95075W        W67335  32.747  21.482   3.760
95076W        W67336   8.694   7.633  14.480
95077W        W67337  19.711  34.911   0.806
95078W        W67338  18.094  27.741   1.346
95079W        W67339  31.503  42.511  13.418
95080W        W67340  12.726  29.153  10.693
95081W        W67341  43.833  37.831  12.512
95082W        W67342  27.591  11.798  11.010
95083W        W67343   8.195  41.546  13.121
95084W        W67344   0.505  19.161  13.395
95085W        W67345  12.765  11.765   0.036
95086W        W67346   2.647   5.558   0.804
95087W        W67347  20.957  11.052  10.654
95088W        W67348  40.856  15.670  10.725
95089W        W67349  28.193  18.562  12.781
95090W        W67350  28.167  10.871  11.086
95091W        W67351  13.841  22.037   0.749
95092W        W67352   7.480  28.101  12.085
95093W        W67353  18.269   4.000  13.890
95094W        W67354   1.342  41.477   3.836
95095W        W67355  19.291  13.083  12.966
95096W        W67356  10.724  16.190   1.434
95097W        W67357  25.535  25.462   4.555
95098W        W67358  23.796   9.973   4.121
95099W        W67359  32.709  29.571   1.886
95100W        W67360   7.387  16.740   4.577
95101W        W67361  14.592   9.376   4.574
95102W        W67362  22.687  27.764   1.335
95103W        W67363   4.809  21.591  10.595
95104W        W67364  29.851  33.684   4.157
95105W        W67365  30.077  38.030   4.475
95106W        W67366  34.601   9.594  10.910
95107W        W67367  44.337  11.671  13.391
95108W        W67368  16.410  42.353   3.739
95109W        W67369  11.336  26.353  14.498
95110W        W67370  11.588  12.861   3.132
95111W        W67371  44.858  16.161  14.488
95112W        W67372  36.203  28.421   3.240
95113W        W67373   7.747   8.764   3.629
95114W        W67374  15.067  21.294   0.955
95115W        W67375   5.461  19.370   4.282
95116W        W67376  29.161  15.915  12.469
95117W        W67377   5.771   5.139   3.909
95118W        W67378  37.981  32.039   3.175
95119W        W67379  35.823  39.568   0.205
95120W        W67380  25.694  41.602  14.505
95121W        W67381  32.516  10.968  12.314
95122W        W67382  18.082  38.238  10.589
95123W        W67383  30.489  38.471   0.804
95124W        W67384  10.708  19.589   0.122
95125W        W67385  41.630  15.851  13.281
95126W        W67386  44.072  29.953   3.170
95127W        W67387   8.162  17.570   3.206
95128W        W67388   3.509   7.722   0.357
95129W        W67389  16.594   6.364  11.152
95130W        W67390  42.269   1.565  13.150
95131W        W67391  42.683   6.355  11.936
95132W        W67392   9.012  28.885   3.309
95133W        W67393  21.727   2.284  11.534
95134W        W67394  14.366  20.963  14.384
95135W        W67395  16.888  41.008  10.969
95136W        W67396  39.395  21.026  10.996
95137W        W67397  21.335  27.146   3.788
95138W        W67398  12.763  44.010   3.927
95139W        W67399  28.133   4.524  14.123
95140W        W67400   5.771   7.592  12.121
95141W        W67401  17.136  11.963  10.351
95142W        W67402   4.790  37.091  10.243
95143W        W67403   6.403  36.946   1.854
95144W        W67404  14.342   4.480  10.695
95145W        W67405  26.049  11.249   3.680
95146W        W67406  35.799  23.407  10.727
95147W        W67407  42.296  32.354  13.161
95148W        W67408  12.734  32.881   0.245
95149W        W67409  43.742   9.675  12.914
95150W        W67410  25.107  30.718  14.876
95151W        W67411  26.078  41.971   4.427
95152W        W67412   5.056  31.652  14.858
95153W        W67413   1.488  18.582   2.709
95154W        W67414  15.386   0.006  11.158
95155W        W67415  22.286  31.390   4.134
95156W        W67416  37.348  21.117  14.247
95157W        W67417  35.714  35.234  11.617
95158W        W67418  44.987  12.756   2.778
95159W        W67419  22.782   4.264  10.568
95160W        W67420  32.657  25.691  12.535
95161W        W67421   5.701  37.638   1.703
95162W        W67422  19.509  21.488   3.381
95163W        W67423   6.996  30.044  14.537
95164W        W67424  26.276  34.771  14.234
95165W        W67425  13.583  18.633  11.808
95166W        W67426  16.039  26.014   3.752
95167W        W67427   3.632  36.423   2.716
95168W        W67428   7.355  20.758   4.097
95169W        W67429  26.427  29.639   0.315
95170W        W67430   3.781  38.027   3.340
95171W        W67431  37.127   4.348   1.000
95172W        W67432  38.039   2.233  14.983
95173W        W67433  12.665  14.880  12.521
95174W        W67434  39.514  35.411  13.037
95175W        W67435   3.484  36.477  11.239
95176W        W67436  26.852  36.257   0.254
95177W        W67437  35.956  34.649  13.580
95178W        W67438  14.799   0.190  10.842
95179W        W67439  29.667  35.579  11.427
95180W        W67440   5.293   5.007  12.015
95181W        W67441   6.132  14.802  11.631
95182W        W67442  11.802  21.506  11.528
95183W        W67443  13.186  24.697  13.913
95184W        W67444  36.510  17.037  11.602
95185W        W67445  11.071  41.997   4.159
95186W        W67446  36.290  15.616  11.258
95187W        W67447  42.680   5.643  13.069
95188W        W67448   7.095  31.124  14.543
95189W        W67449  32.791  40.142   3.226
95190W        W67450  39.952  39.993   2.265
95191W        W67451  31.039  12.880   0.390
95192W        W67452  30.679  42.735  13.377
95193W        W67453  33.361  17.281   3.762
95194W        W67454  15.586  22.650  14.300
95195W        W67455   3.671  15.585   1.892
95196W        W67456  41.791   7.103   4.520
95197W        W67457  14.258  18.865  12.424
95198W        W67458  42.423  32.684   2.037
95199W        W67459  11.614  19.793  13.869
95200W        W67460  25.629   1.776   4.601
95201W        W67461  19.136  27.943   2.578
95202W        W67462  21.939  26.606   4.075
95203W        W67463  28.333   9.923   4.755
95204W        W67464   5.457  27.095   1.738
95205W        W67465  44.273  28.897  14.793
95206W        W67466   2.023  38.037   2.813
95207W        W67467  20.137   1.543  14.839
95208W        W67468  40.351   1.605   3.862
95209W        W67469   1.247  26.658   2.579
95210W        W67470  22.717   8.157  10.197
95211W        W67471   2.852   6.503   0.835
95212W        W67472   5.289  42.982   1.357
95213W        W67473   3.738  16.037  13.943
95214W        W67474  13.758  28.187  14.437
95215W        W67475   5.895  35.425   0.835
95216W        W67476   6.197   7.945   1.963
95217W        W67477  34.777   5.285   0.629
95218W        W67478  14.046  42.426  11.864
95219W        W67479   9.758  19.216  10.705
95220W        W67480  33.833  20.790  10.132
95221W        W67481  38.024   5.400  12.538
95222W        W67482  20.665  20.027  11.095
95223W        W67483  41.367  11.255  10.688
95224W        W67484  32.392  25.063   2.774
95225W        W67485  16.060  27.571   4.914
95226W        W67486   5.630   5.853  13.602
95227W        W67487  24.782  17.092   2.340
95228W        W67488  29.953   4.143  14.534
95229W        W67489  23.468  37.327   1.224
95230W        W67490  32.743  28.715   2.225
95231W        W67491  39.021  26.192   3.393
95232W        W67492  34.188  12.689  12.047
95233W        W67493  15.328   4.749  11.465
95234W        W67494   0.633   2.870   2.068
95235W        W67495  26.722  21.129  14.834
95236W        W67496   6.905  42.839   1.906
95237W        W67497   6.424   9.164   2.833
95238W        W67498  37.395  15.591   0.942
95239W        W67499  44.861   3.498   0.447
95240W        W67500  15.704  41.540  13.426
95241W        W67501  31.146  27.921  14.552
95242W        W67502  38.479  33.866  14.402
95243W        W67503  36.823  30.388  12.352
95244W        W67504  13.104  16.848  12.482
95245W        W67505  42.637   0.165  11.646
95246W        W67506  12.644  24.196   2.293
95247W        W67507  25.584  43.811  13.833
95248W        W67508  12.220  43.729   4.131
95249W        W67509   9.504  16.806   1.384
95250W        W67510   2.797  29.570   3.580
95251W        W67511  38.935  32.864  10.795
95252W        W67512   9.792   5.672  14.012
95253W        W67513   5.689  43.611  13.178
95254W        W67514  13.724  30.214   2.363
95255W        W67515  40.015   8.197  14.520
95256W        W67516  36.664  17.258   2.445
95257W        W67517  14.343   1.313   3.779
95258W        W67518  22.027  17.691   4.675
95259W        W67519  10.044  23.595  11.667
95260W        W67520  30.301  41.504   4.198
95261W        W67521  43.458   1.744   2.761
95262W        W67522  13.013  12.665   4.623
95263W        W67523  41.659  11.763  11.547
95264W        W67524  15.336  22.745  12.004
95265W        W67525  15.380  42.208   4.597
95266W        W67526  25.129  25.249   4.217
95267W        W67527  26.262  38.886  13.568
95268W        W67528  26.829   6.271  13.286
95269W        W67529  40.871  28.244   3.777
95270W        W67530  33.003  17.111   1.425
95271W        W67531  32.562   5.020  13.874
95272W        W67532  18.222  36.973   0.988
95273W        W67533  20.696  23.709   0.876
95274W        W67534  41.229  44.587   1.341
95275W        W67535  39.398   9.133  13.074
95276W        W67536  43.957  34.959  10.350
95277W        W67537  43.841  38.573   0.039
95278W        W67538  23.471  14.217   3.762
95279W        W67539  43.254  42.317  12.968
95280W        W67540  23.544   5.794   0.681
95281W        W67541  44.337   3.721   2.583
95282W        W67542   9.348  21.524   2.220
95283W        W67543  26.196  38.259  14.359
95284W        W67544  16.420   2.231  13.881
95285W        W67545  23.824  31.378   1.438
95286W        W67546   1.576  41.406  12.842
95287W        W67547  40.548  10.735  12.158
95288W        W67548  27.418  17.204   4.979
95289W        W67549  32.858  16.887  12.929
95290W        W67550  38.852  29.580   9.956
95291W        W67551  19.237   7.957  10.222
95292W        W67552  19.725  39.458  12.988
95293W        W67553  39.454  35.929  12.915
95294W        W67554   7.758  24.537   4.593
95295W        W67555  14.096  13.401   2.427
95296W        W67556   0.686  33.487   3.979
95297W        W67557   7.822   0.323  14.354
95298W        W67558  44.843  17.783  13.037
95299W        W67559  13.772  37.941   4.912
95300W        W67560  39.205  38.026  11.654
95301W        W67561  35.400  25.929  14.672
95302W        W67562   1.747  43.710   2.318
95303W        W67563  10.618   5.789  13.596
95304W        W67564  42.219   5.924  12.977
95305W        W67565  32.484  43.733   1.372
95306W        W67566  36.434  35.353  14.184
95307W        W67567  13.158   4.992   5.137
95308W        W67568   9.748  32.546   3.642
95309W        W67569  16.843   5.967  14.525
95310W        W67570  10.787   0.367   0.526
95311W        W67571  10.417   3.699   1.776
95312W        W67572  29.191  21.626   0.799
95313W        W67573   0.993  16.264  12.950
95314W        W67574  38.903  41.442   0.061
95315W        W67575  43.437  41.250  14.661
95316W        W67576  23.074  12.259  10.723
95317W        W67577  37.367  33.012   4.512
95318W        W67578  22.395   9.700  14.857
95319W        W67579  28.556  27.736  12.367
95320W        W67580  10.248  42.456   2.249
95321W        W67581  24.099  15.863  13.995
95322W        W67582  24.439  44.588   3.215
95323W        W67583  33.623  11.929  14.311
95324W        W67584  28.088  12.916  14.000
95325W        W67585  20.681  28.534  12.919
95326W        W67586  20.283  25.742  11.950
95327W        W67587   9.466   3.901  11.439
95328W        W67588  38.502  39.827   0.359
95329W        W67589  35.395  29.206  10.706
95330W        W67590  17.233   6.877  14.789
95331W        W67591  18.061   5.750  14.768
95332W        W67592   7.574  27.145   0.473
95333W        W67593  44.257  20.032   1.638
95334W        W67594  39.851  37.487   2.818
95335W        W67595  42.838  12.732   4.149
95336W        W67596  25.459   0.020  11.557
95337W        W67597  26.002  41.007   4.587
95338W        W67598  16.783  38.995  10.688
95339W        W67599  20.591  25.852   4.942
95340W        W67600   0.799  21.066   4.088
95341W        W67601  11.225  26.725  10.834
95342W        W67602  15.330  15.918   1.234
95343W        W67603   4.214  19.198   1.953
95344W        W67604  38.563  36.105   3.671
95345W        W67605  18.351   3.450  12.428
95346W        W67606  12.579  13.667  14.892
95347W        W67607  37.467  10.162   3.221
95348W        W67608  25.065  17.891  14.831
95349W        W67609   8.290   0.850   2.692
95350W        W67610  19.053  10.805   0.809
95351W        W67611  43.212   5.766   4.105
95352W        W67612  37.468   5.611  13.785
95353W        W67613   8.918  22.789   0.530
95354W        W67614  37.239  26.101  14.072
95355W        W67615   9.701  41.186   1.899
95356W        W67616  17.218  19.938  10.785
95357W        W67617   1.931  40.113   1.190
95358W        W67618   2.185  40.627  14.007
95359W        W67619  35.290  28.195   4.101
95360W        W67620  14.223  31.391  11.852
95361W        W67621  39.889  29.034   2.858
95362W        W67622  20.975  27.986   5.392
95363W        W67623  26.357   4.890   4.429
95364W        W67624  17.970  20.690   1.325
95365W        W67625  27.894  31.579  13.800
95366W        W67626   0.402  11.534  10.686
95367W        W67627  23.159  33.021  11.106
95368W        W67628   8.265  24.681   1.342
95369W        W67629  32.795  16.459  14.717
95370W        W67630  37.386  28.079  13.974
95371W        W67631   1.385  16.980  13.418
95372W        W67632  41.108  14.364  11.388
95373W        W67633  14.806  27.878   1.123
95374W        W67634  27.599  12.452   1.329
95375W        W67635  28.292  13.983   3.422
95376W        W67636   4.901   6.250   1.173
95377W        W67637  31.001   4.702  12.891
95378W        W67638   4.221  23.523   3.196
95379W        W67639  14.952  42.267  14.819
95380W        W67640   1.790   6.650   0.686
95381W        W67641  13.188  33.141  11.053
95382W        W67642  17.635  36.056  13.937
95383W        W67643  25.156  31.724  13.909
95384W        W67644   6.501  14.763   3.660
95385W        W67645  29.481   6.373  13.420
95386W        W67646  19.667   6.722  13.931
95387W        W67647  37.813  39.240   2.172
95388W        W67648  35.665  27.614   2.771
95389W        W67649  35.047  41.490   1.639
95390W        W67650  42.514   0.871   4.183
95391W        W67651   2.502  35.342  12.495
95392W        W67652   6.495  16.267   2.530
95393W        W67653  44.064  14.856   1.222
95394W        W67654  32.328  15.301   0.164
95395W        W67655   5.928  23.741  12.465
95396W        W67656  17.339   4.216   1.724
95397W        W67657  17.206  23.531   4.112
95398W        W67658  26.144  37.564   4.733
95399W        W67659  22.005  33.099   3.640
95400W        W67660  24.088  36.588   2.342
95401W        W67661  36.523  30.428   3.879
95402W        W67662  27.947  37.305   3.283
95403W        W67663   6.883  32.034  13.278
95404W        W67664  37.828  39.865   1.189
95405W        W67665  25.529  28.635  14.244
95406W        W67666  14.832  34.378   1.297
95407W        W67667  25.240  32.480   2.908
95408W        W67668   0.009  18.754   4.792
95409W        W67669  32.569  14.585   3.461
95410W        W67670  29.157   4.337  12.925
95411W        W67671  37.381  25.729   1.734
95412W        W67672  41.531  36.560  14.205
95413W        W67673  39.615  17.194  12.501
95414W        W67674   8.895  42.965  12.418
95415W        W67675  33.932  39.169   0.002
95416W        W67676  14.861  43.874   1.722
95417W        W67677  28.816  33.382   1.830
95418W        W67678  22.437   4.682   4.051
95419W        W67679  32.925   9.326  14.972
95420W        W67680  44.327  21.970   1.803
95421W        W67681  24.836   4.696   1.375
95422W        W67682  35.520  14.159   0.342
95423W        W67683  14.314  23.889   2.743
95424W        W67684  43.241  32.117   0.937
95425W        W67685  10.827  14.690   1.310
95426W        W67686  40.155   8.014   0.377
95427W        W67687  41.341   5.733   0.846
95428W        W67688  33.131   8.919  12.006
95429W        W67689   7.079  33.313  11.637
95430W        W67690  13.328  16.259   2.096
95431W        W67691  35.557  43.811  12.838
95432W        W67692   0.827   1.653   0.760
95433W        W67693  44.971  43.277  14.033
95434W        W67694  43.382  22.730  10.727
95435W        W67695  20.046   1.033   1.803
95436W        W67696   5.388   2.776   2.716
95437W        W67697  26.404   7.791  14.896
95438W        W67698  25.925  24.162  14.730
95439W        W67699  18.148  42.990  13.848
95440W        W67700  33.063   8.087   2.220
95441W        W67701   8.692   9.751   3.892
95442W        W67702   1.388  32.481   1.200
95443W        W67703  36.904  12.691   0.252
95444W        W67704  18.214  19.759   0.965
95445W        W67705   0.001   5.690  14.402
95446W        W67706  28.557  38.691  12.487
95447W        W67707  18.100  40.412   2.840
95448W        W67708  20.445  42.894   0.337
95449W        W67709  19.190  24.626  14.816
95450W        W67710  29.209  16.225   0.254
95451W        W67711  21.444  21.657  12.782
95452W        W67712  14.178  21.002  12.187
95453W        W67713   4.771  17.559   1.849
95454W        W67714   9.367  16.730  13.485
95455W        W67715  18.203  34.540  12.197
95456W        W67716  39.217  25.321  11.768
95457W        W67717   2.827  17.235   3.703
95458W        W67718   2.778  34.190  14.098
95459W        W67719  35.464  32.262  12.424
95460W        W67720  32.716   8.287  14.546
95461W        W67721   8.424  25.784   4.846
95462W        W67722  32.866  27.003   4.345
95463W        W67723  39.296  42.330   1.833
95464W        W67724  32.864  14.123  11.447
95465W        W67725  37.058  26.508  11.726
95466W        W67726  41.874  35.409   4.625
95467W        W67727  19.335  35.156  12.357
95468W        W67728  12.914   1.988   3.191
95469W        W67729   2.213  34.166   1.239
95470W        W67730   9.228  10.316  11.483
95471W        W67731  21.253  37.817  10.764
95472W        W67732  22.547  16.291   0.555
95473W        W67733  26.498  12.855   1.750
95474W        W67734  14.593  33.404   3.363
95475W        W67735   3.742   7.487   2.672
95476W        W67736  22.243  41.116   0.554
95477W        W67737  33.609  31.198   0.490
95478W        W67738  30.654  25.438   3.052
95479W        W67739  22.653  29.377   2.313
95480W        W67740  35.951  43.453   1.910
95481W        W67741  44.667   3.825  10.260
95482W        W67742  10.726   8.252  14.247
95483W        W67743  16.788  12.848  14.427
95484W        W67744   6.193   5.157   1.239
95485W        W67745  17.588  28.440   2.898
95486W        W67746  43.480  31.380  14.383
95487W        W67747  18.110   6.880  14.501
95488W        W67748  15.065  16.018   3.983
95489W        W67749  32.187  25.396   4.675
95490W        W67750  19.818  43.497   0.834
95491W        W67751  32.069   1.652  12.975
95492W        W67752  41.442  17.359  11.075
95493W        W67753  21.436  18.957   0.304
95494W        W67754  14.625  31.569   2.788
95495W        W67755  40.220   7.575  10.381
95496W        W67756  16.753  23.211   0.411
95497W        W67757  29.604  39.569   3.372
95498W        W67758   2.860  44.756   3.383
95499W        W67759  38.516   7.609  10.561
95500W        W67760  11.144  40.642  13.432
95501W        W67761  28.194   1.212  13.601
95502W        W67762   0.335  17.440  11.998
95503W        W67763  22.050   4.406  13.417
95504W        W67764  41.756  15.102   4.064
95505W        W67765  16.148  19.862   2.791
95506W        W67766  11.287  20.714  14.796
95507W        W67767  23.307  12.771   4.228
95508W        W67768  25.558  11.925   3.591
95509W        W67769   7.179  25.211  13.358
95510W        W67770   9.795  17.224   1.752
95511W        W67771  10.733  28.291  12.552
95512W        W67772   3.674   9.132   3.187
95513W        W67773  36.066  29.553   0.383
95514W        W67774  19.811  38.983  10.619
95515W        W67775  20.716   6.436  13.990
95516W        W67776  26.071  39.661   1.808
95517W        W67777  42.284  23.020  12.126
95518W        W67778  24.752   3.302  10.749
95519W        W67779  21.776   1.484   1.037
95520W        W67780  44.204  33.391  13.033
95521W        W67781  14.143  15.746  12.518
95522W        W67782  30.381  10.750   2.908
95523W        W67783   2.301   1.213  11.296
95524W        W67784  23.068  32.531   4.652
95525W        W67785  18.435  37.244   4.082
95526W        W67786  20.183  35.401   1.467
95527W        W67787  16.991  44.430   2.337
95528W        W67788  30.170  35.407   2.208
95529W        W67789  27.375  18.816   0.852
95530W        W67790  44.486   1.245   3.984
95531W        W67791  11.312  43.050   3.491
95532W        W67792  24.496  13.208   1.336
95533W        W67793   2.740  11.411  13.857
95534W        W67794  36.409  44.219   4.449
95535W        W67795  19.426  42.049   1.865
95536W        W67796   0.735  43.400  14.872
95537W        W67797  34.022   5.937   4.583
95538W        W67798  22.511  34.150   5.014
95539W        W67799  16.637  26.166   4.606
95540W        W67800  24.619  28.047   0.531
95541W        W67801  39.358  25.508   3.866
95542W        W67802   9.707   0.003   2.640
95543W        W67803  21.631  17.824  14.770
95544W        W67804   7.802  16.705  12.648
95545W        W67805   2.391   1.788   0.668
95546W        W67806  20.567  30.737  14.739
95547W        W67807  15.259   8.986  11.860
95548W        W67808   9.600  34.915   1.350
95549W        W67809   1.783  14.186   1.264
95550W        W67810  43.913  11.398   3.260
95551W        W67811  44.967  18.377   1.420
95552W        W67812   9.112   6.249   4.281
95553W        W67813  25.128  33.848   0.711
95554W        W67814  37.012  26.283   2.368
95555W        W67815  32.673   8.205  11.513
95556W        W67816   6.132  33.424   1.255
95557W        W67817  25.719  36.677  11.181
95558W        W67818   2.308  24.479   0.402
95559W        W67819  31.702   3.850  13.497
95560W        W67820  42.960   1.475  13.629
95561W        W67821  15.105   9.824   3.358
95562W        W67822  16.196   8.128  12.948
95563W        W67823  36.381   4.876  11.032
95564W        W67824   9.455  41.964   1.325
95565W        W67825  17.561  14.659   4.004
95566W        W67826  37.806   5.128  12.168
95567W        W67827  16.850  26.126   4.137
95568W        W67828  38.752  34.393   3.258
95569W        W67829  41.099  15.616   4.148
95570W        W67830  32.388  22.626  10.753
95571W        W67831  40.549  12.654   3.635
95572W        W67832   3.872   7.168  10.798
95573W        W67833  34.815  22.791  14.813
95574W        W67834  39.989  21.553   2.265
95575W        W67835  40.877   6.464   4.261
95576W        W67836  35.112  37.322  12.015
95577W        W67837  35.787   2.262  14.354
95578W        W67838  30.409  19.181   2.258
95579W        W67839  11.828  21.902   4.534
95580W        W67840  18.692   5.409   2.642
95581W        W67841   7.503  42.404   0.416
95582W        W67842  17.334  19.120  14.851
95583W        W67843   6.752  17.900   4.317
95584W        W67844  42.789  32.343   0.866
95585W        W67845  14.885  44.511   3.314
95586W        W67846   0.268  31.280  11.138
95587W        W67847  38.971  10.654   3.687
95588W        W67848  27.535  27.548  13.334
95589W        W67849   5.041   5.280   0.097
95590W        W67850  42.437  41.835   0.717
95591W        W67851  24.481  33.934   2.386
95592W        W67852  37.280  14.243   0.802
95593W        W67853  25.536   7.811  11.211
95594W        W67854  33.605  41.899  10.678
95595W        W67855  27.441  39.998   3.352
95596W        W67856  16.254  13.056  12.379
95597W        W67857  29.118   8.886   1.691
95598W        W67858  31.541   7.717   2.706
95599W        W67859  40.781  31.465   0.713
95600W        W67860  39.781   8.476   3.737
95601W        W67861   8.707  22.497  13.317
95602W        W67862  19.795  18.984  12.924
95603W        W67863  44.987  38.994  10.667
95604W        W67864  13.190  27.034   0.461
95605W        W67865  22.396  19.029  10.940
95606W        W67866  17.377  29.526  12.542
95607W        W67867  17.006  14.145   0.865
95608W        W67868  39.865  41.946  14.396
95609W        W67869  30.118  26.394   2.758
95610W        W67870  16.243  19.215  13.608
95611W        W67871  35.860  31.643   2.582
95612W        W67872  25.706  15.710  11.274
95613W        W67873  15.278  29.995   3.804
95614W        W67874   8.879  34.096   2.714
95615W        W67875  21.747  24.666  12.023
95616W        W67876  22.674   9.311  13.151
95617W        W67877   9.762  11.291   1.917
95618W        W67878  12.491  25.659   4.211
95619W        W67879  42.841  19.300  13.249
95620W        W67880  43.914  32.415  12.047
95621W        W67881  16.234  40.607   3.067
95622W        W67882   0.141  38.095  13.485
95623W        W67883  33.181   9.754  11.489
95624W        W67884  26.962  23.082   1.508
95625W        W67885  39.775  18.129  12.381
95626W        W67886   7.182  32.427  11.123
95627W        W67887  12.032  10.548   0.123
95628W        W67888  23.619  41.844   4.623
95629W        W67889   4.847  36.884   3.861
95630W        W67890   7.360  39.868   1.710
95631W        W67891   4.797  30.628   1.729
95632W        W67892  42.749   7.268   4.643
95633W        W67893  21.410  37.307   2.853
95634W        W67894  38.774   8.735  10.252
95635W        W67895  16.136  23.501  12.489
95636W        W67896  26.777  25.665   2.962
95637W        W67897  43.908  17.931  14.994
95638W        W67898  17.084   5.201  12.468
95639W        W67899  29.974  32.131  10.724
95640W        W67900  15.243  29.674   1.270
95641W        W67901  29.246  41.804  10.871
95642W        W67902  32.236  44.627  10.966
95643W        W67903  44.474  43.322   4.664
95644W        W67904  43.539   0.709   2.710
95645W        W67905  33.950  20.348  13.206
95646W        W67906  38.780   9.275   0.273
95647W        W67907  20.155  16.768   2.051
95648W        W67908  12.049  17.657   3.014
95649W        W67909  25.189   1.831   3.341
95650W        W67910  15.399  44.157  10.614
95651W        W67911  25.585  36.854  10.458
95652W        W67912   4.341  16.335   0.962
95653W        W67913  13.823  42.261   0.783
95654W        W67914  30.371  35.843  12.566
95655W        W67915  43.669  30.611   4.248
95656W        W67916   3.251  38.417  12.305
95657W        W67917  27.953  34.978   2.779
95658W        W67918  42.349   5.763   2.774
95659W        W67919  32.987   7.098   0.705
95660W        W67920   2.503  44.039   2.769
95661W        W67921   2.991  20.080  10.668
95662W        W67922  39.356  42.133  11.107
95663W        W67923  11.270  32.123   4.546
95664W        W67924  36.496  22.260   3.797
95665W        W67925  44.288  17.009  10.397
95666W        W67926   4.158  11.210   2.660
95667W        W67927  23.023   8.689   2.419
95668W        W67928  28.250  13.264  13.040
95669W        W67929   2.740  37.663  14.335
95670W        W67930  10.740  22.818  11.693
95671W        W67931  27.668   6.262  12.969
95672W        W67932  16.311   4.991   2.407
95673W        W67933  19.398  22.052  12.625
95674W        W67934  39.519  13.089   1.880
95675W        W67935  36.019   7.692   3.285
95676W        W67936  24.982   9.966  12.915
95677W        W67937  30.109  36.894  14.034
95678W        W67938  21.251  15.292  14.509
95679W        W67939  29.169  10.108  12.061
95680W        W67940  41.450  29.908   2.867
95681W        W67941  40.216  18.811  14.928
95682W        W67942  26.904  29.950  11.197
95683W        W67943  22.726  12.894  11.200
95684W        W67944  40.966   8.351  11.177
95685W        W67945  34.754  29.970   0.215
95686W        W67946  26.929  36.050   4.637
95687W        W67947   9.738  22.935  12.660
95688W        W67948  27.884  16.056   3.311
95689W        W67949  37.008  37.616  12.979
95690W        W67950  22.690  22.694   5.055
95691W        W67951  22.768  28.044   9.771
95692W        W67952  32.317   2.417   3.789
95693W        W67953  19.366  19.180  10.677
95694W        W67954  41.027  23.666  13.183
95695W        W67955  30.635  12.072  13.167
95696W        W67956  13.700   5.665  11.734
95697W        W67957  41.372  27.171  13.034
95698W        W67958  35.110  22.569  11.870
95699W        W67959  33.100  13.285   3.448
95700W        W67960  17.926  34.848  10.627
95701W        W67961  22.399   7.102  14.710
95702W        W67962  22.627   2.143  11.865
95703W        W67963  13.572   7.466  12.430
95704W        W67964  28.229  16.781  12.956
95705W        W67965  42.293   1.743   1.647
95706W        W67966  15.536  15.558   3.143
95707W        W67967  26.623  34.028  10.606
95708W        W67968  18.925  27.071   2.416
95709W        W67969  20.453  27.791   1.628
95710W        W67970  14.190  35.334   0.728
95711W        W67971  12.356  16.319   4.055
95712W        W67972  23.197  35.078   2.424
95713W        W67973  20.057   6.567  12.654
95714W        W67974  43.302   0.224  12.162
95715W        W67975   1.700  13.919   4.727
95716W        W67976  36.594  24.090  13.723
95717W        W67977  17.713  19.101   3.768
95718W        W67978   8.655  11.130   4.377
95719W        W67979  21.490  13.319  14.414
95720W        W67980  39.408  39.493   2.122
95721W        W67981  17.053  42.770  13.702
95722W        W67982  10.812  23.501   2.744
95723W        W67983  30.670  32.028  14.814
95724W        W67984  25.225  10.644  14.428
95725W        W67985  11.901   1.271  11.976
95726W        W67986   1.842  11.105   2.917
95727W        W67987  41.190  30.427   4.204
95728W        W67988  24.406  40.308  10.019
95729W        W67989  42.302  37.931  12.129
95730W        W67990  44.717   7.942   2.314
95731W        W67991  35.854  26.990   0.827
95732W        W67992  26.389  35.563  14.309
95733W        W67993  22.095  44.775  12.798
95734W        W67994  23.396   1.500   3.658
95735W        W67995  29.188  30.414   3.094
95736W        W67996  30.498  18.991   1.768
95737W        W67997  23.633   7.858  14.959
95738W        W67998  29.454  31.061  12.164
95739W        W67999  38.475  13.248  12.421
95740W        W68000  15.532  33.045   1.068
95741W        W68001  22.124  33.384  12.801
95742W        W68002   3.674  19.603  13.773
95743W        W68003  28.902  11.309  10.804
95744W        W68004  23.074  39.979  12.449
95745W        W68005  11.352  35.059  14.299
95746W        W68006  29.985  37.291   2.279
95747W        W68007   1.196  14.182  14.470
95748W        W68008   3.403  28.769   1.978
95749W        W68009  28.580  29.855   3.506
95750W        W68010  40.524  31.896   1.888
95751W        W68011  43.587   0.895  13.068
95752W        W68012  13.188  38.549   0.908
95753W        W68013  12.410  32.722  11.912
95754W        W68014   6.756   1.851   1.881
95755W        W68015  34.016  42.928   2.135
95756W        W68016   9.268  38.920   2.608
95757W        W68017   5.849  28.662   2.075
95758W        W68018  26.625  36.912   1.337
95759W        W68019  11.240   7.808   1.286
95760W        W68020  27.073  20.907  14.237
95761W        W68021   9.397  33.958   3.876
95762W        W68022  41.824  38.546  11.169
95763W        W68023   8.321   6.626   4.151
95764W        W68024  29.450  15.754   3.900
95765W        W68025  43.860  18.194  14.050
95766W        W68026  15.733  38.036   0.587
95767W        W68027   7.114  26.924  12.950
95768W        W68028  20.292  22.474  13.995
95769W        W68029  29.607  33.200   4.283
95770W        W68030  21.935  12.603   3.228
95771W        W68031  42.877  30.508   2.794
95772W        W68032   8.063   7.841   4.567
95773W        W68033  43.903  31.436   4.734
95774W        W68034   5.357  27.527  12.280
95775W        W68035  13.259  22.262   3.210
95776W        W68036  43.310  17.092   4.363
95777W        W68037   1.741  13.333  12.952
95778W        W68038  23.606  23.234   3.974
95779W        W68039   5.162   4.399  13.573
95780W        W68040  33.433  28.431  11.653
95781W        W68041   3.531  28.594  14.053
95782W        W68042  19.715   2.198  10.916
95783W        W68043  19.275   0.902   0.287
95784W        W68044   2.260  41.100  13.853
95785W        W68045  20.522  14.328   2.144
95786W        W68046  22.113  21.405   5.513
95787W        W68047   4.938  18.192  14.376
95788W        W68048   5.204  34.342  14.400
95789W        W68049  15.546  17.114  13.163
95790W        W68050  12.953  12.805   3.107
95791W        W68051  39.865  21.553   0.201
95792W        W68052  17.059  40.201   3.201
95793W        W68053   2.706  43.907  11.994
95794W        W68054   3.065  28.113  13.380
95795W        W68055  29.818  28.641   0.444
95796W        W68056  41.182   4.766  14.490
95797W        W68057  25.249   4.696  14.975
95798W        W68058  21.735  42.509   0.287
95799W        W68059   5.706   5.915  11.545
95800W        W68060  17.589  11.275   1.353
95801W        W68061  18.235  18.107   4.363
95802W        W68062  36.516  22.409  13.724
95803W        W68063  37.002  25.553   3.342
95804W        W68064  43.467   0.409  14.916
95805W        W68065   2.450  24.070  13.079
95806W        W68066  15.735  30.358  11.081
95807W        W68067   4.115  42.789  14.255
95808W        W68068  33.271  21.349   0.839
95809W        W68069  38.843   7.554   4.558
95810W        W68070  18.201   4.160   4.587
95811W        W68071  19.734  27.914   3.212
95812W        W68072  29.635  41.780   3.209
95813W        W68073  38.596   4.697  12.423
95814W        W68074   8.237  18.270   4.818
95815W        W68075   4.718  31.707  13.930
95816W        W68076  14.264  40.339   1.255
95817W        W68077   1.697  43.192   2.345
95818W        W68078  25.250  20.617   2.186
95819W        W68079  23.556  34.548  12.844
95820W        W68080  26.686  37.425  12.903
95821W        W68081  32.335  37.843  14.428
95822W        W68082  15.703  43.028  11.985
95823W        W68083  41.596  33.365   1.181
95824W        W68084  25.246   1.478   1.750
95825W        W68085  44.926  19.355  11.186
95826W        W68086  19.478  33.974   0.278
95827W        W68087  33.925  37.110  12.483
95828W        W68088   1.895  29.099  13.005
95829W        W68089   9.133   8.327  12.864
95830W        W68090  27.677  40.978   3.953
95831W        W68091  25.032  20.544  13.125
95832W        W68092  18.149  15.823   2.157
95833W        W68093   3.517   4.384  11.380
95834W        W68094  29.918  23.921  11.512
95835W        W68095  43.910  44.934  14.940
95836W        W68096   2.273  21.186   0.596
95837W        W68097  21.274  41.266  14.526
95838W        W68098  19.587  22.965  14.297
95839W        W68099  12.254  32.596  13.801
95840W        W68100  26.356   3.778   3.687
95841W        W68101  31.460  14.612  14.325
95842W        W68102  35.225   5.630  13.291
95843W        W68103   6.289  29.515   4.367
95844W        W68104  43.980  40.794   0.351
95845W        W68105  17.737  21.721  14.907
95846W        W68106  41.926  41.791   0.473
95847W        W68107  12.071  33.233   1.360
95848W        W68108  23.271  20.929   4.123
95849W        W68109   2.201  10.310  10.931
95850W        W68110  40.939  38.848   0.377
95851W        W68111  11.749  24.597  12.165
95852W        W68112  36.031  35.664  14.798
95853W        W68113  37.652  11.185   0.507
95854W        W68114   5.718  25.212  10.605
95855W        W68115  15.784  35.587  13.946
95856W        W68116  27.570  11.110  13.814
95857W        W68117  37.886  34.507   1.352
95858W        W68118  41.326  30.679   0.298
95859W        W68119  32.907  31.517   3.713
95860W        W68120  33.949   8.815   3.631
95861W        W68121  24.803   9.930   0.334
95862W        W68122   7.096  16.343  12.426
95863W        W68123  41.242  23.790   2.243
95864W        W68124   3.718  32.749  12.985
95865W        W68125   3.314   1.262   3.238
95866W        W68126  17.953  39.644   4.709
95867W        W68127  37.300   3.505   3.049
95868W        W68128  16.501  25.565   2.688
95869W        W68129  43.777  29.708  13.183
95870W        W68130  23.210  15.223   0.798
95871W        W68131  38.912  32.947   2.448
95872W        W68132   2.854  27.683   3.941
95873W        W68133  39.283  26.383   2.855
95874W        W68134  44.739  38.328   1.710
95875W        W68135   5.094  39.457   4.586
95876W        W68136  37.559   5.105  10.893
95877W        W68137  40.013  36.886  11.677
95878W        W68138   1.929  11.927  11.441
95879W        W68139  31.053  17.246  11.892
95880W        W68140  34.538  32.496   4.608
95881W        W68141  30.738   5.101  11.512
95882W        W68142   8.950  28.556   0.918
95883W        W68143  17.444  23.221   0.843
95884W        W68144  22.950  36.601   0.489
95885W        W68145   1.816   6.901   2.722
95886W        W68146  23.658  21.036  13.752
95887W        W68147  43.588  43.725   3.723
95888W        W68148  35.362  21.760   0.435
95889W        W68149  29.433   6.082   3.202
95890W        W68150  24.589  28.818  14.439
95891W        W68151   3.454  25.388  12.550
95892W        W68152  21.646  26.750  13.535
95893W        W68153   1.719  11.637   1.270
95894W        W68154   9.391  10.454  12.712
95895W        W68155  34.881   8.608  14.078
95896W        W68156  22.946  22.293   4.845
95897W        W68157  11.661   9.333  12.936
95898W        W68158  41.717  36.087  11.990
95899W        W68159  17.301  32.973   2.488
95900W        W68160  33.477  39.087  14.020
95901W        W68161  21.418   1.467   0.626
95902W        W68162  26.668  20.712  14.503
95903W        W68163  25.067  37.524   2.671
95904W        W68164  29.324  28.460  11.709
95905W        W68165  16.051  26.276   2.941
95906W        W68166   3.330   2.068   2.184
95907W        W68167  43.806  12.175   2.306
95908W        W68168  18.360  31.527  14.181
95909W        W68169  23.287  33.540   2.240
95910W        W68170  12.925   3.106   1.364
95911W        W68171  36.487  23.481   3.261
95912W        W68172   8.453  29.544   2.799
95913W        W68173  17.294  24.086  11.998
95914W        W68174  17.981  26.574   0.966
95915W        W68175   9.654  36.432   1.743
95916W        W68176  27.936   8.367   1.369
95917W        W68177   3.412  26.923   2.209
95918W        W68178  36.831  13.257  13.559
95919W        W68179  39.999  19.669  12.953
95920W        W68180  43.273  37.610  13.697
95921W        W68181  42.514   0.196  13.919
95922W        W68182  17.776  31.686  12.070
95923W        W68183  15.034  39.931  11.956
95924W        W68184   3.174  13.571   4.775
95925W        W68185  24.103  37.865   1.957
95926W        W68186  34.455  41.435   4.913
95927W        W68187  20.602  27.081  13.704
95928W        W68188   9.690  10.133  13.759
95929W        W68189   3.338  23.772   0.346
95930W        W68190   8.281  36.181   4.204
95931W        W68191  37.823   4.848  14.471
95932W        W68192  19.679   2.001  13.701
95933W        W68193  28.126  17.989   0.475
95934W        W68194  27.937  27.871  13.425
95935W        W68195  19.634   9.340   2.681
95936W        W68196   8.863  10.983   4.833
95937W        W68197  26.489   0.315  12.848
95938W        W68198  20.687  11.176   0.010
95939W        W68199   2.718  28.587   0.181
95940W        W68200  31.253   9.795   3.433
95941W        W68201  20.031  10.794  13.953
95942W        W68202  39.527  10.326  13.520
95943W        W68203  26.512  12.068  11.191
95944W        W68204  39.173  26.419  10.967
95945W        W68205  26.482  17.349   4.610
95946W        W68206  35.163  21.620   1.649
95947W        W68207  36.439  43.506  14.321
95948W        W68208   3.747  28.775  14.868
95949W        W68209   9.436  17.104  13.138
95950W        W68210  16.192  35.611   3.580
95951W        W68211  21.748  37.907  12.095
95952W        W68212  22.971  36.697  12.042
95953W        W68213  10.123   9.563   2.797
95954W        W68214  44.390  31.314  13.580
95955W        W68215  43.163  41.273  12.514
95956W        W68216   7.827  42.549   1.181
95957W        W68217  41.149  28.519  10.672
95958W        W68218  20.097   4.356   2.862
95959W        W68219  27.926  22.381   4.703
95960W        W68220  27.486   1.863  13.532
95961W        W68221  14.615  31.155  11.017
95962W        W68222  21.589  31.160   4.184
95963W        W68223  12.210  35.139   4.699
95964W        W68224  33.611  27.623   4.491
95965W        W68225   8.078  36.325  10.437
95966W        W68226  12.485   3.688  13.549
95967W        W68227  39.896  35.942  10.708
95968W        W68228   3.335  25.880   2.175
95969W        W68229  21.176  27.328  14.470
95970W        W68230  34.661  43.544  12.344
95971W        W68231  28.223  20.167  11.685
95972W        W68232  17.107  39.789   4.236
95973W        W68233  42.267  19.746   4.693
95974W        W68234  15.606  35.884  11.561
95975W        W68235  15.056  23.466   2.442
95976W        W68236  35.967  17.706   3.655
95977W        W68237   6.140  23.521   1.180
95978W        W68238  31.690  41.014   2.307
95979W        W68239  23.247  31.109   2.326
95980W        W68240   1.355  13.685  14.591
95981W        W68241  29.455  29.414   4.625
95982W        W68242  40.780  33.023  12.836
95983W        W68243   1.210  41.052  13.145
95984W        W68244  27.634  26.173   3.764
95985W        W68245  21.285  11.171  11.985
95986W        W68246  26.502  26.554   1.543
95987W        W68247  33.297  33.959  11.654
95988W        W68248  41.562   3.081  14.467
95989W        W68249  26.772  38.415   2.462
95990W        W68250  25.521  39.070   9.727
95991W        W68251  19.813  30.500  11.756
95992W        W68252  14.495   9.731  11.048
95993W        W68253   5.297  15.589  10.712
95994W        W68254  13.088  35.804   4.640
95995W        W68255  19.227   3.414  12.459
95996W        W68256  21.681  40.990  13.295
95997W        W68257  13.558  28.459   3.674
95998W        W68258   2.030  36.629  11.152
95999W        W68259  25.930  14.715   0.486
96000W        W68260  21.433  35.408  14.389
96001W        W68261  26.814  21.927   2.156
96002W        W68262  21.180   1.078   2.364
96003W        W68263  41.341  12.026   5.099
96004W        W68264   7.748  44.364  11.124
96005W        W68265  40.932   5.043   0.769
96006W        W68266  36.317  38.622  13.901
96007W        W68267  38.104   2.995   2.220
96008W        W68268  15.253  32.621  14.912
96009W        W68269   3.807  26.075   2.242
96010W        W68270  36.954  19.775  10.224
96011W        W68271   1.248  14.987  12.832
96012W        W68272  30.188   1.764  14.344
96013W        W68273  27.273  30.542  14.327
96014W        W68274  29.586  31.104   0.971
96015W        W68275  14.395   8.756   1.732
96016W        W68276  10.295   9.626  12.646
96017W        W68277  37.660  34.956  14.313
96018W        W68278  28.174  34.988   3.774
96019W        W68279  14.843  23.643  12.898
96020W        W68280   7.967  21.182   2.107
96021W        W68281  28.753  33.368  11.540
96022W        W68282   5.072  28.483  12.884
96023W        W68283  19.658   1.260   2.699
96024W        W68284  34.088   2.710   2.487
96025W        W68285  17.286  29.765  11.616
96026W        W68286   3.676  12.662   0.882
96027W        W68287  10.640  13.850  12.560
96028W        W68288   4.374   7.947   0.419
96029W        W68289  29.404  15.849  14.321
96030W        W68290  37.558   9.606   2.070
96031W        W68291  29.465  42.952   2.220
96032W        W68292  29.342   2.293  14.894
96033W        W68293  44.549  35.823   0.975
96034W        W68294  10.038  15.915  14.918
96035W        W68295   0.444  32.740  13.680
96036W        W68296  35.516  28.739   0.687
96037W        W68297   6.579  10.457  14.767
96038W        W68298  13.821  25.919   4.668
96039W        W68299  27.199   9.605  13.138
96040W        W68300  33.484  33.560  12.372
96041W        W68301  20.594  44.303   3.287
96042W        W68302  23.720  13.554  14.008
96043W        W68303  41.066  14.561   0.843
96044W        W68304   7.376  22.511  11.606
96045W        W68305  38.242   6.918   0.072
96046W        W68306  39.272  12.541   2.788
96047W        W68307  25.581  21.237  13.532
96048W        W68308  35.069  23.797  12.144
96049W        W68309  11.095  43.262   4.688
96050W        W68310  27.532  40.520   4.895
96051W        W68311  42.282  23.222   0.411
96052W        W68312  33.466  35.289  11.646
96053W        W68313  36.153  23.030   3.190
96054W        W68314  44.641  36.545   4.682
96055W        W68315  17.308   8.402  11.532
96056W        W68316  38.530  14.267  10.732
96057W        W68317  13.133   7.068  10.690
96058W        W68318  40.076  41.479  13.000
96059W        W68319  28.911   5.295  11.679
96060W        W68320  39.459  26.788  13.840
96061W        W68321  11.917   4.689   0.386
96062W        W68322  36.648  29.627  11.523
96063W        W68323   9.214   4.242  14.815
96064W        W68324  20.669  24.521   4.613
96065W        W68325   8.664  25.279   1.862
96066W        W68326  10.815  24.029   2.707
96067W        W68327  27.605  26.721   5.055
96068W        W68328  22.222   3.243   3.278
96069W        W68329  39.924  27.204   2.367
96070W        W68330  40.304  32.355   3.173
96071W        W68331  29.278   2.792   3.711
96072W        W68332  21.141  43.492   0.148
96073W        W68333   3.874  36.644  12.399
96074W        W68334  16.052   5.022   5.003
96075W        W68335  43.380  13.097   2.683
96076W        W68336   2.753   2.174   0.735
96077W        W68337   6.466  16.963   3.216
96078W        W68338  13.659  44.935  11.871
96079W        W68339  40.285  11.356   4.107
96080W        W68340   5.289  40.734   1.753
96081W        W68341   3.405   1.916  11.044
96082W        W68342  10.705  27.086  14.387
96083W        W68343  12.855  34.385   3.307
96084W        W68344  22.648  28.466  12.840
96085W        W68345  27.681  22.070  12.664
96086W        W68346  29.408  17.850  10.820
96087W        W68347   6.155   6.323  11.571
96088W        W68348  38.926  11.276   2.339
96089W        W68349  14.772   5.902   4.780
96090W        W68350  33.439  34.153  13.044
96091W        W68351  44.350  19.772   2.860
96092W        W68352  35.897  23.134  11.152
96093W        W68353  14.160  22.259   0.027
96094W        W68354  14.882  21.504   3.664
96095W        W68355   9.813  26.601   3.176
96096W        W68356  40.460  28.831  13.769
96097W        W68357   9.473  14.814   0.375
96098W        W68358  13.110   4.893  11.949
96099W        W68359  39.502  43.042  11.104
96100W        W68360  27.536   8.038  12.352
96101W        W68361  37.969   2.690  14.731
96102W        W68362  35.664  18.567   3.834
96103W        W68363  20.785  39.041   2.625
96104W        W68364  24.068  40.006   4.146
96105W        W68365  25.696  42.379   1.317
96106W        W68366   2.914  12.165   4.788
96107W        W68367  24.377  41.588   2.416
96108W        W68368  33.382  32.394   3.691
96109W        W68369  17.166   0.753   2.774
96110W        W68370   9.305  20.581   0.031
96111W        W68371   7.981  26.897  11.276
96112W        W68372  14.801  21.565  12.094
96113W        W68373  22.747   3.335  13.723
96114W        W68374   4.746  27.772  11.613
96115W        W68375  20.125  21.095  13.515
96116W        W68376  42.400   9.820  14.692
96117W        W68377   2.331  29.391   1.762
96118W        W68378  11.274  34.086   2.780
96119W        W68379   6.920   6.142   3.637
96120W        W68380  44.528  23.141   4.846
96121W        W68381  37.944  33.054   0.540
96122W        W68382  40.996  22.618   0.929
96123W        W68383  33.020  32.099  10.614
96124W        W68384  22.243  26.767   0.573
96125W        W68385  44.370  23.002  13.605
96126W        W68386  11.395  28.914   0.874
96127W        W68387  13.765  28.920   0.590
96128W        W68388  14.773  22.318   4.052
96129W        W68389  26.283  29.214   3.677
96130W        W68390  29.035  15.194  14.715
96131W        W68391  14.676  15.676  12.572
96132W        W68392  44.973  14.979   1.176
96133W        W68393   1.726  42.604   1.743
96134W        W68394  33.335  30.593  14.431
96135W        W68395  20.207  17.620   2.592
96136W        W68396  41.577  15.957  13.783
96137W        W68397  28.923  44.823   2.282
96138W        W68398  17.372   1.134   4.084
96139W        W68399  32.627  16.064  12.978
96140W        W68400  43.482  18.551   4.324
96141W        W68401  23.987   0.849  11.984
96142W        W68402  37.060   0.292  10.742
96143W        W68403   1.416  25.040  12.060
96144W        W68404  34.439  18.967  12.132
96145W        W68405   2.333  40.143   3.315
96146W        W68406  36.104  26.958   3.800
96147W        W68407  20.359  17.313  11.194
96148W        W68408  20.128   9.054  10.198
96149W        W68409  12.134  22.608   4.559
96150W        W68410  41.492  21.027   0.782
96151W        W68411  23.543  31.376  14.405
96152W        W68412   3.956  40.563   4.518
96153W        W68413  39.147   6.060   4.643
96154W        W68414  36.328   8.787  11.613
96155W        W68415   9.786  34.330  12.315
96156W        W68416   0.920  26.276  12.021
96157W        W68417  40.439  27.887   3.187
96158W        W68418  18.633  26.761   5.051
96159W        W68419  36.865   6.863   0.040
96160W        W68420  12.134   4.925   4.610
96161W        W68421   8.267  13.211   1.761
96162W        W68422  11.160  27.445  10.721
96163W        W68423  14.046  27.347  13.283
96164W        W68424  37.838   6.194  10.707
96165W        W68425  35.085  34.938   4.713
96166W        W68426  31.487  35.986  12.184
96167W        W68427   6.815  39.305   1.039
96168W        W68428  19.142  12.581   0.428
96169W        W68429  11.239  42.915   2.494
96170W        W68430   2.016   8.231   3.406
96171W        W68431   0.831  32.708   1.707
96172W        W68432  33.353   9.949   1.234
96173W        W68433   8.927  33.115   1.041
96174W        W68434  16.857  18.566  10.174
96175W        W68435   9.397  44.054   4.377
96176W        W68436  38.894   3.333   0.932
96177W        W68437  39.138  37.342  14.482
96178W        W68438  39.353  35.304   4.194
96179W        W68439  39.441  20.581   0.202
96180W        W68440  15.249  19.098  14.563
96181W        W68441  34.021   8.356   0.034
96182W        W68442  21.744  43.809  11.638
96183W        W68443  32.483   7.398   2.774
96184W        W68444  31.096   5.691  11.206
96185W        W68445  40.894  37.490   3.852
96186W        W68446  41.303   3.407  13.471
96187W        W68447   7.840  30.629   0.769
96188W        W68448  20.226  16.807  14.365
96189W        W68449  39.730  10.680   0.101
96190W        W68450   8.688   0.861   3.026
96191W        W68451  14.761   1.679  13.515
96192W        W68452  19.345  31.567   3.779
96193W        W68453  27.171  28.007  12.228
96194W        W68454  27.163  44.213   1.264
96195W        W68455  14.715  41.807  14.839
96196W        W68456   9.947  38.966  13.416
96197W        W68457  16.338   5.946  14.403
96198W        W68458  27.149  12.077  10.595
96199W        W68459  10.674  14.131  11.836
96200W        W68460  15.644  42.793   1.376
96201W        W68461  44.355  17.881   0.818
96202W        W68462  41.862  42.201  10.423
96203W        W68463  24.219  38.558   3.316
96204W        W68464  16.118   4.497  11.100
96205W        W68465  44.023   4.935   1.456
96206W        W68466  35.234  22.594  13.923
96207W        W68467  12.593   0.954   4.609
96208W        W68468   2.022  22.215   0.892
96209W        W68469   7.240   5.845  14.343
96210W        W68470   2.903   0.917  14.409
96211W        W68471  37.624  28.108   3.626
96212W        W68472   3.733  14.726   1.411
96213W        W68473  30.658  32.145  12.430
96214W        W68474  12.758  29.902  13.335
96215W        W68475  14.369  15.033  10.292
96216W        W68476   8.353  34.522  12.017
96217W        W68477  31.734  20.195   4.289
96218W        W68478  14.729  44.860  10.434
96219W        W68479   1.661  30.597   2.597
96220W        W68480  22.259  18.682  12.335
96221W        W68481   3.823  31.101   4.627
96222W        W68482   9.447  20.135   2.726
96223W        W68483  43.832   7.707  14.793
96224W        W68484  33.800   5.681   3.231
96225W        W68485  10.658  38.567   1.417
96226W        W68486  18.028  23.570  11.106
96227W        W68487  19.075   2.645   0.746
96228W        W68488  40.578  36.113   4.140
96229W        W68489   8.930   1.936  13.716
96230W        W68490  26.628   8.828   4.716
96231W        W68491  13.577  28.054   4.067
96232W        W68492  16.250  30.307   3.044
96233W        W68493  25.218   0.456  14.648
96234W        W68494  15.061  18.042   0.425
96235W        W68495  40.473  23.759   1.277
96236W        W68496   4.850  14.363  13.989
96237W        W68497  10.203  13.210   0.465
96238W        W68498  42.766  34.666   0.612
96239W        W68499  37.393  32.672  14.943
96240W        W68500  16.589  37.416   3.188
96241W        W68501  10.200  23.968   0.787
96242W        W68502   7.237   7.781  14.418
96243W        W68503   9.956  28.321  10.608
96244W        W68504   9.803  35.934   2.522
96245W        W68505  35.884  10.079   1.466
96246W        W68506   9.776  17.567  11.833
96247W        W68507  37.438  28.846   3.574
96248W        W68508  38.343  42.445   3.847
96249W        W68509  31.401  39.882   2.223
96250W        W68510  40.341   5.905  12.932
96251W        W68511  44.934   9.063   3.252
96252W        W68512  21.653   1.389   3.655
96253W        W68513  35.449   7.784   1.846
96254W        W68514   3.153  25.006   3.854
96255W        W68515   0.034  12.600  12.103
96256W        W68516   5.765  10.660  14.164
96257W        W68517  30.729  42.087  11.176
96258W        W68518  42.012   2.703   1.445
96259W        W68519  14.611  31.851  12.128
96260W        W68520  14.230   0.657   1.882
96261W        W68521  39.167  12.068  10.822
96262W        W68522  22.678  14.571  13.861
96263W        W68523   3.163  24.554   4.199
96264W        W68524  32.626   5.350  10.941
96265W        W68525   9.736  16.078  11.697
96266W        W68526   5.922  32.651   0.422
96267W        W68527  40.988   4.557   0.925
96268W        W68528  12.665   2.247   2.819
96269W        W68529  43.217  23.458  14.954
96270W        W68530  40.849  29.023   0.450
96271W        W68531  10.662  35.439  12.451
96272W        W68532  24.584  43.371  14.033
96273W        W68533  29.745  37.546  11.955
96274W        W68534  29.168  44.027   0.393
96275W        W68535   4.942  30.591  13.084
96276W        W68536  22.254  10.396  11.569
96277W        W68537   4.814  39.030   0.191
96278W        W68538  34.919   9.174  10.662
96279W        W68539  35.719  34.717  13.137
96280W        W68540   2.891   3.188  12.023
96281W        W68541  17.279   7.154   2.238
96282W        W68542  19.772  35.838  11.379
96283W        W68543  18.065  36.075  12.985
96284W        W68544  28.108  26.121   4.616
96285W        W68545  17.382   0.855   0.010
96286W        W68546  40.944   6.102   4.643
96287W        W68547  12.275   7.729   0.295
96288W        W68548  31.493  38.607   0.953
96289W        W68549   7.765  10.706  14.442
96290W        W68550  28.018   1.822  13.572
96291W        W68551  25.574  13.840   0.921
96292W        W68552  15.256  37.522   3.222
96293W        W68553   6.816  16.202   0.508
96294W        W68554  38.969  18.321  12.679
96295W        W68555  26.033  31.244  11.135
96296W        W68556  41.057  31.639  10.962
96297W        W68557  21.320  13.330  12.362
96298W        W68558  20.616  39.334   1.333
96299W        W68559  44.460  16.262   2.311
96300W        W68560  14.168   0.358  13.485
96301W        W68561  17.322  29.832  13.361
96302W        W68562   9.800  29.171  12.480
96303W        W68563   1.281  19.516  14.395
96304W        W68564  29.623  12.116   4.881
96305W        W68565  33.858   1.384   2.159
96306W        W68566  39.738   1.631  14.829
96307W        W68567  39.348   7.201  14.483
96308W        W68568   3.718  41.739   1.179
96309W        W68569  14.706   5.799   4.281
96310W        W68570  41.508  12.089   3.327
96311W        W68571  34.769  34.471  10.262
96312W        W68572  20.581  31.620   1.195
96313W        W68573  24.547   7.153   1.827
96314W        W68574  42.367   5.796   0.518
96315W        W68575  24.713  10.590   2.951
96316W        W68576  32.540  39.561  14.801
96317W        W68577  43.967  39.261   2.892
96318W        W68578  16.760  11.215  13.903
96319W        W68579  25.468  42.100  11.621
96320W        W68580   2.954  33.989  13.393
96321W        W68581  29.596   5.527  12.402
96322W        W68582  13.695  17.257  12.030
96323W        W68583  13.189   0.858   4.502
96324W        W68584   1.442  31.092  13.471
96325W        W68585  12.403  33.380   4.180
96326W        W68586   2.533  32.069  12.045
96327W        W68587  29.620  44.376  13.595
96328W        W68588  31.369   5.131   2.381
96329W        W68589  38.275  38.851  11.176
96330W        W68590  41.622   8.220   3.891
96331W        W68591  13.229  43.424   1.982
96332W        W68592  28.935  13.385  12.249
96333W        W68593  41.765  24.024  14.325
96334W        W68594   3.274  10.810  10.083
96335W        W68595   8.787  35.634   4.318
96336W        W68596   7.170  35.464   4.149
96337W        W68597  36.851  20.246  12.318
96338W        W68598  37.226  34.795  13.525
96339W        W68599  15.454  32.226   0.166
96340W        W68600  13.209  27.208   3.262
96341W        W68601  17.969  22.805   3.907
96342W        W68602  23.669  20.310   0.377
96343W        W68603   2.826  21.990   1.361
96344W        W68604  30.487   1.409   0.855
96345W        W68605  39.872   6.124   4.136
96346W        W68606  35.756   9.818  12.440
96347W        W68607   4.756  42.507  13.999
96348W        W68608  17.941  14.645   1.711
96349W        W68609   9.047  31.171   0.914
96350W        W68610  24.999  18.730  11.989
96351W        W68611  24.517  22.196  12.070
96352W        W68612  12.666  32.440   3.258
96353W        W68613  43.028   7.278   5.071
96354W        W68614  26.708   4.415  10.226
96355W        W68615  18.682  15.774   2.303
96356W        W68616   1.308  40.224  11.223
96357W        W68617  15.572  14.542   9.734
96358W        W68618  44.676  38.863  13.986
96359W        W68619  25.463  35.657  10.255
96360W        W68620  21.618  19.689  12.575
96361W        W68621  38.827  13.661   0.441
96362W        W68622  15.488  37.294   2.394
96363W        W68623  25.643   4.006  10.348
96364W        W68624  34.435  37.816   1.626
96365W        W68625   9.883  35.445   3.749
96366W        W68626  12.663   9.765  11.966
96367W        W68627  27.078  38.322   1.978
96368W        W68628  38.698  22.226  14.674
96369W        W68629  41.922  22.796  12.400
96370W        W68630  29.281  19.635   2.223
96371W        W68631  22.153  18.809   2.770
96372W        W68632  37.961  25.774   2.496
96373W        W68633   3.884  33.864   1.080
96374W        W68634  10.258  32.050   2.112
96375W        W68635  38.610  35.089  14.013
96376W        W68636  23.741  19.272   0.753
96377W        W68637  10.363  42.761  10.338
96378W        W68638  33.636   9.201   3.836
96379W        W68639  24.257  34.984  12.512
96380W        W68640   5.863  14.044   0.768
96381W        W68641  37.523  28.599  11.731
96382W        W68642  42.326  17.685  13.457
96383W        W68643  37.515   4.389  12.834
96384W        W68644  42.443   7.920   3.822
96385W        W68645   9.859  20.506  12.419
96386W        W68646  10.880  16.724   2.152
96387W        W68647   1.189  30.165   2.515
96388W        W68648   3.425  31.329   0.848
96389W        W68649  17.014   3.388  13.029
96390W        W68650  34.367   1.323  12.310
96391W        W68651  41.831  17.016  12.097
96392W        W68652  16.097  27.861   3.681
96393W        W68653  44.341  21.781   2.462
96394W        W68654  11.132  10.435   1.326
96395W        W68655  12.645   9.867  14.708
96396W        W68656  25.524   8.404  13.622
96397W        W68657   5.219  44.339  12.497
96398W        W68658  20.001   8.772   1.225
96399W        W68659  23.254  17.582   2.230
96400W        W68660   9.116   8.715  14.888
96401W        W68661  16.381  17.823  11.740
96402W        W68662  30.971   9.273  14.776
96403W        W68663  26.150   7.397  11.496
96404W        W68664   8.296   3.360   3.832
96405W        W68665  27.185  42.937  11.576
96406W        W68666  21.127  41.834   4.516
96407W        W68667  10.525  33.865  12.902
96408W        W68668   2.867  17.768  12.950
96409W        W68669   7.220  19.067   2.515
96410W        W68670  35.774  37.392   2.809
96411W        W68671  38.301  40.867  13.102
96412W        W68672   0.246   3.239   3.177
96413W        W68673  29.216   7.393  11.843
96414W        W68674  36.068   5.234  11.922
96415W        W68675   4.715  21.971  14.586
96416W        W68676   4.755   5.257  11.140
96417W        W68677   8.894  17.529  13.488
96418W        W68678  34.152  14.583   4.241
96419W        W68679  42.065  27.065  11.941
96420W        W68680  27.616  34.982  11.711
96421W        W68681  18.314  18.563   4.640
96422W        W68682  26.165  15.412  10.554
96423W        W68683  10.791  13.592  14.054
96424W        W68684  12.636  15.276   1.214
96425W        W68685   4.367  33.476  14.078
96426W        W68686  13.113   9.920   4.354
96427W        W68687   2.265   7.620  10.991
96428W        W68688   1.404  29.864   4.544
96429W        W68689   6.901  23.719   3.582
96430W        W68690  13.147  15.074   3.881
96431W        W68691  17.638  14.698  13.271
96432W        W68692  41.428  36.021   2.874
96433W        W68693   8.903   1.747   2.869
96434W        W68694  30.400  16.710   1.464
96435W        W68695  12.385  42.871   0.986
96436W        W68696  30.495  23.516  12.205
96437W        W68697  28.189   6.157  12.948
96438W        W68698   0.871  22.715  14.318
96439W        W68699  35.996  37.401  11.660
96440W        W68700  38.772  13.755   4.327
96441W        W68701   5.445  26.089  10.709
96442W        W68702  43.134  37.098   2.226
96443W        W68703  30.867   2.294   2.700
96444W        W68704  39.136  21.809   1.792
96445W        W68705  17.366   9.323  14.204
96446W        W68706  13.337  12.785  12.767
96447W        W68707   6.768  25.611  10.614
96448W        W68708  27.900  32.966  10.123
96449W        W68709  29.087  32.447  14.385
96450W        W68710   8.837  15.383  11.540
96451W        W68711  26.445  40.516  13.955
96452W        W68712  17.559   5.659  13.291
96453W        W68713  27.938  23.709  12.066
96454W        W68714  21.759  34.492   4.458
96455W        W68715  34.062  29.885   2.843
96456W        W68716  14.329  34.374   1.118
96457W        W68717  41.161  19.726  13.476
96458W        W68718  13.988   2.835   2.379
96459W        W68719  15.108  17.575   4.275
96460W        W68720   4.199  16.594   3.328
96461W        W68721  41.886  11.538   0.688
96462W        W68722  12.648  19.649   2.861
96463W        W68723  14.839  30.730  13.916
96464W        W68724   2.907  14.400  11.890
96465W        W68725  22.574   4.213  13.075
96466W        W68726  38.057  27.510  12.532
96467W        W68727  31.952  36.379   5.021
96468W        W68728  27.555  34.109   1.749
96469W        W68729  17.097   4.212   3.172
96470W        W68730  42.304  11.410   0.968
96471W        W68731  15.637  38.991  11.000
96472W        W68732  33.481  22.101  13.852
96473W        W68733  38.826  44.851   0.466
96474W        W68734  43.578  24.087  14.417
96475W        W68735  12.216  21.045   1.322
96476W        W68736  23.095  28.234  14.094
96477W        W68737  33.898  43.491  11.093
96478W        W68738   4.869  39.512  14.227
96479W        W68739  36.154  33.901   4.280
96480W        W68740  34.414  38.526   2.892
96481W        W68741  14.774   3.632   0.250
96482W        W68742  36.114   1.991   4.180
96483W        W68743  35.888   3.021   1.821
96484W        W68744  11.776  22.439  14.787
96485W        W68745  44.979   3.439  14.459
96486W        W68746  30.706  44.525  14.410
96487W        W68747  14.176  24.019  12.420
96488W        W68748  43.385   1.215   2.815
96489W        W68749  25.002   9.674  14.794
96490W        W68750  32.730  30.944   2.662
96491W        W68751   0.259  37.523  10.621
96492W        W68752  31.859  29.968  13.399
96493W        W68753  25.459   2.983  13.541
96494W        W68754  32.591  25.498   3.037
96495W        W68755  32.040  25.273   1.257
96496W        W68756  18.651  12.550  13.367
96497W        W68757  30.642  11.177   3.069
96498W        W68758  20.612  36.442  13.303
96499W        W68759  20.010  12.927   3.158
96500W        W68760  18.561  36.957   0.575
96501W        W68761  33.471  42.434  14.236
96502W        W68762  19.694  10.271   2.698
96503W        W68763  22.774  20.237   2.199
96504W        W68764  31.032  10.962  10.992
96505W        W68765  26.088  23.184   4.123
96506W        W68766  29.990   2.866   1.215
96507W        W68767  17.794  17.825   4.573
96508W        W68768  40.048  21.066  10.877
96509W        W68769  11.828  11.603  10.916
96510W        W68770  44.509  27.896  13.907
96511W        W68771  34.877  42.977  12.160
96512W        W68772  43.351   4.910   4.701
96513W        W68773  16.682  30.459   1.724
96514W        W68774  26.266  34.900  10.957
96515W        W68775  35.074  34.629  14.288
96516W        W68776  33.108   2.915   4.319
96517W        W68777  24.544  29.462   0.551
96518W        W68778  16.886  16.467   5.041
96519W        W68779  24.858   9.523   4.164
96520W        W68780  27.663  37.653  10.215
96521W        W68781   1.921   9.552  12.426
96522W        W68782  42.231  12.747   3.270
96523W        W68783  10.041  37.933  10.483
96524W        W68784  20.560  31.650  14.655
96525W        W68785   3.784  30.416  13.769
96526W        W68786  13.058   4.445   3.341
96527W        W68787  32.938  11.848  14.930
96528W        W68788  34.600  42.561   0.165
96529W        W68789  11.320  32.452   1.315
96530W        W68790   3.063  29.910  13.605
96531W        W68791   9.178  41.545   3.209
96532W        W68792  10.922  14.740   3.597
96533W        W68793  44.026  30.508   1.696
96534W        W68794  42.353   8.237  11.542
96535W        W68795  17.639  44.095  13.940
96536W        W68796  35.506  24.855  12.403
96537W        W68797  32.552  29.965   1.414
96538W        W68798  22.105  41.481   4.072
96539W        W68799  31.932   2.772  12.163
96540W        W68800  18.615  10.127   3.238
96541W        W68801  18.777   4.882   4.982
96542W        W68802  27.340  24.500  14.835
96543W        W68803  28.770  27.269  12.467
96544W        W68804  19.165  39.807  12.511
96545W        W68805   9.857   0.376   4.152
96546W        W68806  44.920  37.676  12.527
96547W        W68807  10.102  35.690  11.635
96548W        W68808  16.281   8.402  13.387
96549W        W68809  25.701  30.677  12.926
96550W        W68810  15.549  32.252  10.759
96551W        W68811  39.853  13.606   4.199
96552W        W68812  16.228  11.676  12.510
96553W        W68813   1.714  22.716  10.652
96554W        W68814  41.614  23.217   3.376
96555W        W68815   3.478  25.139   4.954
96556W        W68816  17.887  27.171  12.271
96557W        W68817   2.430  32.379   2.635
96558W        W68818   0.409  16.578  10.532
96559W        W68819  32.676  21.692  12.170
96560W        W68820  24.858  41.864   4.953
96561W        W68821   3.050  23.109   3.098
96562W        W68822  36.023  35.071   0.904
96563W        W68823  37.147  17.529   4.200
96564W        W68824  16.758   2.954   3.413
96565W        W68825  32.160   9.726  13.774
96566W        W68826  38.936  30.682   3.801
96567W        W68827  30.450  25.600  12.895
96568W        W68828   7.241  13.638  10.991
96569W        W68829   9.413  13.335  12.415
96570W        W68830  18.203  25.036   0.350
96571W        W68831  12.740  15.069  13.692
96572W        W68832  29.301  43.142   2.754
96573W        W68833   3.319  17.118   4.625
96574W        W68834  29.160   8.391  12.833
96575W        W68835   2.992  34.539   3.524
96576W        W68836  30.651   8.564  12.038
96577W        W68837   6.490  34.733   4.262
96578W        W68838  23.112  18.728   5.134
96579W        W68839  22.945  13.730   0.699
96580W        W68840  10.483  11.093  11.221
96581W        W68841   6.286   2.173   0.485
96582W        W68842  40.788  24.017   2.317
96583W        W68843  17.587   4.497   0.855
96584W        W68844  19.681  28.050  13.466
96585W        W68845  27.524  11.468  11.998
96586W        W68846  30.567  42.593  12.060
96587W        W68847  34.046  34.845   2.312
96588W        W68848  19.796  20.779   0.132
96589W        W68849  29.056  33.715  10.259
96590W        W68850  10.243  14.722   3.083
96591W        W68851  38.949  18.129  11.147
96592W        W68852  34.516  33.922  14.758
96593W        W68853  24.921  14.622   3.165
96594W        W68854  30.963  42.046   3.629
96595W        W68855  18.677  27.499   3.345
96596W        W68856  18.587  15.187  13.605
96597W        W68857   3.470  33.793  11.101
96598W        W68858  21.573  42.105  10.635
96599W        W68859   8.293   0.033  12.048
96600W        W68860  21.492   3.361  12.538
96601W        W68861   7.289  40.578  14.494
96602W        W68862  38.458  31.420   0.338
96603W        W68863  15.296  13.593  14.702
96604W        W68864  16.913   6.297   3.583
96605W        W68865  14.614  21.303   4.057
96606W        W68866  22.528  12.883  13.250
96607W        W68867  27.754   5.938  14.302
96608W        W68868  33.609   6.718  13.671
96609W        W68869  17.217   2.915  13.956
96610W        W68870  15.704  27.222   4.127
96611W        W68871  43.217  35.877   1.344
96612W        W68872  30.052  21.569  12.920
96613W        W68873  11.318  22.279  13.713
96614W        W68874  28.220  23.056   3.436
96615W        W68875   2.269  16.226   0.425
96616W        W68876  20.596  11.893  10.957
96617W        W68877  10.185  38.749  12.806
96618W        W68878   9.296  10.476   2.425
96619W        W68879   5.399   7.599  12.947
96620W        W68880  42.981  14.411   2.854
96621W        W68881  10.662  20.141   3.292
96622W        W68882  16.877  36.579   2.017
96623W        W68883  25.860   6.798   1.439
96624W        W68884   4.051  11.709  13.438
96625W        W68885  42.840  35.119   2.280
96626W        W68886  14.709   3.446   3.721
96627W        W68887   7.305  24.953   1.657
96628W        W68888   5.946  43.331  11.968
96629W        W68889  16.143  24.758   1.756
96630W        W68890  38.700   3.601   4.230
96631W        W68891  18.379  28.519   2.293
96632W        W68892  40.312   3.417  13.991
96633W        W68893  12.781  25.472   3.320
96634W        W68894   0.791  36.938  12.973
96635W        W68895  42.007   8.704  11.548
96636W        W68896  16.348  16.672  11.188
96637W        W68897  27.089   7.703  12.980
96638W        W68898  15.197  11.371  14.479
96639W        W68899  34.278   7.380   4.432
96640W        W68900  32.514  13.793  14.250
96641W        W68901  13.605  32.125  13.352
96642W        W68902  41.824  29.983   3.809
96643W        W68903  43.812  18.532   3.194
96644W        W68904  21.643  43.724  13.038
96645W        W68905  33.515   8.487   3.132
96646W        W68906  28.664  38.360  13.790
96647W        W68907   6.978  29.605   1.809
96648W        W68908  28.915  23.478  12.078
96649W        W68909   9.797  14.533  14.427
96650W        W68910  40.122  42.059   2.841
96651W        W68911   2.725  43.447  11.678
96652W        W68912  18.092  41.295  12.281
96653W        W68913   8.100  27.012  13.306
96654W        W68914   3.430  27.509  10.829
96655W        W68915  29.997  14.786   4.573
96656W        W68916  18.671  41.402   0.969
96657W        W68917   9.586  33.620   0.915
96658W        W68918  35.353  37.651  13.808
96659W        W68919  17.485  25.876   1.373
96660W        W68920  24.021   3.515   1.858
96661W        W68921   4.710  39.265  13.825
96662W        W68922  17.359  32.037   3.276
96663W        W68923  37.135   8.869  12.592
96664W        W68924   5.013  16.487  12.964
96665W        W68925  21.458   0.354  12.066
96666W        W68926  20.562   5.338  11.146
96667W        W68927  21.229  35.386   2.209
96668W        W68928  16.072  25.110   1.339
96669W        W68929  10.220  33.803   4.874
96670W        W68930  43.342  36.607  12.709
96671W        W68931   5.243  32.882   2.332
96672W        W68932  22.645   6.136   0.733
96673W        W68933  30.374  28.436  11.310
96674W        W68934  29.764  41.382   2.341
96675W        W68935  12.758  14.385  11.473
96676W        W68936  15.656  34.694   1.751
96677W        W68937  33.145  32.414  14.084
96678W        W68938   8.362  10.218  13.854
96679W        W68939  40.180   2.432   4.229
96680W        W68940  11.783  39.886   4.928
96681W        W68941  35.657  33.344  11.587
96682W        W68942   3.441  12.145  13.859
96683W        W68943  12.669   9.370  14.877
96684W        W68944   8.376  26.813   2.964
96685W        W68945  22.028   3.889  13.508
96686W        W68946  20.606  10.328   3.342
96687W        W68947  32.670  26.489  11.548
96688W        W68948  30.922  38.037   3.412
96689W        W68949  17.070   5.740  11.548
96690W        W68950  41.022  12.682  14.035
96691W        W68951  20.272  41.494  10.784
96692W        W68952   9.336  33.342   1.788
96693W        W68953  35.077  11.276   3.748
96694W        W68954   5.328  28.672   1.855
96695W        W68955  42.528  25.775  13.666
96696W        W68956   8.402   1.312   2.272
96697W        W68957  32.261  19.466  14.838
96698W        W68958  14.702   6.130   1.468
96699W        W68959  43.527  38.731   1.372
96700W        W68960   9.618  25.003  11.542
96701W        W68961   5.944  40.547   2.254
96702W        W68962  17.123   3.248   4.160
96703W        W68963  33.383  16.496  14.280
96704W        W68964  29.608   8.728  14.242
96705W        W68965  19.839  10.321  14.094
96706W        W68966  35.966  22.708   4.576
96707W        W68967  36.489  22.719   0.436
96708W        W68968  24.374  33.906  12.751
96709W        W68969  40.011  41.449   2.233
96710W        W68970  35.373   2.835   4.203
96711W        W68971  39.921  14.614   2.216
96712W        W68972  19.818  18.030   3.320
96713W        W68973  43.403  37.157   1.743
96714W        W68974  18.072  31.934  14.346
96715W        W68975   8.246  15.105   1.874
96716W        W68976  12.068  25.085   2.669
96717W        W68977  38.032  42.076  13.345
96718W        W68978  19.860  44.780  14.535
96719W        W68979   8.201   5.932  11.048
96720W        W68980  44.710  24.072  14.805
96721W        W68981  21.012  40.444  11.479
96722W        W68982  33.387  21.075   0.402
96723W        W68983  43.264  18.496   0.730
96724W        W68984  32.787  17.627  13.066
96725W        W68985  29.120  14.727  13.488
96726W        W68986  25.629  39.683   9.828
96727W        W68987  23.407  14.375   3.254
96728W        W68988  12.812  37.854  11.914
96729W        W68989  35.620  35.995  13.475
96730W        W68990  42.483  16.241  10.647
96731W        W68991  18.179   2.942   2.180
96732W        W68992  22.029  22.722   1.362
96733W        W68993  23.529  26.678   1.706
96734W        W68994  11.535  23.506   1.509
96735W        W68995  40.810  27.486  11.623
96736W        W68996  26.109  38.893   5.503
96737W        W68997  35.472   6.908  11.965
96738W        W68998   1.163  44.056   4.168
96739W        W68999  26.712  23.774   3.094
96740W        W69000  41.238  27.077  12.546
96741W        W69001   3.684   5.743  14.719
96742W        W69002  26.650   1.374   2.713
96743W        W69003   2.342  37.413  10.796
96744W        W69004  34.303  12.178  12.148
96745W        W69005  29.385  20.224   1.547
96746W        W69006  20.807  22.246   2.786
96747W        W69007  32.476  38.455   1.221
96748W        W69008  26.521  17.803  11.844
96749W        W69009  20.720  39.455  14.887
96750W        W69010  44.390  17.091  12.793
96751W        W69011   8.261   6.764   2.726
96752W        W69012  22.581  21.231   5.678
96753W        W69013  36.495   9.130   3.859
96754W        W69014   0.852  31.835   4.694
96755W        W69015  31.043  30.151  14.509
96756W        W69016  25.171  35.051   0.333
96757W        W69017  25.222  29.504   2.852
96758W        W69018  34.317  16.176  13.565
96759W        W69019  23.939  33.523  13.475
96760W        W69020  38.471   7.976   2.467
96761W        W69021  37.890  21.706  10.647
96762W        W69022   6.400   8.907   2.149
96763W        W69023  13.613   5.264  10.700
96764W        W69024   4.437   3.326   2.153
96765W        W69025  25.125   4.138   0.852
96766W        W69026  38.474  16.603  13.323
96767W        W69027  15.879  33.342  13.067
96768W        W69028  32.145   3.859  11.362
96769W        W69029  16.783  17.283   4.643
96770W        W69030  16.230  13.178   4.181
96771W        W69031   2.978  26.544   0.780
96772W        W69032   9.538  27.706   0.902
96773W        W69033  39.326   1.903  14.974
96774W        W69034  30.335  29.608   3.286
96775W        W69035  35.958  13.767  13.599
96776W        W69036   9.563  12.711   1.424
96777W        W69037   0.574  35.423   2.042
96778W        W69038  40.134  36.956   1.607
96779W        W69039  13.205  31.154  11.514
96780W        W69040  39.531  24.668   0.299
96781W        W69041  44.913  39.359   3.992
96782W        W69042  33.835   0.393  14.402
96783W        W69043   1.464   2.490   4.518
96784W        W69044  36.896  21.732   2.310
96785W        W69045  38.867  18.192  10.192
96786W        W69046  19.756  29.204  13.685
96787W        W69047  40.923  34.132  11.244
96788W        W69048  35.854   6.300   2.271
96789W        W69049  12.747  38.387   4.325
96790W        W69050  43.346  14.067  11.313
96791W        W69051  15.171  39.594  11.062
96792W        W69052  31.153   6.872   1.730
96793W        W69053  37.419  37.089  11.144
96794W        W69054   8.633  20.548   0.988
96795W        W69055  12.716   3.695   4.772
96796W        W69056   4.619  32.518  11.459
96797W        W69057  39.346  21.205  14.288
96798W        W69058   7.132  31.130   0.379
96799W        W69059  30.226  28.904   4.521
96800W        W69060  26.464   4.483  13.456
96801W        W69061  27.916   9.726  11.451
96802W        W69062  26.067  12.413   0.440
96803W        W69063  22.756  11.884  14.387
96804W        W69064   2.063  13.853   2.838
96805W        W69065   4.058  34.087   3.224
96806W        W69066   9.737  28.712   1.398
96807W        W69067  38.873  41.495   3.677
96808W        W69068  41.309   3.729   3.618
96809W        W69069  40.239   3.449   2.800
96810W        W69070   7.702  38.128   4.045
96811W        W69071  36.933  23.801   4.466
96812W        W69072  37.863  38.570  14.792
96813W        W69073  32.335  39.907  13.466
96814W        W69074  16.549   9.128  10.476
96815W        W69075  44.434  27.606   1.733
96816W        W69076  15.095   5.394   4.703
96817W        W69077  40.107  11.387   0.032
96818W        W69078  17.052  11.754   2.198
96819W        W69079  18.789   6.087   5.062
96820W        W69080  44.310  23.819   2.233
96821W        W69081  43.915  21.162  14.386
96822W        W69082  32.947  38.994   1.769
96823W        W69083  41.905  10.782   1.675
96824W        W69084  25.457  38.523  11.183
96825W        W69085  15.689   1.890   1.476
96826W        W69086  18.505   0.194   1.722
96827W        W69087   1.249  17.079  11.994
96828W        W69088  26.481  28.059  13.365
96829W        W69089   8.093  38.555   4.125
96830W        W69090   3.297  18.347  14.059
96831W        W69091  38.728  30.022   4.940
96832W        W69092  14.643  22.537  10.714
96833W        W69093  23.773  11.775  12.897
96834W        W69094  21.991  25.213  12.637
96835W        W69095  36.979  22.644   0.229
96836W        W69096  14.524  37.783   1.798
96837W        W69097  29.026  35.299  14.962
96838W        W69098  39.740  20.712  12.158
96839W        W69099  32.988  34.358   0.697
96840W        W69100  20.618   2.426  13.900
96841W        W69101  25.709  34.428   4.577
96842W        W69102  15.147  41.615  12.333
96843W        W69103  35.463  10.415   1.390
96844W        W69104  24.621  31.214   2.427
96845W        W69105  26.199  23.150  13.841
96846W        W69106   1.804   6.266   2.338
96847W        W69107   1.437  32.438   4.868
96848W        W69108   5.763  32.974  10.714
96849W        W69109  39.570  40.576  13.408
96850W        W69110   5.180  35.395  12.567
96851W        W69111   3.329  21.479  10.667
96852W        W69112  37.039   4.328   1.498
96853W        W69113  41.544  40.515  12.303
96854W        W69114   7.234  29.487   4.885
96855W        W69115  26.503  40.367   0.369
96856W        W69116   8.526  13.469  11.405
96857W        W69117  31.122   3.345  12.891
96858W        W69118  36.966   0.888  13.267
96859W        W69119  31.112   8.671  10.536
96860W        W69120   1.282  24.681   4.938
96861W        W69121  20.488  39.931   4.781
96862W        W69122  19.784  17.320   2.755
96863W        W69123  27.064   1.806  13.894
96864W        W69124  27.070  15.640  14.099
96865W        W69125  37.854  44.057   4.767
96866W        W69126  42.830  42.694  13.848
96867W        W69127  18.533  28.404  12.534
96868W        W69128  36.234  38.992  10.284
96869W        W69129   8.946   6.316   0.822
96870W        W69130  32.173  41.779   0.340
96871W        W69131  12.670  43.264  13.962
96872W        W69132  14.077  17.256   2.461
96873W        W69133  38.358  33.493  12.044
96874W        W69134  42.187  38.923   0.528
96875W        W69135  44.901  33.952  14.046
96876W        W69136  29.438   9.942   3.195
96877W        W69137   5.338  36.742  13.941
96878W        W69138  35.452  26.430  14.952
96879W        W69139  25.401  44.512  10.045
96880W        W69140  39.883  24.457   3.172
96881W        W69141  28.680  37.641  13.336
96882W        W69142  18.738  31.739  13.879
96883W        W69143  29.696   7.567   3.845
96884W        W69144   8.882  38.120   1.925
96885W        W69145  22.000  16.759   4.525
96886W        W69146  10.635   2.650   4.666
96887W        W69147  23.184  38.752   3.648
96888W        W69148   7.155  15.169  11.938
96889W        W69149   9.634  30.700  11.482
96890W        W69150  43.315  42.241  14.578
96891W        W69151  39.117  43.963   4.332
96892W        W69152  30.144  30.166   0.482
96893W        W69153   1.002   2.689   4.108
96894W        W69154  10.778  19.012   2.183
96895W        W69155  27.419  34.789   2.142
96896W        W69156  17.418   3.907   5.137
96897W        W69157  33.949  29.441  10.449
96898W        W69158  32.397  10.184  13.823
96899W        W69159   1.924   3.220  12.076
96900W        W69160  41.082   5.788   2.319
96901W        W69161  24.651  34.567   3.103
96902W        W69162  41.579  23.627   0.593
96903W        W69163  25.614  19.871   1.610
96904W        W69164   4.858  18.390   3.694
96905W        W69165  39.542  30.952  12.785
96906W        W69166  35.499   7.440  13.352
96907W        W69167  15.178   7.171  11.533
96908W        W69168  32.206  29.007   3.767
96909W        W69169  41.064  30.729   0.792
96910W        W69170  16.112  31.015   1.546
96911W        W69171  34.399  27.207  14.045
96912W        W69172   6.656   8.207   1.293
96913W        W69173   2.426  10.604  12.548
96914W        W69174  13.727  24.971   0.441
96915W        W69175  12.064   6.657  14.482
96916W        W69176  35.564   2.015   0.948
96917W        W69177  41.830  23.456   4.203
96918W        W69178  32.851  37.760  11.706
96919W        W69179  16.542   9.316   2.298
96920W        W69180  31.623  13.352   2.113
96921W        W69181   0.954  37.442   3.160
96922W        W69182  40.833   0.592  12.368
96923W        W69183  18.164  11.340   2.680
96924W        W69184  12.151  14.298   3.609
96925W        W69185   5.729  38.159   0.785
96926W        W69186  39.408  11.165  11.030
96927W        W69187   1.698  31.387   4.942
96928W        W69188   4.675  34.064  10.641
96929W        W69189   3.771  13.750  14.904
96930W        W69190   5.226   3.714   1.850
96931W        W69191  27.562  25.099  12.894
96932W        W69192  21.644  14.129   3.425
96933W        W69193  13.325  42.048   2.231
96934W        W69194  28.013  12.590  12.444
96935W        W69195  18.687   8.137  12.056
96936W        W69196  39.751  32.202   2.325
96937W        W69197  13.220  25.143  13.102
96938W        W69198  19.573  38.866  14.291
96939W        W69199  34.534  14.792   2.890
96940W        W69200  27.856   8.866  11.422
96941W        W69201  41.960  28.994  11.790
96942W        W69202  11.696  33.942  11.460
96943W        W69203  37.757   2.213   2.724
96944W        W69204  17.051   2.476   1.752
96945W        W69205  27.399  31.517  12.454
96946W        W69206  20.834  27.050  12.781
96947W        W69207  30.358  24.711  11.173
96948W        W69208  25.566  43.460  14.854
96949W        W69209  34.522  36.589   3.613
96950W        W69210  27.695   4.131  14.937
96951W        W69211  37.898   5.307   2.175
96952W        W69212   9.850   2.465   3.751
96953W        W69213  29.884  20.512   1.229
96954W        W69214  42.555  30.659  12.216
96955W        W69215  22.277  12.645  12.857
96956W        W69216   9.770  33.395   1.326
96957W        W69217  38.284  23.971   0.285
96958W        W69218   7.719  11.565  10.739
96959W        W69219  25.038  17.072  10.724
96960W        W69220  29.951  30.437  12.432
96961W        W69221  18.284  16.595  11.173
96962W        W69222  23.671  15.105  14.829
96963W        W69223  17.106  10.115   4.642
96964W        W69224  31.049  38.992  13.043
96965W        W69225  39.991  15.274  11.631
96966W        W69226  27.173  33.998   3.789
96967W        W69227  39.340  31.130  10.429
96968W        W69228  20.778  10.638   4.197
96969W        W69229  31.100  26.232  10.621
96970W        W69230  12.758  17.740  12.594
96971W        W69231  44.532   5.398  13.788
96972W        W69232  22.281  13.550   3.231
96973W        W69233  21.738   1.854  10.653
96974W        W69234  26.549  26.550   1.052
96975W        W69235   2.498  20.317  10.675
96976W        W69236   0.575  42.085  14.953
96977W        W69237  39.778  42.310  11.982
96978W        W69238  29.047   0.860  14.426
96979W        W69239   7.447  20.575   3.128
96980W        W69240   0.223  15.623  12.108
96981W        W69241  18.715  26.263   2.722
96982W        W69242  12.257  36.068  12.073
96983W        W69243  29.199  24.760  14.967
96984W        W69244  34.661  29.614   3.720
96985W        W69245  44.847   1.727   4.565
96986W        W69246  19.711  25.285   0.041
96987W        W69247  28.244   2.315  11.688
96988W        W69248  17.111  15.533   4.222
96989W        W69249  16.351  37.946  13.869
96990W        W69250  39.029  38.348   0.784
96991W        W69251  12.200  33.204  12.570
96992W        W69252  15.629  33.501  12.360
96993W        W69253  12.080  19.220  10.779
96994W        W69254   3.922  27.512   3.351
96995W        W69255  24.550   1.725  10.995
96996W        W69256  25.657  29.066   4.426
96997W        W69257  33.192  23.306   0.855
96998W        W69258  26.982  44.382   4.143
96999W        W69259  42.408  42.705   0.404
97000W        W69260  23.746  12.595  10.412
97001W        W69261  10.051   6.835   3.354
97002W        W69262  41.086  28.229  13.631
97003W        W69263  20.223  21.453   3.780
97004W        W69264  21.113  30.520   2.693
97005W        W69265  29.131  21.764   1.749
97006W        W69266  11.138  44.824   3.663
97007W        W69267  37.520   4.926   2.101
97008W        W69268   2.947  34.059   4.188
97009W        W69269  32.944  31.761   2.185
97010W        W69270   7.475  32.900  13.340
97011W        W69271  23.206   4.750  13.440
97012W        W69272  19.530  15.639  11.544
97013W        W69273   2.182  18.618  12.013
97014W        W69274  37.738  11.622  14.794
97015W        W69275   6.868   9.289  11.089
97016W        W69276  19.142  15.613  11.219
97017W        W69277  28.507   4.316  11.799
97018W        W69278  35.820  20.641  12.334
97019W        W69279  30.850   9.500   5.037
97020W        W69280   3.788   8.504   2.696
97021W        W69281   8.429   6.877   1.435
97022W        W69282  41.550  26.636  14.222
97023W        W69283   0.686  44.822  10.347
97024W        W69284  16.110  25.056   4.702
97025W        W69285  14.706  25.001   3.316
97026W        W69286  14.307  37.022  11.829
97027W        W69287  14.523  28.571   1.239
97028W        W69288  30.466   5.093  14.752
97029W        W69289  14.766  38.113  13.081
97030W        W69290  16.973  21.694   0.338
97031W        W69291   3.001  41.507   3.289
97032W        W69292  33.257  38.526  13.182
97033W        W69293  28.891   6.742   3.684
97034W        W69294  40.180  20.216   1.285
97035W        W69295  41.827  11.032   4.105
97036W        W69296   5.452  20.675   3.505
97037W        W69297  36.082  15.179   3.631
97038W        W69298  22.333  35.910  12.868
97039W        W69299  42.830  37.373   3.769
97040W        W69300  18.082  11.251  13.334
97041W        W69301  29.446  41.392  13.592
97042W        W69302  10.699  34.671   2.168
97043W        W69303  14.345  23.773  12.916
97044W        W69304  30.744   9.694   3.293
97045W        W69305   8.249   0.255   3.483
97046W        W69306  18.684  43.417   3.521
97047W        W69307  19.581  19.630  13.388
97048W        W69308  10.048  22.749  12.299
97049W        W69309  36.390  13.621   2.312
97050W        W69310  35.565   9.202   1.029
97051W        W69311  40.967  27.095   1.813
97052W        W69312  24.023  16.317   3.744
97053W        W69313   1.721   8.214  11.401
97054W        W69314  42.896   8.180  10.738
97055W        W69315   8.382  41.027   0.174
97056W        W69316   2.693  18.404   4.782
97057W        W69317   8.902  14.743   3.669
97058W        W69318  19.826   9.663   2.323
97059W        W69319  14.999  22.181  12.712
97060W        W69320  29.091  18.536   3.894
97061W        W69321  44.015  35.411  12.940
97062W        W69322  25.617   1.612   3.059
97063W        W69323   1.461  33.815   0.745
97064W        W69324  44.293  24.488   3.365
97065W        W69325  21.550  39.070   2.985
97066W        W69326   3.890  30.674   2.797
97067W        W69327  13.163  31.848  13.308
97068W        W69328   7.512  14.587   3.806
97069W        W69329   2.984   2.442   5.057
97070W        W69330  44.087  16.725  14.549
97071W        W69331  25.097  10.161  14.586
97072W        W69332   2.798  24.023   1.381
97073W        W69333  30.082  36.540  14.468
97074W        W69334  17.410   8.347  11.029
97075W        W69335  23.720   5.860  12.135
97076W        W69336  17.304  37.567  12.985
97077W        W69337  20.269  15.130   1.809
97078W        W69338  11.636  33.020  13.418
97079W        W69339  36.026  14.830   1.280
97080W        W69340  42.534  25.356  13.304
97081W        W69341   9.513  16.152   1.676
97082W        W69342  30.664  32.789  11.870
97083W        W69343  13.604  44.390   1.339
97084W        W69344  28.481  12.811  10.617
97085W        W69345  39.761   8.956   4.536
97086W        W69346  30.597  20.256   1.785
97087W        W69347  13.366  14.665   2.355
97088W        W69348  27.495   7.383  14.430
97089W        W69349  14.601  22.089  13.414
97090W        W69350  22.761   8.764   5.116
97091W        W69351  12.811  35.702   2.665
97092W        W69352  27.685  13.349  14.832
97093W        W69353  27.614  17.706  10.756
97094W        W69354  21.978   4.705   0.511
97095W        W69355   4.845  21.595  12.547
97096W        W69356  19.632  22.167   4.299
97097W        W69357  31.149  28.453  12.444
97098W        W69358  13.578  15.160  12.947
97099W        W69359  17.007  39.459  12.503
97100W        W69360  27.497  29.233  12.347
97101W        W69361   7.948  38.333   0.501
97102W        W69362  41.487  19.179   0.753
97103W        W69363   7.511   3.381  13.022
97104W        W69364   6.777  18.738   2.452
97105W        W69365  28.169   8.321   0.781
97106W        W69366  10.013  37.368   2.754
97107W        W69367  34.665  37.275   2.572
97108W        W69368  26.770   1.949  10.189
97109W        W69369   2.358  25.524   2.157
97110W        W69370  23.730  35.643   0.799
97111W        W69371  42.753   9.151   3.640
97112W        W69372  13.133  14.422   1.816
97113W        W69373  11.322  31.492   0.838
97114W        W69374  13.625  18.585   1.472
97115W        W69375   8.787   2.811   3.171
97116W        W69376  19.793  42.978  14.087
97117W        W69377  13.371   0.811  12.571
97118W        W69378  35.483   5.245  13.521
97119W        W69379  24.532  24.064  11.180
97120W        W69380  31.192  14.711   0.237
97121W        W69381  39.864  27.096  12.967
97122W        W69382  33.559  31.850  12.068
97123W        W69383  29.888   2.322   3.082
97124W        W69384  35.047  36.788   1.741
97125W        W69385   6.399   0.726  14.876
97126W        W69386   8.746  26.749   0.708
97127W        W69387   7.937  41.927  12.449
97128W        W69388   4.177  15.515  12.972
97129W        W69389  12.003  33.454   3.232
97130W        W69390   6.995   0.706   1.441
97131W        W69391  37.324  36.566   3.833
97132W        W69392  44.784  42.474   1.557
97133W        W69393  10.177  28.905   1.639
97134W        W69394  16.145  23.635  10.719
97135W        W69395  27.619  14.097   4.688
97136W        W69396  41.445  30.123  11.434
97137W        W69397  27.265  18.408   4.327
97138W        W69398   2.249  28.407  11.615
97139W        W69399  21.672  24.120   0.859
97140W        W69400  37.825  35.974   3.352
97141W        W69401  42.397  32.387   2.926
97142W        W69402  38.212  36.495  11.340
97143W        W69403  12.612  20.577  12.522
97144W        W69404  38.657  10.280   0.861
97145W        W69405  40.390  16.556  11.488
97146W        W69406  44.350  25.524   4.657
97147W        W69407  12.157  41.876   3.809
97148W        W69408   7.704  20.650  14.191
97149W        W69409  29.316  10.378   4.171
97150W        W69410  21.169  32.235  13.513
97151W        W69411   7.399  21.771   4.236
97152W        W69412  24.096   0.528  11.209
97153W        W69413  22.640   5.849   0.257
97154W        W69414  28.560  15.029  10.737
97155W        W69415  11.769  38.547   3.264
97156W        W69416  42.251  42.199   0.395
97157W        W69417  27.909  21.135  12.099
97158W        W69418  17.029  37.914  13.284
97159W        W69419  34.123   4.875  10.522
97160W        W69420  25.696  33.222   0.998
97161W        W69421  17.770  18.120   1.725
97162W        W69422  11.281  11.428   1.430
97163W        W69423  23.609  42.256  14.009
97164W        W69424  10.339   5.801  12.678
97165W        W69425  37.914  35.008   3.240
97166W        W69426  30.942  18.637  13.560
97167W        W69427  22.584  22.004   4.569
97168W        W69428  14.551  44.964   4.325
97169W        W69429  12.655  24.487  12.083
97170W        W69430   1.909   5.281   0.185
97171W        W69431  13.178  19.590  12.079
97172W        W69432  12.085  44.978   4.777
97173W        W69433  42.012  34.429   2.845
97174W        W69434  10.333   8.270  13.851
97175W        W69435  37.075  23.579  14.445
97176W        W69436  12.036  19.655  13.576
97177W        W69437   9.311  34.161  12.050
97178W        W69438  26.608  19.778  12.152
97179W        W69439  25.419   8.347   1.427
97180W        W69440  32.063  35.626   0.361
97181W        W69441   2.181  25.485  11.839
97182W        W69442   2.178  35.438   0.827
97183W        W69443   2.897  25.476  11.071
97184W        W69444  14.898   1.763  11.739
97185W        W69445  29.088  30.199  14.290
97186W        W69446  32.974  32.652   2.799
97187W        W69447  12.252   3.210   0.952
97188W        W69448  35.996  37.863  11.467
97189W        W69449  41.790  10.255   2.363
97190W        W69450   1.875  31.289  10.962
97191W        W69451  25.476  11.457   4.315
97192W        W69452  27.105  20.613   3.286
97193W        W69453  18.067  11.070  12.415
97194W        W69454   6.799  31.430  14.237
97195W        W69455   1.900   8.326   2.403
97196W        W69456  10.760  43.624  12.534
97197W        W69457  37.362   2.439   3.931
97198W        W69458   9.618  30.407  13.144
97199W        W69459  16.378   3.925  12.704
97200W        W69460  30.573   4.430   3.649
97201W        W69461   2.225  30.395   0.958
97202W        W69462   1.407  22.242  10.667
97203W        W69463  18.511  39.843   2.164
97204W        W69464  22.989  36.470   1.522
97205W        W69465  17.115  31.436  11.859
97206W        W69466  31.930   7.841  13.886
97207W        W69467  43.478  12.597  10.532
97208W        W69468  16.803   7.133   3.278
97209W        W69469  15.586  34.201  14.922
97210W        W69470  10.290  34.072   0.935
97211W        W69471  43.063   4.704  14.479
97212W        W69472   9.380  44.421   2.823
97213W        W69473   6.851   7.705   4.591
97214W        W69474  25.493  21.270  14.052
97215W        W69475   3.032  36.497  10.413
97216W        W69476   2.473  18.203  12.025
97217W        W69477   7.676  13.952   1.781
97218W        W69478  33.190  25.423  13.409
97219W        W69479  17.216  43.010   9.988
97220W        W69480  25.720  42.929   2.472
97221W        W69481  35.004  31.216   1.066
97222W        W69482   7.561  13.882  10.187
97223W        W69483  38.163  27.726   0.869
97224W        W69484   9.144   4.871  14.543
97225W        W69485  20.448  29.126  11.583
97226W        W69486  43.759  12.163   1.241
97227W        W69487  25.644  13.662  11.354
97228W        W69488  38.971  16.758   1.789
97229W        W69489  16.681  43.508  10.582
97230W        W69490   4.198  22.551  13.338
97231W        W69491  17.627  16.322  10.899
97232W        W69492   6.771  31.173   1.483
97233W        W69493  25.142  43.414  12.055
97234W        W69494  23.075  15.644   0.479
97235W        W69495  26.170   7.269  14.689
97236W        W69496  37.562   6.765   2.400
97237W        W69497  39.765  26.523   0.021
97238W        W69498   4.875  34.994   3.742
97239W        W69499  43.328  23.966   3.665
97240W        W69500   8.354  40.667  13.495
97241W        W69501  11.580  34.457   1.660
97242W        W69502  36.979   2.689  13.970
97243W        W69503  10.982  40.348  13.010
97244W        W69504  31.591  30.900  11.558
97245W        W69505  40.888  30.727  13.007
97246W        W69506  10.887   2.646  13.305
97247W        W69507   3.000  27.557  11.120
97248W        W69508   3.934  39.303   2.741
97249W        W69509  27.979  17.670  10.398
97250W        W69510   6.364  19.862  11.482
97251W        W69511   6.704  30.378  14.255
97252W        W69512   0.423   2.363   3.620
97253W        W69513   7.374  11.573   1.866
97254W        W69514   9.454  11.860  11.994
97255W        W69515  31.129  23.093   4.678
97256W        W69516  22.591   6.940   1.374
97257W        W69517  18.434  17.259  12.278
97258W        W69518  32.646  24.410  11.592
97259W        W69519  42.803  34.010   1.203
97260W        W69520  42.538  41.830  13.874
97261W        W69521  33.901  22.062   3.454
97262W        W69522  31.534  42.116   2.242
97263W        W69523  36.937  32.052   3.129
97264W        W69524  30.865  43.532  11.169
97265W        W69525  34.116  19.557   3.598
97266W        W69526  17.633  11.415   0.449
97267W        W69527  21.275  25.867  14.187
97268W        W69528  15.650  41.557  14.904
97269W        W69529   6.903   2.363  14.626
97270W        W69530  23.716   4.398   3.771
97271W        W69531  13.832  10.695  10.747
97272W        W69532  26.606  30.123   0.479
97273W        W69533  25.049   8.760  14.299
97274W        W69534  25.197  41.796   4.479
97275W        W69535   2.685  25.205   3.792
97276W        W69536   8.245  18.661  10.674
97277W        W69537  33.903  34.129   1.910
97278W        W69538  39.750  39.428  13.680
97279W        W69539  15.185  12.737   2.881
97280W        W69540  29.557  37.363   3.729
97281W        W69541   9.445  20.422   1.403
97282W        W69542  37.897   6.734   1.973
97283W        W69543   2.133  39.848  11.199
97284W        W69544  23.270  31.988  12.851
97285W        W69545  34.289  44.866  13.823
97286W        W69546  41.302   5.863   1.856
97287W        W69547  43.416  27.532   4.038
97288W        W69548   1.324   9.807  14.723
97289W        W69549   4.291   0.509   0.956
97290W        W69550   7.158  16.535   0.298
97291W        W69551  41.350  37.549   0.801
97292W        W69552  19.550  11.662  10.652
97293W        W69553  24.609  28.401  10.305
97294W        W69554  24.358  18.206   2.345
97295W        W69555  10.413  27.878   2.045
97296W        W69556  21.789  10.337  11.801
97297W        W69557  26.251  15.040  11.306
97298W        W69558  12.803  40.923  14.009
97299W        W69559  39.011  35.928  13.912
97300W        W69560  43.440  21.548  11.968
97301W        W69561  23.632  39.608   9.987
97302W        W69562  25.004  33.628  10.424
97303W        W69563  27.157  25.528   3.309
97304W        W69564  34.451  14.737  11.443
97305W        W69565  15.367  25.242  13.390
97306W        W69566  42.995  12.761   5.007
97307W        W69567  43.751  22.487   2.336
97308W        W69568  14.093  16.099   0.618
97309W        W69569  37.396  32.514   1.198
97310W        W69570   4.863  42.112  13.011
97311W        W69571  38.787   2.806  12.448
97312W        W69572  38.378  30.042   3.273
97313W        W69573  11.448  42.763  14.650
97314W        W69574   9.889  37.144  10.529
97315W        W69575  40.897  22.742  10.583
97316W        W69576  28.922  37.536   1.905
97317W        W69577  33.758  32.363   2.398
97318W        W69578  10.592  26.156  13.032
97319W        W69579   7.125  15.756   1.491
97320W        W69580  34.099   7.844   3.165
97321W        W69581  25.576   4.039   3.161
97322W        W69582  10.099  30.025  12.592
97323W        W69583  25.494  38.020   3.796
97324W        W69584  39.199  40.244   3.389
97325W        W69585  42.785   9.546  13.501
97326W        W69586   0.315   5.370  13.326
97327W        W69587  23.206  24.596  12.958
97328W        W69588  27.354   4.276  12.052
97329W        W69589  21.929  28.535   4.079
97330W        W69590  24.550  11.152   0.979
97331W        W69591  26.685  23.795  12.499
97332W        W69592   2.059  43.964   4.823
97333W        W69593  22.611   6.410   1.436
97334W        W69594  24.548  43.859  10.854
97335W        W69595  12.207  34.965  12.671
97336W        W69596  11.314  15.762  12.977
97337W        W69597   5.534  30.548   5.171
97338W        W69598   0.668  33.847  11.616
97339W        W69599  21.180  24.897   0.912
97340W        W69600   9.192  29.473  12.818
97341W        W69601  38.820  36.485  13.910
97342W        W69602  41.854  29.607  10.715
97343W        W69603   1.400  27.767  13.908
97344W        W69604   4.827  38.944  10.465
97345W        W69605  29.101  25.542  14.553
97346W        W69606  38.955  24.785  13.875
97347W        W69607   5.276  13.129  11.501
97348W        W69608  20.707  27.309   1.435
97349W        W69609   6.707  21.652  11.361
97350W        W69610  42.775  22.437  14.241
97351W        W69611   1.184   8.249  12.305
97352W        W69612  23.251  43.443  14.018
97353W        W69613  20.301   1.503  14.339
97354W        W69614  33.403  12.121  10.595
97355W        W69615  17.120  40.515   0.217
97356W        W69616  27.169   8.960   1.722
97357W        W69617   4.122  39.501  12.436
97358W        W69618  25.970  40.432  11.970
97359W        W69619  36.803  26.525  12.158
97360W        W69620  26.674  38.394  12.597
97361W        W69621  18.209  17.972   2.966
97362W        W69622  10.383  15.520  11.065
97363W        W69623  13.792  43.003  14.790
97364W        W69624  20.285  39.518  11.229
97365W        W69625   9.169  41.093   2.577
97366W        W69626  18.057  44.908  12.102
97367W        W69627  29.514   3.577  11.454
97368W        W69628  37.338  42.843  13.021
97369W        W69629   1.206  22.491   0.020
97370W        W69630   3.886  31.353   3.253
97371W        W69631  35.334  27.845   1.197
97372W        W69632  38.402   4.283   3.540
97373W        W69633  17.149  35.990  14.096
97374W        W69634  33.395  25.746  14.016
97375W        W69635  30.925  25.223   4.708
97376W        W69636  44.323   0.267  11.887
97377W        W69637  43.418  34.194  13.987
97378W        W69638  17.642  43.456  11.498
97379W        W69639  12.252  11.696   0.802
97380W        W69640   2.690   7.531  13.569
97381W        W69641  20.302  24.990   4.132
97382W        W69642  21.961  39.968  14.748
97383W        W69643   8.401  24.860   3.164
97384W        W69644  12.710  32.687   2.774
97385W        W69645   6.305   3.988  11.224
97386W        W69646  44.881  36.375  12.974
97387W        W69647  24.516  24.509   2.282
97388W        W69648  20.634  23.462   4.599
97389W        W69649  41.729  14.631  13.831
97390W        W69650  35.544  22.645  11.591
97391W        W69651  32.977  36.386   2.329
97392W        W69652  17.926   8.467  11.039
97393W        W69653  31.888  11.408   3.936
97394W        W69654  23.655   3.032  11.384
97395W        W69655   8.681   7.016   4.453
97396W        W69656   4.980  27.146   3.257
97397W        W69657   7.985  37.198  11.965
97398W        W69658  28.214  39.420   2.803
97399W        W69659  15.306  15.121   3.388
97400W        W69660  13.297  41.580  13.810
97401W        W69661   4.797  37.938  10.765
97402W        W69662  12.282  24.237   2.959
97403W        W69663  29.933  11.720   4.675
97404W        W69664  32.976   9.820   4.153
97405W        W69665   3.141  22.501  10.623
97406W        W69666  10.292  14.291  14.476
97407W        W69667  39.798  40.390   0.249
97408W        W69668  13.619  13.755  13.359
97409W        W69669  30.784  10.057  12.850
97410W        W69670  38.909  34.597   0.378
97411W        W69671   2.248   2.840   1.264
97412W        W69672  14.229  24.453  13.916
97413W        W69673  26.252  17.639   3.356
97414W        W69674  19.619   2.801   1.432
97415W        W69675   6.759  41.040   0.893
97416W        W69676  22.596  22.524  10.083
97417W        W69677  26.953   9.192   9.939
97418W        W69678  13.263  41.570  13.290
97419W        W69679  39.249  11.798   4.954
97420W        W69680   3.790  21.650  13.682
97421W        W69681  21.088  30.015   2.632
97422W        W69682   7.240  24.490   2.480
97423W        W69683  42.802  25.531   4.742
97424W        W69684  36.902   6.820  11.390
97425W        W69685   5.826  44.912   1.892
97426W        W69686  26.535   0.048  14.184
97427W        W69687  27.102  37.320  14.239
97428W        W69688  35.370  29.927  12.068
97429W        W69689  31.048  29.127  11.083
97430W        W69690  19.086  42.604   4.700
97431W        W69691  40.869  12.725   1.863
97432W        W69692  30.408   1.067   0.476
97433W        W69693   8.377  31.743   1.212
97434W        W69694  31.100   9.909   1.902
97435W        W69695  44.365  20.199   2.596
97436W        W69696   0.460  39.032  14.545
97437W        W69697  12.275  26.915  13.996
97438W        W69698  18.493   0.431   0.300
97439W        W69699   9.584  36.285  10.728
97440W        W69700   4.759  30.855   1.262
97441W        W69701   6.877  13.892   1.950
97442W        W69702  38.172  14.079  14.270
97443W        W69703  18.211  32.935  14.510
97444W        W69704   3.672  20.556   3.656
97445W        W69705  16.191  42.454  14.505
97446W        W69706   7.478  11.649   3.668
97447W        W69707  42.048  20.006   4.090
97448W        W69708  44.224  40.300  10.436
97449W        W69709  42.764  18.875  13.539
97450W        W69710  15.225  27.794   3.269
97451W        W69711  38.161   2.919  11.446
97452W        W69712  42.275  18.751   1.734
97453W        W69713  36.548  31.129  14.825
97454W        W69714   2.436  16.785  12.934
97455W        W69715  13.243  21.260   2.178
97456W        W69716  33.514  33.605   0.426
97457W        W69717  16.414  24.257   4.828
97458W        W69718  23.088  28.069  12.929
97459W        W69719   4.788  23.975   0.828
97460W        W69720  16.818  36.868   2.422
97461W        W69721  16.010  26.618   4.418
97462W        W69722  32.096  26.478  12.792
97463W        W69723  25.707  44.334   1.842
97464W        W69724  15.320  11.676   2.675
97465W        W69725  33.418   9.394  11.794
97466W        W69726  21.525  23.664  14.552
97467W        W69727   3.553  33.935  14.319
97468W        W69728   3.880   0.149  11.238
97469W        W69729  16.871  31.094   1.367
97470W        W69730  10.783  23.413   2.023
97471W        W69731  20.085   0.491   1.142
97472W        W69732  32.114   0.452   4.089
97473W        W69733  40.089  13.950   0.951
97474W        W69734  15.642  24.538   0.210
97475W        W69735  32.018  25.000  14.326
97476W        W69736  12.588  41.757  12.119
97477W        W69737  38.306   5.027  11.094
97478W        W69738  29.257  39.324  12.654
97479W        W69739  32.612  43.395  11.814
97480W        W69740  42.823  15.599  12.541
97481W        W69741  22.528  37.074   4.131
97482W        W69742  28.936  38.983   2.240
97483W        W69743   5.440  14.120   1.037
97484W        W69744  37.928   4.836   2.411
97485W        W69745  10.581  12.743  12.883
97486W        W69746   3.760   6.256  10.530
97487W        W69747  40.250  12.159  13.782
97488W        W69748  18.830  31.954   4.342
97489W        W69749  24.783  24.981  12.477
97490W        W69750  22.881  30.700   2.040
97491W        W69751   1.698  19.478   4.115
97492W        W69752  10.636  41.067  12.068
97493W        W69753   0.383   4.743   3.048
97494W        W69754  40.306  34.349   3.113
97495W        W69755  16.980  21.792   2.822
97496W        W69756  11.720   3.330   3.889
97497W        W69757  29.733  24.485  14.296
97498W        W69758   1.832  31.099   2.476
97499W        W69759  21.184   3.954   4.585
97500W        W69760  36.967   5.182   3.771
97501W        W69761  35.047  11.735   0.114
97502W        W69762  30.521   3.737   4.160
97503W        W69763  24.400  21.181   3.745
97504W        W69764   6.237  16.132   2.094
97505W        W69765  20.100   4.852  13.713
97506W        W69766  42.417  13.127  14.409
97507W        W69767  17.227  38.543  11.972
97508W        W69768  37.598  16.689  10.246
97509W        W69769   5.939  13.267   3.350
97510W        W69770  25.636   6.189   1.233
97511W        W69771  28.977  24.497   0.345
97512W        W69772  27.707   8.250   1.852
97513W        W69773  18.363  33.343  13.549
97514W        W69774  19.149  38.864  12.013
97515W        W69775  33.014  37.210   1.368
97516W        W69776  37.878  16.340  14.317
97517W        W69777   3.329  36.296  12.150
97518W        W69778   3.738  20.257  12.878
97519W        W69779   2.403  39.471  10.445
97520W        W69780  32.448  17.586   4.097
97521W        W69781  24.155  40.495  11.041
97522W        W69782  29.070  14.718  14.919
97523W        W69783  29.897   3.932   1.242
97524W        W69784  36.442  40.665  13.062
97525W        W69785   5.348  19.130  11.128
97526W        W69786  28.210  40.457  14.417
97527W        W69787  24.931  15.068  13.821
97528W        W69788   0.429  37.946   0.619
97529W        W69789  16.174   5.003  11.363
97530W        W69790  12.886   6.911   4.144
97531W        W69791  32.158  32.358   1.898
97532W        W69792  13.316   9.509   2.279
97533W        W69793   0.584   0.442   2.778
97534W        W69794  14.406  10.668  13.316
97535W        W69795   4.013  33.616   3.007
97536W        W69796   5.301  12.869   4.578
97537W        W69797   7.956   8.754   2.181
97538W        W69798  25.825  41.525   1.923
97539W        W69799  34.403  34.974  12.898
97540W        W69800  19.735  23.076   1.665
97541W        W69801   4.121  33.005  11.209
97542W        W69802  18.650   6.866   1.922
97543W        W69803  35.479  14.739   4.972
97544W        W69804  36.416  29.605  13.503
97545W        W69805   2.251  26.598   4.243
97546W        W69806  13.069  31.861  10.412
97547W        W69807   3.719   5.666  10.256
97548W        W69808  37.003  27.430  12.601
97549W        W69809  33.701   5.984   5.052
97550W        W69810  27.861  25.000   0.751
97551W        W69811  44.686   3.831  11.631
97552W        W69812  36.355  12.742  12.563
97553W        W69813  11.382  29.165   5.353
97554W        W69814  11.153  22.506   4.824
97555W        W69815  10.377  29.993  11.182
97556W        W69816  42.890  31.628   1.806
97557W        W69817  12.858  19.252  14.943
97558W        W69818  44.123   6.232   0.943
97559W        W69819  17.646  22.142   0.787
97560W        W69820  32.920   8.303  10.488
97561W        W69821  26.922  23.759  14.835
97562W        W69822   8.837   1.714  11.806
97563W        W69823  15.101  16.832  13.956
97564W        W69824  11.770  27.977  11.726
97565W        W69825  34.117   2.842  14.269
97566W        W69826  43.546  36.350  11.710
97567W        W69827  27.228  26.062  12.208
97568W        W69828   0.207  19.975  14.854
97569W        W69829   6.811  29.685  11.981
97570W        W69830  15.170  24.022   4.640
97571W        W69831  30.266  24.170   5.383
97572W        W69832  43.093  30.065   4.100
97573W        W69833  37.341   5.887  12.898
97574W        W69834  13.710  12.623  11.985
97575W        W69835  32.340  29.985   2.851
97576W        W69836  26.729  19.327  13.103
97577W        W69837  14.111  41.071  10.741
97578W        W69838  11.100  38.322  12.625
97579W        W69839   9.195  42.566   0.969
97580W        W69840  39.247  32.820  10.285
97581W        W69841  37.553  16.079  13.396
97582W        W69842  21.795  15.801  10.522
97583W        W69843  32.150  23.056  10.648
97584W        W69844  19.684  38.544  10.862
97585W        W69845  21.003  26.190   2.816
97586W        W69846  24.443   0.733   0.358
97587W        W69847   6.267  29.851  14.813
97588W        W69848  31.776  21.611   4.606
97589W        W69849   3.935  36.225   3.526
97590W        W69850  17.000  38.005   4.218
97591W        W69851  37.613   5.258  14.741
97592W        W69852  32.084   1.593   4.839
97593W        W69853   8.316   8.172   3.198
97594W        W69854   0.256  23.287  11.924
97595W        W69855   6.633  27.479  10.474
97596W        W69856  16.297  30.928   4.534
97597W        W69857  28.346  10.346   4.461
97598W        W69858   0.919   0.783   0.184
97599W        W69859  11.697  35.403   3.853
97600W        W69860   5.696  30.114  13.972
97601W        W69861  15.773  11.142   0.527
97602W        W69862  20.767  23.724   4.169
97603W        W69863   9.711  11.672  12.465
97604W        W69864  28.629  39.965  13.325
97605W        W69865  25.593  12.270   1.036
97606W        W69866  34.516   4.515  13.028
97607W        W69867  42.568  31.137  11.979
97608W        W69868  35.196  20.966   0.823
97609W        W69869  10.273   6.488  14.287
97610W        W69870  44.029  18.879  13.448
97611W        W69871  15.091  18.802   4.024
97612W        W69872  16.278  21.358   2.724
97613W        W69873   5.647  19.036   1.680
97614W        W69874  37.800  36.794   3.086
97615W        W69875  15.203  36.339  13.386
97616W        W69876   4.145  27.266  12.328
97617W        W69877   6.182  43.043  12.315
97618W        W69878   3.562  42.360   3.846
97619W        W69879  28.007   5.820   4.187
97620W        W69880  11.391  42.265  13.504
97621W        W69881  32.459   7.729  12.299
97622W        W69882  34.628  38.562  11.716
97623W        W69883  41.811  44.660  14.315
97624W        W69884  18.153  20.768   4.755
97625W        W69885  20.469   5.349   3.820
97626W        W69886  43.902  17.569   2.218
97627W        W69887  18.894  24.310   1.869
97628W        W69888  32.504  39.444  10.262
97629W        W69889  37.859   3.254   1.846
97630W        W69890  44.864   6.765  11.923
97631W        W69891  36.623  22.569   2.180
97632W        W69892  35.892   5.194   2.377
97633W        W69893  17.336  20.630  12.767
97634W        W69894  41.928  28.350  10.269
97635W        W69895  10.510  15.042   1.878
97636W        W69896   7.909   1.540   3.171
97637W        W69897  18.948  30.540   1.894
97638W        W69898  18.592  17.152  11.793
97639W        W69899  21.187  16.063  10.648
97640W        W69900  22.032  38.012   4.574
97641W        W69901  34.882  21.019   4.590
97642W        W69902  19.179  19.971   2.829
97643W        W69903  30.094  42.393  12.101
97644W        W69904  35.612  43.541  11.343
97645W        W69905  20.325   3.965   3.576
97646W        W69906  35.539  43.368  10.869
97647W        W69907  41.106  27.910   4.799
97648W        W69908  15.772   8.667   4.967
97649W        W69909  13.890   9.470   2.815
97650W        W69910  32.551   6.418   1.676
97651W        W69911   8.993  43.085  13.133
97652W        W69912  32.450  33.874  13.043
97653W        W69913  22.179  22.040   3.396
97654W        W69914  22.064  23.789   3.371
97655W        W69915  24.768  19.828  12.401
97656W        W69916   8.356  38.984   2.281
97657W        W69917  34.961   2.756  12.037
97658W        W69918  31.659  21.682   3.674
97659W        W69919  14.549  40.091  10.723
97660W        W69920   8.695   1.571  14.029
97661W        W69921  10.423  44.969   1.445
97662W        W69922  31.539  44.445   3.193
97663W        W69923   4.627  26.037  12.487
97664W        W69924  31.951  25.148   4.147
97665W        W69925  20.127   4.146   0.289
97666W        W69926  21.160  27.181  10.185
97667W        W69927  29.118   4.306   4.722
97668W        W69928  28.130  18.540   0.502
97669W        W69929  38.851  15.084  11.079
97670W        W69930  31.071  41.449  10.817
97671W        W69931  13.148  41.831  11.614
97672W        W69932   9.384  32.410  14.264
97673W        W69933  44.979  33.064   1.238
97674W        W69934  43.543  39.424  13.958
97675W        W69935  23.045  33.531  13.475
97676W        W69936  13.440  23.439  13.435
97677W        W69937  34.881  31.092   3.765
97678W        W69938  36.675  31.973  11.076
97679W        W69939  42.876  15.791   2.664
97680W        W69940  38.750  19.504   4.126
97681W        W69941  35.168  23.122  13.824
97682W        W69942  43.951  19.083   2.876
97683W        W69943  38.405   7.294   0.450
97684W        W69944  13.573   9.187   0.377
97685W        W69945  26.427  37.616   3.000
97686W        W69946  36.170  39.982   4.830
97687W        W69947  22.504  43.011   3.169
97688W        W69948  40.047  33.897  12.417
97689W        W69949  43.660  42.440  11.589
97690W        W69950  24.043  18.768  14.020
97691W        W69951  11.296  39.777   4.675
97692W        W69952   6.175  33.984   0.714
97693W        W69953   7.940  18.726   0.133
97694W        W69954  35.957  21.012   0.451
97695W        W69955  23.510  14.409   0.776
97696W        W69956  26.084  15.759   3.405
97697W        W69957  25.893  37.276  13.965
97698W        W69958   6.321  29.415  11.988
97699W        W69959  36.601   0.484  12.522
97700W        W69960  19.609  16.544  13.567
97701W        W69961  33.470  42.608   3.724
97702W        W69962  10.125  27.217  11.486
97703W        W69963  17.871  36.099  14.793
97704W        W69964  35.490  17.155  10.736
97705W        W69965  25.586  12.599   0.245
97706W        W69966  37.940  22.398   1.488
97707W        W69967  42.746   7.237   3.746
97708W        W69968  11.093   2.634   1.492
97709W        W69969  41.076  21.967   2.770
97710W        W69970  11.185  35.911   2.184
97711W        W69971  32.359   9.756  14.276
97712W        W69972  38.437  10.855   1.509
97713W        W69973  17.488  34.021   3.108
97714W        W69974  44.321  15.695  14.064
97715W        W69975   0.586  20.572  14.548
97716W        W69976  35.371  39.519   2.339
97717W        W69977  23.622  40.456  13.577
97718W        W69978  20.275  16.592  12.106
97719W        W69979   8.961  40.872   4.425
97720W        W69980  23.146  39.828   1.929
97721W        W69981  26.186   3.319   3.515
97722W        W69982   2.869  32.650  12.946
97723W        W69983  30.523  26.620   1.164
97724W        W69984   4.788  30.152  12.809
97725W        W69985  41.800   5.342  14.250
97726W        W69986   6.944   2.253   3.897
97727W        W69987   0.490  10.554  10.581
97728W        W69988  43.519  34.607   1.874
97729W        W69989  33.298  40.850  11.016
97730W        W69990  28.558  27.469   3.199
97731W        W69991  20.550  36.533   4.680
97732W        W69992  25.394  42.027  14.324
97733W        W69993  24.569  18.043   3.796
97734W        W69994   3.814   3.953  11.508
97735W        W69995  13.400   1.217  14.355
97736W        W69996  22.086  17.569  14.828
97737W        W69997  26.503  40.052  13.296
97738W        W69998  22.161  39.739   4.721
97739W        W69999  43.991  35.508   2.835
97740W        W70000  37.022  38.404  14.508
97741W        W70001  20.036  36.757   1.022
97742W        W70002  35.182   1.094   0.822
97743W        W70003  33.941  31.817   2.305
97744W        W70004   6.351  40.383   0.484
97745W        W70005   2.103  33.029   1.300
97746W        W70006   0.754   4.404   0.962
97747W        W70007  41.341  43.310  11.170
97748W        W70008  24.110  16.866   2.783
97749W        W70009  11.614   7.395  11.558
97750W        W70010  17.277  29.383  13.634
97751W        W70011  27.431  14.084  11.155
97752W        W70012  20.069  24.877  12.151
97753W        W70013  37.821  31.443  13.414
97754W        W70014  35.759  29.208   1.310
97755W        W70015  16.248  34.642   1.417
97756W        W70016  14.830  28.023  10.665
97757W        W70017  30.005  41.821   0.169
97758W        W70018  31.016  43.777   0.333
97759W        W70019  20.299  44.993   0.377
97760W        W70020   9.141  23.482  14.777
97761W        W70021  40.721   7.679   3.801
97762W        W70022   1.713  12.308   1.885
97763W        W70023  41.013  44.962   0.251
97764W        W70024  28.496   5.777   1.186
97765W        W70025  44.876  33.229   0.284
97766W        W70026  35.676  20.132   4.435
97767W        W70027   8.986  21.983  11.113
97768W        W70028  16.835   0.870  11.868
97769W        W70029  42.972  24.132  10.930
97770W        W70030  39.554  27.459   3.723
97771W        W70031  43.889  10.274   0.728
97772W        W70032   0.378  30.981   2.730
97773W        W70033   2.722  13.678   2.210
97774W        W70034  15.993  30.688   3.262
97775W        W70035   9.089  39.627  14.792
97776W        W70036   2.594   5.347  13.561
97777W        W70037  17.336  36.643   2.723
97778W        W70038  41.020  10.714   2.825
97779W        W70039  32.086  33.946   0.756
97780W        W70040   8.730  37.781  10.713
97781W        W70041  23.501  26.932  12.483
97782W        W70042  20.073  17.091   1.069
97783W        W70043  25.690  17.467  11.984
97784W        W70044   3.266  32.553   2.823
97785W        W70045  11.150  34.277   3.381
97786W        W70046   0.432  38.991  10.323
97787W        W70047  15.008   0.055  12.072
97788W        W70048   6.640  13.302  14.785
97789W        W70049  26.676  22.314   3.566
97790W        W70050  26.601   6.304  11.667
97791W        W70051   5.497  14.700   3.837
97792W        W70052  36.552  33.902   1.303
97793W        W70053  44.514  14.325  12.589
97794W        W70054  44.918  10.372  12.899
97795W        W70055  31.644   8.749   3.662
97796W        W70056  33.872  11.317  10.512
97797W        W70057  16.766   8.612   1.836
97798W        W70058   3.613   3.944  11.977
97799W        W70059   1.193  42.745  11.237
97800W        W70060  21.204  13.439   3.622
97801W        W70061  31.092  35.445   2.852
97802W        W70062  35.044   8.942  11.994
97803W        W70063   6.630  22.171   2.231
97804W        W70064  36.893   5.642  12.060
97805W        W70065  40.392   1.117   0.689
97806W        W70066  35.338  18.635   2.442
97807W        W70067   2.453  26.635   0.786
97808W        W70068  13.123  26.738   4.775
97809W        W70069  27.670  44.271   3.748
97810W        W70070  18.567  37.021   4.928
97811W        W70071  43.402  18.098   2.264
97812W        W70072  21.562  40.152   4.220
97813W        W70073  44.890  21.212  10.767
97814W        W70074  33.308   4.830  13.036
97815W        W70075  35.887  14.803  11.484
97816W        W70076  27.736  18.150  10.981
97817W        W70077  44.954   3.644  12.057
97818W        W70078  24.017  43.811  13.407
97819W        W70079  25.202   0.634   5.129
97820W        W70080  37.091  10.113  12.212
97821W        W70081  26.434  41.644  12.524
97822W        W70082   4.126  16.165  13.372
97823W        W70083  35.046  22.228   2.440
97824W        W70084  25.099  14.185  13.380
97825W        W70085  34.585   6.425  13.550
97826W        W70086  20.730  21.665   2.359
97827W        W70087   1.863  19.599   3.638
97828W        W70088  33.679  34.561  10.342
97829W        W70089  37.373  43.787  12.071
97830W        W70090  18.704  42.024   2.410
97831W        W70091  17.022  39.914   1.228
97832W        W70092  43.377  43.540   1.193
97833W        W70093   6.014  13.629   4.571
97834W        W70094   0.788  29.902  13.487
97835W        W70095  28.792  28.096   3.355
97836W        W70096  22.367  42.324  12.544
97837W        W70097  23.016  11.741   1.648
97838W        W70098  19.745  42.986   3.656
97839W        W70099  25.728  32.602  11.104
97840W        W70100  23.259  37.038  12.967
97841W        W70101  36.075  28.384  12.102
97842W        W70102   5.491  34.034   3.346
97843W        W70103  44.375   8.687   0.487
97844W        W70104  22.188  27.462   1.399
97845W        W70105  21.064  38.095  13.851
97846W        W70106  11.726  40.797   1.044
97847W        W70107  23.295  27.575   0.170
97848W        W70108   9.264   4.708  12.240
97849W        W70109  13.209  16.405   3.557
97850W        W70110   1.725  23.745   2.232
97851W        W70111  41.414  14.343   4.543
97852W        W70112  24.772  16.513  14.256
97853W        W70113  14.334  24.759  12.906
97854W        W70114  24.143  38.526  10.899
97855W        W70115  26.121  27.258   4.850
97856W        W70116  11.147   1.074   3.090
97857W        W70117  40.991  33.639   0.816
97858W        W70118  25.421   0.983   1.357
97859W        W70119  20.679  28.643   2.393
97860W        W70120  43.058  19.046   3.208
97861W        W70121  13.648   5.746   3.604
97862W        W70122  19.665  21.281  13.361
97863W        W70123   1.904  21.472  10.619
97864W        W70124  30.345   7.468   1.177
97865W        W70125  41.990   3.872  10.361
97866W        W70126  29.048  26.979   4.176
97867W        W70127   4.688  22.636  13.494
97868W        W70128  44.706  24.641  10.611
97869W        W70129  27.012  39.086  10.232
97870W        W70130  38.445   4.273  11.483
97871W        W70131  44.894   7.919   4.129
97872W        W70132  28.918   3.816   3.366
97873W        W70133   7.747  44.137  13.954
97874W        W70134  35.021   6.702   4.218
97875W        W70135   5.060  10.179  11.698
97876W        W70136   0.551  41.222  12.059
97877W        W70137  37.086   6.800   4.562
97878W        W70138  13.446  37.280   2.196
97879W        W70139   9.289  41.554  11.333
97880W        W70140   3.953  37.468  11.569
97881W        W70141   8.891  35.128   0.899
97882W        W70142  27.683  23.559   1.892
97883W        W70143  13.137   0.038  13.090
97884W        W70144  31.063  23.465   2.239
97885W        W70145  30.940   5.864  13.530
97886W        W70146  41.337  24.482   0.873
97887W        W70147  21.462   5.229   4.180
97888W        W70148  22.474  42.719   3.582
97889W        W70149  17.985  23.554  12.055
97890W        W70150   8.242  43.910  14.985
97891W        W70151  22.505  32.564  12.023
97892W        W70152  10.307  21.747  12.713
97893W        W70153  43.757  26.418   1.270
97894W        W70154  44.238  35.588   4.815
97895W        W70155  25.088  43.417  13.940
97896W        W70156   3.274  12.662   4.319
97897W        W70157  42.972   6.048   4.482
97898W        W70158  18.139  21.592   2.222
97899W        W70159  26.233   5.429   0.916
97900W        W70160  26.731  37.965   2.209
97901W        W70161  11.204   9.378  13.220
97902W        W70162  15.092  32.451  10.632
97903W        W70163   6.797  32.151   1.504
97904W        W70164   9.793  28.217   1.279
97905W        W70165  43.322  28.677   4.550
97906W        W70166  16.898  18.165   1.153
97907W        W70167  39.032  40.352   0.762
97908W        W70168  27.230  18.765   3.831
97909W        W70169   0.193  22.993  11.484
97910W        W70170  24.217  13.175   4.402
97911W        W70171  27.670  13.666   3.824
97912W        W70172  14.290  17.780   2.868
97913W        W70173   3.495   9.162  11.113
97914W        W70174  14.680  39.289  11.154
97915W        W70175  11.298   8.339   3.412
97916W        W70176   3.830  14.550   2.337
97917W        W70177  17.556  29.820  13.804
97918W        W70178  34.333  43.476  14.538
97919W        W70179  39.561  41.238  10.690
97920W        W70180  10.830  24.135   3.721
97921W        W70181  13.583  15.089   4.143
97922W        W70182  20.072   1.947  14.478
97923W        W70183  11.627  20.094   1.011
97924W        W70184  21.164  12.896   1.243
97925W        W70185  12.715  24.120  12.478
97926W        W70186  31.776   8.417  10.468
97927W        W70187  13.749  11.066  14.606
97928W        W70188  34.559  42.845   4.052
97929W        W70189  21.221  36.560  12.094
97930W        W70190  41.221  43.208   2.203
97931W        W70191  29.006  27.201   4.654
97932W        W70192  23.248  24.221  14.962
97933W        W70193   3.848  17.165  13.386
97934W        W70194  26.755  38.658   1.276
97935W        W70195  36.769  11.584   2.876
97936W        W70196  12.390  39.632  13.352
97937W        W70197  35.793   7.334  14.527
97938W        W70198  42.321  35.317   4.366
97939W        W70199  37.689  25.967  13.830
97940W        W70200  22.108  16.124   3.221
97941W        W70201  26.648  33.305  11.063
97942W        W70202  36.367  15.713  10.757
97943W        W70203   1.399   0.761  13.364
97944W        W70204  37.568  18.737   3.239
97945W        W70205  13.160  25.094   3.999
97946W        W70206  42.493  16.393  14.174
97947W        W70207  18.987  15.710   0.951
97948W        W70208  26.774  27.202  11.562
97949W        W70209  38.031  20.438  10.339
97950W        W70210   8.739   4.255   4.883
97951W        W70211  44.815  19.649  14.830
97952W        W70212  10.408  12.284  11.611
97953W        W70213  38.179  13.279  12.902
97954W        W70214  39.543  41.243   2.970
97955W        W70215   5.205  24.281   0.936
97956W        W70216  22.271  32.154   3.696
97957W        W70217  31.645   3.312  12.899
97958W        W70218  36.606   5.894   1.233
97959W        W70219  42.474   5.291  13.451
97960W        W70220  19.304  20.170  12.196
97961W        W70221   0.979  23.124   2.259
97962W        W70222  43.304   6.440   4.608
97963W        W70223   0.915  13.163   1.176
97964W        W70224   0.283  39.953  10.961
97965W        W70225   7.864  37.900   4.496
97966W        W70226  32.454  40.515  12.143
97967W        W70227  18.677  30.121   1.239
97968W        W70228  10.080  16.093   4.162
97969W        W70229  30.260  29.614   4.233
97970W        W70230   7.776  22.536   3.253
97971W        W70231  14.717  17.059   1.329
97972W        W70232  27.233   7.136  13.546
97973W        W70233  10.589  21.515   1.011
97974W        W70234  16.186  23.729   0.361
97975W        W70235  11.129   2.990  13.989
97976W        W70236  42.511  41.795   4.188
97977W        W70237  37.865   3.611  13.006
97978W        W70238  27.230  38.352   0.305
97979W        W70239  34.041  15.342  10.811
97980W        W70240   8.377   3.497   2.293
97981W        W70241  43.435  23.457   3.088
97982W        W70242   0.661  29.390  14.878
97983W        W70243   8.685   9.245   3.708
97984W        W70244  36.754  25.012   0.410
97985W        W70245   3.144  26.606  12.086
97986W        W70246  16.146  25.186  13.437
97987W        W70247  10.950  27.517  13.509
97988W        W70248  17.177   5.903   1.007
97989W        W70249  12.542  32.432   0.941
97990W        W70250   8.259   9.365   4.667
97991W        W70251   6.707  35.364   2.197
97992W        W70252  24.290   9.314   4.342
97993W        W70253  34.746  22.503   2.852
97994W        W70254  23.382   2.885   1.536
97995W        W70255  26.053  42.583  14.429
97996W        W70256  27.379  15.615   0.875
97997W        W70257  20.548  30.101  11.667
97998W        W70258  20.748  25.986  11.949
97999W        W70259  32.811  44.526   2.062
98000W        W70260  37.360   2.622  12.449
98001W        W70261  18.315  23.970  12.027
98002W        W70262  11.766  15.301   0.829
98003W        W70263  37.441  20.736   2.985
98004W        W70264  30.105  38.897   1.329
98005W        W70265  18.802   5.193   0.831
98006W        W70266   5.857  29.029  10.744
98007W        W70267  14.217   1.313  13.984
98008W        W70268  31.370   5.777   0.711
98009W        W70269  33.025  34.472   4.116
98010W        W70270  38.184  35.754  11.955
98011W        W70271  42.696  23.179   2.650
98012W        W70272  25.660  43.550   3.764
98013W        W70273  33.876  29.885   0.352
98014W        W70274  12.433   3.676  11.175
98015W        W70275  36.348  37.114  13.077
98016W        W70276  38.848  18.423   1.713
98017W        W70277  19.158  36.311  11.874
98018W        W70278  31.031  35.763  13.765
98019W        W70279  42.955  11.880  12.484
98020W        W70280  11.213   4.348  11.211
98021W        W70281   4.642  26.025   4.307
98022W        W70282  17.633   7.665   3.060
98023W        W70283  13.162  12.186   4.459
98024W        W70284  12.581  34.030   3.845
98025W        W70285   4.858  43.319  10.986
98026W        W70286   8.146  39.979  11.056
98027W        W70287   0.883  10.189  13.543
98028W        W70288  20.113  28.113  13.195
98029W        W70289  13.091  15.210   0.886
98030W        W70290  30.206   6.769   3.203
98031W        W70291  20.360  43.121   2.673
98032W        W70292  18.651  37.565   5.005
98033W        W70293  21.504   3.904  13.469
98034W        W70294  33.430  40.422  14.733
98035W        W70295  13.833  19.674  13.778
98036W        W70296  41.236  33.891  13.995
98037W        W70297   2.823  38.487   0.024
98038W        W70298  21.355  33.355  10.412
98039W        W70299   9.824  29.729   2.663
98040W        W70300  18.198  15.545   1.688
98041W        W70301  34.485   0.358  12.569
98042W        W70302   2.935  25.041  12.001
98043W        W70303   2.324  39.602   0.391
98044W        W70304  10.276   9.824   1.237
98045W        W70305  32.807  40.996   3.281
98046W        W70306  32.523  29.083   1.830
98047W        W70307  28.082  27.623   2.129
98048W        W70308  22.599  33.220  10.654
98049W        W70309   5.741  34.811   2.700
98050W        W70310  36.609  11.341   5.193
98051W        W70311  36.899   6.561   2.520
98052W        W70312   6.178  33.650  10.625
98053W        W70313   4.773  22.944  14.881
98054W        W70314  37.852  35.320   9.674
98055W        W70315  34.416  38.646   3.831
98056W        W70316  27.507  15.766   4.140
98057W        W70317   5.820  19.254   0.283
98058W        W70318  36.027  41.734   0.717
98059W        W70319  30.408  11.545   1.267
98060W        W70320   7.214  13.305  11.576
98061W        W70321  41.778  39.930  13.011
98062W        W70322  26.587  22.701  13.303
98063W        W70323  13.656   3.799  10.403
98064W        W70324  37.355   8.812  11.479
98065W        W70325   0.900  30.665  13.883
98066W        W70326  23.582   9.424   2.653
98067W        W70327  41.731  23.518  10.607
98068W        W70328  29.445  44.385   4.509
98069W        W70329  29.716  30.476  11.107
98070W        W70330  22.203  15.100   0.476
98071W        W70331  22.883  27.942  14.475
98072W        W70332  23.969  27.420   2.729
98073W        W70333  42.047  34.089  12.453
98074W        W70334  42.751   8.947  11.089
98075W        W70335   6.196  10.046  10.804
98076W        W70336  17.503  41.938  14.427
98077W        W70337  44.482   7.164   0.300
98078W        W70338  18.284   2.035   2.851
98079W        W70339  34.891   4.175  12.998
98080W        W70340  36.432  37.615   0.296
98081W        W70341   8.296   4.801  13.056
98082W        W70342  35.136  32.968  13.940
98083W        W70343  16.983  17.414   5.114
98084W        W70344  23.593  16.845   1.952
98085W        W70345  17.775   3.349   1.922
98086W        W70346  20.532  38.505   3.743
98087W        W70347  18.484  12.847  14.941
98088W        W70348  23.977   2.620   1.618
98089W        W70349   1.786  40.042   1.703
98090W        W70350  13.607  36.422  11.958
98091W        W70351  33.038   2.275  10.682
98092W        W70352  17.901  30.250   1.038
98093W        W70353   2.220  29.257   4.228
98094W        W70354  22.057  21.843  12.147
98095W        W70355  30.643  19.998  12.394
98096W        W70356  18.712  33.836   2.920
98097W        W70357  18.245  33.571   1.904
98098W        W70358  28.658   4.982  13.532
98099W        W70359   1.992  15.113   1.363
98100W        W70360   5.280   5.253  12.893
98101W        W70361   8.479  22.054   3.115
98102W        W70362   3.528  25.185  10.359
98103W        W70363  34.968  27.072   3.725
98104W        W70364  24.697   3.397   3.321
98105W        W70365  31.117  34.647   3.290
98106W        W70366  38.940   9.873  11.478
98107W        W70367  24.406   5.242   2.690
98108W        W70368  11.644  28.373  12.847
98109W        W70369  12.608   5.817   3.376
98110W        W70370   1.456  25.958   3.305
98111W        W70371  15.722  24.049   3.073
98112W        W70372  44.616   6.730  14.414
98113W        W70373  40.701   7.197  10.504
98114W        W70374  26.601  21.787   1.256
98115W        W70375  28.027  25.954  14.885
98116W        W70376  43.356  35.630   4.466
98117W        W70377  14.152  23.838   3.687
98118W        W70378  26.182  20.479  12.552
98119W        W70379   7.717   1.168   9.871
98120W        W70380   2.838  30.687  13.902
98121W        W70381   1.401   7.185   2.558
98122W        W70382  42.315  20.872  13.428
98123W        W70383  44.475   5.835   3.696
98124W        W70384   4.280  15.724   2.863
98125W        W70385  13.409  35.891   3.829
98126W        W70386   8.739  18.243   3.065
98127W        W70387  26.384  21.419  13.857
98128W        W70388   1.947   3.945  13.351
98129W        W70389  32.693  29.231   2.343
98130W        W70390  33.834  23.537  13.350
98131W        W70391  34.522  19.631   1.409
98132W        W70392  23.049  40.515   4.091
98133W        W70393  27.528  18.525   1.280
98134W        W70394   5.261   9.829  12.919
98135W        W70395  33.827  17.340  14.466
98136W        W70396  40.889   5.072  12.378
98137W        W70397   9.668  32.979  13.606
98138W        W70398   9.604  33.012   3.841
98139W        W70399  38.295  11.378  14.426
98140W        W70400  34.649  23.523  12.024
98141W        W70401  14.600  33.121   0.499
98142W        W70402   2.393  20.178  13.277
98143W        W70403   5.603  10.286   3.695
98144W        W70404  44.436  40.533   0.288
98145W        W70405   3.052  27.051   1.364
98146W        W70406  28.120  43.351  13.106
98147W        W70407  30.996  28.974  14.976
98148W        W70408   1.362   5.262   1.083
98149W        W70409   8.883  10.644   1.625
98150W        W70410  25.487  40.051   0.281
98151W        W70411   1.116   5.247  11.897
98152W        W70412  44.952  40.279   3.922
98153W        W70413  37.769  44.314   3.119
98154W        W70414   3.060  35.816   3.302
98155W        W70415  34.587  18.483  12.123
98156W        W70416  37.447  11.721  12.558
98157W        W70417   7.726  21.015   3.103
98158W        W70418  13.774   4.249   2.801
98159W        W70419  42.961  28.988  10.647
98160W        W70420  33.322  10.816  11.896
98161W        W70421  25.728   2.312  13.348
98162W        W70422  41.944  40.818  12.305
98163W        W70423   9.353  25.129  12.848
98164W        W70424  35.879  42.630   1.067
98165W        W70425  14.946  35.925   4.775
98166W        W70426   8.790  31.451  11.971
98167W        W70427  43.966  15.684   3.340
98168W        W70428  32.340  29.178  14.961
98169W        W70429  21.141   7.029  14.939
98170W        W70430  27.639  20.703  13.418
98171W        W70431   0.513  39.542   2.422
98172W        W70432   9.634   2.423   2.845
98173W        W70433  14.156  15.103  11.686
98174W        W70434  18.476   2.454   0.307
98175W        W70435  24.656   9.247   0.875
98176W        W70436  31.963  30.731  13.841
98177W        W70437  28.781  29.412  11.827
98178W        W70438  30.039  25.123   4.206
98179W        W70439   9.675  35.155  14.909
98180W        W70440  34.591  29.612  13.026
98181W        W70441  20.101  22.025  11.960
98182W        W70442  25.090  33.600  10.946
98183W        W70443   8.265  41.893   3.782
98184W        W70444  24.409   7.856  12.372
98185W        W70445  15.929  38.031  11.974
98186W        W70446  17.892  34.162   0.857
98187W        W70447  25.079   3.893   0.397
98188W        W70448  11.770  36.396   3.212
98189W        W70449  17.242   3.578  13.890
98190W        W70450  29.146  19.787  10.689
98191W        W70451  13.116   7.174  12.525
98192W        W70452  19.615  10.126   2.184
98193W        W70453   8.587  38.496  14.341
98194W        W70454  25.141  11.841  12.918
98195W        W70455  37.143  34.134   2.010
98196W        W70456  37.934  40.794   4.800
98197W        W70457  40.545  19.099  13.618
98198W        W70458  24.145  22.257  12.929
98199W        W70459   4.011  44.829   1.932
98200W        W70460  31.643  33.929  13.569
98201W        W70461  29.607  35.344  12.663
98202W        W70462  29.251  35.741  10.061
98203W        W70463  17.176  23.992  13.851
98204W        W70464  29.855   1.909  11.321
98205W        W70465  19.661   0.789   4.198
98206W        W70466  28.753  33.807  13.099
98207W        W70467  44.275  34.111  12.214
98208W        W70468  20.614  25.693  13.143
98209W        W70469  26.958  42.944  14.295
98210W        W70470   1.252  11.152   3.147
98211W        W70471   4.168   8.325  10.687
98212W        W70472   0.860  33.053   0.219
98213W        W70473  42.573  27.229   2.833
98214W        W70474  41.173  39.061  13.842
98215W        W70475  13.319  23.949  14.431
98216W        W70476  23.561  15.197  13.770
98217W        W70477  20.820  12.114  11.917
98218W        W70478   2.176   5.575   2.870
98219W        W70479  32.976  15.276  13.879
98220W        W70480  17.741   4.117   0.200
98221W        W70481  21.163  36.861   0.326
98222W        W70482  17.437  35.028  10.712
98223W        W70483  11.069  27.954  14.397
98224W        W70484  36.596  36.416   1.443
98225W        W70485  17.769   2.749   2.427
98226W        W70486  32.808  30.454  14.534
98227W        W70487   1.454   4.815  11.838
98228W        W70488  15.721  43.444   2.722
98229W        W70489  18.846  17.979  13.982
98230W        W70490   9.393   7.260   0.760
98231W        W70491  12.831   8.696  12.945
98232W        W70492  39.953  41.950  10.595
98233W        W70493  30.649  16.702   2.362
98234W        W70494  29.681   0.708   4.124
98235W        W70495  30.899  24.993  11.582
98236W        W70496  28.971  11.613   0.214
98237W        W70497  38.424  17.662   1.750
98238W        W70498  11.167  28.400  10.651
98239W        W70499  36.821  40.896  14.244
98240W        W70500   9.299  17.109  14.548
98241W        W70501  10.239  25.491   1.764
98242W        W70502  20.593   8.734   2.952
98243W        W70503  15.100   6.243  14.099
98244W        W70504  41.358  38.409  11.022
98245W        W70505  40.325  31.893   0.311
98246W        W70506  35.374  24.048   3.136
98247W        W70507  22.357  37.564   5.034
98248W        W70508  14.157   3.748   3.996
98249W        W70509  32.137   9.453   4.644
98250W        W70510   6.491  44.719   2.157
98251W        W70511  16.293  31.044  12.309
98252W        W70512  30.504  35.410   0.002
98253W        W70513  10.334  27.669  13.560
98254W        W70514   0.836  13.138   0.273
98255W        W70515  15.590  44.380   1.363
98256W        W70516  11.399  37.576   4.124
98257W        W70517  37.540  22.116   3.601
98258W        W70518  13.934  19.935   3.170
98259W        W70519  14.736  40.427  13.555
98260W        W70520  24.513  17.868  11.104
98261W        W70521  26.211   6.602  10.539
98262W        W70522   4.440  21.092   2.296
98263W        W70523  35.373  28.868   4.702
98264W        W70524  14.034   5.688  12.181
98265W        W70525  26.453  14.211  13.828
98266W        W70526  39.973  32.929   0.319
98267W        W70527  25.630   1.680   0.823
98268W        W70528  12.832  21.201  10.841
98269W        W70529  32.364  26.952   5.007
98270W        W70530   0.742   3.902   1.131
98271W        W70531   3.221  37.969   1.811
98272W        W70532  39.759  19.484   3.773
98273W        W70533  43.994   8.717  11.596
98274W        W70534  13.199  16.070   0.256
98275W        W70535   7.949   9.297   2.756
98276W        W70536  28.039  16.965   0.462
98277W        W70537  39.535   2.876  13.418
98278W        W70538  40.804  27.691  13.520
98279W        W70539  27.335  31.855  11.130
98280W        W70540   8.372  28.907  12.476
98281W        W70541  21.789   4.836  13.632
98282W        W70542  36.927  20.875  14.054
98283W        W70543   8.234   6.267  11.480
98284W        W70544   6.746   4.211   2.932
98285W        W70545  25.213  26.983  14.860
98286W        W70546  16.250  15.941   1.852
98287W        W70547  13.997  41.913  13.013
98288W        W70548  40.009  22.779   0.726
98289W        W70549  43.248  44.570  11.560
98290W        W70550  33.367   9.097   2.943
98291W        W70551  44.278   1.283  10.471
98292W        W70552  28.152  21.522  11.849
98293W        W70553   3.661   8.681   4.622
98294W        W70554  10.652  30.739   5.128
98295W        W70555  29.097  10.354  12.986
98296W        W70556  13.160   3.241   0.911
98297W        W70557  17.457  36.493   0.759
98298W        W70558  34.567  37.300  11.135
98299W        W70559  29.148   0.835   2.689
98300W        W70560  22.249   6.670   3.204
98301W        W70561   4.867  21.251  12.086
98302W        W70562  10.903  14.589   4.066
98303W        W70563  40.935  42.079  10.721
98304W        W70564   7.213  27.151   3.551
98305W        W70565  11.547   3.804   0.925
98306W        W70566   8.651  34.131   1.084
98307W        W70567  28.745   2.768   1.832
98308W        W70568  35.442  27.154  11.677
98309W        W70569   3.494  27.203   3.307
98310W        W70570  39.990  16.215   2.780
98311W        W70571  44.281   8.832  10.630
98312W        W70572  44.920   7.418   0.346
98313W        W70573  14.554  21.358   4.954
98314W        W70574  35.307  11.623  10.942
98315W        W70575  13.310   7.564  11.568
98316W        W70576   6.209  37.978   0.818
98317W        W70577  39.674  32.243   9.966
98318W        W70578  44.858  19.822   4.682
98319W        W70579  37.397  19.720   3.114
98320W        W70580   8.621  37.533  11.157
98321W        W70581   6.412  32.431   3.884
98322W        W70582  16.991  43.410  12.142
98323W        W70583  23.051   0.004   0.882
98324W        W70584  19.995  38.991   1.229
98325W        W70585   0.203  32.507  11.994
98326W        W70586   6.694  38.318   2.296
98327W        W70587   5.065  39.556   0.861
98328W        W70588  15.798  17.945   4.270
98329W        W70589  36.827  34.349   1.242
98330W        W70590  14.668  43.205   3.986
98331W        W70591  36.284   0.418   4.623
98332W        W70592  32.493  12.594  11.539
98333W        W70593  22.001  19.198   1.826
98334W        W70594  15.666   7.254  14.474
98335W        W70595  25.509   5.288   0.197
98336W        W70596  20.784   2.395  13.029
98337W        W70597  18.944   4.812   4.478
98338W        W70598  21.554   3.287  13.878
98339W        W70599  43.485   0.268  11.673
98340W        W70600  20.578  28.404   0.955
98341W        W70601  23.074   1.377   4.122
98342W        W70602  40.765   0.776   2.835
98343W        W70603  18.158  29.002  12.555
98344W        W70604  10.275  39.095  11.524
98345W        W70605  24.769  30.525  12.255
98346W        W70606  16.924  31.497   2.297
98347W        W70607  39.257  25.675  12.556
98348W        W70608  41.592   8.319  12.856
98349W        W70609  16.625   2.479   3.629
98350W        W70610  21.715  11.988  11.145
98351W        W70611   4.697   3.814   1.011
98352W        W70612   6.938  19.664  14.783
98353W        W70613  20.934  33.056  10.529
98354W        W70614   1.249  25.563  10.684
98355W        W70615  10.184  13.606   4.102
98356W        W70616  23.833  11.623   0.843
98357W        W70617  10.592   7.775   0.746
98358W        W70618  12.638  23.619   0.254
98359W        W70619   3.377   6.204   2.629
98360W        W70620   3.052  17.265   1.393
98361W        W70621  22.915  41.227  13.029
98362W        W70622  43.278  12.862  14.385
98363W        W70623   3.773   1.222   1.726
98364W        W70624  26.111  41.182   2.235
98365W        W70625  40.298  43.271   4.206
98366W        W70626  13.560   4.169   3.556
98367W        W70627  20.972  33.479   4.944
98368W        W70628   5.871  29.065   3.333
98369W        W70629  35.135   9.273  14.325
98370W        W70630  44.376  26.965  11.385
98371W        W70631  42.353  18.636   2.876
98372W        W70632  26.572   1.992  13.741
98373W        W70633  44.950  36.018   3.635
98374W        W70634  11.802  16.329   2.244
98375W        W70635  15.267  34.308   2.446
98376W        W70636  25.729  15.205   2.422
98377W        W70637  18.676  36.803   2.673
98378W        W70638   2.999  16.213   2.222
98379W        W70639  32.528  32.351   3.487
98380W        W70640  26.663  41.673  12.057
98381W        W70641   0.843  24.124   4.187
98382W        W70642   0.680  37.477   0.620
98383W        W70643  33.147  13.626   1.276
98384W        W70644  37.993  19.439   1.495
98385W        W70645  21.170  37.590  13.855
98386W        W70646   5.280   3.149  10.628
98387W        W70647  16.654  16.651  12.829
98388W        W70648  31.966  35.248   2.759
98389W        W70649  14.740  31.472   4.246
98390W        W70650   0.288  14.614   1.452
98391W        W70651  16.659  44.555   2.717
98392W        W70652  15.269  25.919  14.427
98393W        W70653  36.589  23.235  13.129
98394W        W70654  32.017  13.070  11.776
98395W        W70655  33.969  30.618  12.683
98396W        W70656  18.933  29.672   1.768
98397W        W70657  40.332  36.109   5.127
98398W        W70658   3.467  42.952   1.097
98399W        W70659   6.114  39.835   4.627
98400W        W70660  24.116  44.965   4.767
98401W        W70661   0.351  42.083  14.456
98402W        W70662  35.360   6.950   3.393
98403W        W70663   3.301  17.858   2.185
98404W        W70664  11.410  29.537   2.263
98405W        W70665  41.505  19.310  11.044
98406W        W70666   7.224  31.728   2.706
98407W        W70667  36.615   0.224   4.262
98408W        W70668  34.871  13.353   0.024
98409W        W70669  10.387  36.320  13.905
98410W        W70670  21.537  29.928  13.335
98411W        W70671  43.388  36.068   4.734
98412W        W70672  37.013  14.027  11.443
98413W        W70673  14.845   6.397   4.612
98414W        W70674  15.573  21.286   4.548
98415W        W70675  22.047  19.988   0.465
98416W        W70676   0.824  24.313  13.373
98417W        W70677  25.754  28.970   3.100
98418W        W70678  16.699  36.809  14.438
98419W        W70679  13.725  35.166   0.972
98420W        W70680  15.991  24.196   1.297
98421W        W70681  29.592  14.595  14.979
98422W        W70682  24.117  39.670   1.551
98423W        W70683  34.460  21.628  10.692
98424W        W70684  34.654  17.828   3.854
98425W        W70685   0.068  34.643   3.241
98426W        W70686  25.541  18.698  10.615
98427W        W70687  18.305  29.877   0.824
98428W        W70688  13.743  42.483  13.506
98429W        W70689  29.541  10.838  11.980
98430W        W70690  33.079  14.608   3.618
98431W        W70691  10.414  35.016  13.148
98432W        W70692  31.069  18.684  14.061
98433W        W70693  19.630  38.797  11.846
98434W        W70694   9.593  26.007  10.851
98435W        W70695   2.806   5.724  14.748
98436W        W70696  34.060  24.006   2.749
98437W        W70697  28.356  11.863   1.449
98438W        W70698  28.978   6.166  12.507
98439W        W70699  32.462  35.427   2.676
98440W        W70700  15.544   4.879  13.997
98441W        W70701  18.776  24.217  13.776
98442W        W70702  37.328   7.835  13.999
98443W        W70703  19.115  41.097  13.932
98444W        W70704   2.378  14.167  12.959
98445W        W70705  24.741  22.560   1.711
98446W        W70706  35.769  39.009   4.607
98447W        W70707  25.159   3.409  13.543
98448W        W70708  41.469  41.934   0.290
98449W        W70709  42.401   5.254   2.886
98450W        W70710   5.222   9.232   3.800
98451W        W70711  25.445  32.442   3.761
98452W        W70712  10.415   6.592  11.954
98453W        W70713  44.932  10.363   3.123
98454W        W70714  26.131  37.165   3.287
98455W        W70715  36.352  40.184  11.970
98456W        W70716  34.631  33.545   4.327
98457W        W70717   8.781  32.852   2.420
98458W        W70718   9.845  23.683   4.631
98459W        W70719   8.978  19.553  11.586
98460W        W70720  15.305   5.383  13.975
98461W        W70721  41.290  25.578  12.057
98462W        W70722  33.093  11.938  11.024
98463W        W70723   1.917   1.783   1.908
98464W        W70724  41.366   4.908  12.125
98465W        W70725  20.313  12.356  12.461
98466W        W70726   2.868  21.737   4.802
98467W        W70727   9.916  41.030   4.355
98468W        W70728  41.277  20.455  14.790
98469W        W70729  18.725  12.672   3.101
98470W        W70730   3.773  31.857   3.230
98471W        W70731  42.278   3.286   2.927
98472W        W70732  11.840  28.615  14.296
98473W        W70733   4.788  30.424   3.447
98474W        W70734  16.268   9.268  11.581
98475W        W70735  26.784   8.560  13.890
98476W        W70736  31.808  18.298   3.858
98477W        W70737  14.791   7.734   1.330
98478W        W70738  27.453  25.794  11.110
98479W        W70739  23.680   6.187  14.757
98480W        W70740   8.014  34.881  13.185
98481W        W70741  36.429  42.983  13.484
98482W        W70742  16.604  37.805  14.359
98483W        W70743   3.300   8.186   0.504
98484W        W70744  39.397  14.485   3.630
98485W        W70745  44.755  14.413   4.119
98486W        W70746   0.839  24.614  14.245
98487W        W70747  15.646   8.285  14.280
98488W        W70748  36.897  41.195   1.815
98489W        W70749   1.853  14.709   2.797
98490W        W70750   8.306  18.802  12.498
98491W        W70751  19.901  17.567  11.080
98492W        W70752  43.300  33.379  14.395
98493W        W70753  43.916  41.489  13.875
98494W        W70754  40.345   0.863   2.028
98495W        W70755   9.155   3.862  11.858
98496W        W70756  18.214  18.013  10.481
98497W        W70757  21.468  11.401   1.908
98498W        W70758  13.231  38.131  11.959
98499W        W70759  28.929  20.353   4.829
98500W        W70760  19.635  36.051  10.942
98501W        W70761  27.482  19.066  12.921
98502W        W70762   6.178  40.362  12.548
98503W        W70763  10.868   2.734  14.828
98504W        W70764  26.062  12.241   4.157
98505W        W70765   3.300  36.141   1.471
98506W        W70766  14.918  38.836  11.518
98507W        W70767  39.900   5.705  11.688
98508W        W70768   1.105   2.020  13.452
98509W        W70769  10.280   4.302  11.669
98510W        W70770   3.408  15.555   0.374
98511W        W70771  43.477   4.873   3.663
98512W        W70772   1.373  30.349   4.370
98513W        W70773  20.863  20.688   0.450
98514W        W70774  20.489  32.985   2.176
98515W        W70775  34.538  41.444  14.386
98516W        W70776  11.751  41.502   2.132
98517W        W70777   7.750  22.126  12.416
98518W        W70778  33.101  29.119  14.294
98519W        W70779  11.847  43.525  13.518
98520W        W70780  38.544  23.514  12.423
98521W        W70781  26.889   2.446   0.841
98522W        W70782  39.781   5.866   1.358
98523W        W70783  42.279   1.950  14.179
98524W        W70784  25.123   1.784   0.895
98525W        W70785  32.680   6.462   3.093
98526W        W70786  29.636  17.011   4.590
98527W        W70787   8.372  38.027   1.788
98528W        W70788  24.165  26.961  11.942
98529W        W70789  35.934  31.532  12.231
98530W        W70790  40.590  13.942   1.011
98531W        W70791  14.137  30.836  14.765
98532W        W70792  17.488  18.171  12.479
98533W        W70793  12.184  23.950   3.376
98534W        W70794  12.932  15.393  13.356
98535W        W70795  40.001  37.822  13.999
98536W        W70796   4.657  12.721   3.258
98537W        W70797  37.049   1.887  11.548
98538W        W70798   4.733  33.110   4.067
98539W        W70799  41.966   3.936  14.358
98540W        W70800  28.216  31.976  13.943
98541W        W70801   7.835  10.146   3.761
98542W        W70802  33.642  39.122   0.484
98543W        W70803  13.029  38.838  14.290
98544W        W70804  36.095  25.210   2.705
98545W        W70805   0.467  27.111  14.593
98546W        W70806   7.225  12.576   0.272
98547W        W70807  23.019  30.962  13.486
98548W        W70808   8.724  30.193  12.650
98549W        W70809   8.652  32.283  13.566
98550W        W70810  33.678  16.194  12.319
98551W        W70811   9.790   8.872   1.118
98552W        W70812  41.359  11.643   2.383
98553W        W70813  25.279  18.907   2.274
98554W        W70814  10.776  11.730  14.731
98555W        W70815  28.135  25.439   1.934
98556W        W70816  24.081  37.534   3.342
98557W        W70817  14.454  27.532  12.029
98558W        W70818  23.982  28.397   9.707
98559W        W70819  41.925   5.884   3.236
98560W        W70820  43.935  10.697   0.452
98561W        W70821  15.251   4.766   3.747
98562W        W70822  29.406  17.017   3.265
98563W        W70823   4.307   8.825   5.025
98564W        W70824   6.734  27.552   4.683
98565W        W70825  39.539  38.542   3.062
98566W        W70826  19.518  39.923  11.043
98567W        W70827   0.431  13.282   4.094
98568W        W70828   5.902   4.057  13.369
98569W        W70829  12.243  22.630  12.515
98570W        W70830   0.709  26.166  11.111
98571W        W70831  33.690  36.787   3.714
98572W        W70832   8.623  22.606   0.944
98573W        W70833  27.729   7.782   0.020
98574W        W70834   8.402   1.289   3.205
98575W        W70835  21.592   1.048   0.374
98576W        W70836  32.071   3.372   1.191
98577W        W70837   8.599  23.720  11.358
98578W        W70838  30.305  35.961   2.715
98579W        W70839   7.153  41.331   1.185
98580W        W70840  16.863   1.468   1.962
98581W        W70841  35.510  32.995   0.569
98582W        W70842  23.765   5.319  14.352
98583W        W70843  25.578  38.376   4.800
98584W        W70844  32.805  32.683   2.298
98585W        W70845  29.474  35.315   9.840
98586W        W70846   0.780   2.933  12.997
98587W        W70847  35.908  10.166  14.072
98588W        W70848  25.283  43.826   2.452
98589W        W70849  20.157   0.750   3.080
98590W        W70850  30.706  25.004  14.518
98591W        W70851  38.807   6.390  14.353
98592W        W70852   8.572  35.325   2.257
98593W        W70853  42.757  11.476  12.248
98594W        W70854  13.129  10.792  14.554
98595W        W70855  30.961  20.261  10.693
98596W        W70856  44.418  17.596  11.977
98597W        W70857   3.578  37.855   1.431
98598W        W70858   3.406  20.639  12.916
98599W        W70859  13.069  25.238   2.886
98600W        W70860   4.331  30.275  10.678
98601W        W70861  14.870   5.274   1.264
98602W        W70862  42.669  29.048   0.856
98603W        W70863  22.140   1.165   3.691
98604W        W70864   4.725  13.922  10.654
98605W        W70865  34.405  13.179  12.070
98606W        W70866   8.690  11.912   4.656
98607W        W70867  11.371   7.256  14.003
98608W        W70868   4.858  28.388   5.280
98609W        W70869   8.274  18.552  13.894
98610W        W70870  33.543  10.735   4.524
98611W        W70871  13.455  22.464  13.376
98612W        W70872   1.546  33.279  13.876
98613W        W70873  19.747  30.152  14.793
98614W        W70874  43.588   3.501  11.723
98615W        W70875  13.928  41.648   2.868
98616W        W70876  40.305   6.104   2.343
98617W        W70877  25.526   8.881  13.401
98618W        W70878  41.291   8.151  11.593
98619W        W70879  15.394   0.233   4.589
98620W        W70880   8.171  25.522   1.732
98621W        W70881  44.799  31.212  11.358
98622W        W70882  43.743  24.922   4.197
98623W        W70883   3.215  30.485  14.737
98624W        W70884  16.040  33.654   3.288
98625W        W70885  42.957  26.076   2.121
98626W        W70886  17.196  31.527   1.371
98627W        W70887  13.947   2.354   0.398
98628W        W70888  11.279  17.978   0.771
98629W        W70889   2.548  18.244   4.287
98630W        W70890  23.916  37.395   1.492
98631W        W70891  13.609   3.278  14.781
98632W        W70892  14.230  31.685   2.029
98633W        W70893   0.932  24.293   4.966
98634W        W70894   1.440   0.126   3.463
98635W        W70895   3.994  29.894  10.970
98636W        W70896  14.868  32.507   4.416
98637W        W70897   0.454  10.258  13.265
98638W        W70898  23.569  39.501  11.579
98639W        W70899  39.130  43.368   3.445
98640W        W70900  20.858  15.749   5.101
98641W        W70901   6.795  17.704  12.679
98642W        W70902   3.444   4.803   1.723
98643W        W70903  17.689  44.195   3.271
98644W        W70904  14.390  33.368   1.420
98645W        W70905  36.898  31.156  11.223
98646W        W70906   7.419  12.377  12.465
98647W        W70907  38.863  15.217  13.405
98648W        W70908  42.541  33.234  12.019
98649W        W70909  10.133   2.919   3.054
98650W        W70910   5.618  29.040   4.581
98651W        W70911  15.547  39.911   2.839
98652W        W70912  14.279  30.411   1.222
98653W        W70913  42.777  38.072  14.883
98654W        W70914  27.946   3.494   2.552
98655W        W70915   9.174  15.991  12.447
98656W        W70916  15.160  18.988  11.604
98657W        W70917  31.130  35.925   1.231
98658W        W70918  18.379  35.567  13.648
98659W        W70919  22.641  21.234  10.134
98660W        W70920  20.706  38.136   2.700
98661W        W70921   8.443  40.900   3.038
98662W        W70922  34.576  40.405   2.412
98663W        W70923  13.119  30.993  13.008
98664W        W70924   4.289  27.682   1.797
98665W        W70925  13.147  30.398   2.216
98666W        W70926  12.766  17.341  11.017
98667W        W70927  12.601  21.686  10.832
98668W        W70928  36.638   8.169   1.865
98669W        W70929  40.209  40.030  13.120
98670W        W70930   0.928   1.805   4.999
98671W        W70931   4.706  16.606   3.191
98672W        W70932  32.397  38.927  10.256
98673W        W70933  21.277  43.538   2.128
98674W        W70934  26.149  23.763  14.447
98675W        W70935  25.426  13.838  14.532
98676W        W70936  28.522  35.440   4.550
98677W        W70937  43.047  16.623   0.843
98678W        W70938  10.126  17.220  11.496
98679W        W70939  13.322  42.279  11.411
98680W        W70940   0.603  11.197   0.093
98681W        W70941  23.377  16.589   2.391
98682W        W70942  28.933  12.584  10.735
98683W        W70943  30.899  16.294   3.585
98684W        W70944  38.867   9.180   0.824
98685W        W70945  37.132  20.655  10.841
98686W        W70946  11.891  44.382  12.527
98687W        W70947  16.805  41.137   1.761
98688W        W70948  43.887  10.164   3.342
98689W        W70949  42.981  26.646   3.324
98690W        W70950  29.131  40.402   3.380
98691W        W70951  40.493   7.118   4.831
98692W        W70952  31.158  38.683   1.343
98693W        W70953  24.043  21.490  11.900
98694W        W70954   1.284  28.919  14.837
98695W        W70955   9.551   5.073   1.001
98696W        W70956   7.830   3.666  13.915
98697W        W70957  40.505  39.456  14.778
98698W        W70958  31.959  15.249  12.314
98699W        W70959  27.044  24.749  14.037
98700W        W70960  35.997  10.596  12.840
98701W        W70961  12.048  26.486  11.428
98702W        W70962   7.808  21.595  13.140
98703W        W70963   6.610  28.592  11.018
98704W        W70964  44.270   4.887   2.508
98705W        W70965  33.386   1.943   4.634
98706W        W70966   2.182   5.797   0.785
98707W        W70967  35.881  21.605   2.186
98708W        W70968  17.188  44.749  12.590
98709W        W70969  42.928  16.248   0.474
98710W        W70970  44.153   8.623  14.315
98711W        W70971   4.766  11.338  14.054
98712W        W70972   1.798  36.146   2.711
98713W        W70973  31.806  16.541   3.980
98714W        W70974  28.000   0.268   2.250
98715W        W70975  24.814  44.972  13.769
98716W        W70976   7.234  17.874   3.288
98717W        W70977  36.861  12.660  14.310
98718W        W70978   6.175  27.403  11.717
98719W        W70979  19.462  32.102  12.485
98720W        W70980  36.388  44.802   0.950
98721W        W70981  15.360  10.684  12.085
98722W        W70982  23.013  32.593   2.303
98723W        W70983  28.583  38.139  13.340
98724W        W70984  39.375  18.531   3.584
98725W        W70985  38.718  33.979   3.729
98726W        W70986  24.159  29.357  12.388
98727W        W70987  26.886  43.548   0.670
98728W        W70988  40.640  10.477   2.256
98729W        W70989  30.394  37.548  13.903
98730W        W70990   4.774  14.159   3.076
98731W        W70991  20.079  17.783   4.494
98732W        W70992  26.369  42.261   5.196
98733W        W70993  27.589  44.760   4.483
98734W        W70994  28.708  20.998   1.688
98735W        W70995   5.876  13.604  11.147
98736W        W70996  12.137   5.560  14.860
98737W        W70997  20.401  42.347  14.932
98738W        W70998  24.489  23.731  10.770
98739W        W70999  42.350  27.023   0.543
98740W        W71000   1.511  36.283   1.807
98741W        W71001   9.347   4.277  10.621
98742W        W71002   8.949  38.199   0.983
98743W        W71003   6.716  44.932   0.777
98744W        W71004  33.339   8.143   0.841
98745W        W71005  44.259  37.778  14.857
98746W        W71006  44.328  20.724   2.444
98747W        W71007  15.284  15.048   1.397
98748W        W71008  43.761  44.972   2.750
98749W        W71009  10.211  37.891   2.426
98750W        W71010  18.615  30.160   2.845
98751W        W71011  35.442  15.086  14.900
98752W        W71012  12.396  11.874   4.171
98753W        W71013  39.613  27.283  13.809
98754W        W71014  43.868  17.728  10.625
98755W        W71015  27.463   5.175  13.996
98756W        W71016  15.262  10.822   3.137
98757W        W71017  25.210  16.229   3.224
98758W        W71018  38.891  38.919  13.902
98759W        W71019  30.505   1.377   3.851
98760W        W71020  37.765  22.977  11.100
98761W        W71021  21.094  26.725   1.871
98762W        W71022  17.578   8.105  13.558
98763W        W71023  30.922  30.439  12.354
98764W        W71024  17.604   4.194  14.295
98765W        W71025  11.818  39.885  12.887
98766W        W71026  15.528   6.870   0.737
98767W        W71027  44.670  27.404  11.925
98768W        W71028  32.528   0.493   0.033
98769W        W71029  18.146   8.651   5.102
98770W        W71030   2.950  16.232  11.003
98771W        W71031  25.144  31.229  14.853
98772W        W71032  26.604  28.911  12.834
98773W        W71033  12.777  23.673  14.732
98774W        W71034  30.607  43.727  12.490
98775W        W71035  30.117   7.419   1.776
98776W        W71036  28.456  18.267   1.677
98777W        W71037  18.444   2.447   3.124
98778W        W71038  32.953  34.090   2.272
98779W        W71039  20.688  38.302   1.321
98780W        W71040  28.973  41.984   1.535
98781W        W71041  11.018  36.421  10.774
98782W        W71042  14.389  34.688   3.116
98783W        W71043  44.722  37.992   0.937
98784W        W71044   2.334  10.679   0.855
98785W        W71045  25.569   9.296  13.098
98786W        W71046  37.725  18.143  13.271
98787W        W71047   6.419  27.989   2.575
98788W        W71048   3.775  11.706   1.411
98789W        W71049   0.798  35.190   3.638
98790W        W71050  17.195  28.670  11.511
98791W        W71051  18.151  29.362   0.625
98792W        W71052  10.766  19.197   1.702
98793W        W71053  35.404   3.521   1.078
98794W        W71054  37.615  39.475   0.375
98795W        W71055  23.120   8.103  13.355
98796W        W71056  38.703  43.127   4.242
98797W        W71057  35.736  39.330   5.028
98798W        W71058  28.738  42.341   2.338
98799W        W71059  41.256  17.638   1.791
98800W        W71060   6.816  19.088  10.820
98801W        W71061   0.926  13.434  13.482
98802W        W71062  41.040  28.422   4.664
98803W        W71063  38.095   2.464  11.713
98804W        W71064   7.346  26.148   0.662
98805W        W71065  26.256  27.478   1.797
98806W        W71066  35.567  26.740   4.319
98807W        W71067  28.258  36.865  14.846
98808W        W71068  26.698  11.561  13.903
98809W        W71069  36.312  41.510   4.110
98810W        W71070   9.632  43.658  14.366
98811W        W71071  33.569  41.930   4.110
98812W        W71072   5.923  13.538   1.948
98813W        W71073  32.474  25.418   4.198
98814W        W71074  34.579  11.185  10.817
98815W        W71075   6.424  38.641   4.661
98816W        W71076  35.514  37.845   1.405
98817W        W71077   8.645  14.299   1.264
98818W        W71078  12.651  10.937  14.487
98819W        W71079  27.990  13.519  10.732
98820W        W71080  18.261   2.287   4.387
98821W        W71081  32.523  18.166   2.329
98822W        W71082  19.849   9.221  11.137
98823W        W71083  26.420  41.570   5.137
98824W        W71084  32.430  10.642   0.595
98825W        W71085  18.351   4.233   1.590
98826W        W71086   9.175  24.644   4.554
98827W        W71087   2.037  40.030   2.289
98828W        W71088  28.477   8.648  13.787
98829W        W71089  42.555  13.162   4.165
98830W        W71090  12.109  10.635   0.635
98831W        W71091  27.269   1.988  10.380
98832W        W71092  17.685   0.997  13.385
98833W        W71093   9.421   1.827  10.629
98834W        W71094  42.523  43.321   2.288
98835W        W71095  36.432  17.262  10.624
98836W        W71096  18.843  26.618  10.563
98837W        W71097   8.823  28.101  14.749
98838W        W71098  23.852   7.549   5.014
98839W        W71099  36.569  37.605   3.211
98840W        W71100  24.625  24.904   3.073
98841W        W71101  43.802  43.669   0.474
98842W        W71102  21.755  42.060   3.233
98843W        W71103  34.639  10.835   1.512
98844W        W71104  14.032  40.865   4.302
98845W        W71105  29.562   6.445  11.150
98846W        W71106  28.220  21.117  14.068
98847W        W71107  24.726  35.747  14.851
98848W        W71108  39.499   7.153   2.452
98849W        W71109  34.715  43.020  11.228
98850W        W71110  24.634   1.197   3.181
98851W        W71111  35.968   8.611  13.099
98852W        W71112  12.710  44.816  13.409
98853W        W71113  13.709  25.237  10.690
98854W        W71114  11.672  14.330   3.272
98855W        W71115  20.505  35.381   2.766
98856W        W71116   4.884  22.481  11.575
98857W        W71117   0.961  42.935   3.262
98858W        W71118   9.431   3.440  11.729
98859W        W71119  30.419  35.898  14.762
98860W        W71120  31.011   4.213  12.585
98861W        W71121  34.434  34.781  14.258
98862W        W71122  18.596  13.980   1.805
98863W        W71123   6.408   6.422  14.460
98864W        W71124  22.848  39.044   0.914
98865W        W71125  35.179  23.465   2.561
98866W        W71126  10.202  40.276   2.974
98867W        W71127  28.386  17.913  11.863
98868W        W71128  12.880  24.964   3.264
98869W        W71129  20.403  13.947  10.668
98870W        W71130   6.473  18.508  12.513
98871W        W71131  25.208  39.430   2.598
98872W        W71132  31.538  18.140  13.498
98873W        W71133  17.522  42.795   4.246
98874W        W71134   9.170  15.194  13.629
98875W        W71135   5.692  31.880   0.806
98876W        W71136   5.195  13.914   0.333
98877W        W71137  40.998  18.986  14.328
98878W        W71138  19.716  36.386  13.585
98879W        W71139  15.937  11.638   4.980
98880W        W71140  26.716  22.560  11.927
98881W        W71141  17.740   9.101   0.977
98882W        W71142  22.247  35.155  12.567
98883W        W71143  27.991  20.668  13.823
98884W        W71144  16.326  13.452  11.989
98885W        W71145  42.361   4.780  12.617
98886W        W71146  40.309   2.125  12.138
98887W        W71147  37.612  18.786  11.129
98888W        W71148  20.292   8.104  12.482
98889W        W71149  40.461   6.653   1.240
98890W        W71150   3.425  15.428   3.180
98891W        W71151  21.014  34.357  14.813
98892W        W71152  40.317   2.214  11.097
98893W        W71153  39.599  39.835  12.294
98894W        W71154  24.973   8.676   3.165
98895W        W71155  36.684  42.894  14.886
98896W        W71156  31.088  25.679  12.477
98897W        W71157  25.660  40.617   1.702
98898W        W71158   4.912  25.589   3.166
98899W        W71159  15.211  23.778  10.882
98900W        W71160   3.309  29.722  11.554
98901W        W71161  21.551  36.108   1.578
98902W        W71162  44.523  18.789   3.558
98903W        W71163  23.050  38.329  13.852
98904W        W71164  25.730  17.604   0.503
98905W        W71165  23.073  26.667  11.388
98906W        W71166  41.385  15.113  13.041
98907W        W71167  40.918  21.195  14.452
98908W        W71168   4.360  33.838   0.398
98909W        W71169  40.717  31.942   2.393
98910W        W71170  28.825  41.387  12.544
98911W        W71171  29.980  33.365   0.789
98912W        W71172  21.579  43.446   4.090
98913W        W71173  40.301  29.644   3.258
98914W        W71174  14.750  13.699  12.108
98915W        W71175  20.714  21.661   5.224
98916W        W71176  17.892  12.611   4.140
98917W        W71177  10.991  27.141  11.107
98918W        W71178  39.541  41.440   2.468
98919W        W71179  14.578  31.120  13.111
98920W        W71180  16.562  32.852   1.232
98921W        W71181  37.226  31.053   3.295
98922W        W71182   1.251   7.119  13.261
98923W        W71183  35.540  40.102  12.465
98924W        W71184  19.649  35.668   3.647
98925W        W71185  26.656  15.640  10.547
98926W        W71186  24.436  24.181   3.071
98927W        W71187  34.926  36.678  12.618
98928W        W71188  36.915  20.009  11.529
98929W        W71189   5.435  40.291   3.626
98930W        W71190   5.719   0.363  13.012
98931W        W71191  20.758   3.152   0.215
98932W        W71192  39.438   7.667  12.587
98933W        W71193   1.872   8.095  14.033
98934W        W71194  37.972  38.722   2.142
98935W        W71195  40.488  13.346  12.559
98936W        W71196  37.677  27.573   0.796
98937W        W71197  31.210  30.496   9.756
98938W        W71198  35.792  32.580   3.012
98939W        W71199  21.090  29.542   2.826
98940W        W71200  18.479  20.059  12.907
98941W        W71201  37.684  39.412  13.143
98942W        W71202  31.972  14.703  11.057
98943W        W71203  29.192   6.865   4.651
98944W        W71204  13.208  15.809   2.346
98945W        W71205  26.478  35.767  10.805
98946W        W71206   1.358  23.801  14.428
98947W        W71207   4.604  28.231  13.627
98948W        W71208  20.020   2.971   2.702
98949W        W71209  32.905  35.373  13.243
98950W        W71210   8.441  32.607   2.731
98951W        W71211  27.899  33.079   2.108
98952W        W71212  15.807  22.986   3.528
98953W        W71213  14.705  29.495   2.770
98954W        W71214  17.044  27.732   0.715
98955W        W71215  34.459  36.413   1.615
98956W        W71216   2.908  39.856   4.661
98957W        W71217  32.995   8.103  13.816
98958W        W71218  24.313  20.670   0.929
98959W        W71219  43.673  20.187  12.029
98960W        W71220  29.997   0.219   4.547
98961W        W71221  25.702  28.849  12.927
98962W        W71222   9.215  26.227  13.488
98963W        W71223  44.290  40.834   3.411
98964W        W71224  16.622  44.931   4.362
98965W        W71225  14.794  10.129   5.001
98966W        W71226  13.771   5.766  13.442
98967W        W71227  20.786  23.875  13.019
98968W        W71228  38.048   1.513   2.267
98969W        W71229  25.623  27.703   4.325
98970W        W71230  28.462  18.139  14.262
98971W        W71231  27.761  34.080  13.339
98972W        W71232  17.755  11.226  10.628
98973W        W71233   8.198   5.155   0.294
98974W        W71234  38.140   8.812   1.197
98975W        W71235  31.801  14.101  13.201
98976W        W71236  32.509  38.894  14.361
98977W        W71237  38.442  16.129  10.368
98978W        W71238  37.147   4.541   2.100
98979W        W71239   0.826  34.944  11.919
98980W        W71240  41.441  23.096  12.167
98981W        W71241  42.481   2.371  12.731
98982W        W71242  10.654   8.768  14.369
98983W        W71243  42.758  29.201  11.073
98984W        W71244   3.600  33.133   4.210
98985W        W71245  39.784  29.830  12.913
98986W        W71246  21.094   1.399  13.236
98987W        W71247  44.589  27.410  11.192
98988W        W71248  26.469  29.513  13.078
98989W        W71249  23.806  26.146  13.851
98990W        W71250   0.952  18.316   2.171
98991W        W71251  19.911  43.937  12.098
98992W        W71252   8.949  24.481  11.175
98993W        W71253   9.368  36.443   0.449
98994W        W71254  30.824  38.979  11.136
98995W        W71255  27.029  42.031  11.935
98996W        W71256   5.068   2.417  13.184
98997W        W71257  34.929  22.596   0.784
98998W        W71258  41.224   6.776  14.323
98999W        W71259  19.138  39.557   1.227
99000W        W71260  33.073   4.330  14.430
99001W        W71261  36.952  27.064  11.462
99002W        W71262   8.052  15.176  14.319
99003W        W71263  17.590  30.230  11.273
99004W        W71264  14.113  10.902  12.366
99005W        W71265  16.842  13.627   0.803
99006W        W71266  19.571  29.351  12.901
99007W        W71267   0.685  11.770  12.119
99008W        W71268   0.208  35.314   0.707
99009W        W71269  38.954  11.746   3.794
99010W        W71270  32.385  40.245   2.306
99011W        W71271  29.047  27.232   3.296
99012W        W71272  34.120  25.452  13.454
99013W        W71273   3.483  30.137   3.382
99014W        W71274  13.162  37.605  13.410
99015W        W71275   5.920  25.919   0.993
99016W        W71276  12.125   3.384  12.619
99017W        W71277  25.010  34.907   1.513
99018W        W71278  29.529  41.886   0.398
99019W        W71279  44.437  15.095   0.885
99020W        W71280  42.431  22.423   0.894
99021W        W71281  24.980  17.822  12.405
99022W        W71282  32.308  20.714   1.306
99023W        W71283   6.361  29.956  11.378
99024W        W71284   4.384  10.745   0.277
99025W        W71285  24.259  36.738   0.342
99026W        W71286  11.305   1.736   2.276
99027W        W71287  26.112   0.915   4.576
99028W        W71288  33.086  33.524  14.427
99029W        W71289   6.714  43.793   1.663
99030W        W71290  43.028  33.011  11.925
99031W        W71291  26.426  34.557  13.007
99032W        W71292  14.839  26.628  13.481
99033W        W71293  11.677  33.174  14.405
99034W        W71294  39.692  31.415  11.055
99035W        W71295  28.077  15.288  14.343
99036W        W71296  37.907   8.451  12.540
99037W        W71297  43.737   3.028   2.326
99038W        W71298  12.338  19.951   3.159
99039W        W71299  37.607   4.583  13.857
99040W        W71300  44.289  39.614  12.104
99041W        W71301   4.517  38.788  11.891
99042W        W71302  39.979  27.668  13.847
99043W        W71303  42.081   9.859   1.824
99044W        W71304  21.267  19.567   1.285
99045W        W71305  32.901  21.016  14.505
99046W        W71306  18.818  19.221  11.565
99047W        W71307  22.777  18.750   5.530
99048W        W71308   1.643   6.854  12.470
99049W        W71309  19.092  11.699  13.941
99050W        W71310   0.029  30.702  14.736
99051W        W71311  40.035   6.124  11.999
99052W        W71312   6.117  15.321   0.662
99053W        W71313  12.333  26.119  11.662
99054W        W71314   2.171   4.467  12.049
99055W        W71315   2.100   6.693   2.323
99056W        W71316  13.146   8.724  14.759
99057W        W71317  28.408   0.438   1.996
99058W        W71318  16.059  39.063  13.982
99059W        W71319  39.212  43.380   0.744
99060W        W71320  13.762   9.351   1.425
99061W        W71321  30.332  26.578  13.096
99062W        W71322   8.425  11.594   2.734
99063W        W71323   0.322  18.572  11.538
99064W        W71324   3.920  15.154   3.222
99065W        W71325  24.206  40.863   2.468
99066W        W71326  20.176  42.450  13.565
99067W        W71327  10.304  23.464  12.095
99068W        W71328  42.768   2.799   2.292
99069W        W71329  11.277  30.578  12.988
99070W        W71330  26.968  14.797   2.373
99071W        W71331   2.536  20.538  14.679
99072W        W71332   9.104  36.573   4.572
99073W        W71333  27.698  38.356   4.765
99074W        W71334  25.759  22.252   4.064
99075W        W71335  32.320  19.491   1.754
99076W        W71336  11.385  22.118  10.259
99077W        W71337  21.419  40.603   3.249
99078W        W71338  21.660  33.318  12.563
99079W        W71339  18.316  38.548  10.911
99080W        W71340  24.580  40.886  14.128
99081W        W71341  40.746  30.549   3.358
99082W        W71342  37.473  31.291   4.603
99083W        W71343  25.657   9.773  10.514
99084W        W71344  17.584  14.826   4.532
99085W        W71345  19.738  40.375  10.958
99086W        W71346  24.049   0.035  11.325
99087W        W71347  34.600  35.652   3.229
99088W        W71348  27.709  24.551   1.582
99089W        W71349   2.411  30.501  10.396
99090W        W71350  10.802  29.044   3.341
99091W        W71351  40.373  33.877   0.414
99092W        W71352   6.091   9.811  13.137
99093W        W71353   8.591  18.237  11.657
99094W        W71354   3.080  32.466   0.357
99095W        W71355   6.760  36.361   4.102
99096W        W71356  36.393  38.048  12.444
99097W        W71357   8.411  19.572  13.104
99098W        W71358   9.273  34.115  13.489
99099W        W71359   0.887  10.284   1.296
99100W        W71360  35.912   9.205   2.177
99101W        W71361  40.013  38.029  11.216
99102W        W71362  23.722  28.943   1.690
99103W        W71363  24.505  17.755  13.978
99104W        W71364  41.753  17.681   3.276
99105W        W71365  32.221  20.349   4.135
99106W        W71366  41.347  16.862  13.993
99107W        W71367  31.052  13.605   0.917
99108W        W71368   1.722  14.020  14.354
99109W        W71369  44.690  10.342  12.432
99110W        W71370  18.847  34.997   3.660
99111W        W71371  28.530  42.979  12.017
99112W        W71372   0.388  14.808   0.464
99113W        W71373  21.693  29.173   1.329
99114W        W71374  27.635  25.049   1.356
99115W        W71375  17.144   2.933  10.407
99116W        W71376  37.097   2.675   2.551
99117W        W71377   1.785  29.060  14.835
99118W        W71378  41.977   0.691  14.406
99119W        W71379  28.465  32.948  10.842
99120W        W71380  32.725  34.966   3.408
99121W        W71381   8.157  39.887  13.893
99122W        W71382   5.367   3.754   2.731
99123W        W71383  23.975  29.954  13.232
99124W        W71384   0.226  44.201   4.272
99125W        W71385  24.281  26.688  13.840
99126W        W71386  36.340  43.841  10.377
99127W        W71387  25.914  20.339   3.980
99128W        W71388  35.992  18.513   4.231
99129W        W71389  27.689  15.402  11.062
99130W        W71390  41.960  33.928   2.202
99131W        W71391  18.782  23.213   2.818
99132W        W71392  35.825  26.073  13.853
99133W        W71393  24.002  24.369  14.879
99134W        W71394   9.803  33.502  10.655
99135W        W71395   9.126  16.761  11.143
99136W        W71396  42.265  34.667   0.709
99137W        W71397  41.599   3.425   2.324
99138W        W71398  29.822   0.890   3.286
99139W        W71399  40.931   2.989   0.504
99140W        W71400  20.641   5.023   2.835
99141W        W71401   8.857  15.282  13.225
99142W        W71402  25.136  24.566   1.902
99143W        W71403  24.133  33.846  14.921
99144W        W71404  32.107  38.637  11.527
99145W        W71405  41.929  34.478  13.786
99146W        W71406   6.738  12.891   3.386
99147W        W71407   3.264  26.642   0.329
99148W        W71408  28.706   5.519   4.185
99149W        W71409  32.786  10.247   4.437
99150W        W71410  44.866  24.276  11.570
99151W        W71411  12.115  30.873  10.813
99152W        W71412  38.490  40.535   1.232
99153W        W71413  33.088   9.346   3.894
99154W        W71414  16.700   0.328   2.067
99155W        W71415   8.324  15.682   0.501
99156W        W71416  30.042  31.452  11.024
99157W        W71417  13.767   3.187   3.584
99158W        W71418  11.369  31.820  13.874
99159W        W71419  18.476  34.165   3.271
99160W        W71420  30.950  27.009  13.453
99161W        W71421  26.654  18.265  13.788
99162W        W71422   6.871  29.086  14.829
99163W        W71423  20.231   1.758   2.355
99164W        W71424  25.708  44.433   3.931
99165W        W71425  41.070   5.666   4.412
99166W        W71426  33.383  36.723   2.206
99167W        W71427  29.733  20.067  13.081
99168W        W71428   9.260   3.559   5.097
99169W        W71429  16.037  28.265  14.327
99170W        W71430  11.220   4.878  13.439
99171W        W71431  19.224  17.018   1.281
99172W        W71432  16.083  43.695   1.442
99173W        W71433  23.312  28.003  12.442
99174W        W71434  22.166  44.197   1.473
99175W        W71435  21.092  21.108   3.215
99176W        W71436  32.456  16.499   4.633
99177W        W71437   3.460  10.871  13.360
99178W        W71438  16.795  31.003   4.663
99179W        W71439  20.527  44.964  11.358
99180W        W71440  17.281  11.151  12.921
99181W        W71441  33.319  10.851  13.239
99182W        W71442  39.570  37.069   2.633
99183W        W71443   7.324  26.502  11.012
99184W        W71444  44.340   2.509  11.454
99185W        W71445  33.588   1.867  10.768
99186W        W71446  20.811   7.299  10.714
99187W        W71447   7.826  34.045   3.214
99188W        W71448   1.827  18.213  13.032
99189W        W71449   9.272  44.412  12.016
99190W        W71450  31.037  36.017  13.323
99191W        W71451   2.226  38.129   4.556
99192W        W71452  41.624  11.107  12.541
99193W        W71453  35.579  38.831  11.925
99194W        W71454  35.353  25.521  13.036
99195W        W71455  11.864   2.748   2.761
99196W        W71456  25.011  23.636   0.497
99197W        W71457  21.054   5.469   2.122
99198W        W71458  17.886  41.395   4.661
99199W        W71459  31.318   9.038   0.742
99200W        W71460   1.016   4.796   0.019
99201W        W71461  19.217  30.032  13.823
99202W        W71462   9.548  32.692   0.708
99203W        W71463  44.457  44.610  12.781
99204W        W71464  30.033  33.616  14.085
99205W        W71465   7.524  12.176   0.394
99206W        W71466  34.949  18.389  10.789
99207W        W71467   2.408  16.833   1.082
99208W        W71468  18.613  27.233  11.078
99209W        W71469   2.684  34.637   1.562
99210W        W71470   5.396  11.086  13.409
99211W        W71471   2.488  16.173   2.292
99212W        W71472  26.598  29.727   4.566
99213W        W71473  27.048  10.687  14.966
99214W        W71474  20.713  37.269   4.195
99215W        W71475  34.623  37.382  13.388
99216W        W71476  41.287  29.024  10.668
99217W        W71477  22.621   9.696  12.427
99218W        W71478   5.334  32.383   3.740
99219W        W71479  21.671  34.878  11.157
99220W        W71480  14.411   1.686  10.533
99221W        W71481  30.648   0.805  11.412
99222W        W71482   7.049   3.356  13.260
99223W        W71483  23.035   1.501   3.252
99224W        W71484   0.204  33.237   1.690
99225W        W71485  10.330  29.662   1.847
99226W        W71486  19.080   6.967  14.533
99227W        W71487  17.339  25.916  14.048
99228W        W71488   8.418   5.968   0.929
99229W        W71489  14.152  30.442  11.617
99230W        W71490  30.904  20.605   4.210
99231W        W71491   4.030   2.948  14.087
99232W        W71492   7.359   7.886   4.020
99233W        W71493  22.261  12.150  12.918
99234W        W71494  38.917  34.339   4.603
99235W        W71495  18.035  44.579   4.287
99236W        W71496  43.901  19.685  10.752
99237W        W71497  32.849  22.626  14.295
99238W        W71498   1.584   6.847   4.510
99239W        W71499  40.444  31.124  13.763
99240W        W71500  20.544   6.232  11.997
99241W        W71501  39.424  33.917   0.823
99242W        W71502  25.707  40.054   3.855
99243W        W71503  44.880  12.227   3.095
99244W        W71504  37.056  36.231   1.208
99245W        W71505   1.441   8.205  13.403
99246W        W71506  41.622   6.813  11.663
99247W        W71507  26.045  40.196  10.265
99248W        W71508  11.920   6.738  13.539
99249W        W71509  31.596  29.144   4.503
99250W        W71510  36.077  24.115  13.884
99251W        W71511  40.339  12.651   1.868
99252W        W71512  22.647  36.991  10.924
99253W        W71513   8.776  22.695  12.852
99254W        W71514  39.356   1.776   3.709
99255W        W71515  33.081  39.413  13.896
99256W        W71516   4.717  14.777   1.356
99257W        W71517  25.695  30.401  12.028
99258W        W71518  21.572  42.921   4.084
99259W        W71519  31.515  42.631  12.190
99260W        W71520  26.542  12.601  11.109
99261W        W71521  36.011   8.762   2.427
99262W        W71522  38.118  43.984  11.217
99263W        W71523   3.843  33.106   1.731
99264W        W71524  35.223  44.725   4.225
99265W        W71525  40.660  37.522  11.070
99266W        W71526  37.001  32.930  12.568
99267W        W71527  20.587  14.882  12.612
99268W        W71528  32.717  42.514   4.261
99269W        W71529  17.654   4.745   2.831
99270W        W71530  33.380   7.546  11.626
99271W        W71531  10.355  39.361  11.991
99272W        W71532  24.609  21.379   0.722
99273W        W71533   4.817  29.667   4.416
99274W        W71534   6.260  37.891  14.945
99275W        W71535  43.933  41.808   4.639
99276W        W71536   6.644  24.005  10.775
99277W        W71537  12.064  17.616  13.823
99278W        W71538  25.104   4.763   4.598
99279W        W71539  31.544  25.996  14.917
99280W        W71540  41.323  12.798  12.048
99281W        W71541  17.791   6.266  10.326
99282W        W71542  14.626   6.774   3.137
99283W        W71543  31.022  13.442   4.786
99284W        W71544  36.516  34.576  14.280
99285W        W71545  16.125   7.712  11.543
99286W        W71546  21.479  42.478   3.226
99287W        W71547   4.022   1.260  12.077
99288W        W71548  31.461  19.453   0.195
99289W        W71549  43.397  21.675   1.486
99290W        W71550  21.222  21.508   1.351
99291W        W71551   9.554   3.833   4.748
99292W        W71552  37.801   8.302  11.192
99293W        W71553  23.124  28.216  11.992
99294W        W71554  31.983   8.237   0.639
99295W        W71555  44.938  28.724   2.145
99296W        W71556  36.331  38.313   3.671
99297W        W71557  39.287  35.977  12.064
99298W        W71558   4.245  18.674  11.272
99299W        W71559   9.904   5.399   0.805
99300W        W71560  43.361   7.989   2.362
99301W        W71561  21.680   8.308   1.216
99302W        W71562  25.965  39.757   0.427
99303W        W71563   2.665  10.672   1.695
99304W        W71564   4.771   5.628  13.005
99305W        W71565  19.218   3.722  14.804
99306W        W71566  16.345  35.488  11.102
99307W        W71567  20.754  34.819  14.912
99308W        W71568  16.076  29.827  10.707
99309W        W71569  23.570  43.640   3.272
99310W        W71570   1.823   4.176   2.377
99311W        W71571  17.614  15.299   0.495
99312W        W71572  25.916  29.520   1.912
99313W        W71573  37.982   0.224   4.110
99314W        W71574  38.832  43.591  10.715
99315W        W71575   7.342   9.885  13.669
99316W        W71576  37.548  16.609  12.623
99317W        W71577  16.372   8.113   2.743
99318W        W71578  39.029  24.418  13.004
99319W        W71579  26.825   1.946  11.461
99320W        W71580   8.367  17.998   0.010
99321W        W71581  28.454   1.341   2.887
99322W        W71582  39.619  38.819  11.606
99323W        W71583  28.021  22.421  11.503
99324W        W71584  12.101  41.341  14.940
99325W        W71585  22.654   9.451  14.472
99326W        W71586   3.321   1.286  14.373
99327W        W71587  19.583  32.957  13.166
99328W        W71588   6.957   6.933   3.066
99329W        W71589  25.889   8.372  12.435
99330W        W71590  42.871  37.586   1.872
99331W        W71591  13.867  43.392  13.342
99332W        W71592  10.881  13.369   4.113
99333W        W71593  44.795  29.675  11.447
99334W        W71594  18.099  11.066   3.612
99335W        W71595  40.007   8.292  11.968
99336W        W71596   1.284  22.034   1.400
99337W        W71597  17.105  34.933   1.861
99338W        W71598   7.631   1.484   1.874
99339W        W71599  22.698  32.444  12.601
99340W        W71600  26.147  33.248  11.138
99341W        W71601  38.404   8.332  12.653
99342W        W71602  21.163  23.499   3.252
99343W        W71603  17.108  30.356  12.929
99344W        W71604  31.297  31.676  14.427
99345W        W71605  23.719  40.855   0.873
99346W        W71606  33.934  23.711   3.846
99347W        W71607  30.958  32.545   2.554
99348W        W71608  44.360  28.587  11.067
99349W        W71609  40.087  18.343   2.900
99350W        W71610  41.858  14.675   4.317
99351W        W71611  27.469  38.301  14.823
99352W        W71612  36.803  19.683   3.721
99353W        W71613  14.903  27.389   0.514
99354W        W71614  43.045  11.797   1.493
99355W        W71615   0.384  20.235   3.173
99356W        W71616   1.783  12.788  13.902
99357W        W71617  15.250  30.758  14.518
99358W        W71618  36.635   4.443  13.130
99359W        W71619  26.189  26.043   1.760
99360W        W71620  16.045  41.653   3.317
99361W        W71621  10.854   4.440  12.938
99362W        W71622  37.675   0.467   2.754
99363W        W71623  44.588  34.459  12.979
99364W        W71624  35.185  15.976   4.272
99365W        W71625  17.484  28.051  13.350
99366W        W71626   1.409  10.268  13.943
99367W        W71627  22.269  34.365   3.489
99368W        W71628  37.055  20.171  10.665
99369W        W71629  35.886  24.097  12.974
99370W        W71630  32.636  30.367   0.021
99371W        W71631  19.133  22.336   4.144
99372W        W71632  34.182   7.220   3.948
99373W        W71633  30.878  11.875   0.358
99374W        W71634   3.376  27.126  12.131
99375W        W71635   4.982   3.570  11.535
99376W        W71636  34.545  42.954   3.532
99377W        W71637  35.863  38.178  11.067
99378W        W71638  40.741   2.245  14.612
99379W        W71639   3.495  35.398   3.727
99380W        W71640  29.456   1.763  10.511
99381W        W71641  18.724  40.676   0.891
99382W        W71642  42.975   0.990  12.380
99383W        W71643  16.236  36.092   2.745
99384W        W71644  22.789  30.195   3.870
99385W        W71645  13.795   5.249  12.049
99386W        W71646  44.831  35.438  13.366
99387W        W71647  20.505  42.189   0.723
99388W        W71648  25.657  36.761  13.947
99389W        W71649  39.781  34.347  12.402
99390W        W71650  33.496  23.985   0.009
99391W        W71651  19.487  31.630   4.632
99392W        W71652  33.412  32.425  10.504
99393W        W71653  21.586   5.480  14.967
99394W        W71654  32.140  11.725   4.266
99395W        W71655   0.338   4.465  12.029
99396W        W71656  17.646  23.435   2.647
99397W        W71657  19.837  23.727   0.852
99398W        W71658  36.479  38.733   1.896
99399W        W71659  22.095  23.329  11.795
99400W        W71660  34.230  20.807   1.488
99401W        W71661   8.846   7.315  12.665
99402W        W71662  34.369  24.596  11.350
99403W        W71663   7.283  43.499  14.956
99404W        W71664  27.968  20.567  11.476
99405W        W71665   4.359  20.462  11.970
99406W        W71666  17.199   9.312   1.705
99407W        W71667  37.077  16.670   3.683
99408W        W71668  10.263  39.950  14.999
99409W        W71669  14.287  28.596  11.319
99410W        W71670   1.099  40.531   3.507
99411W        W71671  38.266  31.854  14.411
99412W        W71672  40.472  29.213   2.089
99413W        W71673   4.405  16.327  11.150
99414W        W71674   4.864  34.895  13.796
99415W        W71675  26.965  34.085   0.937
99416W        W71676   7.814   6.864   4.184
99417W        W71677  37.147  34.559  12.414
99418W        W71678  13.621  26.686   4.595
99419W        W71679  35.064  37.038  14.514
99420W        W71680  20.952  32.208   1.727
99421W        W71681  22.731  30.864  11.586
99422W        W71682  36.656  38.820  13.573
99423W        W71683  41.460  24.504   3.634
99424W        W71684   8.213  29.987   3.303
99425W        W71685   5.992   2.920   2.542
99426W        W71686  29.558  40.433   0.934
99427W        W71687   0.006  41.216   2.693
99428W        W71688  14.928  23.595   3.327
99429W        W71689  31.105   1.971  11.661
99430W        W71690  34.059  18.245   1.930
99431W        W71691  30.130   7.788   4.064
99432W        W71692  20.281  42.089  12.882
99433W        W71693  10.350   6.126  11.147
99434W        W71694  26.041  24.161  11.154
99435W        W71695  21.773  31.355  10.777
99436W        W71696  20.243  32.578  11.223
99437W        W71697   0.381   1.906   3.858
99438W        W71698  29.404  35.843   0.688
99439W        W71699  31.703  27.153   3.756
99440W        W71700  20.068  42.218  12.429
99441W        W71701  32.705  18.572  11.085
99442W        W71702  39.509  24.297   4.695
99443W        W71703   3.894   9.176  13.146
99444W        W71704  43.329   4.199   1.743
99445W        W71705  27.842  40.820  14.456
99446W        W71706  35.509  28.483   1.972
99447W        W71707   8.655   0.437   1.794
99448W        W71708  37.625   6.431   2.850
99449W        W71709   0.286  13.066  14.472
99450W        W71710   3.206  36.925  11.029
99451W        W71711  33.871  43.228  14.466
99452W        W71712   4.867  39.317   2.494
99453W        W71713  33.393  27.606   4.030
99454W        W71714  18.326  37.628   2.788
99455W        W71715  30.081  30.431   4.706
99456W        W71716   6.284   8.520   2.990
99457W        W71717   4.882  24.899   4.882
99458W        W71718  24.825  13.217   3.404
99459W        W71719  36.364  44.504   1.824
99460W        W71720  32.534  39.328   3.410
99461W        W71721  16.726  27.490  14.984
99462W        W71722  11.316   2.875  13.520
99463W        W71723  17.784  30.988   0.239
99464W        W71724  42.570  32.408  12.578
99465W        W71725  37.519  23.305   1.583
99466W        W71726  10.235  32.151  11.531
99467W        W71727  27.793  18.149  10.436
99468W        W71728  24.449  34.987  13.433
99469W        W71729   0.231  40.399   2.413
99470W        W71730   6.925   3.731  12.407
99471W        W71731  24.107  43.659   0.911
99472W        W71732  36.356   9.775  14.545
99473W        W71733   6.844  35.620   2.659
99474W        W71734  42.126  35.496  11.922
99475W        W71735  15.015  13.224   0.414
99476W        W71736  12.306  35.605  11.148
99477W        W71737  23.115  44.134  12.574
99478W        W71738  34.648  13.580  12.392
99479W        W71739  24.176  14.228   0.298
99480W        W71740  15.658   0.713   1.875
99481W        W71741  27.685  12.623   3.210
99482W        W71742  37.912  22.104  12.546
99483W        W71743  35.453   0.895   2.752
99484W        W71744  15.668  35.358   4.281
99485W        W71745  42.991  20.111   1.533
99486W        W71746  42.262  13.441  11.198
99487W        W71747  31.531  39.375  12.026
99488W        W71748   6.844  13.333  10.754
99489W        W71749  29.170  15.041  12.774
99490W        W71750  41.281   6.944  12.026
99491W        W71751  43.741  25.546   0.634
99492W        W71752  30.181  17.074  11.549
99493W        W71753   2.177  40.370   1.642
99494W        W71754  25.978  13.428   0.261
99495W        W71755  25.622  24.784   1.894
99496W        W71756  39.228  25.971   1.705
99497W        W71757  11.036  17.768   1.203
99498W        W71758  22.622  33.671   4.818
99499W        W71759  27.458  17.254  11.872
99500W        W71760   9.245  19.912  11.109
99501W        W71761  27.591  40.052  13.658
99502W        W71762  37.920  36.595  11.739
99503W        W71763   5.691  12.054   3.175
99504W        W71764   0.976  19.586   5.049
99505W        W71765  15.328  24.695  14.832
99506W        W71766   4.471  38.139   2.787
99507W        W71767  18.361  33.428  10.732
99508W        W71768  19.624   0.276   2.835
99509W        W71769  11.911  10.242   0.916
99510W        W71770  40.771  26.982  11.528
99511W        W71771   4.511   0.473  13.548
99512W        W71772  20.730   0.446  12.523
99513W        W71773  29.647  40.411   2.861
99514W        W71774   5.074  13.335   2.928
99515W        W71775  26.656  38.371   1.704
99516W        W71776  37.791   7.382   3.178
99517W        W71777  44.659  20.843  11.086
99518W        W71778  34.645  39.082   2.327
99519W        W71779  41.239  24.691  14.465
99520W        W71780   6.938  31.601   4.844
99521W        W71781   8.691  39.406  13.537
99522W        W71782   3.027  30.093  10.763
99523W        W71783  28.534  44.597   3.118
99524W        W71784  11.617  28.704  10.629
99525W        W71785  15.509  14.347  14.357
99526W        W71786   1.308  40.546   0.397
99527W        W71787  10.265  19.127  11.832
99528W        W71788  26.387   0.057   4.305
99529W        W71789  41.831   7.504  13.379
99530W        W71790  44.528  25.394   1.314
99531W        W71791  40.248  39.097   0.019
99532W        W71792  43.855   4.656   2.271
99533W        W71793  23.497  33.786  13.324
99534W        W71794  32.252  21.731  14.225
99535W        W71795  14.010  39.252   3.628
99536W        W71796  11.198  34.053  11.522
99537W        W71797  32.500  37.564  12.058
99538W        W71798  27.040  35.724  13.282
99539W        W71799  29.253  38.926  11.426
99540W        W71800  38.297  25.004   4.166
99541W        W71801  27.910  44.844   1.023
99542W        W71802   3.763  24.605   1.266
99543W        W71803  23.718  43.493   2.235
99544W        W71804  24.082  25.086  14.308
99545W        W71805  26.397  20.610  14.937
99546W        W71806  38.846  29.119  10.568
99547W        W71807   2.803  21.451   1.368
99548W        W71808  33.798  42.125  11.180
99549W        W71809  29.453  41.277  11.573
99550W        W71810  42.437  35.682   3.996
99551W        W71811  25.081   3.267   2.975
99552W        W71812  37.834  34.821  11.769
99553W        W71813   6.808  17.715  14.497
99554W        W71814   2.042  13.619   1.338
99555W        W71815  21.037  23.943  13.498
99556W        W71816  41.842   0.831   0.896
99557W        W71817  32.973  30.047  12.241
99558W        W71818  37.082  19.551  12.825
99559W        W71819  35.373  22.701  11.106
99560W        W71820  39.136  17.279  13.413
99561W        W71821  42.681   2.933   0.316
99562W        W71822   1.988  33.469   2.771
99563W        W71823  41.245  12.907   4.222
99564W        W71824  11.221  25.717   3.421
99565W        W71825  38.872   6.836   5.128
99566W        W71826   2.323  21.071  11.948
99567W        W71827  31.690   3.559   5.018
99568W        W71828  20.419  33.677   0.332
99569W        W71829  18.484   5.172   9.510
99570W        W71830  19.842  18.143   4.203
99571W        W71831   2.368  34.460   2.829
99572W        W71832  24.336   7.372   5.026
99573W        W71833  40.241   2.211  14.492
99574W        W71834   0.944  27.151   0.494
99575W        W71835  36.894  38.007  13.322
99576W        W71836  24.468  35.521   0.303
99577W        W71837  35.898   8.751  11.923
99578W        W71838   8.367  33.445   1.584
99579W        W71839  34.179  36.865   3.941
99580W        W71840  42.076  12.603  10.710
99581W        W71841  30.556  38.124  12.944
99582W        W71842  28.739  20.714  11.940
99583W        W71843  27.220  21.797   0.782
99584W        W71844  43.490  35.664   0.811
99585W        W71845  10.464  40.252   0.406
99586W        W71846  12.215  11.329  10.710
99587W        W71847  18.089  42.785  13.374
99588W        W71848  35.768  14.022   0.936
99589W        W71849  39.090  17.781  13.577
99590W        W71850  39.845  16.270  11.390
99591W        W71851  29.700  31.891   2.441
99592W        W71852  20.072  30.688   0.329
99593W        W71853  16.619  27.496   3.118
99594W        W71854  14.206  16.317   3.101
99595W        W71855  12.078  39.875   3.581
99596W        W71856  13.807  26.130   3.698
99597W        W71857  10.293  24.237   1.218
99598W        W71858  31.122  39.419  11.028
99599W        W71859   9.658  12.336  10.778
99600W        W71860  40.603  36.447   3.215
99601W        W71861   1.409  28.876  13.145
99602W        W71862   1.965  12.100  14.520
99603W        W71863  26.972  29.590   0.339
99604W        W71864  26.232   1.227  14.513
99605W        W71865  31.556  12.309   1.358
99606W        W71866  40.579   3.339   0.987
99607W        W71867  11.820  38.993   0.119
99608W        W71868  30.928   4.349  10.680
99609W        W71869  17.975  18.616   4.239
99610W        W71870  36.950   9.191  12.960
99611W        W71871  11.079  25.515   1.363
99612W        W71872   2.233  18.169   0.760
99613W        W71873  32.521   1.442   1.547
99614W        W71874  44.468   1.903   1.003
99615W        W71875  33.117  26.657   0.846
99616W        W71876  18.505   1.395   0.354
99617W        W71877  41.522   5.699   4.151
99618W        W71878  11.806  30.103  14.792
99619W        W71879   1.242   0.995   3.618
99620W        W71880  16.275  42.371  13.492
99621W        W71881   4.772   1.790   4.436
99622W        W71882  37.512   4.258  12.332
99623W        W71883  16.919  36.775  12.024
99624W        W71884  28.231   7.381  11.055
99625W        W71885  15.536  16.163   3.728
99626W        W71886  22.276   4.761   3.122
99627W        W71887  17.641  28.909  12.460
99628W        W71888  10.730   6.615   0.850
99629W        W71889   2.191   9.837   4.752
99630W        W71890  20.053  38.545  14.359
99631W        W71891  10.532  24.963   0.836
99632W        W71892  39.112  18.777  12.873
99633W        W71893  13.706   8.772   4.629
99634W        W71894  24.014  25.714  11.145
99635W        W71895  16.367  33.978   0.603
99636W        W71896  34.076  16.057  12.626
99637W        W71897  42.185   7.413   1.698
99638W        W71898   4.408  18.165  14.442
99639W        W71899  31.940  13.733  10.663
99640W        W71900  22.983  24.208  10.702
99641W        W71901  29.114  18.032   4.057
99642W        W71902   6.891   0.770   2.882
99643W        W71903  17.205  43.955   2.431
99644W        W71904   0.948  26.115   3.221
99645W        W71905  13.360  32.504  13.669
99646W        W71906   1.750  20.077   2.216
99647W        W71907  34.993  31.923   3.216
99648W        W71908  24.548  24.134  14.812
99649W        W71909  32.403  25.138  13.365
99650W        W71910  28.569   7.300  14.278
99651W        W71911  34.630  17.963   5.139
99652W        W71912  30.686   7.232  13.906
99653W        W71913  39.829   7.207  13.413
99654W        W71914  19.052  22.165  11.190
99655W        W71915  22.681   8.544  10.563
99656W        W71916  11.222  14.073   3.283
99657W        W71917  11.789   1.933   0.966
99658W        W71918  40.766  20.495  14.752
99659W        W71919  33.419  14.904   1.340
99660W        W71920  18.586  42.322   1.957
99661W        W71921   1.719  36.974   3.190
99662W        W71922  37.190  35.124  14.418
99663W        W71923  41.761   6.238  14.348
99664W        W71924   1.984  33.021  11.978
99665W        W71925   2.335  34.252  13.464
99666W        W71926  11.116  10.267   4.157
99667W        W71927   3.199  29.039   3.365
99668W        W71928   6.109  31.862  13.844
99669W        W71929   2.015  27.164   1.415
99670W        W71930  16.274  28.074  12.792
99671W        W71931  30.055  12.291  12.524
99672W        W71932  10.125   9.164  10.565
99673W        W71933  25.544  18.228   4.926
99674W        W71934  21.192  42.047   3.136
99675W        W71935  27.136  11.809  11.230
99676W        W71936  42.274  17.722   1.841
99677W        W71937   4.266   7.338  13.839
99678W        W71938  24.444  24.506  11.594
99679W        W71939  42.027  26.615  13.965
99680W        W71940  29.322  43.109   4.694
99681W        W71941   2.538  37.486   1.215
99682W        W71942  35.025  32.464   4.009
99683W        W71943   5.932  27.517   3.128
99684W        W71944  12.368  37.285  12.361
99685W        W71945  13.086   7.684  12.493
99686W        W71946  37.674  36.174   4.264
99687W        W71947  12.612   8.388   0.240
99688W        W71948  23.870  34.155  12.520
99689W        W71949  24.331  38.898   4.563
99690W        W71950   8.756  30.444  13.691
99691W        W71951  21.237  26.041   4.527
99692W        W71952  29.978  27.555   0.946
99693W        W71953  28.774  28.833   0.448
99694W        W71954  10.033   5.450  11.581
99695W        W71955  14.094  29.075  11.450
99696W        W71956  13.861  19.548   0.019
99697W        W71957  37.089   7.689  11.894
99698W        W71958  30.988   4.388   4.148
99699W        W71959  25.788  44.834   3.100
99700W        W71960  26.599  28.504   1.757
99701W        W71961   6.391  23.191   2.143
99702W        W71962  22.255  33.583  14.469
99703W        W71963  29.533   7.675   4.884
99704W        W71964  23.686  29.495   0.533
99705W        W71965  31.643  34.936  10.869
99706W        W71966  31.974  26.123   5.340
99707W        W71967   3.688  34.789  13.100
99708W        W71968  11.795  20.453   0.663
99709W        W71969   3.824  35.907   1.676
99710W        W71970  17.917  38.291  12.547
99711W        W71971  41.326  27.431  12.173
99712W        W71972  37.667  21.088   3.671
99713W        W71973  43.721  40.633  13.842
99714W        W71974  33.568  28.378   0.868
99715W        W71975  14.821  37.809  10.644
99716W        W71976  22.274   8.679  14.268
99717W        W71977   2.624  33.176   4.206
99718W        W71978  22.299  24.271   3.223
99719W        W71979   1.333  35.912  10.717
99720W        W71980  31.996  23.309  12.008
99721W        W71981  40.861  44.565  12.497
99722W        W71982  20.666  24.319   3.332
99723W        W71983  19.508  29.147  14.955
99724W        W71984  11.980  25.382   4.375
99725W        W71985   4.779   2.294  10.627
99726W        W71986  44.988   8.662  14.894
99727W        W71987   2.299  34.351   1.766
99728W        W71988   0.917   2.730  14.787
99729W        W71989   1.877  31.402   3.660
99730W        W71990  38.317  36.656   0.370
99731W        W71991  37.998  30.540  12.177
99732W        W71992  19.196  39.106  13.831
99733W        W71993   7.659  35.579  14.356
99734W        W71994  21.280   3.376   0.886
99735W        W71995  42.052  31.332   0.304
99736W        W71996  10.929  37.776  13.431
99737W        W71997  19.074  27.885   4.240
99738W        W71998  17.293  40.271   4.186
99739W        W71999   7.752  24.986   4.300
99740W        W72000  13.609   9.187  14.869
99741W        W72001  24.629  13.559  10.610
99742W        W72002   6.521  42.387   0.200
99743W        W72003   6.753  15.662   1.187
99744W        W72004  36.041  13.195  13.786
99745W        W72005   4.352  22.289  14.389
99746W        W72006  35.610  38.561  11.471
99747W        W72007  16.689  27.636  12.968
99748W        W72008  16.719  17.293  10.621
99749W        W72009  14.655   0.153  13.515
99750W        W72010  17.322  12.963  14.304
99751W        W72011  28.598  44.954   2.742
99752W        W72012  23.032  36.705  13.416
99753W        W72013   0.087  26.776  14.605
99754W        W72014  26.645  36.873   3.213
99755W        W72015  20.682  24.557   0.370
99756W        W72016   5.744   0.856   0.817
99757W        W72017  38.259  33.366  12.993
99758W        W72018  44.729   7.976   1.221
99759W        W72019  28.123   0.864  14.583
99760W        W72020  11.767  17.559  12.339
99761W        W72021  19.312  34.933   1.438
99762W        W72022  10.914  41.280   3.896
99763W        W72023  28.403   5.308  11.835
99764W        W72024   0.846   6.351  13.370
99765W        W72025   7.382  25.923   9.869
99766W        W72026  15.773   2.556   4.671
99767W        W72027  21.771   8.893  13.311
99768W        W72028  19.307   5.144   4.324
99769W        W72029  24.121   0.345   1.219
99770W        W72030   2.737   0.358   1.151
99771W        W72031   3.723  16.177  14.477
99772W        W72032  19.226  44.560  10.703
99773W        W72033  18.519   2.618  13.404
99774W        W72034  27.752  25.517   0.057
99775W        W72035   8.693  23.695   1.041
99776W        W72036   1.378  11.177   2.638
99777W        W72037   9.346  43.980   1.514
99778W        W72038   3.463  13.893  14.472
99779W        W72039   9.803  19.223  12.083
99780W        W72040  22.683  11.719   4.167
99781W        W72041  16.294   9.087   0.837
99782W        W72042   9.627  32.130  13.246
99783W        W72043  15.337   7.350   0.834
99784W        W72044  15.692  21.987   1.766
99785W        W72045  35.228  32.584  12.750
99786W        W72046  16.581  14.515  11.589
99787W        W72047  24.562  22.718  14.746
99788W        W72048  33.709   5.450   4.980
99789W        W72049  35.029   6.666  13.439
99790W        W72050  40.347   3.390  11.192
99791W        W72051   3.187   9.324   4.013
99792W        W72052  44.355   8.364  10.851
99793W        W72053  40.211  20.233  12.836
99794W        W72054   9.577  34.956  13.473
99795W        W72055   3.247  28.646  10.627
99796W        W72056  25.913   0.985  12.109
99797W        W72057  40.819  14.270   2.165
99798W        W72058  13.676  16.735   0.048
99799W        W72059  20.816  17.610  11.213
99800W        W72060   9.153  18.277   3.819
99801W        W72061  10.862  25.053  14.507
99802W        W72062  34.578  27.849   2.255
99803W        W72063  43.614  28.585   4.958
99804W        W72064  44.564  35.659  11.495
99805W        W72065  19.008   1.931   4.217
99806W        W72066  36.932  10.724  13.038
99807W        W72067  24.030  35.569  13.391
99808W        W72068   4.263  27.469   2.282
99809W        W72069  31.702   1.617  11.085
99810W        W72070  13.494  26.504  11.893
99811W        W72071  14.890  43.005   4.540
99812W        W72072  15.060  34.778  13.353
99813W        W72073  33.569  44.616   4.671
99814W        W72074  25.021  35.633  12.423
99815W        W72075   7.814  43.135  13.848
99816W        W72076  32.959  36.899  10.958
99817W        W72077  41.516  40.823  11.667
99818W        W72078  25.752  11.154  13.547
99819W        W72079  12.602   3.002   3.310
99820W        W72080  17.747  32.915   4.478
99821W        W72081  19.079   8.136   2.116
99822W        W72082  33.565  18.306  12.040
99823W        W72083  20.776  37.505   0.893
99824W        W72084  12.417  24.182  11.471
99825W        W72085  41.060  28.456  12.858
99826W        W72086   0.936  31.699   0.309
99827W        W72087  35.604  16.985  11.647
99828W        W72088  13.635  23.635   0.308
99829W        W72089   1.062   7.873  12.966
99830W        W72090   7.422   5.498  11.006
99831W        W72091  34.916  44.779   4.640
99832W        W72092  23.577  43.854  12.520
99833W        W72093  17.560  10.798  11.981
99834W        W72094  40.455  37.781   1.284
99835W        W72095  38.972   2.774  14.934
99836W        W72096  17.632  18.908  13.127
99837W        W72097   2.559  22.494   0.512
99838W        W72098   3.359   4.888  11.412
99839W        W72099  27.710  15.355   2.184
99840W        W72100  32.982  21.128   2.019
99841W        W72101  43.094   9.320  14.957
99842W        W72102   2.993  34.573  12.657
99843W        W72103   4.811  28.111   3.732
99844W        W72104  10.766   2.377  12.466
99845W        W72105  34.971   7.902  10.850
99846W        W72106   0.325  29.748  13.272
99847W        W72107  14.982  39.475   5.119
99848W        W72108  26.511  23.622  10.698
99849W        W72109  11.737  33.504   0.771
99850W        W72110  35.672  15.216   1.335
99851W        W72111  39.860  17.694  11.686
99852W        W72112  26.667  21.729   3.454
99853W        W72113   9.509  43.470   0.882
99854W        W72114  28.079   7.174  10.582
99855W        W72115  20.401  21.718   3.356
99856W        W72116  19.142  23.756  14.503
99857W        W72117  19.530  17.352  13.979
99858W        W72118  44.447  31.870  11.101
99859W        W72119  38.923  19.661  11.841
99860W        W72120  34.221  43.327   3.039
99861W        W72121  27.272  34.543   0.089
99862W        W72122  34.379   2.874  11.077
99863W        W72123  33.251  12.944  10.931
99864W        W72124  39.095   6.447   3.554
99865W        W72125   3.867  36.134  12.450
99866W        W72126  31.703   0.925   3.795
99867W        W72127  36.574  18.845  13.432
99868W        W72128  20.414  43.724  13.725
99869W        W72129  37.177  16.550  10.565
99870W        W72130  12.813  33.985  14.429
99871W        W72131  24.234  12.132   2.203
99872W        W72132  33.898  15.377   4.154
99873W        W72133  20.080  26.404  12.574
99874W        W72134  24.221  16.363   2.715
99875W        W72135  26.917  11.866   1.222
99876W        W72136  15.066  27.044  12.403
99877W        W72137  33.280  20.771   2.248
99878W        W72138  41.810  18.798   1.546
99879W        W72139  12.171  10.098  13.461
99880W        W72140  37.308  31.388  13.476
99881W        W72141  38.403  18.131   0.598
99882W        W72142   6.703  32.211  12.021
99883W        W72143  31.345  13.183  13.486
99884W        W72144  42.330  24.034   3.797
99885W        W72145  16.600  22.246   1.319
99886W        W72146  12.471  41.993   2.019
99887W        W72147   4.091  27.989   3.187
99888W        W72148   3.478   7.241   2.271
99889W        W72149  21.563  30.448  12.480
99890W        W72150  12.815  30.445   3.081
99891W        W72151  11.754  30.343  10.141
99892W        W72152  20.078   8.176  13.419
99893W        W72153   8.689  12.440   0.812
99894W        W72154  33.326  43.954  11.113
99895W        W72155  33.449  11.891   2.299
99896W        W72156  28.646  14.551  10.903
99897W        W72157  11.800  44.271  10.756
99898W        W72158   2.495  16.620  12.422
99899W        W72159  27.510  14.153  11.653
99900W        W72160   7.808  11.446  10.226
99901W        W72161   8.388  35.049   0.793
99902W        W72162  16.247  32.387   1.928
99903W        W72163  26.498  16.802   4.532
99904W        W72164   2.390   6.269   0.908
99905W        W72165   0.760  17.168  12.168
99906W        W72166   7.322  11.676  14.499
99907W        W72167  32.493  22.045  14.588
99908W        W72168  29.959  23.358   1.445
99909W        W72169  19.298  21.832   4.114
99910W        W72170  33.378  14.105  11.472
99911W        W72171  24.644  40.452   1.176
99912W        W72172   8.955  18.618  11.677
99913W        W72173  11.924  41.730   2.941
99914W        W72174  44.607  16.250  13.027
99915W        W72175  41.065  26.182   0.019
99916W        W72176   9.141  28.163   3.345
99917W        W72177  31.676  29.837   4.191
99918W        W72178   7.851  10.080   2.204
99919W        W72179   4.609  31.571  13.303
99920W        W72180  36.530  44.151  11.159
99921W        W72181  25.115  37.326  14.421
99922W        W72182  13.237  27.692   2.766
99923W        W72183  18.281  32.997  11.999
99924W        W72184  40.922   4.649   4.557
99925W        W72185  34.612  33.868  13.334
99926W        W72186  16.220  42.000   2.525
99927W        W72187  36.270  23.918   2.309
99928W        W72188   9.745  31.937   1.343
99929W        W72189  10.673  18.664  10.660
99930W        W72190   1.838  30.053   4.769
99931W        W72191   6.566  38.085   0.412
99932W        W72192  24.611   1.719   0.779
99933W        W72193  42.597  14.812   3.001
99934W        W72194  20.220  30.062  10.710
99935W        W72195  39.186  16.312  12.529
99936W        W72196  18.514  27.205   2.136
99937W        W72197  29.636  20.960   0.752
99938W        W72198  16.505   3.446  12.920
99939W        W72199  24.523  25.595   1.378
99940W        W72200   0.749  20.484  12.051
99941W        W72201   7.698  31.030  12.744
99942W        W72202  38.523   3.813   3.760
99943W        W72203  37.694   9.720   9.552
99944W        W72204   6.220  34.107  10.364
99945W        W72205   1.335  36.341   3.617
99946W        W72206  36.292  24.453   3.188
99947W        W72207  22.997  28.381   5.512
99948W        W72208   5.902  40.111   3.103
99949W        W72209  21.119  26.908   1.342
99950W        W72210  44.440  13.266   0.674
99951W        W72211   8.038  19.424   1.420
99952W        W72212  39.134  10.167   1.150
99953W        W72213  43.887  25.225  14.958
99954W        W72214  34.546  24.549  10.851
99955W        W72215   4.507  31.971   2.838
99956W        W72216  30.743   7.455  12.646
99957W        W72217  21.663  30.648   1.297
99958W        W72218  26.964  42.552   0.952
99959W        W72219  37.830  28.034  10.462
99960W        W72220  19.393  30.518  11.382
99961W        W72221  13.906   5.485  11.075
99962W        W72222  21.659  15.307  11.987
99963W        W72223  11.588  21.994  13.308
99964W        W72224  41.828  16.276   1.887
99965W        W72225   9.166  42.026   0.872
99966W        W72226  38.471  25.165  11.251
99967W        W72227   5.286   9.132   0.848
99968W        W72228  36.509   2.887  14.706
99969W        W72229   5.655  24.669   0.055
99970W        W72230  34.393  39.496   0.777
99971W        W72231  43.033   9.861   1.550
99972W        W72232  35.545  10.822  10.629
99973W        W72233  32.683  44.579  11.214
99974W        W72234  10.119  34.651   5.188
99975W        W72235  43.008  28.590  14.584
99976W        W72236  42.890  25.608  14.026
99977W        W72237   4.742  20.434  13.160
99978W        W72238  22.122  37.721  14.907
99979W        W72239  32.837  28.040   4.717
99980W        W72240   7.335  31.570  14.399
99981W        W72241   1.976  39.755  10.609
99982W        W72242  33.941  20.029  13.648
99983W        W72243  17.094  13.525   2.393
99984W        W72244  35.410   1.490  14.905
99985W        W72245  17.738  27.977   2.694
99986W        W72246   4.987   6.446   3.260
99987W        W72247  26.031   6.322  14.508
99988W        W72248  27.574  31.660   4.173
99989W        W72249  40.249  20.365  11.591
99990W        W72250  23.469   5.840  12.979
99991W        W72251  44.926  36.297  13.897
99992W        W72252  18.151   2.385  11.087
99993W        W72253  39.437   3.726   4.925
99994W        W72254   0.311  14.851   2.935
99995W        W72255  42.513  44.453  10.434
99996W        W72256  29.084  26.464   0.544
99997W        W72257  15.861   2.015   4.564
99998W        W72258   8.899  40.942  14.282
99999W        W72259  12.888  13.162  13.002
    0W        W72260   7.791  16.210   0.981
    1W        W72261  44.521  11.855  14.916
    2W        W72262  36.038  23.886   1.060
    3W        W72263  25.451  36.418   1.493
    4W        W72264   2.750  40.871   0.719
    5W        W72265  22.567  13.086   0.860
    6W        W72266  12.175   7.453   1.499
    7W        W72267  40.969   9.416   3.108
    8W        W72268  29.071   4.874  12.976
    9W        W72269   7.496  44.362  10.238
   10W        W72270  16.665   5.529  12.359
   11W        W72271   6.552  42.041   2.922
   12W        W72272  23.497   2.623  11.943
   13W        W72273   5.971  29.711   0.306
   14W        W72274  31.998  43.472   0.660
   15W        W72275  29.243  31.474  14.143
   16W        W72276  10.642  11.818   4.120
   17W        W72277  22.141  17.275  11.062
   18W        W72278  33.050  34.451  11.547
   19W        W72279  44.415  26.989   3.007
   20W        W72280  34.423  12.107  11.198
   21W        W72281  10.193  28.331  14.538
   22W        W72282  13.826  18.107   1.445
   23W        W72283  10.065   5.846   4.678
   24W        W72284   6.960  31.434  11.636
   25W        W72285  20.018  30.453   4.044
   26W        W72286  41.992  37.297  12.585
   27W        W72287  12.873  26.972   3.695
   28W        W72288  22.487  19.065   0.470
   29W        W72289  32.399  36.774   1.863
   30W        W72290   2.356  20.604   3.945
   31W        W72291  22.425  24.006   2.766
   32W        W72292  30.505  21.462   0.004
   33W        W72293  40.778  12.198   0.357
   34W        W72294  37.341  40.430   1.637
   35W        W72295   9.394  24.559  12.570
   36W        W72296  13.430  21.493   3.766
   37W        W72297  35.375  12.752   0.455
   38W        W72298  28.722  35.767   4.197
   39W        W72299  28.033   5.763  14.733
   40W        W72300   8.144  42.747   4.215
   41W        W72301  15.386  30.494   0.334
   42W        W72302  10.689  36.499  14.918
   43W        W72303  42.424  15.882  12.725
   44W        W72304   1.000  23.972  13.030
   45W        W72305   8.662   2.680   4.497
   46W        W72306  22.598  39.435   2.621
   47W        W72307   2.324  25.979   3.711
   48W        W72308  13.189  38.162  12.722
   49W        W72309  25.209  40.958   4.136
   50W        W72310  21.611  30.408   2.711
   51W        W72311  12.705  22.752   3.660
   52W        W72312  34.513  14.571  14.377
   53W        W72313  23.162  14.090  12.486
   54W        W72314  15.360   4.130  13.541
   55W        W72315  41.021   6.833  11.177
   56W        W72316  20.569  43.771  13.233
   57W        W72317  13.726   6.600   0.451
   58W        W72318   0.786  32.332  14.553
   59W        W72319  43.484  34.950  11.148
   60W        W72320   8.335  34.068   4.813
   61W        W72321  34.632   0.792   0.412
   62W        W72322   8.442  20.301   0.280
   63W        W72323  31.197  30.655   1.408
   64W        W72324  37.944  41.753   3.744
   65W        W72325   7.244  22.674   0.744
   66W        W72326   4.271  32.580  12.256
   67W        W72327  23.080  22.670   0.411
   68W        W72328  21.693   5.463   1.302
   69W        W72329   4.199  29.036   4.175
   70W        W72330  11.583  31.190  13.084
   71W        W72331  18.802  42.304  13.610
   72W        W72332  11.754  10.109   0.048
   73W        W72333  11.065  39.097  14.357
   74W        W72334  44.768  38.678  12.544
   75W        W72335   2.367  32.968  11.003
   76W        W72336  29.642   8.342  10.734
   77W        W72337  42.239   0.830  11.124
   78W        W72338  32.128  18.597   4.614
   79W        W72339  27.415  29.990  11.085
   80W        W72340  30.536  31.383   4.086
   81W        W72341  34.940  44.253   2.638
   82W        W72342   8.868  39.717   1.489
   83W        W72343   8.873  32.727  12.592
   84W        W72344  17.764   8.171  14.467
   85W        W72345   6.138  10.327  13.885
   86W        W72346  39.451  32.791  14.397
   87W        W72347  11.640  39.888   0.071
   88W        W72348  21.525  28.090   4.659
   89W        W72349  10.585  16.090   4.172
   90W        W72350  13.418  17.829  13.814
   91W        W72351  22.471  13.681  14.885
   92W        W72352  11.177  18.249   4.899
   93W        W72353  11.842  37.366  11.302
   94W        W72354  37.983  15.331  14.614
   95W        W72355  37.302   1.350   0.435
   96W        W72356   0.219  12.489  10.711
   97W        W72357  24.182  43.273  10.463
   98W        W72358  31.811  34.990  13.840
   99W        W72359  18.875   1.943   3.715
  100W        W72360  12.653  21.784   3.399
  101W        W72361  34.235  38.933  14.631
  102W        W72362  30.667  26.166   3.878
  103W        W72363  14.176  18.164   0.458
  104W        W72364  30.524  21.687   0.505
  105W        W72365  30.844  17.008  10.875
  106W        W72366  42.392   4.176   1.829
  107W        W72367  15.394   7.439  11.100
  108W        W72368   5.729  41.836   4.100
  109W        W72369   8.710   9.771  13.441
  110W        W72370  18.020  27.536   0.852
  111W        W72371  10.650  40.447  13.487
  112W        W72372  43.316   3.660   0.878
  113W        W72373  26.615  15.759  12.956
  114W        W72374  14.740  11.432   4.559
  115W        W72375  36.652   3.122  11.235
  116W        W72376  34.082  15.295  11.560
  117W        W72377  36.568  12.671   0.718
  118W        W72378  18.187  22.717  10.812
  119W        W72379  11.282  28.071  14.894
  120W        W72380  16.219  11.737   4.554
  121W        W72381  13.567  28.962  12.934
  122W        W72382  17.839  35.943  13.463
  123W        W72383  44.086   2.880  10.302
  124W        W72384   4.518  25.265   5.106
  125W        W72385  25.135  26.182  13.275
  126W        W72386  13.314   2.472  12.090
  127W        W72387  17.260  10.342  10.556
  128W        W72388  20.601   5.735  13.996
  129W        W72389   6.977   5.768  11.502
  130W        W72390  40.347  12.681  11.041
  131W        W72391  39.987  35.776   1.031
  132W        W72392   5.697  43.167  12.408
  133W        W72393  15.772  36.891   1.254
  134W        W72394  19.956   0.350  12.164
  135W        W72395  39.220  26.445  10.016
  136W        W72396  24.066  23.886   3.302
  137W        W72397   9.910  21.600  11.209
  138W        W72398   6.266   0.497   1.235
  139W        W72399  28.679  29.943  10.604
  140W        W72400  41.947  36.685  11.194
  141W        W72401  33.951  28.924   4.783
  142W        W72402  31.492  30.581   2.982
  143W        W72403   6.953  10.616   4.973
  144W        W72404  44.832  39.290  14.321
  145W        W72405  15.669  25.626   1.016
  146W        W72406   4.004  42.294  12.545
  147W        W72407   9.508  29.608   3.505
  148W        W72408  24.508  13.179  11.003
  149W        W72409  36.268  34.267   2.745
  150W        W72410  39.819  27.557   4.576
  151W        W72411   7.276  33.626  14.013
  152W        W72412  26.561   0.078  12.368
  153W        W72413  25.032   0.828   1.031
  154W        W72414  33.773  41.020  10.925
  155W        W72415  21.991  14.053  11.970
  156W        W72416  13.539   6.987  14.673
  157W        W72417  37.797  18.819   2.246
  158W        W72418   5.272  41.258   1.940
  159W        W72419   9.225  38.391  11.992
  160W        W72420  37.063   4.443  12.493
  161W        W72421  28.664  40.569   2.690
  162W        W72422  24.708  27.899  11.707
  163W        W72423   4.428   9.305  10.659
  164W        W72424  25.084  30.960   0.468
  165W        W72425   0.786   1.299   2.278
  166W        W72426  26.036  41.286  11.519
  167W        W72427  17.195  18.180  14.001
  168W        W72428   6.723  38.539  11.954
  169W        W72429  25.052   7.854  14.766
  170W        W72430  15.100  43.502  14.282
  171W        W72431  33.633  41.271  12.757
  172W        W72432  15.562  28.474   4.725
  173W        W72433  33.264  13.620  11.579
  174W        W72434  14.031  10.475   0.324
  175W        W72435  28.247  22.748   4.893
  176W        W72436  35.988   1.809   0.757
  177W        W72437   8.408  14.695  11.199
  178W        W72438  32.422  41.458  10.798
  179W        W72439   2.238  20.533  12.878
  180W        W72440  28.548  11.714  10.700
  181W        W72441  24.783  19.216   4.821
  182W        W72442  12.430   5.468   3.722
  183W        W72443  20.781   8.124  10.549
  184W        W72444  39.442  28.161   2.019
  185W        W72445   8.749  18.604  11.214
  186W        W72446  41.618  42.857   4.579
  187W        W72447  39.072  11.463   2.818
  188W        W72448   8.205  17.287   4.278
  189W        W72449   7.851  11.909   0.839
  190W        W72450  18.049  15.768   3.216
  191W        W72451   4.009  40.847   1.726
  192W        W72452  11.224  12.107   2.152
  193W        W72453   0.516  42.517  12.921
  194W        W72454  34.044  24.674  14.074
  195W        W72455  13.986  32.062   1.797
  196W        W72456   9.251  24.082  12.425
  197W        W72457  30.896  41.295  13.478
  198W        W72458  11.331  36.111   1.310
  199W        W72459  18.095   2.915  13.538
  200W        W72460  10.569  14.494   1.751
  201W        W72461  23.010  15.434  14.982
  202W        W72462  15.896  38.467   3.764
  203W        W72463   7.170   9.366   1.398
  204W        W72464  29.652  36.304   2.312
  205W        W72465   6.278  23.950  13.546
  206W        W72466  19.534  14.763  13.849
  207W        W72467  18.610  30.168   1.755
  208W        W72468   0.002  38.434  14.023
  209W        W72469  42.326  33.982   4.072
  210W        W72470  38.489   1.310   1.009
  211W        W72471  24.996  14.070   1.669
  212W        W72472  41.365  19.660   4.707
  213W        W72473  40.205   1.748  11.480
  214W        W72474  29.059  18.282  12.372
  215W        W72475  42.271  18.652   0.920
  216W        W72476  19.273   2.155  13.227
  217W        W72477  42.427  10.917   0.801
  218W        W72478  28.069  17.202  10.599
  219W        W72479   8.452  20.793   3.149
  220W        W72480  43.092   2.977  13.386
  221W        W72481  24.604   4.185   3.667
  222W        W72482  37.124   5.835   2.165
  223W        W72483   9.170  37.505  11.140
  224W        W72484  23.973   9.832  14.850
  225W        W72485  41.378  22.345   3.019
  226W        W72486  20.775  30.528  11.841
  227W        W72487  11.790  43.924   4.341
  228W        W72488  36.465  11.693  14.779
  229W        W72489  34.010  43.377   2.403
  230W        W72490  41.221  20.553   4.123
  231W        W72491  29.364  26.454  12.820
  232W        W72492   1.485   1.770  11.867
  233W        W72493   6.222  15.351  14.229
  234W        W72494  40.768   3.716  14.823
  235W        W72495  32.360  18.298  14.779
  236W        W72496  14.003   5.821   3.206
  237W        W72497  22.667  16.726  11.498
  238W        W72498  20.604  39.790  14.450
  239W        W72499  13.587   7.726  11.070
  240W        W72500  24.004  26.500   1.749
  241W        W72501   0.212  34.491  10.777
  242W        W72502  18.299   4.432   4.117
  243W        W72503  35.988  25.981   1.762
  244W        W72504  35.444  10.283  11.718
  245W        W72505  39.495  16.597   1.666
  246W        W72506  38.171  16.068  13.853
  247W        W72507  26.860  14.183   4.056
  248W        W72508  28.196  39.530  12.898
  249W        W72509  38.883   3.800   2.268
  250W        W72510   6.437  18.321   3.514
  251W        W72511   2.261  27.142   0.953
  252W        W72512  22.975   5.701  13.504
  253W        W72513  16.569  23.013   3.319
  254W        W72514  34.333  13.012   4.069
  255W        W72515   7.366  40.384   3.676
  256W        W72516   7.760  34.801  14.330
  257W        W72517  19.507  14.789  14.837
  258W        W72518  22.270  31.076   3.715
  259W        W72519  43.999  14.261   0.451
  260W        W72520  41.972  42.729  12.844
  261W        W72521   4.661   4.351  12.620
  262W        W72522   9.656  24.656   1.320
  263W        W72523  33.544  26.415  12.878
  264W        W72524  30.210  25.644   3.253
  265W        W72525  11.206  12.024  14.815
  266W        W72526   9.332   8.822  12.879
  267W        W72527  33.318  15.699  14.896
  268W        W72528  25.222  10.285  11.122
  269W        W72529  21.662  41.873  14.987
  270W        W72530  24.708  41.019   1.836
  271W        W72531  36.410  20.312  10.974
  272W        W72532  26.709  33.025  14.344
  273W        W72533  20.254  38.418   2.692
  274W        W72534   6.703  32.135   2.008
  275W        W72535  31.969  29.912  11.549
  276W        W72536  21.701  18.552   0.509
  277W        W72537  32.853   4.832  11.542
  278W        W72538  32.149  37.625   0.333
  279W        W72539  25.994  24.038   1.423
  280W        W72540  44.085  25.093  10.934
  281W        W72541  13.240  43.268   0.021
  282W        W72542  30.488  44.383   4.544
  283W        W72543  43.711  35.885  14.322
  284W        W72544  43.885  34.222  12.541
  285W        W72545  40.787   3.186  14.115
  286W        W72546   3.942  39.847  11.632
  287W        W72547   2.850  27.524   4.434
  288W        W72548  42.486   2.820   2.911
  289W        W72549  39.800  12.117  14.474
  290W        W72550  29.615   9.784  14.494
  291W        W72551   2.045  43.562   1.908
  292W        W72552  31.994  24.464  12.816
  293W        W72553  37.230  42.806  14.027
  294W        W72554  21.723  32.901  12.876
  295W        W72555  31.121   2.233   0.607
  296W        W72556  34.831  20.132   0.718
  297W        W72557  13.173   7.514   3.585
  298W        W72558  10.845  10.784  13.424
  299W        W72559  24.334  17.656  11.722
  300W        W72560   9.569   2.469   0.420
  301W        W72561  33.012  16.545  11.018
  302W        W72562   3.948  37.748   4.052
  303W        W72563   2.394   2.339   1.318
  304W        W72564  40.764   8.606  14.698
  305W        W72565  21.095  17.127   2.233
  306W        W72566  36.879  40.757   2.094
  307W        W72567  36.055  20.916  14.518
  308W        W72568  24.092  31.663  12.832
  309W        W72569  43.387  38.328  10.355
  310W        W72570  12.840  43.053   0.831
  311W        W72571  30.139  40.462   0.890
  312W        W72572  11.318   0.762  14.815
  313W        W72573  20.933  19.946   1.416
  314W        W72574   1.783  26.439  12.405
  315W        W72575  23.543   6.347   0.572
  316W        W72576  37.174  42.528  13.411
  317W        W72577  41.864  16.137   0.465
  318W        W72578  22.316  14.162   5.015
  319W        W72579  19.030   2.833   4.487
  320W        W72580  12.776  35.685   1.718
  321W        W72581   3.723  38.069  13.621
  322W        W72582   6.647  42.710   2.831
  323W        W72583  43.802   9.840  11.029
  324W        W72584  15.277  10.182  11.956
  325W        W72585  36.404  38.644   0.406
  326W        W72586  22.666  26.421  12.949
  327W        W72587  33.859  18.950  10.146
  328W        W72588  15.374  20.747   4.483
  329W        W72589  10.835  16.683   1.646
  330W        W72590  41.934  21.986   0.257
  331W        W72591  42.359  18.392   0.469
  332W        W72592  29.978  26.662   3.266
  333W        W72593   1.676  11.410  13.109
  334W        W72594  25.702  25.917   2.449
  335W        W72595  38.280  41.477   0.869
  336W        W72596   0.014   1.016  13.364
  337W        W72597  33.682  44.353   2.445
  338W        W72598  11.126   9.629  12.755
  339W        W72599  34.404   4.346  12.513
  340W        W72600  31.771   7.993   4.943
  341W        W72601   5.965  37.329  12.478
  342W        W72602  26.756  20.184  11.838
  343W        W72603  35.428  10.355  10.410
  344W        W72604   4.726   2.945   2.434
  345W        W72605   4.781  42.416   4.738
  346W        W72606  29.985  12.833  14.939
  347W        W72607   9.699  16.881   2.748
  348W        W72608  11.168  34.198   3.889
  349W        W72609  38.339   7.676  14.340
  350W        W72610  27.507  44.954  10.902
  351W        W72611  13.859   7.793   1.965
  352W        W72612  20.561  39.586   1.800
  353W        W72613  27.966  27.341  13.501
  354W        W72614  39.993  38.007   2.644
  355W        W72615  40.635  37.353   2.333
  356W        W72616  43.716  27.542   3.600
  357W        W72617  37.993  42.933  14.485
  358W        W72618  16.351   0.448   4.937
  359W        W72619   9.109  17.027  10.672
  360W        W72620  37.383  20.372  14.822
  361W        W72621  42.209   9.811  12.811
  362W        W72622  28.821  14.959  11.212
  363W        W72623  42.042   4.721  14.785
  364W        W72624  28.457  34.773  12.977
  365W        W72625  10.435  20.695  13.530
  366W        W72626  35.072  34.325   3.283
  367W        W72627   2.041   6.283   4.241
  368W        W72628  43.749  43.260  14.505
  369W        W72629   9.744   4.716   1.337
  370W        W72630  37.579  12.211  13.573
  371W        W72631  28.541   8.796  10.693
  372W        W72632   1.426  31.863   1.824
  373W        W72633  12.029   3.235  11.492
  374W        W72634  39.326  34.556  14.315
  375W        W72635   5.649   1.338   1.268
  376W        W72636  19.746  25.356  12.515
  377W        W72637  12.454  31.025   3.647
  378W        W72638  30.763  31.518   0.940
  379W        W72639   3.568  37.377   1.141
  380W        W72640  18.788  44.181  12.796
  381W        W72641  34.842   6.398  13.035
  382W        W72642  26.162  41.970   1.938
  383W        W72643  19.835   8.392   0.337
  384W        W72644  40.594  44.336   2.748
  385W        W72645  26.957   1.553   0.737
  386W        W72646  43.251  12.675  10.988
  387W        W72647  31.056  44.261   3.089
  388W        W72648   3.738   9.960  13.810
  389W        W72649  22.573  30.111   4.319
  390W        W72650  15.926  34.064   0.307
  391W        W72651  13.131  24.116   4.959
  392W        W72652  31.959  29.808   3.746
  393W        W72653  11.839  31.604   2.645
  394W        W72654  16.087  24.171  13.356
  395W        W72655  22.074  38.929  12.956
  396W        W72656  14.179  11.625   2.718
  397W        W72657   5.290  16.767  12.070
  398W        W72658  40.345  13.184  11.682
  399W        W72659  12.384  39.931  12.910
  400W        W72660   9.570   5.813   4.790
  401W        W72661  43.498  38.201   1.421
  402W        W72662   2.814  26.221   4.582
  403W        W72663  17.059   6.786  10.295
  404W        W72664  41.279  33.258  12.089
  405W        W72665  29.499   3.948  11.094
  406W        W72666  40.452  37.479   4.137
  407W        W72667  44.458  15.534  11.012
  408W        W72668   8.308  38.428  13.910
  409W        W72669  12.239  31.742   1.389
  410W        W72670  42.738  25.113  12.511
  411W        W72671  31.908   9.221  12.981
  412W        W72672  40.415  16.756  12.597
  413W        W72673  24.940  23.186  12.107
  414W        W72674   8.840  16.495   0.902
  415W        W72675  17.583  36.955  10.854
  416W        W72676   3.390   3.458   0.937
  417W        W72677  33.471  43.755  11.989
  418W        W72678  39.177  14.331  14.389
  419W        W72679  25.890   4.480   3.790
  420W        W72680  38.190  32.203  14.017
  421W        W72681   2.335   6.377  12.407
  422W        W72682  27.742   1.496  11.704
  423W        W72683  24.997  26.139  10.973
  424W        W72684  38.984   2.413   0.486
  425W        W72685  43.976  36.311  13.434
  426W        W72686  26.333  38.305   2.216
  427W        W72687  16.762   0.021   2.888
  428W        W72688  19.059  27.538  13.050
  429W        W72689  31.947  35.700  13.337
  430W        W72690  10.629  31.187  14.421
  431W        W72691  22.546   8.058   0.622
  432W        W72692  25.886  26.258   2.796
  433W        W72693  22.045   2.661   0.889
  434W        W72694   5.262   8.594  11.463
  435W        W72695   0.289  30.164   1.740
  436W        W72696  16.674  41.874   2.715
  437W        W72697  10.365  31.647  14.417
  438W        W72698   9.216  40.399   2.375
  439W        W72699  11.562  11.294  11.241
  440W        W72700   2.063   7.758   4.414
  441W        W72701  12.499  44.754   4.102
  442W        W72702  34.363   1.349   3.780
  443W        W72703  21.270  44.000   0.497
  444W        W72704  28.157  15.097   2.009
  445W        W72705  13.185  33.410  11.611
  446W        W72706   9.998  15.409  14.800
  447W        W72707   1.495   7.315   2.051
  448W        W72708  17.051  17.694   1.232
  449W        W72709  39.873  34.667  11.207
  450W        W72710  30.119  35.986  12.059
  451W        W72711   9.952  28.658  13.602
  452W        W72712  16.145  39.810   4.115
  453W        W72713  21.504   6.858   3.451
  454W        W72714   1.424  35.642   1.297
  455W        W72715  44.325  34.530  12.530
  456W        W72716  38.774  12.305   1.241
  457W        W72717  15.720  32.507   1.152
  458W        W72718  39.300   0.524  13.360
  459W        W72719   2.329   8.162   4.254
  460W        W72720  41.357   1.970   1.212
  461W        W72721  39.501  12.124  13.333
  462W        W72722  10.903  38.466  13.972
  463W        W72723  14.765   4.794  13.608
  464W        W72724  19.764   8.074   5.470
  465W        W72725  28.119  33.684   0.323
  466W        W72726  33.464  20.834   3.831
  467W        W72727  23.546  33.517  11.150
  468W        W72728  35.512  18.512   1.458
  469W        W72729  42.924  25.747  14.884
  470W        W72730  11.293  40.953   3.741
  471W        W72731  12.539  13.857   1.425
  472W        W72732  15.150  14.231  11.435
  473W        W72733  44.982  26.612   3.293
  474W        W72734  24.481  43.867  14.231
  475W        W72735   3.357  28.505   0.571
  476W        W72736  10.538  37.389  12.582
  477W        W72737  27.086  40.038   4.531
  478W        W72738  39.277  37.384  12.837
  479W        W72739  27.438  19.830  11.103
  480W        W72740  35.234   4.907  12.651
  481W        W72741   6.154  22.002   4.663
  482W        W72742  24.549  15.181  12.340
  483W        W72743  44.205  23.916  14.882
  484W        W72744  35.974  37.351   0.919
  485W        W72745  17.596   7.010  11.497
  486W        W72746  18.572  30.468  11.657
  487W        W72747  43.104  39.716  13.317
  488W        W72748  41.864   1.201   2.865
  489W        W72749  38.861  16.781   0.776
  490W        W72750  36.793  43.050  11.698
  491W        W72751   9.880  11.919  10.561
  492W        W72752  33.507  21.158  11.490
  493W        W72753  29.050  12.367   2.098
  494W        W72754  21.716  28.068   1.514
  495W        W72755  39.029  30.309  12.570
  496W        W72756  42.061  44.422   1.682
  497W        W72757  36.168   5.187   2.978
  498W        W72758  29.428   6.152  11.545
  499W        W72759  10.896  17.219  12.396
  500W        W72760  26.569  28.098   5.025
  501W        W72761  31.601  30.427  13.519
  502W        W72762  35.897  41.545   1.750
  503W        W72763  21.709  33.846   2.959
  504W        W72764  40.218  37.836  13.543
  505W        W72765   4.804  41.946  14.947
  506W        W72766  24.473  21.627   2.886
  507W        W72767   3.451  13.233   3.135
  508W        W72768   7.209   9.114  12.396
  509W        W72769  31.044  33.073  14.299
  510W        W72770  31.336  32.508   2.234
  511W        W72771  29.019  33.905   0.721
  512W        W72772  35.470  28.320  14.380
  513W        W72773  36.589   6.191   1.677
  514W        W72774  14.123   6.839   3.165
  515W        W72775  35.148  32.125  12.961
  516W        W72776  30.689  43.757   4.309
  517W        W72777   6.437  37.942   4.147
  518W        W72778  24.794   8.528   1.923
  519W        W72779  13.775  34.153   3.407
  520W        W72780  43.950  39.589  14.781
  521W        W72781  11.339  25.044   1.328
  522W        W72782  13.698  38.002   2.404
  523W        W72783  27.773  37.610  13.021
  524W        W72784  28.062  12.390  13.966
  525W        W72785   0.336  25.684  10.722
  526W        W72786  16.158  10.007   1.388
  527W        W72787   0.490   3.754  10.733
  528W        W72788  44.523  42.424  11.855
  529W        W72789   4.895  38.595  13.254
  530W        W72790   6.867   8.203   1.778
  531W        W72791  44.629  42.980  11.142
  532W        W72792  30.146   7.250  13.846
  533W        W72793  26.435   1.494  14.939
  534W        W72794   4.482  41.367   2.366
  535W        W72795   5.634  19.812   2.701
  536W        W72796   6.994   9.919  14.041
  537W        W72797  13.877  28.588   3.238
  538W        W72798  15.762   8.835   0.932
  539W        W72799  39.353  15.767   3.279
  540W        W72800  23.007  31.047   1.245
  541W        W72801  36.371   9.857   3.283
  542W        W72802  43.365  29.509   2.442
  543W        W72803  36.613  19.565   2.464
  544W        W72804  35.462   8.165  14.826
  545W        W72805  20.692  28.661  11.598
  546W        W72806   2.858  38.522  12.616
  547W        W72807  31.232   9.646  14.064
  548W        W72808   2.742  24.154   2.674
  549W        W72809  43.318  34.950   0.475
  550W        W72810  31.008  17.546  10.063
  551W        W72811  12.713  20.654   1.557
  552W        W72812  42.038  30.802   4.848
  553W        W72813  33.874  40.256   4.566
  554W        W72814  15.729  36.136  14.728
  555W        W72815  14.879   6.679   1.304
  556W        W72816  38.334  22.154   1.829
  557W        W72817  12.147  18.153  11.188
  558W        W72818  27.438   7.148  11.335
  559W        W72819  41.808   5.724   2.745
  560W        W72820  34.718  29.454   2.145
  561W        W72821   9.374   6.776   1.833
  562W        W72822  39.997  15.108  13.173
  563W        W72823  22.060  27.948   4.740
  564W        W72824  24.565  13.460   0.474
  565W        W72825  28.072   2.351   0.376
  566W        W72826   1.774  35.494  10.631
  567W        W72827   9.046  20.115  13.472
  568W        W72828  19.146  31.738   3.292
  569W        W72829  36.204  42.535   3.981
  570W        W72830   0.563  13.371   0.632
  571W        W72831  30.109  44.291   0.771
  572W        W72832  32.840  34.482  11.055
  573W        W72833   8.209  18.232  13.473
  574W        W72834  18.826  36.006   2.157
  575W        W72835  42.430  31.089  13.880
  576W        W72836  41.152  34.126   0.763
  577W        W72837  23.963   4.926  12.449
  578W        W72838   5.986  16.323  14.980
  579W        W72839  33.512   1.326  12.030
  580W        W72840   2.371  29.506   1.251
  581W        W72841  18.211   1.945  14.717
  582W        W72842  38.407  31.840  10.739
  583W        W72843   2.995  17.672   0.796
  584W        W72844  41.031  22.202  11.866
  585W        W72845  19.647  40.888  13.943
  586W        W72846  22.229  16.008  12.071
  587W        W72847  41.273   8.976  14.748
  588W        W72848   9.698  32.962  10.814
  589W        W72849  30.622  15.723   2.884
  590W        W72850  28.439  19.172  13.817
  591W        W72851  23.176   4.869   2.209
  592W        W72852  13.321  29.088   2.788
  593W        W72853  23.220  24.755   3.281
  594W        W72854  17.290   4.128  11.718
  595W        W72855  14.466   7.569   0.017
  596W        W72856   9.129   0.923  13.447
  597W        W72857  29.928  16.892   3.276
  598W        W72858  35.594  23.192   1.806
  599W        W72859  10.733  14.861   3.126
  600W        W72860   7.576   4.690   0.274
  601W        W72861  29.470  22.503   2.306
  602W        W72862  16.293  30.046  14.528
  603W        W72863  16.648  31.323  12.064
  604W        W72864  23.091  19.007  11.514
  605W        W72865   5.354  34.424  13.006
  606W        W72866  43.748  42.198  11.154
  607W        W72867   6.521  29.913  14.345
  608W        W72868  18.667  21.898  10.966
  609W        W72869  25.609  42.970  11.693
  610W        W72870  21.008   0.415   3.617
  611W        W72871  11.186   6.109   4.108
  612W        W72872  14.249   5.647  14.287
  613W        W72873  29.136  10.942  11.088
  614W        W72874  27.091  37.621   1.238
  615W        W72875  33.632  41.860  14.390
  616W        W72876  10.825  24.568   1.011
  617W        W72877  18.152  37.285  13.496
  618W        W72878  19.556   7.207  14.431
  619W        W72879  18.204  34.325   2.281
  620W        W72880  26.274  25.020   4.886
  621W        W72881  33.532  29.919   4.248
  622W        W72882  35.275  34.960  13.093
  623W        W72883  38.078  38.333  10.556
  624W        W72884  35.450   8.340  12.505
  625W        W72885  28.439  25.673  14.484
  626W        W72886  44.977   7.655   3.242
  627W        W72887  22.486  31.555  14.024
  628W        W72888  10.259  41.965   0.875
  629W        W72889   7.974  20.522  12.282
  630W        W72890   8.638  41.358  14.435
  631W        W72891  22.581  32.578   3.703
  632W        W72892  31.046   5.499   2.602
  633W        W72893  10.851   7.913  10.733
  634W        W72894   2.309  31.540   0.335
  635W        W72895  14.476  16.180   0.214
  636W        W72896   2.275   1.251  12.842
  637W        W72897  11.379  27.417   3.170
  638W        W72898  36.003  33.130   3.757
  639W        W72899  26.346  34.275  14.984
  640W        W72900  39.301   8.118  12.373
  641W        W72901  40.687  22.564   1.402
  642W        W72902   8.932   4.661  14.973
  643W        W72903  42.536  14.844  11.925
  644W        W72904  43.281  14.734   0.762
  645W        W72905  44.783  39.131   2.415
  646W        W72906  38.451  40.977   4.383
  647W        W72907  11.665  10.620  10.694
  648W        W72908  24.548   1.968  10.543
  649W        W72909  24.057  19.309   2.776
  650W        W72910  24.572   5.300  10.764
  651W        W72911  28.848   9.816  14.897
  652W        W72912  34.031  40.120   4.100
  653W        W72913   1.655  36.515  13.299
  654W        W72914  41.524  26.775  13.725
  655W        W72915  39.899  28.106  14.107
  656W        W72916  21.216  24.552  14.511
  657W        W72917  42.413  27.258  13.550
  658W        W72918  23.699  41.601  11.657
  659W        W72919  28.591  18.401  12.060
  660W        W72920  37.787  19.085   1.174
  661W        W72921   0.907  29.843  14.959
  662W        W72922  16.021  12.306   2.924
  663W        W72923  25.171  40.040  12.082
  664W        W72924  28.381  17.134  12.416
  665W        W72925  20.183   0.854   9.981
  666W        W72926  35.893  23.501   1.411
  667W        W72927  17.315  18.533  11.369
  668W        W72928  19.138  22.734   4.532
  669W        W72929  17.617  38.907  13.441
  670W        W72930  13.747   0.953   1.489
  671W        W72931  37.305  44.446   1.802
  672W        W72932  28.874  35.802  12.571
  673W        W72933  41.434  26.065  13.539
  674W        W72934  42.954  40.534  14.516
  675W        W72935  11.443  12.379   1.134
  676W        W72936  30.477   4.240   4.143
  677W        W72937  34.516  26.211  12.444
  678W        W72938  36.515   6.154   0.769
  679W        W72939   1.585  25.109  11.577
  680W        W72940  32.589   8.581   3.810
  681W        W72941   2.818  25.008   2.917
  682W        W72942  11.770  22.627   2.655
  683W        W72943  31.686   1.266   4.628
  684W        W72944  32.397  26.563  10.718
  685W        W72945  40.014  42.267   4.174
  686W        W72946  17.828  41.327   0.021
  687W        W72947  38.101   9.272  11.521
  688W        W72948  26.007  11.830  11.214
  689W        W72949  23.584  23.592   1.196
  690W        W72950   9.158   7.732   0.859
  691W        W72951  24.077  28.376  12.191
  692W        W72952  42.375  39.023  12.619
  693W        W72953  35.438  21.394  10.112
  694W        W72954  28.942  17.273  13.359
  695W        W72955  14.349  22.320   3.541
  696W        W72956  19.891  34.753   5.124
  697W        W72957  24.334  19.357   1.388
  698W        W72958   6.214  42.893  11.824
  699W        W72959  21.046  27.574   3.616
  700W        W72960   6.235   8.533   9.949
  701W        W72961  43.394  39.296  13.471
  702W        W72962  17.712  10.710   2.226
  703W        W72963  36.922  44.862  14.464
  704W        W72964  25.561  26.639   0.907
  705W        W72965  17.533  39.418  13.390
  706W        W72966  26.512  16.808   0.703
  707W        W72967  30.068  21.564   0.263
  708W        W72968  31.987  15.117  14.818
  709W        W72969   3.832  35.587  14.201
  710W        W72970  35.274   1.391   4.055
  711W        W72971  28.068  15.557   2.520
  712W        W72972  40.819  21.583   2.474
  713W        W72973  41.081  13.208   2.780
  714W        W72974  44.883  27.011  10.371
  715W        W72975   2.224  26.453   2.084
  716W        W72976  30.334  19.695   4.605
  717W        W72977  15.272  23.562   1.273
  718W        W72978  35.841  25.581  14.858
  719W        W72979   9.320  11.308   2.822
  720W        W72980   1.419  15.833  11.498
  721W        W72981   1.202  38.322   1.743
  722W        W72982  31.171  29.160   0.464
  723W        W72983  19.028   7.324  11.050
  724W        W72984  10.250  21.233  11.112
  725W        W72985   8.303  30.593   0.475
  726W        W72986  32.005  25.642   1.742
  727W        W72987   5.168  21.234   5.135
  728W        W72988  26.913  40.325   2.629
  729W        W72989   9.087  19.680   2.104
  730W        W72990  21.413  12.628   3.150
  731W        W72991  13.646  16.042   5.126
  732W        W72992  23.517  29.146   1.222
  733W        W72993  10.261  15.487   2.050
  734W        W72994   3.762   1.477  11.632
  735W        W72995  41.269  15.265  12.539
  736W        W72996   8.774  35.545  12.649
  737W        W72997  17.664   6.107  13.540
  738W        W72998   5.433  29.003   2.422
  739W        W72999  13.815  37.447   1.255
  740W        W73000  19.650  20.440  10.864
  741W        W73001  43.280  23.963  14.827
  742W        W73002  40.431  39.192  13.531
  743W        W73003  17.244  41.752   4.020
  744W        W73004   2.949  14.716   4.671
  745W        W73005  24.005   6.355   0.297
  746W        W73006  43.014  11.500   3.708
  747W        W73007  18.278   2.862   1.250
  748W        W73008  41.485  22.452   1.772
  749W        W73009  39.354  19.586  14.250
  750W        W73010   7.714  18.016  12.146
  751W        W73011  22.162  16.020   4.229
  752W        W73012  12.115  35.217  10.700
  753W        W73013  34.721  22.611  13.977
  754W        W73014  12.808  38.925  13.774
  755W        W73015  43.448  37.675   3.260
  756W        W73016  15.847  26.009  12.814
  757W        W73017  18.936   3.644   4.585
  758W        W73018  43.061  42.779  13.110
  759W        W73019   1.874   6.211   0.964
  760W        W73020  13.543  12.184  11.667
  761W        W73021  24.562  11.829   1.955
  762W        W73022  16.504  44.814  13.900
  763W        W73023  31.420  21.219  10.375
  764W        W73024  12.904  36.043   3.648
  765W        W73025  12.604  35.554  14.503
  766W        W73026  31.929   3.321  12.397
  767W        W73027   7.694   5.959  11.037
  768W        W73028  27.814   2.160   4.271
  769W        W73029  35.226  11.481  12.596
  770W        W73030   0.259  25.614  11.609
  771W        W73031  38.085  20.438  12.098
  772W        W73032  20.620   7.434   9.921
  773W        W73033  36.841  18.970   3.261
  774W        W73034  21.388  24.143   2.844
  775W        W73035  22.741  42.668   2.748
  776W        W73036  31.714  29.091  13.434
  777W        W73037  19.009  36.036  11.459
  778W        W73038  30.220  20.090  13.976
  779W        W73039   1.403  18.739  13.742
  780W        W73040  16.325   6.873   4.183
  781W        W73041  38.389   1.632  13.933
  782W        W73042   3.118  22.151  13.651
  783W        W73043  16.920  28.696  14.936
  784W        W73044  25.604   4.388  10.704
  785W        W73045  14.455  29.982  11.335
  786W        W73046  16.310  22.238   3.931
  787W        W73047  15.367  43.353  13.860
  788W        W73048  39.796  35.197  11.156
  789W        W73049   8.913  22.224   1.740
  790W        W73050  20.502  36.483   1.746
  791W        W73051  37.470  34.986   4.229
  792W        W73052  17.778  20.047  14.524
  793W        W73053   5.405  19.147   0.767
  794W        W73054   9.606  19.727   3.705
  795W        W73055   3.652  40.510   3.227
  796W        W73056  38.120  17.061   2.656
  797W        W73057  44.358  30.946   9.878
  798W        W73058   8.843  38.590  14.776
  799W        W73059  14.319  32.420   3.289
  800W        W73060  36.069  25.000  14.878
  801W        W73061  26.475  28.129   0.539
  802W        W73062  34.084  44.934  14.518
  803W        W73063  27.256  10.688  10.733
  804W        W73064   1.540  25.089   0.926
  805W        W73065  26.603  10.089  13.900
  806W        W73066  15.191   8.467  12.027
  807W        W73067  40.412   3.157   1.916
  808W        W73068   4.988  40.848  11.175
  809W        W73069  21.330   2.124  13.783
  810W        W73070  25.812  37.114   2.893
  811W        W73071  44.480  20.334   3.596
  812W        W73072   5.735  44.746   4.158
  813W        W73073  20.263   6.498  14.942
  814W        W73074  41.991  16.650  13.301
  815W        W73075  28.420   7.844   0.746
  816W        W73076   0.427  22.235  13.327
  817W        W73077  36.634   9.245  11.925
  818W        W73078  42.270  40.817   3.683
  819W        W73079  43.798  40.142   3.436
  820W        W73080  25.914  36.321  13.034
  821W        W73081  12.888  44.531  11.564
  822W        W73082  17.678   0.751   3.885
  823W        W73083   2.331   7.690   0.328
  824W        W73084  37.346  17.339   5.334
  825W        W73085  27.546  32.677   3.526
  826W        W73086  19.076  29.935  13.348
  827W        W73087   4.896  10.107   4.132
  828W        W73088   3.290   0.785   3.435
  829W        W73089   0.865   3.238  12.061
  830W        W73090   9.279  32.076  10.425
  831W        W73091  30.140  42.690  13.357
  832W        W73092  40.988  23.462   4.020
  833W        W73093  36.964  43.406  10.871
  834W        W73094   9.202  32.854  14.447
  835W        W73095   4.904  39.944  10.718
  836W        W73096  43.517  29.061  13.186
  837W        W73097  17.644   0.333   2.163
  838W        W73098  38.167  42.257  11.180
  839W        W73099  21.884   0.890  11.125
  840W        W73100  42.434  11.129   2.707
  841W        W73101  10.382  18.114  13.433
  842W        W73102  42.317  31.933  11.330
  843W        W73103  39.367  22.227  14.220
  844W        W73104   1.606  35.764  14.252
  845W        W73105  29.936  26.644   1.455
  846W        W73106  39.054   4.481   2.403
  847W        W73107   4.281  28.177  12.675
  848W        W73108  39.905  40.181   1.772
  849W        W73109  15.321  21.281  14.333
  850W        W73110  34.600   2.911  14.053
  851W        W73111  43.511  37.550   5.125
  852W        W73112  23.375   6.223   4.809
  853W        W73113  20.325   7.818  14.217
  854W        W73114  14.018  16.746   2.296
  855W        W73115   3.999  21.798   3.783
  856W        W73116   8.683  28.517   1.363
  857W        W73117   1.695  44.780   4.670
  858W        W73118  18.600   7.915   4.192
  859W        W73119   1.414   7.317  12.408
  860W        W73120  38.884   6.821  11.940
  861W        W73121  13.764  27.322  10.233
  862W        W73122  38.869  28.565  13.462
  863W        W73123  10.403  23.282   3.249
  864W        W73124   3.496   9.637  12.536
  865W        W73125  22.342  12.600  11.052
  866W        W73126   2.944  26.768  11.478
  867W        W73127   6.414  10.579   5.150
  868W        W73128  28.594   0.843   2.715
  869W        W73129  28.607  28.573  14.290
  870W        W73130   5.844  38.391   1.713
  871W        W73131  14.553   9.670   3.331
  872W        W73132  42.464  30.197   4.790
  873W        W73133  18.132  31.800  11.672
  874W        W73134  13.378   4.397  13.370
  875W        W73135  41.301   1.209   2.794
  876W        W73136   8.415  13.307  10.583
  877W        W73137   1.237  23.970  13.531
  878W        W73138  24.123  23.070  11.335
  879W        W73139  37.335  19.013  14.938
  880W        W73140  41.491  34.663  10.795
  881W        W73141  41.280  39.834  14.982
  882W        W73142   7.204  24.086   1.717
  883W        W73143  17.270  33.062   1.974
  884W        W73144   4.298  23.628  11.758
  885W        W73145  28.128  31.883   3.233
  886W        W73146   3.934  43.422   0.495
  887W        W73147  32.040  32.393   2.692
  888W        W73148  17.704  33.516  11.399
  889W        W73149  30.433   6.794   0.940
  890W        W73150  12.387  34.546   3.673
  891W        W73151  10.490  33.038   0.042
  892W        W73152   8.771  39.348  11.255
  893W        W73153  24.689  42.192   5.349
  894W        W73154  12.046  29.408  13.891
  895W        W73155  25.468  25.258  11.008
  896W        W73156  12.186  27.816   4.191
  897W        W73157  33.602  40.486   4.942
  898W        W73158   1.219  26.018  14.867
  899W        W73159   3.326  22.810   3.415
  900W        W73160  21.882  23.088   0.490
  901W        W73161  37.678  29.383  12.989
  902W        W73162  38.654  38.068  12.399
  903W        W73163  16.771  19.806   1.448
  904W        W73164  31.904  12.187  14.448
  905W        W73165  16.064  13.359   1.776
  906W        W73166  34.279  16.706  10.570
  907W        W73167   0.175   5.668  14.909
  908W        W73168  20.143  25.714   1.441
  909W        W73169   0.760  33.479  10.253
  910W        W73170  20.577  26.611   3.592
  911W        W73171  23.160  25.470   1.447
  912W        W73172  40.506  33.047  14.001
  913W        W73173  36.802  29.100  13.052
  914W        W73174  22.125  21.581  14.836
  915W        W73175  27.032  17.262  12.637
  916W        W73176  11.106  15.559  13.459
  917W        W73177  19.690  28.564  12.601
  918W        W73178  31.958  38.509   1.152
  919W        W73179  24.808  42.988  11.960
  920W        W73180  37.974  41.368  14.728
  921W        W73181  18.509  28.553  13.416
  922W        W73182  23.798  19.757   3.697
  923W        W73183  25.718  32.644   4.160
  924W        W73184   9.768  30.534   0.720
  925W        W73185  30.893   2.287   4.154
  926W        W73186  32.388   3.923   2.583
  927W        W73187  16.155  17.121  14.549
  928W        W73188  25.430  37.939   1.447
  929W        W73189  10.762  36.519   3.231
  930W        W73190  42.877  37.420  13.050
  931W        W73191  20.491   7.509   2.809
  932W        W73192  19.305   8.539   0.205
  933W        W73193   0.292  38.431   0.431
  934W        W73194  31.740  43.158   1.975
  935W        W73195  30.433  30.344   3.863
  936W        W73196   8.244  29.491  14.321
  937W        W73197  33.096  41.334  13.915
  938W        W73198  26.919  13.327   4.053
  939W        W73199   4.909  10.068  10.728
  940W        W73200  32.609  34.793  12.098
  941W        W73201  34.988  31.028   1.552
  942W        W73202   0.220  10.140   2.703
  943W        W73203  10.955  31.217  12.397
  944W        W73204  39.880  41.753   3.222
  945W        W73205   7.620  28.200   1.911
  946W        W73206  16.851  23.732  11.329
  947W        W73207  24.165  28.669   3.763
  948W        W73208  10.893   2.433   3.533
  949W        W73209   3.998  14.693  13.488
  950W        W73210  31.712   0.438  12.039
  951W        W73211  28.436  15.865   2.275
  952W        W73212  20.115   8.961   4.116
  953W        W73213  23.499  18.542  13.268
  954W        W73214   6.019  31.605  14.756
  955W        W73215  21.404  11.311  10.656
  956W        W73216  30.053   9.403   2.168
  957W        W73217   6.979  37.824  11.469
  958W        W73218  12.674  33.972   2.360
  959W        W73219  40.978   0.504  11.131
  960W        W73220  32.967  10.431  11.942
  961W        W73221  23.132  30.723  12.858
  962W        W73222  16.224  44.201  10.223
  963W        W73223   3.557  27.756   9.991
  964W        W73224   4.408  44.879   2.296
  965W        W73225  38.226   5.063   0.306
  966W        W73226  35.976   7.648  14.118
  967W        W73227  14.362  30.376  10.263
  968W        W73228  41.538  44.417   0.864
  969W        W73229   7.547  17.730  13.911
  970W        W73230  34.640  35.933   2.764
  971W        W73231  17.043  35.461   2.631
  972W        W73232  40.343  21.885   2.499
  973W        W73233  42.492  29.566   1.612
  974W        W73234  26.397   9.650   3.745
  975W        W73235  21.638  20.521   2.405
  976W        W73236   1.540  42.282   2.874
  977W        W73237  31.847   8.343  13.064
  978W        W73238   3.268  24.444   4.736
  979W        W73239  17.063  33.094  14.771
  980W        W73240  20.835   6.416   0.945
  981W        W73241   1.210  40.852   0.838
  982W        W73242  38.777  13.852   1.727
  983W        W73243  37.296  23.236   2.871
  984W        W73244  15.192  15.007   4.282
  985W        W73245  19.172  25.207   4.536
  986W        W73246  10.186  10.928   0.246
  987W        W73247  33.622  34.978   3.725
  988W        W73248  29.692  39.955  13.841
  989W        W73249   2.471  36.593   4.583
  990W        W73250  31.429  43.026  12.996
  991W        W73251  19.300   0.666   2.226
  992W        W73252  13.683  42.269  11.062
  993W        W73253  42.757  38.001   4.127
  994W        W73254  18.363  28.113   0.492
  995W        W73255  31.192  26.864  12.635
  996W        W73256  34.898  29.661   1.199
  997W        W73257  27.270  44.420  13.883
  998W        W73258  39.530  21.517  11.154
  999W        W73259  23.481  16.703   3.296
 1000W        W73260  11.490  42.656   4.901
 1001W        W73261  18.794  43.837  14.552
 1002W        W73262  36.156  21.632  12.069
 1003W        W73263  10.762   9.487   4.084
 1004W        W73264  37.913  21.004   4.108
 1005W        W73265  42.492   0.645  11.645
 1006W        W73266   1.042  25.397   1.410
 1007W        W73267  33.157  40.311   2.681
 1008W        W73268   9.342  38.099   3.602
 1009W        W73269  16.646  41.466   2.395
 1010W        W73270  38.487  40.404  13.289
 1011W        W73271   5.946  28.611  14.086
 1012W        W73272  29.444  28.442   2.218
 1013W        W73273  36.686  42.888  10.338
 1014W        W73274  16.579  42.529   1.739
 1015W        W73275  28.153  22.637   2.511
 1016W        W73276  10.675  39.042  12.808
 1017W        W73277  27.393  19.278   3.622
 1018W        W73278  20.461  24.723  11.129
 1019W        W73279   1.796  14.869  12.915
 1020W        W73280  12.233  28.611   0.809
 1021W        W73281  13.817  17.369   4.781
 1022W        W73282  14.577  17.544   2.263
 1023W        W73283  29.995  40.833   3.061
 1024W        W73284  15.629  30.540   4.441
 1025W        W73285   6.784  11.447  14.695
 1026W        W73286  20.981  17.357   4.242
 1027W        W73287  19.786  33.913   0.731
 1028W        W73288  25.728  42.692  12.978
 1029W        W73289   5.951  28.882  12.632
 1030W        W73290  40.372   9.118   3.732
 1031W        W73291  34.598  21.178   9.800
 1032W        W73292   3.983  40.892  11.893
 1033W        W73293  39.485  13.871  13.131
 1034W        W73294  27.193  13.188   3.598
 1035W        W73295  12.217   9.564   3.389
 1036W        W73296  19.285  22.113   0.295
 1037W        W73297  43.495  42.756   1.837
 1038W        W73298  42.991  34.920  11.419
 1039W        W73299  40.470  29.380  13.623
 1040W        W73300  17.809  39.337  11.869
 1041W        W73301  11.418   6.393  12.839
 1042W        W73302  28.392  22.246   3.811
 1043W        W73303  13.674  29.470  12.945
 1044W        W73304   5.339  42.780  12.421
 1045W        W73305  42.926  22.034  14.514
 1046W        W73306   2.897  43.704  11.146
 1047W        W73307   9.288   3.426   4.053
 1048W        W73308  15.628  22.959  13.321
 1049W        W73309  36.888  23.809  12.634
 1050W        W73310   9.832  41.202  13.496
 1051W        W73311   2.738  32.197   4.872
 1052W        W73312  27.388   0.916  10.446
 1053W        W73313  13.309  28.942  14.808
 1054W        W73314  29.183  25.422   3.200
 1055W        W73315  24.657  16.920   1.870
 1056W        W73316  16.162  13.088   2.224
 1057W        W73317  13.333  42.382   4.205
 1058W        W73318  17.934  21.041  13.434
 1059W        W73319  15.049   2.653  13.400
 1060W        W73320  32.150  44.019   3.907
 1061W        W73321  40.485  33.336  13.598
 1062W        W73322  37.880  22.123   4.125
 1063W        W73323  42.321   6.327   0.522
 1064W        W73324  24.506  36.809  13.827
 1065W        W73325  13.115  43.456   1.013
 1066W        W73326   9.006  10.645   4.449
 1067W        W73327  43.494   8.222  12.936
 1068W        W73328   9.350  36.062   0.845
 1069W        W73329  16.570  39.891  12.033
 1070W        W73330  33.099  11.130   2.815
 1071W        W73331  25.950  28.013   0.745
 1072W        W73332   2.071  33.450   9.975
 1073W        W73333  44.372  24.503  11.916
 1074W        W73334  34.542  18.642  13.524
 1075W        W73335  13.672  40.684  13.887
 1076W        W73336  35.391  40.319   2.740
 1077W        W73337   0.697  38.859  14.115
 1078W        W73338  35.846  11.115  14.493
 1079W        W73339  38.720  10.901  13.862
 1080W        W73340   6.622  14.627  13.830
 1081W        W73341  37.421   2.705  11.648
 1082W        W73342   0.978  19.331  13.215
 1083W        W73343  28.429   2.492  11.236
 1084W        W73344   4.183  34.436   1.775
 1085W        W73345  38.981  38.906  12.898
 1086W        W73346   1.170  33.261   3.371
 1087W        W73347  19.279  19.067  12.961
 1088W        W73348  26.724  25.205  13.474
 1089W        W73349  27.533  36.315   3.430
 1090W        W73350  31.005  23.315  10.029
 1091W        W73351   5.320   6.207  14.814
 1092W        W73352  18.780  23.574   1.518
 1093W        W73353  20.745  34.915   0.803
 1094W        W73354   4.842  32.140  11.207
 1095W        W73355  38.085  37.025  11.500
 1096W        W73356  16.634  19.523   3.684
 1097W        W73357   2.264  10.132  12.497
 1098W        W73358  28.864  18.810  14.511
 1099W        W73359  26.572  21.604  11.130
 1100W        W73360  19.656   5.632   5.218
 1101W        W73361  40.138   0.748   3.700
 1102W        W73362  16.764  19.424  14.931
 1103W        W73363   5.873  13.328   1.459
 1104W        W73364  19.636  31.040   0.984
 1105W        W73365  25.048  33.112  11.156
 1106W        W73366  33.934  10.537   1.697
 1107W        W73367  40.862  33.411  12.394
 1108W        W73368  30.158   7.170  11.981
 1109W        W73369  42.577   4.753   0.304
 1110W        W73370   8.370   1.714   0.670
 1111W        W73371  26.419  13.269  11.503
 1112W        W73372  38.417  14.340   2.101
 1113W        W73373  38.934  23.205   2.236
 1114W        W73374  10.438  29.265   0.222
 1115W        W73375  11.059  33.117   4.831
 1116W        W73376  28.158   2.189   1.553
 1117W        W73377  24.844   3.684  12.841
 1118W        W73378  44.917  27.120   3.177
 1119W        W73379  40.995  21.450   1.594
 1120W        W73380   6.368  17.503   3.220
 1121W        W73381  18.714   4.497   1.909
 1122W        W73382  31.989  39.882   4.624
 1123W        W73383  33.116  15.866  13.058
 1124W        W73384   9.893   4.419   3.726
 1125W        W73385  19.451   0.767  12.490
 1126W        W73386  27.406  38.555  11.759
 1127W        W73387  14.343   0.499  14.786
 1128W        W73388  40.185  39.779  14.349
 1129W        W73389   8.263  26.531  10.372
 1130W        W73390   6.411   7.702  13.803
 1131W        W73391   3.472   0.928   2.889
 1132W        W73392  42.165   5.054   4.066
 1133W        W73393   0.783  36.957   1.713
 1134W        W73394  41.902  29.697  11.211
 1135W        W73395  12.052   0.164  14.856
 1136W        W73396  24.461   0.122  11.034
 1137W        W73397   0.888  20.767   3.652
 1138W        W73398   1.973  36.814  12.424
 1139W        W73399   2.790   5.144   0.453
 1140W        W73400   8.482   9.131   5.076
 1141W        W73401   3.061  42.824   2.240
 1142W        W73402  21.155   6.712  14.091
 1143W        W73403   3.710  29.875   0.201
 1144W        W73404  43.000  35.336   1.828
 1145W        W73405   1.431  15.957   0.638
 1146W        W73406   0.959  42.806  10.782
 1147W        W73407  42.247  11.551   2.438
 1148W        W73408   3.552  33.566   0.418
 1149W        W73409  42.918  29.837   1.517
 1150W        W73410  10.213  26.412  12.796
 1151W        W73411   2.120  19.084  14.952
 1152W        W73412  34.444  13.638   1.749
 1153W        W73413  26.724  20.269   3.185
 1154W        W73414   4.631   3.906  13.104
 1155W        W73415   2.297   9.497  10.473
 1156W        W73416  18.700  32.557  10.592
 1157W        W73417   3.150   8.510   0.085
 1158W        W73418   7.467  20.209   0.386
 1159W        W73419  16.270  25.561  13.117
 1160W        W73420  32.553   5.162  13.360
 1161W        W73421   4.918  17.232   2.340
 1162W        W73422  32.861  23.751  11.495
 1163W        W73423  18.629  19.648  14.378
 1164W        W73424  18.227  28.162   2.753
 1165W        W73425   3.481  38.826   0.897
 1166W        W73426  42.417   9.632   2.555
 1167W        W73427  20.803  30.465  10.847
 1168W        W73428   2.893   4.500   3.897
 1169W        W73429   0.717   3.307   2.364
 1170W        W73430  24.151  37.375   1.041
 1171W        W73431  34.033  29.651  11.494
 1172W        W73432  15.715  44.898   4.846
 1173W        W73433  41.550  41.398   2.779
 1174W        W73434  30.027   3.237   1.995
 1175W        W73435  28.363  26.703   1.634
 1176W        W73436   8.271  28.962  11.423
 1177W        W73437   9.162  31.127  12.519
 1178W        W73438  38.435   5.096   1.384
 1179W        W73439  43.567   0.787   0.247
 1180W        W73440   7.749  14.701  12.629
 1181W        W73441  15.272   4.891   4.641
 1182W        W73442  23.024  29.392  14.287
 1183W        W73443  13.906  40.289  10.649
 1184W        W73444  42.381   5.112   1.915
 1185W        W73445  22.174  21.307  13.287
 1186W        W73446  19.266   7.874  13.343
 1187W        W73447  38.901  24.032   2.472
 1188W        W73448  35.129  39.392   1.851
 1189W        W73449  35.573  42.016   2.507
 1190W        W73450  19.371  20.453  13.457
 1191W        W73451  21.549  33.574   1.857
 1192W        W73452  12.886  37.377  11.657
 1193W        W73453  31.032   7.993   0.949
 1194W        W73454  38.792  35.323   3.752
 1195W        W73455  19.077  17.948   2.346
 1196W        W73456  26.890   9.698   1.012
 1197W        W73457  20.299  13.294   3.711
 1198W        W73458  39.989   2.367  10.722
 1199W        W73459  16.791  28.026   4.861
 1200W        W73460  25.978  10.463   4.176
 1201W        W73461  22.077  19.034  14.564
 1202W        W73462  42.801  19.335   2.202
 1203W        W73463  24.494  38.051  12.882
 1204W        W73464   6.139  41.458   1.319
 1205W        W73465   7.170  40.767   1.833
 1206W        W73466  20.757   0.689  13.327
 1207W        W73467   0.215  12.148   0.130
 1208W        W73468  36.843  26.482   0.758
 1209W        W73469  20.046  29.130  14.769
 1210W        W73470  20.584  33.289  14.003
 1211W        W73471  35.025  17.697  10.337
 1212W        W73472  29.320  37.336   0.551
 1213W        W73473  26.562  16.275   0.261
 1214W        W73474   9.591  44.580   3.764
 1215W        W73475  26.731  24.936   4.623
 1216W        W73476  31.285  29.392   4.142
 1217W        W73477  44.568  43.425   4.145
 1218W        W73478  44.634  32.788  11.529
 1219W        W73479  25.332  24.099  11.531
 1220W        W73480  23.933  44.898  14.491
 1221W        W73481   5.950  23.763   3.358
 1222W        W73482  16.501  38.455  13.983
 1223W        W73483  11.869   1.904  12.676
 1224W        W73484  34.730  36.081  10.730
 1225W        W73485  22.803  25.741  13.581
 1226W        W73486  30.483  11.191   4.090
 1227W        W73487  16.526  38.533  10.630
 1228W        W73488  42.255  26.581   5.142
 1229W        W73489   3.704  38.234   1.068
 1230W        W73490   2.413  42.814  13.204
 1231W        W73491  37.284   6.361  11.932
 1232W        W73492  30.000  44.798  14.388
 1233W        W73493   4.996   8.758   4.220
 1234W        W73494   0.376  37.049   0.041
 1235W        W73495  43.708  21.829   3.185
 1236W        W73496  37.064   1.837   3.281
 1237W        W73497  22.978  28.943   5.505
 1238W        W73498  33.137  32.737  13.397
 1239W        W73499  14.881   7.394  10.980
 1240W        W73500  44.926  26.674  13.328
 1241W        W73501  21.065  10.255   4.497
 1242W        W73502  25.115  41.806   2.482
 1243W        W73503  21.702  41.679  12.756
 1244W        W73504  34.036   6.890   1.721
 1245W        W73505  17.896   5.800  10.069
 1246W        W73506  32.205  19.358  11.046
 1247W        W73507  31.960  34.799   1.895
 1248W        W73508   2.332  23.674   0.926
 1249W        W73509  21.792  30.167   3.871
 1250W        W73510  36.485  16.367  12.553
 1251W        W73511  22.193  12.122   3.236
 1252W        W73512  10.620  23.694   0.551
 1253W        W73513  28.028  36.047   5.111
 1254W        W73514  23.426  19.079  14.850
 1255W        W73515  23.369  44.818  12.057
 1256W        W73516  35.087  32.143   2.266
 1257W        W73517  21.042  40.787   2.705
 1258W        W73518  32.459   4.766  12.429
 1259W        W73519  21.683  44.825   3.243
 1260W        W73520  23.111   3.392   4.585
 1261W        W73521  35.878  26.128  14.856
 1262W        W73522  21.032  12.873  12.400
 1263W        W73523  33.588   7.972   3.193
 1264W        W73524  26.058  28.637   4.485
 1265W        W73525  13.690  14.144   0.233
 1266W        W73526  43.441   2.967   4.254
 1267W        W73527  22.217  44.371  14.497
 1268W        W73528   6.610  33.322   3.895
 1269W        W73529  15.332   8.700  10.993
 1270W        W73530  28.474  37.227   0.185
 1271W        W73531  23.414  14.251  12.063
 1272W        W73532  31.357  35.144  11.253
 1273W        W73533  40.640  22.268   2.845
 1274W        W73534  27.008  21.858  14.381
 1275W        W73535  19.223  35.841   0.773
 1276W        W73536   0.990  44.472  11.187
 1277W        W73537  13.576  36.020   1.961
 1278W        W73538  44.980  20.567   3.123
 1279W        W73539  15.178  18.172  13.383
 1280W        W73540  17.715  42.755  11.970
 1281W        W73541  35.237   0.988  10.776
 1282W        W73542  23.685   4.042   4.169
 1283W        W73543  26.019  19.331  11.095
 1284W        W73544   3.603  27.303  13.440
 1285W        W73545  32.899  16.059  12.196
 1286W        W73546  17.639  34.222  14.355
 1287W        W73547  27.969   5.062  11.890
 1288W        W73548  38.295  23.722  12.863
 1289W        W73549   7.685  26.119   3.144
 1290W        W73550   0.955   8.922  10.277
 1291W        W73551  25.451  17.862  10.345
 1292W        W73552  29.061   1.378   3.479
 1293W        W73553  40.469  25.922   1.318
 1294W        W73554  34.857  24.569  14.413
 1295W        W73555  26.607  42.474   2.340
 1296W        W73556  33.343  11.883   1.766
 1297W        W73557  40.513   5.418   3.319
 1298W        W73558  41.251  43.019   3.332
 1299W        W73559  11.210  21.066   3.632
 1300W        W73560  24.474   2.372   2.363
 1301W        W73561   9.724   7.708   3.769
 1302W        W73562  19.586  18.222   1.220
 1303W        W73563   0.580  26.794   4.881
 1304W        W73564   2.860   7.380   4.590
 1305W        W73565  10.592  12.441   0.774
 1306W        W73566   1.988   2.801  10.689
 1307W        W73567   9.341  36.884   1.136
 1308W        W73568   6.881  33.882  13.450
 1309W        W73569  32.944  35.117  12.317
 1310W        W73570  10.402  12.878   3.671
 1311W        W73571  16.842  16.722   2.876
 1312W        W73572  40.853  15.144  12.226
 1313W        W73573  35.339  44.802  11.107
 1314W        W73574  11.253  13.834  11.139
 1315W        W73575  43.522  14.105  10.311
 1316W        W73576  18.859  24.052  12.010
 1317W        W73577  26.436   0.346   0.558
 1318W        W73578   5.727  37.550  12.075
 1319W        W73579  20.738  29.926  10.809
 1320W        W73580  29.324  11.953   2.825
 1321W        W73581  15.554  20.165   1.446
 1322W        W73582  18.739  13.284  12.352
 1323W        W73583  32.681   8.323   0.048
 1324W        W73584  33.909  37.431   2.202
 1325W        W73585  16.644  14.660   4.525
 1326W        W73586   4.692  27.889  11.126
 1327W        W73587   2.055  30.089  10.377
 1328W        W73588  33.278  25.462   4.737
 1329W        W73589  37.925   7.215  14.779
 1330W        W73590  22.199   8.725  14.771
 1331W        W73591   7.355  35.006   0.817
 1332W        W73592  23.242  41.063  14.352
 1333W        W73593  32.281  35.159   0.295
 1334W        W73594  10.817  43.853   3.048
 1335W        W73595   9.249   8.728   4.105
 1336W        W73596  21.573  10.893  14.488
 1337W        W73597   5.389  10.712   4.552
 1338W        W73598  34.984  41.726  14.380
 1339W        W73599   1.954  41.086  12.652
 1340W        W73600  25.401   7.292  11.019
 1341W        W73601  30.372  24.121  11.591
 1342W        W73602  11.179  30.081  11.213
 1343W        W73603  16.876  35.442   3.112
 1344W        W73604  19.357  26.909  13.019
 1345W        W73605  40.295   7.828   0.883
 1346W        W73606  36.153  23.313  11.555
 1347W        W73607  25.942  40.028  12.639
 1348W        W73608  19.060  20.240   3.242
 1349W        W73609  29.897  44.106  14.920
 1350W        W73610  17.133   3.373  10.135
 1351W        W73611  27.491  17.127  14.991
 1352W        W73612  33.497  38.171  11.675
 1353W        W73613  32.122  38.405   3.211
 1354W        W73614  19.309   1.735   2.138
 1355W        W73615   9.348  16.914   3.194
 1356W        W73616  14.612  16.529   1.418
 1357W        W73617  19.509  38.394   3.429
 1358W        W73618  18.224   7.627   9.806
 1359W        W73619   8.446  31.687  11.680
 1360W        W73620  37.039  30.216  11.923
 1361W        W73621   6.989  18.779   2.933
 1362W        W73622  12.530  40.471  11.115
 1363W        W73623  15.687  30.824  13.765
 1364W        W73624   5.370  22.585   3.455
 1365W        W73625  20.511   4.246  10.790
 1366W        W73626  34.810  10.067   4.844
 1367W        W73627  25.007  21.385   5.065
 1368W        W73628  32.936  15.586  13.459
 1369W        W73629  36.083  19.144   1.461
 1370W        W73630  24.597  30.421   3.789
 1371W        W73631  26.957  31.388  13.768
 1372W        W73632  19.737  39.918  11.965
 1373W        W73633  35.553   3.486  10.766
 1374W        W73634   0.387  32.898   3.640
 1375W        W73635  28.949  27.127   2.390
 1376W        W73636  43.008   4.081   0.968
 1377W        W73637  16.637   7.178   0.443
 1378W        W73638  37.400  11.952   2.127
 1379W        W73639  30.606  23.044  14.006
 1380W        W73640  44.456   8.863   3.369
 1381W        W73641   2.044  31.022   1.496
 1382W        W73642  37.388  34.314   1.396
 1383W        W73643  15.612  40.960   2.197
 1384W        W73644   3.511  39.452  14.761
 1385W        W73645  36.376   5.161  14.966
 1386W        W73646   3.812  29.528  11.496
 1387W        W73647   5.370   1.232  13.050
 1388W        W73648  10.695   1.739  13.773
 1389W        W73649  22.072  28.832  14.831
 1390W        W73650   4.250   4.006  12.764
 1391W        W73651   9.661  26.373  14.867
 1392W        W73652  12.679  30.202  13.880
 1393W        W73653  17.124  24.350   4.500
 1394W        W73654  23.056  18.876   2.663
 1395W        W73655  18.034  42.220  12.564
 1396W        W73656  31.992  37.436  12.111
 1397W        W73657  18.448   2.953   0.403
 1398W        W73658  44.452  20.039   0.293
 1399W        W73659  38.776  29.954   1.678
 1400W        W73660   0.718  29.401  13.479
 1401W        W73661  31.898  34.571  11.954
 1402W        W73662  24.069  28.932  13.542
 1403W        W73663  32.651  13.853  11.042
 1404W        W73664  20.264  35.655   0.304
 1405W        W73665  14.697  39.948   1.868
 1406W        W73666   5.419   8.587  12.145
 1407W        W73667  26.431  41.280   1.297
 1408W        W73668  27.472  40.589  13.808
 1409W        W73669   9.673  27.732   5.073
 1410W        W73670   8.802   6.727  11.321
 1411W        W73671  17.232  12.211   9.891
 1412W        W73672  24.093  44.399  12.893
 1413W        W73673  17.277   8.131  10.244
 1414W        W73674  43.004  42.432   3.153
 1415W        W73675  26.061   9.342   2.219
 1416W        W73676   0.562   8.465   0.701
 1417W        W73677   0.316  34.394   3.638
 1418W        W73678  16.250   8.896   4.065
 1419W        W73679  40.022  40.905   4.936
 1420W        W73680   5.287  38.372  11.127
 1421W        W73681   8.865  26.229  13.082
 1422W        W73682   3.513  17.010   2.361
 1423W        W73683   1.470  18.204   0.319
 1424W        W73684  19.772  43.401   4.448
 1425W        W73685  15.564  41.461   1.658
 1426W        W73686  40.725  25.751   0.016
 1427W        W73687  21.408  43.289   3.092
 1428W        W73688  38.982   0.809   3.784
 1429W        W73689  35.552  34.459  14.526
 1430W        W73690  34.940   4.250   0.229
 1431W        W73691  36.993  37.003   4.660
 1432W        W73692  14.097  38.902  14.340
 1433W        W73693  24.215  34.338   0.802
 1434W        W73694  29.543  31.566  14.531
 1435W        W73695  28.072  17.260   1.809
 1436W        W73696  42.728  37.039  13.830
 1437W        W73697  29.610   5.232   0.804
 1438W        W73698  15.062  10.444  11.542
 1439W        W73699  41.935  18.796  12.837
 1440W        W73700  20.672  33.519  10.511
 1441W        W73701  34.627  30.027  12.451
 1442W        W73702  40.520   8.269  12.025
 1443W        W73703   7.695   6.244  11.471
 1444W        W73704  31.638   1.966  13.059
 1445W        W73705  29.518  21.555   3.319
 1446W        W73706   1.222  15.657   1.615
 1447W        W73707  17.685  17.516  13.796
 1448W        W73708  18.095   1.762   4.301
 1449W        W73709  15.876  19.703   4.507
 1450W        W73710  26.156  24.804   0.614
 1451W        W73711  30.060   8.002  10.698
 1452W        W73712   4.974  39.375  12.960
 1453W        W73713  31.256  36.845  12.073
 1454W        W73714  40.056  42.076  11.087
 1455W        W73715  19.493  13.088   4.728
 1456W        W73716  10.713  41.870  13.523
 1457W        W73717  21.559  17.098  12.147
 1458W        W73718  11.726  11.136  10.747
 1459W        W73719  23.642  44.224  14.916
 1460W        W73720   0.704  20.919  11.131
 1461W        W73721   8.840  10.839  10.455
 1462W        W73722   2.823  42.372  14.181
 1463W        W73723  21.080  36.100   1.744
 1464W        W73724  10.843  15.863   0.280
 1465W        W73725  33.081  36.764  14.077
 1466W        W73726   6.159  34.961  11.804
 1467W        W73727   6.171  19.698  10.308
 1468W        W73728  36.043  31.029  12.521
 1469W        W73729  23.170  25.068  10.546
 1470W        W73730  39.089  41.439   2.754
 1471W        W73731  10.094  23.457  13.966
 1472W        W73732   6.915  41.340  11.886
 1473W        W73733  13.261  13.539   1.448
 1474W        W73734  11.529  35.642  12.446
 1475W        W73735  10.534  41.468  11.738
 1476W        W73736  36.090   8.228   5.006
 1477W        W73737  15.160  29.730  14.393
 1478W        W73738  11.811   8.111  10.762
 1479W        W73739  21.122  32.623   3.293
 1480W        W73740  27.865   6.452   5.004
 1481W        W73741  28.467  27.937   0.876
 1482W        W73742  23.601   2.345   3.678
 1483W        W73743   5.720  29.906   0.735
 1484W        W73744   7.676  21.617  11.523
 1485W        W73745  39.521  30.838  14.712
 1486W        W73746   1.717   5.329   4.039
 1487W        W73747  24.091  41.203   0.685
 1488W        W73748   1.289  23.189   4.314
 1489W        W73749  14.629   1.887  11.339
 1490W        W73750  41.921  24.642  13.674
 1491W        W73751   6.906  17.977  13.630
 1492W        W73752  13.316  15.151  10.154
 1493W        W73753   5.677  19.249  11.912
 1494W        W73754   5.100   5.903   3.286
 1495W        W73755  34.332  31.111  14.961
 1496W        W73756  38.464   5.481  13.533
 1497W        W73757  14.821  41.918   4.581
 1498W        W73758  22.188  18.505   3.669
 1499W        W73759  15.637  24.832   4.574
 1500W        W73760  35.442  12.555  12.593
 1501W        W73761   4.664  12.708  14.241
 1502W        W73762  14.282  34.176  11.116
 1503W        W73763  42.802   3.774  12.036
 1504W        W73764  10.318  33.004   0.510
 1505W        W73765  44.518   7.115   3.273
 1506W        W73766  21.696   9.207   2.194
 1507W        W73767  36.386  10.706   3.975
 1508W        W73768  12.978  41.999  11.156
 1509W        W73769  29.210  11.266   3.309
 1510W        W73770  18.612  23.220  11.536
 1511W        W73771  33.570  10.243  10.213
 1512W        W73772  13.860  17.183  10.633
 1513W        W73773   1.780  35.635   3.382
 1514W        W73774   7.231  21.473  11.753
 1515W        W73775  34.980  21.808   4.196
 1516W        W73776  15.164  41.972   4.179
 1517W        W73777   2.462  27.120  10.710
 1518W        W73778   3.681   1.002  13.819
 1519W        W73779  32.023  27.613  13.751
 1520W        W73780  24.140   2.901  10.534
 1521W        W73781  25.376   1.502   1.257
 1522W        W73782   9.936  34.959   3.622
 1523W        W73783  33.881  26.535  12.069
 1524W        W73784   7.288  12.385   4.973
 1525W        W73785   9.651  35.391   4.200
 1526W        W73786  16.580   9.528  11.891
 1527W        W73787  35.407  12.125   2.732
 1528W        W73788   3.207  20.662  11.465
 1529W        W73789  40.513  36.475  13.888
 1530W        W73790   5.329  31.503   1.968
 1531W        W73791   4.300   7.600  11.467
 1532W        W73792  39.968  17.178  14.786
 1533W        W73793  24.537  37.940   3.823
 1534W        W73794  44.544   9.844   0.382
 1535W        W73795  31.091   6.097  12.563
 1536W        W73796  37.075  29.502   2.306
 1537W        W73797  28.449   9.540   1.347
 1538W        W73798  27.799  37.501  13.527
 1539W        W73799  27.361  24.625   1.199
 1540W        W73800   9.397  42.863   2.122
 1541W        W73801  30.528  33.009  12.706
 1542W        W73802   7.860  34.185   4.596
 1543W        W73803  41.366  43.879  13.906
 1544W        W73804  34.243   5.774  13.621
 1545W        W73805  40.928  20.750   3.720
 1546W        W73806  35.473  38.606  12.391
 1547W        W73807  37.566   3.417   0.020
 1548W        W73808  30.194  14.138  12.095
 1549W        W73809   6.917  39.906   3.278
 1550W        W73810  43.051  14.338  12.578
 1551W        W73811  18.326  32.329   0.704
 1552W        W73812  19.566   1.287  12.629
 1553W        W73813  17.300  17.800   3.437
 1554W        W73814  28.583  21.828   4.643
 1555W        W73815   2.039  38.948  14.496
 1556W        W73816  24.477  36.286   1.178
 1557W        W73817  22.500  10.079   4.508
 1558W        W73818  44.979   4.100   1.863
 1559W        W73819   1.933  44.526  11.022
 1560W        W73820  16.626  34.784  14.903
 1561W        W73821  32.935  27.739  14.342
 1562W        W73822  33.903  43.898   2.408
 1563W        W73823  40.515  21.211  11.144
 1564W        W73824  32.020  19.098   4.523
 1565W        W73825  32.045  35.126  11.554
 1566W        W73826  13.212  19.005   1.242
 1567W        W73827  39.000   5.533   4.625
 1568W        W73828  24.050  44.600  13.683
 1569W        W73829  25.993  35.156   4.148
 1570W        W73830  35.370  28.561  13.901
 1571W        W73831  21.625  37.729   0.046
 1572W        W73832  43.371   2.513   3.090
 1573W        W73833  13.167  42.861   4.372
 1574W        W73834   6.658  42.058  14.799
 1575W        W73835  16.634  28.093   0.721
 1576W        W73836  12.293  43.852  11.525
 1577W        W73837  16.360   6.349   4.713
 1578W        W73838  39.391  13.639   2.685
 1579W        W73839   6.453  18.084   1.959
 1580W        W73840  20.507  14.985  10.672
 1581W        W73841  33.392  11.188  12.576
 1582W        W73842  10.168  10.180  14.497
 1583W        W73843  33.680   9.461  10.898
 1584W        W73844  29.022  39.556   1.586
 1585W        W73845  16.685  29.060  13.375
 1586W        W73846  31.104  42.289  14.316
 1587W        W73847  12.617  36.012  11.133
 1588W        W73848   6.613  33.456   1.449
 1589W        W73849  32.461  37.682   3.947
 1590W        W73850   1.730  17.270   1.001
 1591W        W73851   9.467   6.906   1.324
 1592W        W73852  33.850  32.576   3.445
 1593W        W73853  30.540  27.806   3.732
 1594W        W73854  29.551  36.761   4.925
 1595W        W73855  35.565   7.897   3.212
 1596W        W73856  16.737  43.576   2.482
 1597W        W73857  15.306  26.541   0.242
 1598W        W73858  16.684  22.445  11.999
 1599W        W73859   0.655  40.620   0.804
 1600W        W73860  27.665  20.281  11.166
 1601W        W73861  38.110   7.126   0.842
 1602W        W73862  27.779  35.544   1.817
 1603W        W73863   1.839  23.681  14.294
 1604W        W73864  21.170  25.446  13.304
 1605W        W73865   1.276  14.189   4.153
 1606W        W73866  40.487  10.668   4.687
 1607W        W73867  24.825   8.776  14.754
 1608W        W73868   6.762  18.747  14.304
 1609W        W73869  44.684  25.945   2.549
 1610W        W73870  15.182  22.947   4.401
 1611W        W73871  30.069  35.081  11.979
 1612W        W73872  37.871  18.812  14.569
 1613W        W73873   4.820  32.595   3.602
 1614W        W73874   5.355  35.115   2.828
 1615W        W73875   1.255  18.557   0.608
 1616W        W73876  35.512  21.110  11.465
 1617W        W73877   3.383  26.308   5.094
 1618W        W73878   5.631  39.412  12.430
 1619W        W73879   7.430  29.794   1.678
 1620W        W73880  29.338  39.499   0.791
 1621W        W73881   0.699  23.534  11.144
 1622W        W73882   1.931  44.925   3.351
 1623W        W73883  40.931  16.082  14.748
 1624W        W73884  25.102  33.153  11.676
 1625W        W73885  14.739  24.071   3.371
 1626W        W73886  35.027  25.233   4.463
 1627W        W73887  17.476  15.530   0.957
 1628W        W73888  12.466  40.683  14.316
 1629W        W73889   2.319  16.907   2.694
 1630W        W73890  12.812  44.514  14.801
 1631W        W73891  39.477  33.776   4.111
 1632W        W73892  27.138  34.013  10.759
 1633W        W73893  31.080  33.079  11.976
 1634W        W73894  18.008  25.478  12.530
 1635W        W73895  32.747  44.754  14.823
 1636W        W73896  27.939   7.344  14.799
 1637W        W73897  32.951  33.603  12.552
 1638W        W73898  24.253  31.211   1.717
 1639W        W73899  14.561  13.811   3.703
 1640W        W73900  41.233  19.554   2.869
 1641W        W73901  20.754   3.886   1.408
 1642W        W73902  20.688  28.593   2.890
 1643W        W73903  23.026  38.560   2.348
 1644W        W73904  14.282  17.221   4.630
 1645W        W73905   4.684  25.756   5.142
 1646W        W73906  26.052  17.308  13.368
 1647W        W73907  19.577  24.011  14.385
 1648W        W73908  28.129  26.461   4.174
 1649W        W73909  25.532  26.577  14.812
 1650W        W73910  43.727   5.384   1.517
 1651W        W73911  28.176  31.562  10.590
 1652W        W73912   0.988  43.228  11.125
 1653W        W73913  32.367  17.098  10.736
 1654W        W73914  31.249  21.392  11.135
 1655W        W73915   1.093   9.012  14.317
 1656W        W73916  14.226  23.052   4.145
 1657W        W73917  25.217  25.187  14.889
 1658W        W73918  38.345  32.919  11.575
 1659W        W73919   3.249  33.403   2.312
 1660W        W73920  42.077  41.059   1.247
 1661W        W73921  33.231  43.339   0.614
 1662W        W73922  29.248  29.380   0.994
 1663W        W73923  18.705  40.431   5.191
 1664W        W73924  11.114  38.850  12.564
 1665W        W73925   0.507  35.483   1.539
 1666W        W73926  19.065  24.097  14.977
 1667W        W73927  12.594  17.447   4.557
 1668W        W73928  40.566  16.167   1.178
 1669W        W73929  26.477  11.333   4.331
 1670W        W73930   2.183  38.349  13.265
 1671W        W73931  25.559  44.012  14.817
 1672W        W73932  18.933  41.340  13.482
 1673W        W73933  19.837  11.821   4.104
 1674W        W73934  23.126  21.118   1.882
 1675W        W73935  22.308  40.260  10.639
 1676W        W73936  28.763  41.931  10.729
 1677W        W73937  26.737   0.080   3.377
 1678W        W73938  32.472  19.642   2.254
 1679W        W73939   2.872  26.275  11.597
 1680W        W73940   4.799  44.078   4.278
 1681W        W73941  30.944  23.609   3.523
 1682W        W73942  22.029   0.495   1.652
 1683W        W73943  42.753  43.023  12.160
 1684W        W73944  16.022  11.368  11.614
 1685W        W73945   3.760  26.859  12.976
 1686W        W73946  26.131  23.645   3.897
 1687W        W73947   7.714  30.954   3.623
 1688W        W73948   6.960  18.218   3.712
 1689W        W73949  44.047   8.737   4.647
 1690W        W73950  42.038   2.648  12.573
 1691W        W73951   4.335  17.425  13.553
 1692W        W73952  32.742  44.752   3.079
 1693W        W73953   8.420  34.389  12.984
 1694W        W73954  25.469   8.376   4.338
 1695W        W73955   3.286  32.664  11.780
 1696W        W73956  40.389  30.938  12.442
 1697W        W73957   8.272  28.937   1.691
 1698W        W73958  19.312  38.309  12.652
 1699W        W73959  27.059  21.966   3.252
 1700W        W73960   0.085  35.059  12.570
 1701W        W73961  14.409  15.344   2.566
 1702W        W73962  22.605  33.947  13.874
 1703W        W73963  11.415  30.416  12.000
 1704W        W73964   1.659  24.978  12.574
 1705W        W73965   8.741   9.787   2.911
 1706W        W73966   6.262  10.743  14.465
 1707W        W73967   5.314  16.922  11.311
 1708W        W73968  37.847  33.604  11.830
 1709W        W73969  22.244   0.699  11.614
 1710W        W73970  31.967  12.605  11.527
 1711W        W73971   7.767  37.061  14.803
 1712W        W73972  40.760  27.508   1.467
 1713W        W73973  29.079   0.849   3.663
 1714W        W73974  39.136  41.987  10.653
 1715W        W73975  23.809  12.154   0.878
 1716W        W73976  40.585   9.888   4.203
 1717W        W73977  23.680   8.935   3.123
 1718W        W73978   2.381   1.687  10.495
 1719W        W73979  10.914  27.918  12.909
 1720W        W73980  35.360   9.225  12.523
 1721W        W73981  21.066   6.539   4.591
 1722W        W73982  42.004  36.797  12.518
 1723W        W73983  23.554  18.187   1.695
 1724W        W73984  17.550  15.151   2.619
 1725W        W73985  26.002  17.609   2.877
 1726W        W73986  40.822   0.510  12.871
 1727W        W73987  32.099  28.072  13.351
 1728W        W73988  16.022  36.073  10.750
 1729W        W73989   9.194  16.068   4.380
 1730W        W73990  39.483  23.732  11.532
 1731W        W73991  31.689  32.223  13.387
 1732W        W73992  24.226  13.045  13.469
 1733W        W73993  40.112  40.447  12.518
 1734W        W73994  21.837  15.254   2.443
 1735W        W73995  37.454  20.741   4.395
 1736W        W73996  37.957  29.279  12.083
 1737W        W73997   0.397   5.174   1.138
 1738W        W73998  40.551  44.609  12.933
 1739W        W73999  32.655  17.122  10.296
 1740W        W74000  19.745  33.581  14.335
 1741W        W74001  31.651  16.732   1.253
 1742W        W74002  34.963  11.508   4.781
 1743W        W74003  28.842   9.974  13.366
 1744W        W74004  27.729   5.214   0.840
 1745W        W74005   4.443  12.554  13.422
 1746W        W74006  28.085  43.545   3.886
 1747W        W74007   7.064  31.071  10.447
 1748W        W74008  41.228  43.554   4.207
 1749W        W74009  10.608   5.430  13.034
 1750W        W74010  38.420  38.698  10.704
 1751W        W74011  34.402  42.162  13.816
 1752W        W74012  34.506  28.892   1.167
 1753W        W74013  21.672   4.265   3.960
 1754W        W74014   3.171  32.017   5.115
 1755W        W74015  42.975  22.202  13.506
 1756W        W74016   7.415   6.895  14.357
 1757W        W74017  32.065  20.154   2.241
 1758W        W74018  40.006  19.024   3.378
 1759W        W74019  40.246  22.478   0.369
 1760W        W74020  13.314  25.537   1.235
 1761W        W74021  33.486  24.556   1.976
 1762W        W74022  21.553  44.082  10.799
 1763W        W74023   2.190  32.084  12.419
 1764W        W74024  43.045   0.661   4.957
 1765W        W74025  23.672  30.900  14.848
 1766W        W74026  25.819   1.852   2.156
 1767W        W74027  26.629  16.695  11.533
 1768W        W74028  31.486  23.166  12.010
 1769W        W74029  10.113  17.879   0.370
 1770W        W74030  32.596  21.836   4.952
 1771W        W74031  12.825  41.262   0.547
 1772W        W74032  13.088  43.539  12.944
 1773W        W74033  12.992  32.436   3.801
 1774W        W74034   1.015  42.652   4.932
 1775W        W74035   0.153  21.147  12.266
 1776W        W74036  33.427   1.703   1.342
 1777W        W74037   8.951  34.891   0.371
 1778W        W74038  23.136  21.098  13.813
 1779W        W74039  42.786  40.560  12.129
 1780W        W74040  29.433  30.008  10.172
 1781W        W74041  16.899  43.001   0.465
 1782W        W74042   3.129  20.487   1.278
 1783W        W74043  14.793  29.588  14.803
 1784W        W74044  28.608  40.063   4.685
 1785W        W74045   8.404  19.548  13.606
 1786W        W74046  26.077   9.190  13.171
 1787W        W74047   2.813  22.777   4.558
 1788W        W74048   6.933  29.700   0.511
 1789W        W74049  25.208   9.582   0.254
 1790W        W74050  22.205  24.948   0.129
 1791W        W74051  22.656   3.166   2.640
 1792W        W74052  14.306  37.863   0.317
 1793W        W74053  29.745  44.701   1.745
 1794W        W74054   7.434  10.026   2.764
 1795W        W74055  13.456  33.581  12.103
 1796W        W74056  16.442  31.577   2.183
 1797W        W74057   1.922  26.212   3.207
 1798W        W74058  27.885  42.581  13.082
 1799W        W74059   2.625   4.704  13.771
 1800W        W74060  25.051   3.262  14.022
 1801W        W74061  17.155   0.845   3.725
 1802W        W74062  44.979  10.868   0.426
 1803W        W74063  15.520  26.658  13.938
 1804W        W74064  13.279   7.193   3.993
 1805W        W74065  38.115  32.007   1.193
 1806W        W74066   4.662  16.173  13.240
 1807W        W74067  41.988   0.917  14.889
 1808W        W74068   9.670  20.624  14.650
 1809W        W74069  26.112  37.567   9.933
 1810W        W74070  43.798  41.926  10.712
 1811W        W74071  17.913  17.610   1.815
 1812W        W74072  23.912   2.881  14.770
 1813W        W74073  31.112  28.130  11.948
 1814W        W74074  38.673  33.050  11.198
 1815W        W74075   0.794   0.332   1.438
 1816W        W74076  37.890  16.571  11.064
 1817W        W74077  29.631  16.470   2.348
 1818W        W74078   1.941  21.436  12.020
 1819W        W74079  23.937  28.725   0.230
 1820W        W74080  37.517  30.686  12.012
 1821W        W74081   0.016  39.007   3.427
 1822W        W74082   0.814  21.197  10.699
 1823W        W74083  10.404  26.515   0.313
 1824W        W74084  15.760  22.245   4.187
 1825W        W74085  19.990  31.192   0.275
 1826W        W74086   5.024  10.730  13.421
 1827W        W74087   1.332  43.822   3.487
 1828W        W74088  41.979  39.911   0.849
 1829W        W74089   1.976  30.383  12.259
 1830W        W74090  24.882  41.921  14.419
 1831W        W74091  20.694  43.311  13.017
 1832W        W74092  12.773  32.624  14.791
 1833W        W74093  16.510  28.853  11.782
 1834W        W74094  16.690  28.996   3.182
 1835W        W74095  35.979  25.386   4.304
 1836W        W74096  16.765  18.202   0.450
 1837W        W74097  27.993  40.956  12.457
 1838W        W74098  34.129  18.682   3.836
 1839W        W74099   9.280  18.829  11.052
 1840W        W74100  14.310  22.720  12.995
 1841W        W74101  16.305   3.374   4.605
 1842W        W74102  39.327  15.233   0.953
 1843W        W74103  23.964  19.537  10.114
 1844W        W74104  30.212  35.894  13.868
 1845W        W74105  16.530  20.233   0.320
 1846W        W74106  32.353  30.923   0.165
 1847W        W74107   5.887  34.826   3.709
 1848W        W74108  31.612  10.500  11.856
 1849W        W74109   9.886   6.405  11.090
 1850W        W74110   2.844  13.868   1.760
 1851W        W74111  29.953   2.010   4.468
 1852W        W74112   4.198   3.739   1.912
 1853W        W74113   4.811   5.333   1.292
 1854W        W74114  32.975   2.213   0.695
 1855W        W74115  23.620  36.653  11.475
 1856W        W74116  24.727   1.514  14.299
 1857W        W74117   9.678  44.698  13.973
 1858W        W74118  14.119  35.702   3.078
 1859W        W74119   8.330  10.080   2.708
 1860W        W74120  44.312   1.816  10.623
 1861W        W74121   6.636   3.729   3.163
 1862W        W74122   4.961   6.834  12.191
 1863W        W74123  26.468  31.192   0.428
 1864W        W74124   9.014  43.515  14.809
 1865W        W74125  15.299  13.282   1.383
 1866W        W74126  10.205  16.293  13.111
 1867W        W74127  34.636   3.883  12.592
 1868W        W74128  40.692  33.224   3.273
 1869W        W74129  43.123  22.531   3.066
 1870W        W74130  33.647  16.665  13.327
 1871W        W74131  19.705  20.529   5.067
 1872W        W74132  33.375  15.325  12.382
 1873W        W74133  38.558  20.930   3.940
 1874W        W74134  28.086  37.430  12.054
 1875W        W74135  18.777  18.471  14.181
 1876W        W74136   6.677  14.118   3.624
 1877W        W74137  32.374  31.524  11.409
 1878W        W74138  27.634  26.013   0.992
 1879W        W74139  21.691  12.694   3.644
 1880W        W74140  19.528  11.360   3.292
 1881W        W74141   5.428  40.507  13.897
 1882W        W74142   0.922  42.874   1.240
 1883W        W74143  30.192  12.311   3.633
 1884W        W74144   5.047  35.908   4.986
 1885W        W74145  40.434  35.019   2.198
 1886W        W74146   9.089  35.967  13.084
 1887W        W74147  12.888  15.789  11.613
 1888W        W74148  13.136  21.455  14.450
 1889W        W74149   0.973   8.591  12.656
 1890W        W74150  14.651   8.236   4.643
 1891W        W74151  39.025  30.969   3.313
 1892W        W74152  21.271  27.111   5.141
 1893W        W74153  40.234  35.031  12.437
 1894W        W74154  12.187  17.135   3.238
 1895W        W74155  25.845  24.128  11.609
 1896W        W74156  36.797  33.360   2.662
 1897W        W74157  35.833  12.440  14.743
 1898W        W74158  30.138   4.366   4.525
 1899W        W74159  21.923  14.784  12.859
 1900W        W74160  28.064  29.182  14.933
 1901W        W74161  44.934  42.460  10.774
 1902W        W74162  11.213   0.046   3.162
 1903W        W74163  22.956   5.804   4.177
 1904W        W74164  11.266  30.871  10.799
 1905W        W74165  18.828  38.211  11.580
 1906W        W74166   2.461  30.522   2.282
 1907W        W74167  18.442  25.035   5.007
 1908W        W74168  35.368  40.210  13.876
 1909W        W74169  20.507   0.425  12.974
 1910W        W74170   4.899  33.467  12.886
 1911W        W74171  10.237  15.341  12.874
 1912W        W74172  32.066  43.419   1.171
 1913W        W74173   4.336  42.295  14.239
 1914W        W74174  40.041  17.547  10.699
 1915W        W74175  25.030  24.550  10.740
 1916W        W74176  26.243  10.492  11.007
 1917W        W74177  37.974  17.840   0.329
 1918W        W74178   0.210  44.333  13.874
 1919W        W74179  26.591  17.606   1.733
 1920W        W74180   1.049  36.139   2.137
 1921W        W74181   9.790  27.528   2.659
 1922W        W74182  36.312   7.183  10.453
 1923W        W74183  36.320   9.297  11.504
 1924W        W74184   3.366  38.245   0.218
 1925W        W74185   1.755  11.171  14.073
 1926W        W74186  36.426  43.521  12.653
 1927W        W74187  10.031   8.118   3.816
 1928W        W74188   6.975   6.698   2.597
 1929W        W74189  23.480   5.462   4.273
 1930W        W74190  34.523  28.092  10.428
 1931W        W74191   9.876   2.500  11.164
 1932W        W74192   4.439  28.080  13.182
 1933W        W74193   9.393   3.218  13.505
 1934W        W74194   7.292  42.773   0.150
 1935W        W74195  14.670  22.250  14.908
 1936W        W74196  30.663  25.683   4.081
 1937W        W74197  36.463  28.142  12.346
 1938W        W74198  11.401  29.101  12.530
 1939W        W74199   1.722  10.230   3.635
 1940W        W74200  23.624   6.711   4.905
 1941W        W74201  42.125  23.254  13.433
 1942W        W74202  33.307   8.041  11.758
 1943W        W74203  40.633  30.170   1.226
 1944W        W74204  24.939   2.470   1.392
 1945W        W74205  32.222  36.558  10.619
 1946W        W74206   2.746   9.659  13.862
 1947W        W74207  34.834  38.635  14.912
 1948W        W74208  23.573  15.081   3.763
 1949W        W74209   5.894  13.416   2.836
 1950W        W74210  27.270   5.291  13.526
 1951W        W74211  23.214   1.680   0.312
 1952W        W74212   2.098  16.137   4.555
 1953W        W74213  10.550   6.881  14.018
 1954W        W74214  33.057  43.480  12.591
 1955W        W74215  18.706  42.293   2.916
 1956W        W74216   4.992  15.245   0.459
 1957W        W74217  37.267  21.661   0.416
 1958W        W74218  23.085  43.458   2.436
 1959W        W74219   4.110  37.113  14.262
 1960W        W74220  24.011  38.023  12.626
 1961W        W74221  37.951  22.755   1.114
 1962W        W74222   5.930  39.532   1.331
 1963W        W74223   2.698   4.832   4.699
 1964W        W74224  44.509   0.374   0.832
 1965W        W74225  12.682  38.068   4.770
 1966W        W74226  16.397  44.785  11.110
 1967W        W74227   0.984  12.931  13.537
 1968W        W74228  20.991   6.912  10.413
 1969W        W74229  37.550  14.682   3.284
 1970W        W74230  21.737  16.111   4.506
 1971W        W74231  40.809  34.020  11.734
 1972W        W74232  40.462  34.375   0.195
 1973W        W74233   1.374  20.704   3.844
 1974W        W74234   2.362   1.798   2.159
 1975W        W74235  37.884  30.456  14.525
 1976W        W74236  30.981  13.205  11.470
 1977W        W74237  42.431  42.045  12.330
 1978W        W74238  32.024   7.060   2.122
 1979W        W74239  23.033  33.973   3.443
 1980W        W74240  21.772   1.529   2.835
 1981W        W74241  23.650  12.250  13.618
 1982W        W74242   9.127  39.455   3.894
 1983W        W74243  31.152  28.638  11.926
 1984W        W74244   7.157  44.895   4.811
 1985W        W74245  10.717  43.366   4.093
 1986W        W74246  41.809  20.447   4.257
 1987W        W74247  10.168  31.925   5.065
 1988W        W74248   3.425   9.579   2.378
 1989W        W74249   8.213   7.306   2.726
 1990W        W74250   2.278   7.460   2.710
 1991W        W74251  25.684   2.292  11.970
 1992W        W74252  32.147  28.520   0.881
 1993W        W74253   4.500  24.378  10.933
 1994W        W74254  29.842   4.355  10.629
 1995W        W74255  20.145  28.824   1.650
 1996W        W74256  19.098  43.277  14.376
 1997W        W74257  41.381   5.160  12.571
 1998W        W74258  30.863   6.306   3.630
 1999W        W74259  12.748  14.072   1.881
 2000W        W74260  29.172  29.330  12.160
 2001W        W74261   6.320   7.273  11.240
 2002W        W74262  21.281  43.459   2.619
 2003W        W74263  17.062   5.344   0.447
 2004W        W74264  25.888  18.605   1.284
 2005W        W74265  12.138  13.304  12.478
 2006W        W74266   9.420  41.482   3.676
 2007W        W74267  27.888  35.200   5.315
 2008W        W74268  12.614  26.375  12.075
 2009W        W74269  14.746  13.896   5.158
 2010W        W74270   7.947  17.002  13.535
 2011W        W74271  40.876  43.298  13.340
 2012W        W74272  12.607  12.376   2.350
 2013W        W74273  19.175  35.229   4.523
 2014W        W74274  39.438   5.218  12.583
 2015W        W74275   6.310   6.674  13.476
 2016W        W74276  14.716  14.297   4.774
 2017W        W74277   5.462  30.440   2.326
 2018W        W74278   5.879   0.571  14.801
 2019W        W74279  39.568  36.509   1.411
 2020W        W74280  10.661  38.539  13.513
 2021W        W74281  10.173  18.989   4.647
 2022W        W74282  33.534   7.755   1.512
 2023W        W74283  26.147  33.899   0.365
 2024W        W74284   0.058   1.913  12.953
 2025W        W74285  35.747   9.342  13.485
 2026W        W74286  44.945  15.308  12.427
 2027W        W74287  16.294  21.759  12.112
 2028W        W74288  20.646  32.384  10.951
 2029W        W74289   8.145  27.978   1.897
 2030W        W74290  29.912  38.637  12.454
 2031W        W74291  28.153  44.286  14.024
 2032W        W74292  28.045  29.875   2.237
 2033W        W74293  42.454  28.683  13.476
 2034W        W74294  29.544   9.373  11.471
 2035W        W74295   2.819  36.044   3.718
 2036W        W74296  26.950  17.050  13.876
 2037W        W74297  42.549  27.727  13.012
 2038W        W74298  19.271  11.803   3.278
 2039W        W74299  27.173  14.034   4.443
 2040W        W74300  37.382  23.776   1.688
 2041W        W74301  17.805  29.114   1.372
 2042W        W74302  17.563   5.921  14.783
 2043W        W74303  44.398   1.447   1.945
 2044W        W74304  27.640  43.054  12.996
 2045W        W74305  10.318  26.929  12.273
 2046W        W74306  28.957  22.192   4.662
 2047W        W74307  17.618  23.277  11.053
 2048W        W74308  37.911  33.285   3.268
 2049W        W74309  19.051  43.853   0.567
 2050W        W74310   7.728  33.354   2.730
 2051W        W74311  39.661  43.476   1.334
 2052W        W74312  37.572  20.877  14.947
 2053W        W74313  10.872   2.175   0.597
 2054W        W74314   0.154  27.674   1.389
 2055W        W74315  33.442  43.458   3.166
 2056W        W74316  27.628  36.341  13.532
 2057W        W74317  22.703   1.745   0.163
 2058W        W74318   5.382  33.505   2.130
 2059W        W74319  10.496  18.628   1.223
 2060W        W74320  33.897  37.818  11.580
 2061W        W74321  16.727  31.445   3.699
 2062W        W74322  15.449  25.843   1.755
 2063W        W74323   0.548  22.075   3.386
 2064W        W74324   7.974  35.890   5.082
 2065W        W74325  27.989  33.241  11.167
 2066W        W74326  37.033  23.120  12.026
 2067W        W74327  32.599  19.059   1.876
 2068W        W74328  26.934  25.663   5.162
 2069W        W74329  18.405  41.056  14.428
 2070W        W74330  32.392  28.189   4.429
 2071W        W74331  26.632  42.830   2.935
 2072W        W74332  23.845  30.011   1.325
 2073W        W74333   6.847  14.382   4.573
 2074W        W74334  37.455  12.218   0.409
 2075W        W74335  13.986  24.784  10.828
 2076W        W74336  12.923  13.848  14.562
 2077W        W74337  11.701   4.191  14.814
 2078W        W74338  27.978  36.461  12.936
 2079W        W74339   0.240   5.184   3.812
 2080W        W74340   2.750  16.966   0.372
 2081W        W74341  14.295  23.960  13.753
 2082W        W74342  14.276  44.518   0.800
 2083W        W74343  41.307  44.258  12.533
 2084W        W74344   8.417   6.671  14.337
 2085W        W74345  33.916  14.114  12.364
 2086W        W74346  38.810   8.559  14.868
 2087W        W74347   9.049   1.288   4.005
 2088W        W74348  41.962  23.437  12.095
 2089W        W74349  39.961   0.047   4.421
 2090W        W74350  20.533  11.855   1.843
 2091W        W74351  26.939  27.556   2.138
 2092W        W74352   2.685  26.113  14.958
 2093W        W74353  20.738  24.199   0.723
 2094W        W74354   8.657  23.824  14.005
 2095W        W74355  19.496  32.418   4.272
 2096W        W74356  42.253  23.439  10.823
 2097W        W74357  21.862   5.247   4.514
 2098W        W74358   7.742  30.518  12.837
 2099W        W74359   6.362  12.867  14.560
 2100W        W74360   7.612  44.561  11.576
 2101W        W74361  42.607  43.540  13.530
 2102W        W74362   1.359  31.053   2.640
 2103W        W74363  40.209  34.502  12.178
 2104W        W74364  13.169  15.326   4.842
 2105W        W74365  25.980  31.013   3.623
 2106W        W74366  33.396  31.923  13.298
 2107W        W74367  29.074  42.737   3.035
 2108W        W74368  39.820   8.222   0.014
 2109W        W74369  39.728  12.562  13.513
 2110W        W74370  28.315  23.944   1.725
 2111W        W74371   0.398   0.611  10.678
 2112W        W74372  38.846  32.360  10.667
 2113W        W74373  39.270  44.008  14.543
 2114W        W74374   2.320  19.729  11.134
 2115W        W74375   3.392  26.949  11.643
 2116W        W74376  19.008  30.215  11.515
 2117W        W74377   5.763  43.548   1.187
 2118W        W74378  14.266  11.513   1.447
 2119W        W74379  31.980   6.331   0.351
 2120W        W74380  22.539   6.563  10.448
 2121W        W74381  19.610  26.258  11.953
 2122W        W74382  20.115   1.341   3.694
 2123W        W74383  12.548  22.019   0.719
 2124W        W74384  39.048  38.926   1.900
 2125W        W74385   5.549  33.007   4.527
 2126W        W74386  23.666  16.245   2.120
 2127W        W74387  35.814  34.424  12.221
 2128W        W74388   1.323  31.169  12.603
 2129W        W74389  20.637  14.560  13.060
 2130W        W74390  38.387  30.491  11.838
 2131W        W74391  27.113  43.469  12.813
 2132W        W74392   5.754  42.804  11.099
 2133W        W74393  15.657  36.093  13.417
 2134W        W74394  32.239   2.942  12.559
 2135W        W74395  44.789  21.710  12.516
 2136W        W74396  27.427  31.200  12.038
 2137W        W74397   5.534  34.656  13.436
 2138W        W74398  35.587  36.847  12.569
 2139W        W74399  25.044  32.371  14.568
 2140W        W74400  28.015  20.705  10.532
 2141W        W74401  18.170  25.872   3.280
 2142W        W74402   2.300   8.419  14.791
 2143W        W74403  34.412  19.648   0.882
 2144W        W74404  23.036  25.025  10.047
 2145W        W74405  32.651  27.267  12.391
 2146W        W74406  43.778  38.352  12.562
 2147W        W74407  41.978  38.525  10.309
 2148W        W74408  43.080   3.864   3.140
 2149W        W74409  28.292  23.479   0.027
 2150W        W74410  34.494  38.831  11.301
 2151W        W74411   0.421   2.420  12.119
 2152W        W74412  26.408  41.558   0.864
 2153W        W74413   8.394   8.505   5.009
 2154W        W74414  19.527  30.899  12.954
 2155W        W74415   7.900  34.927   0.912
 2156W        W74416  28.402  10.368  12.485
 2157W        W74417   8.959  40.496   1.936
 2158W        W74418  41.170  10.629   2.283
 2159W        W74419   9.424  29.118   1.296
 2160W        W74420  12.786  44.668   0.310
 2161W        W74421  44.401   5.713   0.959
 2162W        W74422  20.529  22.261  12.174
 2163W        W74423  32.029   8.426   4.719
 2164W        W74424  13.844  19.026  12.141
 2165W        W74425  19.177   0.429  11.601
 2166W        W74426  43.974  43.746  14.390
 2167W        W74427   3.221   7.991   0.015
 2168W        W74428   3.238  12.791   2.382
 2169W        W74429   4.754  19.525  11.606
 2170W        W74430   0.348  16.585   3.608
 2171W        W74431  19.538  42.382  14.683
 2172W        W74432  38.158  41.846   4.206
 2173W        W74433  39.952  14.275  14.741
 2174W        W74434  33.618  23.815   0.951
 2175W        W74435  31.651   8.646   0.683
 2176W        W74436  26.998  26.616   1.347
 2177W        W74437  20.865   9.430   1.751
 2178W        W74438   4.661   0.533   3.483
 2179W        W74439  21.450  25.935  11.523
 2180W        W74440   3.716  38.349   2.487
 2181W        W74441  39.250   3.688   0.770
 2182W        W74442   7.377  20.786  10.307
 2183W        W74443  43.490  21.522   3.615
 2184W        W74444  11.886  17.780  10.956
 2185W        W74445  42.475  11.983  12.611
 2186W        W74446   5.519  10.160  11.945
 2187W        W74447  14.690  28.883   4.178
 2188W        W74448  30.847  43.897  12.931
 2189W        W74449  12.236   8.424   4.750
 2190W        W74450  34.077  23.277   0.246
 2191W        W74451   1.358  39.599   2.423
 2192W        W74452  12.169   0.997  10.361
 2193W        W74453  32.123  20.907   2.847
 2194W        W74454  13.375  43.343  11.078
 2195W        W74455  24.994  16.648  10.401
 2196W        W74456  20.279  28.379  11.398
 2197W        W74457  18.293   8.447  10.207
 2198W        W74458  26.132   3.920   0.703
 2199W        W74459  19.530  34.647   2.668
 2200W        W74460  44.033  34.500   1.813
 2201W        W74461  36.939  27.887  13.800
 2202W        W74462  24.738  21.098  11.193
 2203W        W74463  33.303  19.736   4.561
 2204W        W74464  21.685  31.377  14.939
 2205W        W74465  41.785  16.479   1.419
 2206W        W74466  27.726  25.190   4.368
 2207W        W74467  44.528  41.516   1.801
 2208W        W74468  21.610  19.534   0.900
 2209W        W74469  28.009  22.245  13.608
 2210W        W74470  27.193  21.131   3.253
 2211W        W74471  30.538   7.819   0.810
 2212W        W74472  19.985  23.713  13.491
 2213W        W74473  30.671  23.499  14.913
 2214W        W74474  36.110   0.248  13.892
 2215W        W74475   7.923  41.434  10.816
 2216W        W74476   3.963  16.852   0.373
 2217W        W74477  38.764  43.872  13.007
 2218W        W74478   0.376  27.966  14.759
 2219W        W74479  12.826  25.960  13.366
 2220W        W74480   1.736  41.012  13.950
 2221W        W74481  13.404   2.401   1.726
 2222W        W74482  13.578  15.566   2.082
 2223W        W74483  18.287  37.565  11.095
 2224W        W74484  20.124   5.139   2.253
 2225W        W74485  35.398  29.225   0.853
 2226W        W74486  34.615  43.890  13.108
 2227W        W74487  13.660   7.833  13.550
 2228W        W74488  24.484  11.483  11.656
 2229W        W74489  22.044   3.857   4.065
 2230W        W74490  27.464  20.578  14.392
 2231W        W74491  14.878  36.118   0.796
 2232W        W74492  24.308  34.411   9.714
 2233W        W74493  31.466  31.002  14.779
 2234W        W74494  12.288  34.748  10.790
 2235W        W74495   7.344  28.173   3.668
 2236W        W74496   3.322  40.155   3.391
 2237W        W74497  22.986  31.562  12.781
 2238W        W74498  37.482  28.557  13.762
 2239W        W74499  16.672  27.167  13.775
 2240W        W74500  35.530  24.248   2.670
 2241W        W74501  16.683   2.022   3.316
 2242W        W74502  26.990  14.167   2.677
 2243W        W74503  38.338   2.864   1.285
 2244W        W74504   5.011  19.732   2.132
 2245W        W74505  22.970  21.675  14.508
 2246W        W74506   2.474   5.387  11.699
 2247W        W74507  10.469  34.409  11.444
 2248W        W74508   2.919  39.432   1.386
 2249W        W74509  16.709   9.111   1.712
 2250W        W74510  39.836  10.906   0.545
 2251W        W74511   7.404  18.803   4.511
 2252W        W74512  19.260   9.001  10.172
 2253W        W74513  41.872  24.606   2.692
 2254W        W74514  19.295  24.730  11.578
 2255W        W74515  24.938  40.938  12.794
 2256W        W74516  20.011   3.255  14.868
 2257W        W74517  36.248  23.763   3.697
 2258W        W74518   7.934  32.018   1.927
 2259W        W74519  15.982  41.456   4.277
 2260W        W74520  34.626  32.113  12.942
 2261W        W74521  29.550  10.651  12.936
 2262W        W74522  35.550   1.371  10.903
 2263W        W74523  36.584  31.797   3.749
 2264W        W74524  35.100  21.566   4.635
 2265W        W74525  27.518  24.580   0.704
 2266W        W74526  29.107   3.344   3.159
 2267W        W74527   1.480   0.747   1.924
 2268W        W74528  29.008  44.245   3.633
 2269W        W74529  33.116   0.308   1.795
 2270W        W74530  35.016  32.598  11.769
 2271W        W74531  33.433  43.442   4.205
 2272W        W74532  27.271  35.928  14.721
 2273W        W74533  32.672  14.175  13.929
 2274W        W74534  32.615   8.761   1.540
 2275W        W74535   0.554  11.086  14.549
 2276W        W74536  37.614  41.429  14.359
 2277W        W74537  39.615  22.486  12.119
 2278W        W74538  18.518  18.357   5.070
 2279W        W74539  14.085  24.355  11.102
 2280W        W74540  28.002  39.995  14.523
 2281W        W74541  16.695  43.820   0.378
 2282W        W74542  42.030  20.048  14.995
 2283W        W74543  38.470   8.246  14.161
 2284W        W74544   0.730  10.889  11.928
 2285W        W74545  33.154  12.189   4.647
 2286W        W74546  34.764  29.092  11.378
 2287W        W74547  33.206  27.022   3.368
 2288W        W74548  25.992  19.069   3.254
 2289W        W74549   0.277  10.656  11.055
 2290W        W74550  39.183   8.085  11.055
 2291W        W74551   6.550  38.796  11.534
 2292W        W74552  22.741  36.995   2.759
 2293W        W74553   8.640   5.435   3.331
 2294W        W74554  21.083  18.256  14.234
 2295W        W74555  33.081   3.265  12.472
 2296W        W74556   7.081  15.352   4.030
 2297W        W74557  30.615  29.080  10.515
 2298W        W74558  38.093  29.035  13.527
 2299W        W74559  15.397  43.939   4.102
 2300W        W74560   1.769   5.817   2.625
 2301W        W74561  32.555  42.209   0.938
 2302W        W74562  10.241  29.835   1.195
 2303W        W74563  20.881  12.083   3.668
 2304W        W74564  16.874  13.256  13.347
 2305W        W74565  36.157   9.193   1.215
 2306W        W74566   2.446   2.369  14.882
 2307W        W74567  36.408   5.445  13.024
 2308W        W74568  32.076   7.651   1.215
 2309W        W74569  43.385  37.042   4.380
 2310W        W74570  33.212  17.502  11.914
 2311W        W74571  10.074   8.684   3.138
 2312W        W74572  28.203  16.153  11.183
 2313W        W74573  35.171   2.457   1.775
 2314W        W74574  40.182  10.314   2.411
 2315W        W74575  16.230  26.819   1.549
 2316W        W74576  34.810  22.835   4.167
 2317W        W74577  19.549  29.092   4.698
 2318W        W74578  23.381  30.671   1.882
 2319W        W74579  42.044  35.671   5.028
 2320W        W74580   0.518  22.189   0.739
 2321W        W74581  34.211  13.809   0.402
 2322W        W74582  13.157  16.050  12.788
 2323W        W74583  34.977   6.643  14.399
 2324W        W74584  14.386  17.050   2.115
 2325W        W74585  42.367  32.005  12.821
 2326W        W74586  17.287  39.303  14.744
 2327W        W74587  16.304  30.354   2.405
 2328W        W74588   1.524  22.291   0.378
 2329W        W74589  35.869  33.574  11.990
 2330W        W74590  39.543   1.909   4.659
 2331W        W74591   7.839  36.638   2.470
 2332W        W74592   2.839  33.372  14.250
 2333W        W74593  35.430   3.918   0.712
 2334W        W74594  26.612  43.726  12.104
 2335W        W74595  19.627  16.262  12.495
 2336W        W74596  21.634  30.376  11.476
 2337W        W74597  31.875  38.172  11.611
 2338W        W74598  14.859  35.284   3.328
 2339W        W74599  19.223  23.851   0.405
 2340W        W74600  11.344  19.159  14.480
 2341W        W74601  38.823  31.023  14.089
 2342W        W74602   0.419  19.493  11.313
 2343W        W74603  33.894   1.875   3.899
 2344W        W74604  41.735  43.972  12.576
 2345W        W74605  35.923  17.592   0.603
 2346W        W74606  17.133   0.722   4.746
 2347W        W74607  38.282  17.726   1.263
 2348W        W74608  24.041   6.874   1.765
 2349W        W74609  41.749   3.267  13.769
 2350W        W74610   1.504  29.401   4.064
 2351W        W74611  43.762  13.383   3.982
 2352W        W74612  13.069  40.462   3.712
 2353W        W74613  40.483   9.825   9.865
 2354W        W74614  38.476  33.590   4.467
 2355W        W74615   3.934   3.294   3.706
 2356W        W74616  40.030   7.785  13.321
 2357W        W74617  17.132   8.345  12.036
 2358W        W74618  26.230  36.963  12.141
 2359W        W74619  43.984  15.824   1.511
 2360W        W74620  17.184   7.753   0.834
 2361W        W74621  37.549  21.746  13.023
 2362W        W74622  12.094  13.422   2.164
 2363W        W74623  24.152  39.610   3.291
 2364W        W74624   4.187  25.358  10.765
 2365W        W74625   3.371   2.222   2.877
 2366W        W74626  20.585  37.458   2.279
 2367W        W74627  33.493  19.281  11.033
 2368W        W74628  43.116  20.607   4.573
 2369W        W74629  12.901  42.185  14.384
 2370W        W74630  10.476  20.550   1.777
 2371W        W74631  38.028  14.896  12.535
 2372W        W74632  33.362  28.288  12.499
 2373W        W74633  39.526  43.870  14.982
 2374W        W74634   4.965  21.214   3.197
 2375W        W74635  32.722   0.432  10.371
 2376W        W74636  19.255  27.157   1.815
 2377W        W74637  38.327  12.765  13.467
 2378W        W74638   7.419   5.431   1.670
 2379W        W74639   3.899   4.463   2.900
 2380W        W74640  35.821  12.462  11.158
 2381W        W74641  38.509  30.611   1.688
 2382W        W74642   1.035   5.304   0.292
 2383W        W74643  43.855  30.200   2.748
 2384W        W74644  25.038  34.048   4.597
 2385W        W74645  13.328  35.836   0.609
 2386W        W74646  33.019  25.907  14.889
 2387W        W74647  44.048  26.968   0.793
 2388W        W74648  33.917  44.380   4.279
 2389W        W74649   0.502   9.722   1.414
 2390W        W74650  12.578  31.021  10.977
 2391W        W74651  26.338  35.118   5.035
 2392W        W74652  13.691   7.473   4.140
 2393W        W74653  33.517  20.110  10.767
 2394W        W74654  22.097  10.162   3.584
 2395W        W74655  39.528  41.974  13.454
 2396W        W74656  29.431  36.086  14.803
 2397W        W74657   3.292  30.059   2.448
 2398W        W74658  37.319  12.707  11.717
 2399W        W74659  27.506   9.501   2.228
 2400W        W74660  35.685   8.212   3.592
 2401W        W74661  29.487  18.913  12.050
 2402W        W74662  33.449  36.429  10.371
 2403W        W74663  16.748  20.362  13.541
 2404W        W74664  22.675   1.878   1.739
 2405W        W74665  42.057  22.010  11.983
 2406W        W74666  39.925  15.076  12.117
 2407W        W74667  31.019   7.346  13.514
 2408W        W74668  32.415  44.327  12.569
 2409W        W74669   2.317  35.150   4.787
 2410W        W74670  38.359   0.498   3.518
 2411W        W74671  25.920  28.971  11.162
 2412W        W74672   5.096  31.012   0.370
 2413W        W74673  39.824  31.307  13.032
 2414W        W74674   3.811  18.711  12.496
 2415W        W74675  10.417  12.106  14.451
 2416W        W74676  25.865  27.090   0.915
 2417W        W74677  31.682  14.140   2.485
 2418W        W74678   2.227   2.240   0.829
 2419W        W74679   9.744  41.924   2.985
 2420W        W74680  41.372  20.087   2.471
 2421W        W74681  17.138  38.737   1.270
 2422W        W74682  33.667   6.429  12.451
 2423W        W74683  25.050   7.611   4.551
 2424W        W74684   0.519  21.558  14.007
 2425W        W74685  25.664  40.158   2.836
 2426W        W74686  29.417  35.366   0.907
 2427W        W74687   4.936  25.989   3.858
 2428W        W74688  10.728  21.100   0.193
 2429W        W74689  21.874  25.338   0.292
 2430W        W74690   8.176  33.980   0.716
 2431W        W74691  39.767   6.271  12.838
 2432W        W74692  27.178   3.193   0.368
 2433W        W74693  43.976   9.795  12.429
 2434W        W74694  37.450  27.751   0.350
 2435W        W74695  36.934  14.585  11.547
 2436W        W74696  38.611  20.559  10.402
 2437W        W74697  25.608   3.063   2.801
 2438W        W74698  11.135  39.267   2.810
 2439W        W74699  15.159  24.969   3.603
 2440W        W74700  32.098   2.857  13.045
 2441W        W74701  11.573  25.242   2.685
 2442W        W74702  38.930   7.852  10.405
 2443W        W74703  22.196  16.322  11.154
 2444W        W74704  44.514  15.652   5.086
 2445W        W74705  27.448  16.956   1.792
 2446W        W74706  41.358  34.443  13.541
 2447W        W74707  11.599  25.225  13.174
 2448W        W74708  35.449  39.819  12.899
 2449W        W74709   8.724  16.637  13.097
 2450W        W74710  30.183  36.293   2.329
 2451W        W74711  43.001  20.552  11.516
 2452W        W74712  16.565  38.224  12.412
 2453W        W74713  33.959  42.453   4.616
 2454W        W74714  28.150   6.820   4.328
 2455W        W74715   7.707   1.231  11.968
 2456W        W74716  31.439   4.562  12.636
 2457W        W74717  24.161  23.898   0.059
 2458W        W74718  43.842  30.116   3.612
 2459W        W74719   0.831  16.334   1.016
 2460W        W74720  41.562  31.573  11.120
 2461W        W74721   9.278  24.016   1.758
 2462W        W74722  29.494  18.647   0.061
 2463W        W74723  23.535   5.308   2.753
 2464W        W74724  16.806  18.991   3.861
 2465W        W74725  23.264  38.030   2.325
 2466W        W74726  19.583   7.800   1.127
 2467W        W74727   2.007  22.544   1.300
 2468W        W74728  34.136  32.450  11.997
 2469W        W74729  44.426  23.507   3.789
 2470W        W74730  14.038  20.786   3.372
 2471W        W74731  24.406  15.552  14.287
 2472W        W74732  14.582   3.981  11.946
 2473W        W74733   7.227   4.478  11.119
 2474W        W74734  43.821  24.482  12.867
 2475W        W74735  38.286   0.452   2.132
 2476W        W74736  15.010  42.362  11.481
 2477W        W74737  32.484  17.576   2.925
 2478W        W74738  19.164  38.506   0.153
 2479W        W74739  14.165  22.908  14.375
 2480W        W74740  40.531  35.943  13.733
 2481W        W74741  36.965  39.273   2.326
 2482W        W74742  22.246   6.944   1.782
 2483W        W74743  21.955  26.076   4.123
 2484W        W74744  30.848   7.304  14.389
 2485W        W74745   1.794  35.628   4.418
 2486W        W74746  34.388  40.985   4.601
 2487W        W74747  42.336  11.289  14.927
 2488W        W74748   7.286   7.159  10.564
 2489W        W74749  38.110  40.846  12.031
 2490W        W74750  30.022   5.903  11.653
 2491W        W74751  24.661  35.398   3.668
 2492W        W74752  15.790  29.981   1.772
 2493W        W74753  15.568  24.195   5.109
 2494W        W74754  27.864  17.624  11.864
 2495W        W74755  28.988  16.712  13.380
 2496W        W74756  35.498  21.016  13.957
 2497W        W74757  14.121  21.588   2.392
 2498W        W74758   0.776   4.334   3.677
 2499W        W74759  30.400   1.284  14.371
 2500W        W74760  23.456  22.626   1.352
 2501W        W74761  14.371  19.182  12.916
 2502W        W74762  37.839  43.875  13.485
 2503W        W74763  28.037   3.037   0.410
 2504W        W74764  27.922   7.801   1.956
 2505W        W74765   8.224  27.878  13.581
 2506W        W74766  10.955   4.780   1.928
 2507W        W74767  25.772   9.252   4.792
 2508W        W74768  37.033  37.827   1.809
 2509W        W74769  13.577  36.315  14.914
 2510W        W74770   6.393  24.219   3.651
 2511W        W74771  33.038  14.073  13.433
 2512W        W74772   6.723  42.941  14.393
 2513W        W74773  40.883  40.026   2.626
 2514W        W74774   1.695  22.803   3.634
 2515W        W74775  35.453  30.586  13.146
 2516W        W74776  22.651  34.086  12.929
 2517W        W74777  21.266  22.975   4.141
 2518W        W74778  28.490  26.224  11.638
 2519W        W74779   4.267  21.700   2.330
 2520W        W74780  38.341   6.351  12.982
 2521W        W74781   3.697  41.366   4.656
 2522W        W74782   9.667  16.362   2.658
 2523W        W74783   1.325  30.932  12.142
 2524W        W74784  12.623  17.964   4.657
 2525W        W74785  13.157  40.996   3.745
 2526W        W74786  40.434  33.119   2.244
 2527W        W74787  12.245  30.642  14.362
 2528W        W74788  44.022  19.908   2.338
 2529W        W74789  40.576  17.537  10.707
 2530W        W74790  42.511  42.825  14.782
 2531W        W74791   6.305  36.674  11.938
 2532W        W74792  23.194   4.194  12.453
 2533W        W74793   3.992  29.512   1.819
 2534W        W74794  28.049  21.070  11.094
 2535W        W74795  33.347  36.933   1.660
 2536W        W74796  10.389  44.723   1.934
 2537W        W74797  38.518  42.244  13.492
 2538W        W74798   5.285   8.974  14.542
 2539W        W74799  15.232  17.174   9.815
 2540W        W74800  40.584  13.759   3.353
 2541W        W74801  21.168  14.411   3.415
 2542W        W74802  39.897   1.373  13.087
 2543W        W74803   0.499  40.785   2.083
 2544W        W74804  10.679  25.000  11.525
 2545W        W74805  27.010  35.338  12.959
 2546W        W74806  35.426  28.257   3.297
 2547W        W74807  26.700  25.201  11.599
 2548W        W74808  39.341  39.760  13.729
 2549W        W74809  38.615  24.895  11.669
 2550W        W74810   0.921  22.968  12.005
 2551W        W74811   5.506   3.446   1.318
 2552W        W74812   7.286  10.201   0.861
 2553W        W74813  23.242  22.225  13.393
 2554W        W74814   0.748   8.790  13.095
 2555W        W74815   8.520   2.891   0.110
 2556W        W74816   5.190  23.740  10.732
 2557W        W74817  38.946  21.784  12.896
 2558W        W74818  35.416   7.577  12.842
 2559W        W74819   9.327  29.485  10.671
 2560W        W74820  23.275   3.522  13.065
 2561W        W74821  16.777  29.654   3.037
 2562W        W74822  18.477   9.426   9.913
 2563W        W74823  14.481   2.793  13.068
 2564W        W74824  35.785  31.137  10.684
 2565W        W74825  40.483  37.343   3.596
 2566W        W74826   1.262   0.598   1.445
 2567W        W74827  22.502  11.179   4.278
 2568W        W74828   6.202  27.543   2.274
 2569W        W74829   6.908  27.062   4.750
 2570W        W74830  27.029  28.139  13.263
 2571W        W74831  40.771   0.497   0.146
 2572W        W74832   1.520  19.974   3.793
 2573W        W74833   2.161  36.015  12.851
 2574W        W74834  25.563  37.694   4.200
 2575W        W74835  17.162  25.046  12.104
 2576W        W74836   0.621   3.235  11.180
 2577W        W74837  19.810  23.032   2.854
 2578W        W74838  38.060  21.564  14.338
 2579W        W74839  23.375  28.444  10.547
 2580W        W74840  38.056  44.017  11.728
 2581W        W74841   2.211  12.665   3.216
 2582W        W74842  23.622  20.202  11.790
 2583W        W74843   5.549  18.295  11.369
 2584W        W74844  15.097  14.155   0.064
 2585W        W74845  38.931   4.155  13.603
 2586W        W74846   6.932  44.791  11.970
 2587W        W74847  28.438  38.276   1.402
 2588W        W74848   6.395  40.196   0.967
 2589W        W74849  37.084  30.209   2.737
 2590W        W74850  18.020  16.068   4.134
 2591W        W74851  14.433  36.082   2.271
 2592W        W74852   6.305  44.241   3.221
 2593W        W74853  20.294  36.386  12.463
 2594W        W74854  28.697  25.306  12.905
 2595W        W74855  12.168  31.965  12.798
 2596W        W74856   3.083  29.985   1.894
 2597W        W74857  25.603  30.407  11.082
 2598W        W74858  39.482  20.534   3.719
 2599W        W74859   0.283  37.361   4.628
 2600W        W74860  23.038  42.243   2.636
 2601W        W74861  29.879   3.236  11.279
 2602W        W74862  28.967   3.480   0.436
 2603W        W74863   8.705   9.662   3.396
 2604W        W74864   8.302  29.546   2.320
 2605W        W74865  18.490  23.845  13.504
 2606W        W74866  19.732   0.381  13.504
 2607W        W74867  36.823  37.427   2.778
 2608W        W74868  44.534  29.798   3.333
 2609W        W74869  26.930  10.664  12.362
 2610W        W74870  16.008  40.340  11.564
 2611W        W74871   2.074   6.223   0.499
 2612W        W74872  29.205  26.102  13.336
 2613W        W74873  10.985  44.336   3.781
 2614W        W74874   2.738  32.213   0.033
 2615W        W74875  22.125  31.912   2.410
 2616W        W74876  25.026   2.494  14.344
 2617W        W74877   5.359   0.588   4.560
 2618W        W74878   6.387  19.010   4.093
 2619W        W74879  35.399  21.775   3.856
 2620W        W74880  41.454   4.444   4.045
 2621W        W74881  23.639  13.164  10.736
 2622W        W74882   5.367  17.115   4.520
 2623W        W74883  41.432   5.150  13.284
 2624W        W74884  16.487  11.597   3.596
 2625W        W74885  38.881  28.319  12.435
 2626W        W74886   5.289  23.090  14.739
 2627W        W74887   9.540   5.148   0.487
 2628W        W74888  10.930  18.205  10.692
 2629W        W74889  25.641  35.833   3.094
 2630W        W74890  27.105  13.671   3.539
 2631W        W74891  31.883  10.040  12.533
 2632W        W74892  31.672   4.854   3.773
 2633W        W74893  41.468  26.516  14.733
 2634W        W74894  39.833  41.305   0.719
 2635W        W74895  33.060  35.343   4.748
 2636W        W74896  11.458  40.037  12.431
 2637W        W74897  16.261  20.627   2.107
 2638W        W74898  17.711   0.899  11.395
 2639W        W74899  24.423  14.664   0.508
 2640W        W74900   5.909  21.154  13.070
 2641W        W74901  39.995   4.811  11.941
 2642W        W74902  35.134  32.655   0.727
 2643W        W74903  28.411  40.689  10.942
 2644W        W74904  35.040  32.378   0.311
 2645W        W74905   4.660   1.241   4.227
 2646W        W74906  36.737   4.580   4.157
 2647W        W74907   9.729   5.488  10.732
 2648W        W74908   5.359  33.639   3.006
 2649W        W74909  26.692  41.941   1.107
 2650W        W74910   7.729  11.764  13.743
 2651W        W74911  25.021   8.581  12.481
 2652W        W74912  42.414  13.239   2.161
 2653W        W74913  28.654  13.734   4.068
 2654W        W74914  37.989  34.272   4.119
 2655W        W74915  24.174  37.492  10.720
 2656W        W74916  39.348  22.296   2.442
 2657W        W74917  28.618  17.498   1.104
 2658W        W74918   1.528  19.917  14.611
 2659W        W74919  30.765  31.092  13.378
 2660W        W74920  34.062  16.786   4.111
 2661W        W74921  43.084  15.515  11.138
 2662W        W74922  44.360  19.608  10.457
 2663W        W74923   1.977  41.565   1.715
 2664W        W74924  44.223  10.561  11.242
 2665W        W74925   3.015   9.824   0.473
 2666W        W74926  14.229  27.630   1.120
 2667W        W74927  44.225  12.929   2.304
 2668W        W74928  36.486   7.235  15.000
 2669W        W74929  32.454  26.061   2.279
 2670W        W74930  44.830  15.663  11.759
 2671W        W74931  41.794  31.065   1.398
 2672W        W74932  30.955   8.911   4.165
 2673W        W74933  21.266   4.839  13.557
 2674W        W74934   8.590  40.973  13.857
 2675W        W74935   8.934  43.938  11.165
 2676W        W74936   8.326  21.491  14.368
 2677W        W74937   0.561  20.798  12.425
 2678W        W74938  14.358  16.049  12.945
 2679W        W74939  20.697  27.177   9.915
 2680W        W74940  15.244  41.034  14.543
 2681W        W74941  11.786  13.207   3.451
 2682W        W74942  28.485  11.705  13.085
 2683W        W74943  10.766  18.171   1.439
 2684W        W74944  44.718  19.662  13.289
 2685W        W74945  31.634  38.913   1.386
 2686W        W74946   6.362  38.908  12.011
 2687W        W74947   7.157  13.569  10.379
 2688W        W74948  19.873  18.057   2.179
 2689W        W74949   7.723  17.109   0.939
 2690W        W74950  21.564  26.404  14.963
 2691W        W74951  41.814  11.706  13.250
 2692W        W74952  20.499  31.030   0.393
 2693W        W74953  13.462   4.659   3.654
 2694W        W74954  39.590  22.441  10.865
 2695W        W74955  15.585  28.660   4.240
 2696W        W74956  43.907  11.799  11.708
 2697W        W74957  35.907  18.525  14.532
 2698W        W74958  16.465   2.797   2.276
 2699W        W74959  37.629  40.017  11.616
 2700W        W74960  22.714  15.936   0.195
 2701W        W74961   7.892  19.720   0.032
 2702W        W74962  28.980  15.757  10.709
 2703W        W74963  28.276   6.172   1.435
 2704W        W74964  10.450  13.757   2.762
 2705W        W74965  12.740  13.056   2.694
 2706W        W74966  35.988  22.183   4.570
 2707W        W74967  39.153   4.845  11.299
 2708W        W74968  12.171  31.587   4.794
 2709W        W74969  30.936  12.026  14.452
 2710W        W74970  25.225  16.620   3.587
 2711W        W74971  26.897  23.510   4.903
 2712W        W74972  40.478  29.652   1.154
 2713W        W74973  12.744  43.765   1.913
 2714W        W74974  12.052  15.942   1.477
 2715W        W74975   7.246  34.935  10.803
 2716W        W74976  29.372  18.151  14.319
 2717W        W74977   6.445  18.139   3.993
 2718W        W74978  32.172  10.061   0.952
 2719W        W74979  20.184  17.197   0.572
 2720W        W74980  11.617  19.117   1.600
 2721W        W74981   3.378   9.826   4.321
 2722W        W74982   7.768  30.459  10.489
 2723W        W74983   2.322  17.103  13.807
 2724W        W74984  17.128   6.755   2.551
 2725W        W74985   5.669  12.716   2.335
 2726W        W74986   4.330  25.967   5.490
 2727W        W74987   1.772   0.742   0.356
 2728W        W74988  31.660  22.128   3.972
 2729W        W74989  15.375   5.324   2.895
 2730W        W74990  24.047  42.865   1.439
 2731W        W74991   9.232  23.715   1.198
 2732W        W74992  10.236  21.834   1.233
 2733W        W74993  18.343  15.613  13.382
 2734W        W74994  37.139  27.215   3.662
 2735W        W74995  22.535  17.892  13.883
 2736W        W74996   0.852  35.426  12.118
 2737W        W74997  25.649  10.626   0.204
 2738W        W74998   7.402  15.767   2.350
 2739W        W74999  31.470  32.168  14.367
 2740W        W75000  13.340  19.461  14.942
 2741W        W75001   1.496   1.900   2.153
 2742W        W75002   9.917  43.931   4.376
 2743W        W75003  35.023  15.428   1.744
 2744W        W75004   9.906  12.235  11.642
 2745W        W75005  27.692  22.048   0.407
 2746W        W75006  24.913  14.255   1.192
 2747W        W75007  42.076  11.113   0.461
 2748W        W75008  28.421  18.828   0.821
 2749W        W75009  44.749  38.516  10.591
 2750W        W75010   4.948  21.548   0.220
 2751W        W75011   8.352  29.865  10.932
 2752W        W75012  23.357  22.618  11.727
 2753W        W75013   1.729   5.388   2.319
 2754W        W75014   1.245  25.815   0.777
 2755W        W75015   3.093   4.251   0.232
 2756W        W75016  36.833   1.685   3.740
 2757W        W75017  20.235   9.838  10.631
 2758W        W75018  21.080  40.405   1.261
 2759W        W75019  25.360  29.939  10.968
 2760W        W75020  43.883  13.931   0.034
 2761W        W75021  19.275  11.265   0.653
 2762W        W75022  27.468  25.002   0.383
 2763W        W75023   2.834  41.254  12.414
 2764W        W75024  15.908  43.886  13.027
 2765W        W75025  36.210  42.054   0.316
 2766W        W75026  35.501  20.235  13.453
 2767W        W75027   4.976  13.139  14.129
 2768W        W75028  37.115  12.390   1.387
 2769W        W75029  19.782  26.186   3.666
 2770W        W75030  36.578   1.907  12.876
 2771W        W75031  25.042  41.641  12.537
 2772W        W75032   4.293  15.788   0.198
 2773W        W75033  42.049   1.737  12.126
 2774W        W75034  36.485  14.534  12.604
 2775W        W75035  36.326  35.815  14.383
 2776W        W75036  37.094  40.100   2.800
 2777W        W75037  40.903  27.896  13.994
 2778W        W75038  33.587  17.694  10.817
 2779W        W75039  24.501  41.452   1.410
 2780W        W75040  43.452  29.476  13.486
 2781W        W75041  13.232  18.354   2.599
 2782W        W75042  21.203  43.585  14.509
 2783W        W75043  27.200  12.381   2.063
 2784W        W75044  26.851  39.291  12.889
 2785W        W75045  38.801  38.468  12.038
 2786W        W75046  11.656  14.816   0.959
 2787W        W75047   3.852  19.243  13.438
 2788W        W75048  15.074  22.016   2.327
 2789W        W75049  26.158  14.617   0.969
 2790W        W75050  39.794  33.521   0.806
 2791W        W75051  24.278  19.054  14.406
 2792W        W75052  33.590  12.222  14.745
 2793W        W75053  10.092  31.892  12.761
 2794W        W75054   3.728  20.170   0.943
 2795W        W75055   5.648  11.853   2.500
 2796W        W75056  10.146  40.526  14.485
 2797W        W75057   5.360  12.790   0.101
 2798W        W75058  11.262  13.395  12.451
 2799W        W75059  10.004   4.899   9.868
 2800W        W75060  18.468   6.972  11.542
 2801W        W75061  33.182  27.146   2.875
 2802W        W75062  17.266  14.880   2.261
 2803W        W75063  20.157   9.892   4.149
 2804W        W75064  23.705  28.052   1.820
 2805W        W75065  41.087  27.739  11.281
 2806W        W75066  28.108   9.726   2.957
 2807W        W75067   5.610  25.572   5.430
 2808W        W75068  32.863   1.795  12.462
 2809W        W75069   6.666  19.125  11.789
 2810W        W75070  43.225   9.373   3.632
 2811W        W75071   3.603  43.809   0.669
 2812W        W75072   4.021  21.133   4.469
 2813W        W75073   4.543  33.018  12.129
 2814W        W75074  14.292  31.204   1.882
 2815W        W75075  17.536   5.968   5.553
 2816W        W75076  15.147   1.009   4.184
 2817W        W75077   9.859  30.540  11.027
 2818W        W75078  20.805  29.127   1.211
 2819W        W75079  12.617  37.108   4.885
 2820W        W75080  11.695  23.101   0.886
 2821W        W75081  22.567  35.056   4.612
 2822W        W75082  34.996  38.598   1.315
 2823W        W75083  31.833  31.822  14.425
 2824W        W75084  41.658  35.278  11.928
 2825W        W75085   2.894  41.387   2.768
 2826W        W75086   4.157  14.827  13.008
 2827W        W75087  18.194   9.147  14.744
 2828W        W75088   4.945  13.678  11.580
 2829W        W75089  35.589   1.148   3.669
 2830W        W75090  43.642  14.207   1.857
 2831W        W75091  24.232  29.559  10.813
 2832W        W75092  27.488   1.682   4.262
 2833W        W75093  17.697   7.808   1.600
 2834W        W75094  20.444   0.384  12.085
 2835W        W75095  38.519  33.502   1.981
 2836W        W75096  25.129  22.224   1.876
 2837W        W75097   3.394   4.576  11.831
 2838W        W75098  39.925  10.917   1.968
 2839W        W75099   1.763  18.553   4.594
 2840W        W75100  39.615  24.643   4.327
 2841W        W75101   7.208   6.762   1.197
 2842W        W75102   3.628  23.262   1.694
 2843W        W75103  36.266  42.719  11.637
 2844W        W75104  32.584   4.409  11.430
 2845W        W75105  28.605  16.900   3.717
 2846W        W75106  29.616   0.420   0.381
 2847W        W75107  32.806  34.028  11.742
 2848W        W75108  33.136  34.915  11.082
 2849W        W75109  11.571  10.479  12.685
 2850W        W75110  39.443  30.725   3.675
 2851W        W75111  15.749  37.522   2.796
 2852W        W75112  38.467   5.486   1.029
 2853W        W75113  27.444  15.552  13.395
 2854W        W75114  38.808  33.519   3.537
 2855W        W75115  34.538  33.386   0.940
 2856W        W75116  40.926   1.819   3.303
 2857W        W75117  14.166  18.446  11.447
 2858W        W75118  26.371  18.541   4.200
 2859W        W75119  26.660   8.584  12.682
 2860W        W75120  33.572  15.892   3.647
 2861W        W75121  26.969  25.938  11.219
 2862W        W75122   5.211   9.357  13.114
 2863W        W75123  22.374  15.407   4.889
 2864W        W75124  10.110  41.782   9.983
 2865W        W75125  41.428   0.191   2.892
 2866W        W75126  28.007  18.200   4.877
 2867W        W75127  25.766  16.973  12.004
 2868W        W75128  12.572  29.060   1.603
 2869W        W75129  40.072  14.373   0.243
 2870W        W75130  27.460  10.100   4.076
 2871W        W75131  22.229   5.718   2.182
 2872W        W75132  34.067  18.240  10.715
 2873W        W75133  38.750  38.465   4.998
 2874W        W75134   5.935  18.004   4.835
 2875W        W75135  12.152  21.575  11.175
 2876W        W75136   3.082  41.252  11.555
 2877W        W75137  33.561  14.167   2.674
 2878W        W75138  33.788  35.819   0.062
 2879W        W75139  31.995  28.457   0.038
 2880W        W75140  37.792  42.053   2.998
 2881W        W75141  34.869   3.861  11.473
 2882W        W75142   5.667   3.309   4.129
 2883W        W75143  14.717  31.023   0.965
 2884W        W75144   4.279  16.599   4.864
 2885W        W75145  24.475  20.668  14.375
 2886W        W75146   3.762  15.078  12.488
 2887W        W75147  42.695  16.835   2.792
 2888W        W75148  21.695   0.982   1.065
 2889W        W75149  29.896  35.819  14.797
 2890W        W75150  31.418  27.710  11.666
 2891W        W75151   4.921  14.186  11.879
 2892W        W75152  22.377  14.219   2.919
 2893W        W75153  18.217  24.626  12.545
 2894W        W75154  19.024  10.444   4.128
 2895W        W75155  16.649  33.379  14.972
 2896W        W75156  16.577  31.878  11.225
 2897W        W75157  28.861  14.213   1.943
 2898W        W75158  26.124  43.060  12.175
 2899W        W75159  36.878  42.273  12.059
 2900W        W75160  10.412  14.784   3.553
 2901W        W75161  25.774   8.173   0.472
 2902W        W75162  37.331   3.292  14.546
 2903W        W75163  18.253  13.333  12.036
 2904W        W75164  20.274   7.353  11.596
 2905W        W75165  21.484   8.897   0.745
 2906W        W75166  35.510  38.423  14.401
 2907W        W75167  27.043  15.629   4.319
 2908W        W75168  10.660  37.229  14.316
 2909W        W75169  43.462  20.040  10.739
 2910W        W75170   5.723  14.359   1.865
 2911W        W75171  17.683   4.080  12.052
 2912W        W75172  30.726  28.673   4.181
 2913W        W75173  23.523  37.655  14.849
 2914W        W75174   3.384  20.695  11.947
 2915W        W75175  11.878  13.227   3.947
 2916W        W75176  25.085  11.261   1.409
 2917W        W75177  37.080  12.121  11.598
 2918W        W75178  20.274  21.238   0.897
 2919W        W75179  20.120   9.709   1.376
 2920W        W75180  36.824   4.746   1.725
 2921W        W75181  21.047  32.123  11.213
 2922W        W75182  37.556  32.209   2.176
 2923W        W75183   4.990  13.632   3.745
 2924W        W75184   5.698   9.192  13.872
 2925W        W75185  36.603  14.105   4.569
 2926W        W75186   5.191   4.240  12.631
 2927W        W75187  24.640  34.635   0.802
 2928W        W75188  17.130  18.112  12.109
 2929W        W75189  21.040  23.756   3.707
 2930W        W75190  26.657  14.945   0.009
 2931W        W75191  11.586  37.554   2.371
 2932W        W75192  11.707  12.139   4.658
 2933W        W75193  42.974  25.082  14.033
 2934W        W75194  26.282  19.996   4.211
 2935W        W75195  22.242  20.463   4.047
 2936W        W75196  39.051  32.502   2.724
 2937W        W75197  11.465  19.497   1.217
 2938W        W75198  21.321  20.711   4.217
 2939W        W75199   0.710  31.940   1.491
 2940W        W75200  44.948  36.640  14.324
 2941W        W75201  44.667  37.455  14.788
 2942W        W75202  36.805  16.677   0.362
 2943W        W75203   0.266  44.000   2.887
 2944W        W75204   8.404  19.829  12.500
 2945W        W75205  11.630   0.289  13.088
 2946W        W75206  29.453   8.844   0.684
 2947W        W75207  16.704  18.579  14.522
 2948W        W75208  18.908  42.817  14.176
 2949W        W75209   9.262  41.847  10.667
 2950W        W75210  30.168   8.628   4.051
 2951W        W75211  23.750  19.080   2.216
 2952W        W75212  28.681  41.417   1.681
 2953W        W75213   5.729  29.430  13.494
 2954W        W75214  15.711  36.007   2.841
 2955W        W75215  33.985  18.774  12.329
 2956W        W75216   0.653  29.572   0.370
 2957W        W75217  29.245   4.686  14.489
 2958W        W75218  40.116   4.457   0.896
 2959W        W75219  23.663  29.024   2.258
 2960W        W75220  14.651   6.486  11.340
 2961W        W75221  39.402  39.257  11.716
 2962W        W75222   1.224   9.582  11.963
 2963W        W75223   9.743  35.416  13.082
 2964W        W75224  17.636   3.400   4.409
 2965W        W75225  18.753  43.330  12.225
 2966W        W75226  12.451   0.636   1.962
 2967W        W75227  29.253  11.234  14.803
 2968W        W75228  10.333  27.952  10.653
 2969W        W75229  23.739   7.725  12.494
 2970W        W75230   8.807  35.976  12.362
 2971W        W75231  25.207  19.266   1.894
 2972W        W75232  18.843  24.269  12.766
 2973W        W75233   4.896  35.113   3.103
 2974W        W75234  43.940  17.422   0.158
 2975W        W75235  19.117  26.725   3.364
 2976W        W75236  42.703   1.908  12.383
 2977W        W75237  13.252  29.571  11.247
 2978W        W75238   0.260  24.981  13.545
 2979W        W75239  15.672  42.520   1.812
 2980W        W75240  44.398  42.740   3.304
 2981W        W75241  10.643   1.933   2.205
 2982W        W75242  16.310  36.576  13.053
 2983W        W75243  27.989  13.981   4.290
 2984W        W75244  22.826  16.817  13.448
 2985W        W75245  26.981  26.545  14.790
 2986W        W75246  17.097  44.684  14.426
 2987W        W75247  24.107   2.791  11.515
 2988W        W75248  32.791   3.573   0.334
 2989W        W75249  42.250  28.189  12.822
 2990W        W75250  44.500   3.509  13.807
 2991W        W75251   9.420  37.007  14.703
 2992W        W75252  41.491   4.632  12.585
 2993W        W75253  41.302   6.590   0.664
 2994W        W75254   4.798   7.479   3.364
 2995W        W75255  29.275  22.596  12.058
 2996W        W75256  41.992   8.837   1.984
 2997W        W75257  41.602  10.359  13.607
 2998W        W75258  16.831  15.208   3.283
 2999W        W75259   3.447  29.618  14.405
 3000W        W75260   6.415  37.415   4.069
 3001W        W75261  31.406  31.380   5.493
 3002W        W75262  33.638  16.573  14.812
 3003W        W75263  39.678  37.320   3.832
 3004W        W75264   2.146  38.909   0.986
 3005W        W75265  42.557  19.176  13.952
 3006W        W75266  35.016  41.315  12.896
 3007W        W75267   8.029  20.298  13.370
 3008W        W75268  24.305   5.739   3.929
 3009W        W75269  24.016  32.160  11.650
 3010W        W75270  40.556  10.202   0.021
 3011W        W75271  31.903   2.271  13.815
 3012W        W75272  28.272  27.558   1.629
 3013W        W75273  26.139  15.109   0.779
 3014W        W75274  33.893  13.441   4.775
 3015W        W75275  21.030  15.666   3.603
 3016W        W75276  11.749  11.251   1.183
 3017W        W75277   6.355  44.842   3.319
 3018W        W75278  20.397  30.573   0.718
 3019W        W75279  44.323  24.424  14.910
 3020W        W75280   7.352  10.551   2.819
 3021W        W75281  44.752  39.405  11.937
 3022W        W75282  25.117   2.344   0.895
 3023W        W75283  30.915   1.305   3.017
 3024W        W75284  36.570  28.703  13.408
 3025W        W75285  22.702  14.762   0.156
 3026W        W75286  43.792   8.950  12.008
 3027W        W75287  41.364  17.287  14.783
 3028W        W75288  40.103  26.730   1.382
 3029W        W75289  29.146  34.302   4.104
 3030W        W75290   5.281  44.138   3.754
 3031W        W75291  36.004  20.918   5.198
 3032W        W75292  24.748  44.869  10.653
 3033W        W75293  14.608   8.407   3.764
 3034W        W75294  26.937  12.820   3.350
 3035W        W75295  34.403  41.807  13.344
 3036W        W75296  14.560   4.857  14.944
 3037W        W75297  20.254  32.940   3.153
 3038W        W75298   0.739   8.838   2.952
 3039W        W75299  31.141  11.782   4.154
 3040W        W75300  19.359  43.271   2.265
 3041W        W75301  25.617  29.012  14.641
 3042W        W75302  38.117  25.721   3.381
 3043W        W75303  30.440  21.340   3.277
 3044W        W75304  43.963   0.450   0.027
 3045W        W75305   0.922   8.131   1.909
 3046W        W75306  24.906  30.436  10.488
 3047W        W75307  10.431  39.371  11.104
 3048W        W75308  15.656  24.297   4.615
 3049W        W75309  13.255  17.763   2.970
 3050W        W75310  27.422  13.487  14.158
 3051W        W75311  38.772   6.728   2.660
 3052W        W75312  31.184  35.422  12.555
 3053W        W75313  41.723   4.316  13.404
 3054W        W75314  24.791  36.162  10.811
 3055W        W75315  24.528   3.205   2.851
 3056W        W75316  33.415   7.653   4.200
 3057W        W75317  41.428  43.236   0.198
 3058W        W75318  44.284  44.978   2.776
 3059W        W75319   0.233  32.275   4.764
 3060W        W75320  17.336  12.241  14.020
 3061W        W75321  37.463  34.092   3.195
 3062W        W75322  22.633  39.602   3.098
 3063W        W75323  33.851  27.554   1.859
 3064W        W75324  42.969  32.958  13.730
 3065W        W75325  12.606   3.968   0.754
 3066W        W75326  42.376  44.987  14.548
 3067W        W75327  37.015  20.164   4.567
 3068W        W75328  39.518  39.119   1.768
 3069W        W75329  15.285  42.531  14.461
 3070W        W75330  26.623  32.588   2.923
 3071W        W75331  19.349  16.992   3.314
 3072W        W75332   6.358   1.171   4.884
 3073W        W75333  28.099  35.104   1.716
 3074W        W75334  23.160   9.215  12.378
 3075W        W75335  34.656   6.795   4.591
 3076W        W75336  26.657  34.767  10.158
 3077W        W75337  24.451  43.053  14.422
 3078W        W75338  28.001   7.662  13.284
 3079W        W75339  18.023  30.921   2.183
 3080W        W75340  28.396   4.493   0.925
 3081W        W75341  14.268  42.078  14.553
 3082W        W75342  10.266  28.743   2.351
 3083W        W75343  24.558  38.931   2.098
 3084W        W75344   6.148  39.442  12.471
 3085W        W75345  10.422  40.296  12.120
 3086W        W75346  12.335   5.141   4.161
 3087W        W75347   2.740  31.194  13.970
 3088W        W75348  37.005  39.064  10.633
 3089W        W75349  10.760  35.287   4.594
 3090W        W75350  21.786  33.349  14.534
 3091W        W75351  27.221  30.200   4.172
 3092W        W75352  35.964  32.817   1.342
 3093W        W75353  30.469  22.860   0.720
 3094W        W75354  32.971   3.778  14.893
 3095W        W75355  12.868  37.943  14.259
 3096W        W75356  31.883  26.775   3.328
 3097W        W75357  42.452  43.428   0.757
 3098W        W75358  17.193   4.114   2.256
 3099W        W75359  18.195  13.911   2.345
 3100W        W75360  40.286  34.577  12.664
 3101W        W75361  44.321  11.816  14.441
 3102W        W75362  11.851  34.831  11.685
 3103W        W75363  36.371   0.491  14.906
 3104W        W75364  23.610  14.376  12.527
 3105W        W75365   4.484  40.813  12.042
 3106W        W75366   9.655  18.266   1.776
 3107W        W75367  33.882  28.668   1.739
 3108W        W75368   0.237  34.417  14.954
 3109W        W75369  12.267  21.142  10.939
 3110W        W75370  29.019  20.316   2.855
 3111W        W75371  28.362   3.339  11.440
 3112W        W75372  29.070  26.623   2.739
 3113W        W75373  24.473  29.050   4.058
 3114W        W75374  15.554  15.219  13.006
 3115W        W75375   1.224   2.250  11.236
 3116W        W75376  10.464  32.129  10.723
 3117W        W75377  35.805  26.427  10.660
 3118W        W75378  30.936  10.362   2.215
 3119W        W75379  19.837  39.936  13.234
 3120W        W75380  21.380  14.737   4.125
 3121W        W75381   6.031  18.853  11.632
 3122W        W75382  43.730  40.045  13.144
 3123W        W75383   5.190   0.619   0.421
 3124W        W75384  17.123  37.490   4.335
 3125W        W75385  22.908  10.359   1.861
 3126W        W75386   6.819  42.566   3.294
 3127W        W75387  42.285  29.396  14.632
 3128W        W75388  42.944  21.981   0.380
 3129W        W75389  34.151  18.668   9.809
 3130W        W75390   8.714  18.295   0.318
 3131W        W75391  38.769  26.883  12.608
 3132W        W75392  36.761  32.338   0.393
 3133W        W75393   1.749  37.782  13.940
 3134W        W75394  42.847  35.436   3.097
 3135W        W75395  19.649  10.914  11.176
 3136W        W75396  40.692  19.252  11.361
 3137W        W75397  33.507  25.014   3.694
 3138W        W75398  34.423  43.876   0.482
 3139W        W75399  22.973   5.172   2.654
 3140W        W75400  36.409   8.507  12.841
 3141W        W75401  36.863  14.717   3.710
 3142W        W75402  35.462  31.507   4.744
 3143W        W75403  27.659  41.475   2.285
 3144W        W75404   1.443  13.297  13.468
 3145W        W75405  36.270  36.802  14.312
 3146W        W75406   7.077  17.499   4.205
 3147W        W75407   1.535  21.232   0.007
 3148W        W75408  28.786  13.592  13.890
 3149W        W75409  42.899  13.876   2.898
 3150W        W75410  24.505  43.028   0.689
 3151W        W75411  26.925  21.026   3.713
 3152W        W75412  37.081   3.187   2.361
 3153W        W75413  16.549  21.731   1.438
 3154W        W75414  36.106  22.143  14.933
 3155W        W75415   9.137   5.670  11.959
 3156W        W75416  11.645   0.219   1.765
 3157W        W75417  17.060  37.025   1.780
 3158W        W75418  39.470  25.298  12.231
 3159W        W75419  29.375  19.707   3.631
 3160W        W75420   0.491   4.823   4.581
 3161W        W75421  34.922  38.113  11.030
 3162W        W75422  13.198   1.423  14.861
 3163W        W75423  15.678  26.970   4.622
 3164W        W75424   5.895  40.038   3.629
 3165W        W75425  28.594   6.778  13.420
 3166W        W75426  39.101  29.996  11.875
 3167W        W75427  15.402  31.953  11.876
 3168W        W75428  26.085  29.564   4.488
 3169W        W75429  10.080   2.890   3.596
 3170W        W75430  19.775   4.739   1.708
 3171W        W75431  19.144   4.091  10.596
 3172W        W75432  18.253   4.840   1.860
 3173W        W75433   9.644  40.665   0.894
 3174W        W75434   1.395  15.382  12.559
 3175W        W75435  13.252  21.984   4.574
 3176W        W75436   7.445  32.299   3.730
 3177W        W75437  24.719   0.297   0.383
 3178W        W75438  17.607   6.629   3.353
 3179W        W75439  23.077  11.038  13.452
 3180W        W75440  16.780  15.002  10.205
 3181W        W75441   4.441  42.990  10.912
 3182W        W75442  10.224   8.927   1.715
 3183W        W75443  43.367  32.248  14.769
 3184W        W75444  31.260  22.118   3.661
 3185W        W75445  33.620   9.517   0.654
 3186W        W75446  35.888  16.854  13.034
 3187W        W75447   8.269  29.388   0.774
 3188W        W75448  39.611   4.308   0.896
 3189W        W75449  31.636  20.470   2.233
 3190W        W75450  11.526  14.105  10.204
 3191W        W75451  36.360  17.082  11.109
 3192W        W75452  33.343   2.550   0.000
 3193W        W75453   4.594  28.264  10.049
 3194W        W75454   9.903  29.199  14.399
 3195W        W75455  16.953   2.831  14.404
 3196W        W75456  14.619  28.330   9.775
 3197W        W75457  20.680   2.963  13.863
 3198W        W75458  32.522  11.840  12.326
 3199W        W75459  24.424  22.668  10.710
 3200W        W75460  10.172  32.837  12.911
 3201W        W75461  25.003   6.958   1.612
 3202W        W75462   5.657   1.921  14.916
 3203W        W75463  38.402  29.988  12.495
 3204W        W75464  27.427  20.212   1.393
 3205W        W75465   4.483  19.370   1.533
 3206W        W75466   4.277  25.684   0.831
 3207W        W75467  43.250  25.579   3.345
 3208W        W75468  33.595  28.066   4.160
 3209W        W75469  20.991  13.504   2.600
 3210W        W75470   7.298  30.728  13.007
 3211W        W75471  33.935  23.126   1.418
 3212W        W75472  31.504  38.813  10.664
 3213W        W75473  10.898  39.364  13.949
 3214W        W75474  40.559  35.908   3.321
 3215W        W75475  24.304  37.777  13.491
 3216W        W75476   7.889  18.318  10.777
 3217W        W75477  14.626  39.177  11.792
 3218W        W75478  34.605  28.407   1.040
 3219W        W75479  34.226   5.434   3.390
 3220W        W75480  17.702  32.042   4.254
 3221W        W75481  38.824  40.187   2.377
 3222W        W75482  34.665  33.079  14.975
 3223W        W75483  11.372  10.050  14.701
 3224W        W75484   6.869  16.433  14.120
 3225W        W75485  29.097  15.262   0.848
 3226W        W75486   5.409  26.187   3.846
 3227W        W75487   2.453  10.781  13.508
 3228W        W75488  28.894  20.794   2.684
 3229W        W75489  18.824  14.770  11.886
 3230W        W75490  36.900  37.100  13.066
 3231W        W75491  27.557  32.551  11.512
 3232W        W75492   5.228  20.668  13.271
 3233W        W75493   1.818   2.291  11.942
 3234W        W75494  11.163   4.396   3.162
 3235W        W75495  13.717  19.126  11.647
 3236W        W75496  37.484  23.594   2.559
 3237W        W75497   0.202   2.832   2.393
 3238W        W75498  41.166  16.094  14.240
 3239W        W75499  25.421  14.729  14.554
 3240W        W75500  24.585  22.254   3.153
 3241W        W75501  17.160  27.575  13.192
 3242W        W75502  27.611  28.531  13.780
 3243W        W75503  35.381   4.114  12.084
 3244W        W75504   2.159  23.042  12.809
 3245W        W75505  41.425  19.698   1.698
 3246W        W75506  14.486  32.363  11.984
 3247W        W75507  23.511  13.261  12.185
 3248W        W75508  21.130  28.398  11.440
 3249W        W75509  42.983  17.722   4.398
 3250W        W75510  37.932  31.522  10.595
 3251W        W75511  13.051  30.566  13.865
 3252W        W75512   6.271  22.691  13.916
 3253W        W75513  33.858   9.581  12.041
 3254W        W75514  15.629  24.249  11.210
 3255W        W75515  11.785  34.331   4.540
 3256W        W75516  20.187  32.471  14.513
 3257W        W75517  34.028  30.297  13.537
 3258W        W75518  41.575   0.970  10.589
 3259W        W75519  18.075  31.804  13.414
 3260W        W75520  34.592   0.204   3.178
 3261W        W75521  24.374  25.990  12.137
 3262W        W75522   2.362   7.939  13.555
 3263W        W75523  12.650  31.861   3.234
 3264W        W75524   6.676  30.120  14.960
 3265W        W75525  24.453  39.562   2.412
 3266W        W75526  34.606  14.873   0.986
 3267W        W75527  29.365  41.021  12.952
 3268W        W75528  12.511  13.028   3.290
 3269W        W75529  13.075  18.673   3.918
 3270W        W75530  19.692   9.100   3.499
 3271W        W75531  23.634  30.974   2.757
 3272W        W75532  13.635  13.266   2.206
 3273W        W75533  15.840  20.557   3.591
 3274W        W75534  40.112  27.542  10.997
 3275W        W75535  21.337   7.813  14.288
 3276W        W75536  18.085  25.154   0.887
 3277W        W75537  33.050  19.745   9.534
 3278W        W75538  27.880   2.424   0.870
 3279W        W75539  13.029  20.664   4.163
 3280W        W75540  37.770  36.853  14.014
 3281W        W75541  35.780  26.852   2.272
 3282W        W75542  24.043  28.806  14.458
 3283W        W75543   5.171  35.592   1.949
 3284W        W75544  19.797   0.882   1.354
 3285W        W75545  24.452  32.913  10.509
 3286W        W75546   7.364  16.574   4.073
 3287W        W75547  22.753  39.415   9.889
 3288W        W75548  34.796  41.357   0.881
 3289W        W75549  29.182   0.539   4.088
 3290W        W75550  29.439  29.583   0.222
 3291W        W75551  35.842  43.099  11.575
 3292W        W75552  32.013  26.288   3.155
 3293W        W75553  31.903  34.571   3.843
 3294W        W75554  39.890  34.908   3.180
 3295W        W75555  33.819   3.572   9.905
 3296W        W75556  12.701   2.790   2.303
 3297W        W75557  29.562   1.254  10.990
 3298W        W75558  15.139  33.067  12.124
 3299W        W75559  13.247  15.312   2.878
 3300W        W75560  32.962  30.562  14.048
 3301W        W75561   6.107   2.510  12.348
 3302W        W75562   7.370  34.926  14.831
 3303W        W75563  31.498  40.697  10.684
 3304W        W75564   5.848  39.839  13.351
 3305W        W75565   4.385   4.114   0.737
 3306W        W75566  20.531  15.782   0.753
 3307W        W75567  20.324  19.611  12.863
 3308W        W75568   7.269  17.576  12.920
 3309W        W75569  35.268  15.065  13.460
 3310W        W75570  34.308  24.119   4.073
 3311W        W75571  32.428   7.200   4.144
 3312W        W75572  11.928  32.434  13.425
 3313W        W75573  36.063  18.865  10.963
 3314W        W75574  33.239  18.322  11.472
 3315W        W75575  22.533   3.860  13.484
 3316W        W75576  41.577   7.710   0.235
 3317W        W75577  22.784  39.122   3.197
 3318W        W75578  32.519  16.787  11.136
 3319W        W75579   4.167   8.870   0.722
 3320W        W75580  11.908  14.698   1.394
 3321W        W75581  21.653  44.310  11.939
 3322W        W75582   6.023  41.610   5.058
 3323W        W75583  26.546  21.703   1.768
 3324W        W75584  41.098  25.085   4.902
 3325W        W75585  27.201  27.037   1.977
 3326W        W75586  29.345  12.434   3.526
 3327W        W75587  43.879   4.784  12.289
 3328W        W75588   9.233  30.464  10.186
 3329W        W75589  22.605  43.935   3.229
 3330W        W75590  41.863   5.775   3.766
 3331W        W75591  41.497   9.317  12.992
 3332W        W75592   3.279  37.866  12.604
 3333W        W75593  35.999  10.249   3.407
 3334W        W75594  24.181  24.641   0.308
 3335W        W75595  32.629  43.760   0.065
 3336W        W75596  27.017  42.416  10.897
 3337W        W75597   1.991   5.417  10.679
 3338W        W75598   3.969  36.693   3.744
 3339W        W75599  38.960  26.354  11.431
 3340W        W75600  10.338   8.142  10.718
 3341W        W75601  27.987  34.429  13.972
 3342W        W75602  28.559  40.019   0.770
 3343W        W75603  33.651  38.845   2.228
 3344W        W75604   2.715  29.061  13.545
 3345W        W75605  20.643  32.377   4.674
 3346W        W75606  19.197  10.292   2.818
 3347W        W75607  13.341  12.175  14.856
 3348W        W75608  43.628  33.563   1.799
 3349W        W75609  16.684  26.079  14.356
 3350W        W75610   2.691  21.101  13.884
 3351W        W75611  12.320  37.678   1.284
 3352W        W75612  18.758  17.234   2.670
 3353W        W75613  18.786  19.471   0.359
 3354W        W75614  30.104  29.844  14.127
 3355W        W75615  27.022   4.723   3.094
 3356W        W75616  36.378   8.436  11.996
 3357W        W75617  22.510  16.209   3.888
 3358W        W75618  43.318  24.180   1.125
 3359W        W75619  17.152  19.022  10.139
 3360W        W75620  32.621  42.957   3.498
 3361W        W75621  25.938  19.863  11.108
 3362W        W75622  24.699  16.962  13.360
 3363W        W75623  40.231  38.265  13.838
 3364W        W75624  21.125  34.108  12.917
 3365W        W75625  26.477  39.775   3.028
 3366W        W75626  17.640   9.231  10.980
 3367W        W75627  22.366   8.610  11.879
 3368W        W75628  26.893  29.116  13.637
 3369W        W75629  38.087  20.248   3.698
 3370W        W75630   2.958  23.582  14.834
 3371W        W75631  37.831  27.478  12.012
 3372W        W75632  44.618  10.681  13.198
 3373W        W75633  39.197  40.350   4.117
 3374W        W75634  42.311  44.702   0.440
 3375W        W75635   4.338   9.374   2.912
 3376W        W75636  35.005   9.480  12.864
 3377W        W75637  26.579  30.197   4.875
 3378W        W75638   9.418  33.116  12.240
 3379W        W75639  15.922  32.765   1.982
 3380W        W75640   5.683  25.717   4.537
 3381W        W75641  39.967   4.822   4.597
 3382W        W75642   8.654  33.063   3.664
 3383W        W75643  23.412  27.785  11.971
 3384W        W75644  39.973  10.602  11.580
 3385W        W75645  11.771  12.629  10.721
 3386W        W75646  39.075  32.507  13.032
 3387W        W75647  30.436   4.573  14.625
 3388W        W75648   5.127  13.132  14.787
 3389W        W75649  12.308  15.342   3.701
 3390W        W75650  42.829  30.222  13.788
 3391W        W75651   7.796  15.700   3.870
 3392W        W75652  42.703  30.429   4.138
 3393W        W75653   1.452  17.184   2.296
 3394W        W75654  21.810  32.564   4.179
 3395W        W75655  29.080  20.089   0.861
 3396W        W75656  17.126  29.272   2.119
 3397W        W75657  23.951   9.714  11.161
 3398W        W75658  20.602  21.597   0.668
 3399W        W75659  17.061  41.110  11.506
 3400W        W75660  42.650  18.091   1.828
 3401W        W75661  12.739  34.957  10.694
 3402W        W75662   5.457   7.286   2.337
 3403W        W75663  35.600  16.594  13.414
 3404W        W75664  12.623  35.433   1.285
 3405W        W75665  36.538  15.286  13.437
 3406W        W75666  30.451   3.459  13.494
 3407W        W75667  14.617  36.445  14.071
 3408W        W75668  12.406  30.868  10.394
 3409W        W75669   3.022  36.215  14.425
 3410W        W75670   2.211  33.440  11.179
 3411W        W75671  33.309  32.864  10.746
 3412W        W75672   4.340  38.590   2.592
 3413W        W75673  25.390  28.926   2.268
 3414W        W75674  28.720   2.549  11.658
 3415W        W75675   1.405  26.980  14.112
 3416W        W75676  35.035  22.007   1.971
 3417W        W75677  15.043  36.004   3.379
 3418W        W75678   0.453  17.082   3.880
 3419W        W75679  23.672  14.922   4.543
 3420W        W75680  30.029  12.246  13.877
 3421W        W75681   2.444  18.839  12.381
 3422W        W75682  33.190   8.700   0.929
 3423W        W75683  23.015  31.897   3.314
 3424W        W75684  17.593  27.116   0.277
 3425W        W75685  12.657   4.491   3.779
 3426W        W75686  16.061  20.306  12.068
 3427W        W75687  36.140  23.004  10.721
 3428W        W75688  35.314   4.445  12.897
 3429W        W75689   9.676  39.277   2.651
 3430W        W75690  34.043  28.933  10.614
 3431W        W75691   6.899  41.847  11.651
 3432W        W75692  23.571  22.128   1.190
 3433W        W75693  24.559  44.952  11.503
 3434W        W75694  34.066  42.465   1.479
 3435W        W75695  34.556  42.556   2.732
 3436W        W75696  12.764  35.160   0.859
 3437W        W75697   0.381   2.783   0.294
 3438W        W75698  33.421  12.538  11.736
 3439W        W75699   4.616  29.959  13.252
 3440W        W75700  21.155  39.130  12.008
 3441W        W75701  11.829  26.015  11.635
 3442W        W75702  30.117  32.038   4.730
 3443W        W75703  17.155  16.289  11.131
 3444W        W75704  40.325  22.144  14.709
 3445W        W75705  35.539   1.969   0.034
 3446W        W75706  18.553   1.210   1.867
 3447W        W75707   1.914   3.796  11.240
 3448W        W75708  18.042  31.028  14.307
 3449W        W75709  18.749  39.943  12.255
 3450W        W75710  22.426  24.630   2.264
 3451W        W75711  18.072  36.745  10.709
 3452W        W75712  16.833   4.278   0.360
 3453W        W75713  13.080   7.850  11.221
 3454W        W75714  43.091  43.228   4.238
 3455W        W75715   7.918  15.955   2.353
 3456W        W75716  36.732  10.232  10.637
 3457W        W75717   9.893   9.641  13.795
 3458W        W75718  37.361   3.325   1.929
 3459W        W75719  14.082   1.137   0.359
 3460W        W75720  13.116  14.695  13.602
 3461W        W75721  42.814  40.375  14.046
 3462W        W75722  11.193  15.040   4.676
 3463W        W75723   0.913  36.008  13.538
 3464W        W75724  13.531  12.631   4.930
 3465W        W75725  32.079  41.799  13.387
 3466W        W75726  10.604  14.721   0.845
 3467W        W75727   6.900  14.548   1.412
 3468W        W75728  11.618   4.532  13.450
 3469W        W75729  29.624  13.296  11.498
 3470W        W75730  13.870  19.266  14.589
 3471W        W75731   8.261   0.210  12.625
 3472W        W75732  19.573  22.611  12.184
 3473W        W75733  21.218  35.541  11.566
 3474W        W75734  30.907  38.866   1.754
 3475W        W75735  17.247  43.934   1.223
 3476W        W75736  36.444  44.495  12.475
 3477W        W75737  15.394  44.406   3.201
 3478W        W75738   3.872  39.033  14.288
 3479W        W75739  19.481  21.089   4.109
 3480W        W75740   9.605   5.706  14.481
 3481W        W75741   4.280  24.421  11.432
 3482W        W75742   4.247  20.806   2.718
 3483W        W75743  23.601  35.139  10.720
 3484W        W75744  36.925  32.099  12.937
 3485W        W75745   6.744  17.223   0.767
 3486W        W75746  35.996  11.599  11.530
 3487W        W75747  10.142  40.301   3.508
 3488W        W75748  41.057  43.987  14.903
 3489W        W75749   6.216   0.631   0.354
 3490W        W75750  34.846  17.013   0.100
 3491W        W75751  23.128  43.921  11.341
 3492W        W75752  12.546  17.966   1.042
 3493W        W75753  10.288  24.000   3.619
 3494W        W75754  33.382   7.665   4.734
 3495W        W75755  26.121  30.967  12.520
 3496W        W75756  29.034  44.999  12.454
 3497W        W75757  30.972  30.929  10.709
 3498W        W75758  25.344  15.754   4.441
 3499W        W75759  23.063   5.911  11.992
 3500W        W75760   7.923  43.778  11.015
 3501W        W75761  28.321  26.623  10.183
 3502W        W75762   6.943  18.047   1.847
 3503W        W75763  14.503  35.334  14.020
 3504W        W75764  34.650  16.080   2.379
 3505W        W75765  16.555  42.347  12.412
 3506W        W75766   2.071  28.678   2.782
 3507W        W75767  30.819  32.568   5.199
 3508W        W75768  20.591   7.668  10.400
 3509W        W75769   9.097   5.316   4.169
 3510W        W75770   0.346  35.973  14.012
 3511W        W75771   3.214  18.608   1.426
 3512W        W75772  25.501  21.621   2.674
 3513W        W75773  12.686  30.695  12.993
 3514W        W75774   0.076  18.895   4.242
 3515W        W75775  35.832  16.835  11.187
 3516W        W75776  29.707  23.460  13.078
 3517W        W75777  40.419   9.185  13.042
 3518W        W75778  40.528  38.332   3.380
 3519W        W75779  36.806   2.028  12.005
 3520W        W75780   3.927  14.082   1.263
 3521W        W75781   6.873  33.466   1.967
 3522W        W75782  30.377  27.010  11.955
 3523W        W75783  25.632  10.426   2.210
 3524W        W75784  29.714  21.984   1.779
 3525W        W75785  26.033  43.964  14.516
 3526W        W75786  33.133   4.823   1.856
 3527W        W75787  26.498  12.167  12.842
 3528W        W75788  30.493  33.630  11.155
 3529W        W75789  37.984  24.310  10.703
 3530W        W75790   5.761  40.517  11.672
 3531W        W75791  11.678   0.347   0.545
 3532W        W75792  36.432  25.049  10.375
 3533W        W75793  26.964  21.129  12.421
 3534W        W75794  15.653  22.166  14.735
 3535W        W75795  29.187  23.104  14.462
 3536W        W75796   7.294  44.390   3.309
 3537W        W75797  11.376  13.784   2.886
 3538W        W75798  36.903  41.780   4.625
 3539W        W75799  16.517   5.786  11.464
 3540W        W75800   8.090  27.535  14.448
 3541W        W75801  42.682   7.131   1.712
 3542W        W75802  32.891  26.089  13.171
 3543W        W75803   4.166  16.801  14.507
 3544W        W75804  44.807  42.026   1.242
 3545W        W75805   5.835   7.782  11.636
 3546W        W75806  33.477  20.457   3.454
 3547W        W75807   5.154  18.394   3.214
 3548W        W75808  19.214  37.885   0.888
 3549W        W75809  23.810  34.684  12.412
 3550W        W75810  33.618   7.039   9.786
 3551W        W75811  34.009  14.281   2.449
 3552W        W75812  39.963  21.554   1.215
 3553W        W75813   0.964   0.737  11.302
 3554W        W75814  24.263  29.018  14.885
 3555W        W75815  37.562   4.347  11.826
 3556W        W75816   3.205   1.383   2.735
 3557W        W75817  40.469   2.571   3.823
 3558W        W75818  43.222  38.195  11.489
 3559W        W75819  37.127  20.178   5.047
 3560W        W75820   9.008  35.012   4.470
 3561W        W75821  37.296  29.007   4.047
 3562W        W75822  18.401  29.483  12.044
 3563W        W75823  42.281  38.102   2.693
 3564W        W75824  44.132  18.043   9.922
 3565W        W75825  20.055   3.917   0.743
 3566W        W75826  42.223  21.379   2.177
 3567W        W75827  30.912   3.828  12.935
 3568W        W75828  25.673  30.610   3.750
 3569W        W75829  18.370   6.163  12.987
 3570W        W75830  13.313   8.929  12.892
 3571W        W75831   7.247   5.617   0.296
 3572W        W75832  31.055  33.683   2.221
 3573W        W75833   6.499   1.808   4.229
 3574W        W75834   4.418  14.331   1.305
 3575W        W75835   5.798  27.096   1.345
 3576W        W75836  31.627   4.838   1.038
 3577W        W75837   1.332  21.802   4.203
 3578W        W75838   5.449  11.203   3.672
 3579W        W75839   9.911  38.056  12.910
 3580W        W75840  25.002   2.868   0.309
 3581W        W75841  24.210  42.609   4.892
 3582W        W75842  27.621  18.602  14.845
 3583W        W75843  42.817  27.680  10.501
 3584W        W75844   0.111  10.238   4.014
 3585W        W75845  36.475   9.415  12.897
 3586W        W75846  20.243  24.489   1.943
 3587W        W75847  41.093  22.988  13.407
 3588W        W75848   3.969  20.239  12.424
 3589W        W75849  34.935  33.032   3.650
 3590W        W75850  29.201   4.901  10.219
 3591W        W75851  38.053  14.765   0.883
 3592W        W75852  35.338  17.014  14.854
 3593W        W75853  38.895   8.145   3.874
 3594W        W75854  27.051   0.639  13.530
 3595W        W75855  42.775  36.963   2.612
 3596W        W75856  32.499   6.001  12.067
 3597W        W75857   9.248   4.877   1.373
 3598W        W75858   2.833   6.280   3.863
 3599W        W75859  13.845   6.155   1.426
 3600W        W75860  19.811  25.094   4.245
 3601W        W75861   9.062  41.767   3.899
 3602W        W75862   9.935  38.668  10.190
 3603W        W75863   6.867  11.632   0.680
 3604W        W75864  13.286   0.247   2.993
 3605W        W75865  38.766  44.631   3.248
 3606W        W75866   3.947  16.662  13.373
 3607W        W75867   4.757  18.249  11.702
 3608W        W75868  28.725  20.194  11.826
 3609W        W75869  34.847  18.863   0.299
 3610W        W75870   6.840  40.040   2.367
 3611W        W75871  10.352  22.673   2.422
 3612W        W75872  35.906  40.099   1.630
 3613W        W75873  16.352  10.660   0.050
 3614W        W75874   6.332  36.954  14.375
 3615W        W75875  44.483  39.373   3.677
 3616W        W75876   6.736   9.639   4.146
 3617W        W75877  24.313  10.640   3.294
 3618W        W75878  26.127  27.027   3.176
 3619W        W75879  18.941  20.431   2.320
 3620W        W75880  42.129  13.724   0.226
 3621W        W75881  32.838  39.950  13.483
 3622W        W75882  11.435  17.808  14.836
 3623W        W75883  14.049   7.313  14.766
 3624W        W75884   8.389   5.791   2.441
 3625W        W75885  40.408  24.208   2.610
 3626W        W75886   7.152   0.237   0.127
 3627W        W75887  13.339  24.964  14.337
 3628W        W75888  22.730  18.355  14.776
 3629W        W75889  43.562  10.132  14.599
 3630W        W75890  14.694  28.567  14.366
 3631W        W75891  33.001  18.709   0.571
 3632W        W75892  34.064  21.370  14.188
 3633W        W75893  14.745  11.696  11.376
 3634W        W75894  14.250  26.211   3.927
 3635W        W75895  31.428  34.410   3.668
 3636W        W75896  28.998  39.952   4.372
 3637W        W75897  11.062   2.550   0.279
 3638W        W75898  25.990  35.633  11.143
 3639W        W75899   2.717   0.928  12.956
 3640W        W75900  12.724  28.683   0.744
 3641W        W75901  24.846  15.528  14.962
 3642W        W75902  19.234  13.230   2.762
 3643W        W75903  34.863  31.887  11.130
 3644W        W75904  13.018   7.376  14.281
 3645W        W75905  15.239  41.563  13.709
 3646W        W75906   2.855  37.461   4.681
 3647W        W75907  26.107  25.325  12.108
 3648W        W75908  11.615   8.563  10.931
 3649W        W75909   1.922  30.209   1.355
 3650W        W75910  35.447   9.893   0.390
 3651W        W75911  42.560  31.973   4.285
 3652W        W75912   9.795  39.028  14.980
 3653W        W75913   9.205  14.842  14.935
 3654W        W75914  10.127  12.569  13.763
 3655W        W75915   9.423  35.066  10.973
 3656W        W75916  21.172   7.590   4.973
 3657W        W75917  33.006  30.643   1.771
 3658W        W75918  11.758  38.325  13.582
 3659W        W75919  29.105  35.709   3.609
 3660W        W75920  15.645  24.582  11.626
 3661W        W75921  44.553   6.722   3.600
 3662W        W75922  29.785  26.395   3.785
 3663W        W75923  21.289  38.276  13.085
 3664W        W75924  15.091   4.443  13.886
 3665W        W75925  39.301  29.915   4.123
 3666W        W75926  15.232  11.288  11.213
 3667W        W75927  41.855   6.702   3.583
 3668W        W75928  34.869   1.721  10.467
 3669W        W75929  20.306  15.333  13.526
 3670W        W75930  28.481  31.172   4.905
 3671W        W75931  33.442  42.699  12.087
 3672W        W75932  20.800  25.161  11.071
 3673W        W75933  34.967  27.404   1.298
 3674W        W75934  19.837   6.161  14.070
 3675W        W75935   0.786  15.432   1.223
 3676W        W75936  38.361   6.178   1.182
 3677W        W75937   3.977  15.299   3.713
 3678W        W75938   0.962  19.747   3.704
 3679W        W75939   1.372  19.998  13.939
 3680W        W75940  26.515  22.107   2.562
 3681W        W75941   8.453  42.890  13.306
 3682W        W75942  42.974  24.816  11.221
 3683W        W75943  40.494  29.561   3.742
 3684W        W75944   2.223   6.674   3.169
 3685W        W75945   1.032  20.028   0.232
 3686W        W75946  37.985   2.360   1.392
 3687W        W75947  33.126  40.317   0.185
 3688W        W75948  28.984  20.478  11.486
 3689W        W75949   1.361   1.262  11.875
 3690W        W75950   3.761  32.667   1.971
 3691W        W75951   9.889  26.690  12.520
 3692W        W75952  26.542  26.953   4.921
 3693W        W75953  40.754  44.272  12.083
 3694W        W75954  15.566  25.278  14.241
 3695W        W75955  28.415  31.972   2.807
 3696W        W75956  20.660  17.227  11.609
 3697W        W75957  25.787  34.255   5.503
 3698W        W75958  43.263   5.378   2.386
 3699W        W75959  10.912  28.794   1.065
 3700W        W75960   6.605  23.030  14.253
 3701W        W75961  24.158  42.817   0.355
 3702W        W75962   6.258   5.904   0.372
 3703W        W75963   9.157  35.285   4.070
 3704W        W75964  18.175  33.311   2.352
 3705W        W75965  28.977  26.278   1.423
 3706W        W75966  41.359   2.931   0.816
 3707W        W75967  13.225  28.146  14.222
 3708W        W75968  26.879   2.376   4.042
 3709W        W75969   2.679  31.411  11.978
 3710W        W75970  14.200  10.641   2.795
 3711W        W75971  22.363  19.584   1.844
 3712W        W75972   6.346   9.359   1.870
 3713W        W75973  43.457  43.086  14.910
 3714W        W75974   1.238  41.870   4.660
 3715W        W75975  21.786   9.381  13.482
 3716W        W75976  15.714  21.209   1.365
 3717W        W75977  14.396  29.463  13.405
 3718W        W75978  36.796  39.909   1.267
 3719W        W75979  34.525  31.131   0.455
 3720W        W75980   4.798  12.409   1.414
 3721W        W75981  39.295   8.758  14.733
 3722W        W75982  31.425   6.447   1.856
 3723W        W75983  41.237  20.067   1.395
 3724W        W75984  40.409  43.970   1.273
 3725W        W75985  41.179   1.731  11.139
 3726W        W75986   1.511   3.404   0.052
 3727W        W75987  11.288  18.964   2.281
 3728W        W75988   8.335  14.209   0.802
 3729W        W75989  37.925  37.565   1.876
 3730W        W75990  20.101   8.720  14.719
 3731W        W75991  39.006   4.465  14.016
 3732W        W75992  44.464  35.532  13.733
 3733W        W75993  13.023  18.101  11.184
 3734W        W75994  35.204  21.486  12.907
 3735W        W75995  34.049   6.263   1.345
 3736W        W75996  37.028  20.338   0.196
 3737W        W75997   4.823  11.180  11.562
 3738W        W75998  29.321   4.243  13.460
 3739W        W75999  18.486  36.026   0.334
 3740W        W76000  33.926  21.060   3.060
 3741W        W76001   9.095  18.542   0.728
 3742W        W76002  37.854  35.298   2.820
 3743W        W76003  36.113   3.467   1.637
 3744W        W76004  25.988   4.317   1.330
 3745W        W76005  42.907  35.536  14.028
 3746W        W76006  18.327  25.033  13.918
 3747W        W76007  34.636  19.318  10.218
 3748W        W76008  34.909   6.921  11.095
 3749W        W76009   1.193   1.050  12.385
 3750W        W76010  25.894   0.446  12.041
 3751W        W76011  37.060  36.059   4.908
 3752W        W76012   4.330  35.296   1.398
 3753W        W76013  33.677  27.003   2.837
 3754W        W76014  38.427  19.063   4.012
 3755W        W76015  19.715   9.732  11.804
 3756W        W76016   0.016  19.568   2.354
 3757W        W76017  21.073  35.597   4.590
 3758W        W76018   3.388  18.046  12.105
 3759W        W76019  12.915  13.752   2.255
 3760W        W76020  26.156  30.438  14.283
 3761W        W76021  35.838  36.454  13.540
 3762W        W76022  24.284  27.416   1.805
 3763W        W76023   8.349  30.782  14.980
 3764W        W76024   6.483  39.689   0.885
 3765W        W76025  43.751  18.191  14.578
 3766W        W76026  36.297  12.241   1.033
 3767W        W76027   8.565  26.927  13.521
 3768W        W76028  27.697  20.109   3.387
 3769W        W76029  19.584   6.924  13.322
 3770W        W76030  13.604  10.725   1.435
 3771W        W76031  11.268  29.465   1.751
 3772W        W76032  26.979  29.912   1.793
 3773W        W76033   6.944  30.768   2.251
 3774W        W76034  38.161  20.298  12.654
 3775W        W76035  19.058  25.706  13.432
 3776W        W76036  20.217   2.749  13.976
 3777W        W76037  35.506  29.449   2.710
 3778W        W76038  21.889   1.390  10.442
 3779W        W76039  29.920  42.321  14.017
 3780W        W76040  41.792  19.245   0.330
 3781W        W76041  21.194  32.530  12.709
 3782W        W76042  27.177  15.818   2.830
 3783W        W76043  11.570  19.713  14.801
 3784W        W76044  38.242  41.428   4.540
 3785W        W76045  15.324   2.078   3.244
 3786W        W76046  40.701   5.469  12.079
 3787W        W76047  19.337  13.193  14.238
 3788W        W76048   4.756  35.357   1.716
 3789W        W76049  24.569  34.422  11.187
 3790W        W76050  30.232   2.661   0.799
 3791W        W76051  17.642  13.697   1.319
 3792W        W76052   3.241  30.676  14.250
 3793W        W76053  10.691  37.864   4.621
 3794W        W76054   8.412  32.890  11.983
 3795W        W76055   3.601  42.426   0.502
 3796W        W76056  26.033  40.677   2.167
 3797W        W76057   6.457  28.857   2.264
 3798W        W76058  28.508  22.401  11.182
 3799W        W76059  43.470  41.258   1.562
 3800W        W76060   0.093  18.583  12.506
 3801W        W76061  31.963  24.222   4.543
 3802W        W76062  41.980  20.598   3.721
 3803W        W76063  27.663   3.446   3.714
 3804W        W76064   7.210  40.295  13.988
 3805W        W76065  44.501  14.066  14.005
 3806W        W76066  33.863  44.318   3.370
 3807W        W76067  35.200  13.931   4.676
 3808W        W76068  13.291  17.768  10.371
 3809W        W76069  21.547  28.203   3.646
 3810W        W76070   4.158  43.546   3.306
 3811W        W76071  10.710  24.211  10.462
 3812W        W76072  33.810  42.928   1.090
 3813W        W76073   4.350  15.771  10.059
 3814W        W76074  42.490  13.391   4.635
 3815W        W76075  16.609  11.912   1.290
 3816W        W76076   4.019   5.297  11.474
 3817W        W76077  29.385  31.570   2.753
 3818W        W76078  32.681  35.597  12.459
 3819W        W76079  38.549  35.102  11.064
 3820W        W76080  23.353   7.725   1.163
 3821W        W76081  36.792  10.154  13.871
 3822W        W76082  26.983  33.793  12.127
 3823W        W76083  34.607   4.684   3.728
 3824W        W76084  28.501  30.564  14.735
 3825W        W76085  14.825   4.601  10.034
 3826W        W76086  29.977  19.585  11.934
 3827W        W76087  13.088  31.948   1.434
 3828W        W76088  10.401  34.784   0.455
 3829W        W76089  22.784  22.303   0.797
 3830W        W76090  19.681  21.508   3.881
 3831W        W76091   6.684   8.076  11.387
 3832W        W76092  16.134  36.031  12.246
 3833W        W76093  11.822  18.292  10.796
 3834W        W76094  24.049  35.390  11.653
 3835W        W76095  12.151  22.299   0.879
 3836W        W76096  36.303   1.617  13.347
 3837W        W76097   3.442   8.686   1.279
 3838W        W76098  16.326  39.634   0.865
 3839W        W76099   6.610  42.472  13.535
 3840W        W76100  22.054  10.345   4.575
 3841W        W76101  41.441  36.489   4.688
 3842W        W76102  31.694  42.909  10.979
 3843W        W76103  25.733   4.884  14.902
 3844W        W76104  23.539  33.978   2.136
 3845W        W76105  26.028  19.421  13.222
 3846W        W76106  10.267  35.245  11.456
 3847W        W76107  25.715  38.397   1.561
 3848W        W76108  16.209   5.361  12.682
 3849W        W76109   9.713   1.910   4.858
 3850W        W76110  15.075  16.714   1.208
 3851W        W76111   9.051  36.046   0.427
 3852W        W76112  27.452  38.980  14.263
 3853W        W76113  18.106  42.242   0.326
 3854W        W76114   5.693  28.633   1.130
 3855W        W76115  25.399  18.492   4.488
 3856W        W76116   5.458  18.561  13.967
 3857W        W76117  42.751  31.752  13.046
 3858W        W76118  12.248  40.376   0.575
 3859W        W76119  13.554  34.929   1.918
 3860W        W76120  31.379  22.313  11.490
 3861W        W76121  17.243  32.759  11.739
 3862W        W76122  28.546   6.912   0.995
 3863W        W76123  25.741  35.117   0.854
 3864W        W76124  33.845  23.600   4.843
 3865W        W76125  29.893  11.838   2.386
 3866W        W76126  15.196  29.626   1.780
 3867W        W76127  34.317  27.536  13.572
 3868W        W76128  20.744  18.302   3.347
 3869W        W76129  25.959  20.399   2.697
 3870W        W76130   0.500  35.817   0.546
 3871W        W76131  26.510  43.469  14.876
 3872W        W76132  16.305  10.641  10.485
 3873W        W76133   0.700  34.734   2.887
 3874W        W76134  35.421  44.160   1.880
 3875W        W76135   6.267   5.511  12.408
 3876W        W76136  12.556  14.518   3.279
 3877W        W76137  20.645  15.643  14.736
 3878W        W76138   3.556  33.848   3.138
 3879W        W76139  12.074  34.140   3.828
 3880W        W76140  20.432  25.108   2.770
 3881W        W76141  31.581  11.910  12.431
 3882W        W76142  11.814  11.049  11.617
 3883W        W76143  18.272   6.645  13.166
 3884W        W76144  11.195  44.530   1.315
 3885W        W76145  31.949  43.452   3.846
 3886W        W76146  27.532  12.265  11.740
 3887W        W76147  37.013  41.315  12.005
 3888W        W76148  33.046  21.945   3.366
 3889W        W76149  30.832  23.975   1.813
 3890W        W76150  18.826  27.407   4.264
 3891W        W76151  35.279  11.569   2.729
 3892W        W76152  16.205   8.923   3.086
 3893W        W76153   6.148  26.644  11.921
 3894W        W76154   3.261  38.386   4.879
 3895W        W76155  22.268  15.227   4.397
 3896W        W76156  35.429  41.940  12.560
 3897W        W76157  16.315  38.901   0.366
 3898W        W76158  34.900  16.162   2.823
 3899W        W76159  20.508  19.055   5.564
 3900W        W76160   5.312  26.608   1.626
 3901W        W76161  41.639   3.438  11.578
 3902W        W76162  26.403   3.094  12.328
 3903W        W76163  22.464  29.437  14.222
 3904W        W76164  44.295  37.747   4.237
 3905W        W76165   1.021  16.781   0.734
 3906W        W76166  31.322  39.084   0.997
 3907W        W76167  23.379  23.132  14.345
 3908W        W76168   6.678  20.520  13.440
 3909W        W76169  36.267   0.966   4.308
 3910W        W76170  39.395  18.327   0.343
 3911W        W76171  44.391  36.187  13.158
 3912W        W76172  21.982  43.968   1.953
 3913W        W76173  15.388  24.158   4.158
 3914W        W76174   7.330  41.107   4.443
 3915W        W76175  12.090  22.891  14.848
 3916W        W76176   2.358   3.403  14.036
 3917W        W76177  32.166  22.553  12.031
 3918W        W76178   4.860  35.054   2.597
 3919W        W76179  42.983  44.128   4.091
 3920W        W76180  11.187  44.205   0.055
 3921W        W76181  24.627   2.312  12.582
 3922W        W76182  16.828  44.868  13.460
 3923W        W76183  37.084  40.735  13.408
 3924W        W76184  18.264  21.036  14.372
 3925W        W76185  34.022  20.958  11.593
 3926W        W76186  44.890  43.280  13.036
 3927W        W76187  38.983  37.030  13.356
 3928W        W76188  25.466  29.020  13.388
 3929W        W76189   0.904  42.719   2.248
 3930W        W76190  20.713  16.602   0.244
 3931W        W76191  39.471  27.240   0.622
 3932W        W76192   3.983  28.194   0.940
 3933W        W76193  17.134  38.772   2.213
 3934W        W76194  37.542   4.800  12.540
 3935W        W76195  12.668  16.172  12.919
 3936W        W76196  39.292  33.635   3.635
 3937W        W76197  17.937   9.131   2.309
 3938W        W76198  13.707  18.086  12.547
 3939W        W76199  44.449  24.523   2.721
 3940W        W76200  11.986  30.685   3.678
 3941W        W76201  12.649  30.443  13.435
 3942W        W76202  10.295  43.332   2.196
 3943W        W76203  18.187  31.129   0.523
 3944W        W76204  12.636  10.136   2.193
 3945W        W76205  35.665  35.751  11.480
 3946W        W76206  40.280   9.292  10.718
 3947W        W76207   5.255  29.997  12.593
 3948W        W76208  15.647  36.906   4.623
 3949W        W76209   2.487   7.017  13.550
 3950W        W76210   5.834  36.065   1.678
 3951W        W76211  44.969  36.897   0.649
 3952W        W76212  28.698  27.037   0.226
 3953W        W76213  36.119  28.251   3.736
 3954W        W76214  21.416  22.196  11.480
 3955W        W76215  29.870  15.953   1.398
 3956W        W76216  44.335  20.499   0.533
 3957W        W76217  30.697  19.001  11.562
 3958W        W76218   6.182  28.442   0.074
 3959W        W76219  40.704  28.826  14.419
 3960W        W76220  44.284  42.367   2.954
 3961W        W76221   5.644   3.408  12.495
 3962W        W76222  12.783  31.908   2.427
 3963W        W76223  28.660   5.918  13.363
 3964W        W76224   7.156  44.404  11.726
 3965W        W76225  36.872   0.721  11.540
 3966W        W76226  14.588   7.897  13.548
 3967W        W76227   2.614  23.749  13.480
 3968W        W76228  20.336   9.098  11.073
 3969W        W76229  19.536  24.512   1.158
 3970W        W76230  37.887   0.728   1.010
 3971W        W76231   2.544   7.104   4.068
 3972W        W76232  19.108   5.353   2.951
 3973W        W76233  11.935   7.747   1.878
 3974W        W76234  23.729  39.062   2.129
 3975W        W76235  25.645  44.507  13.311
 3976W        W76236  41.424   0.364   2.419
 3977W        W76237  21.826  41.039   1.708
 3978W        W76238  30.793  16.167  12.469
 3979W        W76239  20.998  34.570   3.205
 3980W        W76240  18.296   3.119   4.984
 3981W        W76241  30.847  42.949   1.545
 3982W        W76242  11.896  43.453   2.264
 3983W        W76243  17.857  13.528   2.247
 3984W        W76244  36.388  28.818  12.915
 3985W        W76245  35.202  41.076   1.383
 3986W        W76246  20.033   1.295   0.282
 3987W        W76247  17.193   4.701  12.528
 3988W        W76248  25.504  38.378  12.359
 3989W        W76249  28.028  16.756  13.442
 3990W        W76250   0.069   1.808   1.785
 3991W        W76251  23.730  43.500  11.521
 3992W        W76252  19.417  12.297  12.515
 3993W        W76253  12.616  20.893  11.202
 3994W        W76254  11.082  43.665  14.938
 3995W        W76255   9.154  30.951   1.859
 3996W        W76256  15.782  19.007  12.005
 3997W        W76257  22.601  30.598   4.146
 3998W        W76258   6.359   7.253  12.905
 3999W        W76259  39.841  14.952   1.819
 4000W        W76260   6.713  35.100  13.817
 4001W        W76261   4.297   2.864   1.262
 4002W        W76262   5.898  13.556  14.407
 4003W        W76263   9.360  20.351  12.559
 4004W        W76264  21.294  34.169   1.021
 4005W        W76265  38.553  12.116   0.762
 4006W        W76266  39.341   6.664  13.641
 4007W        W76267  26.907  31.269  12.061
 4008W        W76268  13.928  31.878  10.062
 4009W        W76269   2.364   4.061  12.373
 4010W        W76270  14.792  13.205   1.385
 4011W        W76271  37.406  30.173   3.200
 4012W        W76272   5.161  37.498  12.196
 4013W        W76273   5.289  33.387  12.131
 4014W        W76274  44.586  42.734  12.448
 4015W        W76275  38.974  24.575  14.500
 4016W        W76276   7.302  29.751  12.718
 4017W        W76277  10.688  42.922  12.213
 4018W        W76278   8.605  38.999  14.408
 4019W        W76279  32.609  37.372   0.368
 4020W        W76280   4.698  32.055   0.965
 4021W        W76281  42.549  44.378   0.809
 4022W        W76282  16.354  15.113  13.456
 4023W        W76283  19.991   9.622  12.561
 4024W        W76284   7.444  13.883  12.381
 4025W        W76285  22.233  41.272  12.504
 4026W        W76286  11.219  36.285   1.789
 4027W        W76287   5.280  14.605   4.893
 4028W        W76288  35.032  21.723   1.147
 4029W        W76289   3.484  23.538   4.232
 4030W        W76290  36.990  32.351  14.931
 4031W        W76291  10.819   9.291  11.954
 4032W        W76292   2.326  13.198   1.509
 4033W        W76293  43.862  39.340  14.351
 4034W        W76294  16.524   6.483   3.861
 4035W        W76295  11.754  36.938  13.732
 4036W        W76296  41.854  30.726  11.069
 4037W        W76297   5.010   5.981  12.058
 4038W        W76298  26.263  16.185   4.213
 4039W        W76299  43.330   7.159  12.118
 4040W        W76300   7.851  23.228  11.925
 4041W        W76301  12.592  13.233   0.843
 4042W        W76302  41.535  24.752   2.270
 4043W        W76303   0.346  25.695  13.902
 4044W        W76304  33.590  38.086  14.061
 4045W        W76305   7.660  34.928  11.101
 4046W        W76306  17.379  33.961  12.154
 4047W        W76307  11.752   1.215  10.687
 4048W        W76308   3.902  40.345  11.802
 4049W        W76309   7.452  31.575  11.607
 4050W        W76310  30.919  27.849  11.536
 4051W        W76311  20.786  38.907  11.607
 4052W        W76312  37.458  27.461  12.337
 4053W        W76313  19.068  17.628   3.321
 4054W        W76314  35.427  18.475  14.752
 4055W        W76315   8.727  10.322  13.491
 4056W        W76316  17.531  39.907   1.185
 4057W        W76317  44.435   9.083  13.425
 4058W        W76318  24.095  37.634   0.256
 4059W        W76319  37.487  19.688   0.633
 4060W        W76320  38.465   4.247   3.029
 4061W        W76321  32.844  35.887  13.983
 4062W        W76322  40.352   3.074   3.698
 4063W        W76323  16.135   5.909  10.484
 4064W        W76324  42.316  38.826   2.540
 4065W        W76325   7.727  18.782  10.928
 4066W        W76326   6.324  41.562  13.931
 4067W        W76327  36.932  18.247   2.615
 4068W        W76328  40.556  13.158   2.730
 4069W        W76329   1.457  39.058   0.418
 4070W        W76330   6.979  11.281   2.508
 4071W        W76331  22.759  30.507  13.442
 4072W        W76332  17.084  27.037   0.971
 4073W        W76333  21.122  41.537  10.282
 4074W        W76334   3.516  20.941   0.434
 4075W        W76335  22.583  25.926  12.158
 4076W        W76336   9.718  39.597   2.224
 4077W        W76337   5.725  24.206  11.646
 4078W        W76338  17.744  17.489   3.573
 4079W        W76339  10.141   0.092   0.886
 4080W        W76340  31.459  43.746   0.059
 4081W        W76341  29.924   6.921  10.710
 4082W        W76342  11.192   6.824   0.800
 4083W        W76343   8.682   0.653  13.816
 4084W        W76344  32.561  20.182  14.355
 4085W        W76345  12.359   6.425   4.571
 4086W        W76346  24.584  41.024   0.369
 4087W        W76347   9.805   5.908  11.655
 4088W        W76348  12.684  23.377   4.369
 4089W        W76349  16.760  33.594   1.947
 4090W        W76350  23.619  28.297  11.923
 4091W        W76351  19.255  42.899   4.056
 4092W        W76352  43.381  43.720   2.309
 4093W        W76353  30.534  36.097  10.682
 4094W        W76354  44.503  44.289   0.413
 4095W        W76355  37.869  43.388   1.711
 4096W        W76356  29.717  11.632  12.497
 4097W        W76357  30.606   7.486  11.275
 4098W        W76358   3.370  36.742  14.934
 4099W        W76359  28.384  19.606   3.577
 4100W        W76360  40.632  15.601  13.926
 4101W        W76361  28.808   7.647   4.119
 4102W        W76362  27.670   6.609  12.198
 4103W        W76363  28.440  24.035   3.126
 4104W        W76364  10.134  18.220   1.956
 4105W        W76365  33.024  23.943  12.479
 4106W        W76366   7.376  37.383  10.598
 4107W        W76367  11.290   4.506  13.845
 4108W        W76368  32.409  11.670   3.845
 4109W        W76369  40.311  38.290  12.871
 4110W        W76370  15.343  26.614  12.565
 4111W        W76371  44.560  17.742   3.650
 4112W        W76372   3.514  38.851   2.319
 4113W        W76373  40.178  16.303  12.459
 4114W        W76374  37.061  26.765   3.913
 4115W        W76375  29.449  38.771   1.783
 4116W        W76376  15.175  41.536   3.900
 4117W        W76377  29.514  35.915   3.344
 4118W        W76378  19.249  17.250   2.836
 4119W        W76379   9.360  20.209  10.708
 4120W        W76380  19.015  17.778  11.521
 4121W        W76381   3.863  31.294  14.356
 4122W        W76382  18.267  23.106   4.739
 4123W        W76383  41.247  26.972   4.351
 4124W        W76384  31.869   8.926   4.104
 4125W        W76385  43.297  43.013  12.123
 4126W        W76386   7.630  40.824  14.806
 4127W        W76387  31.101  14.607   3.191
 4128W        W76388   9.547  32.443  13.753
 4129W        W76389  34.323  24.554   3.765
 4130W        W76390  31.438   0.553   2.752
 4131W        W76391  44.602  32.364  11.868
 4132W        W76392  40.882   7.074   1.256
 4133W        W76393  21.217   4.743  13.020
 4134W        W76394  26.881  41.914  10.035
 4135W        W76395  20.221  26.887  14.845
 4136W        W76396  41.903  24.054  12.883
 4137W        W76397   2.936  15.315   2.324
 4138W        W76398   3.926  26.223  11.700
 4139W        W76399  13.168   1.234  13.542
 4140W        W76400   6.593  42.627  10.005
 4141W        W76401  11.632  27.225  12.416
 4142W        W76402  10.158  15.103   2.362
 4143W        W76403  25.464  14.047   1.906
 4144W        W76404  33.765   7.751   2.758
 4145W        W76405  24.238   2.498   4.785
 4146W        W76406  15.808  13.378  11.536
 4147W        W76407  31.370   8.861   0.258
 4148W        W76408  33.707  21.725  13.050
 4149W        W76409  17.021  24.595   0.751
 4150W        W76410  16.877  20.133   2.124
 4151W        W76411  16.051  13.055   0.874
 4152W        W76412  24.477  21.497  11.006
 4153W        W76413  25.458  30.966  12.107
 4154W        W76414  27.606   9.002  12.568
 4155W        W76415   5.999   2.299   0.934
 4156W        W76416  41.380  23.784   4.189
 4157W        W76417  19.759  40.753   2.856
 4158W        W76418   2.378  22.331  11.514
 4159W        W76419  43.030   4.865   1.309
 4160W        W76420  25.489  32.715   3.303
 4161W        W76421   0.918   7.367  12.937
 4162W        W76422  20.697  25.266  13.444
 4163W        W76423  23.706  43.406  13.506
 4164W        W76424  44.713  44.335  11.695
 4165W        W76425  15.787  34.399   1.282
 4166W        W76426  15.001  30.599   3.343
 4167W        W76427  38.892   7.453   9.522
 4168W        W76428   9.098  33.626   2.792
 4169W        W76429   6.359  28.649  10.230
 4170W        W76430  10.332  38.228   2.807
 4171W        W76431  44.177  39.075   4.901
 4172W        W76432  33.108   5.822  11.371
 4173W        W76433  28.717  34.768   1.823
 4174W        W76434  32.615  31.527  10.962
 4175W        W76435  22.286  30.952  10.430
 4176W        W76436  17.280  21.318   0.832
 4177W        W76437   4.357   4.474   4.124
 4178W        W76438  13.053   8.939   5.118
 4179W        W76439  17.148  25.957  10.686
 4180W        W76440  38.775  12.141  10.468
 4181W        W76441   1.278  19.312  11.533
 4182W        W76442  30.664  37.298   1.755
 4183W        W76443   1.892  22.321   3.744
 4184W        W76444  36.852  19.085  11.581
 4185W        W76445  20.239  29.247  12.484
 4186W        W76446  42.015  31.852   5.033
 4187W        W76447   6.776  31.668   1.748
 4188W        W76448  13.348  17.947   1.272
 4189W        W76449  25.869  21.212  11.575
 4190W        W76450  10.273   0.777  14.721
 4191W        W76451   2.426  30.171  11.572
 4192W        W76452  24.130  15.136  14.504
 4193W        W76453  32.671  13.613   3.922
 4194W        W76454  31.483  23.777  14.233
 4195W        W76455  32.115   3.936   3.930
 4196W        W76456  42.224   4.360   4.614
 4197W        W76457  21.514  38.644   9.827
 4198W        W76458   0.512   0.323  12.553
 4199W        W76459  13.136  34.963   2.820
 4200W        W76460  44.167   9.215  11.649
 4201W        W76461  28.477  14.354   1.639
 4202W        W76462  15.627  17.724   5.082
 4203W        W76463  27.617   4.820  12.640
 4204W        W76464  34.927  25.314  10.403
 4205W        W76465  13.589  22.058   2.161
 4206W        W76466  43.801  16.357   4.138
 4207W        W76467  35.001  39.131   1.421
 4208W        W76468   0.055  18.681  13.376
 4209W        W76469  19.604  26.872   0.709
 4210W        W76470  33.920  12.706  11.609
 4211W        W76471  15.368  42.590   2.232
 4212W        W76472  43.439  34.109  10.579
 4213W        W76473  19.634  28.085  12.383
 4214W        W76474  16.081  19.684  13.411
 4215W        W76475  39.736  30.642  11.591
 4216W        W76476  39.547  21.506   3.288
 4217W        W76477  35.353  39.886   0.283
 4218W        W76478  17.543   2.393  14.229
 4219W        W76479  13.301  10.427  12.048
 4220W        W76480  19.327   4.379  13.336
 4221W        W76481  29.161   7.980   1.857
 4222W        W76482   2.369  15.683   3.842
 4223W        W76483  38.342  36.456   1.954
 4224W        W76484  33.845   7.026   2.515
 4225W        W76485  32.047   2.360   1.746
 4226W        W76486   4.694  29.961  13.897
 4227W        W76487  14.188  28.935   4.539
 4228W        W76488  40.347  16.661   3.320
 4229W        W76489  33.550  42.435  10.787
 4230W        W76490   4.785  43.972   0.367
 4231W        W76491  44.222  18.198   0.313
 4232W        W76492  44.275  32.347   3.829
 4233W        W76493  24.267  24.514   4.198
 4234W        W76494   5.820  36.383  11.865
 4235W        W76495  35.791   1.716  12.106
 4236W        W76496  36.609  24.180  12.406
 4237W        W76497  44.079  17.197  13.640
 4238W        W76498  24.514   9.111   1.359
 4239W        W76499  39.697  26.668  14.530
 4240W        W76500  42.936  36.836  14.254
 4241W        W76501   6.264  21.755  11.131
 4242W        W76502  39.949  25.191  12.045
 4243W        W76503  41.844  31.540   4.655
 4244W        W76504  22.055  28.611   0.581
 4245W        W76505   0.546  36.573  10.691
 4246W        W76506  39.112  31.194  11.676
 4247W        W76507   6.018  28.763   0.448
 4248W        W76508  32.353   1.846  12.559
 4249W        W76509  43.197  27.485   2.199
 4250W        W76510   1.394  13.925  12.576
 4251W        W76511  30.461   1.521  13.916
 4252W        W76512  38.294  44.536  11.131
 4253W        W76513  19.349  23.449  14.898
 4254W        W76514  12.713  29.197  12.626
 4255W        W76515   4.208  26.237  13.845
 4256W        W76516  33.015  12.647  11.401
 4257W        W76517  44.924  11.711  10.174
 4258W        W76518  34.092  26.309   2.643
 4259W        W76519  34.965  29.547  13.816
 4260W        W76520  15.277  19.691   4.561
 4261W        W76521  33.140  26.964   1.759
 4262W        W76522  28.653   8.338  14.172
 4263W        W76523  12.641  28.731  13.003
 4264W        W76524  12.525   0.387  11.661
 4265W        W76525  23.014  26.166   5.044
 4266W        W76526  44.338  20.548   0.006
 4267W        W76527  14.233  27.987   9.709
 4268W        W76528  10.255  18.053   2.425
 4269W        W76529  21.314  27.790  12.380
 4270W        W76530   1.460   0.482  12.440
 4271W        W76531  33.591  22.157  12.406
 4272W        W76532   0.340  10.091  11.852
 4273W        W76533  31.007   7.011  14.834
 4274W        W76534  27.792  32.184   1.442
 4275W        W76535  18.195   9.174   5.127
 4276W        W76536   3.499  14.951   3.017
 4277W        W76537  23.074  35.132  13.416
 4278W        W76538  36.858  14.318  13.436
 4279W        W76539  40.821  10.241   2.693
 4280W        W76540   8.993  32.537  14.847
 4281W        W76541  18.562  15.751   3.302
 4282W        W76542  22.790  31.885  14.833
 4283W        W76543  26.748  39.041   4.983
 4284W        W76544  40.298  34.402   0.699
 4285W        W76545  12.540  38.278  12.058
 4286W        W76546  26.526  28.921   1.439
 4287W        W76547  21.344   9.801   0.850
 4288W        W76548  24.928  16.606   2.219
 4289W        W76549  13.139  24.445  12.513
 4290W        W76550  13.153  43.346  11.545
 4291W        W76551  32.182  33.782  14.316
 4292W        W76552   7.655  31.584  12.946
 4293W        W76553   6.207  41.325  11.442
 4294W        W76554  33.906  18.434   3.343
 4295W        W76555  43.836   8.140   3.851
 4296W        W76556  22.047  23.695   3.867
 4297W        W76557   8.374  42.758   1.457
 4298W        W76558  29.150  34.986  12.003
 4299W        W76559  31.889  35.951   0.917
 4300W        W76560  21.488   8.851   3.448
 4301W        W76561   6.244  18.109   0.795
 4302W        W76562  10.632   5.648  14.382
 4303W        W76563  15.521  15.569  12.027
 4304W        W76564  28.067  18.428  11.950
 4305W        W76565  27.709  22.011   1.818
 4306W        W76566  27.150   8.281  10.720
 4307W        W76567   0.678  14.100  12.881
 4308W        W76568   2.718  34.161   1.351
 4309W        W76569  21.059  19.245   5.222
 4310W        W76570   2.412  16.025  14.955
 4311W        W76571  34.468  40.433   3.351
 4312W        W76572  22.229  15.084   3.361
 4313W        W76573  44.172   2.731   2.268
 4314W        W76574   3.536  37.484  12.843
 4315W        W76575   7.692   9.339   1.372
 4316W        W76576  19.468  32.914   3.646
 4317W        W76577  36.012  30.580   3.272
 4318W        W76578  35.358   8.243   2.231
 4319W        W76579  31.521  19.479  11.570
 4320W        W76580  17.660  28.124  14.889
 4321W        W76581  15.804  42.365  13.718
 4322W        W76582  26.854   8.351   3.411
 4323W        W76583  41.553  32.887   4.725
 4324W        W76584  32.470  10.050  12.268
 4325W        W76585  31.004  21.240  10.704
 4326W        W76586  19.068   9.589   3.667
 4327W        W76587   5.313  12.087   2.822
 4328W        W76588  20.959   8.208   1.969
 4329W        W76589  36.331   2.437  12.852
 4330W        W76590  24.044  33.513   1.663
 4331W        W76591  35.903   4.757  11.922
 4332W        W76592  28.104  27.600   0.400
 4333W        W76593   6.946  34.469   0.810
 4334W        W76594  43.249  42.253   3.562
 4335W        W76595   3.536  29.655  11.094
 4336W        W76596  42.322   8.257   4.961
 4337W        W76597   1.804  10.396   0.702
 4338W        W76598   1.872  14.811  14.059
 4339W        W76599  16.328  20.688  13.594
 4340W        W76600  25.075  38.506   4.924
 4341W        W76601  41.869   0.183   2.630
 4342W        W76602  22.650  29.647   4.483
 4343W        W76603  31.572  43.013   2.884
 4344W        W76604  29.895  25.104   0.038
 4345W        W76605  16.828  11.627  13.307
 4346W        W76606   4.919  37.505   2.438
 4347W        W76607   0.288  21.076   2.185
 4348W        W76608  18.635  28.129  12.117
 4349W        W76609  10.745  11.826  13.392
 4350W        W76610  22.488  30.552   1.718
 4351W        W76611  42.050   9.436  14.887
 4352W        W76612  19.782   8.362  10.763
 4353W        W76613   8.354   4.016   2.096
 4354W        W76614   1.667  35.103  14.001
 4355W        W76615  26.660  27.191  12.414
 4356W        W76616  39.316  38.814  13.596
 4357W        W76617  21.797  25.950   1.447
 4358W        W76618  37.347   7.116   3.203
 4359W        W76619  18.506   3.456   0.489
 4360W        W76620  33.570   6.330   1.795
 4361W        W76621  10.095   6.312   4.100
 4362W        W76622  25.033  15.256  12.941
 4363W        W76623  24.456  16.298   3.471
 4364W        W76624   4.701   0.817   4.724
 4365W        W76625   3.902  16.249   2.222
 4366W        W76626  40.286  17.498   1.670
 4367W        W76627  25.814  37.107   0.875
 4368W        W76628   2.938   3.852  11.023
 4369W        W76629  41.135  12.294   1.776
 4370W        W76630  20.297   0.916   1.370
 4371W        W76631  20.491  36.942  10.734
 4372W        W76632   2.848  29.097   3.780
 4373W        W76633  26.722   9.377  11.111
 4374W        W76634  42.413  29.158   4.745
 4375W        W76635  25.118  33.110   4.776
 4376W        W76636  17.548  29.978   2.851
 4377W        W76637   4.709  10.294  13.425
 4378W        W76638   1.468   6.205  12.971
 4379W        W76639  19.497   0.811   1.764
 4380W        W76640  19.146  18.696  14.478
 4381W        W76641  21.063  43.933   0.971
 4382W        W76642  44.915  43.190   2.330
 4383W        W76643  36.397  30.334  13.039
 4384W        W76644  33.069   8.463   4.884
 4385W        W76645  18.437   6.852   0.968
 4386W        W76646  44.747  26.743  14.223
 4387W        W76647   3.265  12.205  11.035
 4388W        W76648  19.523  44.504  13.222
 4389W        W76649  27.761  34.987   0.026
 4390W        W76650  14.640   6.923  11.727
 4391W        W76651  37.031  33.926   3.872
 4392W        W76652  25.438  42.146  10.785
 4393W        W76653  25.572   8.783  12.365
 4394W        W76654  39.959   5.245   1.271
 4395W        W76655   7.870  31.635  10.714
 4396W        W76656  23.208  37.821   1.362
 4397W        W76657  22.266  21.525   9.792
 4398W        W76658  37.939  27.982   0.307
 4399W        W76659  44.338  21.849  14.389
 4400W        W76660  18.258  37.951   3.627
 4401W        W76661  13.301  34.574   0.505
 4402W        W76662  33.099  29.999   0.725
 4403W        W76663  14.087  42.101   3.257
 4404W        W76664  11.745  14.221   1.315
 4405W        W76665  41.529  14.182   0.803
 4406W        W76666   6.831  34.037   3.224
 4407W        W76667   3.664  29.735   3.679
 4408W        W76668  40.924  28.031   4.289
 4409W        W76669  31.153  28.053   2.303
 4410W        W76670   1.910   7.987   1.594
 4411W        W76671  37.943   6.231  14.759
 4412W        W76672  16.526  12.216  11.372
 4413W        W76673  19.244  40.066   1.336
 4414W        W76674   5.140   5.919   1.497
 4415W        W76675  27.242  12.590  10.690
 4416W        W76676  21.668  21.269   1.186
 4417W        W76677  20.990   8.813   0.950
 4418W        W76678  14.822  41.244   2.638
 4419W        W76679  43.331  21.046  12.119
 4420W        W76680  14.818  31.296  13.564
 4421W        W76681  29.619   7.173  14.872
 4422W        W76682  29.013  24.728  11.287
 4423W        W76683  10.691  44.243   4.670
 4424W        W76684  31.579   9.880   4.457
 4425W        W76685   6.070   7.257  12.474
 4426W        W76686   4.279  34.371  14.201
 4427W        W76687  35.050  39.902   1.848
 4428W        W76688  30.686  14.372  13.917
 4429W        W76689  33.620  13.101   1.761
 4430W        W76690  22.705  42.972   0.926
 4431W        W76691   6.819  28.687   1.897
 4432W        W76692  33.833  33.578   0.904
 4433W        W76693   9.323  13.862   2.207
 4434W        W76694  20.885  42.986  11.502
 4435W        W76695  16.026   6.173  12.871
 4436W        W76696  32.430  30.008   1.915
 4437W        W76697  32.241  16.657  14.806
 4438W        W76698  22.936  26.250  10.182
 4439W        W76699   6.494  40.202  14.621
 4440W        W76700  17.772  24.536   2.455
 4441W        W76701  25.930  24.493  10.781
 4442W        W76702  16.209  17.132  11.490
 4443W        W76703  20.257  13.371  10.667
 4444W        W76704  38.006  10.822   1.785
 4445W        W76705  11.171  26.724  11.354
 4446W        W76706  27.390  23.061   2.666
 4447W        W76707  24.584   6.752   2.873
 4448W        W76708  39.575  22.791   3.884
 4449W        W76709  27.132  23.380  12.924
 4450W        W76710  37.017  33.186  14.020
 4451W        W76711  18.745  37.666   0.696
 4452W        W76712   8.704   8.429  14.034
 4453W        W76713  13.245  13.362  13.503
 4454W        W76714  39.533  29.089   3.243
 4455W        W76715  27.569  34.448   1.328
 4456W        W76716  17.714  33.562  10.875
 4457W        W76717   0.189  13.744  10.751
 4458W        W76718  14.776  15.619  11.129
 4459W        W76719  22.269  29.477   3.102
 4460W        W76720  27.231   9.598  11.948
 4461W        W76721  27.085  34.329   1.684
 4462W        W76722  15.051  25.003  12.906
 4463W        W76723  14.226  10.384  14.384
 4464W        W76724  16.653  33.460   0.478
 4465W        W76725   5.286  16.845   1.909
 4466W        W76726   2.760  34.443  13.138
 4467W        W76727   6.928  40.659   3.586
 4468W        W76728  32.468   0.531  14.094
 4469W        W76729  23.047  20.484  10.681
 4470W        W76730  24.241  19.564   1.886
 4471W        W76731  30.067  31.354   3.346
 4472W        W76732   1.870  18.603   2.351
 4473W        W76733  14.692  14.089   1.992
 4474W        W76734  11.665   1.461   0.822
 4475W        W76735   2.361  44.333  10.782
 4476W        W76736   0.389  27.056  10.657
 4477W        W76737   6.714  29.714   2.279
 4478W        W76738  43.762  23.750   3.420
 4479W        W76739  38.836  36.599   2.826
 4480W        W76740   7.363  17.669   1.332
 4481W        W76741   9.194  40.020  10.818
 4482W        W76742  42.447  40.030   1.885
 4483W        W76743  12.092  19.302  11.634
 4484W        W76744  40.601   0.867  11.339
 4485W        W76745  40.361  43.415   2.482
 4486W        W76746  32.513  34.782  14.303
 4487W        W76747  13.272  16.316  13.699
 4488W        W76748  13.588   9.280   3.737
 4489W        W76749   2.891  27.029   4.594
 4490W        W76750   1.951   2.826  13.646
 4491W        W76751  33.158  40.324   1.531
 4492W        W76752   1.863   9.135   1.256
 4493W        W76753  40.497   9.138   2.813
 4494W        W76754  44.074  18.467  14.867
 4495W        W76755   5.899  33.921  11.932
 4496W        W76756  44.960  26.434  11.951
 4497W        W76757  29.861  37.441   0.484
 4498W        W76758  11.430   0.885   2.684
 4499W        W76759  40.276   2.970   1.208
 4500W        W76760  30.397  12.655   2.261
 4501W        W76761  15.835   7.116   3.454
 4502W        W76762  18.649   3.763   1.331
 4503W        W76763  13.211   9.937   4.892
 4504W        W76764  33.154  19.402   2.758
 4505W        W76765  24.972  41.942  10.839
 4506W        W76766  11.506  15.730  14.781
 4507W        W76767   3.495   1.811   2.597
 4508W        W76768  17.512  27.501   2.681
 4509W        W76769  32.658  42.020   4.129
 4510W        W76770   0.038  34.672   0.414
 4511W        W76771  18.482  44.236  11.351
 4512W        W76772   6.441   7.654   3.247
 4513W        W76773  16.267   8.916  12.550
 4514W        W76774   7.769   7.237  10.764
 4515W        W76775  37.540  15.291  13.805
 4516W        W76776  29.159  21.933  13.879
 4517W        W76777  22.087  25.503  14.834
 4518W        W76778  22.033  29.344  14.527
 4519W        W76779  11.551  17.180   0.246
 4520W        W76780   8.927  35.688  14.575
 4521W        W76781  12.645  44.292   4.761
 4522W        W76782  12.746  37.328  11.173
 4523W        W76783  14.049   8.013   4.491
 4524W        W76784  37.872   3.703   1.001
 4525W        W76785  41.068  24.639  11.177
 4526W        W76786  28.621  29.920  13.476
 4527W        W76787  21.253  18.209   3.272
 4528W        W76788  29.399  14.308  13.653
 4529W        W76789  40.951  35.985  14.014
 4530W        W76790  43.486  34.396   2.423
 4531W        W76791  21.664  16.781  11.718
 4532W        W76792  27.783  12.447  13.093
 4533W        W76793   8.365  42.346   0.469
 4534W        W76794   7.829  41.813  11.421
 4535W        W76795  41.877  21.732  14.246
 4536W        W76796  32.580  39.097   0.016
 4537W        W76797  21.707  11.327  14.005
 4538W        W76798  43.100   0.189   0.903
 4539W        W76799  40.439  10.614   3.694
 4540W        W76800  24.835   9.376  10.782
 4541W        W76801  21.155  18.063   2.322
 4542W        W76802  42.382   9.364   4.197
 4543W        W76803  31.632  34.991  14.760
 4544W        W76804  20.105  26.501  10.076
 4545W        W76805  35.365  39.123  13.743
 4546W        W76806   8.503   9.814  12.502
 4547W        W76807   2.509  28.583  11.211
 4548W        W76808   7.286  11.370   3.265
 4549W        W76809   5.382   5.964   3.733
 4550W        W76810  28.400  29.088  13.089
 4551W        W76811  26.932   7.672  14.918
 4552W        W76812  26.703   5.411   3.339
 4553W        W76813  24.912  44.644  14.747
 4554W        W76814   0.566  39.896  12.974
 4555W        W76815  26.865  38.071   4.170
 4556W        W76816   4.416  38.975   3.375
 4557W        W76817  16.594  24.173   0.071
 4558W        W76818  25.128  12.816   0.411
 4559W        W76819  37.765  34.794  13.802
 4560W        W76820  10.141  10.599  10.179
 4561W        W76821  32.610  16.871   1.152
 4562W        W76822  18.315  11.757   4.242
 4563W        W76823   3.405  43.428  13.849
 4564W        W76824  36.431   4.399  11.229
 4565W        W76825  15.722   0.052  11.611
 4566W        W76826  40.054  20.337  12.355
 4567W        W76827  32.632   0.393  11.825
 4568W        W76828  31.395  34.384   0.510
 4569W        W76829   7.912  25.015   4.807
 4570W        W76830  44.436  16.523   4.112
 4571W        W76831  43.146   1.771  13.237
 4572W        W76832  33.212   2.204  12.394
 4573W        W76833   5.750  23.306   2.691
 4574W        W76834  21.101  35.999  14.788
 4575W        W76835  31.445  23.130   0.345
 4576W        W76836  23.135  21.950   0.890
 4577W        W76837  39.373  43.560   2.239
 4578W        W76838  10.610   9.759   2.758
 4579W        W76839  39.833  35.480  11.570
 4580W        W76840  25.011  23.962   4.588
 4581W        W76841  44.285  35.337  11.184
 4582W        W76842  21.296  17.144   4.590
 4583W        W76843  39.892  35.829   4.945
 4584W        W76844  22.715   4.221   3.821
 4585W        W76845   5.632  22.436  14.689
 4586W        W76846  25.579  39.886   3.368
 4587W        W76847   1.704  36.324   0.359
 4588W        W76848  13.753  27.463   2.000
 4589W        W76849  13.746  16.774  11.846
 4590W        W76850  42.545  33.101   3.201
 4591W        W76851  27.712  31.095  14.907
 4592W        W76852  42.831  10.062   0.288
 4593W        W76853  42.294   4.537   4.127
 4594W        W76854  34.856  35.114  14.257
 4595W        W76855  35.929  35.421   0.273
 4596W        W76856   2.019  29.126  11.988
 4597W        W76857  26.556   7.656  13.976
 4598W        W76858   2.659  26.150   0.915
 4599W        W76859   4.400  32.470  14.762
 4600W        W76860  29.917  41.635   1.178
 4601W        W76861   8.234  16.337   2.144
 4602W        W76862  28.166   1.400  14.466
 4603W        W76863  28.411  14.073  10.910
 4604W        W76864  42.967  16.712  14.787
 4605W        W76865  23.048  15.490  11.133
 4606W        W76866  20.159  15.821  10.651
 4607W        W76867   8.573  27.212   3.299
 4608W        W76868  30.865  32.425   4.248
 4609W        W76869  22.229  25.381   4.615
 4610W        W76870  12.184   4.195  14.617
 4611W        W76871  22.714  31.378  14.951
 4612W        W76872  34.640  39.924  10.606
 4613W        W76873  15.165  26.773  14.787
 4614W        W76874  17.016  39.802  12.905
 4615W        W76875  16.173  40.381  14.178
 4616W        W76876  26.570  33.389   3.292
 4617W        W76877  11.220  41.183  13.515
 4618W        W76878  23.445   3.802   4.559
 4619W        W76879  24.589  16.893   0.375
 4620W        W76880   8.641  21.241  12.262
 4621W        W76881   4.012  26.956  13.428
 4622W        W76882  15.790   2.234  14.714
 4623W        W76883  33.007  31.203   3.010
 4624W        W76884   9.137  39.619  13.869
 4625W        W76885   5.198  33.909  12.923
 4626W        W76886  18.003  28.429   0.191
 4627W        W76887   8.723   3.480   1.749
 4628W        W76888   1.328   4.280  11.698
 4629W        W76889  35.567   1.822  14.521
 4630W        W76890  18.851  19.246  10.656
 4631W        W76891  32.902  21.263   1.530
 4632W        W76892  22.765  33.938  11.239
 4633W        W76893  35.042   9.359  11.116
 4634W        W76894  40.039   0.462   0.852
 4635W        W76895  40.882  38.369   2.589
 4636W        W76896  11.280   5.166   3.665
 4637W        W76897  22.988  29.027   1.183
 4638W        W76898  27.207  11.846  11.786
 4639W        W76899  11.326  35.285   1.409
 4640W        W76900  36.854  33.996  10.687
 4641W        W76901   2.925   1.659  13.586
 4642W        W76902  18.615  42.384  14.104
 4643W        W76903   4.268  36.403  14.079
 4644W        W76904  27.910  31.094  12.957
 4645W        W76905  43.404   8.946  10.149
 4646W        W76906  18.535  23.580  13.063
 4647W        W76907  26.492  19.227  14.051
 4648W        W76908  27.851  11.999   1.459
 4649W        W76909  25.927  14.757  14.531
 4650W        W76910  11.069  40.423   3.049
 4651W        W76911   4.963  37.001   0.821
 4652W        W76912   3.458  12.193  12.839
 4653W        W76913  10.197   8.653  10.587
 4654W        W76914   9.231   3.029  14.093
 4655W        W76915  21.546  28.698   2.166
 4656W        W76916  31.067  22.447   2.486
 4657W        W76917  27.074  39.395   9.829
 4658W        W76918  31.271   5.308  12.124
 4659W        W76919  22.132  19.498   3.696
 4660W        W76920  44.474  13.228   4.273
 4661W        W76921  28.474  11.164  10.546
 4662W        W76922  27.954  40.885  11.104
 4663W        W76923  21.085  39.443   3.867
 4664W        W76924   9.766  37.085  13.352
 4665W        W76925  25.221  44.808  11.012
 4666W        W76926  31.119  29.626  14.403
 4667W        W76927  38.001   7.471  12.362
 4668W        W76928  13.311  17.094   4.281
 4669W        W76929   4.827  26.029   2.289
 4670W        W76930   9.972  17.608   2.366
 4671W        W76931  13.594  41.500   1.589
 4672W        W76932  32.458  41.880   3.650
 4673W        W76933  27.483  30.654  10.734
 4674W        W76934   1.434   2.489   3.904
 4675W        W76935  13.816  19.559   5.085
 4676W        W76936  15.884  40.969  12.139
 4677W        W76937  21.216  21.761  11.714
 4678W        W76938  14.533  23.098   2.724
 4679W        W76939  14.361  29.138  11.901
 4680W        W76940   0.854  16.774  11.831
 4681W        W76941  15.941  31.660   2.245
 4682W        W76942   4.464  38.515  12.392
 4683W        W76943  28.041   7.646   2.436
 4684W        W76944   4.168  21.041  11.034
 4685W        W76945  44.781   6.420  14.026
 4686W        W76946   3.691  39.363   1.832
 4687W        W76947  25.005   0.913   2.316
 4688W        W76948  15.827  23.142  14.588
 4689W        W76949  13.960  34.502  11.982
 4690W        W76950  29.012  25.729  12.165
 4691W        W76951  21.903  41.422  14.019
 4692W        W76952  32.831  36.377  13.852
 4693W        W76953  38.571  27.279  13.903
 4694W        W76954  28.229  29.351   2.294
 4695W        W76955  11.390   2.444  11.829
 4696W        W76956   1.963  23.337   3.742
 4697W        W76957  29.564  25.327  10.158
 4698W        W76958   4.795  25.563  11.844
 4699W        W76959  19.856  29.759   1.303
 4700W        W76960   9.285  25.133  10.485
 4701W        W76961   3.543  30.364   0.123
 4702W        W76962  31.065  30.109   1.473
 4703W        W76963  16.689   8.746   1.303
 4704W        W76964  19.121  30.960  11.225
 4705W        W76965   0.282  41.670   3.104
 4706W        W76966  19.067  12.868  12.415
 4707W        W76967   7.256  13.111   1.738
 4708W        W76968  43.207   9.385  11.586
 4709W        W76969  10.277  32.412   3.732
 4710W        W76970  42.339  33.571   3.268
 4711W        W76971  27.933   0.372  14.717
 4712W        W76972   0.979   7.094   3.314
 4713W        W76973  36.138   8.687   0.373
 4714W        W76974   1.498  22.501   1.326
 4715W        W76975  11.355  24.724  12.945
 4716W        W76976   1.158   2.681  11.578
 4717W        W76977  23.915  34.163   3.335
 4718W        W76978  32.569  15.098   1.757
 4719W        W76979  44.047  13.700   4.312
 4720W        W76980  16.391  43.990  14.367
 4721W        W76981  39.459   7.678  12.051
 4722W        W76982  15.706  32.175  14.092
 4723W        W76983  17.667  25.188   3.614
 4724W        W76984  18.688  44.872   2.678
 4725W        W76985  30.093  17.710  14.460
 4726W        W76986  13.778   2.581   0.873
 4727W        W76987  38.410   0.959   2.213
 4728W        W76988  26.563  14.201   3.626
 4729W        W76989  42.819   7.855  13.432
 4730W        W76990  25.971  34.362  11.973
 4731W        W76991  39.033   7.686   4.103
 4732W        W76992   2.832  20.611   4.980
 4733W        W76993  34.317   1.490   2.894
 4734W        W76994   3.362  37.459   4.562
 4735W        W76995  29.142  43.802   0.857
 4736W        W76996  16.348  10.753   2.086
 4737W        W76997  32.147   7.828   3.492
 4738W        W76998  40.393  30.573   2.132
 4739W        W76999  17.113  44.347   0.869
 4740W        W77000  42.428  44.580   4.601
 4741W        W77001  20.619  43.159  12.529
 4742W        W77002   3.299   0.448   5.039
 4743W        W77003  11.214  21.154  13.708
 4744W        W77004  24.161  27.137  12.837
 4745W        W77005  12.570   2.733   1.347
 4746W        W77006   3.714  12.549   3.185
 4747W        W77007  22.040  30.359  14.132
 4748W        W77008   0.719  41.822   4.673
 4749W        W77009  10.665  17.208  14.324
 4750W        W77010   3.664  32.157   2.811
 4751W        W77011   4.925  29.700   4.914
 4752W        W77012  35.579  26.055   1.364
 4753W        W77013  39.482   8.916   1.466
 4754W        W77014   4.137   9.661   1.923
 4755W        W77015  34.436  36.961  13.131
 4756W        W77016  38.606   6.950   0.892
 4757W        W77017   4.159  25.673  14.076
 4758W        W77018  36.388  42.760  10.758
 4759W        W77019  24.328  41.902  11.125
 4760W        W77020  23.884  25.197  13.828
 4761W        W77021  25.439   7.563   4.947
 4762W        W77022  18.209   5.392  10.884
 4763W        W77023  23.386  18.206   3.224
 4764W        W77024  11.328   5.939  13.701
 4765W        W77025  20.859  28.634  10.702
 4766W        W77026  29.901  39.773  14.456
 4767W        W77027  32.079   3.362   4.124
 4768W        W77028   3.501   8.824   5.108
 4769W        W77029  23.575   8.427  14.902
 4770W        W77030  28.030  39.058  12.100
 4771W        W77031  21.471  40.532   0.275
 4772W        W77032  13.583  23.616   3.843
 4773W        W77033   3.028  16.635  11.545
 4774W        W77034  33.546  34.429   4.596
 4775W        W77035  18.945  33.418  14.876
 4776W        W77036  18.777   2.792   0.031
 4777W        W77037   9.586  36.742  11.507
 4778W        W77038  32.594   7.244  10.992
 4779W        W77039  25.078  22.107   4.134
 4780W        W77040  17.646  32.902   1.188
 4781W        W77041  14.475  42.529  13.371
 4782W        W77042  35.055  31.892  11.613
 4783W        W77043  35.498  14.208   1.352
 4784W        W77044   6.278  12.519   5.082
 4785W        W77045  25.733  17.380  12.924
 4786W        W77046  21.534  35.701  14.825
 4787W        W77047   3.526  21.626   1.018
 4788W        W77048  11.186  20.558   3.692
 4789W        W77049  24.895  37.073   3.728
 4790W        W77050  12.184  37.286  10.621
 4791W        W77051  22.934  39.358   0.419
 4792W        W77052  21.551   0.471  12.941
 4793W        W77053  41.887   4.100  13.886
 4794W        W77054  31.142  37.489   1.757
 4795W        W77055  17.545  18.833   0.445
 4796W        W77056   4.729  13.172   4.625
 4797W        W77057  27.514  15.778  12.145
 4798W        W77058  41.452  18.586   2.891
 4799W        W77059   4.595  32.571   1.282
 4800W        W77060  13.081  10.190   3.197
 4801W        W77061  33.385  25.637  11.074
 4802W        W77062  11.927  39.046   3.275
 4803W        W77063   9.944  38.941  11.006
 4804W        W77064  32.077  38.856   4.579
 4805W        W77065   9.533  29.888   4.112
 4806W        W77066  10.869  17.146  12.919
 4807W        W77067  36.788   1.409   0.372
 4808W        W77068  31.724   5.534   2.292
 4809W        W77069   1.331   6.703   2.744
 4810W        W77070  28.956  36.307  12.419
 4811W        W77071  14.862  29.974   5.047
 4812W        W77072  11.847  20.259   1.467
 4813W        W77073  35.526   1.413  14.009
 4814W        W77074  16.497   8.419   4.116
 4815W        W77075  17.667   0.939   2.795
 4816W        W77076   0.754  38.539  14.519
 4817W        W77077  12.065  33.962   3.362
 4818W        W77078  27.017  29.655   1.257
 4819W        W77079  17.538  22.619   1.717
 4820W        W77080   4.920  33.124   0.234
 4821W        W77081  41.361   5.942  14.019
 4822W        W77082  29.936  33.207   3.853
 4823W        W77083  25.521  43.732   0.771
 4824W        W77084   9.872  13.659   2.165
 4825W        W77085  29.482  32.036  10.595
 4826W        W77086  30.625   8.797  13.032
 4827W        W77087  11.858  31.578   4.202
 4828W        W77088  42.780  13.867   1.509
 4829W        W77089  14.149  20.998  13.895
 4830W        W77090  35.907  12.192  12.095
 4831W        W77091  39.648  11.428   0.357
 4832W        W77092  16.136   4.206   3.176
 4833W        W77093  13.206   8.375   2.924
 4834W        W77094  13.313  42.065  14.022
 4835W        W77095  11.659  24.959  13.609
 4836W        W77096  24.183   3.325   5.131
 4837W        W77097  36.753  22.035  14.241
 4838W        W77098  28.160   7.863   2.889
 4839W        W77099  13.330   6.426  11.983
 4840W        W77100  19.535  29.579   5.049
 4841W        W77101  36.723  13.579  14.294
 4842W        W77102  39.471  27.242   4.178
 4843W        W77103  15.677  27.761   0.863
 4844W        W77104  15.180  14.721  14.265
 4845W        W77105   3.347  33.109  13.090
 4846W        W77106  16.621  32.691  10.667
 4847W        W77107  21.839  29.136   4.667
 4848W        W77108  44.537  36.860  12.030
 4849W        W77109  22.653  15.801   2.386
 4850W        W77110   6.240  15.770   2.563
 4851W        W77111  15.972  13.096  11.937
 4852W        W77112  11.098  19.281  14.921
 4853W        W77113  23.284   1.986   3.481
 4854W        W77114  38.694  14.174  14.324
 4855W        W77115  21.965  20.027   4.040
 4856W        W77116  29.549  39.368  14.346
 4857W        W77117  17.162   2.338  13.251
 4858W        W77118  19.100  22.499   0.674
 4859W        W77119  24.754  10.569   4.219
 4860W        W77120  11.262   8.670  13.983
 4861W        W77121  23.362  28.958  10.661
 4862W        W77122  20.064  36.800   2.862
 4863W        W77123  10.832  26.947   1.741
 4864W        W77124   8.176  13.262  14.292
 4865W        W77125  34.975  41.202  14.267
 4866W        W77126  32.886  14.165  14.431
 4867W        W77127  14.100  40.278   4.631
 4868W        W77128  11.627  41.903   4.316
 4869W        W77129  13.711  36.674   4.693
 4870W        W77130  11.323  41.315  11.480
 4871W        W77131   0.710  28.000   9.775
 4872W        W77132   7.016  41.579  14.708
 4873W        W77133  20.623  21.647  10.121
 4874W        W77134   0.393  31.213   4.735
 4875W        W77135  33.076  12.920  11.824
 4876W        W77136  27.943   5.938   3.239
 4877W        W77137  38.498  17.651   0.391
 4878W        W77138  41.542  35.666  11.105
 4879W        W77139   9.764  26.915   0.906
 4880W        W77140  41.256  27.132   0.931
 4881W        W77141  29.619  40.071   0.262
 4882W        W77142  41.888  43.049   2.427
 4883W        W77143  24.659  12.875  12.600
 4884W        W77144  27.243   1.358  10.678
 4885W        W77145  29.721  24.552  12.695
 4886W        W77146  34.055  11.215  13.942
 4887W        W77147   4.393  21.725  12.375
 4888W        W77148   6.830  22.657  10.504
 4889W        W77149  10.374  20.256   1.339
 4890W        W77150   3.435  16.928  14.700
 4891W        W77151  43.412  19.474  14.569
 4892W        W77152   4.311  26.778   3.650
 4893W        W77153  11.637  28.092   0.747
 4894W        W77154  31.238  29.864   5.508
 4895W        W77155  22.595   0.247  14.250
 4896W        W77156  35.425  35.035   3.343
 4897W        W77157  35.493  41.617   0.527
 4898W        W77158  12.255  28.605  10.139
 4899W        W77159  44.839  28.523  11.236
 4900W        W77160  12.258   3.713  14.451
 4901W        W77161  27.621   2.884  12.827
 4902W        W77162  36.405  17.235  12.508
 4903W        W77163   5.983  17.659   1.456
 4904W        W77164  26.125   6.028  11.613
 4905W        W77165  40.295  22.226  11.573
 4906W        W77166  13.916  12.175   1.761
 4907W        W77167   9.708  34.144  14.764
 4908W        W77168  11.744  42.345   4.579
 4909W        W77169  42.420  17.287   2.759
 4910W        W77170  15.209   0.153  12.872
 4911W        W77171   7.740  41.815  12.953
 4912W        W77172  16.594  21.521   3.299
 4913W        W77173  29.188  21.632   2.901
 4914W        W77174  28.580  34.883  13.941
 4915W        W77175  10.158  14.371  12.595
 4916W        W77176  36.457   0.847   2.775
 4917W        W77177  44.362  32.873   3.693
 4918W        W77178  17.069  26.840   3.707
 4919W        W77179  35.634  22.399   2.310
 4920W        W77180  12.796   2.235   0.245
 4921W        W77181  19.935  19.433  12.388
 4922W        W77182  31.890  39.850  12.063
 4923W        W77183   5.228  10.402   3.182
 4924W        W77184  14.574  16.695  13.378
 4925W        W77185  39.524   6.986   3.116
 4926W        W77186  34.668  22.527   1.546
 4927W        W77187   7.258  12.182  11.011
 4928W        W77188  29.017   6.180   2.440
 4929W        W77189  37.459  37.604   3.583
 4930W        W77190   2.280  42.843   3.696
 4931W        W77191   1.313   2.492  13.582
 4932W        W77192  38.519  20.030   1.918
 4933W        W77193  19.684  14.282  12.119
 4934W        W77194   9.943  15.860  13.983
 4935W        W77195  16.184  14.697  11.293
 4936W        W77196  11.726  36.931   4.471
 4937W        W77197   8.204  37.550  13.736
 4938W        W77198  24.244  32.114   4.613
 4939W        W77199  11.284  11.105  13.430
 4940W        W77200  32.019  44.763   0.975
 4941W        W77201  30.444  35.588  10.688
 4942W        W77202  24.666   6.233   4.189
 4943W        W77203  24.656   7.923   4.274
 4944W        W77204  40.815  36.548  11.933
 4945W        W77205  31.104  43.733   1.223
 4946W        W77206  15.550   5.833   2.156
 4947W        W77207  10.389  43.435   3.631
 4948W        W77208  19.255  13.306   1.916
 4949W        W77209  22.001   7.898   4.151
 4950W        W77210  25.513  36.056   0.042
 4951W        W77211  44.029  35.055  14.986
 4952W        W77212   0.947  40.661   1.239
 4953W        W77213  25.458  14.261  14.818
 4954W        W77214  23.614  18.351   1.219
 4955W        W77215  22.781  28.931  11.534
 4956W        W77216  44.986   6.140  14.839
 4957W        W77217  32.657  26.182  14.413
 4958W        W77218  40.465  23.239   1.230
 4959W        W77219  21.113   2.768   1.903
 4960W        W77220  22.730  35.708  11.695
 4961W        W77221   6.228  14.122  10.017
 4962W        W77222  34.648  37.250  14.298
 4963W        W77223  19.800  39.858   0.729
 4964W        W77224   5.137  19.170  14.757
 4965W        W77225  44.465  13.090  11.565
 4966W        W77226  33.891  27.471  12.103
 4967W        W77227  24.181  32.699   3.753
 4968W        W77228  28.065  33.645  14.278
 4969W        W77229  24.290  22.938   5.152
 4970W        W77230  28.952  40.896  14.768
 4971W        W77231  28.456   1.231   2.392
 4972W        W77232  22.811  17.562  11.992
 4973W        W77233  11.371  41.566  10.591
 4974W        W77234  40.014  29.024  13.591
 4975W        W77235  28.065   3.433  13.306
 4976W        W77236  36.909  20.824   1.358
 4977W        W77237  16.229  15.774  14.814
 4978W        W77238  39.505  17.849   1.328
 4979W        W77239  37.133  39.978  14.839
 4980W        W77240   7.212  24.615  12.143
 4981W        W77241   6.133  24.057  10.733
 4982W        W77242  10.163  20.787  10.835
 4983W        W77243  32.450   1.925   1.783
 4984W        W77244  10.574   8.083   1.690
 4985W        W77245   7.837  21.545  14.598
 4986W        W77246  37.378  26.706   4.773
 4987W        W77247  12.140  20.808   2.735
 4988W        W77248  25.574  24.570  11.680
 4989W        W77249  23.988  36.973   4.571
 4990W        W77250  18.864   9.301  11.082
 4991W        W77251  43.872  23.042  14.949
 4992W        W77252  20.624   8.767   0.570
 4993W        W77253  30.755   5.222   4.115
 4994W        W77254  12.660  44.887  14.472
 4995W        W77255   7.426  32.084   3.259
 4996W        W77256  28.815  19.717  11.136
 4997W        W77257   9.965  32.462   1.799
 4998W        W77258  36.571  26.678  14.284
 4999W        W77259  12.766  30.888  11.662
 5000W        W77260   5.906  37.522   2.185
 5001W        W77261   1.975  37.430   4.549
 5002W        W77262  37.334  21.183   1.241
 5003W        W77263   5.790  30.607  12.389
 5004W        W77264   1.214  14.323  13.505
 5005W        W77265   3.851   9.261  12.626
 5006W        W77266  30.703  15.173  10.761
 5007W        W77267  30.610   1.857   2.686
 5008W        W77268  10.415   0.081   2.307
 5009W        W77269  17.727   6.172   0.273
 5010W        W77270  33.770  36.824   1.313
 5011W        W77271   6.307  38.148  13.614
 5012W        W77272  32.352  29.959   0.102
 5013W        W77273  20.526  31.173   1.476
 5014W        W77274  44.181  26.205  14.489
 5015W        W77275  19.236   8.748   9.713
 5016W        W77276   5.181   3.941   4.068
 5017W        W77277   8.392  12.178  12.440
 5018W        W77278  10.614  38.843  14.206
 5019W        W77279   8.710  37.631   1.839
 5020W        W77280  22.903  35.822  10.768
 5021W        W77281  22.021   0.450  14.063
 5022W        W77282  15.201  35.254  14.698
 5023W        W77283   5.907   6.188   4.503
 5024W        W77284  20.282  20.975  12.498
 5025W        W77285  22.257  11.832   0.537
 5026W        W77286  40.535  24.426   2.126
 5027W        W77287  26.987  15.141   4.099
 5028W        W77288  10.475  39.899  13.495
 5029W        W77289  31.758   5.008   1.915
 5030W        W77290  18.896  19.918   2.382
 5031W        W77291  34.099   0.352  10.930
 5032W        W77292  39.360  28.024   0.553
 5033W        W77293   2.770  12.391   1.910
 5034W        W77294   4.790  11.517   2.432
 5035W        W77295  34.985  20.233   3.153
 5036W        W77296  32.591  35.065  13.530
 5037W        W77297  17.932   9.918  13.798
 5038W        W77298   9.636   9.760  14.755
 5039W        W77299  23.418   9.387   3.121
 5040W        W77300  35.534  29.406   1.798
 5041W        W77301  25.919  11.978  12.010
 5042W        W77302  40.433  14.679   2.282
 5043W        W77303  32.762  20.903  11.963
 5044W        W77304   7.846   7.921   3.234
 5045W        W77305  27.619   9.364  12.175
 5046W        W77306  39.093  14.769   3.196
 5047W        W77307   0.651   3.418   3.424
 5048W        W77308  26.025  38.803  13.114
 5049W        W77309  13.259  37.794   4.096
 5050W        W77310  38.455  14.304   2.607
 5051W        W77311   0.899  36.571   2.408
 5052W        W77312  23.500  28.069   2.332
 5053W        W77313   2.380  34.881  10.326
 5054W        W77314  18.167   6.177   4.174
 5055W        W77315   0.026  32.346   2.800
 5056W        W77316  36.328  22.512  11.238
 5057W        W77317  10.564  15.115  13.207
 5058W        W77318  33.413   3.531   1.625
 5059W        W77319  39.356  39.386  12.209
 5060W        W77320  24.662   2.722   2.699
 5061W        W77321  32.944   9.806   2.656
 5062W        W77322  42.957  24.354   1.917
 5063W        W77323  22.753  43.988  12.932
 5064W        W77324   4.720  16.951   2.794
 5065W        W77325  39.040  39.800   2.674
 5066W        W77326  29.614  26.335   4.358
 5067W        W77327   6.376   7.920   0.532
 5068W        W77328  41.380   4.360   3.075
 5069W        W77329  37.103   4.755  13.815
 5070W        W77330   7.043  25.273  10.335
 5071W        W77331  38.330  36.457   2.841
 5072W        W77332  43.249  31.570  13.018
 5073W        W77333  22.079  11.138  11.123
 5074W        W77334   6.421   4.989   0.724
 5075W        W77335   9.256  22.113  11.551
 5076W        W77336  23.323  38.378   3.991
 5077W        W77337  38.349   4.852   4.879
 5078W        W77338  31.876  41.532  14.677
 5079W        W77339  10.161  44.408   3.406
 5080W        W77340  16.322  10.214  14.279
 5081W        W77341  37.396  12.794   4.595
 5082W        W77342  38.100  35.333  11.056
 5083W        W77343  14.083  14.957   3.896
 5084W        W77344  25.671  19.427  13.969
 5085W        W77345   7.805  20.637  14.695
 5086W        W77346  43.773  23.377   0.385
 5087W        W77347  22.950  28.429   4.209
 5088W        W77348  19.354  15.208  12.582
 5089W        W77349   8.104   7.813   2.801
 5090W        W77350  28.779  12.546  14.685
 5091W        W77351  13.656  19.497   3.210
 5092W        W77352  24.611   2.476  14.016
 5093W        W77353  34.710  44.701   3.311
 5094W        W77354  30.589  39.943   4.511
 5095W        W77355  32.984  22.139  10.692
 5096W        W77356  26.422  15.070   5.033
 5097W        W77357  37.821  30.131  11.462
 5098W        W77358   0.297   1.247   1.694
 5099W        W77359   9.358  25.075   0.451
 5100W        W77360   4.029  12.837   1.789
 5101W        W77361  19.664   6.365   2.329
 5102W        W77362  30.902  13.113   0.827
 5103W        W77363   5.333  35.122  12.170
 5104W        W77364   8.317  36.441   2.442
 5105W        W77365  29.179  39.504  14.696
 5106W        W77366  25.997  43.500   0.823
 5107W        W77367  38.114   6.237   0.709
 5108W        W77368  40.887   3.355  12.133
 5109W        W77369  14.473  26.068   1.103
 5110W        W77370  11.442  34.901   3.088
 5111W        W77371   1.334  32.367   3.337
 5112W        W77372  10.313  38.617   1.847
 5113W        W77373  29.624  12.730   0.298
 5114W        W77374  12.686  23.214  13.052
 5115W        W77375  19.291  41.559   1.863
 5116W        W77376  20.062  19.930  12.526
 5117W        W77377   8.752  32.023  14.013
 5118W        W77378   8.988   2.580  11.115
 5119W        W77379  42.321   0.191   0.565
 5120W        W77380  39.063  25.494   4.270
 5121W        W77381   2.233  31.445   4.852
 5122W        W77382  30.136  15.550  13.638
 5123W        W77383  36.504  37.012   4.440
 5124W        W77384  34.983  41.085   0.495
 5125W        W77385  32.766  21.626  14.225
 5126W        W77386  29.061  22.014  11.750
 5127W        W77387  17.476  29.238   5.066
 5128W        W77388  30.989  18.648  12.472
 5129W        W77389  18.541  27.073  13.445
 5130W        W77390   2.906  15.516   2.992
 5131W        W77391  28.064  18.802   3.587
 5132W        W77392  13.094   7.961  12.044
 5133W        W77393  31.059   8.107   4.721
 5134W        W77394  28.009   6.362   3.608
 5135W        W77395   9.433  30.062   2.782
 5136W        W77396  37.850  12.077   2.366
 5137W        W77397  11.864  26.872   3.691
 5138W        W77398  29.852  18.700  14.691
 5139W        W77399  34.301   8.914   1.275
 5140W        W77400  41.283  13.827  11.471
 5141W        W77401  28.034   1.089   2.732
 5142W        W77402  14.152  21.776  11.881
 5143W        W77403   4.355  20.582  10.729
 5144W        W77404  14.035  14.794   0.876
 5145W        W77405  16.474  17.419   5.083
 5146W        W77406  13.059  28.170  11.892
 5147W        W77407  17.039  27.650   1.295
 5148W        W77408  29.197  35.370  13.368
 5149W        W77409  29.811  15.791  14.640
 5150W        W77410   9.155  26.910  13.979
 5151W        W77411  33.634   7.107  14.971
 5152W        W77412  39.097  18.940  10.609
 5153W        W77413   3.302  43.065  12.194
 5154W        W77414  32.667  24.622   0.457
 5155W        W77415  25.186  36.371   2.337
 5156W        W77416  19.154   8.697   3.283
 5157W        W77417  24.413   5.871   1.112
 5158W        W77418  40.888  32.525  12.628
 5159W        W77419   4.462  14.043  13.915
 5160W        W77420  13.986  43.767  11.108
 5161W        W77421   9.806   8.259   0.408
 5162W        W77422  40.981  30.197   0.836
 5163W        W77423  25.522   6.424  10.731
 5164W        W77424  19.277  42.830   3.553
 5165W        W77425  20.188  18.569  10.601
 5166W        W77426  35.397   6.983   0.720
 5167W        W77427  16.809  17.643   4.262
 5168W        W77428  23.516   7.692   4.031
 5169W        W77429  26.238  37.374   0.721
 5170W        W77430   0.975  11.768   1.769
 5171W        W77431   5.248   0.375   1.433
 5172W        W77432  11.191   4.290   0.388
 5173W        W77433  40.436   4.045  12.117
 5174W        W77434  40.885  33.384   1.749
 5175W        W77435  36.105  21.586   4.454
 5176W        W77436  35.593  36.900   3.914
 5177W        W77437   6.163  34.052   0.183
 5178W        W77438   3.093  16.334  13.479
 5179W        W77439  44.208  30.136  11.989
 5180W        W77440   3.317  35.619  10.720
 5181W        W77441  10.218  23.628  14.431
 5182W        W77442  14.128  38.805  10.574
 5183W        W77443  27.722  43.268   3.572
 5184W        W77444  43.890  33.996  13.837
 5185W        W77445  34.564   7.851  12.950
 5186W        W77446  24.022  10.671   0.008
 5187W        W77447  29.700   0.354  13.510
 5188W        W77448  11.704  42.470   2.283
 5189W        W77449  26.076  12.284  10.982
 5190W        W77450  27.552  36.448   2.916
 5191W        W77451  19.148   2.654   2.211
 5192W        W77452  32.338  17.842  12.923
 5193W        W77453  27.887   7.875  11.004
 5194W        W77454  37.357  37.425  14.867
 5195W        W77455  39.811  12.624   1.881
 5196W        W77456   9.907   9.112   3.671
 5197W        W77457  27.251   2.520   0.023
 5198W        W77458  34.387  33.896  13.829
 5199W        W77459  36.946   7.202   2.636
 5200W        W77460   8.380   7.496  11.393
 5201W        W77461  11.145  27.908   3.281
 5202W        W77462  26.952  30.681   2.180
 5203W        W77463  18.021  36.526   2.314
 5204W        W77464  39.303  14.319   0.859
 5205W        W77465  26.892  38.845  10.661
 5206W        W77466  38.016  21.461   3.238
 5207W        W77467  21.582   8.758   1.952
 5208W        W77468  26.656   1.936  14.794
 5209W        W77469   5.861   5.106  11.864
 5210W        W77470  24.570   1.204  12.892
 5211W        W77471  19.072   4.397  14.874
 5212W        W77472  12.214  18.252  13.409
 5213W        W77473  26.873  31.174   2.178
 5214W        W77474  33.084   1.262  13.698
 5215W        W77475  26.853  23.129  11.176
 5216W        W77476  35.785  40.641  11.134
 5217W        W77477  37.315  22.131   4.060
 5218W        W77478  32.157  23.490   4.080
 5219W        W77479  27.531  32.107  12.056
 5220W        W77480  36.503  36.083  13.972
 5221W        W77481  32.940  29.989   4.601
 5222W        W77482   7.121   7.533   3.719
 5223W        W77483  30.095  21.006   3.064
 5224W        W77484   4.371  28.174   0.006
 5225W        W77485  14.045  40.301  13.928
 5226W        W77486   1.322  22.597   4.893
 5227W        W77487  15.832  35.685   4.656
 5228W        W77488  29.491  18.211   0.822
 5229W        W77489  34.080  32.189  11.346
 5230W        W77490  34.442  28.284  11.647
 5231W        W77491  21.712  11.425   1.345
 5232W        W77492  16.322  15.623  13.482
 5233W        W77493  14.637  20.119  13.992
 5234W        W77494  41.559  41.423  11.099
 5235W        W77495  36.934  16.293   0.041
 5236W        W77496  36.987  15.082   1.494
 5237W        W77497  38.005   7.356   2.692
 5238W        W77498  30.718   2.862  12.582
 5239W        W77499   1.196  27.295  13.778
 5240W        W77500   4.373  30.148  14.289
 5241W        W77501  30.366  34.747  11.137
 5242W        W77502  23.572  44.022   4.206
 5243W        W77503  20.274   4.812   3.132
 5244W        W77504  28.945  21.719   3.341
 5245W        W77505  26.582  43.264   1.699
 5246W        W77506  20.188  38.365   0.433
 5247W        W77507  14.141  21.284  13.085
 5248W        W77508  43.902  23.651  13.280
 5249W        W77509  10.134   0.025  12.600
 5250W        W77510   6.409  12.161   0.261
 5251W        W77511  21.824  19.852  10.379
 5252W        W77512   9.411  38.545   1.430
 5253W        W77513  10.052  14.554  13.585
 5254W        W77514   8.960   0.030   3.255
 5255W        W77515  25.594  28.939  12.041
 5256W        W77516   2.660  38.885  13.792
 5257W        W77517  37.970  30.493   0.420
 5258W        W77518  22.645  19.025   5.107
 5259W        W77519  18.556  36.296   4.075
 5260W        W77520  42.739   8.692   2.153
 5261W        W77521  43.948   6.334  12.038
 5262W        W77522  43.386  25.662   2.835
 5263W        W77523  37.600  35.353  11.106
 5264W        W77524  34.048  19.821  13.191
 5265W        W77525  12.130  40.383  14.552
 5266W        W77526   2.596  28.147   0.757
 5267W        W77527  28.024   3.900   2.904
 5268W        W77528  29.011   8.069  11.117
 5269W        W77529  41.339  10.283   2.637
 5270W        W77530  25.529  27.403   3.886
 5271W        W77531  26.547  29.654   2.027
 5272W        W77532  30.864  16.225   1.186
 5273W        W77533  16.565  29.737   4.090
 5274W        W77534   7.629  30.143  13.448
 5275W        W77535   9.642  30.964   4.580
 5276W        W77536  43.221  28.528  14.125
 5277W        W77537  22.929   8.121  11.441
 5278W        W77538  24.987  44.277   1.167
 5279W        W77539   6.372  35.013  10.811
 5280W        W77540   2.434  24.025   2.251
 5281W        W77541  21.930   4.300  11.854
 5282W        W77542  32.754  34.021   4.792
 5283W        W77543  25.066  24.249  14.824
 5284W        W77544  21.550   4.403  12.798
 5285W        W77545  11.259   4.712  12.419
 5286W        W77546  29.608  31.675   3.211
 5287W        W77547   3.505  42.533  13.595
 5288W        W77548  14.204  41.955  10.633
 5289W        W77549  19.197  41.235   0.278
 5290W        W77550  11.612  23.177  11.919
 5291W        W77551  26.065  16.658  12.785
 5292W        W77552  32.569  17.008   4.573
 5293W        W77553  15.746  18.635   2.733
 5294W        W77554  18.350  26.253   3.605
 5295W        W77555   8.489  32.581  12.887
 5296W        W77556  42.805  31.534   3.146
 5297W        W77557   1.305  38.825  11.480
 5298W        W77558   6.780   1.733  11.692
 5299W        W77559  24.321   0.819  11.573
 5300W        W77560   0.937  35.627   3.866
 5301W        W77561  37.173  16.021  12.013
 5302W        W77562  19.194   0.328  13.473
 5303W        W77563  22.834  10.767   4.173
 5304W        W77564   9.737  11.696   0.445
 5305W        W77565  34.026  23.725   4.360
 5306W        W77566  11.344   4.286   0.891
 5307W        W77567  18.645  28.235  14.373
 5308W        W77568  29.892   9.459  10.638
 5309W        W77569  34.660   6.014  13.857
 5310W        W77570  39.142  16.853  14.517
 5311W        W77571  14.773  36.347  11.523
 5312W        W77572  24.672  11.379   3.593
 5313W        W77573  38.360   6.749  10.344
 5314W        W77574  26.576  38.106  14.964
 5315W        W77575   4.227  24.555   1.941
 5316W        W77576  29.402  28.683   3.662
 5317W        W77577  32.607  15.903  11.368
 5318W        W77578  23.932  26.691  13.035
 5319W        W77579  26.068  34.580  14.659
 5320W        W77580  40.201  42.456   3.657
 5321W        W77581  31.479   0.008  11.126
 5322W        W77582  44.481   5.911  11.993
 5323W        W77583  18.214   6.377   0.229
 5324W        W77584  36.402  38.292   4.517
 5325W        W77585  20.270  12.785  11.514
 5326W        W77586  35.028  29.601   2.832
 5327W        W77587  37.364  15.545   2.430
 5328W        W77588  14.828   8.841  10.990
 5329W        W77589  29.156  42.640  11.907
 5330W        W77590  30.629  41.562   0.325
 5331W        W77591  21.127  25.746   3.625
 5332W        W77592  16.149   1.395  14.439
 5333W        W77593   2.456  22.666   3.495
 5334W        W77594  43.731  15.167   4.053
 5335W        W77595   6.894  23.081   1.257
 5336W        W77596  16.230  23.658  12.973
 5337W        W77597  26.570  36.517   3.961
 5338W        W77598  33.027  38.806   0.259
 5339W        W77599  11.454  11.235  14.174
 5340W        W77600   1.791  28.950   1.206
 5341W        W77601  42.932  11.423  10.989
 5342W        W77602  12.591   0.370  12.180
 5343W        W77603  39.384  33.475  14.917
 5344W        W77604   4.414  18.764   2.675
 5345W        W77605   3.749   6.987   2.751
 5346W        W77606  25.580  13.131   1.619
 5347W        W77607  39.300  27.559   4.576
 5348W        W77608  34.397  32.632  14.893
 5349W        W77609  31.892  28.137   2.774
 5350W        W77610  27.925  25.498   1.462
 5351W        W77611   3.442  26.013   0.445
 5352W        W77612  37.379   3.034   3.278
 5353W        W77613  31.065  33.900   3.616
 5354W        W77614  20.531  27.679   9.839
 5355W        W77615  11.253  12.387   4.505
 5356W        W77616  36.404   2.376  14.725
 5357W        W77617  42.840  17.171  10.705
 5358W        W77618   8.758  32.292   2.440
 5359W        W77619  38.432  15.065  14.469
 5360W        W77620   2.548  28.215   3.335
 5361W        W77621  33.200  43.921   5.003
 5362W        W77622  20.548  27.326   4.031
 5363W        W77623  15.231  21.765  11.877
 5364W        W77624  15.006  23.494   0.218
 5365W        W77625  12.816  12.864  14.067
 5366W        W77626  18.185   0.194  14.886
 5367W        W77627  30.649  35.118  11.496
 5368W        W77628  12.696  23.002   0.994
 5369W        W77629   2.858  28.600   0.716
 5370W        W77630  28.087   1.789   4.029
 5371W        W77631  32.682  11.437  13.538
 5372W        W77632   2.298   4.038  14.885
 5373W        W77633   4.961   2.295   1.921
 5374W        W77634  30.548  25.039   3.373
 5375W        W77635  16.201  38.766   2.357
 5376W        W77636  18.648  29.042  11.945
 5377W        W77637  25.538  44.869   4.573
 5378W        W77638  13.556  20.724  11.052
 5379W        W77639  36.351  25.455  14.014
 5380W        W77640   5.250   8.311   1.671
 5381W        W77641  22.395  39.937   0.011
 5382W        W77642   4.469   6.973   3.170
 5383W        W77643  10.409  40.038   1.791
 5384W        W77644  31.446  24.194  14.564
 5385W        W77645  41.848  10.283  14.485
 5386W        W77646  31.460  18.144   2.337
 5387W        W77647  30.478   5.797  11.983
 5388W        W77648  24.451  36.600  12.892
 5389W        W77649  24.624  40.548   0.665
 5390W        W77650  29.605   8.866  14.739
 5391W        W77651  35.740  24.468  12.645
 5392W        W77652  35.880  27.172   4.217
 5393W        W77653  22.195  19.178   0.041
 5394W        W77654   9.873  24.885   4.203
 5395W        W77655  33.023  30.209   3.109
 5396W        W77656  15.376   0.271  12.404
 5397W        W77657  19.599  41.753   0.794
 5398W        W77658   1.288  38.311  11.636
 5399W        W77659  35.074  18.255  14.422
 5400W        W77660  36.020  43.566  11.665
 5401W        W77661  38.487  36.645  13.433
 5402W        W77662  23.312   9.781   4.257
 5403W        W77663  29.946   8.895   0.463
 5404W        W77664  16.090  29.055   3.363
 5405W        W77665   6.485   3.361   3.869
 5406W        W77666  14.013  28.138   0.946
 5407W        W77667  44.816  29.613  14.237
 5408W        W77668   4.718  14.110   2.160
 5409W        W77669  42.772  19.497   3.190
 5410W        W77670  38.930  17.023   3.273
 5411W        W77671  22.508  44.231  10.557
 5412W        W77672  17.802   7.463  11.613
 5413W        W77673  18.138  35.981   4.123
 5414W        W77674  13.016   5.248  11.556
 5415W        W77675  43.892  27.048  13.622
 5416W        W77676  42.463  26.532   0.356
 5417W        W77677   8.621  11.174  11.236
 5418W        W77678   9.269  42.417   4.536
 5419W        W77679   0.017   6.039   2.630
 5420W        W77680  23.311   9.369   1.854
 5421W        W77681  43.409  36.203  13.038
 5422W        W77682   3.887  27.090   3.676
 5423W        W77683   4.398  42.182   4.976
 5424W        W77684  35.019   3.752  11.969
 5425W        W77685  41.838  16.491   3.718
 5426W        W77686   0.566   3.930  12.989
 5427W        W77687  25.779  34.157   0.104
 5428W        W77688   7.856  28.786   4.967
 5429W        W77689  14.308  13.712   4.141
 5430W        W77690  13.897  19.576  10.482
 5431W        W77691  38.366   9.866   4.547
 5432W        W77692  29.764  11.694   2.917
 5433W        W77693   3.380   2.280  11.595
 5434W        W77694  12.187  15.011   4.101
 5435W        W77695  43.123   0.900   1.326
 5436W        W77696  37.918  14.745   3.664
 5437W        W77697  43.855   6.050  13.834
 5438W        W77698  29.694  15.303   3.854
 5439W        W77699  15.239   4.410   3.268
 5440W        W77700  25.353  15.676  10.596
 5441W        W77701  26.528   6.704   1.404
 5442W        W77702   4.685  14.569   3.398
 5443W        W77703  30.221  35.494  14.517
 5444W        W77704  31.412   3.282  12.436
 5445W        W77705  43.901  10.441   1.756
 5446W        W77706   3.907  25.500   3.332
 5447W        W77707  10.215  22.068   4.813
 5448W        W77708   2.035   6.667   3.670
 5449W        W77709  25.399  13.243  11.571
 5450W        W77710  21.281  34.607   3.647
 5451W        W77711  17.225  20.064   4.101
 5452W        W77712   2.170  44.983   2.231
 5453W        W77713   3.638  37.930  11.627
 5454W        W77714  12.244   1.362   1.225
 5455W        W77715  29.083  27.061  11.539
 5456W        W77716  14.807   7.847  11.796
 5457W        W77717  11.897  16.033   4.111
 5458W        W77718  29.415  17.538   4.161
 5459W        W77719  26.186  42.135   1.416
 5460W        W77720  11.716   0.219  10.525
 5461W        W77721  39.128  35.338   1.035
 5462W        W77722  12.097   8.443  11.099
 5463W        W77723   5.945  27.147   2.503
 5464W        W77724  17.610  35.315   1.163
 5465W        W77725   8.231  16.751  12.382
 5466W        W77726  28.228  32.435  12.270
 5467W        W77727  29.737   8.487  12.031
 5468W        W77728  44.414  21.341  14.377
 5469W        W77729  11.554  38.928  14.274
 5470W        W77730   2.847   2.239  11.761
 5471W        W77731  28.526  44.234   3.486
 5472W        W77732  11.857   6.691  11.104
 5473W        W77733   8.739  35.873  10.819
 5474W        W77734  13.283  23.042   4.575
 5475W        W77735  36.628  34.413  10.910
 5476W        W77736  14.065   7.767   0.959
 5477W        W77737  23.540   4.277   2.828
 5478W        W77738  21.484  11.769  13.825
 5479W        W77739  29.700  33.352  10.722
 5480W        W77740  30.377  16.392  11.479
 5481W        W77741  17.020  38.203   0.380
 5482W        W77742   1.286   1.712   4.270
 5483W        W77743  41.403  12.778   2.886
 5484W        W77744  33.394  34.683   0.752
 5485W        W77745   0.136  11.818   2.877
 5486W        W77746  23.318   7.216  11.418
 5487W        W77747  19.720  30.050   1.973
 5488W        W77748  11.251  21.804   1.832
 5489W        W77749  21.429  37.259   0.112
 5490W        W77750   5.290  21.441  13.824
 5491W        W77751  16.515  10.391   1.351
 5492W        W77752   7.102   7.873  11.170
 5493W        W77753  17.554  16.820  11.652
 5494W        W77754  10.665  13.973   1.819
 5495W        W77755   2.267  23.507   3.287
 5496W        W77756  33.515  22.290   0.882
 5497W        W77757  34.784  35.508  10.666
 5498W        W77758   1.601  19.344   3.264
 5499W        W77759  34.799  30.616  11.263
 5500W        W77760  44.743   6.685   3.095
 5501W        W77761  27.092  38.840   1.899
 5502W        W77762   2.518  33.012  12.024
 5503W        W77763  24.410   8.282   4.599
 5504W        W77764  32.340  40.491  14.731
 5505W        W77765  43.871  10.202  11.363
 5506W        W77766  23.122  23.606   1.421
 5507W        W77767  37.059  18.072   4.183
 5508W        W77768   7.642  26.370   1.853
 5509W        W77769   1.278  16.297  12.490
 5510W        W77770  23.303  25.738  13.344
 5511W        W77771  11.349  39.995   3.271
 5512W        W77772  29.401  10.219   1.871
 5513W        W77773  24.656   4.653  12.072
 5514W        W77774  17.334  39.293   3.263
 5515W        W77775  39.350   6.675   1.895
 5516W        W77776   3.404  32.536  12.266
 5517W        W77777  42.420  34.535  11.452
 5518W        W77778   0.291  26.782   2.428
 5519W        W77779   8.708   6.500   4.464
 5520W        W77780  19.714  29.566   4.577
 5521W        W77781  38.976  22.298   1.957
 5522W        W77782  26.982  11.091   2.745
 5523W        W77783   8.205  32.177  11.543
 5524W        W77784  19.094   1.557   4.581
 5525W        W77785  32.940  13.638  14.493
 5526W        W77786  34.901  28.509   3.888
 5527W        W77787  43.899   3.213  11.433
 5528W        W77788  31.167  19.255   2.569
 5529W        W77789  10.371  10.425   1.851
 5530W        W77790  33.843  18.949   0.525
 5531W        W77791  23.150  15.652  12.133
 5532W        W77792  28.735  25.717  14.915
 5533W        W77793   6.405  23.560   3.583
 5534W        W77794  33.479  43.539  14.344
 5535W        W77795  26.768  11.708  12.600
 5536W        W77796  29.286   6.237  10.729
 5537W        W77797  41.838  28.208   5.364
 5538W        W77798  20.587  28.690   1.378
 5539W        W77799  29.229   5.350  12.073
 5540W        W77800  44.476  29.385  13.516
 5541W        W77801   7.211  31.995  11.398
 5542W        W77802  19.567   3.829  10.758
 5543W        W77803  38.608   7.229   3.587
 5544W        W77804  39.717  34.472   1.799
 5545W        W77805   1.228  28.997   4.170
 5546W        W77806  32.944  13.235   4.507
 5547W        W77807   3.438  10.605  14.914
 5548W        W77808   9.114   1.153   0.920
 5549W        W77809  36.036  13.914   0.441
 5550W        W77810  18.836  16.098  13.940
 5551W        W77811  17.843   6.289   3.797
 5552W        W77812  23.753  28.554   5.456
 5553W        W77813  35.480  39.089  11.454
 5554W        W77814   9.882  38.525   3.242
 5555W        W77815  16.336  30.619  13.326
 5556W        W77816  10.873  37.074  10.532
 5557W        W77817   5.441   9.634   0.884
 5558W        W77818  36.692   6.460   4.270
 5559W        W77819  10.783  20.189  13.877
 5560W        W77820  28.737  14.296   2.432
 5561W        W77821  18.527   3.882   0.811
 5562W        W77822  40.195   4.365   3.876
 5563W        W77823  41.100  36.667  10.467
 5564W        W77824  24.321  12.294  13.977
 5565W        W77825   1.439   4.337  14.486
 5566W        W77826  38.487   5.408  13.028
 5567W        W77827  34.112  16.346  14.775
 5568W        W77828  38.033   5.802   0.990
 5569W        W77829   1.357  13.344   1.743
 5570W        W77830  32.552  39.896  13.006
 5571W        W77831   6.901  42.039   2.207
 5572W        W77832  14.317   0.355   3.384
 5573W        W77833   3.832  15.749  12.188
 5574W        W77834  28.243   2.668   1.795
 5575W        W77835  34.940   6.083  14.310
 5576W        W77836  34.978  25.765   4.612
 5577W        W77837   8.705   7.189  11.143
 5578W        W77838  38.129  34.065  14.059
 5579W        W77839  41.842   3.688   1.247
 5580W        W77840   5.220  23.094   0.705
 5581W        W77841   7.409   8.140  12.506
 5582W        W77842  40.292   6.089  11.551
 5583W        W77843   2.716  16.432  10.578
 5584W        W77844  19.480  19.691   1.385
 5585W        W77845  34.497  43.687  14.093
 5586W        W77846  12.371  28.750  10.958
 5587W        W77847  31.288  16.062  12.474
 5588W        W77848   6.987   3.762   2.193
 5589W        W77849  37.437  19.259  11.025
 5590W        W77850  10.358  13.607   4.915
 5591W        W77851  36.060  16.396   3.244
 5592W        W77852  40.035   1.488   1.620
 5593W        W77853  30.970   8.239  12.327
 5594W        W77854  43.771  44.310  11.264
 5595W        W77855  27.506  25.429   4.808
 5596W        W77856  21.962  35.917  11.908
 5597W        W77857  29.689   7.123   1.750
 5598W        W77858   9.178  15.741   3.969
 5599W        W77859  37.377   7.657   4.435
 5600W        W77860  43.954   8.799  13.852
 5601W        W77861  31.063  28.469  14.788
 5602W        W77862  16.040   8.827  11.490
 5603W        W77863  18.281  23.163   4.163
 5604W        W77864  20.596  24.001   1.523
 5605W        W77865  33.488   2.304   3.246
 5606W        W77866   1.939  34.121  12.922
 5607W        W77867   0.056  13.779   1.412
 5608W        W77868  38.576  15.482  12.361
 5609W        W77869   2.486  23.181   0.824
 5610W        W77870   1.517  12.747  12.998
 5611W        W77871   2.454  26.027   2.335
 5612W        W77872  36.994  31.234   2.605
 5613W        W77873   9.674   2.977   2.817
 5614W        W77874   2.205  43.955   3.178
 5615W        W77875  10.135  11.342   1.575
 5616W        W77876  32.857  17.662   3.273
 5617W        W77877   9.103   6.777   4.222
 5618W        W77878  37.968   6.953  12.331
 5619W        W77879  12.860  32.410   4.577
 5620W        W77880  21.115  25.179   2.782
 5621W        W77881   9.354  18.545   1.225
 5622W        W77882  13.776   7.877   0.525
 5623W        W77883  24.155  12.067  10.254
 5624W        W77884  12.301  14.161  11.521
 5625W        W77885  27.954   6.040  10.012
 5626W        W77886  40.574  28.169  13.587
 5627W        W77887  26.151  44.121   4.914
 5628W        W77888  38.117  20.946  11.069
 5629W        W77889  38.591  21.107  13.172
 5630W        W77890  34.104  30.964   2.409
 5631W        W77891  27.983  29.945  14.257
 5632W        W77892  29.025  40.371  12.408
 5633W        W77893  40.788  34.573   3.000
 5634W        W77894  28.433  31.997  10.665
 5635W        W77895  36.926  12.767   4.847
 5636W        W77896  42.034  26.415   1.900
 5637W        W77897  42.904   5.978  13.501
 5638W        W77898  14.541  19.619  14.355
 5639W        W77899  42.515  28.582  14.787
 5640W        W77900  42.004  34.181   0.049
 5641W        W77901  18.097  44.219  13.403
 5642W        W77902  11.106  44.885   4.204
 5643W        W77903   7.284  44.617  13.249
 5644W        W77904  37.002  40.996   1.066
 5645W        W77905   3.291  29.146   1.370
 5646W        W77906  19.622  26.168   2.800
 5647W        W77907  21.109  22.176  13.507
 5648W        W77908  16.777  15.942   4.964
 5649W        W77909  13.278  22.971  12.536
 5650W        W77910  32.592  40.397  13.394
 5651W        W77911   6.497  43.806   4.620
 5652W        W77912   9.221  24.510   2.775
 5653W        W77913  23.538   9.129   3.978
 5654W        W77914  38.500  37.674   4.939
 5655W        W77915  44.485  40.794  14.839
 5656W        W77916  26.638   4.788  13.058
 5657W        W77917  13.656  20.035  10.559
 5658W        W77918  13.506  37.356  12.983
 5659W        W77919  24.401   0.254   2.079
 5660W        W77920  15.555  14.283  14.869
 5661W        W77921  31.033  12.250  10.696
 5662W        W77922  28.626  29.437   2.615
 5663W        W77923  23.506  29.598   4.097
 5664W        W77924   5.238  21.103   2.748
 5665W        W77925  40.849  40.298   1.342
 5666W        W77926  32.985  36.945  12.473
 5667W        W77927  26.203  44.299   3.803
 5668W        W77928   8.936  31.392   5.158
 5669W        W77929  25.421  43.951   1.230
 5670W        W77930  20.969  34.478  11.482
 5671W        W77931  40.006  39.475  12.393
 5672W        W77932   5.399  29.477   3.776
 5673W        W77933   1.905  25.551   1.906
 5674W        W77934  28.243   4.257   4.638
 5675W        W77935  20.076   7.716   0.913
 5676W        W77936  37.086  34.489   3.215
 5677W        W77937  14.128  34.819   0.905
 5678W        W77938  10.780  17.947   2.452
 5679W        W77939   6.899  19.023   1.822
 5680W        W77940  36.355  23.247   3.698
 5681W        W77941  28.131   5.325  14.494
 5682W        W77942  37.466  37.300   0.845
 5683W        W77943   3.275  36.949  10.487
 5684W        W77944  24.306  19.503  13.504
 5685W        W77945  27.032  10.268   3.775
 5686W        W77946  26.195  39.726  13.026
 5687W        W77947  40.589   4.204  14.912
 5688W        W77948  16.831  15.556   1.627
 5689W        W77949   4.357  23.444  10.756
 5690W        W77950  21.701  17.298   3.240
 5691W        W77951   6.022  18.640  14.807
 5692W        W77952  16.545  33.061  11.037
 5693W        W77953  25.589   2.149   1.040
 5694W        W77954   4.006  43.093   4.225
 5695W        W77955  44.418  34.874   3.707
 5696W        W77956  32.814   0.760  12.320
 5697W        W77957  18.108   1.280   3.596
 5698W        W77958  34.886   0.811   1.911
 5699W        W77959  33.589  12.829   1.319
 5700W        W77960  41.432  14.809   4.809
 5701W        W77961  20.325  24.187  10.964
 5702W        W77962  25.064  24.115   0.317
 5703W        W77963  44.784   2.301  11.247
 5704W        W77964  41.400   7.488   4.589
 5705W        W77965  23.493  35.446  14.740
 5706W        W77966   4.249  10.224   0.256
 5707W        W77967  30.988   6.994  12.572
 5708W        W77968  43.739  39.373   1.696
 5709W        W77969   7.298  23.270   4.717
 5710W        W77970   6.385   9.112   3.782
 5711W        W77971  27.361  11.308   4.171
 5712W        W77972  41.095  35.559   0.158
 5713W        W77973   4.258  20.517   4.150
 5714W        W77974  23.642  39.034   0.243
 5715W        W77975   1.228  34.454   2.141
 5716W        W77976  42.665  43.038   2.742
 5717W        W77977  15.245  19.263  14.048
 5718W        W77978   5.850   4.913   4.357
 5719W        W77979  37.576  20.502  10.624
 5720W        W77980  23.867   7.343   4.203
 5721W        W77981  26.213  39.343   2.865
 5722W        W77982  42.077  24.735   2.222
 5723W        W77983  29.681  19.682  10.711
 5724W        W77984   7.804  23.602   3.027
 5725W        W77985  14.715   9.322  10.838
 5726W        W77986  12.550  22.247  12.376
 5727W        W77987  29.822   2.026  13.378
 5728W        W77988   4.781  31.593   0.758
 5729W        W77989   4.342  36.835  10.353
 5730W        W77990  30.775  29.514   4.227
 5731W        W77991  14.814  23.586  12.030
 5732W        W77992  28.197  22.620   2.003
 5733W        W77993  11.783  15.353   0.290
 5734W        W77994  11.126   5.817  12.131
 5735W        W77995   4.819  33.478   4.735
 5736W        W77996  37.580  13.115  13.873
 5737W        W77997   4.829  14.170  12.393
 5738W        W77998  42.911  30.071   0.557
 5739W        W77999  20.491   9.180  13.000
 5740W        W78000  22.980  13.145   4.374
 5741W        W78001   5.942   4.002  11.573
 5742W        W78002   5.353  43.095   3.825
 5743W        W78003  16.747  14.150  11.906
 5744W        W78004  29.635  39.119  11.721
 5745W        W78005  42.907   7.649   2.993
 5746W        W78006  26.978  23.684   3.908
 5747W        W78007  30.431  12.266  12.117
 5748W        W78008  30.672  29.041   0.415
 5749W        W78009   2.907  36.156   1.842
 5750W        W78010  26.952  32.892   3.234
 5751W        W78011  24.649  15.810   3.323
 5752W        W78012  42.890  40.887   0.346
 5753W        W78013  14.759  28.897  10.626
 5754W        W78014  14.690  13.181  14.398
 5755W        W78015  26.687  30.428  11.148
 5756W        W78016  10.330  34.435   4.733
 5757W        W78017  28.979  38.958  13.432
 5758W        W78018  33.681  10.860  12.866
 5759W        W78019   7.824  41.796   2.240
 5760W        W78020   0.781  38.624   0.453
 5761W        W78021  10.223  29.031   3.713
 5762W        W78022  28.040  27.430  14.371
 5763W        W78023   9.328  17.835   2.906
 5764W        W78024  35.372   4.210   2.437
 5765W        W78025  14.092   5.941  10.321
 5766W        W78026  32.543  33.661   0.315
 5767W        W78027  43.567   5.956  12.036
 5768W        W78028  36.631   4.245   1.156
 5769W        W78029   8.933   2.358  12.953
 5770W        W78030   4.355  27.548  11.884
 5771W        W78031  12.400  10.272  13.007
 5772W        W78032  33.510  19.045   5.591
 5773W        W78033  18.140  43.864  11.255
 5774W        W78034  22.315  16.242   1.868
 5775W        W78035  18.399  36.021  13.393
 5776W        W78036  17.728   0.377   0.789
 5777W        W78037  22.767  10.716   3.100
 5778W        W78038  33.151  29.764  11.493
 5779W        W78039  35.023  40.958  10.925
 5780W        W78040  11.195  20.617  11.499
 5781W        W78041   3.652  25.122  14.937
 5782W        W78042  29.460  24.368  10.635
 5783W        W78043  35.004  13.131   0.475
 5784W        W78044   3.622  16.291  10.673
 5785W        W78045  19.543  30.004  12.545
 5786W        W78046  12.365  15.194   1.990
 5787W        W78047  25.636  34.501   3.571
 5788W        W78048  13.873  27.666   0.774
 5789W        W78049  12.297   0.778  10.810
 5790W        W78050  13.797  26.979  13.015
 5791W        W78051  11.854  25.390  13.841
 5792W        W78052  25.280  10.128  12.517
 5793W        W78053  44.967  40.784  13.550
 5794W        W78054  37.088  22.996   1.565
 5795W        W78055  14.535  43.772  12.083
 5796W        W78056  27.957  39.849  13.301
 5797W        W78057  36.853  14.490  10.687
 5798W        W78058   6.825  27.693   2.799
 5799W        W78059   0.522  10.755   0.388
 5800W        W78060  36.197  29.225  12.407
 5801W        W78061   3.307  43.086   2.894
 5802W        W78062   9.585  35.053  14.406
 5803W        W78063   8.477  43.945  11.463
 5804W        W78064  33.667  42.487  12.522
 5805W        W78065  16.229   1.806  14.123
 5806W        W78066  32.221  42.797  13.403
 5807W        W78067  34.518   3.437   4.652
 5808W        W78068  40.725  40.324   1.853
 5809W        W78069  19.652  20.124  11.247
 5810W        W78070  40.689   7.158   3.853
 5811W        W78071  16.641  37.450   4.122
 5812W        W78072  20.658  19.691   0.366
 5813W        W78073  20.274   2.033  14.937
 5814W        W78074  37.106   9.891  10.641
 5815W        W78075  30.899  37.771  11.821
 5816W        W78076  31.399  29.105   3.716
 5817W        W78077  14.925  36.519  12.524
 5818W        W78078   7.571  32.339   1.697
 5819W        W78079  31.571  42.485   4.178
 5820W        W78080  36.865   1.929   4.665
 5821W        W78081  37.473   4.168  14.187
 5822W        W78082  11.824  13.823   3.189
 5823W        W78083  36.657  16.201   2.055
 5824W        W78084  33.948  25.434  12.912
 5825W        W78085  39.424  21.995  12.898
 5826W        W78086  14.860   8.661  12.409
 5827W        W78087  39.309  37.115  11.030
 5828W        W78088  17.397  10.121   2.161
 5829W        W78089  35.507  24.723   2.844
 5830W        W78090  38.001  41.503  14.010
 5831W        W78091  37.122  34.106  12.081
 5832W        W78092  10.832   5.393  11.951
 5833W        W78093  44.783  32.826   1.679
 5834W        W78094  14.709  33.928  14.483
 5835W        W78095  13.280  28.666   0.494
 5836W        W78096  43.954  19.973   4.471
 5837W        W78097  19.831  11.728  13.360
 5838W        W78098  29.686  33.990  14.034
 5839W        W78099  35.031   3.321   1.979
 5840W        W78100   5.435  37.390  14.768
 5841W        W78101  17.176   1.876  10.127
 5842W        W78102  32.313  26.646  11.213
 5843W        W78103  41.825  21.078   2.405
 5844W        W78104  44.102  24.072  13.067
 5845W        W78105  13.098  24.166  13.008
 5846W        W78106  26.939  12.819   0.020
 5847W        W78107  18.113  31.195   4.082
 5848W        W78108  27.676  23.598  12.530
 5849W        W78109  28.652  13.173   4.639
 5850W        W78110  22.644  24.691   3.116
 5851W        W78111  12.838   5.290   4.034
 5852W        W78112  35.638  37.037   0.455
 5853W        W78113  11.717  13.765   1.033
 5854W        W78114  38.361  41.491  10.917
 5855W        W78115   4.533  22.199   0.911
 5856W        W78116  12.626  10.332   1.594
 5857W        W78117  40.880  37.427   1.839
 5858W        W78118   0.457   3.406  14.242
 5859W        W78119  16.292   4.907  14.494
 5860W        W78120   6.796  27.600  10.975
 5861W        W78121  12.193  43.872  13.345
 5862W        W78122  16.254  23.949  13.829
 5863W        W78123  10.863  21.806   3.234
 5864W        W78124   7.150  15.543  13.799
 5865W        W78125   7.793  32.862  14.462
 5866W        W78126  44.947  38.113   3.161
 5867W        W78127  34.500  30.117   2.659
 5868W        W78128   8.917   7.825  12.819
 5869W        W78129  21.185  25.039   4.110
 5870W        W78130  42.352  43.712   4.118
 5871W        W78131  44.440  15.044   5.111
 5872W        W78132   8.746  23.428   2.344
 5873W        W78133  37.012   9.954   4.648
 5874W        W78134  24.746  12.560  14.103
 5875W        W78135   6.960  23.634   1.814
 5876W        W78136  42.404  26.912   1.476
 5877W        W78137  14.772  36.398   1.653
 5878W        W78138  29.277  35.766   1.210
 5879W        W78139  30.663  13.368   2.626
 5880W        W78140  42.040  31.172  13.506
 5881W        W78141  24.419  26.608   0.895
 5882W        W78142   2.714  44.923  10.635
 5883W        W78143  11.148   7.665  11.579
 5884W        W78144  29.620   0.817  14.433
 5885W        W78145  36.515  28.572   3.856
 5886W        W78146  23.064  10.606  12.149
 5887W        W78147  28.030  19.863  12.070
 5888W        W78148  36.059  27.548  11.138
 5889W        W78149  20.636  15.714  13.275
 5890W        W78150  16.705  10.699  12.191
 5891W        W78151  36.316  17.650  14.185
 5892W        W78152   9.948  15.060   0.328
 5893W        W78153  34.944  41.081  13.362
 5894W        W78154  44.290  38.076  12.503
 5895W        W78155  21.303   3.357  14.355
 5896W        W78156  21.761  29.140  13.704
 5897W        W78157  10.839  36.529  13.965
 5898W        W78158  38.417  22.019  11.654
 5899W        W78159  31.113  40.604   1.651
 5900W        W78160   2.823   4.220  10.656
 5901W        W78161  33.955   2.698   4.880
 5902W        W78162   3.152  19.830  11.191
 5903W        W78163  33.183  30.595  11.260
 5904W        W78164  30.041  23.758  11.049
 5905W        W78165   9.837  38.517  13.156
 5906W        W78166  29.364   4.850  12.140
 5907W        W78167  42.260   9.363  14.416
 5908W        W78168  22.284   2.126  13.112
 5909W        W78169  36.948  18.098  11.813
 5910W        W78170  17.298  19.827   3.565
 5911W        W78171  11.737  27.545   3.975
 5912W        W78172   3.680  31.077  12.090
 5913W        W78173  21.615  12.920  11.148
 5914W        W78174  25.037   1.118   0.075
 5915W        W78175  25.982  26.523  10.614
 5916W        W78176  38.425   7.361   9.731
 5917W        W78177  28.247  32.098   3.701
 5918W        W78178   4.914  12.633  12.865
 5919W        W78179  40.447  11.879   5.033
 5920W        W78180  26.704  39.318  10.611
 5921W        W78181  40.899  37.937   3.348
 5922W        W78182  41.877   1.401   0.209
 5923W        W78183   0.919  25.919  12.377
 5924W        W78184  41.502  19.161   3.138
 5925W        W78185  22.573  33.706  10.465
 5926W        W78186  42.778  28.407   1.381
 5927W        W78187  32.837   2.348   3.762
 5928W        W78188  26.536  43.876  14.407
 5929W        W78189  25.522   7.496  13.922
 5930W        W78190  43.545  18.886   1.944
 5931W        W78191  37.909   4.372   0.002
 5932W        W78192  41.939  25.333   3.766
 5933W        W78193   6.316  25.403  14.878
 5934W        W78194  31.144  12.807  12.142
 5935W        W78195  16.888  18.715  10.670
 5936W        W78196   7.182  40.806   4.012
 5937W        W78197  37.093  13.203   4.583
 5938W        W78198  43.868  32.992  10.400
 5939W        W78199  21.429  31.896  12.525
 5940W        W78200  17.082   8.530   0.452
 5941W        W78201  37.385  40.465  12.391
 5942W        W78202  41.906  14.861   0.245
 5943W        W78203  10.941  25.456   2.714
 5944W        W78204  33.806  24.206   4.080
 5945W        W78205  20.231   0.720   2.194
 5946W        W78206   5.826  26.482   9.969
 5947W        W78207  37.927  26.208   2.165
 5948W        W78208  19.764  27.051   1.732
 5949W        W78209   6.327  33.543   0.249
 5950W        W78210  27.224  24.358  12.451
 5951W        W78211  29.165   6.830   4.115
 5952W        W78212  11.323   0.377  14.427
 5953W        W78213  43.296  36.458  14.336
 5954W        W78214  35.350  11.242  14.387
 5955W        W78215   4.493  35.629  11.919
 5956W        W78216  36.543  28.905  11.073
 5957W        W78217   7.877   4.858   1.139
 5958W        W78218  13.410  16.781  13.846
 5959W        W78219  29.554  25.278  11.533
 5960W        W78220  27.402  24.473   2.793
 5961W        W78221  44.025  40.059  12.190
 5962W        W78222  43.703  22.903  14.001
 5963W        W78223  19.511  15.279  11.908
 5964W        W78224  23.639  32.212  12.375
 5965W        W78225  35.931   5.462  13.288
 5966W        W78226  38.377  38.550  14.584
 5967W        W78227  33.998  25.256  14.956
 5968W        W78228  17.732  43.170  11.084
 5969W        W78229  29.955  41.811   2.789
 5970W        W78230  27.456  28.155   0.564
 5971W        W78231   7.809  29.481   1.513
 5972W        W78232  36.961  29.931  12.561
 5973W        W78233  32.863   0.078  11.174
 5974W        W78234  16.116  11.199   1.347
 5975W        W78235   8.902  35.646   3.793
 5976W        W78236   3.346  20.944  10.626
 5977W        W78237  33.932  39.250   4.618
 5978W        W78238  37.149   6.323   4.065
 5979W        W78239  17.023  35.617   4.016
 5980W        W78240  23.301  33.117   1.653
 5981W        W78241  20.422  43.780   1.811
 5982W        W78242  36.015   7.152  13.118
 5983W        W78243  41.076  29.047  14.972
 5984W        W78244   1.327   0.243  12.908
 5985W        W78245   0.700  39.931  11.687
 5986W        W78246  23.045  27.606  12.628
 5987W        W78247  40.797  34.085   3.331
 5988W        W78248   0.696  12.220   1.859
 5989W        W78249  40.784  25.372   3.325
 5990W        W78250  37.430  21.941   2.208
 5991W        W78251  23.870  44.027  12.074
 5992W        W78252  16.287   7.882   3.369
 5993W        W78253  42.347  21.055  13.918
 5994W        W78254  38.354   2.462  11.262
 5995W        W78255   8.526  23.311   4.330
 5996W        W78256  24.670  11.966   2.459
 5997W        W78257   2.961  34.415  11.777
 5998W        W78258  27.182  18.048   0.411
 5999W        W78259  33.474  38.911   0.006
 6000W        W78260  24.822   4.590  10.300
 6001W        W78261  42.864  33.514   3.183
 6002W        W78262  39.564  35.606   1.260
 6003W        W78263  19.641  26.683   3.660
 6004W        W78264  25.483  11.097   1.717
 6005W        W78265   0.316  22.082  12.825
 6006W        W78266  27.143   8.251   3.831
 6007W        W78267  36.572  10.415  13.323
 6008W        W78268  12.215  31.921  10.168
 6009W        W78269   1.951  36.776   0.320
 6010W        W78270  20.254  18.134   0.440
 6011W        W78271  10.653   7.578  11.747
 6012W        W78272   8.442  17.872   2.847
 6013W        W78273  16.625  12.849   2.337
 6014W        W78274  13.136  40.345   2.736
 6015W        W78275  34.113   9.674   1.757
 6016W        W78276   4.410   4.198   3.675
 6017W        W78277  41.309  24.101  13.317
 6018W        W78278  44.445   2.015   3.333
 6019W        W78279  10.573   5.776  12.190
 6020W        W78280  40.120  35.105  14.239
 6021W        W78281   6.140  37.361   1.685
 6022W        W78282  39.289  19.989  14.549
 6023W        W78283  15.262  11.448   2.212
 6024W        W78284   5.357  39.863  13.612
 6025W        W78285  28.672  33.084   4.538
 6026W        W78286  27.910  40.871  10.223
 6027W        W78287  26.441  31.420  11.903
 6028W        W78288  24.748  43.865  11.854
 6029W        W78289   8.872  13.340  10.814
 6030W        W78290  16.767   2.242  12.508
 6031W        W78291   5.182  26.598  12.979
 6032W        W78292  10.742  20.055  12.422
 6033W        W78293  22.721  38.547   4.155
 6034W        W78294  44.507  38.349  11.026
 6035W        W78295  39.085  26.042   0.325
 6036W        W78296   3.289  29.588  10.647
 6037W        W78297   0.996  20.807   1.791
 6038W        W78298   0.620   9.336   1.785
 6039W        W78299  21.185  28.760  11.102
 6040W        W78300  31.567   5.847  14.710
 6041W        W78301  17.034   4.176  14.878
 6042W        W78302  22.536  10.628   4.648
 6043W        W78303  41.361  42.079   4.114
 6044W        W78304  17.725  19.176   2.242
 6045W        W78305  24.450  39.387  10.507
 6046W        W78306  10.774  38.318   1.876
 6047W        W78307  18.536  17.756   0.344
 6048W        W78308   5.295  20.777  11.606
 6049W        W78309  39.506  10.909   3.685
 6050W        W78310   2.948  40.950   1.713
 6051W        W78311  30.744  18.598   0.461
 6052W        W78312  34.545  38.491  10.795
 6053W        W78313  42.347  43.327  14.058
 6054W        W78314  10.280   6.379   3.159
 6055W        W78315  35.077  14.613  10.423
 6056W        W78316  27.400   0.231  13.055
 6057W        W78317  44.963   4.506  11.117
 6058W        W78318  28.118  25.129  13.802
 6059W        W78319  10.915   4.199  11.607
 6060W        W78320   9.168  22.499  11.903
 6061W        W78321  37.867  20.155  11.204
 6062W        W78322  28.725  19.275  13.027
 6063W        W78323  10.118   3.195  14.698
 6064W        W78324  18.603   6.855   2.441
 6065W        W78325   7.681  14.322  11.499
 6066W        W78326  19.776   9.362   4.234
 6067W        W78327  38.582  42.049   3.189
 6068W        W78328  30.188  10.600  12.405
 6069W        W78329  33.985  20.219   2.331
 6070W        W78330   2.916  41.269   0.436
 6071W        W78331  40.473   4.315   2.928
 6072W        W78332  15.187  18.627  14.823
 6073W        W78333   2.775   0.330   0.621
 6074W        W78334  18.390  12.789   4.074
 6075W        W78335  27.087  33.340  10.242
 6076W        W78336  36.611   4.406  14.562
 6077W        W78337  30.685  25.976  11.681
 6078W        W78338  28.244   9.245   2.688
 6079W        W78339  27.163  42.721   0.313
 6080W        W78340  18.026  15.867   2.668
 6081W        W78341  39.327  29.958  10.639
 6082W        W78342  28.806   4.250  13.296
 6083W        W78343   9.955  29.049   4.143
 6084W        W78344  33.507  33.268  10.971
 6085W        W78345  33.713   3.884  14.452
 6086W        W78346  26.600   3.968  13.485
 6087W        W78347   6.974  32.052   3.047
 6088W        W78348  35.372  27.729  11.732
 6089W        W78349  33.536   3.509  12.411
 6090W        W78350  10.241   7.985  11.636
 6091W        W78351  11.210  11.885  12.444
 6092W        W78352  37.626  16.092  11.094
 6093W        W78353  41.579   5.125  10.374
 6094W        W78354  12.828  32.418   2.335
 6095W        W78355  32.001   6.585  10.827
 6096W        W78356   4.975  24.526   1.404
 6097W        W78357  34.850   5.461   2.752
 6098W        W78358  21.031  34.101  11.104
 6099W        W78359  31.970  39.326   2.649
 6100W        W78360  19.025   6.658  10.560
 6101W        W78361  37.530  10.209  12.799
 6102W        W78362  14.815  34.133   2.675
 6103W        W78363  36.084   7.433  11.358
 6104W        W78364  11.120  24.200  12.934
 6105W        W78365  25.305   1.020  11.521
 6106W        W78366  39.566  31.228   3.658
 6107W        W78367   4.408  40.306   0.135
 6108W        W78368  39.074  12.441  14.792
 6109W        W78369  16.185   2.115   2.796
 6110W        W78370  43.919   0.797  11.852
 6111W        W78371  10.857  32.634  14.344
 6112W        W78372   5.868  25.231   4.559
 6113W        W78373  32.618  20.419   5.624
 6114W        W78374  27.189  41.910   2.852
 6115W        W78375  43.277   8.171  13.421
 6116W        W78376  41.887  42.549  13.923
 6117W        W78377   5.927  19.595   0.873
 6118W        W78378  36.596   7.720  14.767
 6119W        W78379  35.358  44.941   1.427
 6120W        W78380   6.975  22.221   0.758
 6121W        W78381  41.575  38.209   1.664
 6122W        W78382  28.812  30.406  13.769
 6123W        W78383   0.390  32.580   4.093
 6124W        W78384   1.173  18.068   0.749
 6125W        W78385  33.684   1.931  13.318
 6126W        W78386  41.488  37.752  13.107
 6127W        W78387  30.137  16.578   2.450
 6128W        W78388  42.835  16.157  13.419
 6129W        W78389   1.787  31.606  12.134
 6130W        W78390  24.694   0.927   1.863
 6131W        W78391  11.747  35.336   4.843
 6132W        W78392  39.525  41.731  11.379
 6133W        W78393  44.409  10.301   3.246
 6134W        W78394  21.798  35.035  13.359
 6135W        W78395  24.490   5.437   3.154
 6136W        W78396  41.144  13.953  14.029
 6137W        W78397  12.337  25.039   2.212
 6138W        W78398  14.554   4.799   2.810
 6139W        W78399  21.414  25.180   5.011
 6140W        W78400  14.534  17.305   2.711
 6141W        W78401  18.934  39.036   4.270
 6142W        W78402  16.256   0.022  11.564
 6143W        W78403  31.209  17.885   0.742
 6144W        W78404  27.429   0.981  13.463
 6145W        W78405   4.842  10.602   4.272
 6146W        W78406  31.962   8.326  11.942
 6147W        W78407   6.033  14.111  11.978
 6148W        W78408   1.584  11.641  11.181
 6149W        W78409   3.808  35.850   0.433
 6150W        W78410  36.092   4.348   1.270
 6151W        W78411  11.049  33.951   1.300
 6152W        W78412  32.651   2.292  13.326
 6153W        W78413  25.705  33.338   2.689
 6154W        W78414  30.322  43.858  12.942
 6155W        W78415  21.716  44.441  14.403
 6156W        W78416   1.704   5.822  11.984
 6157W        W78417  31.698  39.233   0.088
 6158W        W78418  10.567   0.783  11.100
 6159W        W78419  26.242   9.783   2.499
 6160W        W78420  40.600  32.095  12.506
 6161W        W78421  26.455  22.983  14.677
 6162W        W78422  44.773  11.772   0.388
 6163W        W78423  19.994  32.542   1.403
 6164W        W78424   9.710   2.696   2.386
 6165W        W78425   5.681   0.461   3.692
 6166W        W78426   5.462  13.809  14.446
 6167W        W78427   0.030  22.097  11.235
 6168W        W78428  14.789   1.901   0.563
 6169W        W78429  31.848  42.980  11.464
 6170W        W78430  35.479   6.038   4.605
 6171W        W78431  41.431  33.170   5.135
 6172W        W78432  28.099  41.580   3.673
 6173W        W78433  16.262  41.287  11.961
 6174W        W78434  43.278   5.251   3.299
 6175W        W78435   9.525  42.077  12.543
 6176W        W78436  41.827  22.210   3.763
 6177W        W78437  18.619  24.962  12.073
 6178W        W78438  43.219   6.741  11.865
 6179W        W78439  11.875  15.359  14.750
 6180W        W78440   8.221   7.792   1.929
 6181W        W78441   8.286  25.492   0.869
 6182W        W78442  43.258  41.725  14.535
 6183W        W78443  14.577  19.779   4.173
 6184W        W78444  40.461  38.867  12.286
 6185W        W78445   6.169   2.474  11.524
 6186W        W78446  18.931   6.969   0.909
 6187W        W78447  16.380  36.481  12.126
 6188W        W78448  26.611  16.545   4.050
 6189W        W78449   2.359  11.176   2.338
 6190W        W78450  39.235  32.835   5.064
 6191W        W78451   5.750  44.551  14.479
 6192W        W78452  17.547  13.546  14.431
 6193W        W78453   5.078   6.747   1.291
 6194W        W78454  27.587  44.014  14.795
 6195W        W78455   2.991   6.189  13.617
 6196W        W78456  43.839  18.354  11.049
 6197W        W78457  31.609  40.273  13.126
 6198W        W78458  23.765  12.164  14.900
 6199W        W78459   1.831  32.262   4.570
 6200W        W78460  30.545  31.202  13.848
 6201W        W78461  17.633  28.651  11.182
 6202W        W78462  41.872  11.091  14.000
 6203W        W78463  32.077  40.349  13.362
 6204W        W78464  21.564  43.209  13.963
 6205W        W78465  17.630  19.013   4.287
 6206W        W78466   5.233  36.979   3.069
 6207W        W78467  38.641  15.730  14.987
 6208W        W78468  38.313  39.065   3.773
 6209W        W78469  29.465  24.594   2.167
 6210W        W78470  34.495   6.770  11.387
 6211W        W78471  26.873  20.694   1.853
 6212W        W78472   3.022  22.723   5.044
 6213W        W78473  34.986  19.780   3.914
 6214W        W78474  19.818  24.094   4.244
 6215W        W78475  44.016  23.230  10.722
 6216W        W78476  34.208  19.771   2.694
 6217W        W78477  29.056   6.236  11.187
 6218W        W78478  41.013   7.528   4.215
 6219W        W78479  10.461  11.061   0.745
 6220W        W78480  25.098  42.314   1.018
 6221W        W78481  42.359  16.937  11.969
 6222W        W78482   3.373  26.933  10.565
 6223W        W78483   0.768  29.209  11.234
 6224W        W78484  16.577  29.655   1.327
 6225W        W78485  16.780  21.942  12.055
 6226W        W78486  31.119  33.216   0.265
 6227W        W78487  10.079  34.895  13.523
 6228W        W78488   2.280  28.168   1.179
 6229W        W78489  31.000   7.343  10.965
 6230W        W78490  44.210  19.611   0.508
 6231W        W78491  24.722  42.907  13.825
 6232W        W78492  21.899   8.714   0.976
 6233W        W78493   2.917  43.766   4.497
 6234W        W78494  36.991  36.751   4.197
 6235W        W78495  34.445  11.955  13.016
 6236W        W78496  26.513  41.496  13.417
 6237W        W78497  31.435  18.773  12.087
 6238W        W78498   9.252   0.161   0.895
 6239W        W78499  27.463  24.539  10.617
 6240W        W78500   0.910  27.784  11.625
 6241W        W78501   5.510  14.244   2.369
 6242W        W78502  42.523  11.238  13.448
 6243W        W78503  36.874   3.221   1.872
 6244W        W78504  19.443   9.822   2.803
 6245W        W78505  20.544   2.977   0.677
 6246W        W78506  38.979  32.024  11.957
 6247W        W78507  27.052  28.620  12.897
 6248W        W78508  27.014   1.047  11.308
 6249W        W78509   1.966  27.131   4.833
 6250W        W78510   5.675   8.893   5.012
 6251W        W78511  23.668  40.947  11.012
 6252W        W78512  21.040  15.424  14.981
 6253W        W78513  13.120  24.001   2.222
 6254W        W78514  27.340   4.336  14.560
 6255W        W78515   5.750   1.233  11.593
 6256W        W78516  15.603  12.519   0.192
 6257W        W78517  41.493  24.044   1.864
 6258W        W78518   5.422   7.296   1.175
 6259W        W78519  28.686  25.118   3.875
 6260W        W78520  25.460  24.572   1.458
 6261W        W78521  27.635  22.724  14.801
 6262W        W78522  32.655  24.768  12.490
 6263W        W78523  30.050  25.436  11.594
 6264W        W78524  19.214   5.479   0.810
 6265W        W78525  33.021  33.458   0.348
 6266W        W78526   9.037  33.960   1.417
 6267W        W78527  44.373  27.070   1.486
 6268W        W78528  27.222  18.079   2.954
 6269W        W78529  17.643  33.924  11.718
 6270W        W78530  41.727  13.959  12.741
 6271W        W78531  34.794  13.899   0.863
 6272W        W78532  44.567  44.525   2.676
 6273W        W78533  14.866  20.726  13.410
 6274W        W78534  31.545  30.569  13.016
 6275W        W78535  18.687  33.957   4.620
 6276W        W78536   8.973  26.984  10.951
 6277W        W78537  18.952   2.161   2.269
 6278W        W78538   0.438   0.092  11.625
 6279W        W78539  36.549   5.710  13.432
 6280W        W78540  33.146  41.267  11.260
 6281W        W78541  18.488   8.387   0.082
 6282W        W78542  10.843  29.731  11.091
 6283W        W78543  30.418  23.404  10.942
 6284W        W78544  12.797  12.644  12.134
 6285W        W78545   5.735  28.149   2.840
 6286W        W78546  18.123  28.678   1.390
 6287W        W78547  43.017  16.730   4.886
 6288W        W78548  41.971   8.068   3.503
 6289W        W78549  19.682  24.063   1.884
 6290W        W78550  25.756  22.411  11.886
 6291W        W78551  33.746  10.257   1.320
 6292W        W78552  37.697   5.716   3.322
 6293W        W78553   0.952  30.038   4.799
 6294W        W78554  12.588  38.569   4.930
 6295W        W78555  31.716  27.258   1.337
 6296W        W78556  11.381   5.028  13.925
 6297W        W78557  11.618  25.349   5.051
 6298W        W78558   4.791  29.887   3.091
 6299W        W78559  44.881  37.177  10.961
 6300W        W78560  34.910  18.291  13.389
 6301W        W78561  22.249  20.625  10.280
 6302W        W78562   0.457  13.407  14.851
 6303W        W78563  44.574  24.643   3.894
 6304W        W78564   0.170   9.322  10.688
 6305W        W78565  41.222  25.093  10.959
 6306W        W78566  33.512   7.914  13.153
 6307W        W78567  34.479  31.895   4.990
 6308W        W78568   9.696  15.921  11.202
 6309W        W78569  40.714  34.450  12.348
 6310W        W78570  42.327  17.200   0.867
 6311W        W78571  11.811  23.474  10.535
 6312W        W78572  25.440   0.367   0.160
 6313W        W78573  39.922  30.338  12.974
 6314W        W78574  22.130  30.379   4.212
 6315W        W78575   9.400  38.429   4.770
 6316W        W78576  38.203   1.402  12.534
 6317W        W78577  15.071  37.333  10.570
 6318W        W78578   0.868  11.779  13.335
 6319W        W78579  13.865   4.854  12.388
 6320W        W78580  14.799  10.162  14.962
 6321W        W78581  18.514  36.064   1.719
 6322W        W78582  40.751  26.544  14.811
 6323W        W78583  30.976  26.526  12.330
 6324W        W78584   0.931   4.937   4.305
 6325W        W78585  39.273   2.956  12.476
 6326W        W78586  22.113   6.059   4.129
 6327W        W78587   2.903  41.917   2.231
 6328W        W78588  30.642  18.754   4.180
 6329W        W78589  44.274   4.814   1.976
 6330W        W78590  10.158  43.813   2.409
 6331W        W78591  32.839  43.416   3.704
 6332W        W78592  33.993  37.459  12.073
 6333W        W78593   0.417  23.190   0.938
 6334W        W78594  30.201  22.793  14.367
 6335W        W78595   4.420  25.100   4.631
 6336W        W78596  24.528  25.029  11.189
 6337W        W78597  12.726   8.068   1.220
 6338W        W78598   4.003  29.153  12.419
 6339W        W78599  37.470  35.075   0.317
 6340W        W78600   9.566   1.333   0.744
 6341W        W78601  33.525  15.567  10.632
 6342W        W78602  15.792  17.294  14.905
 6343W        W78603  35.370  38.331  11.080
 6344W        W78604   2.063  26.128   4.122
 6345W        W78605  26.475  34.528  11.315
 6346W        W78606  34.494  16.433   1.420
 6347W        W78607  23.389  36.039   2.790
 6348W        W78608  17.984   7.470   3.394
 6349W        W78609  11.331  44.836   1.945
 6350W        W78610   6.117  38.511   0.759
 6351W        W78611  27.098   2.107   2.684
 6352W        W78612  44.651  29.517  12.666
 6353W        W78613  32.359   5.816   0.927
 6354W        W78614  15.172  12.285  13.941
 6355W        W78615  37.689  35.124   2.350
 6356W        W78616  43.551  22.679   4.195
 6357W        W78617   4.267  16.253  14.477
 6358W        W78618  41.587  24.023   0.936
 6359W        W78619  31.220  31.323  13.091
 6360W        W78620  40.282  22.968   0.243
 6361W        W78621  39.046  41.705  11.985
 6362W        W78622  35.002   8.853  11.173
 6363W        W78623  44.459  32.654  14.126
 6364W        W78624   3.939  37.560   3.207
 6365W        W78625  38.972  38.784   2.410
 6366W        W78626   0.295  29.600   2.809
 6367W        W78627  27.118  22.709  14.846
 6368W        W78628  39.398  24.004   0.735
 6369W        W78629  32.687  38.418  11.161
 6370W        W78630  17.280   7.806   4.353
 6371W        W78631  18.057  18.850  12.569
 6372W        W78632  24.808  23.312   1.448
 6373W        W78633  39.722  19.750   2.291
 6374W        W78634  16.457  31.551   3.229
 6375W        W78635  15.729  26.743   2.713
 6376W        W78636  18.679  12.121   1.648
 6377W        W78637  23.619  18.698  12.246
 6378W        W78638  23.598   6.864   3.390
 6379W        W78639  38.549  30.733   2.181
 6380W        W78640  41.385  40.879  13.606
 6381W        W78641  15.749   0.056   3.741
 6382W        W78642  16.031   9.441   4.757
 6383W        W78643  36.926  42.415  13.851
 6384W        W78644  25.927   8.729   3.369
 6385W        W78645  14.794   3.948   0.658
 6386W        W78646  30.315  35.014  10.653
 6387W        W78647  27.826  24.997  13.405
 6388W        W78648  15.557  14.681  11.982
 6389W        W78649   1.423  38.247   1.259
 6390W        W78650  34.046  21.180   1.214
 6391W        W78651   9.376   0.967   3.719
 6392W        W78652   3.896  27.501  10.602
 6393W        W78653  19.679  14.194  13.643
 6394W        W78654  14.679  30.717   1.381
 6395W        W78655  21.986  40.619   1.996
 6396W        W78656  25.087  20.682   0.469
 6397W        W78657  29.410  25.869   3.202
 6398W        W78658  24.742   0.385   2.810
 6399W        W78659  31.966  32.016   3.987
 6400W        W78660  41.337  41.916   4.598
 6401W        W78661  29.350  43.847  11.120
 6402W        W78662   6.737  12.622  11.304
 6403W        W78663  42.457  29.478   2.120
 6404W        W78664  22.192   6.854   3.696
 6405W        W78665   5.184  28.445   4.453
 6406W        W78666   4.701  12.202   4.153
 6407W        W78667   7.574  34.913   1.302
 6408W        W78668   9.440  30.174   0.925
 6409W        W78669  25.658  21.046  12.042
 6410W        W78670  20.154  19.616  11.960
 6411W        W78671  40.585   4.248   0.813
 6412W        W78672   6.320  30.423   1.776
 6413W        W78673  37.353   7.596   3.382
 6414W        W78674  36.748  16.355  12.086
 6415W        W78675  24.561  20.740  14.888
 6416W        W78676   2.366  11.194   4.755
 6417W        W78677  28.690   1.416   4.713
 6418W        W78678  35.206  31.121  10.608
 6419W        W78679   9.365  41.471  14.966
 6420W        W78680  29.437  38.450  11.297
 6421W        W78681  10.274   7.209   0.913
 6422W        W78682  14.350  35.584   2.225
 6423W        W78683  28.733  21.416   2.940
 6424W        W78684  14.291  41.612   3.823
 6425W        W78685   8.441  15.313  11.210
 6426W        W78686   3.554   9.266  13.543
 6427W        W78687  37.534   7.545  14.977
 6428W        W78688  10.451  10.162  14.978
 6429W        W78689   3.801   5.261  14.436
 6430W        W78690  10.147  19.696  10.634
 6431W        W78691  18.419   4.985   2.829
 6432W        W78692   8.392  16.043   5.011
 6433W        W78693  38.228  21.965   1.326
 6434W        W78694  24.716  34.461   3.609
 6435W        W78695  38.964  24.790   1.430
 6436W        W78696  23.627  30.005   0.390
 6437W        W78697  35.095  32.478  13.565
 6438W        W78698  12.672  26.274   2.202
 6439W        W78699  11.782  42.759   2.792
 6440W        W78700   9.691  29.565  14.105
 6441W        W78701  31.997  39.550  10.533
 6442W        W78702  39.370   9.863   0.283
 6443W        W78703  41.343  17.254  12.409
 6444W        W78704  23.019  32.929   0.689
 6445W        W78705   7.923  39.300   3.143
 6446W        W78706  11.663   4.457   1.305
 6447W        W78707  24.467  42.073  11.686
 6448W        W78708  30.107  12.552  14.295
 6449W        W78709  39.198  25.639  14.988
 6450W        W78710  27.738  37.405  14.791
 6451W        W78711  11.481  28.609  12.378
 6452W        W78712  39.568  41.407   0.289
 6453W        W78713  13.389  31.065  10.188
 6454W        W78714  26.972   7.968  13.997
 6455W        W78715  14.778  21.952   0.315
 6456W        W78716   0.508   6.931   4.780
 6457W        W78717  20.225   7.808   2.430
 6458W        W78718  11.185  20.820   4.141
 6459W        W78719   4.870   6.759  11.680
 6460W        W78720   1.451  40.028   3.547
 6461W        W78721  12.276   9.149   0.717
 6462W        W78722  11.695  12.884  13.519
 6463W        W78723  30.419  39.274  12.033
 6464W        W78724  21.393  24.082   1.293
 6465W        W78725  36.872  31.837  13.427
 6466W        W78726   7.127   0.902  12.611
 6467W        W78727  44.398  18.013  14.836
 6468W        W78728  42.542  26.150  11.488
 6469W        W78729  16.340   9.963  12.028
 6470W        W78730   8.995   4.804   2.853
 6471W        W78731  36.395  18.494   1.757
 6472W        W78732  18.123  22.360   0.886
 6473W        W78733  38.943   3.549  13.519
 6474W        W78734  23.439  32.137  11.053
 6475W        W78735  37.058   1.049   2.110
 6476W        W78736   0.884  12.203  11.422
 6477W        W78737  23.561   4.206  12.821
 6478W        W78738   2.002  15.674   4.211
 6479W        W78739  42.245   7.309   4.639
 6480W        W78740  25.791   9.244   4.247
 6481W        W78741  40.808   3.788   4.493
 6482W        W78742   7.771  27.669  13.786
 6483W        W78743  27.062   9.006  11.335
 6484W        W78744  36.660  18.122  14.180
 6485W        W78745  27.836  20.342  12.027
 6486W        W78746  22.520   4.713  10.321
 6487W        W78747  21.989   1.226  13.038
 6488W        W78748  39.452  24.473  13.814
 6489W        W78749   1.452  28.942   1.778
 6490W        W78750  41.422  14.540  12.038
 6491W        W78751  30.131  18.049   4.070
 6492W        W78752  26.120  43.566  12.151
 6493W        W78753   3.769  23.039   3.532
 6494W        W78754  11.691  11.760   1.307
 6495W        W78755  32.174  19.965   3.160
 6496W        W78756  12.648  39.218  14.294
 6497W        W78757   8.773   1.941   1.891
 6498W        W78758  26.947  31.912  13.795
 6499W        W78759   4.756  10.159   4.623
 6500W        W78760  31.932   5.727  10.702
 6501W        W78761   2.477   2.929  13.816
 6502W        W78762  43.045   1.025  11.433
 6503W        W78763  13.012  16.901   1.827
 6504W        W78764  19.166  38.061   4.270
 6505W        W78765  10.402   0.671   5.351
 6506W        W78766   5.713  43.906   2.867
 6507W        W78767  40.338  23.288  13.984
 6508W        W78768  23.686  15.407  12.819
 6509W        W78769   4.280  43.666  12.387
 6510W        W78770   3.510  13.749   0.968
 6511W        W78771  39.622  29.384  11.248
 6512W        W78772  15.805  40.477  12.013
 6513W        W78773  36.460  26.720   5.116
 6514W        W78774  11.726   0.323   2.691
 6515W        W78775  10.700  27.900   0.242
 6516W        W78776  16.701  18.733  13.153
 6517W        W78777  26.616  10.491   2.171
 6518W        W78778  26.982  36.337   3.653
 6519W        W78779  24.560  39.854   5.034
 6520W        W78780  12.622  23.489  11.133
 6521W        W78781  40.277  31.511   3.119
 6522W        W78782  37.317   8.194   2.660
 6523W        W78783   0.277  40.817   3.635
 6524W        W78784  24.606  22.988  12.507
 6525W        W78785  17.956  44.548   0.519
 6526W        W78786  22.928  22.320  11.911
 6527W        W78787  39.823  24.690  12.518
 6528W        W78788   5.184  21.359  10.884
 6529W        W78789  18.154  26.713  13.579
 6530W        W78790  14.081   5.254   0.894
 6531W        W78791   2.984   8.576  11.136
 6532W        W78792  24.560   4.779  14.471
 6533W        W78793  25.955  25.076   3.334
 6534W        W78794   2.270  27.477  11.816
 6535W        W78795  10.870  21.771   2.395
 6536W        W78796   6.168  16.753   1.866
 6537W        W78797  30.836   0.782  10.925
 6538W        W78798  30.804  23.455  13.540
 6539W        W78799  39.634   5.883  13.454
 6540W        W78800  36.495   1.979  10.383
 6541W        W78801  24.120  19.200  12.365
 6542W        W78802  11.485  36.026  12.813
 6543W        W78803  36.517  39.026   4.035
 6544W        W78804  11.159  35.260  12.435
 6545W        W78805   0.922   9.117  14.809
 6546W        W78806  38.470  28.450   1.661
 6547W        W78807  42.052  15.121   2.301
 6548W        W78808  44.766   2.186   1.599
 6549W        W78809  23.986  42.465   4.450
 6550W        W78810  14.429   2.459   2.054
 6551W        W78811  35.598  38.495  10.618
 6552W        W78812  20.846  37.861   3.185
 6553W        W78813  14.505  23.647  10.761
 6554W        W78814  11.192  28.687   5.416
 6555W        W78815  35.234  10.107   2.702
 6556W        W78816  38.966  31.323  12.551
 6557W        W78817   3.182   8.938  11.441
 6558W        W78818  19.092  33.633   4.512
 6559W        W78819  14.930  44.373  10.578
 6560W        W78820  14.041  40.221  12.429
 6561W        W78821  33.736  33.114   4.720
 6562W        W78822  29.396  29.706  13.915
 6563W        W78823  31.924  30.200  11.150
 6564W        W78824  39.871   2.454   2.853
 6565W        W78825  41.440  31.489  11.629
 6566W        W78826  26.125  30.063   2.672
 6567W        W78827  42.076  13.761   3.298
 6568W        W78828  41.286  30.461  12.246
 6569W        W78829   8.314  26.980   2.019
 6570W        W78830  25.400  11.617   1.781
 6571W        W78831   6.962   2.395  13.719
 6572W        W78832   7.839  13.376   3.667
 6573W        W78833  26.465  26.657   5.328
 6574W        W78834   5.021  22.487  13.887
 6575W        W78835  38.969  33.119  14.284
 6576W        W78836   0.979   1.807   3.530
 6577W        W78837   6.712  36.329  12.012
 6578W        W78838  11.672  40.380  14.266
 6579W        W78839  26.505  12.143   1.380
 6580W        W78840  12.429  15.804   4.157
 6581W        W78841  33.105  33.658  10.011
 6582W        W78842   3.000   8.434   2.288
 6583W        W78843   1.258  41.261  14.175
 6584W        W78844   4.208   1.860  14.921
 6585W        W78845   1.176  43.801   1.916
 6586W        W78846   2.137  44.007  10.470
 6587W        W78847  25.987  37.855   3.902
 6588W        W78848   2.916  16.165  11.896
 6589W        W78849  43.283   8.340   3.431
 6590W        W78850  10.217  39.446   2.366
 6591W        W78851  20.902  44.266  13.994
 6592W        W78852  24.963   8.793  12.971
 6593W        W78853  34.471  20.756  13.709
 6594W        W78854   2.900  30.503   3.160
 6595W        W78855  26.006  18.207   4.040
 6596W        W78856  17.816  13.610   4.159
 6597W        W78857   3.532  29.729   1.905
 6598W        W78858  42.831  20.209  10.856
 6599W        W78859   5.855  21.675  10.616
 6600W        W78860  35.443  38.385   1.855
 6601W        W78861   0.286  37.921  14.745
 6602W        W78862  25.522  38.242  10.763
 6603W        W78863  41.772  18.702   0.779
 6604W        W78864  24.131   9.898  10.723
 6605W        W78865  23.094   9.994   1.291
 6606W        W78866  39.382  35.827   4.208
 6607W        W78867  10.111  40.594   4.185
 6608W        W78868   8.245  43.860  10.614
 6609W        W78869  22.706  40.712  13.004
 6610W        W78870  33.593   8.112  14.831
 6611W        W78871   2.147   9.908   3.634
 6612W        W78872   5.848  14.539   4.168
 6613W        W78873  37.074  42.909  14.522
 6614W        W78874  24.386  23.954  11.663
 6615W        W78875  37.931  35.797  14.316
 6616W        W78876  35.964  39.407  11.549
 6617W        W78877  28.875  13.789   4.532
 6618W        W78878  29.175  30.646  14.075
 6619W        W78879  43.955  33.669   2.197
 6620W        W78880   0.925  19.191   3.768
 6621W        W78881  30.292  41.942  11.572
 6622W        W78882  40.852  14.299   3.630
 6623W        W78883   5.713   4.905   1.360
 6624W        W78884  22.226  26.265   5.459
 6625W        W78885  37.377   9.720   4.926
 6626W        W78886  21.077  20.570  10.568
 6627W        W78887  29.172  14.632  10.948
 6628W        W78888   2.395  11.758  11.617
 6629W        W78889  44.359  19.066  12.090
 6630W        W78890  32.691  31.968  12.092
 6631W        W78891  21.406  10.114   1.831
 6632W        W78892  44.546  30.633   1.735
 6633W        W78893  26.582  37.857   4.565
 6634W        W78894  42.823  12.776   0.002
 6635W        W78895  26.503  38.459  11.318
 6636W        W78896  42.113  10.181  12.425
 6637W        W78897   0.669  21.063  13.901
 6638W        W78898  30.697  39.068  13.459
 6639W        W78899  36.117  24.294  11.462
 6640W        W78900  30.315  40.287   0.412
 6641W        W78901  37.487   2.609   2.969
 6642W        W78902   4.280   1.571   4.343
 6643W        W78903  24.962  29.603   0.842
 6644W        W78904  39.984  16.026   4.134
 6645W        W78905  32.270  16.663  11.669
 6646W        W78906  43.994   8.751  12.461
 6647W        W78907  18.551  22.387  11.007
 6648W        W78908   1.232  23.541  10.427
 6649W        W78909  15.035  23.133  12.133
 6650W        W78910  14.686  35.117  11.064
 6651W        W78911  11.743  27.167   1.097
 6652W        W78912  19.020  15.102   3.778
 6653W        W78913  36.899  42.898  13.656
 6654W        W78914   8.209  36.600   4.825
 6655W        W78915  39.063  28.976   4.557
 6656W        W78916  15.678  26.079   2.171
 6657W        W78917  38.056  12.760   0.987
 6658W        W78918  13.212   1.403   3.740
 6659W        W78919   5.088  31.399  11.074
 6660W        W78920   5.901  22.760   1.305
 6661W        W78921  24.975   2.159   2.288
 6662W        W78922  21.671  13.021   0.779
 6663W        W78923   6.737   0.204   4.890
 6664W        W78924  41.919  32.253  14.465
 6665W        W78925  25.540  29.955   0.885
 6666W        W78926   0.328   6.814  12.940
 6667W        W78927  35.443  14.300  11.148
 6668W        W78928  39.909  11.283   4.913
 6669W        W78929  29.209   0.471  11.578
 6670W        W78930  44.647  26.072  12.092
 6671W        W78931  32.623   8.802  14.221
 6672W        W78932  37.978   6.773  11.409
 6673W        W78933  20.173   8.934   3.604
 6674W        W78934  16.871  23.477   4.516
 6675W        W78935  38.032  13.386  12.243
 6676W        W78936  18.042  35.558   3.808
 6677W        W78937  21.245  21.260   0.861
 6678W        W78938  12.162  10.620  13.364
 6679W        W78939  12.712  11.378  10.580
 6680W        W78940  36.098  13.773  14.932
 6681W        W78941  33.136  20.010  12.970
 6682W        W78942  34.939  24.281  11.994
 6683W        W78943  18.073  22.249   3.137
 6684W        W78944   3.071   6.433   0.359
 6685W        W78945  40.449  25.220   2.639
 6686W        W78946  35.751  22.668  14.911
 6687W        W78947  16.751   0.499   3.079
 6688W        W78948  20.706   8.222  12.765
 6689W        W78949  15.374  27.000  11.934
 6690W        W78950  13.162  28.510   4.943
 6691W        W78951   5.572  19.607  11.124
 6692W        W78952  42.986  38.539  10.631
 6693W        W78953  40.759  16.195  11.224
 6694W        W78954  28.152  10.712   1.913
 6695W        W78955  42.243  15.717   3.838
 6696W        W78956  18.023  42.803   4.129
 6697W        W78957   2.233  19.310   0.417
 6698W        W78958  31.046  11.198   3.385
 6699W        W78959  16.173  28.897  12.166
 6700W        W78960   4.362  25.426  11.600
 6701W        W78961  36.366  29.937  11.149
 6702W        W78962  16.519  14.405   3.201
 6703W        W78963   9.369  13.745   3.816
 6704W        W78964  13.904  12.875   0.944
 6705W        W78965  21.766  31.647   2.707
 6706W        W78966  39.382   7.837  10.660
 6707W        W78967  16.048  24.187   2.286
 6708W        W78968  40.953  43.755   4.634
 6709W        W78969  32.979  44.359   0.100
 6710W        W78970   3.283  44.055  11.146
 6711W        W78971  13.684  33.016  11.011
 6712W        W78972  25.597  32.202   3.340
 6713W        W78973  21.171  27.401   1.189
 6714W        W78974  12.560  28.130  10.610
 6715W        W78975  30.000  37.628  13.548
 6716W        W78976  25.201  11.103   3.635
 6717W        W78977  33.425   7.211  12.003
 6718W        W78978   3.912  36.524   4.739
 6719W        W78979  44.220  44.395  10.946
 6720W        W78980  34.025  25.025   3.748
 6721W        W78981  17.205  19.174  14.331
 6722W        W78982  15.296  15.095  12.298
 6723W        W78983  15.395   5.619  12.198
 6724W        W78984   1.948  27.582  14.844
 6725W        W78985   3.551  24.567   2.605
 6726W        W78986  30.063  14.219  10.703
 6727W        W78987   4.237   6.933  12.941
 6728W        W78988  39.834  17.891  13.081
 6729W        W78989  37.911  16.841   1.314
 6730W        W78990  18.178  41.266  10.974
 6731W        W78991  20.554  34.108   1.348
 6732W        W78992  28.134  40.532  11.565
 6733W        W78993  35.034  18.786  14.402
 6734W        W78994  12.912   9.206   2.471
 6735W        W78995  34.836  38.515  13.818
 6736W        W78996   2.261   8.773   3.525
 6737W        W78997   0.530   6.819   0.940
 6738W        W78998  16.005  38.382  13.727
 6739W        W78999  36.417  25.128  11.982
 6740W        W79000  12.779  18.646   2.586
 6741W        W79001  38.575  41.320  12.941
 6742W        W79002  14.274  13.998   4.675
 6743W        W79003  15.627  38.996   3.707
 6744W        W79004  14.153   1.006   4.195
 6745W        W79005   7.669  30.663  11.521
 6746W        W79006  34.060  39.136   1.359
 6747W        W79007  29.691  28.672  12.908
 6748W        W79008  27.160  34.119   0.412
 6749W        W79009   1.257   9.768  13.142
 6750W        W79010  23.508  43.213  14.804
 6751W        W79011  40.784  23.200  13.033
 6752W        W79012  36.443  43.959   2.621
 6753W        W79013  22.693  10.637  11.473
 6754W        W79014  19.239  39.917  10.618
 6755W        W79015  44.491  30.403  13.862
 6756W        W79016  19.736  19.795  14.143
 6757W        W79017  28.127  24.985   4.597
 6758W        W79018  23.433  23.439  12.587
 6759W        W79019  26.194   9.196   0.916
 6760W        W79020  33.293  26.526   4.972
 6761W        W79021   8.378   2.360  13.458
 6762W        W79022  16.118  25.567  12.623
 6763W        W79023   5.200   9.328   1.899
 6764W        W79024  12.248  19.415   3.087
 6765W        W79025  23.236  28.695   2.320
 6766W        W79026   2.783   2.719   1.269
 6767W        W79027  36.883  29.251  11.221
 6768W        W79028  35.532   7.080  12.869
 6769W        W79029   7.818   5.503   3.716
 6770W        W79030  23.905  17.340   3.547
 6771W        W79031   9.747  25.569   3.225
 6772W        W79032  44.374  28.029   1.350
 6773W        W79033  43.481  28.995   2.473
 6774W        W79034  24.354  16.629  13.563
 6775W        W79035  36.408  29.838  13.045
 6776W        W79036  33.251   6.255  10.727
 6777W        W79037  39.412  30.139  13.038
 6778W        W79038  29.534  17.664   1.551
 6779W        W79039  32.773   5.890   4.166
 6780W        W79040  17.568   0.938   0.858
 6781W        W79041  37.163  22.167   0.340
 6782W        W79042   7.299  10.626  13.012
 6783W        W79043   0.261  42.562   2.854
 6784W        W79044  33.655   2.162   1.397
 6785W        W79045  38.294  20.225   0.887
 6786W        W79046  30.344  11.597   2.326
 6787W        W79047  26.584  43.462   2.212
 6788W        W79048  16.754  28.543  12.119
 6789W        W79049  26.033  35.499   3.158
 6790W        W79050  13.642  28.307  12.547
 6791W        W79051  16.330  29.962   3.682
 6792W        W79052   9.724  43.873   3.600
 6793W        W79053  33.497   2.883  11.023
 6794W        W79054  32.133  18.256   4.243
 6795W        W79055  28.637  39.832  10.836
 6796W        W79056   8.263  44.242   3.714
 6797W        W79057  16.772  22.290   2.735
 6798W        W79058  30.352  18.021  14.921
 6799W        W79059   1.837   9.234  14.808
 6800W        W79060  15.194  28.948  10.879
 6801W        W79061  23.718  14.207  10.645
 6802W        W79062  18.773  33.410   4.116
 6803W        W79063  34.921   2.178   2.571
 6804W        W79064  36.013  37.731   1.921
 6805W        W79065   9.147  16.772  11.973
 6806W        W79066   4.292  16.004  12.919
 6807W        W79067  16.587  40.061   1.481
 6808W        W79068  27.277  30.501   0.932
 6809W        W79069   5.323  13.526   3.350
 6810W        W79070  18.064   4.851  10.144
 6811W        W79071  10.157  32.333  12.980
 6812W        W79072  32.042  23.692  11.691
 6813W        W79073  40.393  36.534   0.946
 6814W        W79074   2.954  23.977   2.236
 6815W        W79075   4.656  32.611   4.512
 6816W        W79076  38.281  32.071  13.068
 6817W        W79077  42.747  35.306  11.204
 6818W        W79078  43.653  10.610  13.068
 6819W        W79079  32.963  21.775   1.699
 6820W        W79080  14.183  29.630  12.945
 6821W        W79081  25.375  35.015   4.819
 6822W        W79082  40.375  27.005  12.991
 6823W        W79083  11.255  24.033  14.837
 6824W        W79084   4.020  19.624   1.737
 6825W        W79085  20.964  26.202   4.937
 6826W        W79086  13.923  25.533  14.840
 6827W        W79087  39.585  27.651  10.990
 6828W        W79088  24.085  14.085  13.402
 6829W        W79089  30.683  30.403  10.951
 6830W        W79090   3.136  10.166   0.858
 6831W        W79091  15.110  43.399  14.988
 6832W        W79092  24.499   0.739  12.073
 6833W        W79093  39.759  17.320   3.664
 6834W        W79094  10.958  44.209  10.640
 6835W        W79095  31.824  40.788  13.294
 6836W        W79096  35.334  42.393  11.872
 6837W        W79097  26.373  35.728   0.815
 6838W        W79098   3.512  17.131   3.283
 6839W        W79099   3.931  42.466  10.780
 6840W        W79100  14.590  39.931  14.557
 6841W        W79101  36.085  12.677  13.871
 6842W        W79102   1.955  18.941  11.356
 6843W        W79103  41.641  41.382  10.584
 6844W        W79104   9.241  26.882   4.747
 6845W        W79105   0.353  21.178   1.680
 6846W        W79106  43.432  27.029  11.226
 6847W        W79107  39.631  12.089   2.695
 6848W        W79108  35.121  15.908   1.589
 6849W        W79109  25.658  29.197  10.753
 6850W        W79110   8.110  43.759   3.121
 6851W        W79111  27.019  36.663   1.619
 6852W        W79112  41.431  43.529   0.655
 6853W        W79113  41.977  25.160   4.674
 6854W        W79114   5.942  33.077  13.587
 6855W        W79115  31.484   5.442   3.838
 6856W        W79116   9.292  13.461  11.065
 6857W        W79117  40.988  41.774  14.710
 6858W        W79118  37.005  36.889  11.793
 6859W        W79119  31.674  14.213  12.091
 6860W        W79120   5.598   0.910   2.764
 6861W        W79121  20.183  44.877  12.105
 6862W        W79122  25.497  21.119   2.283
 6863W        W79123  31.662   9.281   3.344
 6864W        W79124  18.313  24.077   4.086
 6865W        W79125   2.525  12.297   0.355
 6866W        W79126  43.747  37.105  12.090
 6867W        W79127   2.512  20.025  14.815
 6868W        W79128  24.090   6.736  14.879
 6869W        W79129  38.624  12.395  13.236
 6870W        W79130  35.066  40.573   2.384
 6871W        W79131   8.901   3.909  13.887
 6872W        W79132  30.131   9.144  13.570
 6873W        W79133  20.767  18.204  12.839
 6874W        W79134  24.149  20.387   1.350
 6875W        W79135   1.996  22.015   4.194
 6876W        W79136  13.607  38.647  11.475
 6877W        W79137  22.046   1.167   2.601
 6878W        W79138  18.998  37.622   3.381
 6879W        W79139  10.385  10.648  14.322
 6880W        W79140  44.101  43.261   4.326
 6881W        W79141   8.648  21.601  10.990
 6882W        W79142  10.361   9.372   1.469
 6883W        W79143  19.105   3.285   3.362
 6884W        W79144  12.383  14.808  12.970
 6885W        W79145  17.179  41.260  12.759
 6886W        W79146  27.729  29.705  12.434
 6887W        W79147  13.832  20.976  13.466
 6888W        W79148  25.595  10.151  11.546
 6889W        W79149  33.827  43.038   2.788
 6890W        W79150  30.505   4.320  11.984
 6891W        W79151  22.056  22.657  12.861
 6892W        W79152  26.717   4.892   4.071
 6893W        W79153   1.789  16.111   1.045
 6894W        W79154  38.142  24.504   4.097
 6895W        W79155  13.888  15.914  11.712
 6896W        W79156  17.608  16.342  11.906
 6897W        W79157  24.113  29.535   0.835
 6898W        W79158  17.058  13.379  14.473
 6899W        W79159  11.315  38.914   1.099
 6900W        W79160  13.842  27.959   4.502
 6901W        W79161   1.921  43.304   0.727
 6902W        W79162  28.294  38.127   4.140
 6903W        W79163  44.640   7.210  12.466
 6904W        W79164   1.211  12.094   2.769
 6905W        W79165   5.468  32.972  12.402
 6906W        W79166  19.371  15.148   0.247
 6907W        W79167  41.239  30.397   1.247
 6908W        W79168   2.237  26.735   2.874
 6909W        W79169  23.215  28.777   1.797
 6910W        W79170  26.925   4.296   4.158
 6911W        W79171   8.829  38.030   0.508
 6912W        W79172  28.314  13.822  10.471
 6913W        W79173  44.033  22.571   0.957
 6914W        W79174   6.879  15.155  11.214
 6915W        W79175   6.931  40.972  11.541
 6916W        W79176   8.939   8.880  13.958
 6917W        W79177   8.388  19.754   4.689
 6918W        W79178  23.119  22.976  11.405
 6919W        W79179  28.092  22.233   4.233
 6920W        W79180  35.584  19.014   2.728
 6921W        W79181  42.606  40.778  13.771
 6922W        W79182   7.919  32.472   2.677
 6923W        W79183   1.204  43.306  12.950
 6924W        W79184  17.694  40.617   4.230
 6925W        W79185   0.933  16.702   4.307
 6926W        W79186   2.646  22.224  10.739
 6927W        W79187  43.898  17.333   2.701
 6928W        W79188  30.882  21.632   2.285
 6929W        W79189  44.020  33.901  10.982
 6930W        W79190  27.837  22.032  13.161
 6931W        W79191  35.506  17.457   3.691
 6932W        W79192  18.245  11.359  10.602
 6933W        W79193   9.462   2.220   0.859
 6934W        W79194   5.143   8.247  11.893
 6935W        W79195   4.407  12.167  10.739
 6936W        W79196  29.472  39.300   1.737
 6937W        W79197  19.189  18.123  10.684
 6938W        W79198   1.210   4.971   0.667
 6939W        W79199   1.078   1.989  10.731
 6940W        W79200  25.959  37.932   1.445
 6941W        W79201   0.986  14.276   3.411
 6942W        W79202  20.312   1.244   2.235
 6943W        W79203  27.583  37.438  14.304
 6944W        W79204  27.520  11.012  14.877
 6945W        W79205  22.426  28.919  13.057
 6946W        W79206   7.419   4.966  12.430
 6947W        W79207   2.790  17.187   0.896
 6948W        W79208  38.545  19.536  13.305
 6949W        W79209  18.053  36.053  12.409
 6950W        W79210  15.675  39.081   1.801
 6951W        W79211  24.090  36.008   0.926
 6952W        W79212   8.615  21.118  13.524
 6953W        W79213  20.634  24.262  13.390
 6954W        W79214  37.827  14.731   1.816
 6955W        W79215   7.251   1.843   2.660
 6956W        W79216  44.368   1.341   0.471
 6957W        W79217  13.504  30.997  11.096
 6958W        W79218  34.532   7.250  11.713
 6959W        W79219  15.705  37.258   3.235
 6960W        W79220  16.399  33.430   2.330
 6961W        W79221  34.513  35.846  12.435
 6962W        W79222  12.076   9.629   1.463
 6963W        W79223   0.445  23.798  12.350
 6964W        W79224  37.945   4.892   1.447
 6965W        W79225  39.575  43.526   3.655
 6966W        W79226   3.498  16.985  12.592
 6967W        W79227  17.840   1.737   0.441
 6968W        W79228  30.447  38.977  10.787
 6969W        W79229  12.728   6.469  14.032
 6970W        W79230  28.030  10.140   3.295
 6971W        W79231  10.228   8.137   1.306
 6972W        W79232  13.077  21.724   0.252
 6973W        W79233   7.366  35.148   0.300
 6974W        W79234  27.037  18.155  13.057
 6975W        W79235  26.218  14.812  13.528
 6976W        W79236  38.371  21.123   2.988
 6977W        W79237  40.324  11.193  11.060
 6978W        W79238  38.967   9.934  13.928
 6979W        W79239  23.748  38.891   4.631
 6980W        W79240   5.755  13.355  13.503
 6981W        W79241   3.534  15.201   1.584
 6982W        W79242  40.882  43.974  10.749
 6983W        W79243   1.307  36.336   2.683
 6984W        W79244  44.962   3.166  11.826
 6985W        W79245  25.130   4.498   2.713
 6986W        W79246  25.054   3.972   1.805
 6987W        W79247   1.112  29.299  14.089
 6988W        W79248  40.822  24.450   0.853
 6989W        W79249  16.484   1.683  12.915
 6990W        W79250  30.952  40.761  10.044
 6991W        W79251  42.734  15.287  14.876
 6992W        W79252  36.691  13.326  13.055
 6993W        W79253  35.038  10.623   0.351
 6994W        W79254  33.982  18.810  10.663
 6995W        W79255  18.535  15.269   0.636
 6996W        W79256  28.910  39.272  11.164
 6997W        W79257  22.320  13.595  10.799
 6998W        W79258  21.815  24.672   3.381
 6999W        W79259  41.269  30.897   1.400
 7000W        W79260  19.595   9.259  12.614
 7001W        W79261  43.004   0.952  10.396
 7002W        W79262  38.383  13.579   1.389
 7003W        W79263  16.333   6.936  12.460
 7004W        W79264  21.129  13.905  14.832
 7005W        W79265  31.553  16.512   2.731
 7006W        W79266  43.756  20.500  14.888
 7007W        W79267  14.176  29.441   2.236
 7008W        W79268  38.980  17.262   1.655
 7009W        W79269  33.903  41.472   0.009
 7010W        W79270   0.498  32.091  12.215
 7011W        W79271  14.580  25.987   0.224
 7012W        W79272   4.818  19.795   3.324
 7013W        W79273  14.082   6.905   2.245
 7014W        W79274  27.165  40.553   4.532
 7015W        W79275   3.163  43.777   4.937
 7016W        W79276  18.363  15.582  14.429
 7017W        W79277  21.583  31.683  12.065
 7018W        W79278  37.452   8.583   4.815
 7019W        W79279   3.656  36.302   3.978
 7020W        W79280  12.587  18.534  12.025
 7021W        W79281  37.612   5.824   2.339
 7022W        W79282  43.012  40.601   1.473
 7023W        W79283  14.789  11.654   3.353
 7024W        W79284  19.301   6.699   2.681
 7025W        W79285  20.106  14.039  11.071
 7026W        W79286   2.402  39.893   4.573
 7027W        W79287   8.352  32.614   3.657
 7028W        W79288  10.275   3.259  11.491
 7029W        W79289  38.132  16.213   3.075
 7030W        W79290  40.880  37.118   1.161
 7031W        W79291  13.107   6.617  12.474
 7032W        W79292  25.085   6.952   0.962
 7033W        W79293  35.753   1.571   0.319
 7034W        W79294  31.611  17.374   1.846
 7035W        W79295  29.047  11.680   1.744
 7036W        W79296  36.357  17.509  11.737
 7037W        W79297  23.062  19.803  12.019
 7038W        W79298  24.262  38.380   4.408
 7039W        W79299  42.963   7.734  12.219
 7040W        W79300   2.733   3.567   4.142
 7041W        W79301  43.352   7.207  10.660
 7042W        W79302  24.272   8.393  11.109
 7043W        W79303  33.169  15.482   1.770
 7044W        W79304   3.491   5.012   0.782
 7045W        W79305   4.244   5.835  12.623
 7046W        W79306  42.532  37.345   0.233
 7047W        W79307  29.356  15.086  11.153
 7048W        W79308   5.516  35.615  11.660
 7049W        W79309   7.834  43.435   4.848
 7050W        W79310  11.594   4.277   3.694
 7051W        W79311  35.837  33.387  12.471
 7052W        W79312  25.092  10.238   1.430
 7053W        W79313  39.467   8.458  13.811
 7054W        W79314   9.940  26.454  11.527
 7055W        W79315  41.330   3.853   2.269
 7056W        W79316  27.853   8.821  10.550
 7057W        W79317  26.053   1.086  12.988
 7058W        W79318  24.725  30.406   0.927
 7059W        W79319  38.958  23.173  12.136
 7060W        W79320   9.811  23.805   3.756
 7061W        W79321  27.994   4.545   0.426
 7062W        W79322  27.369  18.295   0.857
 7063W        W79323   3.454   9.440   2.869
 7064W        W79324  31.946  42.303   3.831
 7065W        W79325  31.899  40.516  11.458
 7066W        W79326  15.132  20.086   0.478
 7067W        W79327   1.807   1.746   4.645
 7068W        W79328  28.621   7.635   2.723
 7069W        W79329  29.932  42.936  14.386
 7070W        W79330  36.655  20.745  10.152
 7071W        W79331   8.831  12.279  13.339
 7072W        W79332  25.517  19.129   3.878
 7073W        W79333   7.051  34.887  12.250
 7074W        W79334  35.496  10.675  12.863
 7075W        W79335  30.161  17.781   3.357
 7076W        W79336  35.896  11.732   2.100
 7077W        W79337  23.211  36.641  10.638
 7078W        W79338  30.537  29.188   2.668
 7079W        W79339   0.931  20.965  12.095
 7080W        W79340   1.034   4.200   1.956
 7081W        W79341  44.358   3.450  12.934
 7082W        W79342  35.001  31.120  14.746
 7083W        W79343  24.672  39.498  13.041
 7084W        W79344  25.993  17.146   3.753
 7085W        W79345  32.126  37.934  12.020
 7086W        W79346  32.489  44.774   4.530
 7087W        W79347  31.864  39.844   3.315
 7088W        W79348  34.905  31.905   0.481
 7089W        W79349   0.846   3.777   3.084
 7090W        W79350   9.149  28.230  12.559
 7091W        W79351  31.613  24.680  14.438
 7092W        W79352  37.864  22.612   0.619
 7093W        W79353  22.231  42.304   1.406
 7094W        W79354   1.495  18.537  14.652
 7095W        W79355   2.751  14.510  13.145
 7096W        W79356   5.281   7.101  13.042
 7097W        W79357  32.474   1.443   0.512
 7098W        W79358  19.632  14.335   1.015
 7099W        W79359  39.062  31.769   1.668
 7100W        W79360   1.236  44.868   4.452
 7101W        W79361  19.337  22.986   0.685
 7102W        W79362  34.522  25.475   2.914
 7103W        W79363  13.368  24.288  11.745
 7104W        W79364  38.048  34.753  12.764
 7105W        W79365  32.981  20.738  14.983
 7106W        W79366  22.501  29.133   5.324
 7107W        W79367  31.607  10.441  10.518
 7108W        W79368  29.025   4.165  12.455
 7109W        W79369  23.258  11.458  11.234
 7110W        W79370  41.411  38.457  13.413
 7111W        W79371  15.688  26.891  12.898
 7112W        W79372  38.102  28.111   2.654
 7113W        W79373  27.041  27.099  11.147
 7114W        W79374  18.000   8.337  13.336
 7115W        W79375   9.763  10.808  12.713
 7116W        W79376  37.964  28.707  13.920
 7117W        W79377   0.384  14.531  12.959
 7118W        W79378  41.207   7.395   2.835
 7119W        W79379  18.173  15.608   4.671
 7120W        W79380  19.609  37.059  13.932
 7121W        W79381  36.101  25.242   4.823
 7122W        W79382  29.106   1.937   4.249
 7123W        W79383  41.577  24.199  12.464
 7124W        W79384  36.004  43.255   2.758
 7125W        W79385  17.670  11.766  13.760
 7126W        W79386  10.843  31.535   4.126
 7127W        W79387  36.937  21.592   1.141
 7128W        W79388   5.479  28.326   2.209
 7129W        W79389  20.622   4.114   3.994
 7130W        W79390  28.050  11.404  12.995
 7131W        W79391  25.622  37.466  13.527
 7132W        W79392  16.768   6.752  12.924
 7133W        W79393  38.498  13.722  12.177
 7134W        W79394  34.858  14.610   0.252
 7135W        W79395   4.803  30.916   2.199
 7136W        W79396  28.044  27.554   2.656
 7137W        W79397   7.842  32.626   3.636
 7138W        W79398   5.029   5.505   1.790
 7139W        W79399   7.361  31.825  13.952
 7140W        W79400  34.894  26.997  12.365
 7141W        W79401  32.562  23.468   1.899
 7142W        W79402  18.170  29.925   4.622
 7143W        W79403  12.114  20.448   3.212
 7144W        W79404   6.776  34.453  10.899
 7145W        W79405  41.996  22.302  11.063
 7146W        W79406  32.637  31.086  11.551
 7147W        W79407  38.384  10.071   3.749
 7148W        W79408  30.822  31.753   2.773
 7149W        W79409   9.194  18.496   1.737
 7150W        W79410  25.399  32.018   2.678
 7151W        W79411   8.349  37.625  12.395
 7152W        W79412  10.054  43.440   4.526
 7153W        W79413  35.482  15.502   2.352
 7154W        W79414  28.567  24.229  12.527
 7155W        W79415  20.770  13.200   0.557
 7156W        W79416  19.249  44.955   0.337
 7157W        W79417  39.849  39.448   0.067
 7158W        W79418  30.048  31.050  12.936
 7159W        W79419  25.716   0.531  14.745
 7160W        W79420  35.928  37.859  11.988
 7161W        W79421  20.050  42.787  10.197
 7162W        W79422   5.223  32.115   0.873
 7163W        W79423  12.685   6.754   3.661
 7164W        W79424  37.479  17.340  11.851
 7165W        W79425  32.247  39.793   3.748
 7166W        W79426   7.619  27.610  10.623
 7167W        W79427  23.204  14.630   1.901
 7168W        W79428  37.375  13.681   3.372
 7169W        W79429  20.763   7.270  13.086
 7170W        W79430  41.627  14.776  11.643
 7171W        W79431  19.762  21.654   1.528
 7172W        W79432  41.307  40.558  10.806
 7173W        W79433  44.716  28.420  12.118
 7174W        W79434   0.836   4.028   4.385
 7175W        W79435  17.561  12.149   4.143
 7176W        W79436  38.404  22.960  11.538
 7177W        W79437  27.186  13.675   0.947
 7178W        W79438  38.961  44.311  13.180
 7179W        W79439  18.203  43.048   2.273
 7180W        W79440  19.784  10.907   3.274
 7181W        W79441  13.316  19.207   0.796
 7182W        W79442  23.702  40.341  14.909
 7183W        W79443  31.123  24.899  12.935
 7184W        W79444  40.840  44.045  12.589
 7185W        W79445  10.894  43.344  11.226
 7186W        W79446  39.581  29.621   4.475
 7187W        W79447  15.265  38.049   3.238
 7188W        W79448  28.456  26.437  10.655
 7189W        W79449  18.700  12.320   2.137
 7190W        W79450  25.133  12.274   1.281
 7191W        W79451  36.667   9.266   1.391
 7192W        W79452   9.729  37.101  11.846
 7193W        W79453  17.154  27.515   3.277
 7194W        W79454  13.654  36.555   4.180
 7195W        W79455  10.943  26.508   0.322
 7196W        W79456   8.193  28.100  11.303
 7197W        W79457  10.499  21.214  12.862
 7198W        W79458  31.143   3.255  13.803
 7199W        W79459  23.957  12.266   0.352
 7200W        W79460  33.007   5.901  11.863
 7201W        W79461  28.091  12.656   0.773
 7202W        W79462  33.269   5.465   1.266
 7203W        W79463  14.942  33.010  12.945
 7204W        W79464  14.200  21.507   0.988
 7205W        W79465  43.859   7.658   3.341
 7206W        W79466  14.762   7.105  14.019
 7207W        W79467  37.826  39.910  12.998
 7208W        W79468   1.534  16.072   1.646
 7209W        W79469  16.498   0.829   4.151
 7210W        W79470   0.289  36.230  11.959
 7211W        W79471  24.290  43.806   2.351
 7212W        W79472   0.817  40.454   1.690
 7213W        W79473  39.434   2.217  12.202
 7214W        W79474  29.341   9.128  13.989
 7215W        W79475  21.513  37.636   2.434
 7216W        W79476  15.811  38.844   0.376
 7217W        W79477  21.542  44.202   3.157
 7218W        W79478  13.618   1.383   4.143
 7219W        W79479   7.716  44.678   2.192
 7220W        W79480  24.790  33.994   1.975
 7221W        W79481  37.655   4.437   2.196
 7222W        W79482  26.580  21.100  10.989
 7223W        W79483  21.495  26.090   1.902
 7224W        W79484  43.906  23.274   3.231
 7225W        W79485  37.252  29.039  13.929
 7226W        W79486  36.031   1.298   3.902
 7227W        W79487  21.661  42.468  11.617
 7228W        W79488  40.448  41.104   3.961
 7229W        W79489  44.749  12.857   4.605
 7230W        W79490  18.988  30.732  11.652
 7231W        W79491  27.578  28.705   0.622
 7232W        W79492  35.314  23.698  11.254
 7233W        W79493  35.506  33.277  10.715
 7234W        W79494  21.081  20.756  14.950
 7235W        W79495  23.755  31.061   1.836
 7236W        W79496   4.891   5.338  13.463
 7237W        W79497  42.250  44.452   3.706
 7238W        W79498  36.259  28.385   1.325
 7239W        W79499   0.424   7.886   1.884
 7240W        W79500  21.211  18.318  11.195
 7241W        W79501  34.888  19.112   4.581
 7242W        W79502  23.536  17.747  13.565
 7243W        W79503   1.053  11.000  14.571
 7244W        W79504  29.650  44.428   3.274
 7245W        W79505  34.562  27.682  14.036
 7246W        W79506  16.693  26.643   4.093
 7247W        W79507   6.925  25.946  14.662
 7248W        W79508   2.451  11.559  12.126
 7249W        W79509  43.956  24.709   0.881
 7250W        W79510  26.594  43.467  10.662
 7251W        W79511   8.256  11.367  12.030
 7252W        W79512  18.638  26.153  12.920
 7253W        W79513   8.465   8.233   0.338
 7254W        W79514   2.038  17.690   2.918
 7255W        W79515  22.911  23.492  13.423
 7256W        W79516   0.858  17.718   4.135
 7257W        W79517  36.504  36.955  14.741
 7258W        W79518  26.947  29.859  10.320
 7259W        W79519   3.880  42.291   2.744
 7260W        W79520  26.117  36.473   2.751
 7261W        W79521   5.478  22.486   2.939
 7262W        W79522   6.938  36.409  11.575
 7263W        W79523  39.715  20.425   2.863
 7264W        W79524  37.906  33.430  12.321
 7265W        W79525  30.572  10.230  14.546
 7266W        W79526  13.566  35.486   0.282
 7267W        W79527  33.933  27.927   2.796
 7268W        W79528  20.063  12.359   3.182
 7269W        W79529  23.026  35.483   1.250
 7270W        W79530  21.531  13.843   4.285
 7271W        W79531  29.582  12.366  13.628
 7272W        W79532   1.775  42.444  14.298
 7273W        W79533   3.477  41.334   9.983
 7274W        W79534  38.336  10.203   1.832
 7275W        W79535  10.725  41.921   4.569
 7276W        W79536  29.136  44.324   2.286
 7277W        W79537  20.290  34.071   3.560
 7278W        W79538  14.890  36.651   0.815
 7279W        W79539  18.784   6.436  10.152
 7280W        W79540  29.566  17.664  14.448
 7281W        W79541  19.759   0.914   2.206
 7282W        W79542  23.215   1.901   1.277
 7283W        W79543   7.193  26.149   5.389
 7284W        W79544  17.280  16.092  13.865
 7285W        W79545  11.806  26.848  12.113
 7286W        W79546  38.485  12.174   3.885
 7287W        W79547  26.724  21.204   1.804
 7288W        W79548   2.941   7.533   0.871
 7289W        W79549  30.734  12.994   3.753
 7290W        W79550   4.474   2.588   0.785
 7291W        W79551  16.164  37.070   0.735
 7292W        W79552  26.104  25.070   2.770
 7293W        W79553  40.296  26.762  11.544
 7294W        W79554  38.335  19.041   1.411
 7295W        W79555   0.810  44.342  10.632
 7296W        W79556  14.019  28.579   1.232
 7297W        W79557  23.914  14.615   0.528
 7298W        W79558  37.545  12.598  13.936
 7299W        W79559  21.978  26.103   5.030
 7300W        W79560  13.714  44.357  12.973
 7301W        W79561   2.819  37.564  12.404
 7302W        W79562   4.270  15.714  12.477
 7303W        W79563   8.400   0.258   4.105
 7304W        W79564  42.231   6.150   1.015
 7305W        W79565  34.297  10.728   4.673
 7306W        W79566  41.485  33.806  11.212
 7307W        W79567  43.869  13.653  11.524
 7308W        W79568  11.170  14.578   3.180
 7309W        W79569  23.238  14.691   3.703
 7310W        W79570   4.234   7.127   0.192
 7311W        W79571  14.889  33.233  11.681
 7312W        W79572  27.507  25.981  14.988
 7313W        W79573  35.383  30.745   3.925
 7314W        W79574   2.418  36.481   3.218
 7315W        W79575  32.435   6.300   2.669
 7316W        W79576  25.755  37.443   1.380
 7317W        W79577  18.602  12.902  12.983
 7318W        W79578  18.471  39.323  10.736
 7319W        W79579  16.949  41.688   4.978
 7320W        W79580  32.133  41.589   3.311
 7321W        W79581  16.751  41.467  10.756
 7322W        W79582   3.796  21.906   1.435
 7323W        W79583  24.629  27.929   1.033
 7324W        W79584  29.339   4.231  10.667
 7325W        W79585  15.080   7.786   0.855
 7326W        W79586  33.948   2.588  13.830
 7327W        W79587  20.732  13.794   1.292
 7328W        W79588   9.311  31.696  14.826
 7329W        W79589   2.853  11.881  11.010
 7330W        W79590  25.464  29.354   3.296
 7331W        W79591   2.846  28.888   2.284
 7332W        W79592  20.324  23.576   4.998
 7333W        W79593  36.362  30.574   1.834
 7334W        W79594  33.101  13.253   2.472
 7335W        W79595  19.612  17.112   4.630
 7336W        W79596   3.376  35.924   1.949
 7337W        W79597  36.575  19.225   3.626
 7338W        W79598   1.822   7.313   4.597
 7339W        W79599  30.695  40.454  14.433
 7340W        W79600  10.601  33.071   1.420
 7341W        W79601  10.953  13.689   1.484
 7342W        W79602  17.200   9.831  10.878
 7343W        W79603   1.193  25.279   3.612
 7344W        W79604  21.180  18.791  10.999
 7345W        W79605  26.788  21.486   0.803
 7346W        W79606  44.215   2.969  12.779
 7347W        W79607  23.054   7.897   4.196
 7348W        W79608  34.567  38.546   2.350
 7349W        W79609   8.496  44.672  14.440
 7350W        W79610  30.514  42.410  14.825
 7351W        W79611  38.093   0.254  11.056
 7352W        W79612  44.531  18.564   4.864
 7353W        W79613   1.846  28.665   4.768
 7354W        W79614  27.195  29.038   4.722
 7355W        W79615  40.418  21.976  10.504
 7356W        W79616  42.410  19.524  12.935
 7357W        W79617   2.087  18.692  14.502
 7358W        W79618  38.325  41.425  12.504
 7359W        W79619  20.265  44.025   1.378
 7360W        W79620  29.083  27.666  12.380
 7361W        W79621  41.453   8.339   2.446
 7362W        W79622  32.968  18.284  12.443
 7363W        W79623  12.632  14.099   2.840
 7364W        W79624  33.457  21.707  12.605
 7365W        W79625  21.642  31.184  13.102
 7366W        W79626   5.203  12.300   0.375
 7367W        W79627  22.162  17.956   2.415
 7368W        W79628  36.023  18.753  12.733
 7369W        W79629   9.140  12.210   0.828
 7370W        W79630  43.529  26.735  12.300
 7371W        W79631   1.304  13.591   3.559
 7372W        W79632  29.927  14.248  11.202
 7373W        W79633  40.943  15.248   0.134
 7374W        W79634   6.459   4.924  13.480
 7375W        W79635  39.497  43.010   3.624
 7376W        W79636   2.183   0.476   2.502
 7377W        W79637  12.252  21.120   4.873
 7378W        W79638   4.322  14.095   4.417
 7379W        W79639   6.809   7.946  14.765
 7380W        W79640  24.055  34.961   0.418
 7381W        W79641  40.360  12.439  11.794
 7382W        W79642  20.021   0.477  13.092
 7383W        W79643  36.873  31.345   3.604
 7384W        W79644  17.557  33.352  13.918
 7385W        W79645  40.430  26.135  14.826
 7386W        W79646  17.533  10.182  11.473
 7387W        W79647  41.597   9.058  13.449
 7388W        W79648   5.436  41.146  11.097
 7389W        W79649  18.279  19.811  10.788
 7390W        W79650  38.400   8.322  14.657
 7391W        W79651   5.769  20.821   3.875
 7392W        W79652   5.273  10.830  13.903
 7393W        W79653  10.486  38.113   4.186
 7394W        W79654  34.620  27.569  10.617
 7395W        W79655   2.898  20.715  13.590
 7396W        W79656  13.819  14.558  14.307
 7397W        W79657  37.203   0.784  12.418
 7398W        W79658  41.402   6.912   3.714
 7399W        W79659  15.443  17.165   0.372
 7400W        W79660   4.182   3.794  13.999
 7401W        W79661  37.422  20.291   2.732
 7402W        W79662  44.262  14.222   1.526
 7403W        W79663   6.277  32.440  13.155
 7404W        W79664  41.392  21.818   3.144
 7405W        W79665  23.089  41.755   4.373
 7406W        W79666  30.181  24.148   3.228
 7407W        W79667  25.194  25.908  11.868
 7408W        W79668  36.664  26.113   2.830
 7409W        W79669  22.512  13.104   4.085
 7410W        W79670  30.969   0.737   1.709
 7411W        W79671  10.739  32.596  12.124
 7412W        W79672  13.637  18.821   1.021
 7413W        W79673  31.528  32.908   0.089
 7414W        W79674  42.512  44.342   4.152
 7415W        W79675  37.271  30.680   1.815
 7416W        W79676  31.617  19.134  13.369
 7417W        W79677  20.981   8.575  10.727
 7418W        W79678  33.882  22.640  12.538
 7419W        W79679  24.015  24.984   4.196
 7420W        W79680  21.731  26.610  11.533
 7421W        W79681   7.431  38.375  14.975
 7422W        W79682  19.442  28.943   0.433
 7423W        W79683  24.944   2.845  10.933
 7424W        W79684  32.164  44.245   5.119
 7425W        W79685  37.387  12.146   2.863
 7426W        W79686  44.860  24.586  11.993
 7427W        W79687  44.593  39.493   5.011
 7428W        W79688  43.254  37.112  13.898
 7429W        W79689   1.842  17.697   3.413
 7430W        W79690  18.742  34.312  12.993
 7431W        W79691  30.381  25.034   0.480
 7432W        W79692   9.905  12.073  14.477
 7433W        W79693  33.594  42.364   2.770
 7434W        W79694  10.614  26.442  13.563
 7435W        W79695  11.759  34.329   0.391
 7436W        W79696  28.133  23.333  12.385
 7437W        W79697  17.845  30.766  12.110
 7438W        W79698  41.909  20.042  14.429
 7439W        W79699   7.320  39.270  13.830
 7440W        W79700  39.526  26.298  13.707
 7441W        W79701  17.275  10.871   0.058
 7442W        W79702  40.916  10.663  12.533
 7443W        W79703  34.679  16.755  12.496
 7444W        W79704  22.591  38.971  14.394
 7445W        W79705  44.800  34.094   2.230
 7446W        W79706  39.300  29.887   2.148
 7447W        W79707  20.229   8.124   4.605
 7448W        W79708  41.362   6.339  12.692
 7449W        W79709   6.276  11.680  13.487
 7450W        W79710   9.325   6.083  11.726
 7451W        W79711   6.887  26.642  10.753
 7452W        W79712  13.261  14.097  12.537
 7453W        W79713  39.107  35.809  14.955
 7454W        W79714   6.756  30.210   4.061
 7455W        W79715   3.739  12.112  13.284
 7456W        W79716  20.661  18.917  13.976
 7457W        W79717  35.009  44.793   1.826
 7458W        W79718  14.390  26.396   5.017
 7459W        W79719  17.079  18.570  13.654
 7460W        W79720  12.321  30.133  12.001
 7461W        W79721  30.733  26.548   4.749
 7462W        W79722  43.419  12.559  12.042
 7463W        W79723  38.777  36.821   3.747
 7464W        W79724  21.030  28.084   9.897
 7465W        W79725  27.917  15.822   5.035
 7466W        W79726  35.639  27.521  10.806
 7467W        W79727  14.723  36.934  10.602
 7468W        W79728  23.140  18.753  12.493
 7469W        W79729  20.024  12.686  11.035
 7470W        W79730  17.742  19.979   4.112
 7471W        W79731   8.189  14.092  13.695
 7472W        W79732  34.362  33.511  13.048
 7473W        W79733  35.063  15.292  11.133
 7474W        W79734   8.658  33.924  13.929
 7475W        W79735  27.570  16.913   3.133
 7476W        W79736  20.213  27.054   1.443
 7477W        W79737   2.419   0.509   4.597
 7478W        W79738  44.907  38.018  10.657
 7479W        W79739  21.764  28.144  12.424
 7480W        W79740   1.898  32.176  13.258
 7481W        W79741  19.578  18.796  12.499
 7482W        W79742  26.203  20.433  13.347
 7483W        W79743   0.049   9.410   4.152
 7484W        W79744   8.264  12.783   4.356
 7485W        W79745   7.675   5.902   0.381
 7486W        W79746  42.534  39.391  10.753
 7487W        W79747  14.934  27.981   4.434
 7488W        W79748  29.923  29.987  11.118
 7489W        W79749  22.605  21.317  11.049
 7490W        W79750  40.474  19.644   0.237
 7491W        W79751  21.283  24.060  13.047
 7492W        W79752  42.595  27.747   2.797
 7493W        W79753  26.762  34.100  12.962
 7494W        W79754  10.925  26.944  11.755
 7495W        W79755   7.728   9.066  13.634
 7496W        W79756   9.963  15.343  13.843
 7497W        W79757  33.631   9.833  10.547
 7498W        W79758  39.589  14.571   0.014
 7499W        W79759  15.764  10.235   4.128
 7500W        W79760  42.848  32.495   4.169
 7501W        W79761  22.449   5.662   4.137
 7502W        W79762  42.322  24.769   3.186
 7503W        W79763  36.560  13.803   1.297
 7504W        W79764  16.013  29.948   2.708
 7505W        W79765  26.515  17.923   2.650
 7506W        W79766  26.958   9.712   5.031
 7507W        W79767   0.922  19.112   4.295
 7508W        W79768  27.130  20.587  13.366
 7509W        W79769   5.790  17.015  12.021
 7510W        W79770  39.316   4.498   1.261
 7511W        W79771   5.247   2.966   4.861
 7512W        W79772  42.282  16.416   1.234
 7513W        W79773  13.409  34.858   1.337
 7514W        W79774   4.800  39.488  11.154
 7515W        W79775  21.052  27.329  13.151
 7516W        W79776  32.975  32.225  13.354
 7517W        W79777  22.709  15.315   2.216
 7518W        W79778  37.819   6.927   1.237
 7519W        W79779   2.741   6.940   1.677
 7520W        W79780  13.643   3.656   2.799
 7521W        W79781  13.485   9.878  14.105
 7522W        W79782  39.084   9.169   4.672
 7523W        W79783  22.920  39.832   2.766
 7524W        W79784  20.038  27.165  14.346
 7525W        W79785  24.552  18.270  11.456
 7526W        W79786  24.268  15.847   3.670
 7527W        W79787  43.004  33.042  14.659
 7528W        W79788  23.204  44.034   3.800
 7529W        W79789  30.912  16.524  11.998
 7530W        W79790   0.204   0.421  11.122
 7531W        W79791  42.040  42.308   0.879
 7532W        W79792   6.229  23.245  12.078
 7533W        W79793  34.884  26.077  14.313
 7534W        W79794  38.085  26.406   1.194
 7535W        W79795  25.719  10.595  14.313
 7536W        W79796   1.990  17.090  10.201
 7537W        W79797  40.379  14.400  12.527
 7538W        W79798   7.932  19.571   3.231
 7539W        W79799  18.546  21.190  13.930
 7540W        W79800   1.081   1.410  10.101
 7541W        W79801   2.926   2.135  14.874
 7542W        W79802  27.462  31.009  14.443
 7543W        W79803  32.495  12.064   4.613
 7544W        W79804  11.244  22.967  10.634
 7545W        W79805  41.053   3.076   3.174
 7546W        W79806   3.772  11.687  12.960
 7547W        W79807  40.178  39.426   4.137
 7548W        W79808  34.508  28.008  14.504
 7549W        W79809   5.205   6.309  10.624
 7550W        W79810  40.991  39.354  11.611
 7551W        W79811  18.800  18.735   3.764
 7552W        W79812  24.015  18.775  12.618
 7553W        W79813  14.799  25.777  12.907
 7554W        W79814  43.357  28.882   3.792
 7555W        W79815  27.704   8.201  13.751
 7556W        W79816   6.526  25.547   5.008
 7557W        W79817  17.021  28.948   3.581
 7558W        W79818   2.653   4.801   2.262
 7559W        W79819  16.595  11.566  14.950
 7560W        W79820  34.384   8.362   2.377
 7561W        W79821  12.286  16.710   4.403
 7562W        W79822   6.677  33.406  13.402
 7563W        W79823  14.638  38.535   2.816
 7564W        W79824  25.434  34.293   2.290
 7565W        W79825   5.360  15.607   2.311
 7566W        W79826  26.926  10.254   1.828
 7567W        W79827  44.892  26.854   1.770
 7568W        W79828  36.423  12.221   0.529
 7569W        W79829  25.108  39.621   9.783
 7570W        W79830   3.158  31.101   4.138
 7571W        W79831  19.059  33.644   0.325
 7572W        W79832  40.941  26.589  12.162
 7573W        W79833  38.524   9.503  12.125
 7574W        W79834  20.067  24.225   3.784
 7575W        W79835   8.828   3.161   0.419
 7576W        W79836  31.063   4.735  14.227
 7577W        W79837  23.653  15.361   4.224
 7578W        W79838  23.127  32.873   4.272
 7579W        W79839  12.578   7.476  14.505
 7580W        W79840  36.063   1.078   3.424
 7581W        W79841  21.289  28.134   1.834
 7582W        W79842  39.933  28.401  10.450
 7583W        W79843  22.011   6.486   2.757
 7584W        W79844  41.323  23.530  12.437
 7585W        W79845  20.229  14.149   4.002
 7586W        W79846  38.983  12.733   1.502
 7587W        W79847  25.729  20.317   2.215
 7588W        W79848  26.046  23.647  10.995
 7589W        W79849   0.477  39.562   1.870
 7590W        W79850   9.723  25.641   4.692
 7591W        W79851   8.567  27.065   2.460
 7592W        W79852  34.370  24.456   1.408
 7593W        W79853  21.029   0.404  12.978
 7594W        W79854  14.833  29.148   9.694
 7595W        W79855   2.813   8.174  11.380
 7596W        W79856  13.374  19.055   4.094
 7597W        W79857  29.503  38.344  10.773
 7598W        W79858  20.033   3.035   0.766
 7599W        W79859  10.942  30.035   5.687
 7600W        W79860  43.439   9.794  13.883
 7601W        W79861  37.463  16.251   4.283
 7602W        W79862   5.136   4.912   2.196
 7603W        W79863   8.257  32.892   2.307
 7604W        W79864   1.877  23.969   4.615
 7605W        W79865  16.540  40.435  11.587
 7606W        W79866  34.020  35.408  11.946
 7607W        W79867  18.785  37.693   4.172
 7608W        W79868  32.149  22.764   0.283
 7609W        W79869  26.120   9.436  11.755
 7610W        W79870   8.175   4.192   0.935
 7611W        W79871  25.633  21.308   4.089
 7612W        W79872  36.497  18.262  10.578
 7613W        W79873  41.867   2.436   4.758
 7614W        W79874  29.902  32.654  13.863
 7615W        W79875  17.584  18.286  14.353
 7616W        W79876  14.047  39.143   2.623
 7617W        W79877  32.622  40.496   0.189
 7618W        W79878  43.481   3.813   3.765
 7619W        W79879  29.625  30.862   2.279
 7620W        W79880  43.097  24.029  12.159
 7621W        W79881  25.813  10.190   0.787
 7622W        W79882  31.297   7.402   4.228
 7623W        W79883   6.844  34.159  14.831
 7624W        W79884  43.914   5.277   1.022
 7625W        W79885  22.164  40.774  13.263
 7626W        W79886   0.302  35.012  13.037
 7627W        W79887   6.159  30.747   4.125
 7628W        W79888  29.163  19.805   1.317
 7629W        W79889  30.122   7.109  14.815
 7630W        W79890  19.318  19.212   2.630
 7631W        W79891  18.572  19.721  13.470
 7632W        W79892  15.513  38.996  11.972
 7633W        W79893  26.962  30.914   2.688
 7634W        W79894  31.173  25.672  13.412
 7635W        W79895  44.446  41.096   0.257
 7636W        W79896  22.112   3.822  11.725
 7637W        W79897  38.756   6.492  10.555
 7638W        W79898  12.577  12.200   3.818
 7639W        W79899  19.032  19.450  13.451
 7640W        W79900  43.703  44.985   0.490
 7641W        W79901  41.527  40.165  10.445
 7642W        W79902  16.229   7.283   2.437
 7643W        W79903  13.844  27.622   5.610
 7644W        W79904  35.209  30.437   9.891
 7645W        W79905  12.263  12.082  12.941
 7646W        W79906  19.568  16.029   0.275
 7647W        W79907  21.402  33.555  12.183
 7648W        W79908  14.541   0.469   0.695
 7649W        W79909  34.863  38.984  14.038
 7650W        W79910  22.590   6.700  12.462
 7651W        W79911  25.426  44.274   0.310
 7652W        W79912  13.096  44.241   0.379
 7653W        W79913   7.839  35.970  10.120
 7654W        W79914   1.683  26.692   0.342
 7655W        W79915  23.293   5.984   1.827
 7656W        W79916  31.388  29.051   0.937
 7657W        W79917  16.558  10.144   2.638
 7658W        W79918  20.448  30.041  13.055
 7659W        W79919  31.456   1.053   4.229
 7660W        W79920  16.610   2.777   1.785
 7661W        W79921  11.730  39.829   4.414
 7662W        W79922   7.752  17.389   3.769
 7663W        W79923  38.575   2.498   0.790
 7664W        W79924  32.496  40.214  12.577
 7665W        W79925  41.762  16.441   3.216
 7666W        W79926  26.220  25.961   3.219
 7667W        W79927  11.382   5.103   1.899
 7668W        W79928  33.505   4.987   2.242
 7669W        W79929   4.867  42.792  13.564
 7670W        W79930  33.725  20.114  12.332
 7671W        W79931  34.562  34.947   3.916
 7672W        W79932  41.244  41.315   2.382
 7673W        W79933  43.904  18.231   1.309
 7674W        W79934   6.138   6.749  12.999
 7675W        W79935  38.048  44.473   2.727
 7676W        W79936  12.695  43.018   4.202
 7677W        W79937  32.832  41.756  11.937
 7678W        W79938  13.272  40.656   1.435
 7679W        W79939  44.741  20.576   2.170
 7680W        W79940   3.653  42.306   1.822
 7681W        W79941  35.232  24.259  13.328
 7682W        W79942  36.047  18.365  10.851
 7683W        W79943   7.620  10.585  14.924
 7684W        W79944   3.714  43.404   0.985
 7685W        W79945  29.163  32.093   1.248
 7686W        W79946  25.257  19.038  11.328
 7687W        W79947  22.000  13.264  14.536
 7688W        W79948  40.490  21.287   1.641
 7689W        W79949  34.895  24.264  14.862
 7690W        W79950  15.337   4.929   3.264
 7691W        W79951  18.741   9.626   3.244
 7692W        W79952  25.466  18.328   1.639
 7693W        W79953   6.657  36.626   2.738
 7694W        W79954  16.325  41.198  14.453
 7695W        W79955  19.980  12.946   4.877
 7696W        W79956   0.765  37.108   2.727
 7697W        W79957   0.757  20.104   2.817
 7698W        W79958   9.007   7.915   4.731
 7699W        W79959  42.005  43.964  12.128
 7700W        W79960  28.061  36.498   9.900
 7701W        W79961  34.106  44.377   1.076
 7702W        W79962  19.172  42.035   1.331
 7703W        W79963  21.298  33.660   3.241
 7704W        W79964  18.238  10.335  10.444
 7705W        W79965  35.400   3.716   4.238
 7706W        W79966   4.061   4.798  14.310
 7707W        W79967  18.199  19.740   3.372
 7708W        W79968   4.716  21.981   2.365
 7709W        W79969   4.764  38.199   3.208
 7710W        W79970  44.470  32.599  10.651
 7711W        W79971  27.666  41.058  10.662
 7712W        W79972  26.494   3.943   1.780
 7713W        W79973  36.513  24.196   1.824
 7714W        W79974  42.890  23.461  14.362
 7715W        W79975  32.624  12.810  13.067
 7716W        W79976  44.127  29.616  11.918
 7717W        W79977  39.883   3.489  10.924
 7718W        W79978  29.975  16.736   4.304
 7719W        W79979  37.386  22.389   2.480
 7720W        W79980   3.540  23.969  11.768
 7721W        W79981  10.878   6.472   3.685
 7722W        W79982  37.030   8.381  11.604
 7723W        W79983   5.867  15.615  14.484
 7724W        W79984  26.799  14.894  12.630
 7725W        W79985  16.214   8.572   0.648
 7726W        W79986   7.891  38.254  12.920
 7727W        W79987   6.797  23.715   2.292
 7728W        W79988  13.824  11.709   1.275
 7729W        W79989  17.780  14.946   3.058
 7730W        W79990  43.536  11.669   1.315
 7731W        W79991  38.847  40.324  12.910
 7732W        W79992  34.510   6.586   4.138
 7733W        W79993  21.377  12.795   4.574
 7734W        W79994  17.845   8.305   2.922
 7735W        W79995  26.037  14.242  12.460
 7736W        W79996  21.715  35.771  11.474
 7737W        W79997  43.241  40.861   3.507
 7738W        W79998   2.308  28.633  12.433
 7739W        W79999  42.826  33.435   4.582
 7740W        W80000  28.246  40.311  10.187
 7741W        W80001   9.412  18.356   3.359
 7742W        W80002   6.921   7.245  13.365
 7743W        W80003  30.527  14.630  10.698
 7744W        W80004  43.893  31.153  13.805
 7745W        W80005  39.875   4.220   1.319
 7746W        W80006  31.359  33.993  12.458
 7747W        W80007   4.811  41.441  11.513
 7748W        W80008  20.569  29.094   2.203
 7749W        W80009  19.525  33.857  13.136
 7750W        W80010  44.280  10.146  12.188
 7751W        W80011  43.887   7.110  14.870
 7752W        W80012   9.927  34.899   0.286
 7753W        W80013  27.564  37.822   0.049
 7754W        W80014  36.027  13.185  10.538
 7755W        W80015  21.729  41.562  14.558
 7756W        W80016  21.039  21.408  10.327
 7757W        W80017  12.290  16.551  11.375
 7758W        W80018   3.446  15.555  11.904
 7759W        W80019   3.400  20.528   3.140
 7760W        W80020   7.194  14.198   1.687
 7761W        W80021  24.498   1.352  13.378
 7762W        W80022  23.299   3.843   0.319
 7763W        W80023  31.628  27.356  13.034
 7764W        W80024  11.223  33.087  11.533
 7765W        W80025  41.347   8.222  14.398
 7766W        W80026   0.201  25.976  11.127
 7767W        W80027  40.385  44.586   0.449
 7768W        W80028   3.692  22.082  11.429
 7769W        W80029  35.930  10.232  11.537
 7770W        W80030  35.608  44.301   0.400
 7771W        W80031  40.439   1.978   4.213
 7772W        W80032   2.279  10.870   1.383
 7773W        W80033  43.450  38.114  14.324
 7774W        W80034  24.719   4.517  11.158
 7775W        W80035  31.106  17.511   1.093
 7776W        W80036  22.975  32.414  11.661
 7777W        W80037  40.298  20.683  14.862
 7778W        W80038  28.398   0.263   4.445
 7779W        W80039  32.409  43.464  12.288
 7780W        W80040  42.051  26.187   2.776
 7781W        W80041   8.323  27.075  11.636
 7782W        W80042  18.208  39.640  13.841
 7783W        W80043   7.417   1.470   1.404
 7784W        W80044  17.484  17.321   1.852
 7785W        W80045  22.747  18.567   4.155
 7786W        W80046  39.526   0.320   1.101
 7787W        W80047   6.513  21.639  14.184
 7788W        W80048   7.223   5.903   1.482
 7789W        W80049  32.605  20.004   4.296
 7790W        W80050  15.352  17.763   2.661
 7791W        W80051  16.783   9.146  13.433
 7792W        W80052  42.754   2.491  14.833
 7793W        W80053  39.045   0.750   1.713
 7794W        W80054  22.119  34.130   1.179
 7795W        W80055  22.190  32.233   1.360
 7796W        W80056   7.216  16.817  13.396
 7797W        W80057  20.970  26.628   0.931
 7798W        W80058  13.703  35.506   2.697
 7799W        W80059  17.782  16.588   0.752
 7800W        W80060  31.686  37.370   3.376
 7801W        W80061   0.516  11.897   1.484
 7802W        W80062  16.282  29.644   1.777
 7803W        W80063  11.872   8.890   0.910
 7804W        W80064  39.970  22.293   3.399
 7805W        W80065  21.403  44.464   2.259
 7806W        W80066  31.356  27.715   0.391
 7807W        W80067  24.809   1.750   2.532
 7808W        W80068  21.918  27.318   1.815
 7809W        W80069   8.787  18.018  12.564
 7810W        W80070  30.597   5.281   4.614
 7811W        W80071  38.781  18.156  11.657
 7812W        W80072   7.831  20.848  11.009
 7813W        W80073  20.728   3.319   3.402
 7814W        W80074   4.631  44.351   1.332
 7815W        W80075   8.382   6.356   3.659
 7816W        W80076  15.633  20.264   2.310
 7817W        W80077  42.734  18.262   3.593
 7818W        W80078   7.723  31.469   4.361
 7819W        W80079   9.183  14.342   0.470
 7820W        W80080  33.172  37.429  12.625
 7821W        W80081  26.838  13.198   0.405
 7822W        W80082   8.716  28.499   3.453
 7823W        W80083   1.031   9.641  11.490
 7824W        W80084  16.582  22.283  14.949
 7825W        W80085  41.510  40.108  10.946
 7826W        W80086  25.811  30.507  13.856
 7827W        W80087  34.863  29.698  11.097
 7828W        W80088   2.371   0.446   2.019
 7829W        W80089  38.836  25.040   0.430
 7830W        W80090  20.902  24.238   1.191
 7831W        W80091  14.133  42.462  10.388
 7832W        W80092  34.421   3.807   4.046
 7833W        W80093  25.233  14.633   1.010
 7834W        W80094  11.732  40.549   1.873
 7835W        W80095  36.556  19.794   1.192
 7836W        W80096   9.916  28.624   3.633
 7837W        W80097   5.296  20.417  12.820
 7838W        W80098  26.986  43.260   2.534
 7839W        W80099  39.396   0.809  12.073
 7840W        W80100  31.456  37.930  14.473
 7841W        W80101  24.245   1.322   0.913
 7842W        W80102  17.085   6.071   5.784
 7843W        W80103  25.369  37.331   1.056
 7844W        W80104  42.924  21.250  12.342
 7845W        W80105  32.514   1.646  12.102
 7846W        W80106  32.908   4.952   3.300
 7847W        W80107  15.265   3.207   1.082
 7848W        W80108  41.974  38.556   3.871
 7849W        W80109  37.165   2.799   2.030
 7850W        W80110  42.295   6.400   4.542
 7851W        W80111  38.806  30.297  11.576
 7852W        W80112  33.064  16.057  11.144
 7853W        W80113  10.432   8.204  13.348
 7854W        W80114  42.797  34.900   3.158
 7855W        W80115  42.811  17.479  13.561
 7856W        W80116   5.704  32.641  13.447
 7857W        W80117  28.091  17.646   3.233
 7858W        W80118  30.425  16.660   3.398
 7859W        W80119   4.855  18.106   4.118
 7860W        W80120  26.045  28.098   3.724
 7861W        W80121  26.077  23.550   2.292
 7862W        W80122  33.941  11.052   1.725
 7863W        W80123  11.647  13.814  13.261
 7864W        W80124   6.159  24.509  11.564
 7865W        W80125  28.603   3.425   4.600
 7866W        W80126  18.596  35.455   3.680
 7867W        W80127  14.337  26.060  11.339
 7868W        W80128  30.060  32.080  12.899
 7869W        W80129  44.293  25.494   3.706
 7870W        W80130   3.949  42.204   2.232
 7871W        W80131  22.308  22.235  10.905
 7872W        W80132   6.362  24.497   1.433
 7873W        W80133  15.281   0.270   3.666
 7874W        W80134  18.356   7.398   4.649
 7875W        W80135  21.961   1.295   3.232
 7876W        W80136  16.343  14.591  13.473
 7877W        W80137  15.045   3.735   2.432
 7878W        W80138  28.969   1.569  14.226
 7879W        W80139  43.168  44.021   0.941
 7880W        W80140  13.269  44.403   2.326
 7881W        W80141  14.332  21.494  12.285
 7882W        W80142  16.310  42.969  14.249
 7883W        W80143  36.053  21.056  13.970
 7884W        W80144  16.331  21.260  12.351
 7885W        W80145  21.515  40.407   4.660
 7886W        W80146   5.500  16.544   3.813
 7887W        W80147  22.039  14.864  14.471
 7888W        W80148  37.970  34.379  12.017
 7889W        W80149   6.756  13.652  11.155
 7890W        W80150  15.925  28.177  12.392
 7891W        W80151  31.864  37.160   1.291
 7892W        W80152  27.759  23.984   3.738
 7893W        W80153  35.894   2.317  14.865
 7894W        W80154  15.730  17.025  10.124
 7895W        W80155  33.467  41.839  14.891
 7896W        W80156  13.245  32.483   1.789
 7897W        W80157   0.728  38.403   3.182
 7898W        W80158  34.919  18.789   2.160
 7899W        W80159   0.949  18.164   1.676
 7900W        W80160   0.402  13.447  11.594
 7901W        W80161  36.956  10.133  10.173
 7902W        W80162  42.855  18.739   0.462
 7903W        W80163  26.552  18.771  11.699
 7904W        W80164   3.335  36.675  14.198
 7905W        W80165  16.869  25.228  14.913
 7906W        W80166  30.816  27.580  14.282
 7907W        W80167  41.945   3.887  11.428
 7908W        W80168  43.947  13.702  14.553
 7909W        W80169  12.228  29.891  10.485
 7910W        W80170  37.460  23.428  13.539
 7911W        W80171  16.836  42.598   2.199
 7912W        W80172  40.823  42.256   4.474
 7913W        W80173  35.668  36.615   0.142
 7914W        W80174   7.773  24.476   3.592
 7915W        W80175  38.559   3.234  11.557
 7916W        W80176   6.040   4.931   5.123
 7917W        W80177  28.920  29.842  13.021
 7918W        W80178  30.529  20.952  12.441
 7919W        W80179  17.731   0.868  14.317
 7920W        W80180   8.850   2.746   4.026
 7921W        W80181  44.046  16.702  10.717
 7922W        W80182  15.639  34.487  10.642
 7923W        W80183  10.058  12.897  14.910
 7924W        W80184   4.697   2.716   3.846
 7925W        W80185  10.676  35.120   1.774
 7926W        W80186  19.793  13.792  13.063
 7927W        W80187  26.811  20.629   2.835
 7928W        W80188  10.671  37.794  12.188
 7929W        W80189   3.125  31.479  13.089
 7930W        W80190  22.933  10.256  13.985
 7931W        W80191  20.097  32.134  10.980
 7932W        W80192  11.535  29.519  13.846
 7933W        W80193  23.947   1.167   2.207
 7934W        W80194  11.629   9.552  10.747
 7935W        W80195  39.734  39.948  12.923
 7936W        W80196  10.449   7.888  12.100
 7937W        W80197   9.174   7.052  13.310
 7938W        W80198  17.189  23.942  12.943
 7939W        W80199  23.378  31.756  12.400
 7940W        W80200  37.522  21.639  13.891
 7941W        W80201  30.766  27.075   1.072
 7942W        W80202  19.868  22.283  10.438
 7943W        W80203  32.141  22.662   2.144
 7944W        W80204  40.241   9.875  14.693
 7945W        W80205  25.878  32.519  13.101
 7946W        W80206  20.021   8.036   4.143
 7947W        W80207  23.733  28.445   0.833
 7948W        W80208  29.894  28.133   2.291
 7949W        W80209  21.134  13.969   3.746
 7950W        W80210  36.013  11.357   3.683
 7951W        W80211  34.822   5.119  14.198
 7952W        W80212  24.569  26.419   4.106
 7953W        W80213  10.906  44.718  10.673
 7954W        W80214  32.880  23.787   4.897
 7955W        W80215  23.684  42.598  11.567
 7956W        W80216   7.241  21.247   3.852
 7957W        W80217  31.163  37.593  11.250
 7958W        W80218  16.373  37.949  11.199
 7959W        W80219  42.803  26.123   3.279
 7960W        W80220  36.942  15.310   4.616
 7961W        W80221   1.211  25.041  10.757
 7962W        W80222  11.492  38.777  13.495
 7963W        W80223  44.741  40.687   3.627
 7964W        W80224  38.094  42.488   2.132
 7965W        W80225  23.397  14.660  14.601
 7966W        W80226  19.766  31.993   4.382
 7967W        W80227  21.021  37.954   5.010
 7968W        W80228  20.469  34.391   0.064
 7969W        W80229   0.967  22.009  14.599
 7970W        W80230  36.657  17.261  12.070
 7971W        W80231  18.237  25.542   2.866
 7972W        W80232   9.066  44.458  13.122
 7973W        W80233  31.643  31.949   2.893
 7974W        W80234  32.835   6.765  11.003
 7975W        W80235  22.257  27.180  11.169
 7976W        W80236   4.415  23.775  13.963
 7977W        W80237   7.450  24.059   2.176
 7978W        W80238  35.733  40.935  14.397
 7979W        W80239  44.175  17.268   1.394
 7980W        W80240  37.440   7.448  14.437
 7981W        W80241  11.233   4.713   1.488
 7982W        W80242  43.570  36.495   2.932
 7983W        W80243  18.511   6.541   4.316
 7984W        W80244   0.367  36.811  11.641
 7985W        W80245  41.079  35.440  11.016
 7986W        W80246  37.338  19.197   3.213
 7987W        W80247   8.176  28.134   3.322
 7988W        W80248  19.839  28.556  13.190
 7989W        W80249   1.276  44.031  12.202
 7990W        W80250  18.670  27.897  13.053
 7991W        W80251  20.830   4.851  12.066
 7992W        W80252  11.117  43.466   3.220
 7993W        W80253  20.520  39.804  12.515
 7994W        W80254   5.531  32.408   2.886
 7995W        W80255  32.646  42.917  13.125
 7996W        W80256  36.849   9.716   5.064
 7997W        W80257  15.709  35.048   3.434
 7998W        W80258  39.373  41.981  12.854
 7999W        W80259  19.329   5.723   1.245
 8000W        W80260  28.253   3.502   2.128
 8001W        W80261   5.968  43.100   3.500
 8002W        W80262  12.201   2.082   3.544
 8003W        W80263   5.650  41.839   0.217
 8004W        W80264  41.166   1.416   2.343
 8005W        W80265  25.138  20.578   4.177
 8006W        W80266  26.577  28.920   0.085
 8007W        W80267  31.329   5.168  13.992
 8008W        W80268   0.953  41.697  12.026
 8009W        W80269  40.339  19.732  13.893
 8010W        W80270   3.897  27.653   0.950
 8011W        W80271   5.212  17.592   2.117
 8012W        W80272  39.857  16.833  13.939
 8013W        W80273  21.673  24.300   4.164
 8014W        W80274   5.045  22.125  11.262
 8015W        W80275  33.793   4.345   1.294
 8016W        W80276   5.025  11.119   3.370
 8017W        W80277  22.824  13.391   3.175
 8018W        W80278  14.713  18.786   5.360
 8019W        W80279   2.253  36.606   3.688
 8020W        W80280  15.924  26.558   1.905
 8021W        W80281  24.575  12.343  11.341
 8022W        W80282  16.619  15.374  13.093
 8023W        W80283  37.559  26.227   1.264
 8024W        W80284  44.295  23.540  12.914
 8025W        W80285  44.677  25.858   3.758
 8026W        W80286  14.212  14.440  14.977
 8027W        W80287  13.646   3.673   1.937
 8028W        W80288  35.472  17.794   5.473
 8029W        W80289  28.081  12.281   2.326
 8030W        W80290  11.463  19.015   0.941
 8031W        W80291  15.869  18.307   1.398
 8032W        W80292   8.654  20.645  10.445
 8033W        W80293  23.158  20.669   3.713
 8034W        W80294   6.788  28.725   2.701
 8035W        W80295  14.580  17.339  14.296
 8036W        W80296  19.071  15.081   1.817
 8037W        W80297  39.211  27.760  12.866
 8038W        W80298  37.555  20.674  14.433
 8039W        W80299  37.359  29.342   3.649
 8040W        W80300  16.801   0.013  11.627
 8041W        W80301  32.708  16.413  11.443
 8042W        W80302  12.253  36.583  12.052
 8043W        W80303  42.338   2.463  14.335
 8044W        W80304  16.294  18.039   3.671
 8045W        W80305  24.477   1.175   2.273
 8046W        W80306  25.953  14.734   2.322
 8047W        W80307  12.280  28.141   4.599
 8048W        W80308  10.033  36.376   2.738
 8049W        W80309  40.262  25.283  14.997
 8050W        W80310  35.824  28.631  12.492
 8051W        W80311  42.029  36.921   3.131
 8052W        W80312  42.632  39.967  13.341
 8053W        W80313  31.497  21.151   2.751
 8054W        W80314  30.412  39.795   4.068
 8055W        W80315  23.921  43.039  14.455
 8056W        W80316  18.153   5.185  12.776
 8057W        W80317  21.461  21.732  10.236
 8058W        W80318  16.077   5.407   2.230
 8059W        W80319  33.900  10.661   3.749
 8060W        W80320  42.797  41.447  14.905
 8061W        W80321  38.979  12.786  13.054
 8062W        W80322  21.651  23.118  12.154
 8063W        W80323  11.191   8.911  13.478
 8064W        W80324  18.049   2.511  10.595
 8065W        W80325  12.715  33.544   3.652
 8066W        W80326  30.387  15.234   2.962
 8067W        W80327  28.139  42.600  11.362
 8068W        W80328  38.367   4.525   0.720
 8069W        W80329  27.682  24.126   0.481
 8070W        W80330  44.834  28.562  12.725
 8071W        W80331   9.464  42.857   0.293
 8072W        W80332  22.460  13.882  12.841
 8073W        W80333  33.242  15.334   0.232
 8074W        W80334   9.341   1.463   0.288
 8075W        W80335   6.767  44.867  10.698
 8076W        W80336  14.125  28.258  12.728
 8077W        W80337  42.022  37.797   1.372
 8078W        W80338  40.909  24.542  13.650
 8079W        W80339  43.888  10.975  11.189
 8080W        W80340  41.632   1.296   4.272
 8081W        W80341  18.104  29.489   1.134
 8082W        W80342  14.654  30.728   4.636
 8083W        W80343  15.368  13.998  11.028
 8084W        W80344  42.903  37.303  11.597
 8085W        W80345  34.595   6.310   0.604
 8086W        W80346  13.261  13.779  11.091
 8087W        W80347   4.818  17.052   1.869
 8088W        W80348  33.387  44.589  14.205
 8089W        W80349  19.309   3.745   3.642
 8090W        W80350  27.060  42.065   3.799
 8091W        W80351  44.312  14.737   1.670
 8092W        W80352  34.541  20.654   4.220
 8093W        W80353   3.189  41.527   3.775
 8094W        W80354  21.007  27.358   0.181
 8095W        W80355  10.123   1.344   3.337
 8096W        W80356  16.198  37.330  12.464
 8097W        W80357  41.968  35.785  12.320
 8098W        W80358  44.709  35.948   4.099
 8099W        W80359  44.668  19.712   3.252
 8100W        W80360   8.334  43.696   3.585
 8101W        W80361  42.336  19.110   4.090
 8102W        W80362  38.851  21.235   4.544
 8103W        W80363  23.681  28.641  12.856
 8104W        W80364  19.626   4.880  10.637
 8105W        W80365   3.029   6.252  13.113
 8106W        W80366   7.145  32.618   1.469
 8107W        W80367  25.220  41.992   3.088
 8108W        W80368  31.805  22.521   0.872
 8109W        W80369  12.594  29.032  14.336
 8110W        W80370  21.009  18.797  13.356
 8111W        W80371   4.698  38.805   1.210
 8112W        W80372  28.583  10.279  11.523
 8113W        W80373  37.401   8.283   3.180
 8114W        W80374  14.257  30.059   3.678
 8115W        W80375  37.579  25.044   1.457
 8116W        W80376   8.102  11.890  12.927
 8117W        W80377  33.487  11.309   3.132
 8118W        W80378  12.250  18.286   0.765
 8119W        W80379  13.605  39.103   1.440
 8120W        W80380  36.936  44.066   0.753
 8121W        W80381  24.402  36.976   2.235
 8122W        W80382   3.180  38.699  11.817
 8123W        W80383  32.618  10.711  13.887
 8124W        W80384  10.083  40.500   0.658
 8125W        W80385   7.778   8.682  11.913
 8126W        W80386  28.040  27.821  12.508
 8127W        W80387  20.600  15.796   0.219
 8128W        W80388   9.238   3.449   1.313
 8129W        W80389  28.477  20.596  11.519
 8130W        W80390  33.342  16.037   1.886
 8131W        W80391  27.938  42.352   4.083
 8132W        W80392  21.605   7.345   4.198
 8133W        W80393   4.636  20.164   0.760
 8134W        W80394  29.467  37.734   4.480
 8135W        W80395  42.861  16.825   4.397
 8136W        W80396   9.070  39.127  10.596
 8137W        W80397  30.963  33.329   0.818
 8138W        W80398  24.868  38.006   0.173
 8139W        W80399  43.795   7.443  13.429
 8140W        W80400   6.867  36.590  13.349
 8141W        W80401   4.422  36.772   1.834
 8142W        W80402   8.409  17.117  14.605
 8143W        W80403  32.843  17.349   3.726
 8144W        W80404   5.225  18.179  12.581
 8145W        W80405  13.765   9.220   3.242
 8146W        W80406  34.993   4.291  11.755
 8147W        W80407   2.488  21.865   3.827
 8148W        W80408   3.848  32.508  12.525
 8149W        W80409  43.287  33.062   2.647
 8150W        W80410  22.226   0.255   3.909
 8151W        W80411  14.358   9.660   2.811
 8152W        W80412  19.690  33.345   2.345
 8153W        W80413  41.315  18.085   2.094
 8154W        W80414  23.440  13.086  11.717
 8155W        W80415  17.356  40.310   9.861
 8156W        W80416  15.796  28.283   3.925
 8157W        W80417  41.822  32.387   1.953
 8158W        W80418  34.444  29.353   0.742
 8159W        W80419   2.755   8.658  14.762
 8160W        W80420  22.575  43.342   1.277
 8161W        W80421  29.157  31.164   0.019
 8162W        W80422  18.223  40.508   0.878
 8163W        W80423  29.210  37.154   2.119
 8164W        W80424  37.847  38.983   3.111
 8165W        W80425  34.366  15.792  13.926
 8166W        W80426  36.093  29.628  10.780
 8167W        W80427  22.143  37.099   3.635
 8168W        W80428  15.674   1.866   2.377
 8169W        W80429  31.714  18.341  12.001
 8170W        W80430  14.264  19.741  14.779
 8171W        W80431   7.375   8.650   4.560
 8172W        W80432  12.228   2.696   0.955
 8173W        W80433  26.518  36.908   4.665
 8174W        W80434  18.132  17.251  13.982
 8175W        W80435  24.519  42.560  11.889
 8176W        W80436  41.774  30.371   4.962
 8177W        W80437  35.869   1.522   3.316
 8178W        W80438  33.051  40.468  11.421
 8179W        W80439  42.959  44.005  12.381
 8180W        W80440  33.534  43.757  14.835
 8181W        W80441  31.992  10.803  12.144
 8182W        W80442  25.342  10.930   2.211
 8183W        W80443  27.486  10.098   0.294
 8184W        W80444  38.028  35.795  13.816
 8185W        W80445  22.309  26.108   3.318
 8186W        W80446   1.142  39.863  14.480
 8187W        W80447  42.348  28.603  11.578
 8188W        W80448  13.700  33.051   4.344
 8189W        W80449  13.914  14.651  11.867
 8190W        W80450  43.522   7.764   0.606
 8191W        W80451   0.853  11.496   4.141
 8192W        W80452  16.990  12.832   0.761
 8193W        W80453  13.795  13.022  12.924
 8194W        W80454  35.605  33.021   3.202
 8195W        W80455  10.677  42.445   4.563
 8196W        W80456  38.496  17.615  14.400
 8197W        W80457   6.921  29.587   2.765
 8198W        W80458   7.642   2.197  10.416
 8199W        W80459  19.299  30.063   0.677
 8200W        W80460  23.264  39.435   1.420
 8201W        W80461  23.979  31.224  13.055
 8202W        W80462  32.276  35.508   0.837
 8203W        W80463  24.208   4.861  14.998
 8204W        W80464   7.485  31.463   4.928
 8205W        W80465   2.240  23.110   2.779
 8206W        W80466  19.033  41.544  12.989
 8207W        W80467  37.424  34.928  10.831
 8208W        W80468  39.541  21.751   4.179
 8209W        W80469  41.514  16.894  13.385
 8210W        W80470   8.470  28.016  11.713
 8211W        W80471   7.310  28.522   3.200
 8212W        W80472  11.383  18.615   2.657
 8213W        W80473   4.582  11.680  10.712
 8214W        W80474  21.807  33.543   0.937
 8215W        W80475  30.752  12.817  11.262
 8216W        W80476  35.972  22.951   0.469
 8217W        W80477  44.441  42.803  14.715
 8218W        W80478  17.075  36.424  14.343
 8219W        W80479  43.863   6.606  14.920
 8220W        W80480   8.601   9.877  14.758
 8221W        W80481  21.567  32.915   3.896
 8222W        W80482  42.563   3.335   5.152
 8223W        W80483   9.078  36.967   0.674
 8224W        W80484  30.052   6.623   4.690
 8225W        W80485  15.715  17.478   5.518
 8226W        W80486  20.263  44.601  11.130
 8227W        W80487  19.867   1.523   0.810
 8228W        W80488  35.137  23.100   4.922
 8229W        W80489  35.331  36.442  13.417
 8230W        W80490   0.380  27.635   2.845
 8231W        W80491   8.708  16.294   2.328
 8232W        W80492  11.807  36.312  12.026
 8233W        W80493  12.699  26.581   4.073
 8234W        W80494  31.136   8.136  13.705
 8235W        W80495  41.671  14.087  10.013
 8236W        W80496  27.878  40.554  12.865
 8237W        W80497  30.523  19.603  14.931
 8238W        W80498  12.274  13.512   1.164
 8239W        W80499  40.926  13.533   0.870
 8240W        W80500  15.744   4.211   0.420
 8241W        W80501  11.183  12.804   1.282
 8242W        W80502  38.588   9.089   3.788
 8243W        W80503  31.440  12.558  11.484
 8244W        W80504  31.186  21.807  13.940
 8245W        W80505   5.753  11.804  10.767
 8246W        W80506  14.072  39.105   1.647
 8247W        W80507  37.251  36.846  13.995
 8248W        W80508  13.305   3.222   4.602
 8249W        W80509  10.805  11.305  13.374
 8250W        W80510  28.753   1.224  13.177
 8251W        W80511   2.962  18.668   1.919
 8252W        W80512  15.555  25.951  13.285
 8253W        W80513  25.141   7.462   1.045
 8254W        W80514  38.801  37.830  10.739
 8255W        W80515  12.192   8.480   1.511
 8256W        W80516  40.430  36.539   1.853
 8257W        W80517  33.320  23.484   4.764
 8258W        W80518   6.259  40.407   1.839
 8259W        W80519  39.009  25.531  11.186
 8260W        W80520  24.601  24.335   4.829
 8261W        W80521   4.321  37.929   3.254
 8262W        W80522  29.665  37.227   1.847
 8263W        W80523  38.384  37.999   4.563
 8264W        W80524   4.811   1.983  11.054
 8265W        W80525  15.824   7.223   0.980
 8266W        W80526  28.697  39.533   4.417
 8267W        W80527  33.382  36.101  11.364
 8268W        W80528  40.028  20.833  14.430
 8269W        W80529  43.866  24.508  12.065
 8270W        W80530  15.837   3.708   0.403
 8271W        W80531  37.480  39.311  10.684
 8272W        W80532  32.471  16.836  14.387
 8273W        W80533  18.410   8.635  11.077
 8274W        W80534  34.465   5.304   4.265
 8275W        W80535  13.248  23.794   2.678
 8276W        W80536  32.412  27.322   4.200
 8277W        W80537  42.991  32.984   3.427
 8278W        W80538   5.921  34.419   0.833
 8279W        W80539   6.891  27.636  13.804
 8280W        W80540  40.357  38.664   3.722
 8281W        W80541   4.700  20.214   4.172
 8282W        W80542  39.835  16.540   3.190
 8283W        W80543  10.114  22.759   1.688
 8284W        W80544  30.342  14.148  11.568
 8285W        W80545  19.616  10.201   1.661
 8286W        W80546   2.479  10.113   3.254
 8287W        W80547  29.977  34.039   4.512
 8288W        W80548  42.859  13.136   3.360
 8289W        W80549  13.686  33.824   0.509
 8290W        W80550  38.659  13.302  13.808
 8291W        W80551  14.614   9.353  13.982
 8292W        W80552  43.970  38.427   1.336
 8293W        W80553  41.406  10.228   3.637
 8294W        W80554  13.909  21.139   1.665
 8295W        W80555  25.697  26.104  14.728
 8296W        W80556  43.086  27.888   3.799
 8297W        W80557  42.304  11.706  12.193
 8298W        W80558  10.622   2.792  11.593
 8299W        W80559  44.015   0.950  11.373
 8300W        W80560  37.446  16.614   2.311
 8301W        W80561  42.278  35.295   2.317
 8302W        W80562  41.483  23.597   0.082
 8303W        W80563   5.983  38.506  10.486
 8304W        W80564   8.615  42.340   1.734
 8305W        W80565  28.911  18.135   3.592
 8306W        W80566  38.982  27.096   3.940
 8307W        W80567  28.512   1.075  11.938
 8308W        W80568   3.259  34.527  13.243
 8309W        W80569  42.443   5.843  14.558
 8310W        W80570  42.475  26.143  14.407
 8311W        W80571   6.035  18.511   4.701
 8312W        W80572  36.891  44.030   3.914
 8313W        W80573   6.175  22.194   3.657
 8314W        W80574  44.495  12.099  12.566
 8315W        W80575  23.708  15.687   1.419
 8316W        W80576  21.266  42.226  13.956
 8317W        W80577  22.316  31.715   0.040
 8318W        W80578   6.282  28.873  11.968
 8319W        W80579  35.077  25.292   3.165
 8320W        W80580  24.954  27.385  13.951
 8321W        W80581  21.564  25.518   1.309
 8322W        W80582  23.944  26.505  10.702
 8323W        W80583   5.266  18.542   2.203
 8324W        W80584  33.233   7.716   2.562
 8325W        W80585   1.932  14.347  12.036
 8326W        W80586  44.765  40.945  10.786
 8327W        W80587  36.911  17.375   0.844
 8328W        W80588  44.351  10.045   5.032
 8329W        W80589  21.671   7.640  10.617
 8330W        W80590  30.110   2.497   1.618
 8331W        W80591  21.160  23.985  11.021
 8332W        W80592  38.028  19.825   1.895
 8333W        W80593  38.840  24.311  10.908
 8334W        W80594  43.498  20.588  11.610
 8335W        W80595  39.748  28.883  11.210
 8336W        W80596  22.400  43.888  11.122
 8337W        W80597   6.229  36.018  10.142
 8338W        W80598  41.528   1.805   4.384
 8339W        W80599  10.235  19.995  11.058
 8340W        W80600  42.752  26.034   0.289
 8341W        W80601  17.162   6.196   5.280
 8342W        W80602  22.378  26.944  13.032
 8343W        W80603  19.238  30.506   0.435
 8344W        W80604  44.214  34.636  11.649
 8345W        W80605   0.252  36.456  12.615
 8346W        W80606  23.094  41.774   1.736
 8347W        W80607   6.919  40.942   1.403
 8348W        W80608  25.960  25.692   0.832
 8349W        W80609  14.818   3.741  13.451
 8350W        W80610  44.741  41.988   1.745
 8351W        W80611  24.103  34.583  13.380
 8352W        W80612   1.867  16.010  14.460
 8353W        W80613  38.055  31.480   1.072
 8354W        W80614  39.541   2.353  13.161
 8355W        W80615   8.690   1.937  14.762
 8356W        W80616   3.943  26.950   3.149
 8357W        W80617  34.436   0.916  10.522
 8358W        W80618  25.051  35.586   1.041
 8359W        W80619  29.133  15.327  11.531
 8360W        W80620  29.161  12.421  14.378
 8361W        W80621  33.450  20.751  13.445
 8362W        W80622  20.888   2.401   3.455
 8363W        W80623  22.704  11.304   4.760
 8364W        W80624  36.486   3.725   0.920
 8365W        W80625  13.637  29.576   9.977
 8366W        W80626  24.388  25.042   1.627
 8367W        W80627  27.201  14.172   0.275
 8368W        W80628  21.685   5.176  11.054
 8369W        W80629  30.583  20.577   4.601
 8370W        W80630  30.269  31.812  12.485
 8371W        W80631  21.112  11.606   3.574
 8372W        W80632  37.531  36.295  11.531
 8373W        W80633  25.717  20.006   0.793
 8374W        W80634  13.603   8.217  11.181
 8375W        W80635  18.660  15.722   4.848
 8376W        W80636  24.236   3.323  10.804
 8377W        W80637  43.089  41.264  11.504
 8378W        W80638   3.337   2.725  12.295
 8379W        W80639  43.210  30.075  14.092
 8380W        W80640  26.585  26.988  13.935
 8381W        W80641  29.394  34.097   2.809
 8382W        W80642  29.193  36.999  12.434
 8383W        W80643  20.955  15.226  10.248
 8384W        W80644  29.384   5.198  14.370
 8385W        W80645  39.362   9.847   3.760
 8386W        W80646   4.405   0.272   4.323
 8387W        W80647  41.047   9.122  11.620
 8388W        W80648  23.148  36.826   3.732
 8389W        W80649   0.984  15.107   2.649
 8390W        W80650  20.257  44.249   4.186
 8391W        W80651  18.664  25.228   2.804
 8392W        W80652  43.918  39.404  13.565
 8393W        W80653   7.129  14.330  12.334
 8394W        W80654  17.092   2.313  14.506
 8395W        W80655   7.663   1.218   4.048
 8396W        W80656  25.477  10.250  10.643
 8397W        W80657  44.257   2.989   4.588
 8398W        W80658  27.078  40.589  11.424
 8399W        W80659  37.784  37.077  11.897
 8400W        W80660  40.133  24.075  14.826
 8401W        W80661  22.116  24.760  13.924
 8402W        W80662  17.967  25.596   4.327
 8403W        W80663  30.023   9.684  11.881
 8404W        W80664   8.275  27.838   1.398
 8405W        W80665  44.768  30.148   0.459
 8406W        W80666  28.335  11.858   4.875
 8407W        W80667  21.016  17.172  12.069
 8408W        W80668  38.006   3.196  14.860
 8409W        W80669  42.035  44.408   2.620
 8410W        W80670  30.687   5.922  14.446
 8411W        W80671  40.473   4.880   4.583
 8412W        W80672  38.416  24.256  13.838
 8413W        W80673  19.233  26.937   2.823
 8414W        W80674  31.015  39.976  14.882
 8415W        W80675  39.254   0.722   4.229
 8416W        W80676  28.897  20.352   2.337
 8417W        W80677   2.410  20.709   2.957
 8418W        W80678   8.438  38.336   0.315
 8419W        W80679  31.233  39.837   2.761
 8420W        W80680  20.608   2.874   2.627
 8421W        W80681   6.799  35.394  12.142
 8422W        W80682   7.400  11.315  12.465
 8423W        W80683   6.139  17.197   4.165
 8424W        W80684  36.089  39.276   2.817
 8425W        W80685  37.356  44.682   3.241
 8426W        W80686  31.821  27.912   1.647
 8427W        W80687   9.297  38.668  12.448
 8428W        W80688  28.962   5.953   1.947
 8429W        W80689  22.251  24.269  13.223
 8430W        W80690  41.993  41.630   2.609
 8431W        W80691  11.854   4.211   0.884
 8432W        W80692   1.402  10.635  10.425
 8433W        W80693  11.649  32.616  12.115
 8434W        W80694  34.337  14.193  13.455
 8435W        W80695   3.710  23.709   4.653
 8436W        W80696  18.221  17.378   1.061
 8437W        W80697  41.676  37.801   5.170
 8438W        W80698  12.593  32.723   3.664
 8439W        W80699   1.424  26.641  10.803
 8440W        W80700  28.944  17.566   3.880
 8441W        W80701   0.734  43.395   3.201
 8442W        W80702  18.101  15.930  12.546
 8443W        W80703  26.138  29.993  12.464
 8444W        W80704  19.135  14.885  10.684
 8445W        W80705   7.387  16.788  12.364
 8446W        W80706  34.652  40.810   3.659
 8447W        W80707  11.693  42.530  10.672
 8448W        W80708  32.604   9.116  11.203
 8449W        W80709  19.650  28.205  14.986
 8450W        W80710  35.011  39.872  13.155
 8451W        W80711   7.841  31.396   3.851
 8452W        W80712  31.967  40.041  13.796
 8453W        W80713  28.991  27.751  14.215
 8454W        W80714  20.408  30.872  11.901
 8455W        W80715   2.829  13.225   0.740
 8456W        W80716  18.920   9.861   2.826
 8457W        W80717  15.065  33.075  11.222
 8458W        W80718  20.137   1.909  12.122
 8459W        W80719   2.142   4.167   2.783
 8460W        W80720   0.406  18.205   2.456
 8461W        W80721  12.093  31.028  13.229
 8462W        W80722  18.652   9.979  12.917
 8463W        W80723   3.708  18.941  10.455
 8464W        W80724  14.358   5.747  13.036
 8465W        W80725  26.001  13.181  10.527
 8466W        W80726  27.023  28.103   4.679
 8467W        W80727   3.805  20.833   1.730
 8468W        W80728  44.985   6.004   0.724
 8469W        W80729  33.531  38.922  12.983
 8470W        W80730  19.120   3.672  12.899
 8471W        W80731   0.407   9.740  14.543
 8472W        W80732  11.795  19.717  11.591
 8473W        W80733  13.096  32.371   2.904
 8474W        W80734  34.421  29.352  11.701
 8475W        W80735  19.224  44.108   4.227
 8476W        W80736  12.196  26.786   1.870
 8477W        W80737  19.834  14.074   0.006
 8478W        W80738  17.286  26.121  11.700
 8479W        W80739  13.256   3.983  11.747
 8480W        W80740  15.215  41.245   1.345
 8481W        W80741   5.109  36.869   4.390
 8482W        W80742  15.676  13.285  10.638
 8483W        W80743  19.565  19.502  12.042
 8484W        W80744  32.334  20.208   3.612
 8485W        W80745  33.751  34.032   0.274
 8486W        W80746   8.761  23.175   2.823
 8487W        W80747  15.616  30.601  10.638
 8488W        W80748  26.485  15.273   1.769
 8489W        W80749   8.914  19.710   4.564
 8490W        W80750  29.227   0.289   1.373
 8491W        W80751  22.622  25.976  12.647
 8492W        W80752  17.809  14.256  13.056
 8493W        W80753   8.872  18.320   1.172
 8494W        W80754  17.218  14.758  10.909
 8495W        W80755  36.548  42.385   4.331
 8496W        W80756  21.827  12.708   1.175
 8497W        W80757  22.655  34.613   4.307
 8498W        W80758  28.011  17.271   0.013
 8499W        W80759  18.756  23.258   3.733
 8500W        W80760   9.149  42.424  10.597
 8501W        W80761   7.694  44.659   4.115
 8502W        W80762  25.670  16.565  11.150
 8503W        W80763  39.365  13.915  14.114
 8504W        W80764   8.952  28.963   5.124
 8505W        W80765  31.893  16.266   1.174
 8506W        W80766  24.629  19.441  14.253
 8507W        W80767  26.484  40.502   2.871
 8508W        W80768  12.678  13.735  13.519
 8509W        W80769  18.048  31.936   3.892
 8510W        W80770  31.643   9.754  13.793
 8511W        W80771  21.754  13.943   2.444
 8512W        W80772  20.547  41.282  14.762
 8513W        W80773  17.014  44.908  13.975
 8514W        W80774  26.114  39.727  11.166
 8515W        W80775  18.806  19.049   0.700
 8516W        W80776  38.300  18.582  10.585
 8517W        W80777  27.532  34.350   4.269
 8518W        W80778  23.432  17.568  14.949
 8519W        W80779  29.716   4.856   3.619
 8520W        W80780  13.900  11.849   4.159
 8521W        W80781   8.415  19.304  14.538
 8522W        W80782   7.232  12.640  11.234
 8523W        W80783  29.655   1.030  11.553
 8524W        W80784  14.933  39.421   1.140
 8525W        W80785  23.041  44.099  10.482
 8526W        W80786  41.438  21.048   4.108
 8527W        W80787  30.618  36.797   1.975
 8528W        W80788  39.996  44.542   4.251
 8529W        W80789  21.599  20.515  14.092
 8530W        W80790  26.383  39.503   1.418
 8531W        W80791  13.509   3.492  14.316
 8532W        W80792  18.329  29.302   3.771
 8533W        W80793  35.371  31.676   3.895
 8534W        W80794  35.612  20.000   5.019
 8535W        W80795  33.960   1.564  12.057
 8536W        W80796  24.341  23.187   1.244
 8537W        W80797   9.939  16.184   3.682
 8538W        W80798  30.433  38.010  10.667
 8539W        W80799  37.314  43.972   2.595
 8540W        W80800  22.505  28.663  13.500
 8541W        W80801  11.254  32.592   0.235
 8542W        W80802  20.636  35.795  14.964
 8543W        W80803  33.404  43.033  10.273
 8544W        W80804   6.406  44.253   0.161
 8545W        W80805  26.531  35.142  11.955
 8546W        W80806  22.216  33.950   4.635
 8547W        W80807  13.746  31.741   2.173
 8548W        W80808  12.270  30.379  14.782
 8549W        W80809  25.016  42.959   5.086
 8550W        W80810  36.976  11.826  10.319
 8551W        W80811  19.747  20.308   0.436
 8552W        W80812  19.657  18.044  14.638
 8553W        W80813  11.810   6.129   0.833
 8554W        W80814  11.783   7.690   3.925
 8555W        W80815  33.005  26.559   4.095
 8556W        W80816  21.499   6.919  11.116
 8557W        W80817  25.468   9.246  12.595
 8558W        W80818  41.714  26.370  11.052
 8559W        W80819   1.155  27.604   1.464
 8560W        W80820   8.173  10.835   3.280
 8561W        W80821   9.876  36.873   2.710
 8562W        W80822  26.660  38.902  11.103
 8563W        W80823  24.015  36.968  10.660
 8564W        W80824  41.382  36.618   2.430
 8565W        W80825  19.460  32.036  11.565
 8566W        W80826  26.477  12.347  14.330
 8567W        W80827  24.419  23.470   1.764
 8568W        W80828  20.241  43.536   1.162
 8569W        W80829  17.326  37.887   3.792
 8570W        W80830  35.691   9.531   3.748
 8571W        W80831  26.998  34.633  12.310
 8572W        W80832  37.942  30.369   3.273
 8573W        W80833  14.064  18.148  13.396
 8574W        W80834   4.675   7.952   4.811
 8575W        W80835  30.535   1.869  12.365
 8576W        W80836  29.944  19.183  13.929
 8577W        W80837   5.465  36.527   4.534
 8578W        W80838  19.731   2.361   2.848
 8579W        W80839  24.645  27.994   9.987
 8580W        W80840  43.942  42.453   3.341
 8581W        W80841  16.965  29.453   0.396
 8582W        W80842  42.000  26.792   3.237
 8583W        W80843  25.331  25.076   1.360
 8584W        W80844  27.600  13.213   4.548
 8585W        W80845  41.042  37.051   2.189
 8586W        W80846  35.458  41.026  11.172
 8587W        W80847  44.968  15.136   2.671
 8588W        W80848  16.798  44.922   2.371
 8589W        W80849  23.668  21.562   3.393
 8590W        W80850   6.126   4.227  13.881
 8591W        W80851  15.377  36.108  12.943
 8592W        W80852   0.432  25.467  13.419
 8593W        W80853   1.789  38.939  11.591
 8594W        W80854   7.879  35.266   0.150
 8595W        W80855  38.389  20.055   0.362
 8596W        W80856  35.034  10.279   4.197
 8597W        W80857  41.982  19.598   2.395
 8598W        W80858  13.136  32.357  14.124
 8599W        W80859  35.866  28.032   3.124
 8600W        W80860   2.279  44.269  11.282
 8601W        W80861  22.589  24.830   1.791
 8602W        W80862  20.200  30.874  14.408
 8603W        W80863  14.763  27.824   9.641
 8604W        W80864  28.435   9.840  12.458
 8605W        W80865  18.021  41.001   1.665
 8606W        W80866   9.686  32.240   0.925
 8607W        W80867  32.400   6.764   3.803
 8608W        W80868  22.109  41.718  13.415
 8609W        W80869  26.990  22.470  12.993
 8610W        W80870  28.223  15.330  12.883
 8611W        W80871  25.535   0.754   0.853
 8612W        W80872  14.406  23.712   3.226
 8613W        W80873   2.011  10.163   4.078
 8614W        W80874   2.540  42.006   4.193
 8615W        W80875  19.960  32.009  12.406
 8616W        W80876  27.331  16.925  10.955
 8617W        W80877  32.019   5.444   0.765
 8618W        W80878  23.200  21.612   1.810
 8619W        W80879  32.875  34.532   3.621
 8620W        W80880  38.596   4.446   2.156
 8621W        W80881  28.748  31.935  13.915
 8622W        W80882  32.921  19.826   2.481
 8623W        W80883  43.747  32.665  14.116
 8624W        W80884  29.310  11.849   4.540
 8625W        W80885  16.639   7.499   3.666
 8626W        W80886   1.667  36.965   2.271
 8627W        W80887   3.521  37.932  14.099
 8628W        W80888  23.252  28.187  11.022
 8629W        W80889  35.196  36.477  12.067
 8630W        W80890  13.331  31.608  12.387
 8631W        W80891  25.252  39.971   2.214
 8632W        W80892  18.802  11.293   0.888
 8633W        W80893  25.375  21.761   1.834
 8634W        W80894  25.716  25.427   1.239
 8635W        W80895  37.173  28.222  13.489
 8636W        W80896   1.467  23.500  13.971
 8637W        W80897   9.255  28.604  12.139
 8638W        W80898  44.490  27.730  14.427
 8639W        W80899  43.974  28.251  11.031
 8640W        W80900  33.880  26.436  10.175
 8641W        W80901  18.516  12.595  10.753
 8642W        W80902  31.134   4.183   0.448
 8643W        W80903  37.537  42.418   1.100
 8644W        W80904   1.241  41.784  13.945
 8645W        W80905  17.786  28.634  12.054
 8646W        W80906  14.072   3.852  11.900
 8647W        W80907   3.866  39.981   1.269
 8648W        W80908  30.166  10.013  10.575
 8649W        W80909  21.689  31.543  13.505
 8650W        W80910  17.681  10.707  12.501
 8651W        W80911  39.092  18.175  13.912
 8652W        W80912  20.122  27.551   0.248
 8653W        W80913  31.438  11.671  11.533
 8654W        W80914  32.689  33.906  14.378
 8655W        W80915  33.469  22.510  14.932
 8656W        W80916   0.445  17.207  10.718
 8657W        W80917  17.487  44.054   3.725
 8658W        W80918   9.443  29.016  12.904
 8659W        W80919  10.673   7.728   3.107
 8660W        W80920   8.887  12.197  11.562
 8661W        W80921   6.307   9.962  11.292
 8662W        W80922  22.691   3.460   0.200
 8663W        W80923  39.110  41.249   0.517
 8664W        W80924  21.924  25.168   3.307
 8665W        W80925  38.653  39.199  11.368
 8666W        W80926  27.260  33.113  10.675
 8667W        W80927  38.283   8.683   3.746
 8668W        W80928  24.715   5.426   3.613
 8669W        W80929  25.495  18.525  12.086
 8670W        W80930   4.345  30.513   2.613
 8671W        W80931  35.439  17.510  13.827
 8672W        W80932  34.534  14.294   2.172
 8673W        W80933  39.255  21.148   1.205
 8674W        W80934  25.018  12.792   3.191
 8675W        W80935  12.376  25.476  13.032
 8676W        W80936  42.052  39.349  12.954
 8677W        W80937  15.600   5.670  11.662
 8678W        W80938  41.036   4.953  10.191
 8679W        W80939   6.723  38.953  14.834
 8680W        W80940  10.746  30.998   2.367
 8681W        W80941  34.369  26.990   4.454
 8682W        W80942  32.885   7.234  13.111
 8683W        W80943  37.266  28.761   1.291
 8684W        W80944  14.056  39.553   0.779
 8685W        W80945  33.919  27.678   4.051
 8686W        W80946  28.936   8.923   2.176
 8687W        W80947  34.409  37.135   3.000
 8688W        W80948   4.696  27.232   4.188
 8689W        W80949  31.567   8.679  11.950
 8690W        W80950  19.500  15.192  13.216
 8691W        W80951  10.374  23.935  14.037
 8692W        W80952  12.348  41.326  10.672
 8693W        W80953   7.807  15.432   2.166
 8694W        W80954  28.427  31.133  12.964
 8695W        W80955   2.853   7.639   3.000
 8696W        W80956   3.695   1.839  14.981
 8697W        W80957  44.123  35.886   1.264
 8698W        W80958  19.837  34.982   3.749
 8699W        W80959  35.411  11.824   2.309
 8700W        W80960  31.192  31.984  14.854
 8701W        W80961  36.013  24.302   4.438
 8702W        W80962  29.995   7.460   4.978
 8703W        W80963  34.653  41.874   1.162
 8704W        W80964   9.711  35.414  12.569
 8705W        W80965  35.979   5.474   4.187
 8706W        W80966  26.578  26.418  12.847
 8707W        W80967  39.572  25.610  11.087
 8708W        W80968   5.333  26.523  10.125
 8709W        W80969   7.331  30.784   4.763
 8710W        W80970  11.410  38.315  11.181
 8711W        W80971   6.453  20.260   2.693
 8712W        W80972   4.249  24.239  10.514
 8713W        W80973  26.233  14.318  14.381
 8714W        W80974   2.573  30.041   0.828
 8715W        W80975  35.872  18.012  10.511
 8716W        W80976  41.410  36.467   1.558
 8717W        W80977  38.632  18.625   2.145
 8718W        W80978  22.942  37.954  12.574
 8719W        W80979  16.719   2.073   2.769
 8720W        W80980  25.431  19.636   5.101
 8721W        W80981   1.516  16.124  11.920
 8722W        W80982  43.236  11.315   1.580
 8723W        W80983  34.073  17.431  14.900
 8724W        W80984  34.509  15.290  13.932
 8725W        W80985  10.582  27.022  11.397
 8726W        W80986  14.353  29.478  11.162
 8727W        W80987  38.553  30.368  10.318
 8728W        W80988   0.645  39.375  12.444
 8729W        W80989   8.874  40.955   1.766
 8730W        W80990  14.590  18.119   3.792
 8731W        W80991   0.573  22.675  11.622
 8732W        W80992   2.771  10.954  12.089
 8733W        W80993  25.778  14.186  12.906
 8734W        W80994  20.297  29.760  12.580
 8735W        W80995  34.514  13.033  14.810
 8736W        W80996  32.508  37.986   1.675
 8737W        W80997  18.258  17.759   3.956
 8738W        W80998  25.125  29.002  14.378
 8739W        W80999  34.160  25.430   0.906
 8740W        W81000  35.967  37.802  13.761
 8741W        W81001  15.136  15.982  11.153
 8742W        W81002  16.001  39.959  12.882
 8743W        W81003  30.718  28.024   1.264
 8744W        W81004   4.779  44.729   0.986
 8745W        W81005  27.417  33.940  13.682
 8746W        W81006  34.740  40.599  11.128
 8747W        W81007  16.150  42.766   1.921
 8748W        W81008  35.848  24.199   2.256
 8749W        W81009  11.104  41.955  13.193
 8750W        W81010  33.460   1.849  14.269
 8751W        W81011  31.550  22.140   2.396
 8752W        W81012  37.882  32.930   4.622
 8753W        W81013  24.962   6.738   0.111
 8754W        W81014   3.417  17.128  13.094
 8755W        W81015  33.095  14.933  11.612
 8756W        W81016  40.492  12.684   4.522
 8757W        W81017   5.959  24.586   2.821
 8758W        W81018  42.299  37.459  11.919
 8759W        W81019   6.763   8.233  12.733
 8760W        W81020  10.102  42.407  11.566
 8761W        W81021  24.950  26.638   2.964
 8762W        W81022  13.301  44.800   1.047
 8763W        W81023   2.564  21.745  14.394
 8764W        W81024  35.519  13.929  13.808
 8765W        W81025  15.622  23.755   4.635
 8766W        W81026  32.903   7.401   4.068
 8767W        W81027  27.767  13.063   0.377
 8768W        W81028   4.422   1.810  13.452
 8769W        W81029  22.190   6.844  10.731
 8770W        W81030  40.242   4.751  11.492
 8771W        W81031  19.809   6.761   3.612
 8772W        W81032  30.848   1.396   2.512
 8773W        W81033  14.729  15.063   5.068
 8774W        W81034  33.721  42.419   3.281
 8775W        W81035  42.659  22.671  12.327
 8776W        W81036  36.611  16.959  12.923
 8777W        W81037  40.893   4.288  11.696
 8778W        W81038  25.000   5.995   0.254
 8779W        W81039  30.841  16.829  14.441
 8780W        W81040  38.957   9.465  11.806
 8781W        W81041  32.447  39.396   2.882
 8782W        W81042  36.323  37.896  13.354
 8783W        W81043  31.481  28.995  13.894
 8784W        W81044  11.304  13.767  14.699
 8785W        W81045  39.827  28.015   4.912
 8786W        W81046   3.481  12.699  12.956
 8787W        W81047  12.396  27.136  14.457
 8788W        W81048  34.343  21.013   1.923
 8789W        W81049   7.016  11.149   3.719
 8790W        W81050   8.851  36.151  14.083
 8791W        W81051  44.809   8.725  13.487
 8792W        W81052   4.275  30.116   0.896
 8793W        W81053   7.783   6.621  14.901
 8794W        W81054  27.535  34.138   2.789
 8795W        W81055  23.277  14.229  12.997
 8796W        W81056  40.077  33.014   1.420
 8797W        W81057  17.334  40.868  11.141
 8798W        W81058  34.823   4.736   3.147
 8799W        W81059   1.500  15.849  12.392
 8800W        W81060  27.645  19.802   4.168
 8801W        W81061  30.148  10.191   3.866
 8802W        W81062   6.665  10.714  12.380
 8803W        W81063  39.658   9.415   0.260
 8804W        W81064   8.317  27.599  12.514
 8805W        W81065  29.704  14.104  14.000
 8806W        W81066  34.020  10.605   0.331
 8807W        W81067  43.435   5.801  11.557
 8808W        W81068  30.703  30.651  11.918
 8809W        W81069  10.610  22.126  12.991
 8810W        W81070  30.008  38.511  14.588
 8811W        W81071  19.525  26.253  11.447
 8812W        W81072  16.096   2.786  11.190
 8813W        W81073  20.629   7.400  14.293
 8814W        W81074  17.277  19.615  14.955
 8815W        W81075  32.615  14.059   3.676
 8816W        W81076  36.706  30.443  13.813
 8817W        W81077  30.536  15.626  13.091
 8818W        W81078  10.381  27.054   1.490
 8819W        W81079  10.692  14.755  14.555
 8820W        W81080  18.810  16.534  11.175
 8821W        W81081  19.772  33.436  13.381
 8822W        W81082   5.156  26.300   5.128
 8823W        W81083  27.953   1.178  12.518
 8824W        W81084  42.349  38.946  13.124
 8825W        W81085   9.715  40.609   3.686
 8826W        W81086   6.080  18.555   3.217
 8827W        W81087  31.099  25.731  10.783
 8828W        W81088   0.795  16.567   2.638
 8829W        W81089  35.912   7.270   5.120
 8830W        W81090  26.157  25.768   1.285
 8831W        W81091  22.225  20.158   9.673
 8832W        W81092  44.065  13.050   0.399
 8833W        W81093  19.749  13.174   2.759
 8834W        W81094  16.794  29.657   4.610
 8835W        W81095   8.710  29.065   4.685
 8836W        W81096  13.091  39.462  11.929
 8837W        W81097  44.897   0.420  14.402
 8838W        W81098   3.329  24.912   4.525
 8839W        W81099  42.368  32.039   2.545
 8840W        W81100  23.943  42.326   2.743
 8841W        W81101  14.041  31.061  10.986
 8842W        W81102  33.615  25.598  14.478
 8843W        W81103  34.402  23.308   2.127
 8844W        W81104   2.941  36.789   0.928
 8845W        W81105  11.809  41.929  14.438
 8846W        W81106  42.725  20.605   1.236
 8847W        W81107  34.519  21.252   1.443
 8848W        W81108  11.139  42.214  13.962
 8849W        W81109   4.277  31.337   4.588
 8850W        W81110  38.466  29.564  14.979
 8851W        W81111   0.444  37.138   0.913
 8852W        W81112  32.585  39.472   1.348
 8853W        W81113   7.687  24.601   0.806
 8854W        W81114  44.451  26.139   0.854
 8855W        W81115   9.225  34.773   4.064
 8856W        W81116  13.647  11.139  13.062
 8857W        W81117  31.958  15.855   1.925
 8858W        W81118  11.155  41.889   2.280
 8859W        W81119  40.033  35.955  11.520
 8860W        W81120  22.151  42.394  13.020
 8861W        W81121  30.771  19.323   0.892
 8862W        W81122  24.590  40.806   5.021
 8863W        W81123  12.302  28.870   2.723
 8864W        W81124  23.084  28.531   1.353
 8865W        W81125   0.356  10.439   4.861
 8866W        W81126  32.534  38.629  14.802
 8867W        W81127  28.967  38.083  14.550
 8868W        W81128  34.847  43.797  14.502
 8869W        W81129  39.774  27.678   0.430
 8870W        W81130  26.079  38.158   4.874
 8871W        W81131  11.844  42.743   4.236
 8872W        W81132   3.054  11.802   0.851
 8873W        W81133  15.578   1.885  13.876
 8874W        W81134  40.113  18.758  13.061
 8875W        W81135  10.233  38.087  12.455
 8876W        W81136  22.068   2.898  14.315
 8877W        W81137  26.693   9.048  14.011
 8878W        W81138  31.167  17.764  12.078
 8879W        W81139  18.036  31.019   3.569
 8880W        W81140  13.530   1.716   2.814
 8881W        W81141   4.288   3.739  11.453
 8882W        W81142  44.899   1.276   1.109
 8883W        W81143  35.889  16.330  12.916
 8884W        W81144  12.664  40.944   2.232
 8885W        W81145  31.996  10.383   2.427
 8886W        W81146   8.320  42.273   4.139
 8887W        W81147  12.724  22.114   2.498
 8888W        W81148  38.321  37.562  14.266
 8889W        W81149  29.555  21.727  14.986
 8890W        W81150  41.212  10.753   0.433
 8891W        W81151  32.793  16.414   3.659
 8892W        W81152  25.740   9.922   2.212
 8893W        W81153  34.786  40.388  13.866
 8894W        W81154   1.500  10.298   3.175
 8895W        W81155  24.668   4.888   4.359
 8896W        W81156   2.197   3.287  13.527
 8897W        W81157  16.276   3.860  13.201
 8898W        W81158  17.751  22.415   0.320
 8899W        W81159  42.369  12.930  11.935
 8900W        W81160  36.008  43.005   3.215
 8901W        W81161  28.127  19.944  14.417
 8902W        W81162  18.283  28.999   2.457
 8903W        W81163   3.920   3.221   2.189
 8904W        W81164   4.401  22.492   1.856
 8905W        W81165   0.079  28.507   4.137
 8906W        W81166  32.330  44.199  11.248
 8907W        W81167  31.544   3.386   0.487
 8908W        W81168  28.215  35.735   3.649
 8909W        W81169  14.278   2.861  10.969
 8910W        W81170   4.530   1.403  12.078
 8911W        W81171  18.968  18.040  13.433
 8912W        W81172   7.860   4.176   0.425
 8913W        W81173  31.130  11.849  14.016
 8914W        W81174  33.189  34.589  12.423
 8915W        W81175  27.937  39.445   0.222
 8916W        W81176  44.862  42.755  14.345
 8917W        W81177  32.069  10.582  11.648
 8918W        W81178  37.196   8.022   2.167
 8919W        W81179  44.418  25.554  12.647
 8920W        W81180  19.336  23.016   1.976
 8921W        W81181  26.591  24.782   0.337
 8922W        W81182   5.408  38.455   1.152
 8923W        W81183   5.797  17.593  11.977
 8924W        W81184  22.957  38.814  12.821
 8925W        W81185   0.905  16.085   2.417
 8926W        W81186  19.247  21.726   1.407
 8927W        W81187  31.986  27.916   4.615
 8928W        W81188   3.463  41.299  13.185
 8929W        W81189  41.499   2.869   1.394
 8930W        W81190   8.504  42.124  13.296
 8931W        W81191  21.476   3.522   4.669
 8932W        W81192   3.903  15.651   4.165
 8933W        W81193  37.397  20.652  13.920
 8934W        W81194  39.609  30.366  13.462
 8935W        W81195  22.167  32.937   4.334
 8936W        W81196  37.355  27.613   3.908
 8937W        W81197  11.425  17.642   4.404
 8938W        W81198   1.340   9.364  14.967
 8939W        W81199  39.442  15.989   3.733
 8940W        W81200  25.430  30.488  10.607
 8941W        W81201  14.709  23.914  12.441
 8942W        W81202  27.561  11.780   4.061
 8943W        W81203  36.598   9.350   3.095
 8944W        W81204  28.556  30.143   1.343
 8945W        W81205  40.963  11.866   0.031
 8946W        W81206  40.416   1.296   1.189
 8947W        W81207  13.137  13.185  12.513
 8948W        W81208  41.521   5.215   1.299
 8949W        W81209  24.417   6.160   4.653
 8950W        W81210  12.766   0.789  10.998
 8951W        W81211  18.697  34.864   4.648
 8952W        W81212  41.272  36.831   0.063
 8953W        W81213  19.119  31.916   0.507
 8954W        W81214  10.774   7.844  12.951
 8955W        W81215   6.736  18.415   4.376
 8956W        W81216  15.166  26.276   3.014
 8957W        W81217  16.841  18.765   4.557
 8958W        W81218  33.450  24.035   1.907
 8959W        W81219   5.660  20.100   3.149
 8960W        W81220  33.640   3.008  12.446
 8961W        W81221  12.494  27.554  10.631
 8962W        W81222   9.485  11.563   4.490
 8963W        W81223   1.303  42.068  11.972
 8964W        W81224  11.635  15.912   9.922
 8965W        W81225  27.388  42.432   3.148
 8966W        W81226   3.010  34.528   2.482
 8967W        W81227  36.829  22.682   4.537
 8968W        W81228  38.454  23.231  12.856
 8969W        W81229   2.788  33.617   4.427
 8970W        W81230   2.565  26.582   1.710
 8971W        W81231  40.882  39.968   3.872
 8972W        W81232  36.603  29.746  14.336
 8973W        W81233  24.844  29.727   1.368
 8974W        W81234   5.704  19.781   1.325
 8975W        W81235  23.711   6.013  11.247
 8976W        W81236   4.198  42.978   0.318
 8977W        W81237   7.239  22.442   0.254
 8978W        W81238  43.470  35.124   1.832
 8979W        W81239  33.340  30.879  14.866
 8980W        W81240  21.224  13.040   0.259
 8981W        W81241  44.216  36.555  12.346
 8982W        W81242  13.035   0.844   3.641
 8983W        W81243  24.634   7.902   2.336
 8984W        W81244   7.745  25.464   1.179
 8985W        W81245   1.220   1.252  11.395
 8986W        W81246  30.231  13.977   3.281
 8987W        W81247  31.169  37.419  10.774
 8988W        W81248  39.011  31.057   4.567
 8989W        W81249  32.554  37.092  14.857
 8990W        W81250  16.174  44.978   4.625
 8991W        W81251  32.023  33.639   4.452
 8992W        W81252  30.628  15.133   4.960
 8993W        W81253  44.591  20.810   3.791
 8994W        W81254  35.251   6.357  11.656
 8995W        W81255  11.640   3.938   2.260
 8996W        W81256  28.707  29.023  10.592
 8997W        W81257  14.034  17.604   4.385
 8998W        W81258  24.782  43.465  14.498
 8999W        W81259  31.244  14.180   0.061
 9000W        W81260  24.221   7.243   0.087
 9001W        W81261  17.296  10.149   0.793
 9002W        W81262  28.473   7.498  10.609
 9003W        W81263  16.362   6.331  10.691
 9004W        W81264  36.059  34.120   4.895
 9005W        W81265  35.380  24.114  12.862
 9006W        W81266  30.466  36.778   3.873
 9007W        W81267  31.603   1.619  14.783
 9008W        W81268  41.297  36.494  11.731
 9009W        W81269  32.968   6.291  11.142
 9010W        W81270  34.435  43.691  11.881
 9011W        W81271  17.593  28.080  12.023
 9012W        W81272  17.964  14.596   4.794
 9013W        W81273  39.063  23.521  11.390
 9014W        W81274  29.061  35.647   2.370
 9015W        W81275   3.751  20.010   2.757
 9016W        W81276  15.576  43.783  14.036
 9017W        W81277   1.019  26.032   2.708
 9018W        W81278   8.526   8.305   2.706
 9019W        W81279  21.500  33.626  11.654
 9020W        W81280   4.843  26.086   5.508
 9021W        W81281  39.696  16.475   1.205
 9022W        W81282  38.978  20.062  12.437
 9023W        W81283  17.271   4.664  13.329
 9024W        W81284  10.562   9.740  10.283
 9025W        W81285  17.840  16.803   0.264
 9026W        W81286   2.015  12.887  12.964
 9027W        W81287  21.054  29.886   1.310
 9028W        W81288  24.175  34.708   4.509
 9029W        W81289  23.149   8.420   1.552
 9030W        W81290  33.810   3.745   4.659
 9031W        W81291   7.985  37.799  12.699
 9032W        W81292  13.026  23.641   1.229
 9033W        W81293  28.081  21.411   2.544
 9034W        W81294  13.366   0.422   3.550
 9035W        W81295  27.069  24.526   2.339
 9036W        W81296   9.396  13.830  11.386
 9037W        W81297  29.157  25.677  11.636
 9038W        W81298  32.150  42.560  11.532
 9039W        W81299  22.929  35.541  11.222
 9040W        W81300  31.036   3.206   3.878
 9041W        W81301  29.018  13.243  13.598
 9042W        W81302  13.751  39.792   2.242
 9043W        W81303  38.062  32.563  11.994
 9044W        W81304  20.797  32.097   0.313
 9045W        W81305   3.989  34.096  14.541
 9046W        W81306  30.956  42.016   0.356
 9047W        W81307  28.333  14.660  12.676
 9048W        W81308  27.338  44.357   0.752
 9049W        W81309  38.111  44.941  14.717
 9050W        W81310  23.259  19.398  14.398
 9051W        W81311  22.467  36.062  14.019
 9052W        W81312  39.526   3.683  12.974
 9053W        W81313  43.177  15.669   0.318
 9054W        W81314  23.905  16.325   0.790
 9055W        W81315  37.107  15.513   0.179
 9056W        W81316  25.721  17.796   3.777
 9057W        W81317   9.768  26.456  10.617
 9058W        W81318  43.801   4.831   0.766
 9059W        W81319   7.881  28.149  14.392
 9060W        W81320  25.720  22.821  10.509
 9061W        W81321  29.355  22.043   3.179
 9062W        W81322  26.810  24.061  10.710
 9063W        W81323  28.602   3.459  11.906
 9064W        W81324  38.975   7.350  10.529
 9065W        W81325  31.241   3.725   4.035
 9066W        W81326  44.778  37.351  12.928
 9067W        W81327  16.013  38.054   4.082
 9068W        W81328  17.197   4.658  11.481
 9069W        W81329   8.836  30.947  11.971
 9070W        W81330  15.846  12.805   4.254
 9071W        W81331  33.522  35.662  11.123
 9072W        W81332  20.629  28.430   0.433
 9073W        W81333   1.335  33.503   2.559
 9074W        W81334  41.406  43.459  12.057
 9075W        W81335  17.776  11.297  12.014
 9076W        W81336  12.668  40.809  14.873
 9077W        W81337  39.938   0.329  12.886
 9078W        W81338   1.509  27.022  11.530
 9079W        W81339  12.393  22.285   2.949
 9080W        W81340  31.834  42.409   4.769
 9081W        W81341  26.667  42.794  12.859
 9082W        W81342  29.388  22.073   1.399
 9083W        W81343  13.940   9.713  11.886
 9084W        W81344  27.647   3.359   0.350
 9085W        W81345   4.888  39.776  12.419
 9086W        W81346  11.307   0.553   4.085
 9087W        W81347  24.435  28.691  11.994
 9088W        W81348  44.212  34.481   0.848
 9089W        W81349  27.486  44.801   2.833
 9090W        W81350  23.259  10.896  12.975
 9091W        W81351  36.129  12.289   2.290
 9092W        W81352  31.930  33.112   2.161
 9093W        W81353  22.472   4.351   0.395
 9094W        W81354  36.286   7.150   1.901
 9095W        W81355  16.179  21.695   3.626
 9096W        W81356  35.894  39.970   3.284
 9097W        W81357  20.215  24.060   3.312
 9098W        W81358  28.262  43.017   2.828
 9099W        W81359  14.094  17.605  10.429
 9100W        W81360   0.210  28.159   0.651
 9101W        W81361  29.711  36.534  12.893
 9102W        W81362  37.343  21.041   2.293
 9103W        W81363   3.601   0.370   2.240
 9104W        W81364   4.173  35.543   4.533
 9105W        W81365  25.742  44.669  11.166
 9106W        W81366   9.370  12.806  12.092
 9107W        W81367  29.440  15.710   1.156
 9108W        W81368  23.217  35.854   2.024
 9109W        W81369  11.055  15.131   0.978
 9110W        W81370  26.480   4.379  11.865
 9111W        W81371  10.100   4.994   3.230
 9112W        W81372  42.508  28.628  12.973
 9113W        W81373  18.291   7.433   0.404
 9114W        W81374  35.390  20.005  12.977
 9115W        W81375   8.215  20.094  12.061
 9116W        W81376  19.613   1.336   4.890
 9117W        W81377  16.684   4.281   0.926
 9118W        W81378  43.345  37.934  11.948
 9119W        W81379   6.064  19.637  11.156
 9120W        W81380  25.274   8.897  11.409
 9121W        W81381  43.531  20.055   2.289
 9122W        W81382  28.499  12.962  14.813
 9123W        W81383  24.035  10.434  10.132
 9124W        W81384  15.527  13.986   0.340
 9125W        W81385  12.223   9.849   2.407
 9126W        W81386  43.988   3.644  13.927
 9127W        W81387  44.865  37.614   2.985
 9128W        W81388  29.083  41.886   4.454
 9129W        W81389  14.231   6.750  11.454
 9130W        W81390  36.551  32.115   4.956
 9131W        W81391  12.804  39.361   4.042
 9132W        W81392  28.395  23.643  14.213
 9133W        W81393  30.881  21.605  13.573
 9134W        W81394  11.127  11.143  12.062
 9135W        W81395  27.984  30.902   0.870
 9136W        W81396  17.073  27.902   3.980
 9137W        W81397  19.154  21.981  13.323
 9138W        W81398  37.116   7.092   9.988
 9139W        W81399  11.007  10.385  14.890
 9140W        W81400  16.079  42.969   4.297
 9141W        W81401  38.557   3.842   4.656
 9142W        W81402  25.327  38.433  12.850
 9143W        W81403   1.148  21.719   1.790
 9144W        W81404  22.838   9.157   1.820
 9145W        W81405  33.777  21.530   5.178
 9146W        W81406  31.788  31.158  11.149
 9147W        W81407  27.678   0.483  11.586
 9148W        W81408  42.587   0.785   3.299
 9149W        W81409   2.122  42.412   1.448
 9150W        W81410   5.914  26.003   3.843
 9151W        W81411  42.287  11.881   1.963
 9152W        W81412  35.865  15.647  10.942
 9153W        W81413  33.457  19.495   5.326
 9154W        W81414   1.183  32.820   3.084
 9155W        W81415   9.922   3.684   3.102
 9156W        W81416  33.537  35.481   4.598
 9157W        W81417  44.837  13.503   0.988
 9158W        W81418   1.308  28.080  13.485
 9159W        W81419   0.755   7.280   0.855
 9160W        W81420  21.173   4.840   4.965
 9161W        W81421  10.861  42.335   1.330
 9162W        W81422  33.761  36.542   4.187
 9163W        W81423   1.956  24.188  12.946
 9164W        W81424  31.598  16.242   2.304
 9165W        W81425  21.014  21.450  12.086
 9166W        W81426   0.397  36.272   3.733
 9167W        W81427  28.481  37.363  13.746
 9168W        W81428  39.735   3.680   2.250
 9169W        W81429  28.076   4.619  11.620
 9170W        W81430  38.074   7.288   3.625
 9171W        W81431  24.390  32.608  11.488
 9172W        W81432  44.129   5.565  14.958
 9173W        W81433   8.262  22.222  11.489
 9174W        W81434  34.727  37.145   0.901
 9175W        W81435  16.110   9.795   3.148
 9176W        W81436  10.894  42.888   1.882
 9177W        W81437   4.806  20.074  11.027
 9178W        W81438  43.590   8.172  14.929
 9179W        W81439   5.832  29.272  11.215
 9180W        W81440  13.183   7.891   3.225
 9181W        W81441  44.152  15.733   0.472
 9182W        W81442   9.231  23.551   5.048
 9183W        W81443  19.745  12.707  11.455
 9184W        W81444  42.461   2.674  12.283
 9185W        W81445  18.123   7.863  14.253
 9186W        W81446  14.629  27.077  10.364
 9187W        W81447  42.076   3.453   4.999
 9188W        W81448   5.948  22.508   4.219
 9189W        W81449  15.967   2.865   2.353
 9190W        W81450  14.657  31.242   3.179
 9191W        W81451  16.836   3.292  12.544
 9192W        W81452  43.382  14.190   0.991
 9193W        W81453  34.350  43.868   2.668
 9194W        W81454  17.369   1.270   1.173
 9195W        W81455  10.413  27.904  12.617
 9196W        W81456  38.721  23.363  11.055
 9197W        W81457  14.184  17.709  11.911
 9198W        W81458  20.507   2.393   2.427
 9199W        W81459  23.548  33.122  10.697
 9200W        W81460  14.892  43.319  11.038
 9201W        W81461  39.444  38.993   2.275
 9202W        W81462  10.899   5.922  14.026
 9203W        W81463  38.991  35.845   3.825
 9204W        W81464  25.532  31.260   0.527
 9205W        W81465   2.914  31.863   3.891
 9206W        W81466  24.643  23.434  11.160
 9207W        W81467   5.848  21.764   0.309
 9208W        W81468  29.417  15.601  11.157
 9209W        W81469   8.272   9.158   2.313
 9210W        W81470   2.018  16.764   1.826
 9211W        W81471  16.291  13.744  14.829
 9212W        W81472   9.819  16.843  10.375
 9213W        W81473  19.601  23.095  11.497
 9214W        W81474  44.354  30.613  11.881
 9215W        W81475  11.291   7.711  14.828
 9216W        W81476  10.051  26.901  10.644
 9217W        W81477  23.981  15.335  14.055
 9218W        W81478  30.634  33.355   0.422
 9219W        W81479   6.252   5.616  14.870
 9220W        W81480  43.865   3.478   4.256
 9221W        W81481  14.947  28.405  14.868
 9222W        W81482  13.736  18.926  10.359
 9223W        W81483  10.675  37.414  14.831
 9224W        W81484  25.746   6.441   3.113
 9225W        W81485  18.640   2.699   4.846
 9226W        W81486  33.612  21.758   4.011
 9227W        W81487  26.519  24.561   0.879
 9228W        W81488  43.252  26.641  13.235
 9229W        W81489  40.066  13.974  14.312
 9230W        W81490  40.759   2.734  14.798
 9231W        W81491  43.266   6.816   3.138
 9232W        W81492  28.105  11.399   1.369
 9233W        W81493  20.992  20.451   1.269
 9234W        W81494  12.185   5.892  12.935
 9235W        W81495   8.892  27.859  12.294
 9236W        W81496  25.689  41.864   3.272
 9237W        W81497  28.250  13.886   1.600
 9238W        W81498  36.083  38.522   3.268
 9239W        W81499  22.569  17.552  11.017
 9240W        W81500  28.660  34.932   3.642
 9241W        W81501  16.390  19.085   0.069
 9242W        W81502  33.894  41.374   2.478
 9243W        W81503  19.631  44.797  14.073
 9244W        W81504  42.892  15.562  13.994
 9245W        W81505  39.338  16.157  13.008
 9246W        W81506  28.275   1.010  10.135
 9247W        W81507  36.385   9.351  12.403
 9248W        W81508  18.618  19.765  14.969
 9249W        W81509  39.394   4.358  12.510
 9250W        W81510  25.005  14.082  12.418
 9251W        W81511  31.000  33.426   4.624
 9252W        W81512  42.012  35.108  11.576
 9253W        W81513  12.938  27.501  12.302
 9254W        W81514   6.377  26.190  11.971
 9255W        W81515  13.010  41.258   5.116
 9256W        W81516   0.493  12.126   4.699
 9257W        W81517  37.967  17.686   3.903
 9258W        W81518  12.104   0.694   3.210
 9259W        W81519  21.545  16.229   2.444
 9260W        W81520  13.819  34.415  13.738
 9261W        W81521  37.928  41.242   3.554
 9262W        W81522  10.151   2.498   2.695
 9263W        W81523   8.428   1.141  14.796
 9264W        W81524   4.156  17.096   4.213
 9265W        W81525  36.063  30.703  12.126
 9266W        W81526  31.712  15.003   1.905
 9267W        W81527  35.531  10.226  14.473
 9268W        W81528  26.465  37.729   4.070
 9269W        W81529  25.755  11.831   4.623
 9270W        W81530  33.466  44.034   2.117
 9271W        W81531   0.237  31.625  12.119
 9272W        W81532  19.788   9.650  10.843
 9273W        W81533  30.676   5.393  11.107
 9274W        W81534  27.065  19.451  11.450
 9275W        W81535  30.597   5.491  12.427
 9276W        W81536  26.148  14.832   0.014
 9277W        W81537  14.190  39.026   0.931
 9278W        W81538  21.615  29.416  14.218
 9279W        W81539  36.301  14.732  11.158
 9280W        W81540  27.193  41.138   3.187
 9281W        W81541  35.620  18.976   1.271
 9282W        W81542  10.109  31.099   5.074
 9283W        W81543  29.117  16.660  11.014
 9284W        W81544  22.496  10.410   0.417
 9285W        W81545  22.005  10.913  12.440
 9286W        W81546  32.612  22.610  13.834
 9287W        W81547  43.570  43.986  12.064
 9288W        W81548   6.279  21.280  14.490
 9289W        W81549  27.717  37.563   3.699
 9290W        W81550  23.740  29.119   3.207
 9291W        W81551  10.230  39.084  12.415
 9292W        W81552  41.225  36.798  12.870
 9293W        W81553  38.926  16.355  10.472
 9294W        W81554  23.966  36.613  12.392
 9295W        W81555  29.704   5.216   4.184
 9296W        W81556  43.856   4.974  11.819
 9297W        W81557  11.345  44.548   0.474
 9298W        W81558   1.688  13.844  12.040
 9299W        W81559   6.919  36.405   0.431
 9300W        W81560  22.408  36.465   4.408
 9301W        W81561  15.373   5.080  12.137
 9302W        W81562  35.165  21.540  12.020
 9303W        W81563  41.484  25.631   4.488
 9304W        W81564  34.833   9.349   4.724
 9305W        W81565  39.524  21.064   0.766
 9306W        W81566   4.459  42.520  10.717
 9307W        W81567  27.707  42.337  14.474
 9308W        W81568  20.253  29.553  14.575
 9309W        W81569  33.607   4.403  13.124
 9310W        W81570   5.654   6.791   2.192
 9311W        W81571  18.701   1.327   4.323
 9312W        W81572  38.029   3.977   4.637
 9313W        W81573  37.783  31.405   4.170
 9314W        W81574   5.442  37.319  10.637
 9315W        W81575   4.831   0.443   2.619
 9316W        W81576  29.198   9.816   2.197
 9317W        W81577  30.945  33.924   4.494
 9318W        W81578  39.895  33.424   4.254
 9319W        W81579  44.110  10.411   4.231
 9320W        W81580   3.250  14.592  13.934
 9321W        W81581  16.073  29.602  14.258
 9322W        W81582   9.283  13.061   1.129
 9323W        W81583  22.091  36.738   0.312
 9324W        W81584  17.174   6.637  10.856
 9325W        W81585  27.483  13.833  13.445
 9326W        W81586   4.875  28.119   4.727
 9327W        W81587  26.889  22.556   0.305
 9328W        W81588   8.286  25.270   2.217
 9329W        W81589  19.015  10.378  10.877
 9330W        W81590  33.181  22.702   0.322
 9331W        W81591  18.571   9.147  13.497
 9332W        W81592  25.071   2.840   3.251
 9333W        W81593  11.643  11.124  12.093
 9334W        W81594  15.139  36.883  13.372
 9335W        W81595  37.997   6.287  11.177
 9336W        W81596  37.000   7.449   5.379
 9337W        W81597  12.555  18.997  12.860
 9338W        W81598  14.251  16.253   1.101
 9339W        W81599  16.687  34.418   2.297
 9340W        W81600  27.974   8.388  11.107
 9341W        W81601   4.848  36.776  14.456
 9342W        W81602   5.409  42.987   2.884
 9343W        W81603  33.069  17.225  13.251
 9344W        W81604  35.722  33.522   3.482
 9345W        W81605  15.034  36.337   3.779
 9346W        W81606   7.855  33.553   0.037
 9347W        W81607  14.584  10.126  12.563
 9348W        W81608  22.693  23.030   3.617
 9349W        W81609  16.759   7.903  11.160
 9350W        W81610  35.465  36.932  12.089
 9351W        W81611  23.738  42.893  12.805
 9352W        W81612  29.100  26.533  12.241
 9353W        W81613  28.963  16.659   4.033
 9354W        W81614  21.306   9.826  12.948
 9355W        W81615  16.026  26.562  10.703
 9356W        W81616   3.219  41.804  11.602
 9357W        W81617  43.656  19.037  12.671
 9358W        W81618  15.063  28.299  11.933
 9359W        W81619  24.051  44.970  12.677
 9360W        W81620  27.648  14.701  14.961
 9361W        W81621  38.352   9.879   0.964
 9362W        W81622   9.739  38.890   3.939
 9363W        W81623  21.722   8.337   2.213
 9364W        W81624  40.377  25.416   1.290
 9365W        W81625  43.973  36.780  11.110
 9366W        W81626  39.371  39.977   1.270
 9367W        W81627  27.666   2.524  12.450
 9368W        W81628  40.965  15.775   1.855
 9369W        W81629  18.584  43.718   0.381
 9370W        W81630  41.268  10.074   1.779
 9371W        W81631  42.465  20.944   4.213
 9372W        W81632  24.053   9.133   3.920
 9373W        W81633  40.305  30.589   1.305
 9374W        W81634  13.092   2.531   2.678
 9375W        W81635  15.302  26.952  14.315
 9376W        W81636  29.264  27.180  12.486
 9377W        W81637  41.561  11.227   0.412
 9378W        W81638  11.789  33.305   0.301
 9379W        W81639   9.658  11.140   2.388
 9380W        W81640  26.865   4.746   3.595
 9381W        W81641  30.189  16.796   4.816
 9382W        W81642  42.961  37.579   2.390
 9383W        W81643  44.361  39.999  10.856
 9384W        W81644   0.548  27.393  11.465
 9385W        W81645   7.439   3.997   2.227
 9386W        W81646  43.853   0.377  14.033
 9387W        W81647  37.803  18.575  10.714
 9388W        W81648  17.050  23.912   3.743
 9389W        W81649  18.486  19.740   2.765
 9390W        W81650  41.439  38.591  11.502
 9391W        W81651  13.875  33.575   4.141
 9392W        W81652   8.990  13.406   3.564
 9393W        W81653   2.043  21.115  10.208
 9394W        W81654  36.444  35.854   2.223
 9395W        W81655  26.197  44.521   1.887
 9396W        W81656  42.251  13.254   3.399
 9397W        W81657  27.504   8.575   4.150
 9398W        W81658  15.516  20.331  13.813
 9399W        W81659  27.393  14.869   1.032
 9400W        W81660   2.059  43.559  11.208
 9401W        W81661  21.569  27.081  10.870
 9402W        W81662  21.800  10.758  13.381
 9403W        W81663  17.985  34.865   1.691
 9404W        W81664  25.743   0.003  14.719
 9405W        W81665   6.172   7.199   1.788
 9406W        W81666  32.232  29.240  12.048
 9407W        W81667   4.108  44.330   1.374
 9408W        W81668  39.726  38.940   3.331
 9409W        W81669  42.925  13.639  12.060
 9410W        W81670  31.578   0.576  11.167
 9411W        W81671  41.078  40.502   4.009
 9412W        W81672  22.281  36.602   3.632
 9413W        W81673  27.580  10.404   0.751
 9414W        W81674  20.251  13.279   0.088
 9415W        W81675  34.951  27.048   0.894
 9416W        W81676  38.513  12.756  11.560
 9417W        W81677  39.555  19.359   4.559
 9418W        W81678  37.529  21.587  14.397
 9419W        W81679  20.933  18.958   4.720
 9420W        W81680  31.064  28.489   3.308
 9421W        W81681   0.745  36.810   1.197
 9422W        W81682  33.833  32.862  10.720
 9423W        W81683  20.253  10.630  11.071
 9424W        W81684  39.261  39.845   4.094
 9425W        W81685  37.802  12.036  12.335
 9426W        W81686  21.772  30.852  10.616
 9427W        W81687   3.683  25.989  13.093
 9428W        W81688  10.691  43.873  12.995
 9429W        W81689  38.766   3.964  14.836
 9430W        W81690  18.833  23.096  11.993
 9431W        W81691   9.650  37.958  13.849
 9432W        W81692  25.754  27.444  13.612
 9433W        W81693  24.962  30.072  11.789
 9434W        W81694   8.301  30.391   0.958
 9435W        W81695  26.707  20.232   4.039
 9436W        W81696   1.842  17.042   4.648
 9437W        W81697  39.957   0.956   4.875
 9438W        W81698  20.575  38.894   3.324
 9439W        W81699   6.363  36.145   3.338
 9440W        W81700   3.304  30.401  10.431
 9441W        W81701  23.568  24.949  11.620
 9442W        W81702  12.159  37.353  14.354
 9443W        W81703  28.524  38.662  13.381
 9444W        W81704  30.384  11.281   0.599
 9445W        W81705  25.217  13.202  14.399
 9446W        W81706  28.958  16.407  13.944
 9447W        W81707  36.001  19.986   2.730
 9448W        W81708  33.963  39.986  11.979
 9449W        W81709  19.950  27.219   2.303
 9450W        W81710  32.863  29.111  14.942
 9451W        W81711  13.086  22.335  10.124
 9452W        W81712  23.945  16.251  13.045
 9453W        W81713  11.034  15.857  12.422
 9454W        W81714  32.014  17.072   0.018
 9455W        W81715  10.718  34.399  12.841
 9456W        W81716   3.471  14.607  10.825
 9457W        W81717  34.412  11.033  11.268
 9458W        W81718  36.444  14.030  14.154
 9459W        W81719  20.957  27.071   4.724
 9460W        W81720   8.267  29.445  11.636
 9461W        W81721  38.015  10.531   2.248
 9462W        W81722  19.831  13.539  14.924
 9463W        W81723   0.917  18.145   1.179
 9464W        W81724  21.150  30.169   0.889
 9465W        W81725   5.879  19.485   1.724
 9466W        W81726  15.841   4.685  12.634
 9467W        W81727  37.513  21.477  10.377
 9468W        W81728  19.765  42.803   0.970
 9469W        W81729  24.958   9.404  13.950
 9470W        W81730  21.851  12.479  11.115
 9471W        W81731  26.141  30.052   0.223
 9472W        W81732   0.867  10.774   0.000
 9473W        W81733  25.960  15.212   0.309
 9474W        W81734  42.326  28.776  12.070
 9475W        W81735   4.731  27.074  11.168
 9476W        W81736  19.196  27.229  11.514
 9477W        W81737  19.748   1.808   2.625
 9478W        W81738  37.376  31.682   1.870
 9479W        W81739  12.638   3.363  11.877
 9480W        W81740  15.352  13.179   4.899
 9481W        W81741  33.129  19.670  12.419
 9482W        W81742  12.422  32.906   3.145
 9483W        W81743   2.841  35.565   2.392
 9484W        W81744  33.618  12.579  10.770
 9485W        W81745  20.055  12.234  13.453
 9486W        W81746  40.965  10.888  13.039
 9487W        W81747  36.420  12.883  11.673
 9488W        W81748  22.519  39.192  12.888
 9489W        W81749  44.691  21.070  13.604
 9490W        W81750   4.664  40.484  14.470
 9491W        W81751  15.110  19.203  13.537
 9492W        W81752   1.380   3.379   2.268
 9493W        W81753  31.813   6.035   2.241
 9494W        W81754  27.996   8.814   0.789
 9495W        W81755   8.272  16.542  13.873
 9496W        W81756  16.896  39.078  11.585
 9497W        W81757  24.565  20.413   3.616
 9498W        W81758   8.210  15.789   3.585
 9499W        W81759  35.405  12.874   3.328
 9500W        W81760  19.078  27.449  11.064
 9501W        W81761  43.497  28.089  13.936
 9502W        W81762  18.082  37.428   3.700
 9503W        W81763   0.001  19.618  12.860
 9504W        W81764  16.095   4.287  12.946
 9505W        W81765   4.637  33.468   1.321
 9506W        W81766  18.040  18.570   1.632
 9507W        W81767  34.026  11.666  12.909
 9508W        W81768  21.838  39.959   2.565
 9509W        W81769   4.280  35.417  14.424
 9510W        W81770  22.069  38.535   3.656
 9511W        W81771  19.601   8.647   1.537
 9512W        W81772  30.478   7.254   2.111
 9513W        W81773   7.931   2.053   3.259
 9514W        W81774  13.225  43.178   3.232
 9515W        W81775  35.697  14.222  12.892
 9516W        W81776  35.544  15.060  11.881
 9517W        W81777  38.479   7.492  11.549
 9518W        W81778  38.114  32.350   4.216
 9519W        W81779  38.529  21.489   3.393
 9520W        W81780  13.030  22.731   3.254
 9521W        W81781  21.855  32.443  14.529
 9522W        W81782   2.550  15.667  14.001
 9523W        W81783   0.913  30.922  13.394
 9524W        W81784  15.473   9.265  12.684
 9525W        W81785  37.028  26.569  14.040
 9526W        W81786   8.868  18.806   0.317
 9527W        W81787   8.109   7.834   1.024
 9528W        W81788  40.622  41.941   2.900
 9529W        W81789   9.539  12.664  13.053
 9530W        W81790  18.775  10.757  13.444
 9531W        W81791   2.164  12.194  13.532
 9532W        W81792  17.728   2.501   0.691
 9533W        W81793  22.676   8.367  11.067
 9534W        W81794  33.406  37.397  11.720
 9535W        W81795   8.207   2.134  14.775
 9536W        W81796  12.091  27.382   0.385
 9537W        W81797  31.187  21.230   2.272
 9538W        W81798  17.145   7.316   0.500
 9539W        W81799   4.817  11.838  14.362
 9540W        W81800  44.526  31.474  14.203
 9541W        W81801  15.569  11.210  10.795
 9542W        W81802  38.404  40.467  14.980
 9543W        W81803   6.295   9.624  14.808
 9544W        W81804  35.602  39.817  10.727
 9545W        W81805  44.485  22.523  11.986
 9546W        W81806   0.398  36.814  13.568
 9547W        W81807  14.526  23.521   0.979
 9548W        W81808  11.158  31.057   4.151
 9549W        W81809  37.806  34.230   3.626
 9550W        W81810  35.604   4.981  10.469
 9551W        W81811   6.619  16.290  14.541
 9552W        W81812  10.351   0.493  13.339
 9553W        W81813  15.556   2.235  14.252
 9554W        W81814  39.022  34.224   2.853
 9555W        W81815  30.604  32.164   5.438
 9556W        W81816  40.102   8.185  12.979
 9557W        W81817  29.585  34.969   4.405
 9558W        W81818   1.851  33.528   0.899
 9559W        W81819  17.283   4.639   3.646
 9560W        W81820   1.805  32.258  11.388
 9561W        W81821   2.693  28.420  14.249
 9562W        W81822   4.410  17.660  13.094
 9563W        W81823   9.610  14.073  14.335
 9564W        W81824  21.322  38.592  13.973
 9565W        W81825  21.565  23.098  14.903
 9566W        W81826  15.257   1.268   3.533
 9567W        W81827   5.339  32.671  10.708
 9568W        W81828  15.538  42.203   3.200
 9569W        W81829  37.102  37.920   2.708
 9570W        W81830  10.580  38.405  12.680
 9571W        W81831  17.681  10.351  12.887
 9572W        W81832  22.559  28.196   4.601
 9573W        W81833  38.987  33.034  12.974
 9574W        W81834  28.470  25.007  11.996
 9575W        W81835  34.636   0.312  13.984
 9576W        W81836  10.267  40.111  10.662
 9577W        W81837  40.458  23.565  14.448
 9578W        W81838  36.014  38.725   0.045
 9579W        W81839  24.699  41.880   9.995
 9580W        W81840  30.993  42.720  11.552
 9581W        W81841  40.844  27.447   0.948
 9582W        W81842  35.017  16.304   4.642
 9583W        W81843  22.361  11.561   3.201
 9584W        W81844  43.882  42.973  10.702
 9585W        W81845   3.038  20.963  13.058
 9586W        W81846  37.828   7.152   0.311
 9587W        W81847  23.291   0.020   1.366
 9588W        W81848  37.893   9.715  13.299
 9589W        W81849  29.166  22.637   4.819
 9590W        W81850   5.209   9.234   0.026
 9591W        W81851   6.309  27.494   4.421
 9592W        W81852   2.065   6.849   4.737
 9593W        W81853  29.062  17.727   4.481
 9594W        W81854  26.572   4.260   0.032
 9595W        W81855  28.298   2.848  11.624
 9596W        W81856  13.896   0.248   3.657
 9597W        W81857  15.409  27.527   0.443
 9598W        W81858  38.381  34.044  14.897
 9599W        W81859  25.189  30.554  11.959
 9600W        W81860   9.671  22.599  13.078
 9601W        W81861  10.318   8.381  11.953
 9602W        W81862  18.168   6.235  10.760
 9603W        W81863   1.828  43.249  13.875
 9604W        W81864   9.432   0.218  10.221
 9605W        W81865  37.308   3.428  10.755
 9606W        W81866  33.943   0.873  13.153
 9607W        W81867  26.190   2.637  10.669
 9608W        W81868  37.359  16.612  13.599
 9609W        W81869  26.698  16.338   0.830
 9610W        W81870  12.630  31.718   9.859
 9611W        W81871  39.337  39.269  13.990
 9612W        W81872  30.529  30.735   4.784
 9613W        W81873  12.742  40.920   1.365
 9614W        W81874  19.038  15.343  11.661
 9615W        W81875  27.434  22.628   3.785
 9616W        W81876  14.281  30.627  13.922
 9617W        W81877  31.624  16.318  13.783
 9618W        W81878   6.173  17.616   4.569
 9619W        W81879  39.358  34.897  12.216
 9620W        W81880  25.548  24.247  11.058
 9621W        W81881  34.409   3.272  11.371
 9622W        W81882  10.094  36.820  13.035
 9623W        W81883  36.412  37.665  11.931
 9624W        W81884  12.655   2.002  14.805
 9625W        W81885  34.571  27.433   3.660
 9626W        W81886  22.015  17.975  11.729
 9627W        W81887   0.216   6.356  11.153
 9628W        W81888  20.741  26.177  13.330
 9629W        W81889  26.852   6.265   2.135
 9630W        W81890  37.823   3.953   1.455
 9631W        W81891  14.969  15.390  12.001
 9632W        W81892  17.830  42.161  11.169
 9633W        W81893  19.798  32.527   0.911
 9634W        W81894  25.561  33.914   4.709
 9635W        W81895  33.065  13.282   3.975
 9636W        W81896   6.614   8.182   2.674
 9637W        W81897  23.565   6.802  11.610
 9638W        W81898  34.884  29.081   4.582
 9639W        W81899   2.625  22.012  13.618
 9640W        W81900   6.319  23.202  13.079
 9641W        W81901  10.966  19.591   1.405
 9642W        W81902   9.162  37.799   3.216
 9643W        W81903  28.825  23.325  14.847
 9644W        W81904  42.374  36.898   0.393
 9645W        W81905  44.852  23.910   0.279
 9646W        W81906  15.973   4.880   1.099
 9647W        W81907  22.202  41.331  14.478
 9648W        W81908  30.013  16.615  10.622
 9649W        W81909  39.482  30.348  14.516
 9650W        W81910   3.340  18.672  12.873
 9651W        W81911   5.436  20.516  12.037
 9652W        W81912   1.284   7.306  11.916
 9653W        W81913  42.811  28.227   2.830
 9654W        W81914  10.743   4.652  12.484
 9655W        W81915  18.797  40.833   4.383
 9656W        W81916   6.388  14.396  14.538
 9657W        W81917  41.524  31.876   2.781
 9658W        W81918  18.420  10.259  12.543
 9659W        W81919  11.282   3.805   4.658
 9660W        W81920  15.405  40.282   4.123
 9661W        W81921  10.697  35.455   3.295
 9662W        W81922  28.510  13.860  14.912
 9663W        W81923  38.902  23.136  10.647
 9664W        W81924  29.589  35.110  11.653
 9665W        W81925  39.958  21.193   1.820
 9666W        W81926   5.892  19.749   2.228
 9667W        W81927  42.410  30.646   4.511
 9668W        W81928  19.366  42.905   5.037
 9669W        W81929  33.376  20.328  14.363
 9670W        W81930  21.408  19.573  12.115
 9671W        W81931   5.762   2.881  13.142
 9672W        W81932  27.591  40.158   4.532
 9673W        W81933   5.712  21.050  10.834
 9674W        W81934   8.422  21.942   0.655
 9675W        W81935  16.409  40.503   1.288
 9676W        W81936  16.639   1.486  14.263
 9677W        W81937  23.490  10.696   3.758
 9678W        W81938  43.315  33.292   3.687
 9679W        W81939  39.055  13.291   2.884
 9680W        W81940  13.237  20.683   1.669
 9681W        W81941  12.203   9.606  14.965
 9682W        W81942  14.651  25.259   2.362
 9683W        W81943  17.781  12.949   3.248
 9684W        W81944  29.712   2.956  13.319
 9685W        W81945  31.115  20.103   3.242
 9686W        W81946  18.633  40.837  13.911
 9687W        W81947   7.808   1.884  12.770
 9688W        W81948   1.767  16.039  13.465
 9689W        W81949  39.136  14.706   4.123
 9690W        W81950  24.875  22.926  14.185
 9691W        W81951  33.564  24.624  12.654
 9692W        W81952  24.175   5.209   1.056
 9693W        W81953  20.170   7.428  14.536
 9694W        W81954  31.348  19.779  11.943
 9695W        W81955  14.058  29.426   0.300
 9696W        W81956  10.730  31.951   4.948
 9697W        W81957  19.630  26.453   1.066
 9698W        W81958   4.962   5.677   3.741
 9699W        W81959   6.742   1.323  13.247
 9700W        W81960  25.531  27.878   1.545
 9701W        W81961  29.872  18.039  10.944
 9702W        W81962   8.179  25.204   1.300
 9703W        W81963  30.492  10.672   2.370
 9704W        W81964  40.103  44.987   0.673
 9705W        W81965  12.857  19.981   4.748
 9706W        W81966   8.900  24.476  12.455
 9707W        W81967  12.418  43.677   0.409
 9708W        W81968  43.887  39.037  14.772
 9709W        W81969  16.075   0.861  12.877
 9710W        W81970  14.584  17.283   0.323
 9711W        W81971  30.573   6.913  13.494
 9712W        W81972   9.973  35.880  10.128
 9713W        W81973   7.121   1.481   1.844
 9714W        W81974  20.299  31.358  13.095
 9715W        W81975  41.970  23.751  13.472
 9716W        W81976   8.255  42.877  13.789
 9717W        W81977  25.777  34.145  11.065
 9718W        W81978  12.376  31.316  12.543
 9719W        W81979  22.597  14.096   4.114
 9720W        W81980   9.943  20.429  11.176
 9721W        W81981  30.266   9.491  14.862
 9722W        W81982   5.413  11.289   0.798
 9723W        W81983  16.278   3.348   2.296
 9724W        W81984   2.906  25.580  14.294
 9725W        W81985   3.404  39.944   4.745
 9726W        W81986   1.847   7.732  11.273
 9727W        W81987  44.229  19.589  13.946
 9728W        W81988  16.110   7.342   1.931
 9729W        W81989  20.186  10.372  11.567
 9730W        W81990  36.936   9.656   4.224
 9731W        W81991   3.507   4.694  10.075
 9732W        W81992  26.499  12.676  14.760
 9733W        W81993  11.647  29.901   0.267
 9734W        W81994  14.214  27.804  13.000
 9735W        W81995  14.575  18.181   2.663
 9736W        W81996  28.995   0.338   0.837
 9737W        W81997  31.096   7.847  12.687
 9738W        W81998  12.726   0.432   0.711
 9739W        W81999  30.361  22.518   4.697
 9740W        W82000   0.131  26.763   4.614
 9741W        W82001  16.244  41.311  11.450
 9742W        W82002  31.231  15.941   5.025
 9743W        W82003   8.954   3.843  11.332
 9744W        W82004   5.735  14.886  13.826
 9745W        W82005  37.354   5.843  11.932
 9746W        W82006  24.189  16.086   0.426
 9747W        W82007  20.037  11.377  11.559
 9748W        W82008   7.451  32.271   0.783
 9749W        W82009  30.463   5.307  13.721
 9750W        W82010  11.308   1.092   0.395
 9751W        W82011  19.578  26.235   1.899
 9752W        W82012   4.237   6.319  12.231
 9753W        W82013  21.345  44.991  12.870
 9754W        W82014   5.713  28.608   2.584
 9755W        W82015  38.945  26.618  12.173
 9756W        W82016  37.439  17.154  13.496
 9757W        W82017  30.658  20.567   2.572
 9758W        W82018   5.697  26.519  13.846
 9759W        W82019  19.640  22.698  13.240
 9760W        W82020  40.058   1.262   3.566
 9761W        W82021   3.708  24.943   0.793
 9762W        W82022  29.749   9.401  14.858
 9763W        W82023   4.386  17.078   2.406
 9764W        W82024   7.717  26.796  10.828
 9765W        W82025  42.613   0.018   2.330
 9766W        W82026   8.745  21.012   1.231
 9767W        W82027  25.093  29.901   3.203
 9768W        W82028  44.194  31.091   1.028
 9769W        W82029  23.134   4.139   4.125
 9770W        W82030  35.021  29.532   0.642
 9771W        W82031  42.493  41.987  12.822
 9772W        W82032   9.489  23.539   2.979
 9773W        W82033   1.307  10.629  12.865
 9774W        W82034  20.977   1.394   1.521
 9775W        W82035  25.488  29.092   0.653
 9776W        W82036  19.503   5.874   2.417
 9777W        W82037   0.394  32.653  14.458
 9778W        W82038  39.497   7.855  11.541
 9779W        W82039  32.112  19.785   0.725
 9780W        W82040  10.317  41.099  13.929
 9781W        W82041  27.008   7.177   3.921
 9782W        W82042  38.602  17.632   2.235
 9783W        W82043  33.159  30.460  13.573
 9784W        W82044  34.966   8.340  14.757
 9785W        W82045  44.031  22.641   1.910
 9786W        W82046  26.412  22.971  11.963
 9787W        W82047  36.171  40.628  14.326
 9788W        W82048  16.995  33.812   5.033
 9789W        W82049  43.011  39.852   4.182
 9790W        W82050  18.994  19.814   1.304
 9791W        W82051  38.499  34.693   2.401
 9792W        W82052   5.893  27.199   1.980
 9793W        W82053   9.378   7.593  11.494
 9794W        W82054  15.508  35.675  14.875
 9795W        W82055  18.234   1.490  12.385
 9796W        W82056  19.790   1.387  14.439
 9797W        W82057  17.258  24.519  14.722
 9798W        W82058   0.804  25.439  11.617
 9799W        W82059   4.980  22.457   0.794
 9800W        W82060  12.559  32.999  13.936
 9801W        W82061  17.341  30.447   2.727
 9802W        W82062  31.671  14.892  12.587
 9803W        W82063  26.068  12.898  13.117
 9804W        W82064  31.047  27.241  10.660
 9805W        W82065  27.706  31.508   3.202
 9806W        W82066  19.199  40.275   0.306
 9807W        W82067  36.280  10.181   1.866
 9808W        W82068  36.321   3.784  10.531
 9809W        W82069  30.959  22.594  14.700
 9810W        W82070  15.999  17.579   3.727
 9811W        W82071   0.885  41.417  13.822
 9812W        W82072  16.182  35.525  12.117
 9813W        W82073  20.929  33.016  14.408
 9814W        W82074  28.680  36.862  14.484
 9815W        W82075  20.088   7.075  12.522
 9816W        W82076  12.925  41.250   1.754
 9817W        W82077   0.322  31.282  13.586
 9818W        W82078   6.669  41.481   1.323
 9819W        W82079  16.191  15.886  13.056
 9820W        W82080  10.637  38.050   3.201
 9821W        W82081  43.854   5.178   2.403
 9822W        W82082  37.750  44.274   4.230
 9823W        W82083  14.373  12.176   0.878
 9824W        W82084  12.153  20.766  12.662
 9825W        W82085  10.995  38.941  13.409
 9826W        W82086   0.884  41.991  12.501
 9827W        W82087   4.021   7.235  13.394
 9828W        W82088   3.026  25.700   1.724
 9829W        W82089   8.887   6.847   1.120
 9830W        W82090  23.149  11.433   1.236
 9831W        W82091  11.961  42.523   3.238
 9832W        W82092  21.735  15.925   0.190
 9833W        W82093  42.852  41.991   1.903
 9834W        W82094   0.262  20.935  14.249
 9835W        W82095  43.428  40.108   0.944
 9836W        W82096  13.529   1.895  13.999
 9837W        W82097  14.793  15.844   1.741
 9838W        W82098  42.970  32.832   2.273
 9839W        W82099  13.050  26.634  11.616
 9840W        W82100  35.621  19.509  13.968
 9841W        W82101  12.512  24.686  11.576
 9842W        W82102  28.615  38.288   2.360
 9843W        W82103  36.028  17.231  11.473
 9844W        W82104  27.275   7.734   0.333
 9845W        W82105  15.287   7.918  11.982
 9846W        W82106  31.702  44.760  14.040
 9847W        W82107  32.150   8.785   1.245
 9848W        W82108  43.323  17.877  12.063
 9849W        W82109   1.259  31.322   1.243
 9850W        W82110  38.844  36.933   4.566
 9851W        W82111  44.347  43.505  12.022
 9852W        W82112  19.056  36.829   3.717
 9853W        W82113  42.921   7.444  14.927
 9854W        W82114  42.232  21.648   0.529
 9855W        W82115  42.415  44.392  10.922
 9856W        W82116   0.747  29.572  10.100
 9857W        W82117   2.090  15.779  13.768
 9858W        W82118  24.140  20.628  10.135
 9859W        W82119  36.397  35.853   3.682
 9860W        W82120  22.546   8.117  12.482
 9861W        W82121  38.892  34.464  11.140
 9862W        W82122  22.625  32.634   1.938
 9863W        W82123  39.525  13.271  11.995
 9864W        W82124  14.033  13.872  12.902
 9865W        W82125  16.747  19.559   2.811
 9866W        W82126   1.256  23.510  12.914
 9867W        W82127  29.934  12.898   2.227
 9868W        W82128  13.238  36.256   1.493
 9869W        W82129   5.384  32.427  11.162
 9870W        W82130  18.254  15.625  14.938
 9871W        W82131  15.055  22.733   0.698
 9872W        W82132  15.725  16.516  10.031
 9873W        W82133  33.031   0.322   4.779
 9874W        W82134  37.959  42.962  13.536
 9875W        W82135  15.396  12.813   3.350
 9876W        W82136  17.577  34.169  14.866
 9877W        W82137  21.070  20.303   0.749
 9878W        W82138  32.490   7.695   4.366
 9879W        W82139  39.032   8.327  10.612
 9880W        W82140  40.925  26.723   4.012
 9881W        W82141   6.538   2.335  13.422
 9882W        W82142  21.639  44.645  12.598
 9883W        W82143  20.101  19.288  11.199
 9884W        W82144  18.141  14.638   3.281
 9885W        W82145  44.320  31.866  12.827
 9886W        W82146  15.293  19.229  12.061
 9887W        W82147  33.585  31.587   0.862
 9888W        W82148  17.459  24.245  11.522
 9889W        W82149  20.821   7.247   2.459
 9890W        W82150  17.048  33.480  10.717
 9891W        W82151  43.943  29.197  10.732
 9892W        W82152  40.883  28.409   2.578
 9893W        W82153  40.443  19.636   4.525
 9894W        W82154  10.315   3.701  12.988
 9895W        W82155  35.959  27.973   4.636
 9896W        W82156   8.357   1.802   3.094
 9897W        W82157  21.166   0.727  12.592
 9898W        W82158   0.296  41.570  14.556
 9899W        W82159   3.287  42.853   3.732
 9900W        W82160  29.556  19.300   1.943
 9901W        W82161   7.484  15.679  11.139
 9902W        W82162   9.435   0.048  13.278
 9903W        W82163   4.874  21.482   0.705
 9904W        W82164  28.983  15.104   1.675
 9905W        W82165  30.581  32.409   0.339
 9906W        W82166   5.791  19.232   1.223
 9907W        W82167  42.356  22.217  14.473
 9908W        W82168  36.543   9.881   4.475
 9909W        W82169  34.897   2.685  13.009
 9910W        W82170   0.728  27.450  13.997
 9911W        W82171  22.213   2.730   4.546
 9912W        W82172  44.020  40.613   1.640
 9913W        W82173   6.683   9.358   2.282
 9914W        W82174  22.821  42.272  10.417
 9915W        W82175  18.808   0.832   4.713
 9916W        W82176  33.911  43.779  14.449
 9917W        W82177  35.580  12.394  11.607
 9918W        W82178  38.505  44.494   3.688
 9919W        W82179  18.173  17.127  14.512
 9920W        W82180  36.948  28.003  14.297
 9921W        W82181   4.192  29.639   0.571
 9922W        W82182   1.395  42.892   2.048
 9923W        W82183   4.152  42.593  12.095
 9924W        W82184   1.043  17.784   2.782
 9925W        W82185  36.859  26.335   4.143
 9926W        W82186  22.519  28.347  10.091
 9927W        W82187   3.518  23.494  12.550
 9928W        W82188   0.456  39.266   3.889
 9929W        W82189  12.235  28.075  10.208
 9930W        W82190  28.196  34.579   4.516
 9931W        W82191   6.484  37.637  13.558
 9932W        W82192  17.311  32.051  14.857
 9933W        W82193  20.743   9.046  12.541
 9934W        W82194  11.089  32.812  13.851
 9935W        W82195  18.731  26.107  12.029
 9936W        W82196  32.650  12.101  11.603
 9937W        W82197  39.956  13.171  10.718
 9938W        W82198  38.585  23.965   1.182
 9939W        W82199   4.665  28.516  11.946
 9940W        W82200  28.071  26.428  12.105
 9941W        W82201  28.930  39.088   4.383
 9942W        W82202  13.490  23.502  10.808
 9943W        W82203  18.287   0.875   4.748
 9944W        W82204  39.844  24.060  13.771
 9945W        W82205  39.597  10.283   3.233
 9946W        W82206  28.275  21.708   0.821
 9947W        W82207  15.024  14.704  10.257
 9948W        W82208   0.817  12.596  13.993
 9949W        W82209  15.113  37.773  14.352
 9950W        W82210   7.344   5.126  11.933
 9951W        W82211  42.002  31.202  14.392
 9952W        W82212  23.651  19.199  12.080
 9953W        W82213  19.721  21.316  10.804
 9954W        W82214  19.714  19.265   0.421
 9955W        W82215  16.168  22.563  12.589
 9956W        W82216   0.848  23.677  14.450
 9957W        W82217  12.610  25.878  12.006
 9958W        W82218  41.900  18.599   2.615
 9959W        W82219  43.498  19.791   4.725
 9960W        W82220  11.473   5.985   0.466
 9961W        W82221  23.496  38.028  14.017
 9962W        W82222   5.889  38.694  12.111
 9963W        W82223   3.410   7.351  10.625
 9964W        W82224   2.701  34.031   3.671
 9965W        W82225  41.397  31.492   4.356
 9966W        W82226  38.112  15.681  11.564
 9967W        W82227  28.219  42.307   0.732
 9968W        W82228  34.072   2.251   0.450
 9969W        W82229  17.728  44.462  11.445
 9970W        W82230  21.532  19.172  14.427
 9971W        W82231  34.098  37.513  11.180
 9972W        W82232  31.035  22.970  13.403
 9973W        W82233  24.772  23.259   3.319
 9974W        W82234  15.811  43.517   3.557
 9975W        W82235   8.623  12.367  10.706
 9976W        W82236  17.084  10.610   2.904
 9977W        W82237   9.610  36.628   0.016
 9978W        W82238  18.045  35.026  12.399
 9979W        W82239   5.436  44.423  10.727
 9980W        W82240  41.494  38.477  12.389
 9981W        W82241  38.822  38.433  13.044
 9982W        W82242  12.696  24.148   3.264
 9983W        W82243  35.370  31.205   3.722
 9984W        W82244   4.844  43.463   0.454
 9985W        W82245   5.729   4.994  13.013
 9986W        W82246  28.304   6.309   3.190
 9987W        W82247  20.665  13.036   1.405
 9988W        W82248  10.259  10.668  12.447
 9989W        W82249   7.470   5.802  12.378
 9990W        W82250  24.918   2.804  11.837
 9991W        W82251  39.531  28.966  13.392
 9992W        W82252  36.510  44.745  10.521
 9993W        W82253  31.608  42.105   2.847
 9994W        W82254   5.643  40.089   0.594
 9995W        W82255  41.876   9.616   0.383
 9996W        W82256  29.041  42.309   4.780
 9997W        W82257  29.726  44.382  14.502
 9998W        W82258  38.342  35.966   1.188
 9999W        W82259   4.709  31.300  12.292
10000W        W82260  37.077   0.024  11.180
10001W        W82261  31.230  17.301  13.880
10002W        W82262   3.694   1.487   0.373
10003W        W82263  22.852  33.963  11.726
10004W        W82264  39.317  25.506   1.935
10005W        W82265  42.229  24.827   4.976
10006W        W82266  40.973   7.532  13.278
10007W        W82267  19.090  19.219  11.118
10008W        W82268  40.224   8.384  12.456
10009W        W82269   4.334   6.308  14.859
10010W        W82270   3.189  16.049  13.945
10011W        W82271   9.926  17.735  11.329
10012W        W82272   7.022  12.112   0.474
10013W        W82273   5.886  40.982  14.665
10014W        W82274  28.467  21.073   2.670
10015W        W82275   4.278  43.920   4.910
10016W        W82276  25.648  37.447  14.382
10017W        W82277   2.644  33.638   0.573
10018W        W82278  44.707  34.616  11.528
10019W        W82279  42.824  22.987   1.330
10020W        W82280   1.160  24.788  13.534
10021W        W82281  38.101  31.898   0.645
10022W        W82282  23.985  41.394   2.151
10023W        W82283   8.114   8.094  12.965
10024W        W82284   0.717  28.209  12.182
10025W        W82285  24.113  23.543  13.419
10026W        W82286  16.302  22.707  14.957
10027W        W82287   7.495  17.816  14.882
10028W        W82288  30.529  36.167   1.177
10029W        W82289  37.053  15.870   2.109
10030W        W82290  12.769  33.919  10.491
10031W        W82291   7.796   2.074   4.456
10032W        W82292  16.902  24.526  10.912
10033W        W82293   1.484   9.359  14.460
10034W        W82294   8.443   9.416  14.585
10035W        W82295  10.585  36.883   0.301
10036W        W82296  26.666  38.044  14.453
10037W        W82297  42.387  28.130   1.224
10038W        W82298  18.175  15.139  13.268
10039W        W82299  37.510  41.947   0.902
10040W        W82300  32.080  10.124   3.429
10041W        W82301  10.704  10.794  13.920
10042W        W82302   0.469  25.441   4.267
10043W        W82303  44.459  31.807   0.512
10044W        W82304   3.029  38.002   1.297
10045W        W82305  30.595  18.037  11.499
10046W        W82306  27.215  38.635   2.365
10047W        W82307   7.632   8.747   0.891
10048W        W82308  29.036  19.265   0.273
10049W        W82309  22.039  29.066   5.576
10050W        W82310  13.666  19.124   1.444
10051W        W82311  12.124   3.255   1.825
10052W        W82312  14.203  19.029  13.745
10053W        W82313  37.115  40.231  13.473
10054W        W82314  41.590   3.600  14.601
10055W        W82315   6.309  17.899  11.216
10056W        W82316  43.337   3.688   1.799
10057W        W82317  31.706   5.424  11.891
10058W        W82318  42.879  44.216  11.476
10059W        W82319  44.467   9.614  13.473
10060W        W82320  28.402   1.910   0.233
10061W        W82321   6.393   7.002   0.827
10062W        W82322  13.927  34.947   4.404
10063W        W82323   8.388  36.559   3.834
10064W        W82324  15.618  23.999   1.726
10065W        W82325  10.746  33.949   4.071
10066W        W82326   4.498  13.989   0.769
10067W        W82327  19.719  30.341   0.497
10068W        W82328  36.901  15.132  11.551
10069W        W82329  39.447   9.585  11.877
10070W        W82330  39.352  27.197  12.887
10071W        W82331  28.220  31.578   0.188
10072W        W82332  25.871  31.718  13.558
10073W        W82333  31.420  41.834  14.802
10074W        W82334  44.169  31.882   1.773
10075W        W82335  40.494   0.916  13.451
10076W        W82336  37.093  19.244   3.665
10077W        W82337  18.822  23.711  13.878
10078W        W82338  31.187   4.367  14.916
10079W        W82339  32.758   5.984   3.254
10080W        W82340  33.891  13.919  14.269
10081W        W82341  11.735  32.198  12.940
10082W        W82342  36.572  13.354   3.267
10083W        W82343  34.655   8.374   1.893
10084W        W82344   4.565  32.068   1.459
10085W        W82345  33.661  26.200  12.421
10086W        W82346  42.991   2.043   2.602
10087W        W82347  39.967  10.800  13.065
10088W        W82348  24.845  32.981   2.725
10089W        W82349  12.227  31.551  11.612
10090W        W82350  21.174  28.288  14.772
10091W        W82351  22.253  33.440   4.504
10092W        W82352  18.450  28.834  13.887
10093W        W82353  35.213  23.943  11.686
10094W        W82354  37.973  33.685  14.379
10095W        W82355  23.704  32.217  14.423
10096W        W82356   2.856  18.335  12.847
10097W        W82357  23.335  15.767   3.322
10098W        W82358   4.162  42.186   1.723
10099W        W82359  10.957  39.400   1.907
10100W        W82360  23.177  12.644  11.096
10101W        W82361  36.612  30.086  13.455
10102W        W82362  41.937  11.354  12.860
10103W        W82363  11.840  14.205  11.676
10104W        W82364  22.176  13.102  11.005
10105W        W82365  18.955  15.926  12.944
10106W        W82366  17.986  29.588   1.653
10107W        W82367   8.727  28.075   0.796
10108W        W82368  20.185   5.957   9.741
10109W        W82369  21.591   6.144  13.012
10110W        W82370  31.336  31.444   4.647
10111W        W82371  15.608  16.673  13.497
10112W        W82372  33.032   2.394   4.233
10113W        W82373  24.697  34.131   0.455
10114W        W82374  10.549  19.463  10.988
10115W        W82375  41.493  15.526   2.909
10116W        W82376  28.079  37.684   5.055
10117W        W82377  18.730  21.737  13.498
10118W        W82378   2.488   8.962  12.028
10119W        W82379  41.887  22.634  10.709
10120W        W82380  29.254  21.999   3.692
10121W        W82381   4.223  17.649   2.471
10122W        W82382  22.307  15.024   2.344
10123W        W82383  15.242  25.020  13.918
10124W        W82384   4.819  17.796   4.537
10125W        W82385  14.862  18.070   1.417
10126W        W82386  39.997  13.725   1.400
10127W        W82387   5.421  44.404   1.809
10128W        W82388  27.649  42.417   4.571
10129W        W82389   0.864  28.424   2.657
10130W        W82390  44.297  31.023  10.646
10131W        W82391   2.489   7.397  10.555
10132W        W82392   5.560  39.992  14.630
10133W        W82393  36.546  31.434   2.415
10134W        W82394   8.875   1.548  11.326
10135W        W82395  42.949   0.532  10.709
10136W        W82396  12.243  38.278   2.842
10137W        W82397  27.645  39.927   2.433
10138W        W82398  42.488  32.243   3.444
10139W        W82399  37.316  25.216  12.966
10140W        W82400  35.646  29.868  14.340
10141W        W82401   3.227  15.060  12.563
10142W        W82402  25.274  11.539   0.623
10143W        W82403   7.823  25.013   2.141
10144W        W82404   0.434  25.694   3.825
10145W        W82405   2.556  44.275  11.692
10146W        W82406  39.915  29.004  12.571
10147W        W82407  29.617  14.427   3.576
10148W        W82408  13.076   8.248   0.034
10149W        W82409   5.194  24.394  14.997
10150W        W82410  13.246  36.164  13.775
10151W        W82411  35.383   2.423  13.056
10152W        W82412  16.046   4.863  13.490
10153W        W82413  42.549   5.279   0.263
10154W        W82414  32.873  41.324  14.902
10155W        W82415  35.065  43.058  10.269
10156W        W82416  44.832   5.295  12.403
10157W        W82417  41.182  44.799   3.133
10158W        W82418   8.373   7.248  13.910
10159W        W82419   6.495  18.842   4.566
10160W        W82420  31.807   0.436  14.380
10161W        W82421  38.275  44.295   4.108
10162W        W82422  36.067  28.687   4.064
10163W        W82423  39.201  21.754  12.449
10164W        W82424  20.137   3.016  11.024
10165W        W82425  31.052  11.824  13.039
10166W        W82426  32.768   3.814   0.796
10167W        W82427  38.921  10.122   3.675
10168W        W82428  34.653  15.126  12.654
10169W        W82429  35.022   5.180  10.709
10170W        W82430   2.817  12.754   0.962
10171W        W82431  41.138   5.287  10.591
10172W        W82432   4.831  14.664  12.085
10173W        W82433   6.356  27.021  13.963
10174W        W82434  26.529   7.215  11.138
10175W        W82435  26.788   1.802  12.781
10176W        W82436  35.481  19.466  10.186
10177W        W82437  24.546  12.697   0.902
10178W        W82438  44.779  11.861  11.966
10179W        W82439  40.678  14.273   4.169
10180W        W82440  22.230  28.405  13.139
10181W        W82441   6.847   9.310   3.157
10182W        W82442   7.917  14.624   2.701
10183W        W82443  15.500  33.173   3.726
10184W        W82444   1.538  42.951  12.128
10185W        W82445  39.373  29.064  10.446
10186W        W82446  35.392  19.425   0.776
10187W        W82447  13.107  40.063  13.548
10188W        W82448  44.761  25.271  11.523
10189W        W82449   6.695  25.702   1.915
10190W        W82450  37.978  37.903   3.837
10191W        W82451   8.123   9.681  14.894
10192W        W82452   7.933   3.797   3.786
10193W        W82453   6.802  13.088  14.345
10194W        W82454   3.474   3.959  11.101
10195W        W82455  16.707   3.254  10.482
10196W        W82456  27.640   3.259  10.686
10197W        W82457  30.491  14.635   3.676
10198W        W82458   6.190  14.803  12.979
10199W        W82459  42.211  27.483   2.161
10200W        W82460  21.379  28.209   2.359
10201W        W82461  13.733  41.907   1.903
10202W        W82462  24.652  21.670   3.378
10203W        W82463  42.970  44.332   0.501
10204W        W82464  32.962   9.483  11.105
10205W        W82465  39.277  40.387  11.235
10206W        W82466  40.527  20.821  11.595
10207W        W82467   9.170  17.987  12.933
10208W        W82468  37.550  22.168   4.543
10209W        W82469  31.984  42.957   0.503
10210W        W82470  11.708   7.181  12.689
10211W        W82471   6.337  31.361  10.606
10212W        W82472   5.673  36.816   1.437
10213W        W82473  37.541   7.857   0.874
10214W        W82474  44.254  38.066   1.835
10215W        W82475  23.161  39.527   0.875
10216W        W82476   0.644  18.494  12.543
10217W        W82477  27.695   1.398   0.379
10218W        W82478  17.588  37.117   1.843
10219W        W82479  37.798  18.295  11.260
10220W        W82480  34.932  19.647   0.920
10221W        W82481   6.392  10.342   0.237
10222W        W82482  13.065  20.754   0.252
10223W        W82483  29.924  18.725   2.861
10224W        W82484  28.550  10.136   0.448
10225W        W82485  35.462  44.422   1.437
10226W        W82486  35.601  21.884  12.061
10227W        W82487  24.550  24.103   3.821
10228W        W82488   2.432  15.104   1.652
10229W        W82489  42.014   0.486  13.425
10230W        W82490  18.854  34.618   1.694
10231W        W82491  37.496  44.953  11.487
10232W        W82492  27.504  29.470   1.248
10233W        W82493  15.535  32.094  12.657
10234W        W82494  31.928   9.867   4.857
10235W        W82495  22.314  16.694   1.396
10236W        W82496  16.347  18.202  12.815
10237W        W82497  25.999  23.444   4.799
10238W        W82498  44.323  11.601  12.482
10239W        W82499  24.572  22.094   1.824
10240W        W82500  29.165  27.011   0.629
10241W        W82501  24.646  39.442  14.321
10242W        W82502   1.315  25.681  13.298
10243W        W82503  10.352  32.201   0.740
10244W        W82504  43.729  10.809  12.613
10245W        W82505  32.592  18.673   4.852
10246W        W82506  21.334  24.534  12.838
10247W        W82507  38.995  30.599   2.406
10248W        W82508  22.840  41.345   4.592
10249W        W82509  40.505  11.944  12.540
10250W        W82510   4.297  23.065   0.177
10251W        W82511   0.562   5.998  14.957
10252W        W82512  37.649  11.720   0.313
10253W        W82513  39.825  25.988   0.849
10254W        W82514  23.574   8.616  14.382
10255W        W82515   7.545  28.566   5.652
10256W        W82516   0.310  10.949   3.735
10257W        W82517  29.495   3.516   1.234
10258W        W82518  39.130  22.772   2.446
10259W        W82519  25.054  18.298   2.771
10260W        W82520  10.317   6.213  12.347
10261W        W82521   2.795  30.896   3.598
10262W        W82522  31.682  39.461   3.652
10263W        W82523  31.990  31.445   2.272
10264W        W82524   9.597  27.970  10.751
10265W        W82525  19.061  36.323   3.781
10266W        W82526   3.844  11.381  13.855
10267W        W82527  34.883  21.136  14.371
10268W        W82528   0.542  32.691   4.571
10269W        W82529  40.323  38.453  11.055
10270W        W82530  42.551   4.433  12.292
10271W        W82531  28.520  33.876   2.568
10272W        W82532  30.944  17.847  14.291
10273W        W82533  15.764  30.882   1.914
10274W        W82534  35.602  27.121  10.460
10275W        W82535  10.761  38.460   0.490
10276W        W82536  31.940  21.779  11.414
10277W        W82537   2.168  30.895  10.644
10278W        W82538   1.171  40.840  14.976
10279W        W82539  13.005  13.625  12.773
10280W        W82540  29.989  39.571  11.978
10281W        W82541  14.277  12.649   0.700
10282W        W82542   3.264  19.200   0.078
10283W        W82543  37.305   8.722  13.856
10284W        W82544  22.050  39.392   0.623
10285W        W82545   7.497  30.163  10.830
10286W        W82546  33.601  16.704   2.760
10287W        W82547  25.967  33.526   1.348
10288W        W82548  40.733  15.830  12.958
10289W        W82549  39.660  35.601  12.022
10290W        W82550   7.002  22.678   2.146
10291W        W82551  36.621  11.755   0.305
10292W        W82552  39.810   4.986  14.274
10293W        W82553  22.793   1.875   4.199
10294W        W82554   7.407  21.784   2.784
10295W        W82555  39.042  35.343   4.648
10296W        W82556   1.556  17.557  12.448
10297W        W82557  12.995  10.255   0.110
10298W        W82558  15.581  39.083  14.271
10299W        W82559  17.634  38.764   1.602
10300W        W82560  31.152  15.070  14.532
10301W        W82561   0.469  11.812   4.280
10302W        W82562   1.655  20.334  11.134
10303W        W82563  14.336  13.682   0.662
10304W        W82564   0.725  37.390   4.121
10305W        W82565  16.217  16.642  12.185
10306W        W82566  33.364  17.069  11.590
10307W        W82567  41.392   8.391  10.622
10308W        W82568  18.443  40.736   2.600
10309W        W82569  40.925   2.903   4.448
10310W        W82570  10.892  32.262  12.541
10311W        W82571  38.931  31.898   4.532
10312W        W82572  42.425   5.719  11.643
10313W        W82573  16.451  34.820   4.243
10314W        W82574  31.216  32.117  11.577
10315W        W82575  30.195  30.403   1.323
10316W        W82576  31.368  43.930   2.212
10317W        W82577   0.922  38.056   1.364
10318W        W82578   2.844  21.691   2.746
10319W        W82579  28.889   2.643  12.829
10320W        W82580  32.530  18.822   1.398
10321W        W82581  25.530  26.261  12.766
10322W        W82582  30.148  23.976   3.735
10323W        W82583   7.859  18.509   4.566
10324W        W82584  42.423   6.932   4.319
10325W        W82585  14.825  14.813  13.900
10326W        W82586  29.851  38.069  14.385
10327W        W82587  23.218  25.503   0.085
10328W        W82588  24.763  18.171  13.878
10329W        W82589   7.247  15.271  12.469
10330W        W82590  31.983  35.494  10.693
10331W        W82591  12.473  28.853  14.817
10332W        W82592  30.987  37.340  12.127
10333W        W82593  21.505  28.176   0.194
10334W        W82594  23.118  38.734  11.061
10335W        W82595  18.562  27.956  11.592
10336W        W82596  26.299   8.720  13.882
10337W        W82597   2.308  41.789   0.854
10338W        W82598   3.865  28.399   0.441
10339W        W82599   5.444  13.146   2.593
10340W        W82600  25.112  41.893   5.409
10341W        W82601  17.754  40.904  12.152
10342W        W82602  30.157  33.554   2.174
10343W        W82603  12.326   4.702  12.411
10344W        W82604  26.195  14.878  10.801
10345W        W82605   1.486  19.841   1.845
10346W        W82606  33.795  33.869  11.570
10347W        W82607  33.967   7.308   2.988
10348W        W82608  27.091  37.294  11.004
10349W        W82609  38.655  36.597  12.479
10350W        W82610  44.998   7.025   2.229
10351W        W82611  18.785   4.275  13.479
10352W        W82612  22.117  26.024   0.821
10353W        W82613  15.140  37.251   2.782
10354W        W82614  31.098  28.745  14.294
10355W        W82615  30.181  33.153   0.310
10356W        W82616  17.286  13.549   4.866
10357W        W82617  43.357   4.310   0.002
10358W        W82618  19.120   9.358  12.422
10359W        W82619   9.319  20.130   2.225
10360W        W82620   2.398   0.330   3.747
10361W        W82621  42.493   5.765  11.127
10362W        W82622  39.885   4.010   1.866
10363W        W82623  43.917  27.054  14.139
10364W        W82624   2.576  44.872  12.730
10365W        W82625  33.997   7.632  12.407
10366W        W82626   5.513  18.799  11.643
10367W        W82627  29.230  16.329  14.387
10368W        W82628  19.226   6.774   3.603
10369W        W82629  17.704  14.819  14.358
10370W        W82630   8.943  44.320   5.045
10371W        W82631  10.483  31.610  10.766
10372W        W82632   1.407  30.940   3.166
10373W        W82633   5.588  37.015   4.218
10374W        W82634  37.971  23.219  11.518
10375W        W82635   6.790  19.248   2.794
10376W        W82636  38.526  28.899  13.280
10377W        W82637   0.534   8.812   1.449
10378W        W82638  10.239  39.530   0.918
10379W        W82639  42.266  23.816   2.275
10380W        W82640  10.197   3.484   2.340
10381W        W82641  15.328   7.178  12.411
10382W        W82642  42.983  13.367   2.901
10383W        W82643   5.048  27.076  12.496
10384W        W82644   8.807  31.935   4.794
10385W        W82645  21.598   2.895   4.076
10386W        W82646  26.637  17.998  14.236
10387W        W82647   1.466   8.806   3.474
10388W        W82648  10.746  40.977   3.106
10389W        W82649  16.125  22.107  12.851
10390W        W82650  31.850  42.887  14.673
10391W        W82651  13.916  33.553  13.007
10392W        W82652   6.848  38.364  10.676
10393W        W82653  36.171  17.267   1.388
10394W        W82654  34.290  41.252   2.159
10395W        W82655  13.275  39.918  11.190
10396W        W82656  33.114  35.655  11.437
10397W        W82657  28.204   7.955  11.769
10398W        W82658  35.073  42.356   4.181
10399W        W82659   5.869  35.769   4.303
10400W        W82660  19.070   8.738   4.238
10401W        W82661   4.383  40.141  10.685
10402W        W82662  18.661  13.859   3.213
10403W        W82663   9.267  14.399   2.333
10404W        W82664   1.356  12.683   0.870
10405W        W82665  42.506  18.089  10.412
10406W        W82666  39.498  42.422  14.113
10407W        W82667  12.368   6.976   1.436
10408W        W82668  30.606  10.250  11.979
10409W        W82669  30.506  18.549  12.360
10410W        W82670  21.602  34.378  12.454
10411W        W82671  37.969  14.224   0.425
10412W        W82672  12.731  28.952   4.536
10413W        W82673  38.837  14.154   3.824
10414W        W82674  12.182  19.306   0.297
10415W        W82675  15.086   5.545   2.175
10416W        W82676  12.399  41.541   2.806
10417W        W82677  40.886  33.904  12.233
10418W        W82678  17.241   6.191  13.855
10419W        W82679  42.753   1.923  12.925
10420W        W82680   7.358  14.803   1.474
10421W        W82681  23.268   7.605   0.260
10422W        W82682   4.203  33.631   4.059
10423W        W82683  10.239  30.920   2.269
10424W        W82684  27.300  44.788   4.052
10425W        W82685  38.076   8.032  10.851
10426W        W82686  40.133  42.653  13.689
10427W        W82687  29.037  17.603   0.834
10428W        W82688   6.878  17.504   3.328
10429W        W82689  35.018   8.976  12.882
10430W        W82690   8.982  31.673   4.403
10431W        W82691  27.661  41.364   3.150
10432W        W82692  44.430  32.155   1.350
10433W        W82693  18.777   1.489  13.559
10434W        W82694   2.478  16.551  14.010
10435W        W82695  29.609  41.067  13.967
10436W        W82696  18.964   6.615   4.036
10437W        W82697  23.097  13.898   1.328
10438W        W82698  26.713  43.960   1.311
10439W        W82699   5.637  24.262  14.285
10440W        W82700  39.576  36.843   4.003
10441W        W82701  34.031  20.787   4.208
10442W        W82702  28.359  17.807  13.002
10443W        W82703  18.770  20.642  14.894
10444W        W82704  27.113  26.553  10.207
10445W        W82705  24.742  29.639   2.819
10446W        W82706  43.133  27.728  13.063
10447W        W82707  27.407   5.961   0.280
10448W        W82708  36.988  18.142   0.416
10449W        W82709  38.368  36.923  11.097
10450W        W82710  30.876  37.368   0.055
10451W        W82711  35.165  34.886  11.988
10452W        W82712   6.581  42.463   1.462
10453W        W82713   5.087  12.199   3.757
10454W        W82714  19.089  26.421  11.147
10455W        W82715  21.255  37.328  11.490
10456W        W82716   9.941  40.961  14.317
10457W        W82717  30.263  16.241  14.210
10458W        W82718   3.502  44.938   1.975
10459W        W82719  20.642  12.732   3.957
10460W        W82720  12.758  31.986   0.601
10461W        W82721  13.796  40.568  12.084
10462W        W82722  12.157  14.071  13.945
10463W        W82723  14.362  36.640  11.455
10464W        W82724   3.246  40.122   1.924
10465W        W82725  29.891  13.451   2.263
10466W        W82726  41.997  41.234   0.490
10467W        W82727  25.004   4.213   1.343
10468W        W82728  39.418  16.597  14.920
10469W        W82729  31.514  39.739  14.917
10470W        W82730  30.645  32.596  10.159
10471W        W82731  39.506  35.062   4.630
10472W        W82732  17.600  34.748  14.358
10473W        W82733  17.947  13.842  13.408
10474W        W82734  15.900  44.915  11.159
10475W        W82735  24.932   4.264   4.464
10476W        W82736   5.961   8.505  12.018
10477W        W82737   8.488   0.830  11.622
10478W        W82738  19.054  13.179   0.983
10479W        W82739  33.519  35.994  13.360
10480W        W82740  28.666   9.305   0.770
10481W        W82741  10.461   7.256   3.718
10482W        W82742  13.174   7.315   4.480
10483W        W82743  39.963  14.863   4.760
10484W        W82744  33.435  43.460  11.545
10485W        W82745   2.695   8.801   3.800
10486W        W82746  39.651  18.115   2.759
10487W        W82747   9.132   8.481   3.667
10488W        W82748  11.834  38.363   4.307
10489W        W82749  34.498  26.917  11.549
10490W        W82750  32.472  30.233  12.312
10491W        W82751   6.687  30.015  13.782
10492W        W82752   9.910   3.305   3.843
10493W        W82753  42.420   7.164   0.870
10494W        W82754  41.673   0.544  12.548
10495W        W82755  18.624  24.090  10.607
10496W        W82756  42.491  19.320  11.986
10497W        W82757   9.236  23.143   3.767
10498W        W82758   2.199  29.029   0.833
10499W        W82759  11.340  15.672  10.445
10500W        W82760   4.912   5.998   2.779
10501W        W82761  41.534  11.476  14.088
10502W        W82762  18.488  39.087   2.653
10503W        W82763  26.607  42.732  11.900
10504W        W82764  18.084  41.437  13.250
10505W        W82765  40.020  38.525   2.790
10506W        W82766  44.427  27.607   4.159
10507W        W82767  40.875  12.291  11.568
10508W        W82768  33.324   7.271   0.356
10509W        W82769  18.413   5.363  12.090
10510W        W82770  40.684  19.282   1.722
10511W        W82771  14.545  18.724   3.998
10512W        W82772  31.488   8.216  12.187
10513W        W82773  25.566  11.890  12.552
10514W        W82774   8.283   2.321   4.427
10515W        W82775  12.675  23.085  10.766
10516W        W82776  20.138  12.345  14.834
10517W        W82777  26.343   0.886   5.058
10518W        W82778  39.114  18.563  11.441
10519W        W82779  32.946  19.099  14.483
10520W        W82780  20.026  10.753   3.729
10521W        W82781  19.074  34.598  14.542
10522W        W82782  16.051  25.987  13.285
10523W        W82783   7.763   2.283  10.917
10524W        W82784  30.840  13.840   4.516
10525W        W82785  14.773   8.763  11.900
10526W        W82786  11.111  33.059  13.369
10527W        W82787  17.129  11.203  11.097
10528W        W82788  31.680   3.157   1.483
10529W        W82789  28.443  33.666   4.235
10530W        W82790  19.717  37.845   1.265
10531W        W82791  22.818  16.656  10.999
10532W        W82792  38.790  21.989   3.294
10533W        W82793  27.457  31.034   0.373
10534W        W82794  40.611  10.329   3.225
10535W        W82795  31.969  26.487   2.297
10536W        W82796   3.327  36.001   0.418
10537W        W82797  33.144  30.654   1.276
10538W        W82798  42.900  38.140   1.762
10539W        W82799   5.615  31.448  11.015
10540W        W82800  34.915  44.018  13.997
10541W        W82801   2.774  34.063   4.699
10542W        W82802   1.879   7.821   2.608
10543W        W82803  31.726   1.050   2.347
10544W        W82804  36.396   8.483  13.368
10545W        W82805  35.682   1.677   4.177
10546W        W82806  25.668  16.540   2.747
10547W        W82807  36.315  32.195  14.535
10548W        W82808  11.892  28.681   4.109
10549W        W82809  20.503   6.926  12.780
10550W        W82810   4.396   3.706   4.580
10551W        W82811  20.318  14.846   0.280
10552W        W82812  21.645  10.781  10.657
10553W        W82813  31.930   9.365   1.931
10554W        W82814   5.674   7.758   2.217
10555W        W82815   8.657   8.797   3.380
10556W        W82816  42.852  36.514   1.657
10557W        W82817  28.078   9.206  12.312
10558W        W82818  41.494   6.305   3.632
10559W        W82819   1.969   2.788   1.745
10560W        W82820  38.935   1.581  11.902
10561W        W82821  14.223  30.939   1.158
10562W        W82822   2.728  12.683   2.383
10563W        W82823  44.011   4.356  14.339
10564W        W82824  26.898   1.320  13.982
10565W        W82825   7.360  12.894  13.316
10566W        W82826  25.824  37.774   0.000
10567W        W82827  43.743   7.949  13.353
10568W        W82828  19.443  24.074   0.841
10569W        W82829  25.534  40.558   3.822
10570W        W82830  37.910  12.275   2.837
10571W        W82831  12.353  15.123  13.383
10572W        W82832  23.694  10.319   2.183
10573W        W82833  10.852  23.604   4.903
10574W        W82834   3.832  19.287  10.818
10575W        W82835  42.515  22.931   0.884
10576W        W82836  14.562  32.991  14.981
10577W        W82837   8.451   3.848   3.781
10578W        W82838  43.833  40.922  11.569
10579W        W82839  43.618   9.301  14.514
10580W        W82840   2.176  29.196   2.443
10581W        W82841  36.051   2.963  13.377
10582W        W82842   4.300  26.997  11.520
10583W        W82843  33.219  29.088  10.092
10584W        W82844  11.656  27.990   0.239
10585W        W82845  30.908  29.110   3.942
10586W        W82846  31.953   6.484   1.635
10587W        W82847  42.974  40.418  11.005
10588W        W82848  23.533  27.118  11.994
10589W        W82849  40.381  20.793   4.633
10590W        W82850  27.664  35.907  10.721
10591W        W82851  18.711  30.712   3.730
10592W        W82852  39.461  28.152   0.051
10593W        W82853  44.108  18.925   3.318
10594W        W82854  24.420  30.067   4.151
10595W        W82855  30.418  20.657  14.381
10596W        W82856   9.355  28.518  14.531
10597W        W82857  13.860  34.584   3.701
10598W        W82858  20.261  30.382  11.987
10599W        W82859   2.421  42.008   0.404
10600W        W82860   9.661  24.781   2.766
10601W        W82861  27.051  21.278  11.894
10602W        W82862  17.283  30.178   4.132
10603W        W82863  29.323  31.671  14.985
10604W        W82864  28.518  24.244  11.499
10605W        W82865   3.962  31.198   1.916
10606W        W82866  44.685  41.939   2.269
10607W        W82867  18.370  36.211   4.565
10608W        W82868  38.336  26.419  10.741
10609W        W82869  27.465  15.169   0.162
10610W        W82870  43.857   5.882   0.267
10611W        W82871  30.597   6.971  11.206
10612W        W82872  32.651   1.943   2.367
10613W        W82873  34.654  34.126   2.800
10614W        W82874  35.031  43.335   3.687
10615W        W82875  37.530  41.624   2.800
10616W        W82876  30.340  38.463  10.896
10617W        W82877  34.505  42.866  14.732
10618W        W82878   3.602  12.126   2.254
10619W        W82879   0.063  36.485  10.447
10620W        W82880  22.065  23.149  15.000
10621W        W82881  17.320  43.772   0.737
10622W        W82882  18.648   4.990  13.977
10623W        W82883  11.820  24.164  12.519
10624W        W82884  13.102  21.165   2.690
10625W        W82885  44.542  40.084  12.076
10626W        W82886  39.938  27.389   0.858
10627W        W82887  28.311  24.773  14.536
10628W        W82888  37.511  27.994   4.621
10629W        W82889  23.348  19.034   9.804
10630W        W82890  26.422  24.959   3.188
10631W        W82891  13.381   3.315  11.130
10632W        W82892  19.921  35.821  11.856
10633W        W82893  13.197  21.075   3.213
10634W        W82894  24.133  40.867  11.744
10635W        W82895  16.163   3.587  11.909
10636W        W82896  33.111  32.818  12.548
10637W        W82897  16.520   1.497  13.401
10638W        W82898   2.112  38.876   4.589
10639W        W82899  10.587  20.869  14.236
10640W        W82900  40.792  27.961   2.806
10641W        W82901  31.563  33.920   3.768
10642W        W82902  28.748  11.281   0.909
10643W        W82903  19.357   0.918  11.668
10644W        W82904  18.018  17.760   0.385
10645W        W82905  32.680  36.827   4.058
10646W        W82906   3.739  22.942   2.644
10647W        W82907   1.766  10.150   1.163
10648W        W82908  27.871  43.924   4.203
10649W        W82909  42.970   7.878  13.934
10650W        W82910   9.851  18.046  12.603
10651W        W82911  41.841  40.921  13.309
10652W        W82912   7.708  40.583   0.728
10653W        W82913  39.082  36.694   2.365
10654W        W82914   2.292   1.392   2.468
10655W        W82915  25.228  15.742  13.450
10656W        W82916  40.449  18.004   0.202
10657W        W82917  41.825  22.559  11.544
10658W        W82918  27.286  43.517  11.420
10659W        W82919   2.915  21.037  12.481
10660W        W82920   6.878  11.283  10.745
10661W        W82921  37.115  28.878  12.586
10662W        W82922  12.332  44.298   3.232
10663W        W82923  33.569  23.950   4.558
10664W        W82924  44.240  24.247  12.339
10665W        W82925  28.126  29.358   3.204
10666W        W82926  11.675  24.473  11.664
10667W        W82927   3.490  15.945   1.408
10668W        W82928  44.073  39.057  10.703
10669W        W82929  26.205  26.036  11.443
10670W        W82930  35.615  40.106  11.593
10671W        W82931  30.980  26.471   3.387
10672W        W82932   4.430   6.875   4.119
10673W        W82933   7.691   8.213   3.675
10674W        W82934  24.780  10.301  14.966
10675W        W82935  36.094  32.223   0.543
10676W        W82936  27.868  10.737  14.520
10677W        W82937   0.005  25.109  11.937
10678W        W82938  37.969  11.926  12.847
10679W        W82939  29.581  28.209   2.676
10680W        W82940  13.637   8.202  14.390
10681W        W82941  16.147   5.451  11.622
10682W        W82942  36.048  41.076  11.048
10683W        W82943  21.697   8.182  12.672
10684W        W82944   6.345  28.445   2.926
10685W        W82945  23.230  26.478   1.337
10686W        W82946  17.323  36.502  12.801
10687W        W82947  44.810   0.838   4.324
10688W        W82948  42.292  38.542  11.355
10689W        W82949  11.749  39.303  12.055
10690W        W82950  43.403  43.998   2.774
10691W        W82951  43.450  42.709   3.324
10692W        W82952  39.572  30.062   2.602
10693W        W82953  20.957  41.495   0.031
10694W        W82954  28.577   4.895  11.558
10695W        W82955  43.943   0.527  10.654
10696W        W82956  34.811  19.044  11.360
10697W        W82957  26.366  44.361  14.545
10698W        W82958  12.657  41.134   3.892
10699W        W82959  28.563  29.321   0.383
10700W        W82960   6.746  28.498  10.542
10701W        W82961  12.705  14.597   4.537
10702W        W82962  36.442  20.065   2.406
10703W        W82963   3.743  27.084  10.870
10704W        W82964  44.289   7.957  14.882
10705W        W82965  17.869  36.865  12.165
10706W        W82966  29.224   2.032  14.233
10707W        W82967  18.484  31.863  12.518
10708W        W82968   8.316  35.831  12.403
10709W        W82969  40.475  20.305   0.836
10710W        W82970   2.226  20.929  13.216
10711W        W82971  31.826  32.612   2.265
10712W        W82972  40.408  42.439  13.308
10713W        W82973  24.816  39.574  10.219
10714W        W82974  40.501   0.331   2.814
10715W        W82975  15.816  42.505   4.512
10716W        W82976   9.878  25.108   0.330
10717W        W82977   7.583   4.636   3.299
10718W        W82978  20.350  25.198  13.077
10719W        W82979  22.131  18.597  12.828
10720W        W82980   7.328  14.960  13.804
10721W        W82981  29.111  29.197  11.483
10722W        W82982  24.111  21.543   2.442
10723W        W82983  44.897   1.168   2.033
10724W        W82984  37.008   4.451  11.546
10725W        W82985  39.647   6.735  12.609
10726W        W82986  11.335  12.923  10.605
10727W        W82987  38.341  10.097   2.344
10728W        W82988  42.003  37.053   4.183
10729W        W82989  29.107  26.556  14.109
10730W        W82990  12.886  35.835   0.373
10731W        W82991  11.753  20.805  12.298
10732W        W82992  27.430  42.792  14.423
10733W        W82993  29.397  10.633   0.407
10734W        W82994  40.478  43.060  12.033
10735W        W82995  37.170  24.186  12.382
10736W        W82996  30.080   4.015   2.078
10737W        W82997  13.023   0.400  11.869
10738W        W82998  15.609  10.424  13.958
10739W        W82999  39.594  18.729  13.042
10740W        W83000  31.330  41.306  13.821
10741W        W83001  11.731  32.086   0.772
10742W        W83002  25.047  16.330   4.116
10743W        W83003  17.813  25.389   2.624
10744W        W83004  43.746   2.976   1.374
10745W        W83005  22.259  26.279  11.017
10746W        W83006  25.421  37.356  10.546
10747W        W83007  25.260   3.734  13.968
10748W        W83008  33.624  20.750  10.983
10749W        W83009  12.826  26.680   0.408
10750W        W83010  33.534  22.073  10.833
10751W        W83011  26.552  10.844   2.533
10752W        W83012  44.310   2.257   2.429
10753W        W83013  29.347  13.548   3.669
10754W        W83014  27.259  10.794   2.431
10755W        W83015  36.444  23.184  13.641
10756W        W83016  20.252  41.052  13.117
10757W        W83017   8.769  38.035  13.324
10758W        W83018  24.116   1.771   0.675
10759W        W83019   3.136  36.049  13.002
10760W        W83020  19.809   7.430  10.582
10761W        W83021  26.699  35.922  13.600
10762W        W83022  35.215  30.262  13.515
10763W        W83023  20.617  42.890  12.079
10764W        W83024  21.834  28.356   4.978
10765W        W83025  13.957  26.959   0.372
10766W        W83026  22.963  35.511  14.747
10767W        W83027  10.235   1.938  14.047
10768W        W83028  31.130   5.508  12.571
10769W        W83029   3.931   4.944   1.746
10770W        W83030   1.643  10.708  13.877
10771W        W83031  39.176  16.504   0.421
10772W        W83032   0.234  24.638  10.713
10773W        W83033   7.413  43.874   0.916
10774W        W83034   1.875  22.129  11.423
10775W        W83035  29.554   8.319  14.576
10776W        W83036  42.765  33.953  11.561
10777W        W83037  44.994  39.081   1.352
10778W        W83038   3.835  27.524  14.516
10779W        W83039  20.180  43.021   1.240
10780W        W83040   4.848  30.550  10.545
10781W        W83041   7.001   3.343  12.731
10782W        W83042  35.194   0.850  12.164
10783W        W83043   6.645   2.294  14.116
10784W        W83044  19.153  33.235   2.202
10785W        W83045  24.825   6.311  12.528
10786W        W83046  10.198   8.325   2.266
10787W        W83047   0.153  16.084  11.882
10788W        W83048  25.684  31.647   0.233
10789W        W83049   2.996  42.838  13.518
10790W        W83050   3.478  13.179  10.511
10791W        W83051   1.821   8.393   1.903
10792W        W83052  27.742  26.896  10.965
10793W        W83053  20.947   9.336   3.338
10794W        W83054  32.079  38.337   4.604
10795W        W83055  20.076   6.287   3.694
10796W        W83056  41.384  32.051  10.965
10797W        W83057  42.567  23.840  10.863
10798W        W83058  31.390  15.221   4.800
10799W        W83059   6.731  24.177  13.756
10800W        W83060  29.421  37.524   1.451
10801W        W83061  21.500  28.254   4.154
10802W        W83062  38.311   7.337   3.171
10803W        W83063  40.531  40.928   0.231
10804W        W83064  37.502  36.481   2.510
10805W        W83065   5.284  38.929  14.764
10806W        W83066   9.167   2.376  13.935
10807W        W83067  26.530  30.129  11.548
10808W        W83068   5.463   8.669  13.639
10809W        W83069  37.883   4.837  13.460
10810W        W83070  34.526   4.813   1.334
10811W        W83071  41.013   8.743   4.496
10812W        W83072  11.650  29.201  14.636
10813W        W83073   7.169   2.384  12.417
10814W        W83074   4.120  35.360   2.497
10815W        W83075   8.281  43.404  13.800
10816W        W83076   2.439  40.843   4.549
10817W        W83077  25.661  39.805   0.842
10818W        W83078  19.023   2.538  13.489
10819W        W83079  44.019  12.070   0.779
10820W        W83080  24.487  24.749   1.208
10821W        W83081  36.349   4.347   2.153
10822W        W83082  12.246  15.721   1.893
10823W        W83083  26.613   4.541  10.802
10824W        W83084  31.091  34.343  11.522
10825W        W83085  28.015   1.678  10.319
10826W        W83086  30.666  10.268  10.387
10827W        W83087  39.603  36.684  10.797
10828W        W83088  15.575  36.196   2.024
10829W        W83089   5.740   5.208   4.772
10830W        W83090  11.023  31.717   3.639
10831W        W83091  42.741  17.027  10.209
10832W        W83092  38.375  28.712   0.530
10833W        W83093  10.092  38.324  11.841
10834W        W83094  28.955  36.640  11.066
10835W        W83095  24.744  17.908  13.426
10836W        W83096   6.371  37.422   3.546
10837W        W83097  34.596   9.819  13.774
10838W        W83098  39.857  33.814  10.800
10839W        W83099  33.482  30.707   0.346
10840W        W83100  13.871  10.247   2.767
10841W        W83101  29.728   3.721   0.797
10842W        W83102  38.976  41.493  11.528
10843W        W83103  31.862  15.066   2.888
10844W        W83104   5.763  41.004  11.501
10845W        W83105  43.955  32.900  11.872
10846W        W83106   3.003  18.120   1.403
10847W        W83107  37.539   2.134   3.258
10848W        W83108   3.317  32.851   0.081
10849W        W83109  40.604   8.288  12.955
10850W        W83110  15.588  13.800  13.364
10851W        W83111   9.912   6.193  13.367
10852W        W83112  26.618  33.507   3.832
10853W        W83113  16.346   0.925  10.655
10854W        W83114   0.536  35.414  12.746
10855W        W83115   5.797  27.054  12.991
10856W        W83116  37.035   7.189  13.028
10857W        W83117   9.998  41.965  12.349
10858W        W83118   2.126   4.234  11.073
10859W        W83119  14.901  22.750  13.498
10860W        W83120  21.296   7.516   0.048
10861W        W83121  16.110  37.334   0.296
10862W        W83122  30.162   0.394  11.258
10863W        W83123  30.566  12.630  10.321
10864W        W83124   8.648  16.124  13.774
10865W        W83125   7.652   4.703  14.338
10866W        W83126  24.602  21.685   4.387
10867W        W83127  22.780   4.279  14.604
10868W        W83128  16.873   9.484   1.365
10869W        W83129  17.366  27.988  10.646
10870W        W83130  35.371   8.292  13.299
10871W        W83131   2.972  41.014  11.035
10872W        W83132  30.268  12.868  11.110
10873W        W83133  34.028  31.671  14.342
10874W        W83134  42.418  28.094  10.647
10875W        W83135  20.813  32.839  13.935
10876W        W83136   7.701  40.118  13.973
10877W        W83137  20.602   6.321   4.595
10878W        W83138   3.515   1.413  12.087
10879W        W83139  44.316   4.242   3.799
10880W        W83140  39.660  22.070   3.763
10881W        W83141  42.380   0.245   3.558
10882W        W83142   3.750  22.756   1.822
10883W        W83143  37.327  21.293  14.774
10884W        W83144  24.899   3.423   1.005
10885W        W83145   4.761   9.394   0.285
10886W        W83146  21.523  21.973   2.124
10887W        W83147  29.514  20.622   4.147
10888W        W83148  35.113  26.563  13.948
10889W        W83149  34.311   7.314  14.578
10890W        W83150   6.122  24.904   0.789
10891W        W83151  17.005  21.737  10.556
10892W        W83152  12.722  14.314  10.636
10893W        W83153  27.655  12.258  14.400
10894W        W83154  21.149   4.227   4.148
10895W        W83155   3.812   6.038  13.995
10896W        W83156   3.492  34.884   1.815
10897W        W83157   9.915  31.032   1.273
10898W        W83158  25.471  39.302  13.945
10899W        W83159  27.665  37.461  11.560
10900W        W83160  40.994  29.793   1.169
10901W        W83161   3.446  40.238  10.609
10902W        W83162   7.717  25.991   1.499
10903W        W83163  22.889  19.576   4.147
10904W        W83164  24.234   1.503  12.626
10905W        W83165  12.941  11.769  11.216
10906W        W83166  15.053   7.773  10.691
10907W        W83167  19.000  33.560  12.072
10908W        W83168  15.264  34.065  13.152
10909W        W83169  14.683  13.667  10.319
10910W        W83170  13.678  41.782   3.307
10911W        W83171  32.965  24.806   1.360
10912W        W83172  38.288   2.844  12.060
10913W        W83173   6.103  43.268   1.828
10914W        W83174  39.948  38.869  14.301
10915W        W83175  43.500  27.694   2.608
10916W        W83176   3.545  36.985   3.663
10917W        W83177   9.623   6.178   4.272
10918W        W83178  24.371   2.940  13.929
10919W        W83179  33.448  30.992   3.672
10920W        W83180  36.959  28.935  11.681
10921W        W83181   9.695   9.179  12.610
10922W        W83182  26.640  20.107  10.848
10923W        W83183  44.401  34.117  14.939
10924W        W83184  11.606  43.963   1.278
10925W        W83185  17.075  37.291   2.271
10926W        W83186  40.397  40.354  10.712
10927W        W83187   2.710  38.400   2.246
10928W        W83188  12.609  42.465   2.255
10929W        W83189   6.736  13.798   3.207
10930W        W83190  24.518  44.368  14.949
10931W        W83191  39.782  18.150  11.468
10932W        W83192  20.658  40.450   4.770
10933W        W83193  44.839  39.991  10.651
10934W        W83194  23.113  24.983   1.277
10935W        W83195  28.998   0.292   3.661
10936W        W83196  37.667  37.636  13.579
10937W        W83197  25.643   2.825   1.832
10938W        W83198  38.028   0.856   0.522
10939W        W83199  22.778   0.884   1.906
10940W        W83200  24.212  40.337  14.787
10941W        W83201  27.577  12.730  11.445
10942W        W83202   8.396   9.853  11.247
10943W        W83203  10.351  36.334  11.207
10944W        W83204  23.987   5.362   4.538
10945W        W83205  14.240  26.905   2.191
10946W        W83206  13.236  34.971   0.855
10947W        W83207  27.648  34.884  14.028
10948W        W83208  17.697  21.485  10.615
10949W        W83209  34.944  31.564  10.497
10950W        W83210  21.291  41.304   4.558
10951W        W83211   2.496   0.974   2.090
10952W        W83212   6.255  32.302   1.790
10953W        W83213  32.521   1.479  14.980
10954W        W83214   9.644  44.479   5.189
10955W        W83215  33.966  26.140   0.424
10956W        W83216  41.624   0.153  10.592
10957W        W83217  43.936  16.622   3.266
10958W        W83218  29.885  44.829  13.516
10959W        W83219  36.378  27.855  12.764
10960W        W83220   6.191   6.432   0.354
10961W        W83221   1.240  34.109  14.709
10962W        W83222  41.415  21.635  12.910
10963W        W83223  31.163  25.175   0.634
10964W        W83224  34.890   1.702  12.285
10965W        W83225  39.170  40.579  12.585
10966W        W83226  14.007  24.157  11.960
10967W        W83227  22.629  38.819  13.213
10968W        W83228  32.598  21.048  13.409
10969W        W83229  35.408  34.701  13.574
10970W        W83230  25.567  36.392   0.968
10971W        W83231   9.323   2.944   4.184
10972W        W83232  30.663  15.030  11.818
10973W        W83233  40.567  43.630   3.225
10974W        W83234  21.707  23.130   1.361
10975W        W83235  42.008   9.407   2.778
10976W        W83236  17.155  36.523  13.276
10977W        W83237  40.925   5.188   4.560
10978W        W83238  36.977  24.792  13.786
10979W        W83239  14.687  28.523  13.532
10980W        W83240  34.204  14.239  11.965
10981W        W83241   5.862  40.516   0.372
10982W        W83242   8.730  36.785  10.887
10983W        W83243   9.334  31.234   3.814
10984W        W83244  23.375  38.303  11.181
10985W        W83245   1.938   9.019   0.268
10986W        W83246  42.843  25.396  12.068
10987W        W83247  25.000   7.869   1.938
10988W        W83248  26.509  18.915   4.526
10989W        W83249  29.545   0.110  12.677
10990W        W83250  36.077  26.696   4.372
10991W        W83251  12.659   1.990   0.701
10992W        W83252  18.551  34.030   1.979
10993W        W83253   6.921  20.090  14.498
10994W        W83254  33.019  43.780  14.326
10995W        W83255  26.957  17.135  10.681
10996W        W83256   7.168  29.812   3.966
10997W        W83257  24.848  26.151  14.847
10998W        W83258   9.806  19.573   4.150
10999W        W83259  31.615  29.551  13.208
11000W        W83260   7.699  44.486   0.023
11001W        W83261  10.153   9.672  10.612
11002W        W83262  25.629  35.435  12.389
11003W        W83263   8.021  19.194  14.227
11004W        W83264  14.638  26.120   4.279
11005W        W83265  42.413   1.986   0.217
11006W        W83266   0.738  33.961  14.441
11007W        W83267  27.930  17.153  12.121
11008W        W83268  14.208  18.953  11.502
11009W        W83269   1.247  43.431   3.180
11010W        W83270  17.761  27.753  14.491
11011W        W83271  10.828  23.084  13.328
11012W        W83272  25.794   8.878  13.849
11013W        W83273  39.376  25.949   2.228
11014W        W83274   5.603  10.791   1.738
11015W        W83275  20.999  43.464   3.487
11016W        W83276  44.916  37.676   0.215
11017W        W83277  13.642   1.103  13.435
11018W        W83278   5.295  31.037   2.224
11019W        W83279  11.251   4.952   3.200
11020W        W83280  26.076   5.411   3.788
11021W        W83281  40.928   0.843   4.886
11022W        W83282  26.220  20.247   3.154
11023W        W83283  17.196   3.173   2.673
11024W        W83284  14.335  35.023   2.257
11025W        W83285  38.713  36.367  11.296
11026W        W83286  33.505   6.759  14.203
11027W        W83287  33.088   7.282  11.183
11028W        W83288   1.529  29.152  14.394
11029W        W83289  29.171  28.084   2.966
11030W        W83290  22.691  27.557   9.955
11031W        W83291  27.350  39.179  12.940
11032W        W83292  23.763  37.801   2.364
11033W        W83293  24.699  38.796  12.533
11034W        W83294  21.156   3.268   1.374
11035W        W83295  20.829   2.485  11.559
11036W        W83296   8.794  27.996   1.315
11037W        W83297   5.304  38.384  14.002
11038W        W83298  10.905  11.676  11.270
11039W        W83299  43.266  20.542  12.068
11040W        W83300  10.106  10.364  11.477
11041W        W83301  27.223  33.407  12.368
11042W        W83302  13.166  26.079  12.896
11043W        W83303   4.726  35.279  14.777
11044W        W83304   9.896  15.836   4.629
11045W        W83305   2.257  15.055   0.304
11046W        W83306   0.817  44.277   1.340
11047W        W83307  16.052  30.994  14.589
11048W        W83308  39.742  32.574  10.379
11049W        W83309   1.423  30.350   4.908
11050W        W83310  23.657  18.499   4.443
11051W        W83311  12.497  34.605  14.894
11052W        W83312  42.758  22.729  11.450
11053W        W83313  39.445  41.998   3.383
11054W        W83314  12.091  36.922  12.852
11055W        W83315  18.306  12.859   2.830
11056W        W83316   2.882  23.000  11.118
11057W        W83317  34.031  39.534  13.461
11058W        W83318   1.341  34.903   3.954
11059W        W83319  23.960   3.332  10.301
11060W        W83320  13.614  16.187   0.894
11061W        W83321   7.478  25.483   3.225
11062W        W83322   9.123  39.847  12.925
11063W        W83323   2.369  26.991   3.876
11064W        W83324  22.122  29.964   1.181
11065W        W83325   0.025  10.117   2.213
11066W        W83326  24.442  30.648   1.564
11067W        W83327   8.497  22.138  11.042
11068W        W83328   5.686  30.183   0.307
11069W        W83329  17.226   9.854   1.243
11070W        W83330  40.056   5.199   3.311
11071W        W83331  37.697   9.243  14.035
11072W        W83332  34.013  37.266  12.986
11073W        W83333  22.517   0.411   1.408
11074W        W83334  15.539  31.101  14.218
11075W        W83335  24.501   7.778  11.136
11076W        W83336  37.709  37.462  10.098
11077W        W83337   5.855  34.427  12.116
11078W        W83338  41.994  29.982  12.102
11079W        W83339   2.458  22.078  13.119
11080W        W83340   2.180   0.376  13.786
11081W        W83341  13.155  33.859   4.519
11082W        W83342  13.846  22.840  11.918
11083W        W83343  21.692  26.245   5.444
11084W        W83344  17.797  39.334  11.353
11085W        W83345  44.942  30.141  10.638
11086W        W83346   0.911  37.435   2.091
11087W        W83347  28.915  26.672   4.577
11088W        W83348   2.873  23.065  14.676
11089W        W83349  10.126  21.683  13.190
11090W        W83350  37.783  44.723  13.826
11091W        W83351  43.719  16.360   2.883
11092W        W83352  32.181  21.084  13.076
11093W        W83353  23.949  18.378  14.950
11094W        W83354  35.527   1.842   2.640
11095W        W83355  25.343  19.008  14.998
11096W        W83356  41.917  25.501   4.277
11097W        W83357   0.278   9.149   0.486
11098W        W83358  21.076   0.015   4.518
11099W        W83359  40.755  18.306   4.380
11100W        W83360  42.852  20.699  12.365
11101W        W83361   3.457   9.403  13.019
11102W        W83362   1.282   1.821  14.825
11103W        W83363  21.142  23.407   0.935
11104W        W83364  27.521  39.011  11.931
11105W        W83365  31.986   5.650  14.461
11106W        W83366  20.691  32.428  11.455
11107W        W83367  11.651  12.317   2.428
11108W        W83368  43.753  19.749   0.301
11109W        W83369  40.425   1.790   1.390
11110W        W83370  30.638  33.968   3.927
11111W        W83371  31.476   5.356   0.365
11112W        W83372   9.071  39.338   0.229
11113W        W83373   0.436  15.343   0.434
11114W        W83374  15.177  41.886  11.465
11115W        W83375  43.316   7.415  12.556
11116W        W83376  39.290  32.064  13.333
11117W        W83377  25.473  17.137  11.615
11118W        W83378  11.376  43.119  13.819
11119W        W83379  36.292  18.988   3.255
11120W        W83380   6.151  21.048   0.910
11121W        W83381  21.311  34.722   1.146
11122W        W83382  31.514  38.431  14.723
11123W        W83383  43.243  29.445  11.166
11124W        W83384   9.855  42.117   2.037
11125W        W83385  34.316  14.625   5.117
11126W        W83386  27.924  28.953  14.406
11127W        W83387  25.956   6.474  13.158
11128W        W83388  38.212  10.982  13.027
11129W        W83389  16.346   1.428   2.069
11130W        W83390   5.893  13.038  14.436
11131W        W83391  34.039   0.324   4.404
11132W        W83392  21.090   4.495   3.706
11133W        W83393  36.519  37.266  14.325
11134W        W83394   4.731  16.492   4.120
11135W        W83395  31.029  25.198  13.869
11136W        W83396  15.075  11.203   2.642
11137W        W83397  30.173   1.646  13.029
11138W        W83398  44.799  32.889   0.775
11139W        W83399  16.657  12.545  11.025
11140W        W83400  38.419  37.459  10.706
11141W        W83401  43.805   9.874   4.216
11142W        W83402  38.742   3.785   0.708
11143W        W83403   0.795  44.799   1.385
11144W        W83404  22.934  42.998  14.217
11145W        W83405  28.545   4.250  14.055
11146W        W83406  32.574   1.429  13.903
11147W        W83407  20.704  43.020   3.649
11148W        W83408   2.236   8.472  10.678
11149W        W83409  39.441   7.405   0.019
11150W        W83410  12.344   5.724  14.396
11151W        W83411   8.206   0.767   4.562
11152W        W83412  17.009   1.940   1.739
11153W        W83413   7.681  15.223   0.386
11154W        W83414  16.012  39.882   3.033
11155W        W83415  43.537  44.539  13.814
11156W        W83416  26.913  33.376   4.466
11157W        W83417  16.509  24.494   0.853
11158W        W83418  39.065  19.199   3.301
11159W        W83419  39.278  38.133   1.752
11160W        W83420  12.011  33.038  12.004
11161W        W83421  11.786   4.690  13.928
11162W        W83422  21.874  20.132  11.846
11163W        W83423  22.273   3.088  13.872
11164W        W83424  23.569  17.154  11.477
11165W        W83425  42.757  13.502  13.830
11166W        W83426   4.862  36.470  13.929
11167W        W83427  35.338   5.663   2.886
11168W        W83428  36.030   4.121   3.752
11169W        W83429  21.170   0.208  12.466
11170W        W83430  15.174  34.659   3.964
11171W        W83431  26.622  27.012  13.334
11172W        W83432  40.706  30.562   2.725
11173W        W83433  35.410  40.351  12.898
11174W        W83434  32.009  27.666   1.206
11175W        W83435  24.768  16.226   4.978
11176W        W83436  18.460  25.512   4.135
11177W        W83437  17.209  13.278   0.519
11178W        W83438  21.382  25.205   0.226
11179W        W83439  36.873   0.059  12.047
11180W        W83440   6.877  14.911   4.594
11181W        W83441  38.809  40.486   4.429
11182W        W83442  41.941   6.714   2.826
11183W        W83443   7.293  14.110   3.834
11184W        W83444   0.304  43.395  12.341
11185W        W83445   7.194  13.122  11.101
11186W        W83446  42.843  24.707   4.347
11187W        W83447  35.508  17.328  12.041
11188W        W83448  28.629  21.379   3.808
11189W        W83449  12.076  39.264   2.732
11190W        W83450  24.491  29.716   3.250
11191W        W83451  26.254  12.153   2.329
11192W        W83452  20.177  23.548   2.177
11193W        W83453  12.888   1.015   2.833
11194W        W83454  24.289  28.042   4.094
11195W        W83455  43.243  13.197  11.112
11196W        W83456  16.243  14.119   1.363
11197W        W83457   1.361  10.559   4.839
11198W        W83458  14.856  18.223   9.806
11199W        W83459  38.843  17.822   3.668
11200W        W83460  36.394  19.507   3.253
11201W        W83461  16.800  29.391  14.392
11202W        W83462   4.844  13.363  13.678
11203W        W83463  26.552  34.133  13.675
11204W        W83464   5.479  26.571  11.068
11205W        W83465  13.247  10.279   1.400
11206W        W83466  38.892  37.392  14.995
11207W        W83467  44.825  17.654   1.761
11208W        W83468  17.139  43.468   0.349
11209W        W83469  36.798  43.070   3.266
11210W        W83470  32.083  36.695  11.520
11211W        W83471   8.844  24.579   3.304
11212W        W83472  43.940  35.933  13.071
11213W        W83473  29.073  17.418   3.342
11214W        W83474   4.969  29.459  11.126
11215W        W83475  13.028  13.829   4.566
11216W        W83476  32.802  36.033  12.110
11217W        W83477  36.544   0.336   3.375
11218W        W83478  43.449   5.510   3.701
11219W        W83479   1.343  17.681   3.210
11220W        W83480  33.137  20.169  11.682
11221W        W83481   7.645  34.120  13.823
11222W        W83482  12.342  22.137   4.692
11223W        W83483   5.348  17.228  12.278
11224W        W83484   2.934  33.108  14.825
11225W        W83485  20.489  44.991  10.838
11226W        W83486   2.043  36.040  12.060
11227W        W83487  32.125  29.491  10.670
11228W        W83488  32.899  33.313  13.983
11229W        W83489  39.012  38.560  14.927
11230W        W83490  22.966  37.580  13.516
11231W        W83491   8.185   5.636   0.520
11232W        W83492  34.288  39.381   3.294
11233W        W83493  32.496  27.172   2.334
11234W        W83494  25.237  43.800   4.600
11235W        W83495  28.868   8.613   4.176
11236W        W83496  12.183  14.187   0.020
11237W        W83497  40.745  44.791  12.061
11238W        W83498   7.453   9.629   4.523
11239W        W83499  30.256  40.283   4.197
11240W        W83500  16.678  11.877   3.161
11241W        W83501  37.993  12.554   3.259
11242W        W83502  35.300  27.160  11.051
11243W        W83503   5.366  23.945  13.567
11244W        W83504  37.455  25.490   3.628
11245W        W83505   2.519  37.877   9.837
11246W        W83506  43.683  29.638  10.958
11247W        W83507   3.236  24.259   1.277
11248W        W83508  20.522   6.141   1.906
11249W        W83509  43.701  32.127   1.804
11250W        W83510  14.992  28.695   9.935
11251W        W83511  13.876  30.609  13.566
11252W        W83512  35.583  13.425  13.764
11253W        W83513  20.787  26.467  10.584
11254W        W83514  35.151  28.473   2.897
11255W        W83515  42.327   1.242   3.114
11256W        W83516  36.848   7.812   4.492
11257W        W83517  16.418  29.902   0.912
11258W        W83518   2.398  12.465   3.659
11259W        W83519  14.263   9.351  10.374
11260W        W83520  25.531  33.726   1.028
11261W        W83521   7.671  25.657   1.897
11262W        W83522   2.486  41.832  11.099
11263W        W83523  40.041   0.040   1.691
11264W        W83524  27.973  10.648   4.631
11265W        W83525  26.220  32.739  11.201
11266W        W83526  29.098  23.515  11.605
11267W        W83527  17.125   8.883  10.957
11268W        W83528  21.544  40.330  14.760
11269W        W83529   7.722  20.244   4.032
11270W        W83530  17.170   3.302   2.112
11271W        W83531  29.754  26.364  10.400
11272W        W83532  17.994  16.614   2.821
11273W        W83533  18.672   0.296   2.962
11274W        W83534  27.067  32.397   1.319
11275W        W83535  28.497  26.828  12.449
11276W        W83536  23.745  17.907  11.132
11277W        W83537   0.651  35.497   0.114
11278W        W83538   1.730  26.594   2.239
11279W        W83539   4.245  16.592   4.333
11280W        W83540  31.380  10.907  14.865
11281W        W83541  20.939  40.491   3.124
11282W        W83542  44.291  41.555   0.019
11283W        W83543  13.123  21.278  13.953
11284W        W83544  35.533  41.527   4.575
11285W        W83545  12.929   3.023  11.081
11286W        W83546  44.480   5.172   2.896
11287W        W83547  37.898  35.320   4.163
11288W        W83548   2.077  30.160  13.596
11289W        W83549  43.596  13.680   1.647
11290W        W83550   4.762  18.376  13.855
11291W        W83551  29.132   8.082   3.279
11292W        W83552  15.290   8.270  10.696
11293W        W83553  13.294  41.163   4.227
11294W        W83554  24.187  13.376  13.872
11295W        W83555  29.661  20.715  14.809
11296W        W83556  43.332  26.604   1.494
11297W        W83557  34.603  30.625   2.784
11298W        W83558  20.236  27.861  10.549
11299W        W83559  19.811   6.799  14.870
11300W        W83560  21.961  27.067  14.006
11301W        W83561  43.255  16.099  12.562
11302W        W83562  42.086   6.423  11.506
11303W        W83563  29.167   5.186   4.204
11304W        W83564  31.909  23.033   3.327
11305W        W83565  13.180   0.485  13.948
11306W        W83566  33.121  21.001   5.034
11307W        W83567   0.957  29.476   0.818
11308W        W83568  13.582   7.949   4.276
11309W        W83569  25.419  10.707  13.395
11310W        W83570  10.577  15.689  12.580
11311W        W83571  17.823   5.850  11.959
11312W        W83572  32.686  25.945   1.026
11313W        W83573  22.517  25.092  13.153
11314W        W83574  13.075  11.796  14.341
11315W        W83575  28.595  17.690  13.453
11316W        W83576   4.157  20.283   3.661
11317W        W83577   6.461   2.759   1.630
11318W        W83578  15.097  26.556   4.178
11319W        W83579  26.438  23.602  14.043
11320W        W83580  18.991  36.813   0.825
11321W        W83581  28.390   5.345   1.990
11322W        W83582   1.414  34.326   0.662
11323W        W83583  43.782  17.094  14.727
11324W        W83584   5.430  31.633   4.948
11325W        W83585  34.189   6.187   3.261
11326W        W83586  14.638  23.715  14.343
11327W        W83587  33.321  38.866  11.052
11328W        W83588  33.514  28.087  10.725
11329W        W83589  11.599  35.343   4.344
11330W        W83590   0.772  31.650  12.156
11331W        W83591  40.936  17.168  11.043
11332W        W83592  38.528  11.914   0.270
11333W        W83593   8.672  27.927  11.190
11334W        W83594  29.680  36.514   1.423
11335W        W83595  12.875  33.656   4.117
11336W        W83596  43.464   5.541   0.301
11337W        W83597  36.988   3.759   3.654
11338W        W83598  22.633  38.930   0.445
11339W        W83599  36.547  26.428  13.822
11340W        W83600   5.892  37.316   3.763
11341W        W83601  31.727  20.942   3.213
11342W        W83602  12.981  11.161  10.957
11343W        W83603  35.067  23.073   0.907
11344W        W83604  28.672  35.458   3.727
11345W        W83605  10.156  39.767  12.999
11346W        W83606  34.064  33.873  10.710
11347W        W83607  43.842  29.619  11.453
11348W        W83608  15.797  44.464   5.187
11349W        W83609  12.380   7.392   2.861
11350W        W83610  37.391  23.636  14.012
11351W        W83611  28.045  29.857   9.818
11352W        W83612   9.287  29.854  11.889
11353W        W83613  13.843  34.903  10.460
11354W        W83614  16.832  27.140   1.412
11355W        W83615   7.409   6.700   2.877
11356W        W83616  32.926   6.403   4.723
11357W        W83617  40.537  36.653  10.506
11358W        W83618  19.869  28.206   4.851
11359W        W83619  30.636   2.745  13.354
11360W        W83620  28.841  11.191   4.308
11361W        W83621  28.422  12.649   3.445
11362W        W83622  44.392   1.234  14.826
11363W        W83623  33.576  12.820   5.087
11364W        W83624  34.658  15.673  11.933
11365W        W83625  37.059  42.571   0.807
11366W        W83626  40.241   5.837   3.162
11367W        W83627  10.756  34.490   0.203
11368W        W83628   5.737  30.060   2.699
11369W        W83629  21.243   3.868  11.205
11370W        W83630  37.425  31.435   0.491
11371W        W83631  24.334   0.045  13.622
11372W        W83632   6.957   4.758  13.370
11373W        W83633  26.993  33.680   0.635
11374W        W83634  14.076  10.456   2.308
11375W        W83635  32.919  12.583   0.370
11376W        W83636  38.191  35.912   5.131
11377W        W83637  15.427  17.898  10.156
11378W        W83638  43.041  25.583   0.387
11379W        W83639  29.697   4.756   3.054
11380W        W83640  11.659  22.767  13.819
11381W        W83641  12.635  10.467  12.584
11382W        W83642  40.395  37.560   0.801
11383W        W83643  20.175  36.050   2.181
11384W        W83644   5.152   8.708  14.963
11385W        W83645   0.666   1.006   1.413
11386W        W83646  30.208   0.383  11.765
11387W        W83647   7.307  35.100   3.821
11388W        W83648  10.366  42.320  11.122
11389W        W83649  21.596  42.027  11.867
11390W        W83650  38.907   4.646   0.935
11391W        W83651  11.797  15.946  11.135
11392W        W83652  28.609   7.473   3.390
11393W        W83653  17.799   6.313  11.716
11394W        W83654   5.883   6.969   0.857
11395W        W83655  27.825  24.775   2.686
11396W        W83656  36.072  34.451   3.185
11397W        W83657  15.990  27.935  11.943
11398W        W83658  15.174  15.224  14.542
11399W        W83659  27.499   9.933  14.787
11400W        W83660  22.122   1.491  13.976
11401W        W83661  36.031  26.482   1.750
11402W        W83662  11.254   3.643   3.797
11403W        W83663  29.151  37.068   3.671
11404W        W83664  23.555  31.510  13.342
11405W        W83665  33.170  37.936  13.397
11406W        W83666  32.097  41.016  13.829
11407W        W83667  13.204  18.491   1.184
11408W        W83668  35.767  28.540  14.760
11409W        W83669  20.331  27.082   3.618
11410W        W83670  11.160   0.374   1.862
11411W        W83671  43.182  39.895   2.678
11412W        W83672   8.123  12.114  13.817
11413W        W83673  25.744   7.659   0.425
11414W        W83674  20.736  18.823   1.412
11415W        W83675  19.564   2.479  13.508
11416W        W83676  18.189   6.535  12.662
11417W        W83677  40.599  29.739   4.686
11418W        W83678  32.587  43.274  12.730
11419W        W83679  33.521  35.515   2.036
11420W        W83680   1.888   3.550   5.039
11421W        W83681  33.541   6.350   1.287
11422W        W83682  26.027  33.850  11.983
11423W        W83683  37.786  20.634  12.486
11424W        W83684  38.521  10.400   4.580
11425W        W83685  15.187  44.173   4.550
11426W        W83686  28.472  11.122  13.956
11427W        W83687  35.117  11.792  10.356
11428W        W83688  38.877  14.431   2.322
11429W        W83689   7.768  24.518  14.711
11430W        W83690  42.381  23.631  11.299
11431W        W83691  30.633  17.012  12.597
11432W        W83692  40.715  44.434   1.324
11433W        W83693  38.876  28.839   0.424
11434W        W83694  12.734   9.642  11.059
11435W        W83695  23.753  44.878  10.656
11436W        W83696  13.124  23.555   4.598
11437W        W83697  31.692  33.124   3.434
11438W        W83698  22.440   9.191   3.318
11439W        W83699   0.010   9.804  11.564
11440W        W83700  37.932   3.365  11.561
11441W        W83701  14.091  23.514  12.552
11442W        W83702  24.655   9.867  10.744
11443W        W83703  11.629  43.484   3.183
11444W        W83704  34.749   6.930   2.896
11445W        W83705   1.281  36.724   4.047
11446W        W83706  12.240   6.774  12.677
11447W        W83707  44.653  37.942  13.422
11448W        W83708   0.937   9.312   3.887
11449W        W83709  33.562  20.547   4.252
11450W        W83710   5.716   1.528   1.744
11451W        W83711   7.198  23.207   4.158
11452W        W83712   2.764   5.641   1.635
11453W        W83713  27.599  15.971  13.062
11454W        W83714  22.110   5.745   4.549
11455W        W83715  38.738   6.295   4.962
11456W        W83716   3.892  23.188   0.901
11457W        W83717  12.779   0.818  11.712
11458W        W83718  32.093  31.859   2.625
11459W        W83719  35.044   6.356  12.548
11460W        W83720  37.304  28.420   4.454
11461W        W83721  31.817  41.531   5.079
11462W        W83722  20.710  10.217   2.837
11463W        W83723  15.528  36.196  11.167
11464W        W83724  24.640  30.449  13.056
11465W        W83725  38.743  26.106  10.997
11466W        W83726  35.691   1.304  14.498
11467W        W83727  29.203  17.360   2.403
11468W        W83728  19.153   8.205  10.674
11469W        W83729   2.612   4.319   2.547
11470W        W83730   9.199  25.038   2.734
11471W        W83731  32.909   7.408  14.468
11472W        W83732  17.140  22.546  14.764
11473W        W83733  42.820  36.065  12.033
11474W        W83734  26.024  15.211  13.873
11475W        W83735  15.295  38.897  12.506
11476W        W83736  16.024   0.338  13.039
11477W        W83737  31.051   0.799  14.243
11478W        W83738  18.590  13.879   3.718
11479W        W83739  38.250  25.392   5.023
11480W        W83740  38.140   4.073  13.093
11481W        W83741  43.003  15.093  11.867
11482W        W83742   1.915   6.663  14.790
11483W        W83743   9.828  36.490  12.509
11484W        W83744   7.174  29.470   4.361
11485W        W83745  19.602   6.888   2.209
11486W        W83746   8.497  43.686  11.030
11487W        W83747  24.021  26.432  13.471
11488W        W83748  20.957  40.741  10.767
11489W        W83749   8.630  25.590   0.457
11490W        W83750  30.814  41.444   4.212
11491W        W83751   8.194  26.318   3.183
11492W        W83752   8.229  32.101  14.145
11493W        W83753  21.512  36.449  14.295
11494W        W83754  27.499  39.998   0.988
11495W        W83755   9.880  35.038  13.977
11496W        W83756   1.481  42.752  12.590
11497W        W83757  34.878  13.939   2.639
11498W        W83758  20.598  34.016  14.504
11499W        W83759  30.249  18.240  13.113
11500W        W83760  43.038  35.107  14.956
11501W        W83761  36.664   9.672  11.573
11502W        W83762  21.306  40.518  11.082
11503W        W83763  41.079  31.599  12.437
11504W        W83764  17.739   7.858   4.072
11505W        W83765  31.907  26.554   0.279
11506W        W83766  16.243   3.819   4.864
11507W        W83767  32.437  24.636   1.957
11508W        W83768  29.687   2.027   5.149
11509W        W83769  38.937  23.663  14.881
11510W        W83770   0.769  21.184  14.941
11511W        W83771  29.699  41.410   0.003
11512W        W83772  14.084   2.742  12.010
11513W        W83773  12.875  34.858   1.255
11514W        W83774  24.347  14.152  11.767
11515W        W83775  38.130  20.757   3.714
11516W        W83776   5.863  21.525   2.612
11517W        W83777  11.808  29.481   3.222
11518W        W83778  44.394  21.042  14.806
11519W        W83779  42.923  36.930   4.663
11520W        W83780  24.082   6.670  10.697
11521W        W83781  30.552  42.309  10.720
11522W        W83782   6.894  34.137  12.684
11523W        W83783  41.599  38.120  12.767
11524W        W83784  37.924  29.829   4.135
11525W        W83785  15.091  27.515   2.864
11526W        W83786   4.977  17.148  11.006
11527W        W83787  12.620   9.155  12.800
11528W        W83788  32.870  19.842   2.980
11529W        W83789  30.454  44.310   1.974
11530W        W83790  17.026  22.049  14.931
11531W        W83791  17.509  43.549   2.519
11532W        W83792  25.681  32.962  12.385
11533W        W83793  21.053   9.720   4.486
11534W        W83794  21.471   8.200  13.131
11535W        W83795  44.887  30.831  12.459
11536W        W83796  17.993  13.795  12.876
11537W        W83797   6.653  15.781  14.764
11538W        W83798   8.732  24.891   3.711
11539W        W83799  25.204  21.685   3.604
11540W        W83800  24.627  42.550   0.426
11541W        W83801  35.948  39.742  11.923
11542W        W83802  18.168  34.471   3.564
11543W        W83803  16.734  26.620  14.432
11544W        W83804   3.815   2.544  11.577
11545W        W83805   7.969   6.159   1.300
11546W        W83806  13.157   9.370  11.157
11547W        W83807  12.299  18.577  11.542
11548W        W83808  32.996  25.027   0.455
11549W        W83809  35.781   2.215   2.918
11550W        W83810  12.226  40.855   3.557
11551W        W83811   5.880  15.032   0.308
11552W        W83812  28.159   7.974  13.681
11553W        W83813  12.684  17.026   3.171
11554W        W83814  36.074  41.755  14.906
11555W        W83815  16.553   4.944   9.961
11556W        W83816  15.562   6.627   2.103
11557W        W83817  42.764  44.813  14.176
11558W        W83818  25.709  42.440   2.344
11559W        W83819  19.188   8.121   3.152
11560W        W83820  22.556   2.926  14.497
11561W        W83821  35.585  37.784  12.796
11562W        W83822   2.682  36.965   1.348
11563W        W83823  18.662  43.888   3.189
11564W        W83824  42.319  38.951   3.418
11565W        W83825  26.620  21.804  10.675
11566W        W83826  11.347  33.127   1.112
11567W        W83827  42.091  37.925  13.030
11568W        W83828  34.884  31.661   2.268
11569W        W83829  33.921  22.123   1.175
11570W        W83830  13.895  19.341   2.785
11571W        W83831  38.917  10.283  12.754
11572W        W83832  34.324  24.545  14.541
11573W        W83833  31.045  16.597  11.150
11574W        W83834  23.439  44.479  10.500
11575W        W83835  39.432  29.929  12.537
11576W        W83836   6.340  13.130   2.689
11577W        W83837  29.943  38.094  10.900
11578W        W83838  14.141  40.647   3.841
11579W        W83839  28.081  31.103  13.949
11580W        W83840  25.221  12.648  14.367
11581W        W83841  27.535  39.263   4.274
11582W        W83842  40.204  36.477   2.312
11583W        W83843  31.497  44.397  14.878
11584W        W83844  12.397   9.392   1.155
11585W        W83845  21.603  25.137   2.575
11586W        W83846  24.123   1.327  12.158
11587W        W83847  44.791  44.223   3.820
11588W        W83848  38.592  32.865  12.048
11589W        W83849  12.351  29.512  12.416
11590W        W83850  14.580  15.706   2.243
11591W        W83851  42.771  14.495   4.246
11592W        W83852  43.810   7.204  10.926
11593W        W83853   2.925   8.705  12.144
11594W        W83854  13.829  20.088  12.935
11595W        W83855   8.659   4.508  11.402
11596W        W83856  16.248  32.971   1.633
11597W        W83857  35.263  39.021   3.147
11598W        W83858  14.716  25.625   3.434
11599W        W83859   3.371  38.365  13.344
11600W        W83860  36.634  13.300  11.374
11601W        W83861   5.145  25.476   3.632
11602W        W83862  14.570  34.628   2.600
11603W        W83863  37.816  14.264   0.909
11604W        W83864   2.187  18.219  14.748
11605W        W83865   4.062  38.022   1.434
11606W        W83866  21.597  20.101  12.253
11607W        W83867  39.072  39.869   0.356
11608W        W83868  39.043  20.023  11.459
11609W        W83869  18.357  13.579   4.115
11610W        W83870   0.405  17.937  11.876
11611W        W83871  16.523  31.901   3.593
11612W        W83872  26.950   2.270  14.517
11613W        W83873  14.849  27.142  11.940
11614W        W83874  13.843   1.208   3.696
11615W        W83875   9.863   8.722  12.418
11616W        W83876  10.172   8.410   1.748
11617W        W83877  27.127   6.479  10.843
11618W        W83878  32.967  37.414  14.949
11619W        W83879  35.630   6.194   1.781
11620W        W83880  31.145  21.277  14.022
11621W        W83881   3.164   6.799  12.123
11622W        W83882  37.914  31.124   1.427
11623W        W83883  37.305  27.434  11.810
11624W        W83884  15.237  13.354  10.337
11625W        W83885   2.318  13.563  14.135
11626W        W83886  36.833  33.435   1.296
11627W        W83887  40.593  17.808  13.892
11628W        W83888   2.323  17.402  14.252
11629W        W83889  22.860  16.709   2.411
11630W        W83890   3.961  17.128  12.448
11631W        W83891  15.385  24.496   3.574
11632W        W83892   9.226  30.590   4.611
11633W        W83893  29.479   5.750  13.897
11634W        W83894  14.727   7.360   4.767
11635W        W83895  16.995  27.580   4.644
11636W        W83896  23.588  19.653  10.515
11637W        W83897  19.031  42.566  14.907
11638W        W83898  34.634   8.924  14.418
11639W        W83899  34.924   4.184  13.832
11640W        W83900   2.941  42.267  11.555
11641W        W83901  43.398  34.647  12.986
11642W        W83902  35.075   6.374  13.872
11643W        W83903  33.364  29.577  12.128
11644W        W83904  13.912  18.812  14.356
11645W        W83905   7.333  26.467   2.365
11646W        W83906   6.368   8.624  14.867
11647W        W83907  36.501  30.446  11.961
11648W        W83908  41.328  31.621  14.852
11649W        W83909  29.088  24.344  13.354
11650W        W83910  12.319  33.653   0.022
11651W        W83911  41.702  10.596   4.340
11652W        W83912  25.955  44.820  11.619
11653W        W83913  38.888  44.333   1.948
11654W        W83914  25.466  25.658  10.663
11655W        W83915  26.859  19.741   3.964
11656W        W83916  15.051  42.839   2.595
11657W        W83917   2.727  26.947   2.862
11658W        W83918  16.619   2.550  12.090
11659W        W83919  16.714  19.277  13.400
11660W        W83920   4.182  23.389  13.677
11661W        W83921  24.624  17.088  10.419
11662W        W83922  31.233   7.392  12.919
11663W        W83923  15.190  20.783  12.111
11664W        W83924  22.222  37.351  10.636
11665W        W83925   1.461  22.175   0.903
11666W        W83926  20.778  39.583  11.179
11667W        W83927   6.252   3.283  11.105
11668W        W83928  25.934  35.428   2.062
11669W        W83929  12.861  21.979   2.971
11670W        W83930  13.590  10.257   1.784
11671W        W83931   3.350  11.723   3.120
11672W        W83932   9.158   7.348  14.425
11673W        W83933  37.484   4.238   1.751
11674W        W83934  34.094  31.599   0.767
11675W        W83935  34.467  35.957  11.944
11676W        W83936   3.442  28.285   4.563
11677W        W83937  28.097  19.785   0.862
11678W        W83938  35.382   6.629   3.843
11679W        W83939  30.226  21.099   1.962
11680W        W83940   4.259   8.205   2.802
11681W        W83941  38.333   8.895   3.287
11682W        W83942  27.233  43.922   0.450
11683W        W83943  23.047  10.439  10.377
11684W        W83944  41.310  27.920   2.884
11685W        W83945   7.078  10.628   1.074
11686W        W83946   5.613  14.795  10.595
11687W        W83947  31.466  27.589  14.882
11688W        W83948  14.145  37.256   4.260
11689W        W83949  40.865  17.860   4.621
11690W        W83950  40.270  28.655  12.451
11691W        W83951  18.618   3.920   0.286
11692W        W83952  16.357   1.272   4.455
11693W        W83953   5.666  16.097   0.941
11694W        W83954  27.347  40.730  14.294
11695W        W83955  11.403  40.414   1.274
11696W        W83956  31.663  10.011   0.737
11697W        W83957  32.078  41.910  14.333
11698W        W83958  26.233  30.615  12.907
11699W        W83959  35.414  33.810  14.872
11700W        W83960   4.246  30.083   2.878
11701W        W83961   6.698  43.487  14.755
11702W        W83962  10.904  18.408   4.133
11703W        W83963  24.265  20.074   3.184
11704W        W83964   2.839  28.185   3.800
11705W        W83965  19.096   6.243  12.421
11706W        W83966   2.829  18.204   2.794
11707W        W83967  12.236   1.695   0.801
11708W        W83968   7.675  18.213   3.295
11709W        W83969  36.386   9.682   2.769
11710W        W83970  32.341   6.712   2.352
11711W        W83971  34.923  43.712  11.628
11712W        W83972  28.935  13.144   1.108
11713W        W83973  16.575   4.766   0.007
11714W        W83974  18.140  38.141   2.678
11715W        W83975  33.988  24.437  13.549
11716W        W83976   7.744  29.327   5.053
11717W        W83977  35.569   4.845  12.282
11718W        W83978  29.395  32.706  11.551
11719W        W83979   6.155  11.847   3.239
11720W        W83980  40.491  14.484  13.553
11721W        W83981   0.463  22.663  13.964
11722W        W83982  29.160  37.612  14.733
11723W        W83983   9.920  27.216  12.429
11724W        W83984  25.032  41.381   5.356
11725W        W83985  41.017  12.636   0.917
11726W        W83986  28.030   3.799  12.944
11727W        W83987  18.086  11.423  13.850
11728W        W83988  38.039  10.575  14.772
11729W        W83989  18.931  12.095   4.620
11730W        W83990  23.032   3.348   0.958
11731W        W83991  22.078  41.825   2.127
11732W        W83992   2.545   3.522   1.333
11733W        W83993   8.147   2.961   3.292
11734W        W83994   0.549  28.053   0.246
11735W        W83995  42.031  13.637   4.625
11736W        W83996   6.455   9.834   2.348
11737W        W83997  19.949  22.056   0.893
11738W        W83998  33.811   9.137   4.319
11739W        W83999   8.671  42.771   0.412
11740W        W84000   7.736   2.878  14.299
11741W        W84001  42.220   1.955  13.649
11742W        W84002  16.245  33.644  12.408
11743W        W84003   5.297  21.824  12.500
11744W        W84004  27.127  27.013  13.224
11745W        W84005  17.141  15.908   1.005
11746W        W84006   6.810  40.458  14.288
11747W        W84007  34.969   3.291   0.799
11748W        W84008  20.673  24.193   2.014
11749W        W84009  13.286  43.094  12.107
11750W        W84010  17.119  19.103   0.333
11751W        W84011  28.429  32.478  11.682
11752W        W84012   3.290   8.117   3.889
11753W        W84013   2.725  15.075  12.398
11754W        W84014  44.963  16.238  10.902
11755W        W84015  30.976  13.118  10.861
11756W        W84016  35.033  42.490   0.471
11757W        W84017   9.757  33.049   1.710
11758W        W84018  36.514   8.717   2.680
11759W        W84019  36.664  35.592   4.032
11760W        W84020  28.112  27.687  11.165
11761W        W84021  10.636  11.460  12.921
11762W        W84022  38.766   3.037  11.989
11763W        W84023  13.191   1.503  13.979
11764W        W84024   6.256  28.126  11.476
11765W        W84025  40.477  34.975   3.677
11766W        W84026   5.172  44.121   4.633
11767W        W84027  21.684   8.209  14.379
11768W        W84028  13.771  12.862  12.437
11769W        W84029  21.060  10.153  12.167
11770W        W84030  16.169  27.418  10.871
11771W        W84031   3.275  30.113  11.230
11772W        W84032  27.837   3.095  11.470
11773W        W84033  24.556  30.649   2.447
11774W        W84034  22.441  20.816   1.418
11775W        W84035  10.420  32.389   4.234
11776W        W84036  34.871  27.633  14.454
11777W        W84037  28.254  29.549  13.329
11778W        W84038  36.521   3.868  14.383
11779W        W84039  26.029  39.805   2.720
11780W        W84040  44.101  11.745   1.179
11781W        W84041  36.432  44.729   4.303
11782W        W84042   2.832  19.084  14.157
11783W        W84043  44.904  10.986  13.914
11784W        W84044  30.443   2.821   0.197
11785W        W84045  44.339   8.407  11.394
11786W        W84046   6.770  19.221   2.275
11787W        W84047  12.170  25.725   3.301
11788W        W84048   4.190   7.739  13.343
11789W        W84049  19.228  38.081   1.415
11790W        W84050   6.258  42.903  10.805
11791W        W84051   4.842  10.251   1.900
11792W        W84052  24.163  24.900   0.766
11793W        W84053   1.803  38.449  14.414
11794W        W84054  35.970   2.322   1.047
11795W        W84055  41.024  32.765  10.535
11796W        W84056  28.218   4.000   0.009
11797W        W84057   1.950  19.391  11.131
11798W        W84058  12.808  32.234   0.130
11799W        W84059  14.445  22.193  12.885
11800W        W84060  19.157   4.630  10.613
11801W        W84061  16.698  44.771   0.779
11802W        W84062  29.917  12.843   2.746
11803W        W84063  14.765   0.992   3.691
11804W        W84064  38.181  42.570  13.241
11805W        W84065   1.453   4.919   3.830
11806W        W84066   3.418  35.161  11.517
11807W        W84067  10.170  40.317   1.401
11808W        W84068  13.273  18.884  11.475
11809W        W84069  15.386   5.891  14.834
11810W        W84070  41.389  34.632   2.325
11811W        W84071  14.090  37.100   4.750
11812W        W84072  14.126  19.119   0.289
11813W        W84073  17.539   2.047   3.179
11814W        W84074  24.168  23.274  10.876
11815W        W84075  24.517  31.940  10.961
11816W        W84076   6.286  29.384   3.281
11817W        W84077  35.856  16.338  11.417
11818W        W84078  19.725  16.340   2.720
11819W        W84079  11.749   5.669   0.172
11820W        W84080  24.268  42.375   1.362
11821W        W84081  23.697   3.206   0.386
11822W        W84082  21.420  42.563  12.622
11823W        W84083  24.437  15.872   0.026
11824W        W84084   2.369  22.667  11.923
11825W        W84085  26.193   4.249  10.178
11826W        W84086  26.545  36.917  11.647
11827W        W84087  15.743  14.337   2.769
11828W        W84088  28.296  23.715   4.406
11829W        W84089  19.023   3.620   0.451
11830W        W84090  29.898  12.195   0.875
11831W        W84091  17.014  28.048  11.959
11832W        W84092  14.090  28.414   4.572
11833W        W84093  30.606  18.209  13.486
11834W        W84094   7.330   2.413   1.318
11835W        W84095  21.241   6.410   2.333
11836W        W84096   1.982   9.326   4.719
11837W        W84097   1.746  30.474  14.684
11838W        W84098   1.659  39.878  14.390
11839W        W84099  38.609   5.851  13.848
11840W        W84100  42.770  22.167  10.755
11841W        W84101  34.296  12.363   3.865
11842W        W84102  19.140  12.740  13.371
11843W        W84103   9.952  26.914   4.937
11844W        W84104  27.054  29.687  10.793
11845W        W84105  24.948  30.773   4.154
11846W        W84106   6.430   6.750   1.678
11847W        W84107   3.722  17.890   4.566
11848W        W84108  30.003  15.798  14.124
11849W        W84109  18.608   8.898   5.030
11850W        W84110  37.025   6.957  10.879
11851W        W84111  41.726   4.394   3.463
11852W        W84112  33.177  40.939   0.365
11853W        W84113   1.213  34.626  10.656
11854W        W84114  28.113  26.627   3.164
11855W        W84115   7.979  38.849   4.588
11856W        W84116  29.544  16.292  11.614
11857W        W84117  35.324  13.236   2.648
11858W        W84118  34.917  12.884  14.533
11859W        W84119  28.179  16.750  14.992
11860W        W84120   1.694  28.242  13.158
11861W        W84121   2.268   3.029   0.428
11862W        W84122   8.101  17.553  14.744
11863W        W84123   8.307  42.240   2.624
11864W        W84124  34.875  38.357   1.765
11865W        W84125  14.714   1.293   3.280
11866W        W84126  30.103   4.998   1.376
11867W        W84127   5.481  25.992   0.202
11868W        W84128  35.872  44.403   1.944
11869W        W84129  26.259   5.472  13.498
11870W        W84130  30.388  14.550   1.881
11871W        W84131  43.367  41.766   2.352
11872W        W84132  34.544   9.486  11.417
11873W        W84133  25.022  31.435  13.428
11874W        W84134   3.724   3.196  14.423
11875W        W84135   9.964  20.589   1.304
11876W        W84136  37.793  14.560  12.938
11877W        W84137  35.055  12.223  12.447
11878W        W84138  25.955  17.803  11.020
11879W        W84139  35.384  38.621   4.578
11880W        W84140  38.557  31.683   1.841
11881W        W84141   0.394  34.922   3.835
11882W        W84142  32.616  19.600   0.197
11883W        W84143   5.880  38.284   2.832
11884W        W84144   8.275  35.949   3.171
11885W        W84145  16.069  30.078  11.628
11886W        W84146   8.341  35.414   1.399
11887W        W84147  18.877  32.849   3.325
11888W        W84148   0.327  40.535   0.345
11889W        W84149   0.383  11.208   3.295
11890W        W84150   0.680  22.908   1.323
11891W        W84151  16.947   0.447   0.458
11892W        W84152   8.090  44.128   1.793
11893W        W84153   0.574   2.452  13.013
11894W        W84154  12.236   4.835   1.901
11895W        W84155   9.253  42.368   2.378
11896W        W84156  32.354   9.743   1.331
11897W        W84157  38.594  41.023   4.872
11898W        W84158   4.008  40.561   2.397
11899W        W84159  29.602   2.406   0.370
11900W        W84160  21.539  13.623  14.925
11901W        W84161  13.073  19.763   3.608
11902W        W84162  40.784  30.394  14.034
11903W        W84163   3.210  10.334   2.775
11904W        W84164  40.409  39.405   1.317
11905W        W84165  19.812  27.181  12.940
11906W        W84166  43.304  43.276   3.753
11907W        W84167   9.608  22.091  14.839
11908W        W84168  39.380  17.675  13.192
11909W        W84169  43.874  15.086   0.799
11910W        W84170  17.266  44.297  10.607
11911W        W84171  31.494  42.088   0.260
11912W        W84172   2.444  22.739  10.230
11913W        W84173  18.113  24.542   2.846
11914W        W84174  22.474  44.343   2.281
11915W        W84175  21.013  13.282   4.541
11916W        W84176   1.755  18.716   4.091
11917W        W84177  12.279  28.085  12.526
11918W        W84178  37.062  13.926   2.591
11919W        W84179  31.209  14.250  11.869
11920W        W84180   4.499  23.952  11.393
11921W        W84181   4.804  19.029   2.868
11922W        W84182   7.230  27.104  13.413
11923W        W84183  20.031  37.821  10.462
11924W        W84184   2.915   7.998   4.967
11925W        W84185  31.486  27.062  14.074
11926W        W84186   2.906   6.901  13.894
11927W        W84187  13.225  25.588  12.682
11928W        W84188  29.238  44.262  14.543
11929W        W84189  14.765  15.667   3.680
11930W        W84190  18.349  31.638  13.020
11931W        W84191  43.282   5.256   0.801
11932W        W84192  44.272  27.441  11.607
11933W        W84193  32.122  30.177  11.946
11934W        W84194  22.021  41.505   0.830
11935W        W84195   4.082  42.808   3.420
11936W        W84196  34.867   5.830  12.952
11937W        W84197  37.392   3.078   2.758
11938W        W84198   6.323  37.585  12.201
11939W        W84199  19.575  28.983  13.244
11940W        W84200  36.437  30.833  13.046
11941W        W84201   9.415  25.715  11.692
11942W        W84202  32.914   0.998   3.196
11943W        W84203  44.714  31.878  12.431
11944W        W84204  39.097  36.135   2.864
11945W        W84205  24.446  31.360  10.643
11946W        W84206   2.301  10.407   2.845
11947W        W84207   2.064  34.082  14.329
11948W        W84208   9.946  32.404  12.501
11949W        W84209  29.138  10.349   2.873
11950W        W84210   0.465   8.364  14.826
11951W        W84211  26.014  21.534   4.614
11952W        W84212  32.937  11.132  13.878
11953W        W84213  38.560  38.862   1.754
11954W        W84214  16.610  31.539  12.538
11955W        W84215  12.171  43.443  10.662
11956W        W84216  30.494  12.187  10.600
11957W        W84217  14.178  33.398  10.531
11958W        W84218  12.400   1.303  11.594
11959W        W84219  32.573   1.829  10.715
11960W        W84220  42.332  38.549   4.850
11961W        W84221  41.510  42.983  14.769
11962W        W84222  25.743  13.602   1.808
11963W        W84223   9.603  24.156  13.049
11964W        W84224  15.390   8.174   4.516
11965W        W84225  29.071   1.309  11.178
11966W        W84226  37.340  37.046  12.117
11967W        W84227  15.838  28.067   4.921
11968W        W84228  24.893   7.743  10.613
11969W        W84229  31.151  11.057  14.437
11970W        W84230   1.047  41.132  12.022
11971W        W84231   4.900  29.578   1.734
11972W        W84232  26.590   9.393  13.316
11973W        W84233  16.027  29.112   0.005
11974W        W84234  22.692  30.366   0.278
11975W        W84235   4.284  17.748  13.953
11976W        W84236  35.854   3.901  14.868
11977W        W84237  39.519   7.335   4.728
11978W        W84238  23.332  38.553   3.195
11979W        W84239  13.589  43.538   3.299
11980W        W84240  10.380  27.438   3.272
11981W        W84241  29.759  24.351   1.237
11982W        W84242  34.678  15.005   3.791
11983W        W84243  21.205  42.980   2.420
11984W        W84244  41.269  26.407  11.329
11985W        W84245  30.487   0.085   0.828
11986W        W84246  33.983  35.051  14.068
11987W        W84247   2.993  23.459  14.299
11988W        W84248  16.635  24.290  13.024
11989W        W84249  16.056  12.791   3.772
11990W        W84250  35.058   4.437  13.404
11991W        W84251  42.047  43.822  14.900
11992W        W84252  44.768  35.956   2.775
11993W        W84253   1.908   4.356   1.326
11994W        W84254  10.073  15.361   0.750
11995W        W84255  34.117  32.518   0.338
11996W        W84256  24.687  22.992   2.461
11997W        W84257  22.883  20.960   0.163
11998W        W84258   7.739  16.345   2.024
11999W        W84259  21.527  15.638   1.118
12000W        W84260  22.589  37.933   3.142
12001W        W84261  21.703  16.787   3.322
12002W        W84262   2.705  25.850   2.748
12003W        W84263  18.122  10.563  12.265
12004W        W84264  41.683  37.545  14.452
12005W        W84265  14.891  23.995   0.271
12006W        W84266  36.627  41.099   4.183
12007W        W84267  31.700  43.778  10.758
12008W        W84268  39.127   4.000  10.178
12009W        W84269  34.444   7.252   0.902
12010W        W84270  19.713   8.173   4.618
12011W        W84271   4.718  32.091  14.955
12012W        W84272   3.776   6.960   1.884
12013W        W84273  31.356  27.815  12.964
12014W        W84274  16.892   5.027   0.817
12015W        W84275  22.581   0.020   4.191
12016W        W84276  44.389  42.969  12.007
12017W        W84277  13.659  25.028   4.142
12018W        W84278  29.499   1.973  12.541
12019W        W84279  40.868   4.457   1.428
12020W        W84280  31.954  39.134  11.488
12021W        W84281  29.139  27.552   1.959
12022W        W84282  19.280  18.118   3.314
12023W        W84283  14.129  38.675   2.779
12024W        W84284   4.012  28.970   3.017
12025W        W84285  19.111   5.221   0.351
12026W        W84286  23.760  41.523  10.333
12027W        W84287  39.020  43.371  14.351
12028W        W84288   5.296  11.590  13.352
12029W        W84289  27.158   3.823   0.793
12030W        W84290  28.457  27.968   1.898
12031W        W84291  26.650   8.807  14.879
12032W        W84292   1.397  18.588   2.176
12033W        W84293  11.144  13.780  13.283
12034W        W84294   3.140  40.464   1.497
12035W        W84295  38.861  29.015   4.088
12036W        W84296  20.021  17.828  11.518
12037W        W84297  11.754   0.775  12.078
12038W        W84298  26.122   1.489   0.818
12039W        W84299   4.425  30.196  12.395
12040W        W84300  26.271  16.039  14.912
12041W        W84301   3.419   0.246  14.222
12042W        W84302  29.514  23.716   4.483
12043W        W84303  14.275  12.910   1.638
12044W        W84304   5.412  29.527   1.752
12045W        W84305  25.735  21.466   3.612
12046W        W84306  28.128  21.505   3.747
12047W        W84307  40.922   4.797   2.262
12048W        W84308  15.660  38.827   0.867
12049W        W84309  13.951  21.114   2.265
12050W        W84310  35.340   6.267   2.215
12051W        W84311  21.467  41.383  14.997
12052W        W84312  43.693  18.563  12.497
12053W        W84313  23.764  39.942  11.336
12054W        W84314   0.248  10.448   3.565
12055W        W84315  16.276  15.263   4.895
12056W        W84316  29.086   6.378   4.919
12057W        W84317  37.571  31.534   1.387
12058W        W84318  35.573  38.782   2.186
12059W        W84319  10.724  33.887  11.547
12060W        W84320  42.296  27.553  14.877
12061W        W84321  43.525  38.468   4.308
12062W        W84322  44.182  32.982   3.193
12063W        W84323  20.447   8.018   3.164
12064W        W84324   4.377  37.465   2.322
12065W        W84325  17.359  20.080   2.307
12066W        W84326  30.570  40.310  12.090
12067W        W84327  42.840  14.323  13.426
12068W        W84328   7.747   9.273  10.743
12069W        W84329   9.770  25.956   0.152
12070W        W84330  36.540  13.805  11.361
12071W        W84331  41.528   8.781   3.301
12072W        W84332  17.214  25.556  13.057
12073W        W84333   8.827  13.045   1.564
12074W        W84334  12.205  32.508  14.932
12075W        W84335  27.617  12.109   3.127
12076W        W84336   4.412  18.760   2.165
12077W        W84337  30.043  31.466   4.275
12078W        W84338  41.968   9.750  11.182
12079W        W84339  10.446  43.740   4.307
12080W        W84340  15.870   3.299   1.422
12081W        W84341  14.148  44.292   0.292
12082W        W84342  13.286  16.747   4.718
12083W        W84343  16.355  26.473  12.654
12084W        W84344  15.158   9.398  11.565
12085W        W84345  35.548  34.618   2.243
12086W        W84346  29.995  16.398   3.507
12087W        W84347  13.752   8.157  13.118
12088W        W84348  36.903  32.887  14.882
12089W        W84349   0.864  44.462  13.546
12090W        W84350   9.507  13.737   2.996
12091W        W84351  23.163  14.761  13.189
12092W        W84352  11.184  11.109   2.403
12093W        W84353  26.230   1.222  10.675
12094W        W84354   9.429  10.613  13.218
12095W        W84355  11.248  34.253  13.825
12096W        W84356  32.409  25.403  13.835
12097W        W84357  32.447  43.345   0.408
12098W        W84358  35.922  33.339   1.447
12099W        W84359  23.944  35.061  13.549
12100W        W84360  38.854   1.410   2.682
12101W        W84361  22.080  37.957   3.013
12102W        W84362  14.031  28.675  10.826
12103W        W84363  14.972  42.427  13.511
12104W        W84364  35.484  36.342   4.841
12105W        W84365  24.974  37.968   3.543
12106W        W84366  17.200   2.046  14.072
12107W        W84367  41.427  43.803   1.652
12108W        W84368  41.886  37.501  11.603
12109W        W84369  28.958  39.729   1.092
12110W        W84370  38.554  40.551   0.712
12111W        W84371  26.102  22.678  11.563
12112W        W84372  36.988  23.753  11.128
12113W        W84373   7.601   5.900  13.389
12114W        W84374  12.725  27.215  14.031
12115W        W84375  36.021  20.169   3.636
12116W        W84376  27.935  16.578   3.255
12117W        W84377  10.568  44.923   4.109
12118W        W84378  39.927  32.622  13.133
12119W        W84379  12.593  33.931   3.336
12120W        W84380  43.597  21.245   0.789
12121W        W84381  17.545  18.318   3.268
12122W        W84382   0.087  22.150   0.481
12123W        W84383  32.060   5.001   3.424
12124W        W84384  42.386   7.208   2.145
12125W        W84385  31.376  41.328  14.883
12126W        W84386  42.612  22.450  11.866
12127W        W84387  23.694  27.464   3.545
12128W        W84388  33.992   5.015  11.497
12129W        W84389   8.403  38.666  12.291
12130W        W84390  19.515  21.659  14.607
12131W        W84391  27.637   3.245   2.204
12132W        W84392  24.462  14.762  13.606
12133W        W84393  31.851  40.693  12.136
12134W        W84394  35.840  26.041   3.260
12135W        W84395  43.084   5.877  14.789
12136W        W84396   0.349  18.499   3.681
12137W        W84397   5.935  12.572  11.185
12138W        W84398  42.735  30.005   2.795
12139W        W84399   7.857   7.217   3.633
12140W        W84400  37.521  37.890  13.053
12141W        W84401  26.986  29.417   1.859
12142W        W84402  20.060  26.571   3.336
12143W        W84403   6.343  18.527   0.215
12144W        W84404  23.316  28.710  11.956
12145W        W84405  24.092  41.817   2.802
12146W        W84406   4.365  28.628  13.442
12147W        W84407  44.648  28.966  10.265
12148W        W84408   2.939  12.174  10.598
12149W        W84409  35.516   8.758  12.888
12150W        W84410  14.546  25.123   1.252
12151W        W84411  33.336   7.712  14.550
12152W        W84412   3.147   8.934  10.810
12153W        W84413  17.083  11.236   1.431
12154W        W84414  30.572   5.197   1.446
12155W        W84415   8.097  10.853  13.105
12156W        W84416  25.972  28.954   0.755
12157W        W84417  37.874  44.498  14.596
12158W        W84418   3.256  21.063  14.494
12159W        W84419  22.287  22.338   2.378
12160W        W84420  18.473  12.717  12.012
12161W        W84421  42.723  23.532   1.383
12162W        W84422  12.163  32.043   4.332
12163W        W84423  30.047  34.157   2.986
12164W        W84424  12.330  44.231   4.165
12165W        W84425  44.264  41.939   1.925
12166W        W84426  39.483  11.268  13.495
12167W        W84427   2.834   6.731  12.981
12168W        W84428  29.028  14.894  12.315
12169W        W84429  41.795   8.831   3.777
12170W        W84430  19.030  19.222   4.597
12171W        W84431  41.555  14.190   2.676
12172W        W84432  22.587  43.571   0.802
12173W        W84433   1.895  24.968  11.102
12174W        W84434  18.072   3.097   2.681
12175W        W84435  22.364  43.507   3.308
12176W        W84436  33.318  26.631  11.019
12177W        W84437  31.451  36.581  14.881
12178W        W84438  26.734  28.608   4.049
12179W        W84439   3.716   1.578   3.368
12180W        W84440  15.378  41.770  11.904
12181W        W84441  36.829   7.184  10.389
12182W        W84442  21.017  20.601   3.157
12183W        W84443  16.744  31.664   4.499
12184W        W84444  28.398   8.321  14.617
12185W        W84445  21.249  21.677   4.206
12186W        W84446   7.219  35.163  11.297
12187W        W84447  25.807   6.053   2.447
12188W        W84448  43.256   3.808  11.478
12189W        W84449   9.808  19.498   0.151
12190W        W84450  31.714  39.002   2.303
12191W        W84451  15.993  41.879  13.857
12192W        W84452  39.403   9.109   4.205
12193W        W84453   3.294   8.764   3.182
12194W        W84454  22.707   5.830  11.610
12195W        W84455  24.689  37.019  14.340
12196W        W84456  20.471  33.565   1.816
12197W        W84457  21.155  17.638  14.809
12198W        W84458  26.102  11.381  12.857
12199W        W84459  41.511   2.472   3.069
12200W        W84460  31.367  36.050   0.762
12201W        W84461  21.026  33.664   4.466
12202W        W84462  11.065  33.849  14.061
12203W        W84463  19.015  15.009  14.843
12204W        W84464  17.481   6.862   9.989
12205W        W84465  20.726  10.394  11.862
12206W        W84466  29.675   1.276  10.488
12207W        W84467   9.851  22.057   2.981
12208W        W84468  34.968  28.111  14.262
12209W        W84469  18.449  30.679   1.903
12210W        W84470  38.310   6.227  14.403
12211W        W84471  26.146  43.704   2.388
12212W        W84472  22.696  10.116  11.451
12213W        W84473  34.812   0.297   0.668
12214W        W84474   8.390  25.720  14.914
12215W        W84475  15.235  28.176  14.509
12216W        W84476  32.462  15.229   4.108
12217W        W84477  42.283   0.456   2.513
12218W        W84478  13.089  21.221  14.904
12219W        W84479  25.085  11.338  12.863
12220W        W84480  29.733  37.741   4.037
12221W        W84481  37.018   4.364  14.952
12222W        W84482  16.585  20.403   2.458
12223W        W84483   2.399   2.642  14.460
12224W        W84484   5.223   8.183  12.418
12225W        W84485  44.272  13.820   3.614
12226W        W84486  26.741  10.309   0.879
12227W        W84487   5.149  27.953   4.105
12228W        W84488  20.569  31.416   1.938
12229W        W84489  36.110   8.728  14.416
12230W        W84490  14.154  15.473  13.840
12231W        W84491  42.251  25.576  10.693
12232W        W84492   0.274   2.898  12.927
12233W        W84493  24.726   3.187  12.101
12234W        W84494  16.134  25.466   0.862
12235W        W84495  26.047   0.115  13.985
12236W        W84496  18.303  41.550  11.893
12237W        W84497  26.156  23.632  12.478
12238W        W84498  25.077  32.555   1.880
12239W        W84499  28.623   5.474  14.440
12240W        W84500  16.678   5.416   4.472
12241W        W84501  20.189   9.111  11.984
12242W        W84502  34.922   7.932   0.083
12243W        W84503  13.117  38.626  11.807
12244W        W84504  29.049   1.106  13.968
12245W        W84505  43.211  16.138   0.911
12246W        W84506  19.640  35.503   1.363
12247W        W84507  24.232  12.111   4.540
12248W        W84508  32.401   4.204   0.816
12249W        W84509  12.554   5.190   1.279
12250W        W84510  22.550  36.358   2.655
12251W        W84511  19.250   3.333  14.434
12252W        W84512  18.583  21.705   1.367
12253W        W84513  10.022  33.109  11.604
12254W        W84514  11.199  37.886  12.930
12255W        W84515  34.413  16.056  14.387
12256W        W84516   0.942  38.853   3.129
12257W        W84517  20.329  15.265  11.575
12258W        W84518   6.362   6.790  13.979
12259W        W84519  15.329  16.362  13.899
12260W        W84520  16.199  17.217   1.469
12261W        W84521   3.868   5.246   3.215
12262W        W84522  18.360  35.565  11.722
12263W        W84523  26.077  16.700  13.877
12264W        W84524  14.883  14.559  11.106
12265W        W84525  19.572  37.682  11.162
12266W        W84526  14.531  37.130  14.496
12267W        W84527  18.108  42.416  11.880
12268W        W84528  27.501  43.481   2.436
12269W        W84529  18.294  34.702  13.590
12270W        W84530  20.827  15.174  11.633
12271W        W84531  22.959  30.894  12.380
12272W        W84532  19.643  35.555   4.171
12273W        W84533  44.480  38.382   1.257
12274W        W84534  36.515   7.195   3.833
12275W        W84535  35.164  12.705  12.183
12276W        W84536  14.740  25.117   4.804
12277W        W84537  27.955   0.396  12.016
12278W        W84538  37.656  26.195  11.918
12279W        W84539  35.980   7.758  12.080
12280W        W84540  23.498  18.847   0.982
12281W        W84541   4.416   1.628  10.455
12282W        W84542  20.261   5.988  12.940
12283W        W84543   9.733  15.567  14.360
12284W        W84544  28.424   5.301  10.856
12285W        W84545   2.303  22.939   0.368
12286W        W84546  30.210   7.116   2.797
12287W        W84547   9.370  32.166  10.959
12288W        W84548  10.183  12.784   1.875
12289W        W84549  11.109  21.213  11.676
12290W        W84550   6.438  29.856   3.754
12291W        W84551  21.024  17.271  13.500
12292W        W84552  39.960  10.102  11.587
12293W        W84553   4.333  23.271   1.227
12294W        W84554  28.696  26.608   2.384
12295W        W84555   5.468  23.525  13.320
12296W        W84556  17.796   6.760  12.995
12297W        W84557   4.636  39.037   5.159
12298W        W84558  41.725  30.657   3.206
12299W        W84559  22.049  20.294   4.498
12300W        W84560   3.784  11.850   0.322
12301W        W84561   1.828  11.349   4.805
12302W        W84562  18.494   1.982   4.052
12303W        W84563  23.323  11.210   3.912
12304W        W84564  41.845  10.089  14.009
12305W        W84565  41.101  37.747  12.481
12306W        W84566   0.261  41.731  13.140
12307W        W84567  30.112   7.742   4.570
12308W        W84568   3.205  20.204  11.972
12309W        W84569   8.224  36.072   3.695
12310W        W84570   3.753   0.554  11.572
12311W        W84571   3.643  41.914  12.476
12312W        W84572  18.746  36.498   0.415
12313W        W84573  41.108  22.121   4.754
12314W        W84574   7.429   9.164   1.822
12315W        W84575  32.855  30.076  13.856
12316W        W84576  14.521   4.775  13.144
12317W        W84577   1.930  12.803  12.047
12318W        W84578  17.688  10.157  13.366
12319W        W84579   1.346   4.371   0.063
12320W        W84580  29.144   1.283  10.666
12321W        W84581  14.611  30.404   1.792
12322W        W84582   9.935   1.978  14.545
12323W        W84583   4.354  24.761  10.608
12324W        W84584  20.303  13.713  13.198
12325W        W84585  12.703  18.020   0.581
12326W        W84586  22.792  43.064   4.495
12327W        W84587  33.635  40.884   0.006
12328W        W84588  14.767   3.287   1.875
12329W        W84589  37.573  14.419   4.672
12330W        W84590  26.949  29.463  14.458
12331W        W84591  34.216   5.921   0.765
12332W        W84592   0.341   0.001   2.165
12333W        W84593  36.528  29.574   4.468
12334W        W84594  11.748  13.348  11.671
12335W        W84595  12.798  12.374  10.769
12336W        W84596   8.187   9.996  12.134
12337W        W84597  39.005  24.181   4.663
12338W        W84598  12.741  28.422  13.531
12339W        W84599  35.848  39.129  12.521
12340W        W84600  25.482  16.548   0.501
12341W        W84601   0.152  35.568   0.272
12342W        W84602  32.114  31.350   0.390
12343W        W84603  25.010  20.854   4.595
12344W        W84604  18.608   8.460   4.229
12345W        W84605  21.273   5.055   3.717
12346W        W84606  36.603  17.007   2.003
12347W        W84607  25.087  44.782   1.365
12348W        W84608   5.711  28.671   0.033
12349W        W84609  17.697  19.057  12.008
12350W        W84610   0.764  29.661  13.021
12351W        W84611   7.684  13.875   3.092
12352W        W84612  15.535  24.193   2.199
12353W        W84613   2.523  37.522  12.857
12354W        W84614  29.837   6.401   3.365
12355W        W84615  14.624  24.237  14.533
12356W        W84616   0.184  32.580   2.364
12357W        W84617  25.328  40.311   3.176
12358W        W84618  22.270   8.879  12.790
12359W        W84619  12.710  30.961   3.206
12360W        W84620   2.283  37.968  12.941
12361W        W84621  15.305  11.186  12.069
12362W        W84622   4.422  17.795  12.555
12363W        W84623  43.939  36.286  12.687
12364W        W84624   9.230  36.289   4.153
12365W        W84625   5.541  23.057  13.488
12366W        W84626  22.507  28.130   5.506
12367W        W84627  43.494   3.669  13.004
12368W        W84628   5.197  28.880   4.853
12369W        W84629  16.278  11.326   4.237
12370W        W84630  22.440  27.706  11.911
12371W        W84631  28.308  35.516  13.317
12372W        W84632  25.236  19.350  14.537
12373W        W84633  14.812   6.322   3.313
12374W        W84634  20.041  29.047  10.624
12375W        W84635  38.351  13.168  14.844
12376W        W84636   7.675  12.298   3.657
12377W        W84637  31.612  14.748   4.758
12378W        W84638   0.934  32.085   3.454
12379W        W84639  42.397   6.115   3.190
12380W        W84640  25.628   7.760  12.940
12381W        W84641  32.386  31.442  14.972
12382W        W84642   9.838  36.143  14.956
12383W        W84643   6.991  15.779  11.091
12384W        W84644  35.507  19.970   3.446
12385W        W84645  44.852  41.653   0.856
12386W        W84646  19.604   3.670   4.076
12387W        W84647   0.817   0.010   1.858
12388W        W84648   4.051   6.230  14.431
12389W        W84649  25.628  43.331   1.895
12390W        W84650   1.417  35.302  12.867
12391W        W84651  18.625  35.634   5.025
12392W        W84652  20.289  11.744   4.552
12393W        W84653   8.719  26.523   2.297
12394W        W84654  20.216  44.331   1.919
12395W        W84655  40.702  39.927  12.933
12396W        W84656  24.965  20.292   1.883
12397W        W84657  19.811  25.002   4.787
12398W        W84658  19.763  21.023   3.658
12399W        W84659  40.238  17.107   3.774
12400W        W84660  14.347  34.695  11.038
12401W        W84661  10.613  18.635   3.770
12402W        W84662  29.483   1.799   1.749
12403W        W84663  36.156  20.554   4.523
12404W        W84664  30.702  32.983   3.191
12405W        W84665  36.948  37.547  14.011
12406W        W84666   8.455   3.361   3.351
12407W        W84667  25.588  38.621   2.847
12408W        W84668  42.176   1.459  14.797
12409W        W84669  11.206  24.999  13.927
12410W        W84670  36.361  11.832  14.267
12411W        W84671   3.925  17.505   1.745
12412W        W84672  20.236   4.911  11.185
12413W        W84673  36.421  34.292   0.948
12414W        W84674   8.252  38.922  14.055
12415W        W84675   3.883  39.058  10.570
12416W        W84676  10.682   3.870  14.292
12417W        W84677  33.348  41.902  11.113
12418W        W84678  28.598  19.539  12.593
12419W        W84679  17.806  41.944  11.665
12420W        W84680  42.426  34.839   2.149
12421W        W84681   1.007   8.357  14.486
12422W        W84682  37.371  18.602   0.829
12423W        W84683  26.687  23.614  13.037
12424W        W84684  25.062  11.600  14.269
12425W        W84685  22.766  36.942  13.023
12426W        W84686  25.278   8.388   2.844
12427W        W84687  44.659  33.691  11.633
12428W        W84688   0.263  37.343   2.801
12429W        W84689  23.243   3.252  14.479
12430W        W84690  35.494  34.350  11.515
12431W        W84691  41.811   4.638   4.814
12432W        W84692  32.990  41.473  13.405
12433W        W84693  27.923  20.003   1.333
12434W        W84694  11.626   4.301  12.585
12435W        W84695  14.408  44.422  13.217
12436W        W84696  10.989  30.738   1.248
12437W        W84697   1.495  34.130  10.688
12438W        W84698  25.579  44.736   0.663
12439W        W84699  14.044   7.080   4.096
12440W        W84700  24.176  18.372   2.812
12441W        W84701   3.323  21.767   2.559
12442W        W84702  26.198  33.641  14.348
12443W        W84703  29.042  26.217   3.346
12444W        W84704   8.901   1.151   2.228
12445W        W84705  32.162  43.907   0.957
12446W        W84706  17.408  22.421   1.232
12447W        W84707   5.507  38.217   3.705
12448W        W84708  15.053  43.672  12.966
12449W        W84709  18.155  24.995   3.658
12450W        W84710  17.063  14.160   3.175
12451W        W84711   0.353   0.798  12.491
12452W        W84712  34.989  26.235  14.793
12453W        W84713  19.078   5.886  14.530
12454W        W84714  38.431  38.819  14.129
12455W        W84715   7.943  29.921   1.781
12456W        W84716  34.648  13.391  10.738
12457W        W84717  40.527  41.070   1.145
12458W        W84718  10.445   5.876   0.495
12459W        W84719  23.905   8.996   0.920
12460W        W84720  33.306  23.459   1.340
12461W        W84721  21.006  39.821   4.845
12462W        W84722  29.187  24.171   3.634
12463W        W84723   4.141  13.290   3.787
12464W        W84724  30.550  26.242   0.802
12465W        W84725  30.619  25.909  12.481
12466W        W84726  18.220  23.654   4.941
12467W        W84727  42.925  44.990   3.675
12468W        W84728  17.511   6.015   4.149
12469W        W84729  16.151  31.191   2.043
12470W        W84730  23.843  12.083  14.055
12471W        W84731   4.785  33.017   1.079
12472W        W84732  20.747  11.699  14.901
12473W        W84733  38.504  34.605  13.448
12474W        W84734  31.643  19.341  13.883
12475W        W84735   9.816  22.152   1.251
12476W        W84736  22.112  30.899   4.172
12477W        W84737  37.000  34.734   2.741
12478W        W84738  26.448  32.130   4.297
12479W        W84739   2.521  21.585  11.068
12480W        W84740   8.795  30.649  14.184
12481W        W84741  26.554  10.487  14.987
12482W        W84742   0.787  37.426  13.932
12483W        W84743  12.069  27.649  14.462
12484W        W84744   9.748  18.565   2.210
12485W        W84745   3.247  26.502   4.566
12486W        W84746   9.846  39.456   1.302
12487W        W84747  37.982  34.340   1.842
12488W        W84748  13.223  24.748   1.652
12489W        W84749  11.240  15.173  14.022
12490W        W84750  28.169  26.967  14.573
12491W        W84751  41.506  44.040   4.141
12492W        W84752  42.340   8.761   3.789
12493W        W84753  17.163  18.710   3.227
12494W        W84754   4.887   0.767  14.844
12495W        W84755  25.207  26.078  10.475
12496W        W84756  18.776   4.198  14.036
12497W        W84757  17.584  41.704  11.281
12498W        W84758  34.528  20.197  11.528
12499W        W84759  38.292  25.370   3.759
12500W        W84760   9.758   3.205   2.226
12501W        W84761  19.661  42.265   0.908
12502W        W84762  13.712  26.452   4.134
12503W        W84763  29.623  13.612  14.927
12504W        W84764  41.075  14.813   1.309
12505W        W84765  26.034  11.343  11.434
12506W        W84766  38.750  13.189   0.242
12507W        W84767   9.613  16.685  12.161
12508W        W84768   3.259   5.344  12.060
12509W        W84769  38.357  14.826  11.301
12510W        W84770  34.783   7.374  13.002
12511W        W84771  18.246   3.703  11.157
12512W        W84772   9.122  11.354   0.670
12513W        W84773  18.870  11.800   0.742
12514W        W84774   3.223  20.290   3.595
12515W        W84775  13.702  36.487   1.742
12516W        W84776  10.092   8.213  12.946
12517W        W84777  40.142  32.958  13.586
12518W        W84778  29.439   5.815  12.866
12519W        W84779  16.500   7.948   0.820
12520W        W84780  39.440   7.203   1.008
12521W        W84781  16.081  20.364   4.162
12522W        W84782  40.764  27.031  12.399
12523W        W84783  15.134  33.716   1.728
12524W        W84784  31.166  37.305   3.279
12525W        W84785  15.631  40.847  10.750
12526W        W84786  14.593  11.334   1.776
12527W        W84787   5.380  20.512   4.023
12528W        W84788  21.778   0.216  14.888
12529W        W84789  15.813  35.817  13.007
12530W        W84790  32.709  13.323   1.265
12531W        W84791  14.208  33.094  10.112
12532W        W84792  14.270  42.536  14.267
12533W        W84793   9.128  24.013   0.756
12534W        W84794  24.858  31.044  13.045
12535W        W84795  34.838  24.092   4.053
12536W        W84796   5.960  15.672  11.848
12537W        W84797  33.645   2.685   1.356
12538W        W84798   9.549  44.264  12.971
12539W        W84799  30.518   5.235  14.243
12540W        W84800  22.318  41.237   2.708
12541W        W84801  38.459   7.857   1.949
12542W        W84802  22.775  23.681  12.074
12543W        W84803  15.268   0.823   0.719
12544W        W84804  25.256  26.147  11.417
12545W        W84805   4.603  23.444  14.961
12546W        W84806  36.332  27.387   3.528
12547W        W84807  32.491  23.033   1.042
12548W        W84808  18.841  23.989  11.064
12549W        W84809  26.540  38.558   0.185
12550W        W84810  23.040  32.915  11.609
12551W        W84811  36.956  19.975   4.112
12552W        W84812  38.857  10.903   0.266
12553W        W84813   5.982  36.072  13.456
12554W        W84814  30.957  31.941  10.678
12555W        W84815  23.774  20.251  13.405
12556W        W84816  26.589  36.794  10.757
12557W        W84817   0.016  22.181   0.989
12558W        W84818   9.153   1.908  13.148
12559W        W84819  13.033  32.201  14.608
12560W        W84820  44.137  24.244   0.793
12561W        W84821  28.591  34.916   4.575
12562W        W84822   7.761  12.826  12.661
12563W        W84823  35.504  25.723  11.989
12564W        W84824  27.242  35.371   0.439
12565W        W84825  18.868  34.929  12.750
12566W        W84826  11.105  20.056   1.036
12567W        W84827  10.365  31.669   0.866
12568W        W84828  39.369  21.464  14.936
12569W        W84829  32.984  17.671   1.413
12570W        W84830  27.547  34.125  11.838
12571W        W84831  44.970   9.641  13.574
12572W        W84832   8.221  10.250   1.423
12573W        W84833  23.964  21.720  14.420
12574W        W84834  29.143   5.785   0.545
12575W        W84835  14.610  19.026  10.674
12576W        W84836  15.701   9.261   4.391
12577W        W84837  22.572  36.793   0.119
12578W        W84838  10.564  39.995   3.704
12579W        W84839   7.513  18.704   2.917
12580W        W84840  34.156  11.130   2.174
12581W        W84841  26.848  14.536   0.313
12582W        W84842  16.031  27.566  10.396
12583W        W84843  19.747   5.212   4.899
12584W        W84844  20.731  23.577  13.888
12585W        W84845  31.594  30.191   1.296
12586W        W84846  19.665  37.355   5.039
12587W        W84847  30.824  14.190   1.284
12588W        W84848  24.796  30.898  13.954
12589W        W84849  29.209  35.572  12.894
12590W        W84850  24.784  29.622  13.482
12591W        W84851   4.914   2.798   2.914
12592W        W84852  19.074  11.353  12.469
12593W        W84853  25.135   0.530   0.606
12594W        W84854  21.461  37.591   0.520
12595W        W84855  35.731  18.606   9.760
12596W        W84856  41.082  37.031   4.019
12597W        W84857  18.663  35.786  13.007
12598W        W84858   7.836  38.924  11.232
12599W        W84859   3.279  13.452   0.551
12600W        W84860  40.331   2.961   2.658
12601W        W84861   6.693  32.060   0.990
12602W        W84862  17.659  42.883  14.880
12603W        W84863  14.419   2.191  13.974
12604W        W84864  18.781  21.403  10.998
12605W        W84865   5.831  15.552   4.199
12606W        W84866  25.714  12.998   1.127
12607W        W84867  27.020  30.035   3.731
12608W        W84868  35.917  12.744   3.248
12609W        W84869  11.288  27.559  11.204
12610W        W84870  36.546  36.680   3.456
12611W        W84871  43.851  19.230  13.100
12612W        W84872  16.098  11.154   1.884
12613W        W84873  40.348  21.236  14.411
12614W        W84874  31.497  40.676   3.096
12615W        W84875  14.418  43.430   3.582
12616W        W84876  14.471  38.543   3.689
12617W        W84877  22.271  40.932   3.695
12618W        W84878   1.374  25.876   2.000
12619W        W84879  37.927  34.816  14.732
12620W        W84880   3.401  31.865   0.739
12621W        W84881  34.419  32.443   0.788
12622W        W84882  41.728  39.500   2.811
12623W        W84883  14.074  15.913  14.645
12624W        W84884  34.033  29.576   1.038
12625W        W84885  10.266  41.334   4.591
12626W        W84886  32.847   5.284  12.497
12627W        W84887  41.917  26.414   4.229
12628W        W84888  35.538  43.479  13.847
12629W        W84889  37.001  17.763   3.765
12630W        W84890  26.000  33.503   4.571
12631W        W84891  19.050   3.023  11.598
12632W        W84892   3.143  16.105  10.532
12633W        W84893  29.487  21.520  13.901
12634W        W84894  17.089  32.493   2.619
12635W        W84895  42.279  39.957  14.785
12636W        W84896  30.554   8.082  11.960
12637W        W84897  14.121   4.213  12.704
12638W        W84898   5.755   0.398  11.693
12639W        W84899   1.696  21.001  13.733
12640W        W84900   4.327  17.965  13.493
12641W        W84901  12.074  12.621  12.742
12642W        W84902  20.637   6.354   3.716
12643W        W84903  11.930  26.395  12.977
12644W        W84904  21.258  11.648  12.433
12645W        W84905   2.930  16.057   4.197
12646W        W84906  26.293  11.994   1.823
12647W        W84907  40.589   8.456  10.384
12648W        W84908   9.403  12.228  11.616
12649W        W84909   6.407  20.945   4.190
12650W        W84910   0.686  18.849  12.949
12651W        W84911   4.364  30.313   1.684
12652W        W84912  15.137   0.850   1.820
12653W        W84913  44.784  26.498   1.387
12654W        W84914  10.704  41.368  14.250
12655W        W84915   2.013  22.544  12.738
12656W        W84916  13.179   5.634  10.727
12657W        W84917  25.971  13.824   1.361
12658W        W84918  29.283  23.152  13.112
12659W        W84919  16.546  30.989  14.825
12660W        W84920  14.869   7.205   1.342
12661W        W84921   8.628  27.851   4.064
12662W        W84922  44.010  29.026  12.969
12663W        W84923  35.358  33.527  12.013
12664W        W84924  35.255  21.056  11.920
12665W        W84925  12.090   2.245   2.672
12666W        W84926  14.661  31.297  12.109
12667W        W84927  17.178  19.370   2.625
12668W        W84928  44.539  36.405   2.932
12669W        W84929  38.574  36.912   1.648
12670W        W84930  20.462  36.249   3.377
12671W        W84931  12.346   9.981  11.042
12672W        W84932  33.495   3.805   2.097
12673W        W84933  28.423  15.905  14.838
12674W        W84934  42.282  38.163  14.198
12675W        W84935  23.713  40.028  13.298
12676W        W84936  14.274  10.293   1.151
12677W        W84937   9.236  16.338   1.252
12678W        W84938   7.190  24.729   0.969
12679W        W84939  30.523  12.441   1.391
12680W        W84940   1.866  34.362   2.789
12681W        W84941   5.929  14.395  13.202
12682W        W84942  17.794  21.536  13.442
12683W        W84943  30.903  20.589  12.426
12684W        W84944  42.457  10.281   3.217
12685W        W84945  14.392   8.004  14.724
12686W        W84946  42.307  41.902   2.913
12687W        W84947   5.904   1.798   0.385
12688W        W84948   7.191  37.161   3.650
12689W        W84949   9.467  15.523  13.906
12690W        W84950  37.780  21.146  14.533
12691W        W84951   0.548   6.949   3.699
12692W        W84952  32.150  31.592   3.107
12693W        W84953  25.977  44.310  11.530
12694W        W84954  17.710  39.387  13.957
12695W        W84955  35.925   9.710   0.343
12696W        W84956  22.607  42.781  12.508
12697W        W84957   1.920  10.690   3.232
12698W        W84958  14.817  29.031  13.493
12699W        W84959  37.561  34.642   3.371
12700W        W84960   2.234  14.844   0.812
12701W        W84961  32.224  32.568  13.827
12702W        W84962  18.316  27.074  13.931
12703W        W84963   7.724  34.735   4.564
12704W        W84964  44.706  11.407   2.592
12705W        W84965  33.906  12.278   1.176
12706W        W84966  30.300  18.508   3.899
12707W        W84967  21.826   2.293  13.746
12708W        W84968  21.233  34.101   1.846
12709W        W84969   3.225  30.347  13.852
12710W        W84970   5.612   7.922  11.201
12711W        W84971  22.172  27.361  12.716
12712W        W84972   0.693  42.911   3.713
12713W        W84973  42.208  30.649  12.577
12714W        W84974  13.673  20.542  10.595
12715W        W84975  14.331   1.878   0.795
12716W        W84976  32.593  14.286   0.523
12717W        W84977  29.135   3.744  10.735
12718W        W84978   8.938   0.613  12.465
12719W        W84979  15.597  33.115  11.377
12720W        W84980   6.264  15.587   1.325
12721W        W84981  16.833  40.526   4.359
12722W        W84982  31.567  25.000  10.746
12723W        W84983  12.152   2.437   1.421
12724W        W84984   1.293  35.502  13.932
12725W        W84985   5.457  37.721  12.989
12726W        W84986  44.389  33.692   4.728
12727W        W84987  39.945  22.610  14.250
12728W        W84988  21.164  21.235  13.030
12729W        W84989  12.763  16.550   4.666
12730W        W84990  24.693   0.943   4.242
12731W        W84991  22.039  44.243  11.594
12732W        W84992  24.154   8.008   1.330
12733W        W84993   9.392  14.737  12.795
12734W        W84994  37.366  39.545   1.267
12735W        W84995  31.762   1.129   5.112
12736W        W84996   1.818  39.091   0.041
12737W        W84997  22.620  28.289   1.244
12738W        W84998  16.145  36.969   1.630
12739W        W84999   1.470  10.739   1.402
12740W        W85000  20.230   3.677   1.239
12741W        W85001  20.348  39.349  14.363
12742W        W85002   0.925  22.916  14.894
12743W        W85003  20.668  12.767  13.308
12744W        W85004  24.273  35.379  13.797
12745W        W85005  24.635  29.824   3.729
12746W        W85006  14.664  42.788  13.805
12747W        W85007  25.667  15.240  10.603
12748W        W85008  34.638   2.052   0.882
12749W        W85009   1.939  37.300   0.377
12750W        W85010   5.315  44.092  11.102
12751W        W85011  43.761  26.278  12.400
12752W        W85012  42.793  17.120  12.162
12753W        W85013  40.969  20.005   2.808
12754W        W85014   4.095   0.672   2.903
12755W        W85015  28.093  43.241   4.885
12756W        W85016  19.956  35.103  12.010
12757W        W85017  32.006  21.281   0.105
12758W        W85018  27.092  27.798   0.747
12759W        W85019  37.604  30.680   1.395
12760W        W85020   4.634   2.414  14.512
12761W        W85021  40.394   2.911  11.466
12762W        W85022  37.968  23.215  10.668
12763W        W85023  34.860   8.763   0.545
12764W        W85024   1.510   4.522  13.887
12765W        W85025  14.087  34.474  10.669
12766W        W85026  29.393   8.646  13.795
12767W        W85027  39.808  17.081  10.746
12768W        W85028   8.329  36.472  13.037
12769W        W85029  22.732   5.734   2.087
12770W        W85030   0.429  39.034  11.957
12771W        W85031  27.036   3.770  10.639
12772W        W85032  39.215  18.952   4.637
12773W        W85033  10.169   0.592   0.765
12774W        W85034   8.238   3.471  12.066
12775W        W85035  22.189  19.194   0.905
12776W        W85036   1.895  30.388  14.061
12777W        W85037   6.293  28.094   1.590
12778W        W85038  33.461  22.696  10.733
12779W        W85039  27.912  35.515   2.780
12780W        W85040  29.348  41.946  12.070
12781W        W85041  37.944  44.878   5.042
12782W        W85042   0.785  40.545  13.839
12783W        W85043   1.428  40.740  13.489
12784W        W85044  18.443   9.690  14.608
12785W        W85045   6.259  43.559   1.424
12786W        W85046  10.400  36.402   0.406
12787W        W85047  15.874   1.477   4.461
12788W        W85048   9.206   8.044  12.423
12789W        W85049  22.993   4.240  13.418
12790W        W85050  22.241  23.578   1.380
12791W        W85051  12.120  10.171   1.979
12792W        W85052  28.041   9.067   4.650
12793W        W85053  20.275  43.820  14.602
12794W        W85054  23.978  33.392   4.178
12795W        W85055   9.608  23.662  13.960
12796W        W85056   1.410   8.859   1.338
12797W        W85057  20.981  33.478  14.925
12798W        W85058  41.306  42.013   1.914
12799W        W85059  26.730  35.811  11.234
12800W        W85060  40.931  42.433  13.533
12801W        W85061  39.976  18.044  10.554
12802W        W85062  42.812  39.065   1.937
12803W        W85063   7.837  20.770  13.190
12804W        W85064  43.231  32.897  14.209
12805W        W85065  39.445  18.536  12.560
12806W        W85066  14.202  22.029  13.747
12807W        W85067  14.950   8.352  11.098
12808W        W85068  17.135  24.461  12.924
12809W        W85069  14.590  14.629   3.286
12810W        W85070  10.918  39.283  14.829
12811W        W85071   7.147  10.869  11.638
12812W        W85072  31.382  30.037  13.205
12813W        W85073  39.060  31.269   1.572
12814W        W85074   3.871  13.737  10.888
12815W        W85075  10.697  41.251  14.755
12816W        W85076  43.303  44.305   3.213
12817W        W85077  21.273   6.215  12.564
12818W        W85078   5.359   2.820  11.938
12819W        W85079  23.712   8.180   3.852
12820W        W85080  17.208  35.137   0.872
12821W        W85081   7.169  30.400   3.330
12822W        W85082  22.416   8.183  11.516
12823W        W85083  17.085   4.556   0.740
12824W        W85084  35.463  33.081   3.693
12825W        W85085  13.508  42.604   0.572
12826W        W85086  15.889   7.951  13.934
12827W        W85087  33.949  25.970   1.745
12828W        W85088  12.907  14.218  13.455
12829W        W85089   8.690  16.387   1.393
12830W        W85090  11.819  29.431   1.389
12831W        W85091  38.330   0.168  14.334
12832W        W85092  37.629  34.239   2.236
12833W        W85093  40.033  44.024   4.237
12834W        W85094  17.035  21.606  14.410
12835W        W85095   4.718  16.979  14.890
12836W        W85096  10.441  27.138  10.920
12837W        W85097  41.176   5.268  11.292
12838W        W85098   3.245   5.352  12.950
12839W        W85099  24.434  31.797   0.416
12840W        W85100  44.533  11.338   0.972
12841W        W85101  11.750   2.702  14.812
12842W        W85102   2.292   8.927  10.975
12843W        W85103  42.207  12.433  11.903
12844W        W85104  35.471   0.010  11.552
12845W        W85105  39.131  15.985   5.008
12846W        W85106  24.110  11.861  11.588
12847W        W85107  11.792  34.144   2.642
12848W        W85108   6.110   7.988  12.035
12849W        W85109  43.884  31.117   0.256
12850W        W85110  34.620  19.393   2.749
12851W        W85111  22.061  26.391  14.836
12852W        W85112   2.864  38.070  12.352
12853W        W85113   3.453   9.816  14.793
12854W        W85114   1.501  21.620   2.178
12855W        W85115  28.070  18.696   4.535
12856W        W85116  36.491  32.379   0.857
12857W        W85117  34.938  35.982   2.337
12858W        W85118  34.870  28.891   3.043
12859W        W85119  13.395  29.211  13.372
12860W        W85120  19.742  28.541  10.714
12861W        W85121  30.004  16.252   4.525
12862W        W85122  43.843  29.684   2.723
12863W        W85123  42.403  10.826   1.771
12864W        W85124   0.498  34.199   1.709
12865W        W85125  11.005  16.093   1.011
12866W        W85126  12.663   4.224   0.270
12867W        W85127   1.649   2.653  13.222
12868W        W85128  14.164  17.313  13.328
12869W        W85129  18.592  27.422   0.703
12870W        W85130  33.648  15.061  10.606
12871W        W85131  21.737  12.175  14.795
12872W        W85132  17.665  11.196  14.041
12873W        W85133  19.157  23.991  11.594
12874W        W85134  15.677   4.765  11.108
12875W        W85135  41.292   9.711  12.402
12876W        W85136  41.268   7.723  12.475
12877W        W85137  11.377  12.449  11.549
12878W        W85138  10.685  30.402   0.986
12879W        W85139  42.744  40.046  12.104
12880W        W85140   0.066  34.558  12.781
12881W        W85141  41.725  36.215  13.462
12882W        W85142  31.840  24.089  13.185
12883W        W85143  11.087  44.262  11.566
12884W        W85144  28.221   8.308  10.045
12885W        W85145  19.378  40.745  12.826
12886W        W85146  32.930   0.293  12.665
12887W        W85147  43.110  24.506   3.816
12888W        W85148  18.982  36.298   0.830
12889W        W85149  20.297   3.941  13.965
12890W        W85150  33.811  11.281   1.290
12891W        W85151  35.571  11.832   1.418
12892W        W85152  23.381  27.503   0.683
12893W        W85153  10.781  12.187  10.719
12894W        W85154   6.442  34.383   0.982
12895W        W85155  44.301  39.746   0.958
12896W        W85156  41.330   3.450   4.133
12897W        W85157   6.960  19.189  13.336
12898W        W85158  14.949   6.649  14.379
12899W        W85159  17.227  39.427  14.256
12900W        W85160  40.077  13.844   3.267
12901W        W85161  44.421  12.607  12.971
12902W        W85162  44.322  36.788   3.871
12903W        W85163   2.951  36.557  12.860
12904W        W85164  32.678  42.233  14.920
12905W        W85165  12.764  27.782  12.747
12906W        W85166   9.644  33.155   0.014
12907W        W85167   7.729  21.524   0.434
12908W        W85168  26.056  41.845  10.285
12909W        W85169  36.710   1.340  13.166
12910W        W85170  31.247  33.411  12.457
12911W        W85171  20.245  32.983   1.495
12912W        W85172  38.052  21.467  11.090
12913W        W85173  27.878  25.637  14.505
12914W        W85174  19.024   1.296  11.585
12915W        W85175   6.768  28.665  13.970
12916W        W85176   8.459   5.734  12.674
12917W        W85177   7.078   2.674  10.611
12918W        W85178  10.117  27.810  14.532
12919W        W85179  13.841  22.676   4.282
12920W        W85180   1.525   2.714   2.027
12921W        W85181  15.102   0.762  13.034
12922W        W85182  13.584  43.043   4.117
12923W        W85183  23.580  15.280  10.976
12924W        W85184   9.681  44.486   2.409
12925W        W85185  12.702   7.624  12.040
12926W        W85186  34.191  39.564   3.799
12927W        W85187  40.569  39.959   3.405
12928W        W85188  15.561   5.667   1.620
12929W        W85189  29.041  13.260   2.330
12930W        W85190  10.338   2.736  14.848
12931W        W85191  20.332  27.252  11.160
12932W        W85192  43.724  23.637  14.877
12933W        W85193  43.806  16.304  13.664
12934W        W85194  24.595  33.176   0.305
12935W        W85195   0.467  21.619   3.123
12936W        W85196  33.572  10.056  14.883
12937W        W85197  42.756  38.722   3.349
12938W        W85198  22.143  27.641  11.382
12939W        W85199  26.094  26.236   0.363
12940W        W85200  38.023  36.383   2.430
12941W        W85201   4.871  27.181   1.107
12942W        W85202  34.092  29.045   1.440
12943W        W85203  16.284  21.715   0.850
12944W        W85204   0.796  39.958   4.139
12945W        W85205  16.271   0.202  12.600
12946W        W85206  42.997  35.554   2.620
12947W        W85207   3.185  14.335  14.409
12948W        W85208  25.041  33.932   2.423
12949W        W85209  38.167  29.402   4.009
12950W        W85210  20.838  34.542   3.889
12951W        W85211  28.406  23.534  13.270
12952W        W85212  40.714   2.718   2.916
12953W        W85213  39.252   5.341  11.191
12954W        W85214  42.623  41.366  11.725
12955W        W85215   1.435  30.001  11.095
12956W        W85216  42.469  36.708  14.483
12957W        W85217  20.510  44.853   2.302
12958W        W85218  15.616   8.272  11.814
12959W        W85219  34.142  15.978  13.123
12960W        W85220  26.633   9.083  12.488
12961W        W85221  31.050   2.754  13.943
12962W        W85222  27.291  25.594   0.273
12963W        W85223  20.549  23.579   2.843
12964W        W85224   7.155  14.708   3.300
12965W        W85225  39.461  20.617   1.897
12966W        W85226  44.796  37.055   1.610
12967W        W85227  12.018   2.890  12.951
12968W        W85228  34.848  34.850   1.803
12969W        W85229   2.955  17.795  14.759
12970W        W85230  36.144  35.442  13.776
12971W        W85231  43.265   2.955  14.270
12972W        W85232  37.866  39.738  11.078
12973W        W85233   6.330  19.800  13.017
12974W        W85234  13.599  28.675   2.664
12975W        W85235  14.176  33.142  12.826
12976W        W85236  42.308  10.681   4.784
12977W        W85237  18.507  27.948  13.959
12978W        W85238  31.252  32.102   9.692
12979W        W85239   0.453  12.705  13.043
12980W        W85240  26.383   8.172  13.047
12981W        W85241  44.360   6.711   2.669
12982W        W85242  33.162  28.011  11.905
12983W        W85243  39.770  31.716   2.267
12984W        W85244   0.263  20.528   1.428
12985W        W85245  43.422  37.382   0.737
12986W        W85246   5.879  31.689   1.253
12987W        W85247  15.744  33.454   2.389
12988W        W85248   1.276  22.617   1.778
12989W        W85249  20.421  13.817   0.881
12990W        W85250  44.311  38.791  14.943
12991W        W85251  27.588  29.962  14.998
12992W        W85252  28.647  42.500  11.957
12993W        W85253   5.280  38.871  11.269
12994W        W85254  40.930   6.991  13.389
12995W        W85255   7.583   2.809   3.864
12996W        W85256  34.099  38.069   1.283
12997W        W85257   2.995   0.156  11.016
12998W        W85258  35.025  13.687   3.098
12999W        W85259   9.663  20.724   2.765
13000W        W85260  35.464  42.016   3.541
13001W        W85261  24.234  19.876   1.446
13002W        W85262  29.660  18.014   3.282
13003W        W85263  10.677  44.449  14.956
13004W        W85264  36.098  38.470   4.117
13005W        W85265   0.681  44.830  12.766
13006W        W85266  43.069   8.475  11.108
13007W        W85267   2.446  41.017  12.645
13008W        W85268  18.257  14.253  13.315
13009W        W85269   5.685  14.790  12.926
13010W        W85270   8.086  27.093   0.398
13011W        W85271  30.533  11.161   2.086
13012W        W85272  31.348  23.297   4.168
13013W        W85273  41.142   2.896  13.034
13014W        W85274   6.926  26.188   2.214
13015W        W85275  38.923   0.975   0.787
13016W        W85276  20.280  23.453   0.654
13017W        W85277  36.073  15.633  14.248
13018W        W85278  26.072  29.934   1.634
13019W        W85279  18.288  20.703  13.975
13020W        W85280  42.566  17.785   2.746
13021W        W85281  32.848  16.850  12.412
13022W        W85282  33.015  37.239   1.917
13023W        W85283  15.090  35.646  10.513
13024W        W85284  27.337  43.452  11.948
13025W        W85285  29.017  44.757  11.991
13026W        W85286  39.445  35.796   3.202
13027W        W85287   4.177  18.256   2.275
13028W        W85288  31.861  19.935   1.796
13029W        W85289  40.217   1.774  14.889
13030W        W85290  44.891  33.627   3.177
13031W        W85291  19.542   6.362   3.735
13032W        W85292  41.254   4.248   3.592
13033W        W85293   1.414  25.314   4.086
13034W        W85294  34.680  37.064   3.442
13035W        W85295  19.717  22.169   2.742
13036W        W85296  16.631  31.586  11.649
13037W        W85297  25.566  39.671  11.164
13038W        W85298  25.592  11.156  10.764
13039W        W85299  41.875  21.665   1.867
13040W        W85300  44.014   9.120  14.263
13041W        W85301  32.042  36.191  11.440
13042W        W85302  27.483  20.230  13.553
13043W        W85303  42.837  29.706  10.997
13044W        W85304   7.292  17.708   0.389
13045W        W85305  22.019  19.698  11.601
13046W        W85306  25.518  18.110   4.145
13047W        W85307  31.091   8.853  13.433
13048W        W85308  14.729  13.293   4.713
13049W        W85309  18.713  17.226   1.232
13050W        W85310  10.115  19.543  12.794
13051W        W85311   4.309  36.985   0.297
13052W        W85312  27.077  25.680  10.773
13053W        W85313  38.486   1.403   4.017
13054W        W85314  37.447  16.851  13.084
13055W        W85315  43.862  33.055   3.873
13056W        W85316   5.870  22.820   2.747
13057W        W85317  10.906  17.346  13.441
13058W        W85318  24.713  28.035   3.329
13059W        W85319  25.470   5.101   3.313
13060W        W85320  10.663   3.223   3.081
13061W        W85321  12.605   5.771  10.818
13062W        W85322  28.899  33.142  11.082
13063W        W85323  43.008  33.338   2.255
13064W        W85324  21.202  30.977  14.027
13065W        W85325  21.874  15.997   2.755
13066W        W85326  36.149  23.444   2.461
13067W        W85327  29.128  30.183   4.035
13068W        W85328  28.239   4.507   4.167
13069W        W85329   2.452  41.227  13.395
13070W        W85330   5.318  38.861   3.311
13071W        W85331   9.158  13.869   3.368
13072W        W85332  29.640  39.518   4.376
13073W        W85333  18.033  32.585  12.135
13074W        W85334  17.056  43.667  12.621
13075W        W85335  32.840  14.043   1.717
13076W        W85336  15.692  43.077  13.571
13077W        W85337  19.575  21.156  11.818
13078W        W85338  40.597  30.496  10.757
13079W        W85339   6.709  25.045   5.073
13080W        W85340  44.423  11.897   2.398
13081W        W85341  37.147  17.161   2.231
13082W        W85342  11.896  19.204   1.177
13083W        W85343  20.038  29.964   3.189
13084W        W85344   8.440  35.384  13.996
13085W        W85345  40.413  12.257  11.330
13086W        W85346  14.975  10.802   0.796
13087W        W85347   2.035  29.138   4.697
13088W        W85348  38.125  33.952  10.989
13089W        W85349   2.873  38.398   4.108
13090W        W85350  20.513  23.473  14.348
13091W        W85351  26.633  37.129  11.176
13092W        W85352   8.290  26.065  13.154
13093W        W85353  20.750  25.146  13.938
13094W        W85354  40.836   8.883  13.792
13095W        W85355  41.753  19.492   2.842
13096W        W85356  40.993  17.978  12.083
13097W        W85357  28.712  36.681  11.516
13098W        W85358   9.612  20.715   4.892
13099W        W85359   0.321  11.347  13.570
13100W        W85360  21.896  14.749   2.209
13101W        W85361  27.061   0.057   2.673
13102W        W85362  10.293  44.992   4.863
13103W        W85363  36.053   1.188  13.513
13104W        W85364   2.847   4.234  13.707
13105W        W85365   1.573  25.499  11.922
13106W        W85366  37.081  41.166   3.948
13107W        W85367   5.892  29.518   2.054
13108W        W85368  44.697  12.614  12.504
13109W        W85369  11.282  30.978   3.117
13110W        W85370  15.195  36.449  13.887
13111W        W85371  33.591  15.084  11.515
13112W        W85372  10.238  44.519   4.680
13113W        W85373  16.120  16.111  14.402
13114W        W85374  13.566  34.463  10.660
13115W        W85375  35.088  43.478  10.649
13116W        W85376  29.117  42.450   3.747
13117W        W85377   9.323  38.229   0.596
13118W        W85378   2.413  38.364   2.800
13119W        W85379  34.502  41.569  11.181
13120W        W85380  38.091  38.969  11.638
13121W        W85381  12.823  15.503   3.149
13122W        W85382  25.104  21.176  13.278
13123W        W85383   9.162  14.172  11.080
13124W        W85384  25.147  13.739  11.564
13125W        W85385  39.066  27.424  11.103
13126W        W85386  42.891  24.014   0.244
13127W        W85387  40.595  24.575  12.884
13128W        W85388   3.522  30.100  13.450
13129W        W85389   1.755  39.464   3.358
13130W        W85390  41.864  44.484  11.540
13131W        W85391  43.593  32.012   0.215
13132W        W85392  40.640  25.963   4.369
13133W        W85393  12.966   0.464  11.357
13134W        W85394  13.163  40.861   0.962
13135W        W85395  29.624   5.959   0.437
13136W        W85396  28.379  39.868  11.498
13137W        W85397  12.452   3.662   1.833
13138W        W85398  31.263  41.082  12.625
13139W        W85399  35.536   3.915   3.734
13140W        W85400   9.142  41.933   4.365
13141W        W85401  10.719  31.101   3.898
13142W        W85402  37.613  44.442   0.433
13143W        W85403  14.314   2.690  14.037
13144W        W85404  39.547  31.065   1.768
13145W        W85405  38.638  36.504   4.304
13146W        W85406  20.548  28.058   2.798
13147W        W85407  41.398  23.683  14.562
13148W        W85408  25.768  43.574  14.270
13149W        W85409  28.389  35.502  10.214
13150W        W85410  40.437  24.930   2.125
13151W        W85411  28.057  39.846   0.876
13152W        W85412  15.759   9.551  13.073
13153W        W85413   0.544  20.643   4.949
13154W        W85414  41.307  19.579  14.797
13155W        W85415  25.166   5.913   2.824
13156W        W85416   5.296  24.143  11.984
13157W        W85417   3.747  30.024  12.975
13158W        W85418  25.453  13.197  10.624
13159W        W85419  10.355  18.131   1.107
13160W        W85420  15.851   8.615  12.373
13161W        W85421  32.595  24.986  14.981
13162W        W85422  33.682  40.132   1.981
13163W        W85423  39.545  28.115  13.556
13164W        W85424  40.411  41.200  13.384
13165W        W85425  16.620  30.198   1.286
13166W        W85426  31.208   7.236  14.001
13167W        W85427  20.713   6.620   0.422
13168W        W85428  25.027  11.167  10.707
13169W        W85429  35.906  33.162   0.941
13170W        W85430   7.560   0.494   1.942
13171W        W85431  42.890  35.630   0.038
13172W        W85432  24.690  16.253   3.015
13173W        W85433  14.066  17.223  14.438
13174W        W85434  35.481  16.999   4.094
13175W        W85435  24.465  15.345   3.583
13176W        W85436  30.926  44.702  11.878
13177W        W85437   8.684  29.029  14.829
13178W        W85438  29.178  37.504  10.716
13179W        W85439  34.898  29.547  11.579
13180W        W85440  18.178  41.069  13.964
13181W        W85441  35.550  12.646   1.866
13182W        W85442  13.105  35.033  13.840
13183W        W85443  33.567  18.859  14.722
13184W        W85444  14.265  42.276   2.357
13185W        W85445  13.891   8.789   1.806
13186W        W85446  23.924  27.077   3.156
13187W        W85447  23.979  30.517   4.468
13188W        W85448  10.310  16.016  10.995
13189W        W85449  31.180   7.830   1.410
13190W        W85450  21.723  29.423  13.274
13191W        W85451   1.809  37.831  12.581
13192W        W85452  33.447  44.068  10.225
13193W        W85453  41.265  33.176   0.816
13194W        W85454  38.535  34.647   4.792
13195W        W85455  43.454  32.367  13.365
13196W        W85456  11.828  39.982   3.125
13197W        W85457  34.551  36.645   4.506
13198W        W85458  21.039  32.201   0.788
13199W        W85459  24.254   1.220   1.797
13200W        W85460  32.634   5.010  11.958
13201W        W85461  37.624   8.630   1.169
13202W        W85462   6.844   8.243  13.254
13203W        W85463  25.096  31.384   2.284
13204W        W85464  27.599   1.322   2.936
13205W        W85465  25.952  39.285   1.272
13206W        W85466  22.151   5.207   1.406
13207W        W85467   7.317  18.031   2.218
13208W        W85468  11.360  16.640   2.303
13209W        W85469  37.370   2.975  12.080
13210W        W85470  20.963  36.780  13.527
13211W        W85471  35.591  18.134  14.388
13212W        W85472  27.765  34.538  11.025
13213W        W85473  34.418  16.770  13.843
13214W        W85474  28.700   7.381   0.805
13215W        W85475   1.074  30.727  12.584
13216W        W85476  38.115  33.856  10.074
13217W        W85477  14.647  21.261   3.276
13218W        W85478  39.761   9.365   0.809
13219W        W85479  37.324   0.203   2.387
13220W        W85480  20.695  30.272   2.119
13221W        W85481  31.941   5.111   0.342
13222W        W85482   8.266  41.599  12.224
13223W        W85483  34.916   5.093   4.064
13224W        W85484  12.380  31.160   2.269
13225W        W85485  22.318  43.850   3.760
13226W        W85486  42.929  26.507  12.678
13227W        W85487  34.309  40.375  11.974
13228W        W85488   5.310  14.110  13.960
13229W        W85489  29.396  13.613   2.231
13230W        W85490  34.132  10.354   0.987
13231W        W85491   7.837  18.875   3.693
13232W        W85492  40.565   5.700  13.409
13233W        W85493   3.838  21.659  13.166
13234W        W85494  31.661  44.393  12.918
13235W        W85495  43.428  34.070   2.826
13236W        W85496  26.136  12.769  14.051
13237W        W85497  13.375  15.665   0.950
13238W        W85498  23.150   4.657  11.984
13239W        W85499   9.694  39.429   3.138
13240W        W85500  15.207  41.588   0.961
13241W        W85501  29.094  17.281  12.819
13242W        W85502  36.387   0.826  11.401
13243W        W85503  16.435   9.381   3.300
13244W        W85504  39.311  41.976  13.938
13245W        W85505   4.909  38.523   4.480
13246W        W85506   5.753  15.808  10.556
13247W        W85507  34.904  16.631  13.970
13248W        W85508  23.412  10.893  11.124
13249W        W85509  23.501  17.203   4.062
13250W        W85510  15.176  30.576   1.371
13251W        W85511  33.521  13.075   0.853
13252W        W85512  11.224  24.669  11.531
13253W        W85513  26.032  24.989  10.859
13254W        W85514  17.102  14.912   2.757
13255W        W85515  15.699  37.172   5.057
13256W        W85516  28.569  21.231  11.701
13257W        W85517  30.794  16.306  14.287
13258W        W85518  27.415  39.910   4.951
13259W        W85519  29.934  27.170   3.200
13260W        W85520  43.482  27.212   1.855
13261W        W85521   2.958  28.513   3.136
13262W        W85522  11.092  19.074  11.529
13263W        W85523  27.534  19.595  11.557
13264W        W85524  23.096  27.113   0.024
13265W        W85525   7.819  39.353  14.501
13266W        W85526  32.696  25.845  13.973
13267W        W85527  42.847  26.896  13.021
13268W        W85528   5.616  11.585   4.961
13269W        W85529  28.710  43.483  14.509
13270W        W85530  24.132  28.134   3.615
13271W        W85531  21.768  30.630   2.266
13272W        W85532  14.604  42.482  10.665
13273W        W85533  28.940  32.127  10.607
13274W        W85534  11.920   3.753  11.131
13275W        W85535  33.942  29.183  12.515
13276W        W85536  22.108  23.118   1.694
13277W        W85537  37.901   9.614  11.839
13278W        W85538   8.835  26.526   4.593
13279W        W85539   3.263  27.424   4.131
13280W        W85540  39.318  28.526  12.656
13281W        W85541  40.263  44.724   2.616
13282W        W85542   5.863  21.429  14.761
13283W        W85543  23.549  11.358   2.987
13284W        W85544  34.704  28.096  12.967
13285W        W85545  39.462  42.744   2.658
13286W        W85546   2.915  37.938   2.326
13287W        W85547  40.980   9.825  14.238
13288W        W85548   4.254   6.754  13.431
13289W        W85549  44.232  12.266   4.212
13290W        W85550  27.963  28.207  12.839
13291W        W85551  33.189  13.712   3.173
13292W        W85552  29.535  34.021  13.015
13293W        W85553   3.654   3.498  11.395
13294W        W85554  11.647  15.178  10.696
13295W        W85555  36.152   0.431  13.409
13296W        W85556  39.465   0.277   4.045
13297W        W85557   6.462  23.610   0.571
13298W        W85558  28.023  31.938   4.143
13299W        W85559  43.332  11.379  13.042
13300W        W85560  18.679  31.040   0.330
13301W        W85561  37.801  29.966   0.526
13302W        W85562  21.810  21.945   3.006
13303W        W85563  26.151  40.466   4.729
13304W        W85564   6.894  44.361  10.726
13305W        W85565  10.589  31.931  12.888
13306W        W85566  39.708  17.573   0.004
13307W        W85567  37.790  21.642   3.701
13308W        W85568  14.624  15.077  12.988
13309W        W85569  33.022  28.101  13.345
13310W        W85570  17.149   7.908  12.387
13311W        W85571  40.981  32.497   2.287
13312W        W85572  29.570   4.727  13.651
13313W        W85573  11.669  42.117  13.946
13314W        W85574   2.308  41.011   3.797
13315W        W85575  18.999   8.314  13.424
13316W        W85576   6.475   1.072   2.737
13317W        W85577  15.512  39.629   2.392
13318W        W85578   1.318  14.276  10.562
13319W        W85579  27.561  37.514  11.034
13320W        W85580  28.072  24.501  11.471
13321W        W85581  34.145   6.692  12.187
13322W        W85582  12.448  43.781   3.181
13323W        W85583  28.515  41.869  13.380
13324W        W85584  41.929   5.382   2.097
13325W        W85585  19.675  25.905   2.319
13326W        W85586  13.215  33.491   1.864
13327W        W85587   2.661  26.385  12.118
13328W        W85588   0.467  34.487   4.120
13329W        W85589  32.740  26.449  14.879
13330W        W85590  41.265   0.269  12.671
13331W        W85591  24.280  18.071  13.619
13332W        W85592  28.658  40.977  11.898
13333W        W85593  35.417  23.223  11.110
13334W        W85594  27.858  10.455  11.846
13335W        W85595   5.250  10.693   3.617
13336W        W85596  26.545  34.016  14.174
13337W        W85597   3.763  34.412  12.292
13338W        W85598  29.957   2.934   0.459
13339W        W85599  14.669  12.836   0.382
13340W        W85600  33.055  18.143   3.339
13341W        W85601  19.547   3.652   1.523
13342W        W85602  12.596   3.485  12.837
13343W        W85603   4.761  15.247   4.811
13344W        W85604  11.241  12.663  13.548
13345W        W85605  25.129  44.234  13.481
13346W        W85606  19.325  36.675  11.032
13347W        W85607  42.965  25.918  11.172
13348W        W85608  21.838  38.863  14.005
13349W        W85609  16.051   4.057   1.735
13350W        W85610  27.536   9.187  10.707
13351W        W85611  12.310   4.513   4.339
13352W        W85612  40.461  15.268   1.327
13353W        W85613   9.454  44.485   0.170
13354W        W85614  24.764   6.702   3.349
13355W        W85615  19.128  41.401  11.728
13356W        W85616  32.818   9.696   3.655
13357W        W85617  11.843  16.845   1.285
13358W        W85618  37.089   0.465   4.245
13359W        W85619  31.100   2.245   1.156
13360W        W85620  30.436  44.958   2.251
13361W        W85621  23.979   3.963   4.675
13362W        W85622  43.753  42.669   0.255
13363W        W85623  43.427  27.488  14.940
13364W        W85624  16.261  17.565  12.625
13365W        W85625   4.192  40.513  14.221
13366W        W85626  42.008  19.427  13.576
13367W        W85627  31.636  43.040   5.037
13368W        W85628  20.577  43.490   3.837
13369W        W85629  29.097  38.008  10.634
13370W        W85630   1.921  29.913   3.303
13371W        W85631  38.309   5.809  11.866
13372W        W85632  43.543   0.745   3.246
13373W        W85633  27.654  42.226   2.724
13374W        W85634  15.507  36.372   3.539
13375W        W85635   7.719   9.692   0.919
13376W        W85636  30.627  17.196  11.300
13377W        W85637  24.755  23.086   0.970
13378W        W85638   5.432   7.944   0.404
13379W        W85639  32.850  28.603  13.097
13380W        W85640  20.507  30.024   1.260
13381W        W85641  27.951  26.476  10.571
13382W        W85642  23.205  39.721  12.016
13383W        W85643   0.552  40.117  13.442
13384W        W85644  29.873  24.922   0.527
13385W        W85645  15.777  41.325   0.355
13386W        W85646  15.842   3.847  12.815
13387W        W85647  37.335  28.713   4.904
13388W        W85648   1.163  25.027  12.519
13389W        W85649   4.742  41.980   1.774
13390W        W85650  17.776  28.400   3.944
13391W        W85651  38.440  19.563   1.704
13392W        W85652  17.619   8.915  14.005
13393W        W85653  33.137  32.191  11.897
13394W        W85654  40.449  32.280   4.108
13395W        W85655  17.181   7.308  14.525
13396W        W85656  11.293  18.291  12.594
13397W        W85657   0.376  24.468  13.603
13398W        W85658  31.156  38.051   2.377
13399W        W85659  21.620  21.505  11.097
13400W        W85660   7.757  34.574  10.723
13401W        W85661  37.400  24.961   2.284
13402W        W85662  10.115   8.811   4.655
13403W        W85663  14.359  42.225   4.616
13404W        W85664  36.979   4.667   2.654
13405W        W85665  14.898  35.597  10.985
13406W        W85666  21.989  38.074  11.257
13407W        W85667  16.351  19.170   1.887
13408W        W85668  27.670   8.859   3.291
13409W        W85669  16.063  34.193   4.159
13410W        W85670  17.046  31.950  14.402
13411W        W85671   4.810  37.641   4.219
13412W        W85672  13.036  17.338  14.501
13413W        W85673  35.294   7.475   0.462
13414W        W85674  33.028  12.864  13.597
13415W        W85675  15.048  28.393   4.744
13416W        W85676  42.084   2.711  13.104
13417W        W85677  24.147  42.297   0.340
13418W        W85678  20.162  30.503  10.980
13419W        W85679  34.569  31.018  12.447
13420W        W85680  25.489  16.136  11.499
13421W        W85681  12.646  26.576  13.976
13422W        W85682  34.895  22.335   4.230
13423W        W85683  37.716  21.681  12.314
13424W        W85684   8.365  38.781  14.987
13425W        W85685   4.803  41.423   9.795
13426W        W85686  44.821  31.875   3.763
13427W        W85687   4.860  26.513  12.540
13428W        W85688  37.520  39.149  13.581
13429W        W85689   8.933  35.381  10.681
13430W        W85690  20.242  16.192  10.996
13431W        W85691  25.223  18.251  14.484
13432W        W85692  22.707  18.845   1.331
13433W        W85693  24.997  38.283  13.331
13434W        W85694  44.775  17.167   9.643
13435W        W85695  10.416  41.352   3.757
13436W        W85696  40.378  27.283   1.182
13437W        W85697  27.982  17.188   2.699
13438W        W85698  41.973  22.683   0.996
13439W        W85699  40.011  35.931   0.044
13440W        W85700  39.841  29.204   0.364
13441W        W85701   7.923   4.277  10.669
13442W        W85702   2.400  13.830   0.905
13443W        W85703   3.027   8.538   1.002
13444W        W85704  17.102   2.103  11.123
13445W        W85705   0.534   7.272  10.813
13446W        W85706   7.743   9.230   4.732
13447W        W85707  43.568  39.796  13.571
13448W        W85708  32.131   8.165  12.598
13449W        W85709   0.525  14.235   3.655
13450W        W85710  39.972  27.029   2.895
13451W        W85711  34.787  38.951  10.675
13452W        W85712   5.917   8.696   4.612
13453W        W85713  43.418  41.342   3.597
13454W        W85714  11.415  30.683   1.604
13455W        W85715  26.479  24.091  13.877
13456W        W85716  28.491   9.160  12.021
13457W        W85717  16.978   4.906  10.288
13458W        W85718  21.539  29.435  12.408
13459W        W85719  17.387  38.350   0.742
13460W        W85720  29.119  23.256   1.274
13461W        W85721  31.592  20.351  14.944
13462W        W85722  25.190  16.287  13.367
13463W        W85723  21.115  29.755  14.513
13464W        W85724  31.496   1.376   3.215
13465W        W85725  12.210   2.700  14.551
13466W        W85726  19.850  25.241  10.669
13467W        W85727  24.181  16.694  12.546
13468W        W85728  15.502   1.797   2.869
13469W        W85729  37.120   1.344  12.311
13470W        W85730  40.895   1.517   1.349
13471W        W85731  26.418  39.197   2.178
13472W        W85732   3.352  24.521  12.861
13473W        W85733  11.241  20.192  13.585
13474W        W85734  14.671  11.231   1.259
13475W        W85735  19.335  19.693  13.831
13476W        W85736  13.709  17.657   1.682
13477W        W85737  24.155  43.961  14.980
13478W        W85738   8.245   4.252  11.627
13479W        W85739  19.078   1.417   1.672
13480W        W85740  27.123  36.044  12.335
13481W        W85741   7.777  20.336  11.849
13482W        W85742  20.025  22.913  13.889
13483W        W85743  12.767  18.084   1.859
13484W        W85744  24.895   0.781  14.077
13485W        W85745  14.477  16.235  12.475
13486W        W85746   7.378   0.504   1.071
13487W        W85747  28.520  38.227  14.800
13488W        W85748  41.282  23.260  12.985
13489W        W85749  29.093  14.691   2.352
13490W        W85750  14.761   9.972   0.470
13491W        W85751  19.355  34.433  14.092
13492W        W85752  34.721  32.586  12.641
13493W        W85753  26.755   2.454  14.968
13494W        W85754  35.589  28.537  12.035
13495W        W85755  35.064   9.682  10.692
13496W        W85756   5.148  34.402  11.133
13497W        W85757  16.852  12.855  13.019
13498W        W85758   8.406  24.165   1.268
13499W        W85759  42.340  32.478   0.356
13500W        W85760  15.973  36.556  14.524
13501W        W85761   9.734  37.599  10.735
13502W        W85762  38.732  29.465  13.109
13503W        W85763  26.695  40.937   4.090
13504W        W85764  17.687  22.497   3.338
13505W        W85765  18.143  12.592   3.270
13506W        W85766  22.929  30.346   5.121
13507W        W85767  12.624  30.978  14.358
13508W        W85768  13.990   7.725  10.690
13509W        W85769  19.137  35.223  11.181
13510W        W85770  33.822  40.957  12.399
13511W        W85771  37.422  29.096  11.890
13512W        W85772  44.591  14.367   1.899
13513W        W85773  17.321  26.588  10.096
13514W        W85774  22.528  37.615  13.822
13515W        W85775   2.708  17.241   2.753
13516W        W85776  37.516  27.639   3.436
13517W        W85777   1.210  27.075   0.042
13518W        W85778  18.326   1.348  11.095
13519W        W85779   3.810  41.768   2.737
13520W        W85780   6.146  41.430  13.428
13521W        W85781  13.820  42.424   0.191
13522W        W85782  44.030  24.585   1.446
13523W        W85783   3.579  22.256   9.819
13524W        W85784  23.628  35.300   2.632
13525W        W85785  39.935  37.279   0.769
13526W        W85786  38.534  11.841   1.225
13527W        W85787   4.170  24.792  11.081
13528W        W85788  19.810  38.580   3.020
13529W        W85789  13.298  25.756  13.877
13530W        W85790  42.794  12.440  11.123
13531W        W85791  10.483  33.114  11.300
13532W        W85792  17.758  26.751  10.374
13533W        W85793  29.721  10.276  10.763
13534W        W85794  43.189   5.770   0.699
13535W        W85795  27.601  40.143   9.763
13536W        W85796   3.388  38.350   1.471
13537W        W85797   6.295  42.870   3.795
13538W        W85798  11.854  25.256   2.185
13539W        W85799  13.075  34.815   4.158
13540W        W85800  31.457  15.984   1.886
13541W        W85801   7.575  22.148  10.654
13542W        W85802  42.855  28.688  13.803
13543W        W85803  25.466  14.633   4.040
13544W        W85804   9.960  13.817  14.615
13545W        W85805  13.127  31.286   1.820
13546W        W85806  30.875   7.160   4.449
13547W        W85807  15.547  42.718  12.873
13548W        W85808  37.832  19.498   2.879
13549W        W85809  11.103  44.790   2.735
13550W        W85810   6.314  14.372   0.829
13551W        W85811  39.092  42.293   4.267
13552W        W85812  41.829   1.777  12.987
13553W        W85813  14.748   6.184  13.716
13554W        W85814  20.480   9.250   3.129
13555W        W85815  16.430   7.387   4.119
13556W        W85816  30.014   0.709   3.729
13557W        W85817  41.044  19.092  13.818
13558W        W85818  11.979   9.058   4.214
13559W        W85819  23.281  18.217   5.297
13560W        W85820  12.289  11.728   2.788
13561W        W85821  44.268  26.386   1.348
13562W        W85822  22.586  19.106   2.738
13563W        W85823  15.700  31.401   1.878
13564W        W85824  18.443   8.320   3.779
13565W        W85825  39.899  44.402  13.570
13566W        W85826   4.913  16.649  13.431
13567W        W85827   7.066  41.157   3.433
13568W        W85828  15.245  12.083  14.914
13569W        W85829  44.971  17.540   3.875
13570W        W85830  20.305  33.979   0.880
13571W        W85831  37.416   8.685   2.863
13572W        W85832  38.565  39.888   2.836
13573W        W85833   9.042  15.818   9.854
13574W        W85834  17.699  22.541  13.418
13575W        W85835  26.073   9.318   3.526
13576W        W85836  38.129   4.735  11.678
13577W        W85837   2.741  22.740   0.953
13578W        W85838  33.618   0.082  11.588
13579W        W85839  14.097  41.004  11.626
13580W        W85840  16.133  19.075   3.301
13581W        W85841  38.730  28.585   4.378
13582W        W85842  34.869  40.371   0.901
13583W        W85843   5.771  30.001  12.515
13584W        W85844  17.663  18.181   4.177
13585W        W85845  31.409  18.038   4.349
13586W        W85846  38.379  17.347  13.046
13587W        W85847  39.008  41.751  11.083
13588W        W85848  13.746  27.869   0.323
13589W        W85849  44.660  19.868  11.926
13590W        W85850  28.159   0.403   4.003
13591W        W85851   9.928  23.179   1.191
13592W        W85852  34.390   0.318   0.348
13593W        W85853  28.988   2.347  10.669
13594W        W85854  17.779  25.988   2.411
13595W        W85855  31.632  17.248  14.692
13596W        W85856   9.334  26.662   2.593
13597W        W85857  34.403  29.814   4.171
13598W        W85858  21.241   8.233   2.398
13599W        W85859  26.828  31.932   2.831
13600W        W85860  40.138  22.765   2.683
13601W        W85861  39.820  25.682  10.641
13602W        W85862  42.724  36.098   1.363
13603W        W85863  30.584   5.660   2.844
13604W        W85864  34.599   9.720   0.991
13605W        W85865  17.598  43.991   2.786
13606W        W85866  16.599  29.319  12.012
13607W        W85867  13.354   2.355  11.095
13608W        W85868   6.411   3.355  13.273
13609W        W85869  21.933   1.384   4.103
13610W        W85870  35.556  18.700   5.171
13611W        W85871  37.923  14.387  12.472
13612W        W85872  20.442   9.711   1.861
13613W        W85873  17.092  11.639  10.817
13614W        W85874  12.318  16.186   5.076
13615W        W85875  29.089  17.148   2.862
13616W        W85876  16.120   8.468   3.738
13617W        W85877  37.995  37.537  14.982
13618W        W85878  44.338  13.835   0.261
13619W        W85879   9.429  29.005   0.316
13620W        W85880  30.184   8.086   3.269
13621W        W85881   1.429  27.238   3.714
13622W        W85882  43.364  18.808  13.014
13623W        W85883  14.127  16.285   3.613
13624W        W85884  14.929  34.467  12.971
13625W        W85885  10.305  44.809   0.043
13626W        W85886  15.832  19.729   3.185
13627W        W85887   3.491  10.460   4.986
13628W        W85888  12.206  41.246   2.215
13629W        W85889  32.869   2.034  11.109
13630W        W85890  23.129   5.215   3.973
13631W        W85891  12.352  25.688  12.484
13632W        W85892  23.107  30.897   4.213
13633W        W85893  11.780  24.118   3.033
13634W        W85894  40.482  19.404   0.705
13635W        W85895  29.496  41.586   4.500
13636W        W85896   1.863  10.748   4.735
13637W        W85897  27.606  43.565  13.019
13638W        W85898   2.744  27.460   1.200
13639W        W85899  24.559  36.613   3.695
13640W        W85900  21.066  30.236  13.474
13641W        W85901   4.220  42.583  11.200
13642W        W85902  19.138  17.192  13.453
13643W        W85903  16.555  33.910  12.730
13644W        W85904   0.765  22.600  10.268
13645W        W85905  43.000  27.774  14.794
13646W        W85906  34.451  36.803   2.575
13647W        W85907  35.093  22.033  12.125
13648W        W85908  27.342  15.062  13.315
13649W        W85909  17.162  19.520  13.367
13650W        W85910  42.234  16.395   0.719
13651W        W85911  38.956   5.007   4.603
13652W        W85912  30.101  29.841   9.723
13653W        W85913   2.677  13.708  12.421
13654W        W85914   3.493  22.076   0.759
13655W        W85915  30.127  27.925  11.943
13656W        W85916  35.808  40.666   2.794
13657W        W85917   2.915  20.640  10.746
13658W        W85918   1.260  30.124   3.025
13659W        W85919   0.278  15.755  11.519
13660W        W85920  13.691  40.987   3.933
13661W        W85921   2.808  15.797  12.270
13662W        W85922  10.326   6.635   4.843
13663W        W85923   5.943  30.368   0.762
13664W        W85924  44.260  12.409   2.406
13665W        W85925  31.675  15.310  11.005
13666W        W85926   5.601  18.655   0.787
13667W        W85927  33.225  12.643  12.227
13668W        W85928  35.886   7.447   1.699
13669W        W85929  13.559  37.803  12.674
13670W        W85930  10.843  18.468  11.123
13671W        W85931  28.194   9.318  11.319
13672W        W85932   4.962   3.258   3.572
13673W        W85933  38.292  26.436   1.763
13674W        W85934  18.370   9.383   2.319
13675W        W85935  31.366  29.580  11.874
13676W        W85936  25.044  43.103  12.494
13677W        W85937  37.064  33.836   2.869
13678W        W85938  21.380  26.976   3.280
13679W        W85939  18.751  29.416  12.514
13680W        W85940   4.251  15.021  13.842
13681W        W85941  20.793  42.964  14.304
13682W        W85942   5.665  15.877  14.992
13683W        W85943   6.942  35.523  14.955
13684W        W85944  19.225  38.120  14.801
13685W        W85945  43.270   0.066  14.582
13686W        W85946  35.953  41.897  12.428
13687W        W85947  19.821  40.763   0.769
13688W        W85948  18.578  33.516   3.656
13689W        W85949  19.735  40.984  12.024
13690W        W85950  13.400  41.340   0.925
13691W        W85951  16.415  27.961  10.093
13692W        W85952  27.947  39.920   4.214
13693W        W85953   4.661   5.809   2.373
13694W        W85954  38.357  14.502   3.852
13695W        W85955   7.862  25.405   3.565
13696W        W85956  34.527  32.601   3.592
13697W        W85957  30.457  43.361  11.446
13698W        W85958   3.600  35.487  11.120
13699W        W85959   1.317   1.716  13.023
13700W        W85960   3.429  25.690   3.226
13701W        W85961   2.387  10.662   2.359
13702W        W85962  32.779  18.731   2.263
13703W        W85963  43.768  41.610   3.858
13704W        W85964  20.262  23.761  10.110
13705W        W85965   9.273  12.431   3.221
13706W        W85966  15.951  31.681   4.219
13707W        W85967   5.996  39.604  13.786
13708W        W85968  42.372  24.992  12.922
13709W        W85969   8.794  17.304   1.263
13710W        W85970  40.620  35.007   2.732
13711W        W85971  19.584  25.378   2.346
13712W        W85972  23.528  34.026  12.864
13713W        W85973   8.072  44.479   5.036
13714W        W85974  42.459  36.626   3.546
13715W        W85975  35.863  22.042  10.516
13716W        W85976  13.161  19.784   1.750
13717W        W85977  43.782   7.802  11.147
13718W        W85978  42.245  10.686   1.257
13719W        W85979  30.450  32.524  14.818
13720W        W85980  11.028   6.101   1.830
13721W        W85981  18.619  39.444  12.046
13722W        W85982  14.262  44.827   3.652
13723W        W85983  37.801  25.975  11.417
13724W        W85984  24.895   0.970   0.537
13725W        W85985  38.592  22.269   4.646
13726W        W85986  42.349   8.287  12.392
13727W        W85987  44.850  15.314   4.910
13728W        W85988  35.966  37.419   0.385
13729W        W85989  43.961  27.961   1.053
13730W        W85990  14.348  41.728   4.761
13731W        W85991   3.208  43.683   2.318
13732W        W85992  28.073  28.198   2.188
13733W        W85993  30.746  34.904  14.821
13734W        W85994   4.309   1.801   1.347
13735W        W85995   8.030   6.792   1.823
13736W        W85996  28.871  21.618   4.231
13737W        W85997  11.212   0.489  12.140
13738W        W85998  36.407  28.125   0.514
13739W        W85999   9.128  33.014   0.009
13740W        W86000  42.369   1.199   1.706
13741W        W86001  40.163  31.680  13.001
13742W        W86002  16.224   3.883  14.716
13743W        W86003  37.032  32.043  11.715
13744W        W86004  15.793  24.649   2.210
13745W        W86005  32.623  13.331  11.137
13746W        W86006   0.218   3.320   0.771
13747W        W86007  39.306  14.851  11.152
13748W        W86008  26.671   8.139   0.244
13749W        W86009  16.816  35.793  13.792
13750W        W86010  17.594  17.718   0.054
13751W        W86011  20.593   5.332   1.463
13752W        W86012  33.334  35.059   1.836
13753W        W86013  21.727  32.485  13.596
13754W        W86014   3.109  36.300   4.109
13755W        W86015  27.065  11.299   3.708
13756W        W86016  14.251  42.981  14.554
13757W        W86017  38.404  18.676   2.621
13758W        W86018   5.521  22.539  11.994
13759W        W86019  38.031  14.649   4.627
13760W        W86020  14.365   3.425   2.733
13761W        W86021  23.050  21.804   2.611
13762W        W86022   2.460  14.664  14.968
13763W        W86023   4.430  17.378   3.835
13764W        W86024  28.737   7.974  12.411
13765W        W86025  14.128  22.499  12.574
13766W        W86026  18.009  21.463   0.254
13767W        W86027  44.788  34.426  13.743
13768W        W86028   3.665  18.328   0.036
13769W        W86029  25.040  26.579   3.478
13770W        W86030  28.969  20.027   3.731
13771W        W86031  34.173  39.889   2.785
13772W        W86032  18.236  37.076  11.749
13773W        W86033   9.849   9.390   4.621
13774W        W86034  15.821  43.362   2.233
13775W        W86035  31.037  15.758  11.535
13776W        W86036  24.917  42.396   4.223
13777W        W86037  39.299  42.482  12.497
13778W        W86038  44.990  24.054   3.195
13779W        W86039   4.365  39.561  11.591
13780W        W86040  39.516  23.787  13.443
13781W        W86041   6.202  25.609   5.408
13782W        W86042  10.180   7.770   3.009
13783W        W86043  11.644  21.612   2.813
13784W        W86044  21.183  41.967   0.138
13785W        W86045  14.281   7.254  11.373
13786W        W86046  15.206  43.354   2.698
13787W        W86047  21.474  31.533   1.730
13788W        W86048  36.789  27.020  13.311
13789W        W86049  40.796  41.368   4.836
13790W        W86050  32.955   0.709   2.770
13791W        W86051  22.976  23.311  11.780
13792W        W86052   8.536  21.028  14.493
13793W        W86053  43.573  31.861  13.354
13794W        W86054  29.925  17.734  12.428
13795W        W86055  36.436  39.947   1.859
13796W        W86056  19.842  19.825   1.759
13797W        W86057  38.392  41.022  11.170
13798W        W86058   2.181  25.068   3.727
13799W        W86059  36.620  29.943   2.743
13800W        W86060  38.085  24.064   2.825
13801W        W86061  39.809  31.559   4.565
13802W        W86062  32.971  16.027  11.690
13803W        W86063  20.012  39.959   2.191
13804W        W86064  15.746  23.231   1.240
13805W        W86065  43.220   5.676  13.080
13806W        W86066  21.250   2.979   0.201
13807W        W86067   2.849   8.263  11.874
13808W        W86068  20.264   7.610  11.137
13809W        W86069   5.883  38.064  12.969
13810W        W86070  28.079  21.695   1.622
13811W        W86071  38.842  17.464   4.606
13812W        W86072  43.888  32.462  13.095
13813W        W86073   2.531  32.083  11.087
13814W        W86074  14.378  31.415   3.867
13815W        W86075  44.724  33.495   3.648
13816W        W86076  19.481  43.588   0.395
13817W        W86077  15.470  34.540  13.194
13818W        W86078   0.245  23.096  13.121
13819W        W86079  44.823  18.295  13.068
13820W        W86080  16.140  34.156  12.535
13821W        W86081   6.819  35.058   3.558
13822W        W86082  10.109   0.917  13.171
13823W        W86083  42.769  15.133  10.898
13824W        W86084  32.489  30.206  10.976
13825W        W86085  14.648   2.004   1.958
13826W        W86086  44.877  28.199   2.250
13827W        W86087  25.064   1.991  12.966
13828W        W86088  24.212  16.818   3.586
13829W        W86089   1.594  34.547  14.670
13830W        W86090  39.002  19.503  11.351
13831W        W86091  22.373   9.478  12.022
13832W        W86092  23.897  23.710  11.611
13833W        W86093  16.213   2.663   1.481
13834W        W86094  30.113   7.181   0.790
13835W        W86095  24.282   5.161   3.628
13836W        W86096  40.951  24.283  10.760
13837W        W86097  13.588  23.594   4.380
13838W        W86098   6.263  26.438   2.897
13839W        W86099   8.420  14.797  14.429
13840W        W86100  23.489  10.334  12.288
13841W        W86101   7.343  33.419   4.611
13842W        W86102  12.569  20.387  11.253
13843W        W86103  16.931  34.019  11.893
13844W        W86104  10.694  12.963   2.001
13845W        W86105  38.486  11.706  10.709
13846W        W86106  10.376  41.722  13.085
13847W        W86107   6.430  25.037  14.453
13848W        W86108  31.094  29.526  11.446
13849W        W86109  21.521  10.174   9.806
13850W        W86110  41.111  14.420  13.755
13851W        W86111   9.174  14.197  13.597
13852W        W86112  24.307  13.502   2.021
13853W        W86113  43.806  12.127   4.517
13854W        W86114  28.670  37.162  13.160
13855W        W86115  42.588  23.003  13.380
13856W        W86116  44.695  28.998  11.087
13857W        W86117  33.142  43.044  12.318
13858W        W86118  10.139   9.202   5.030
13859W        W86119  41.747  23.165   0.404
13860W        W86120   0.205  31.189   4.233
13861W        W86121  33.150  21.536  11.289
13862W        W86122  12.342  14.944   1.551
13863W        W86123  26.047  33.368  13.896
13864W        W86124  42.149  10.383  13.689
13865W        W86125  35.985  40.445  13.079
13866W        W86126  21.688  32.526   1.984
13867W        W86127  24.004  25.564  10.652
13868W        W86128   2.261   0.657   4.138
13869W        W86129  28.650   2.981  13.179
13870W        W86130  39.314  25.123   0.121
13871W        W86131   6.757  29.460  14.486
13872W        W86132  19.948  44.432   1.483
13873W        W86133  21.743  17.896   4.217
13874W        W86134  40.203  28.152  14.530
13875W        W86135   6.327  29.138  11.542
13876W        W86136  10.318  35.512  14.220
13877W        W86137  19.146  28.230  14.283
13878W        W86138  37.028  36.568   0.792
13879W        W86139  29.807   0.303  14.370
13880W        W86140   9.740  16.612  14.519
13881W        W86141   7.272  24.063  13.469
13882W        W86142  11.100  10.677   2.678
13883W        W86143  34.932   6.318   4.578
13884W        W86144  32.813  25.019  13.649
13885W        W86145  27.877  28.525   2.984
13886W        W86146  29.531  28.703  14.880
13887W        W86147   5.277  17.962  13.422
13888W        W86148  15.784   7.782  12.979
13889W        W86149   0.657   4.406   0.219
13890W        W86150  10.158  33.038   2.461
13891W        W86151  40.411   9.394   4.172
13892W        W86152  39.201  24.587   1.857
13893W        W86153  15.981  17.162   0.373
13894W        W86154  44.581  30.620   4.681
13895W        W86155   2.508  36.074   5.057
13896W        W86156  42.793  21.949  13.107
13897W        W86157  20.532  21.635  14.754
13898W        W86158  44.520  34.522  12.042
13899W        W86159   3.366  28.647   2.641
13900W        W86160  29.112  31.498   0.423
13901W        W86161   6.857  11.181  12.251
13902W        W86162   8.831  20.754   2.245
13903W        W86163  15.077  30.408  12.551
13904W        W86164  39.980  26.974  14.872
13905W        W86165  30.867  26.708  13.032
13906W        W86166  43.127  14.879  13.557
13907W        W86167  14.948  13.347  11.755
13908W        W86168  17.098   2.736  12.185
13909W        W86169   1.157  18.956  11.964
13910W        W86170  13.877  40.330   2.212
13911W        W86171  11.652  20.926  13.524
13912W        W86172  16.940  17.559   2.718
13913W        W86173  36.525  36.897   1.979
13914W        W86174   4.280  16.827   3.787
13915W        W86175  14.259  31.449   4.391
13916W        W86176  31.056  12.272  12.109
13917W        W86177   8.929  41.766   1.851
13918W        W86178  33.316  12.851   3.250
13919W        W86179   6.445  10.419   1.877
13920W        W86180  11.229   0.712   2.242
13921W        W86181   2.358  12.826   4.064
13922W        W86182  26.037  18.843   0.841
13923W        W86183  24.306  13.832  10.893
13924W        W86184  10.291  19.180   2.297
13925W        W86185  10.156  42.485   4.112
13926W        W86186  35.404  39.495  13.299
13927W        W86187  38.247  23.191   2.823
13928W        W86188  24.654  28.200   2.826
13929W        W86189  33.496  31.340  11.858
13930W        W86190  14.799  40.790  14.797
13931W        W86191  10.128  12.383  14.862
13932W        W86192   4.467  16.184   1.473
13933W        W86193  16.335  13.570   0.763
13934W        W86194  41.360   6.790  13.574
13935W        W86195  11.247  42.547   1.034
13936W        W86196  17.512  34.968  11.534
13937W        W86197  28.605   5.509   0.696
13938W        W86198  13.191   6.431  13.408
13939W        W86199  43.426  39.601  14.444
13940W        W86200  42.054  34.206   0.573
13941W        W86201  32.395  19.126  14.467
13942W        W86202  29.941  11.425   2.018
13943W        W86203  42.808  23.742  14.798
13944W        W86204   8.831  20.868   1.738
13945W        W86205  11.713   1.780  10.557
13946W        W86206  23.224   6.424  14.791
13947W        W86207  37.866  40.452   0.084
13948W        W86208  35.146  16.093   3.260
13949W        W86209  12.797  23.939   4.522
13950W        W86210  13.671  15.056   3.145
13951W        W86211   4.209  30.019   0.242
13952W        W86212  37.886  11.624   4.580
13953W        W86213  42.783  18.582   3.164
13954W        W86214   2.527  22.282   1.023
13955W        W86215   0.421  28.635   2.843
13956W        W86216   6.820  28.956  11.597
13957W        W86217   0.862   4.687   3.281
13958W        W86218  20.122  33.463  10.682
13959W        W86219  14.327  27.918   3.639
13960W        W86220  19.649  19.210   1.355
13961W        W86221  41.791  44.498  12.530
13962W        W86222  41.927  12.810   1.882
13963W        W86223  34.025  41.096   4.210
13964W        W86224  26.413  21.637  12.939
13965W        W86225  25.747   8.725  11.455
13966W        W86226  16.618   8.172  12.037
13967W        W86227  31.548   7.772  12.425
13968W        W86228  37.970  40.401   2.337
13969W        W86229   5.723  15.977  13.600
13970W        W86230   7.951  35.817   1.793
13971W        W86231  21.273  33.389  14.484
13972W        W86232  28.850   6.805  14.731
13973W        W86233   4.122  28.914  13.095
13974W        W86234  32.158  23.860  11.023
13975W        W86235  12.659  34.144  13.113
13976W        W86236   2.667  29.772   1.682
13977W        W86237   1.580  31.579  13.489
13978W        W86238  26.481  20.532   0.466
13979W        W86239  40.152  11.380  13.874
13980W        W86240  30.992  36.820  12.877
13981W        W86241   3.243  21.116  11.124
13982W        W86242  20.733  20.179   2.927
13983W        W86243   5.246  41.231   4.655
13984W        W86244   9.685   4.324   4.575
13985W        W86245  12.887  18.052  10.669
13986W        W86246  26.164  16.639   2.645
13987W        W86247  43.857  38.142  10.746
13988W        W86248   1.735  42.740  11.073
13989W        W86249  10.193  16.128  13.600
13990W        W86250  24.327  35.753   3.798
13991W        W86251  10.006   3.907  11.505
13992W        W86252  15.335  22.569  14.863
13993W        W86253  37.138  11.350   2.251
13994W        W86254  36.389  29.545   3.525
13995W        W86255   7.104  35.102   1.286
13996W        W86256  17.313   9.755  12.274
13997W        W86257  42.899  36.140  14.866
13998W        W86258   8.444  11.159   3.879
13999W        W86259  27.201   7.957  11.980
14000W        W86260  29.143  36.989  10.743
14001W        W86261  16.400  14.540  12.674
14002W        W86262  27.776  40.997  13.965
14003W        W86263   8.233  21.998  13.809
14004W        W86264   6.348  33.682  14.284
14005W        W86265  32.510   9.580  12.507
14006W        W86266  12.862  27.357  13.388
14007W        W86267  28.695  31.164   3.153
14008W        W86268  33.473   0.586  11.646
14009W        W86269  37.577   0.800  10.986
14010W        W86270  27.186  15.351   2.326
14011W        W86271  31.451   9.891  14.863
14012W        W86272   7.356  24.131   4.120
14013W        W86273  27.388  35.562   2.837
14014W        W86274  27.864  12.433   2.767
14015W        W86275  40.179  15.736  14.750
14016W        W86276  10.843  20.080   0.224
14017W        W86277  41.195  24.128  11.178
14018W        W86278   7.487  26.786  11.426
14019W        W86279  38.114   6.261  11.671
14020W        W86280  10.084  20.594   4.714
14021W        W86281  40.804  43.727  14.516
14022W        W86282  15.106  40.449   4.536
14023W        W86283  41.825  37.853   0.463
14024W        W86284  18.552  10.373   5.016
14025W        W86285  40.445   1.643   0.765
14026W        W86286  13.843   4.031  14.588
14027W        W86287   6.978  17.896  14.974
14028W        W86288  17.354  39.922   2.874
14029W        W86289  26.159  13.251   4.559
14030W        W86290  22.631  28.755   1.478
14031W        W86291  21.552  19.599  14.059
14032W        W86292  21.193  14.663   0.429
14033W        W86293   1.978  32.528   2.832
14034W        W86294  21.988   9.585  11.169
14035W        W86295   5.769  10.148   0.962
14036W        W86296  43.369   1.967   2.231
14037W        W86297  25.749   2.554   2.609
14038W        W86298  26.695   9.747  12.976
14039W        W86299  27.695  13.089  14.320
14040W        W86300  27.606  24.811   4.037
14041W        W86301  12.572  11.441  11.084
14042W        W86302   4.308  13.784  14.878
14043W        W86303  10.275  10.850   3.613
14044W        W86304  43.223   0.954   3.609
14045W        W86305  36.412   2.351   0.264
14046W        W86306  40.356  39.373   2.302
14047W        W86307  18.743  30.925  13.629
14048W        W86308  28.069  30.121   4.614
14049W        W86309  44.935  36.955  14.725
14050W        W86310   2.805  36.658   1.898
14051W        W86311   1.778   7.153  12.059
14052W        W86312  25.986  13.778  13.176
14053W        W86313  40.388  26.902   2.105
14054W        W86314  10.187   3.726   3.944
14055W        W86315  37.582  19.049  10.576
14056W        W86316  41.024   2.372   3.239
14057W        W86317  40.067  36.793  12.522
14058W        W86318   2.452   5.840  11.955
14059W        W86319   2.812   8.228   4.070
14060W        W86320   2.756  39.433   4.413
14061W        W86321  13.857  26.094  11.526
14062W        W86322  39.864  15.572  13.368
14063W        W86323  34.637  38.565   0.913
14064W        W86324  44.516  18.648  11.226
14065W        W86325  42.948   4.102   3.674
14066W        W86326  24.527   5.237  14.834
14067W        W86327  15.293  13.287  14.241
14068W        W86328  38.520  37.031   0.703
14069W        W86329  24.533  26.488  13.424
14070W        W86330  25.365  26.359   2.792
14071W        W86331  41.612  43.755  11.239
14072W        W86332   7.799   3.725  12.215
14073W        W86333  38.489  30.945   1.279
14074W        W86334  25.155   0.020   2.787
14075W        W86335  31.444  27.950   0.839
14076W        W86336  20.796  23.132  11.683
14077W        W86337  42.085  25.064   0.836
14078W        W86338  29.962  37.097  13.545
14079W        W86339  38.522  17.381  11.122
14080W        W86340  16.431  30.766   4.073
14081W        W86341  27.262  22.490  13.931
14082W        W86342  38.522   8.902  11.034
14083W        W86343  29.647  35.092   4.907
14084W        W86344   9.010   5.749   3.156
14085W        W86345  12.835  12.834   2.225
14086W        W86346   2.800   6.011   0.617
14087W        W86347  13.323   0.981   4.016
14088W        W86348   6.428  39.498   4.861
14089W        W86349   0.808  33.408  11.190
14090W        W86350  38.110  12.426  14.727
14091W        W86351  33.976  15.267  13.849
14092W        W86352  41.302  34.574   0.941
14093W        W86353  34.792  21.810  12.849
14094W        W86354  15.379  17.557  13.406
14095W        W86355  42.975  39.316  14.320
14096W        W86356  15.559  36.390   4.062
14097W        W86357   4.362   0.098  10.506
14098W        W86358  31.488  16.517  14.223
14099W        W86359  19.671  21.941   4.794
14100W        W86360  20.233   0.029   1.332
14101W        W86361  10.603  12.736  13.841
14102W        W86362   9.850  24.616  13.997
14103W        W86363  22.222  34.317   4.249
14104W        W86364  33.390  39.924   2.345
14105W        W86365   1.437  23.686  11.384
14106W        W86366  20.549  44.578  12.619
14107W        W86367   9.159   3.987  14.358
14108W        W86368   1.366   9.119   2.151
14109W        W86369   8.334  16.384  12.030
14110W        W86370   8.684  36.388   4.908
14111W        W86371   7.076   2.326   2.902
14112W        W86372  26.656  29.193  10.641
14113W        W86373  37.506  44.939  10.608
14114W        W86374  25.787  19.391   2.923
14115W        W86375  37.010  39.430  14.313
14116W        W86376  15.305  23.086   0.981
14117W        W86377  21.712  32.402   1.489
14118W        W86378  13.873  23.387  13.940
14119W        W86379  32.437   9.227  11.669
14120W        W86380   7.210  27.885   1.937
14121W        W86381  10.993  38.574  12.082
14122W        W86382  37.531  43.891  14.805
14123W        W86383  14.365   8.481  14.918
14124W        W86384  21.529   1.069   2.788
14125W        W86385  44.221   1.490  13.376
14126W        W86386  22.601  34.428  14.947
14127W        W86387  32.103   7.379   3.783
14128W        W86388  23.732  17.399  13.885
14129W        W86389  15.690  11.625  12.538
14130W        W86390   0.149  25.150   1.793
14131W        W86391  38.361  25.794  14.895
14132W        W86392   5.423  32.561   0.090
14133W        W86393  34.503  31.019  13.881
14134W        W86394  29.775  29.127  10.615
14135W        W86395  14.410  19.672  12.487
14136W        W86396  39.395  22.299   4.148
14137W        W86397  32.682  37.998   2.180
14138W        W86398   4.456  26.991   5.351
14139W        W86399  25.132  13.108  12.441
14140W        W86400  37.579  42.521   2.837
14141W        W86401  20.967  20.075  14.354
14142W        W86402  43.532  31.965   4.213
14143W        W86403  27.097  23.204  14.458
14144W        W86404   1.983  19.049  11.834
14145W        W86405  17.628  34.167   2.244
14146W        W86406   9.626  40.315  12.464
14147W        W86407  42.048   4.891  11.590
14148W        W86408  27.452  23.317  13.403
14149W        W86409  21.161   6.255  14.974
14150W        W86410  15.141  42.730  14.956
14151W        W86411  19.144  18.267   0.921
14152W        W86412  25.489   8.381  10.662
14153W        W86413   7.475  25.645  13.398
14154W        W86414  18.372  14.334   3.645
14155W        W86415  14.195  33.412  13.437
14156W        W86416  24.740  21.480  12.454
14157W        W86417  38.936  34.288  12.445
14158W        W86418  31.942   4.104   2.037
14159W        W86419  24.870  35.360   0.601
14160W        W86420  40.996  31.416  11.922
14161W        W86421  24.057  18.056  11.523
14162W        W86422   6.235   8.197  10.403
14163W        W86423  26.204  42.297  11.452
14164W        W86424  29.751  35.528   0.431
14165W        W86425  18.586  31.935  13.420
14166W        W86426  11.131   3.162   1.457
14167W        W86427  42.023  11.939  11.857
14168W        W86428  29.467  11.211   0.330
14169W        W86429   3.719  20.654  11.571
14170W        W86430  39.939  42.546  11.552
14171W        W86431   5.747  27.963   3.333
14172W        W86432  22.098   0.170   1.253
14173W        W86433  18.351   8.303   2.810
14174W        W86434  31.187  34.686   4.045
14175W        W86435  22.314   3.375  14.332
14176W        W86436  34.876  37.365   3.046
14177W        W86437  13.616  34.126   0.946
14178W        W86438  16.318   5.845  11.925
14179W        W86439  11.411  26.674   0.480
14180W        W86440  42.228   4.260  13.550
14181W        W86441  22.026  28.482  10.135
14182W        W86442  30.109  22.609   3.037
14183W        W86443  26.546  30.174   1.864
14184W        W86444   5.707  28.688  12.120
14185W        W86445  20.268   8.244  13.890
14186W        W86446  42.949  38.588  14.956
14187W        W86447  31.083  21.957   2.637
14188W        W86448  44.472  22.506   4.094
14189W        W86449  12.266   3.739  10.699
14190W        W86450  25.097   6.755   2.619
14191W        W86451  24.039  18.270  12.582
14192W        W86452  38.534  15.051  12.639
14193W        W86453  38.637  26.647   4.120
14194W        W86454  21.812   7.868   1.921
14195W        W86455  23.569   4.459   0.985
14196W        W86456  31.474  20.483   3.236
14197W        W86457  38.480  42.543   3.359
14198W        W86458  34.998  16.487  12.031
14199W        W86459  30.719   1.779  14.281
14200W        W86460  37.492  41.475  11.466
14201W        W86461  11.671  30.614  13.331
14202W        W86462  40.913  32.923  14.329
14203W        W86463  33.538   0.317   3.573
14204W        W86464  36.643  20.822   2.583
14205W        W86465  33.798  25.680   0.590
14206W        W86466  30.679  34.773   2.413
14207W        W86467  33.217  22.998   4.577
14208W        W86468   4.064  36.865  13.812
14209W        W86469  32.616   6.979  14.408
14210W        W86470  15.217  28.030   2.809
14211W        W86471  13.338  28.126  13.234
14212W        W86472  30.538   3.578  14.820
14213W        W86473  30.273  11.246  13.463
14214W        W86474  31.972  39.039  10.547
14215W        W86475  29.636   2.415   3.737
14216W        W86476   2.537  23.946  10.839
14217W        W86477  19.075   5.128   3.877
14218W        W86478   5.120  22.948   3.745
14219W        W86479  33.949   6.732  10.730
14220W        W86480  11.574   4.030  13.470
14221W        W86481  17.018  25.119   0.831
14222W        W86482  29.717  26.461  14.951
14223W        W86483   4.177  29.385   1.362
14224W        W86484  14.886  17.688  13.496
14225W        W86485  37.917   4.338  11.443
14226W        W86486   7.860   0.300   0.870
14227W        W86487   5.839  29.056  11.695
14228W        W86488  23.878   9.471  10.526
14229W        W86489   9.314  43.745   1.961
14230W        W86490   4.825  24.262  12.130
14231W        W86491  26.490  35.081   2.797
14232W        W86492  33.828  22.843   3.167
14233W        W86493  37.892  18.592  12.556
14234W        W86494  17.182  22.269   2.067
14235W        W86495  40.482  15.121   3.346
14236W        W86496  44.003  36.134   0.800
14237W        W86497   3.901  40.025  13.108
14238W        W86498  43.415  41.736   1.742
14239W        W86499  34.788  22.267   3.312
14240W        W86500   6.216  22.051  14.337
14241W        W86501  18.501  41.634  13.605
14242W        W86502   3.959  12.584   2.686
14243W        W86503   5.862  30.622   3.295
14244W        W86504  20.891  14.700   3.046
14245W        W86505  15.844  27.619   2.224
14246W        W86506  28.071  22.178  11.046
14247W        W86507  10.451  28.218   4.183
14248W        W86508   9.032  32.442  13.875
14249W        W86509  10.514   4.964  12.816
14250W        W86510  17.825  32.170  11.879
14251W        W86511   6.332  34.201  14.192
14252W        W86512   7.737  20.093   3.111
14253W        W86513  43.251  34.143   0.944
14254W        W86514  43.078  24.167  13.027
14255W        W86515  27.391  36.225   4.459
14256W        W86516  31.674  27.255   2.771
14257W        W86517  32.966  19.645   1.552
14258W        W86518  18.761  44.738   3.165
14259W        W86519  22.636   8.509   4.671
14260W        W86520  17.196  36.878  14.543
14261W        W86521  40.569  21.647  14.721
14262W        W86522  17.208  40.360  11.027
14263W        W86523  36.430  22.758  12.506
14264W        W86524   1.824   1.720   2.804
14265W        W86525  44.464  37.420   2.711
14266W        W86526   5.434  21.583   4.394
14267W        W86527  15.765  37.539  14.969
14268W        W86528  30.618  42.112  14.397
14269W        W86529   5.882  14.447   2.639
14270W        W86530  10.640  36.009  10.837
14271W        W86531  43.649   1.791  13.330
14272W        W86532   1.989   3.198  14.880
14273W        W86533   8.730  44.435   0.835
14274W        W86534  43.124  19.718   2.356
14275W        W86535  43.517  37.965  11.146
14276W        W86536   9.650  18.739  13.774
14277W        W86537  25.186  34.966  11.721
14278W        W86538  33.494  17.476   0.335
14279W        W86539  43.292  14.116  13.992
14280W        W86540  33.107  10.682  13.703
14281W        W86541  13.965  25.467   4.928
14282W        W86542  29.151  17.328  12.281
14283W        W86543  10.683  28.453  10.470
14284W        W86544   0.921  43.064   0.765
14285W        W86545  42.920  13.841  12.558
14286W        W86546  32.465  41.962   3.131
14287W        W86547  29.501  22.885   0.735
14288W        W86548  25.728   5.833   4.617
14289W        W86549  11.183  11.345  14.627
14290W        W86550  22.087  43.193   1.392
14291W        W86551  24.204  26.423  11.933
14292W        W86552  43.956   4.119  13.505
14293W        W86553  34.570  26.111  13.363
14294W        W86554  42.997  43.761  13.766
14295W        W86555  34.457  40.568   4.913
14296W        W86556   9.675  39.507   3.671
14297W        W86557  40.334  31.075   2.284
14298W        W86558  21.280  38.449   0.448
14299W        W86559  32.646  36.340   1.948
14300W        W86560  28.991  43.270  12.724
14301W        W86561   1.387  32.989  10.699
14302W        W86562  27.995  18.655  11.481
14303W        W86563  32.427  36.078  12.514
14304W        W86564   3.025   7.214  11.558
14305W        W86565  25.464  36.851   4.549
14306W        W86566  22.738  44.789   2.242
14307W        W86567  27.215  24.626   3.276
14308W        W86568  19.494   8.901  11.992
14309W        W86569  10.867   7.187   1.727
14310W        W86570  39.746   3.816   0.821
14311W        W86571  13.842   3.636   1.453
14312W        W86572  43.377  37.375   3.658
14313W        W86573  34.532   4.160   3.653
14314W        W86574  32.757  14.917   3.853
14315W        W86575  39.920  15.770  12.468
14316W        W86576  17.194  22.427   3.498
14317W        W86577  16.345   6.822   1.230
14318W        W86578  36.705  13.693  12.383
14319W        W86579  13.285  16.555   0.685
14320W        W86580  29.500  32.749  13.085
14321W        W86581   0.010  34.755   4.112
14322W        W86582  15.296  20.013  14.603
14323W        W86583   9.751  11.745  11.572
14324W        W86584  37.910  42.013   1.941
14325W        W86585  14.969  23.246  11.150
14326W        W86586  41.541  43.433   3.277
14327W        W86587  17.654  42.973   1.168
14328W        W86588  39.382   0.682  14.789
14329W        W86589  14.268  17.282   1.155
14330W        W86590   3.001  23.187   0.850
14331W        W86591   9.415  13.185   3.738
14332W        W86592  44.319   0.520  14.298
14333W        W86593  26.439  42.299  14.217
14334W        W86594   5.307  17.827   4.080
14335W        W86595  37.975  29.392   4.479
14336W        W86596  33.387   4.282   4.036
14337W        W86597  33.407  43.400  13.350
14338W        W86598  39.876  36.361   4.331
14339W        W86599  31.809  19.428   1.734
14340W        W86600  40.829  29.922  13.870
14341W        W86601  30.627  29.563  14.210
14342W        W86602  17.526  20.731  13.455
14343W        W86603   5.232   0.385   0.915
14344W        W86604   3.913  43.610  13.926
14345W        W86605  23.157  28.607  12.883
14346W        W86606  28.418  10.409  11.055
14347W        W86607   4.393  23.649   0.871
14348W        W86608  16.974  34.872   4.212
14349W        W86609  41.859   0.366  14.913
14350W        W86610  40.890  27.950   1.195
14351W        W86611  39.943   3.243   0.034
14352W        W86612  28.325   0.203  14.453
14353W        W86613  15.237  28.719   1.722
14354W        W86614  15.369  28.089   4.178
14355W        W86615  34.800  24.961   2.627
14356W        W86616  14.288  34.763   4.047
14357W        W86617   2.908   8.977   0.206
14358W        W86618  25.410  42.039  12.528
14359W        W86619  20.536  33.600   1.284
14360W        W86620  29.442  20.217   4.853
14361W        W86621  11.744   2.115   1.458
14362W        W86622  16.609  13.133   2.809
14363W        W86623  33.960   1.288   1.663
14364W        W86624  27.462  13.544   1.403
14365W        W86625  24.001  33.411   0.253
14366W        W86626  42.756  29.672  12.873
14367W        W86627  11.574  43.992  14.757
14368W        W86628   4.041   5.329  12.524
14369W        W86629  11.034  18.238  11.601
14370W        W86630   3.813   3.038   0.348
14371W        W86631  12.375  15.694  11.503
14372W        W86632  41.524  22.244   4.459
14373W        W86633  10.604  32.136  14.388
14374W        W86634  19.024   0.869   4.247
14375W        W86635  30.487   4.802   4.972
14376W        W86636   7.082   8.848   3.269
14377W        W86637  36.061   0.298   1.439
14378W        W86638  16.746  14.068   1.702
14379W        W86639  31.915  20.667  14.312
14380W        W86640  27.384  16.465  12.918
14381W        W86641  41.375   0.506   0.870
14382W        W86642  19.722  43.406   2.615
14383W        W86643  21.032  36.053  14.010
14384W        W86644   1.750  27.110   1.861
14385W        W86645   6.303  20.147   3.743
14386W        W86646   9.443  26.832  12.720
14387W        W86647  12.118  28.403  10.589
14388W        W86648   4.760  24.448  11.615
14389W        W86649  39.901   1.029   1.251
14390W        W86650  29.596  29.408  12.444
14391W        W86651   3.310  22.291   3.229
14392W        W86652   0.775  17.299  13.403
14393W        W86653  10.412   8.796   2.193
14394W        W86654  13.785  14.881  12.571
14395W        W86655  22.717  30.995  13.038
14396W        W86656   0.864  11.973  14.809
14397W        W86657  25.531  42.064   2.686
14398W        W86658  21.994  26.674  10.139
14399W        W86659  16.839  30.386  12.029
14400W        W86660  27.756  40.967   5.087
14401W        W86661  16.806  29.847  13.778
14402W        W86662   9.416  22.297  11.102
14403W        W86663   5.437  43.380  12.809
14404W        W86664  26.001  31.462   2.434
14405W        W86665  26.392  11.973  12.356
14406W        W86666  30.850   0.777   0.369
14407W        W86667  40.978  39.466   3.785
14408W        W86668   0.558  14.622   4.420
14409W        W86669  35.113  40.585   0.457
14410W        W86670  38.856  32.845  13.856
14411W        W86671  44.916  21.166  10.242
14412W        W86672  18.160  26.748   2.174
14413W        W86673  44.033  27.524   4.533
14414W        W86674  38.540  28.095   4.222
14415W        W86675  40.462  28.774   0.854
14416W        W86676  29.433   6.309   1.355
14417W        W86677  38.383  18.868  11.907
14418W        W86678  38.089  32.474   2.898
14419W        W86679  37.962   1.933  13.801
14420W        W86680  42.712  32.071  11.042
14421W        W86681  13.261  37.997   2.152
14422W        W86682   3.282  26.661  13.017
14423W        W86683  38.422   7.977   0.877
14424W        W86684   7.177  15.550  10.683
14425W        W86685  15.235  16.664   5.298
14426W        W86686   6.864  37.262  10.688
14427W        W86687  12.110  13.225  13.482
14428W        W86688   6.314  22.750   0.771
14429W        W86689  44.789  32.782   2.613
14430W        W86690  35.108   3.924  13.418
14431W        W86691   7.487   6.353   1.365
14432W        W86692  18.588  24.052  14.736
14433W        W86693  31.638   6.113  13.329
14434W        W86694  31.959  21.058  11.761
14435W        W86695  14.335  31.658   0.019
14436W        W86696  20.017  35.389   3.449
14437W        W86697  17.166  24.274   3.127
14438W        W86698  40.293  22.532  13.262
14439W        W86699  44.385  17.814   2.303
14440W        W86700  23.417  19.267  11.189
14441W        W86701  30.017  18.796  11.235
14442W        W86702  18.155  23.623   3.913
14443W        W86703  41.577  21.601   1.419
14444W        W86704  18.646   6.684  14.328
14445W        W86705   4.500  42.849   0.742
14446W        W86706   6.051  32.841  11.645
14447W        W86707  29.419  36.969  13.884
14448W        W86708  14.053   0.198   4.598
14449W        W86709  11.667   9.874   2.191
14450W        W86710  41.233  15.633  12.921
14451W        W86711  39.407  29.992   0.360
14452W        W86712  14.757  29.648   9.842
14453W        W86713  16.181  11.669   1.154
14454W        W86714  27.203  26.249  14.025
14455W        W86715   3.813  28.729   4.647
14456W        W86716  11.764  40.629  13.794
14457W        W86717  25.586   0.490  10.692
14458W        W86718  36.816  17.841  14.958
14459W        W86719  38.841  40.036  12.466
14460W        W86720   4.049  29.206  10.328
14461W        W86721  18.023  24.408  12.092
14462W        W86722  39.377  30.497   3.213
14463W        W86723  26.993  22.908   2.348
14464W        W86724  14.013   7.220  10.506
14465W        W86725  29.474  17.557  12.606
14466W        W86726  14.449  38.199  11.872
14467W        W86727  35.932  17.201   3.874
14468W        W86728  30.776  16.312   0.327
14469W        W86729   3.880  15.619   1.418
14470W        W86730  31.032  40.925  14.023
14471W        W86731  11.343  32.571   1.833
14472W        W86732  34.269  34.914   0.103
14473W        W86733   2.316   7.141  14.002
14474W        W86734  43.527  39.125   0.523
14475W        W86735  36.067  34.096   1.259
14476W        W86736  41.935   9.101   3.291
14477W        W86737  31.805  33.956   3.265
14478W        W86738  30.787  30.459  10.058
14479W        W86739  11.235  42.983  12.943
14480W        W86740  38.531  19.396  12.786
14481W        W86741  11.575  34.065  12.859
14482W        W86742  20.265  41.989   0.275
14483W        W86743  43.802  19.745  12.258
14484W        W86744  27.591  43.862   4.672
14485W        W86745   6.519  25.286  10.906
14486W        W86746  37.009  23.108   2.444
14487W        W86747   6.243  27.175  11.257
14488W        W86748  12.014  36.759   3.485
14489W        W86749  26.675   3.157   0.420
14490W        W86750  24.912  35.469   2.307
14491W        W86751  17.329  41.840  14.931
14492W        W86752  32.449  14.774  13.385
14493W        W86753  15.378   3.003   3.862
14494W        W86754  21.109  15.083  13.822
14495W        W86755  27.927  17.268  12.643
14496W        W86756  39.897  24.666  13.490
14497W        W86757  21.155  21.590   9.864
14498W        W86758   0.799  15.200  14.919
14499W        W86759  39.520  11.889  11.543
14500W        W86760  41.491  10.788  10.455
14501W        W86761  35.901  34.414  12.761
14502W        W86762  37.295  10.214   0.377
14503W        W86763  44.040   2.041   0.260
14504W        W86764  26.984  42.241   1.500
14505W        W86765  37.058  28.665   2.591
14506W        W86766  21.624  32.374  12.435
14507W        W86767  43.389  10.647   3.774
14508W        W86768  32.590  43.869   3.667
14509W        W86769  36.951  20.456   5.758
14510W        W86770   1.977  25.163   3.242
14511W        W86771  23.666  16.383   4.111
14512W        W86772  44.949  10.899  12.892
14513W        W86773  11.096  34.555  14.277
14514W        W86774  40.888  36.016  14.991
14515W        W86775  39.263  43.980   9.979
14516W        W86776  39.446  43.094   4.675
14517W        W86777  41.160   8.374   4.813
14518W        W86778   0.967  26.129   2.214
14519W        W86779  25.481  33.167  14.913
14520W        W86780  13.113   2.496  10.652
14521W        W86781  21.431  35.974  10.662
14522W        W86782  19.956  30.475  10.513
14523W        W86783  31.624  34.353  11.561
14524W        W86784  34.006  36.635  12.348
14525W        W86785  26.970   6.485  12.387
14526W        W86786  34.518  23.671  12.529
14527W        W86787  37.068  19.093  14.468
14528W        W86788  35.037  40.844  11.431
14529W        W86789  14.345  20.032   3.749
14530W        W86790  29.535  26.529   0.860
14531W        W86791  28.482  36.135  12.496
14532W        W86792  44.333  13.127   3.268
14533W        W86793  37.567  30.893  14.729
14534W        W86794  24.503   6.147   0.198
14535W        W86795   7.631  35.871  12.871
14536W        W86796   5.176  37.957   2.384
14537W        W86797  30.558  14.786   2.676
14538W        W86798  37.114  10.189  11.051
14539W        W86799   0.413  35.426   4.587
14540W        W86800  14.887  13.270  14.899
14541W        W86801   5.161  34.274  12.551
14542W        W86802  32.123   7.285  11.239
14543W        W86803  28.717  32.002  11.553
14544W        W86804  41.871  41.468   0.059
14545W        W86805  19.243   1.458  14.469
14546W        W86806  42.215   1.654   0.620
14547W        W86807  22.796   3.699   2.764
14548W        W86808   5.929  11.297   0.716
14549W        W86809  33.870  30.392   0.498
14550W        W86810  40.790   8.877  12.031
14551W        W86811   1.763   8.811   2.234
14552W        W86812  24.566  37.803   3.160
14553W        W86813  13.520  20.655   4.332
14554W        W86814  24.887   8.822   3.650
14555W        W86815  23.244  21.524  11.618
14556W        W86816   3.887   8.241   2.257
14557W        W86817  44.975  37.157   1.103
14558W        W86818  10.678  36.485   1.845
14559W        W86819   3.183  11.859  11.803
14560W        W86820   7.226   0.248   1.503
14561W        W86821  36.841   3.623  10.579
14562W        W86822  43.653  37.852  13.374
14563W        W86823   2.106   1.842   5.071
14564W        W86824  42.761  39.501  11.204
14565W        W86825  33.000  16.136   1.519
14566W        W86826  26.636  44.497   2.349
14567W        W86827  37.138  18.645   0.273
14568W        W86828  44.085  44.641   0.368
14569W        W86829   3.850  33.529  14.276
14570W        W86830   7.910  19.139   4.158
14571W        W86831  39.322  32.458   3.185
14572W        W86832  43.344  14.528  11.068
14573W        W86833  32.974   4.200   3.734
14574W        W86834   3.727  17.723  11.142
14575W        W86835  14.999  26.234  12.516
14576W        W86836  37.940  31.537   0.254
14577W        W86837  19.500  27.176  10.898
14578W        W86838   2.631   7.540   5.064
14579W        W86839   9.700   0.839  12.156
14580W        W86840  13.854  37.548   4.569
14581W        W86841  35.818  25.661   2.662
14582W        W86842  31.027   6.622  12.931
14583W        W86843  15.611  42.549   0.922
14584W        W86844  16.174   0.798   4.554
14585W        W86845   9.841  20.134   2.354
14586W        W86846   8.321  10.837   0.398
14587W        W86847  19.249   8.825   4.719
14588W        W86848  34.421  14.041  12.420
14589W        W86849   0.950  39.636   2.710
14590W        W86850  33.142  22.644  12.009
14591W        W86851  31.146  23.152   2.821
14592W        W86852  32.872   0.713   4.478
14593W        W86853  22.341  29.020   4.843
14594W        W86854   3.520  19.826  12.133
14595W        W86855   6.615  23.239  10.348
14596W        W86856  23.319  17.074   0.718
14597W        W86857  17.758  32.150   0.743
14598W        W86858  22.242  18.682   4.697
14599W        W86859   4.275  31.840   3.977
14600W        W86860   2.454   4.306   4.673
14601W        W86861  26.572  15.982   3.180
14602W        W86862  39.005  20.327   2.724
14603W        W86863  29.626  25.684  13.331
14604W        W86864  32.171   1.202   1.189
14605W        W86865  43.794  11.093  14.789
14606W        W86866   4.059   1.364  14.951
14607W        W86867  32.006  16.160  10.937
14608W        W86868   9.927   9.704  14.336
14609W        W86869  11.312   7.333   1.474
14610W        W86870  26.617  17.695  14.649
14611W        W86871   6.135   8.812   0.730
14612W        W86872   2.957  11.227  12.950
14613W        W86873  11.710   5.849   4.172
14614W        W86874   3.798  43.841   0.184
14615W        W86875  31.109  32.201   2.920
14616W        W86876   6.406  18.046  10.717
14617W        W86877   6.641  42.989   2.334
14618W        W86878  17.603  32.478   2.681
14619W        W86879  22.206  37.514   3.315
14620W        W86880  12.897  36.689  13.156
14621W        W86881   7.812   3.028   2.919
14622W        W86882  22.963   9.978   2.643
14623W        W86883   8.221  11.667  13.592
14624W        W86884  17.648  43.428   0.052
14625W        W86885  43.249  20.053  13.883
14626W        W86886  34.760  22.263  14.765
14627W        W86887  14.907  20.098  13.015
14628W        W86888  16.001  27.529   4.407
14629W        W86889   1.434   1.792   0.750
14630W        W86890   8.531  19.590   1.454
14631W        W86891   6.285  11.248  14.727
14632W        W86892  22.225  27.092   4.188
14633W        W86893  34.253  10.693   2.422
14634W        W86894  20.655  23.862   2.413
14635W        W86895  31.678  21.208  13.266
14636W        W86896  21.960  37.619   3.809
14637W        W86897  40.806  27.009   1.325
14638W        W86898  25.646  38.339   2.404
14639W        W86899  40.959   4.052   1.131
14640W        W86900  30.628  24.084   3.943
14641W        W86901  16.695   9.937   1.239
14642W        W86902  37.952  40.775   3.255
14643W        W86903   5.656  26.015  14.007
14644W        W86904  33.046  42.299   2.841
14645W        W86905  20.749  44.968   3.756
14646W        W86906  19.447  31.809   2.876
14647W        W86907   7.984   8.381   0.404
14648W        W86908  27.051  32.677   0.884
14649W        W86909  27.652  29.579  14.049
14650W        W86910   2.939   1.184  11.163
14651W        W86911  11.085  29.111   2.313
14652W        W86912   4.405  39.919   3.071
14653W        W86913  24.204  31.250   1.094
14654W        W86914   5.464   3.639  10.682
14655W        W86915   4.432  27.719   0.280
14656W        W86916   5.386  23.216   2.173
14657W        W86917  26.721  22.143  11.088
14658W        W86918   2.662   1.017   4.119
14659W        W86919  16.309  30.163  12.526
14660W        W86920   5.415  32.828  14.448
14661W        W86921  20.250  25.451  10.393
14662W        W86922  24.738  43.967  13.264
14663W        W86923  38.908  32.275   4.895
14664W        W86924  33.477  32.278   3.216
14665W        W86925  32.907  41.775   2.853
14666W        W86926  11.227  30.223   4.743
14667W        W86927   7.928   3.756   2.345
14668W        W86928   5.800   9.752  14.666
14669W        W86929   4.419  12.252   4.583
14670W        W86930  29.599  10.151   0.365
14671W        W86931  39.972  36.876  10.484
14672W        W86932  18.947  13.074   3.621
14673W        W86933  36.486  26.580  14.794
14674W        W86934  17.147   0.331   2.446
14675W        W86935  22.762  29.644  10.393
14676W        W86936  41.018  41.112   0.307
14677W        W86937  19.203   8.314   4.628
14678W        W86938   2.457  43.824  11.476
14679W        W86939  26.023   9.819   3.410
14680W        W86940  32.211  29.583   3.272
14681W        W86941  17.244   5.870   2.866
14682W        W86942  16.091  25.908   2.566
14683W        W86943  18.610  32.440   4.479
14684W        W86944  35.635  11.151   4.522
14685W        W86945  34.378   7.981   2.763
14686W        W86946   9.730  42.283   4.320
14687W        W86947  15.228  21.766   1.884
14688W        W86948  15.637  33.433  14.468
14689W        W86949  36.560  40.823  14.683
14690W        W86950   1.806  13.593  12.475
14691W        W86951  43.103  24.546   1.418
14692W        W86952  31.744  12.788  11.110
14693W        W86953  39.536  12.477  10.667
14694W        W86954  27.068   3.844  11.675
14695W        W86955  39.537   8.563   4.198
14696W        W86956  16.853   6.793  13.874
14697W        W86957  41.910  30.696  14.506
14698W        W86958  18.212  26.389  12.684
14699W        W86959  24.984  21.368   4.557
14700W        W86960   4.837  31.088   4.593
14701W        W86961  30.430   3.861  13.887
14702W        W86962   6.366  18.112   4.578
14703W        W86963  40.898   2.873   1.028
14704W        W86964  33.440   7.248   5.104
14705W        W86965   5.790  29.205   0.276
14706W        W86966  35.038  22.149   1.472
14707W        W86967  36.918  12.722   2.303
14708W        W86968  43.536  44.286  14.371
14709W        W86969   7.366   7.315   0.132
14710W        W86970  32.149   3.349  12.878
14711W        W86971  40.752  32.827   2.897
14712W        W86972  36.282  41.614  12.112
14713W        W86973   8.534   6.344  13.919
14714W        W86974  21.934  29.700   1.707
14715W        W86975   3.881  44.317  14.546
14716W        W86976  44.050  23.650   4.319
14717W        W86977  11.366  15.100  13.518
14718W        W86978  27.805   3.751   2.115
14719W        W86979  16.396  24.548   3.532
14720W        W86980  34.467  24.601   2.384
14721W        W86981  44.229  23.143   2.810
14722W        W86982  32.354  10.324   4.166
14723W        W86983  15.710  16.710   0.364
14724W        W86984  16.098   1.930  12.601
14725W        W86985  40.313  15.646   0.314
14726W        W86986  33.556  13.927   4.026
14727W        W86987  15.707  12.821   2.166
14728W        W86988  33.018  29.083  13.254
14729W        W86989  26.740  41.721  12.947
14730W        W86990  38.509  12.724   1.270
14731W        W86991  13.241   6.970   1.719
14732W        W86992  38.922  15.788  10.515
14733W        W86993  16.164  44.840  12.957
14734W        W86994  14.101  39.975   2.573
14735W        W86995  31.390  17.533  14.334
14736W        W86996  26.389  42.329  13.703
14737W        W86997  30.213   6.327   1.080
14738W        W86998  20.973  39.540  13.286
14739W        W86999   2.414   0.143   4.220
14740W        W87000   0.103  16.336  12.888
14741W        W87001   1.878  21.533   1.249
14742W        W87002  20.846  39.293  14.364
14743W        W87003   0.417  23.124   3.364
14744W        W87004  23.931  29.546  11.922
14745W        W87005  34.328  34.392   1.808
14746W        W87006  13.672  19.065   0.035
14747W        W87007   5.763  19.789   0.411
14748W        W87008  10.937  18.734  14.893
14749W        W87009  11.467  41.627   2.717
14750W        W87010  15.220  31.143  12.868
14751W        W87011  25.461  22.051  11.667
14752W        W87012   6.732  15.094  12.213
14753W        W87013  10.316   5.732   3.673
14754W        W87014  11.369  23.038   0.453
14755W        W87015   3.447  15.476   1.168
14756W        W87016  42.092   8.507  14.821
14757W        W87017  28.194  31.998  11.652
14758W        W87018   5.601  44.560   3.677
14759W        W87019   0.565  31.507   1.749
14760W        W87020  25.246  18.652   3.137
14761W        W87021  22.510  41.833  10.777
14762W        W87022  35.101  19.320   0.318
14763W        W87023  35.981   3.829   0.755
14764W        W87024  13.106   2.734   4.618
14765W        W87025  24.773  19.047   2.249
14766W        W87026   1.485  36.996   0.442
14767W        W87027  20.733  28.166   1.383
14768W        W87028  25.042  11.375   4.053
14769W        W87029  31.142  32.150   3.602
14770W        W87030  11.324  34.786  10.366
14771W        W87031  10.876   6.142   0.781
14772W        W87032  17.210  30.275  11.633
14773W        W87033   9.300  31.640   4.815
14774W        W87034   4.964  44.918   4.171
14775W        W87035  44.195  14.857  11.511
14776W        W87036  31.032  38.469  14.509
14777W        W87037   3.968  13.040  11.937
14778W        W87038  16.807  35.921   3.663
14779W        W87039  15.556  11.773  10.713
14780W        W87040   3.209  31.537  14.006
14781W        W87041  42.597  39.871   0.454
14782W        W87042  40.078  11.141  12.473
14783W        W87043  25.584   9.925  11.029
14784W        W87044   3.946  18.087  12.070
14785W        W87045   7.371  18.566  12.946
14786W        W87046  37.357  30.279   4.480
14787W        W87047  40.845  22.527  13.331
14788W        W87048  31.757   8.547  14.301
14789W        W87049  25.002   7.025   3.690
14790W        W87050  42.075  35.005   1.757
14791W        W87051  15.826  15.218   0.870
14792W        W87052  11.725   6.638   0.802
14793W        W87053   5.197  20.034  11.987
14794W        W87054  27.487  15.768   2.396
14795W        W87055  20.314  43.941   3.743
14796W        W87056  27.615  36.907   0.556
14797W        W87057  12.169  15.094   0.583
14798W        W87058   8.708  18.248   3.572
14799W        W87059  42.601  33.422   1.471
14800W        W87060  24.505  26.499   2.242
14801W        W87061  29.671   9.751   1.957
14802W        W87062  17.103   9.815  11.386
14803W        W87063   8.186  12.414   1.289
14804W        W87064  14.201   5.771   4.111
14805W        W87065  32.586   6.718   4.314
14806W        W87066  33.896  37.279   3.712
14807W        W87067  18.480  28.871   3.351
14808W        W87068   4.010  23.551  14.363
14809W        W87069  19.018  10.459   3.271
14810W        W87070  32.966   6.185   2.739
14811W        W87071  12.680  16.827   4.097
14812W        W87072  33.162   4.394  14.954
14813W        W87073  28.107  31.707  13.362
14814W        W87074  37.874  16.693   4.371
14815W        W87075  18.046  38.714   4.157
14816W        W87076  31.658  13.580   0.279
14817W        W87077  42.468  24.151  10.437
14818W        W87078  37.943  24.112   0.856
14819W        W87079  19.151   5.658   5.498
14820W        W87080   3.281   6.599  13.412
14821W        W87081  32.783  21.726  14.909
14822W        W87082  36.534   2.693  11.583
14823W        W87083  36.628  29.603   3.985
14824W        W87084  28.378  15.154   4.004
14825W        W87085  41.390  42.388  10.687
14826W        W87086  26.393   9.290   2.652
14827W        W87087  35.598  10.206   0.950
14828W        W87088  16.016   9.432   2.333
14829W        W87089  29.025  32.874   0.832
14830W        W87090  35.054   1.424   4.545
14831W        W87091  23.650   9.811  13.957
14832W        W87092  20.893  29.988  13.998
14833W        W87093  12.656  43.757   1.357
14834W        W87094  22.212  16.186   1.371
14835W        W87095  25.793  23.968  10.119
14836W        W87096  25.584  17.118  13.365
14837W        W87097   2.034  34.148  10.735
14838W        W87098  28.862  16.932   3.270
14839W        W87099  37.901   9.120  14.931
14840W        W87100  34.499  42.440  13.392
14841W        W87101  16.755   7.491   0.840
14842W        W87102  35.710  38.828  10.206
14843W        W87103  10.733  21.486  12.487
14844W        W87104   8.738  27.916  12.768
14845W        W87105  36.521  40.848   1.239
14846W        W87106  34.912  22.536   0.260
14847W        W87107   2.370  43.964   0.671
14848W        W87108  16.565  34.119  12.243
14849W        W87109  26.800  15.154   1.368
14850W        W87110   8.247  11.782   4.076
14851W        W87111  30.220  28.553  12.325
14852W        W87112  19.705  30.686   1.370
14853W        W87113  20.153  13.201  13.637
14854W        W87114  35.355  35.313   2.606
14855W        W87115  38.422  10.213  10.646
14856W        W87116   0.603  34.767  14.900
14857W        W87117  42.421  33.398  12.502
14858W        W87118  17.210  21.484  10.944
14859W        W87119  35.334  25.476  13.866
14860W        W87120  20.085  15.678  12.561
14861W        W87121  38.879  10.860  11.558
14862W        W87122  44.351  22.271  12.425
14863W        W87123   9.221  34.339  14.810
14864W        W87124  15.535  19.758  10.345
14865W        W87125  17.213   1.806   2.787
14866W        W87126  22.706  10.579  13.510
14867W        W87127  30.147  10.149   2.820
14868W        W87128  24.677   7.610   2.798
14869W        W87129  38.453  42.685  14.419
14870W        W87130  14.864  41.397  14.534
14871W        W87131  36.850  30.037   0.383
14872W        W87132  19.307  10.383  14.227
14873W        W87133   4.989  14.365   1.180
14874W        W87134  44.026  29.988  11.128
14875W        W87135  12.655  42.963  11.389
14876W        W87136   4.460  30.973   2.829
14877W        W87137  17.811  23.508  11.554
14878W        W87138  30.160  29.668  14.608
14879W        W87139  22.671   1.880  10.049
14880W        W87140   1.582  25.074   5.029
14881W        W87141  13.382  32.573   0.763
14882W        W87142  14.126  23.399   2.839
14883W        W87143  33.514  21.746   3.489
14884W        W87144  12.412  14.259  12.579
14885W        W87145  15.672   7.196  10.233
14886W        W87146  12.472  40.945  12.332
14887W        W87147   5.710  21.082  11.702
14888W        W87148  32.986  12.118   1.305
14889W        W87149  12.002  39.910  14.695
14890W        W87150  36.478  12.293  11.609
14891W        W87151  25.588  17.853   4.604
14892W        W87152  40.295  32.496   4.547
14893W        W87153  14.591  16.880  13.925
14894W        W87154  39.454  30.476   0.523
14895W        W87155  14.706  15.353  13.958
14896W        W87156  19.632  23.007   4.626
14897W        W87157  40.232  37.158  11.312
14898W        W87158  30.364  27.779  14.408
14899W        W87159  19.599  13.107  14.713
14900W        W87160  32.887  39.612   3.161
14901W        W87161   0.355   2.793   1.647
14902W        W87162   2.959   5.351  13.941
14903W        W87163   8.264  44.305  13.780
14904W        W87164  32.063  22.938   0.781
14905W        W87165   9.637  26.054  11.370
14906W        W87166  12.429  15.048  12.046
14907W        W87167  20.298  22.606   2.184
14908W        W87168   5.508  15.770   1.807
14909W        W87169   9.360  26.404   1.376
14910W        W87170  12.185  37.008  11.067
14911W        W87171  39.258   7.244   4.262
14912W        W87172  23.905  30.050  14.923
14913W        W87173  15.229  19.751  12.085
14914W        W87174  42.911   4.121   2.693
14915W        W87175  17.183  37.487  12.495
14916W        W87176  25.695  28.639  12.462
14917W        W87177  40.529  32.333   0.847
14918W        W87178  36.059  26.862  10.531
14919W        W87179  20.566  25.751   2.328
14920W        W87180  32.532  39.135   4.562
14921W        W87181   9.837   2.053  12.638
14922W        W87182  11.436  24.542   2.449
14923W        W87183   4.304  44.174  12.491
14924W        W87184  37.151  28.100   4.023
14925W        W87185   2.393  34.952   0.785
14926W        W87186  37.068  25.113  14.772
14927W        W87187  32.015  24.169  10.602
14928W        W87188  40.133   6.587   2.337
14929W        W87189  23.817  22.183  11.085
14930W        W87190  35.372  38.108  13.565
14931W        W87191  18.113   4.366  12.284
14932W        W87192  12.795  38.078   3.882
14933W        W87193  13.780  23.993   0.814
14934W        W87194   2.517   9.663  14.346
14935W        W87195  23.005  22.711  10.938
14936W        W87196  15.576   6.161  11.090
14937W        W87197  23.199  20.464   2.449
14938W        W87198  20.084  29.064  13.314
14939W        W87199   9.218  44.460   1.435
14940W        W87200  15.809  23.576  14.973
14941W        W87201   1.519  18.260  13.943
14942W        W87202  41.714   5.100   5.045
14943W        W87203  10.158  42.772  11.169
14944W        W87204  20.342  28.840   0.251
14945W        W87205  10.391  22.709   1.266
14946W        W87206  18.541   1.744   5.069
14947W        W87207  42.463  27.050   3.866
14948W        W87208  44.233  40.523   9.948
14949W        W87209  25.017  28.525  14.210
14950W        W87210  30.107  41.445   1.902
14951W        W87211  39.938   5.365  10.698
14952W        W87212   8.790  21.989  13.302
14953W        W87213  29.955   9.284  11.138
14954W        W87214  32.106  31.077  11.544
14955W        W87215  33.832  26.655  11.026
14956W        W87216  34.556  25.343  12.965
14957W        W87217   2.054   9.905  14.416
14958W        W87218  35.069  42.274   2.812
14959W        W87219  13.328  27.879   2.285
14960W        W87220  31.074  29.688   0.769
14961W        W87221  22.996  31.226   0.372
14962W        W87222  22.699  31.114   3.437
14963W        W87223  10.712  41.711   2.450
14964W        W87224  32.891  28.752  14.579
14965W        W87225   2.552  21.381  12.362
14966W        W87226  37.471  32.613  12.638
14967W        W87227  42.531  25.274  13.831
14968W        W87228  21.249  32.331   0.341
14969W        W87229  14.109  19.226   4.801
14970W        W87230  25.555  19.044   0.469
14971W        W87231   0.547  44.791   3.233
14972W        W87232  12.286  38.254  11.560
14973W        W87233  41.557  40.001  13.483
14974W        W87234  37.159  35.459  11.968
14975W        W87235  28.684  42.806  10.613
14976W        W87236  41.512  27.210  14.057
14977W        W87237  43.479  43.601  14.801
14978W        W87238  35.487   6.397  12.134
14979W        W87239  33.293  19.665  13.332
14980W        W87240   9.656  20.783  11.421
14981W        W87241  22.620  42.922  11.122
14982W        W87242  31.421  39.012   4.609
14983W        W87243  43.361  13.952   3.668
14984W        W87244  44.021  21.146   1.700
14985W        W87245   8.885   0.929   4.576
14986W        W87246  37.058  35.883   3.902
14987W        W87247   1.275  10.227  14.441
14988W        W87248  14.172  41.142   3.696
14989W        W87249  11.417  32.545  13.487
14990W        W87250  19.440   2.224  11.748
14991W        W87251  20.955  39.916   2.548
14992W        W87252  11.379  15.717   0.320
14993W        W87253  20.213   5.469  12.946
14994W        W87254  40.083   1.722  12.737
14995W        W87255   9.982  11.721   4.555
14996W        W87256  21.578  15.576  11.466
14997W        W87257  25.652  15.304   1.227
14998W        W87258  27.088  37.120   3.242
14999W        W87259  41.535  27.518  12.651
15000W        W87260  29.578   7.681  14.779
15001W        W87261  22.688   2.583  14.888
15002W        W87262  33.408   0.175  12.919
15003W        W87263  13.973  10.922   4.176
15004W        W87264  21.876  37.392   5.098
15005W        W87265  30.850  32.767  13.920
15006W        W87266  33.795  33.971   4.531
15007W        W87267  36.046  22.815  11.549
15008W        W87268  36.432   2.683   0.830
15009W        W87269  38.860  14.736  14.471
15010W        W87270  18.515  19.060   0.272
15011W        W87271   3.608  42.954  14.383
15012W        W87272  17.348  30.544  12.051
15013W        W87273  14.771  35.688  14.913
15014W        W87274  40.418  28.554   0.361
15015W        W87275  34.862   5.183  11.729
15016W        W87276  15.288  43.254   3.572
15017W        W87277  11.498  30.404   5.135
15018W        W87278  18.520  14.416   0.958
15019W        W87279  35.344  27.202   4.188
15020W        W87280  13.762  44.517  14.846
15021W        W87281   0.258  41.328   0.807
15022W        W87282  25.939  36.868   2.434
15023W        W87283   6.339  43.867  14.828
15024W        W87284  21.051   4.688  14.023
15025W        W87285  21.614  32.960  13.373
15026W        W87286   6.907  23.329  13.949
15027W        W87287  17.076   9.097  13.850
15028W        W87288  11.687  33.193  12.935
15029W        W87289  44.802  25.661  11.835
15030W        W87290  12.247   4.957   2.410
15031W        W87291  17.285  33.340  11.162
15032W        W87292  33.652  23.725   2.302
15033W        W87293   5.701  33.436  10.469
15034W        W87294  38.594   4.856  12.999
15035W        W87295   4.836  44.698   3.182
15036W        W87296   9.439   7.644  10.669
15037W        W87297   7.131  30.849   2.735
15038W        W87298  10.027  18.813   2.563
15039W        W87299  36.116  18.712  11.439
15040W        W87300  20.958  27.576   0.686
15041W        W87301  28.092  14.292   4.681
15042W        W87302  44.932   2.206   2.113
15043W        W87303  26.233  31.925   2.310
15044W        W87304   4.370   6.501  11.119
15045W        W87305  14.062  27.498   3.753
15046W        W87306  36.577   8.143   0.769
15047W        W87307  36.015  18.112  14.838
15048W        W87308   6.665  12.105  13.282
15049W        W87309   4.990   9.233  11.793
15050W        W87310  29.447  39.833   1.745
15051W        W87311  42.503  12.370  14.862
15052W        W87312   4.257  10.605  13.915
15053W        W87313   2.596  14.572  12.639
15054W        W87314  34.017  24.489   1.823
15055W        W87315  26.367  35.077  13.337
15056W        W87316  26.916  26.030  13.055
15057W        W87317  44.561  10.936   4.315
15058W        W87318  13.346  39.045  11.232
15059W        W87319  26.137  27.036  12.446
15060W        W87320  23.817   1.735  12.843
15061W        W87321  13.447  22.028   3.752
15062W        W87322  20.110  18.837   3.107
15063W        W87323  32.849  33.292   0.819
15064W        W87324  43.012   2.268  12.628
15065W        W87325  22.442  43.283   0.092
15066W        W87326  14.970  12.335  10.398
15067W        W87327  11.905  30.561   3.166
15068W        W87328  25.682  28.722  11.579
15069W        W87329   8.853  13.187   2.652
15070W        W87330   2.065  17.530  13.348
15071W        W87331  37.572  34.593   3.913
15072W        W87332   4.336   3.453   4.134
15073W        W87333  36.746  15.679   3.125
15074W        W87334  39.582  16.351  13.440
15075W        W87335  34.028   8.293   4.492
15076W        W87336  29.996  35.367  14.995
15077W        W87337   4.783  13.606  14.673
15078W        W87338  36.771  24.760  11.120
15079W        W87339  30.901  32.514   3.333
15080W        W87340  16.150   3.708  13.693
15081W        W87341  16.725  22.119  10.316
15082W        W87342  40.286  17.616  12.967
15083W        W87343  16.384  27.144  11.790
15084W        W87344  28.606   7.636   1.229
15085W        W87345  23.062  17.587  10.851
15086W        W87346  20.228  26.667   2.405
15087W        W87347   0.492  43.096  13.552
15088W        W87348   0.066  32.191   4.088
15089W        W87349  19.909  36.973  10.801
15090W        W87350  21.894  43.573   3.670
15091W        W87351  15.574  31.621  12.437
15092W        W87352  43.998  35.033   1.886
15093W        W87353  35.065  29.145   1.879
15094W        W87354  25.376  32.542  14.952
15095W        W87355  40.633  32.583  10.996
15096W        W87356  10.569   1.342  12.483
15097W        W87357  25.719  31.314  14.462
15098W        W87358  29.914  31.979   0.337
15099W        W87359  20.525  42.790  13.372
15100W        W87360  20.084  40.089  14.893
15101W        W87361   0.458   2.361   4.715
15102W        W87362   7.247   6.301  14.113
15103W        W87363  37.929  27.469   0.314
15104W        W87364  24.204   0.226  13.151
15105W        W87365   2.339  39.586   2.266
15106W        W87366  17.046  32.955   2.953
15107W        W87367  13.319   1.683   3.279
15108W        W87368  39.529  23.004   3.319
15109W        W87369  25.179  15.159  14.782
15110W        W87370  38.037  29.685  11.325
15111W        W87371  24.637  34.072  14.084
15112W        W87372   2.410  38.604  12.889
15113W        W87373  16.977  19.682  12.917
15114W        W87374  41.887   9.127  10.720
15115W        W87375   5.358  13.964  11.760
15116W        W87376  22.129   9.886  12.477
15117W        W87377  34.204  18.339  11.587
15118W        W87378  20.095   6.205  13.379
15119W        W87379  13.140  19.501   4.041
15120W        W87380  32.636  27.000   1.857
15121W        W87381  14.995  30.547   2.418
15122W        W87382  31.134  25.504   3.338
15123W        W87383   8.913  33.802  14.394
15124W        W87384  24.222  37.544   3.840
15125W        W87385  22.662  27.259   1.382
15126W        W87386  23.749  26.665  13.927
15127W        W87387  10.536  30.542   1.462
15128W        W87388  11.531  34.461  12.487
15129W        W87389   9.678  22.680   3.740
15130W        W87390  33.812  30.972   0.035
15131W        W87391  24.144  34.760   2.207
15132W        W87392   2.431  41.836  12.015
15133W        W87393  23.684   3.201  13.820
15134W        W87394  34.082  20.540  14.373
15135W        W87395  29.863  41.410   0.664
15136W        W87396  15.607   0.877   0.298
15137W        W87397  29.903  17.521   0.763
15138W        W87398   3.985  13.879  14.433
15139W        W87399  42.004  11.873  12.791
15140W        W87400   6.351  26.696  14.987
15141W        W87401   8.871  20.120  12.469
15142W        W87402  27.208  38.090   2.419
15143W        W87403   9.327  10.475   9.812
15144W        W87404   0.720  30.705  11.618
15145W        W87405  38.584   6.968   2.231
15146W        W87406  28.748  11.199  14.939
15147W        W87407  16.164  24.164  12.831
15148W        W87408  24.217  30.097   3.545
15149W        W87409  35.289  38.907  10.526
15150W        W87410  22.888  28.427  10.417
15151W        W87411   7.303   6.097   4.560
15152W        W87412  26.568   2.299   1.234
15153W        W87413  35.091   3.869  14.347
15154W        W87414   4.118  12.465  14.588
15155W        W87415  37.063   6.734  10.394
15156W        W87416  33.445  44.036  13.884
15157W        W87417  37.149  12.835  12.170
15158W        W87418  13.679  14.349   9.832
15159W        W87419  12.484  34.538  13.416
15160W        W87420  11.752   0.288   3.217
15161W        W87421  31.918  21.196  10.584
15162W        W87422  26.262   2.470   1.672
15163W        W87423  22.818  22.215  11.059
15164W        W87424   7.704  24.608  11.924
15165W        W87425   7.134  36.345   1.828
15166W        W87426  26.344  33.864   1.158
15167W        W87427  35.349   0.637   1.818
15168W        W87428  37.583  43.025  14.834
15169W        W87429  41.356  24.086   0.391
15170W        W87430   6.983  21.211  11.404
15171W        W87431   4.413  15.318  12.111
15172W        W87432  19.477  36.912  11.466
15173W        W87433  33.995  35.700   1.947
15174W        W87434  15.418  32.576  12.939
15175W        W87435  18.110  30.672   4.111
15176W        W87436  41.120  39.505  14.604
15177W        W87437  15.057  39.284   0.625
15178W        W87438   8.605  12.900   0.559
15179W        W87439  34.531   4.975  14.758
15180W        W87440  28.503  24.158   2.634
15181W        W87441  37.880  42.443  10.764
15182W        W87442  32.726  13.636   3.392
15183W        W87443  22.056  34.902  10.844
15184W        W87444  24.989  38.114   1.173
15185W        W87445   7.377  43.230   4.668
15186W        W87446   4.287   6.152   1.219
15187W        W87447  31.876  31.530  14.919
15188W        W87448  11.247   8.584   4.138
15189W        W87449  33.208   1.879  12.839
15190W        W87450  22.688   8.681   1.391
15191W        W87451  35.928  19.967  11.634
15192W        W87452   5.228  12.575  10.568
15193W        W87453  28.888  13.708   3.166
15194W        W87454  15.791   0.269   4.232
15195W        W87455  27.025   7.934  11.121
15196W        W87456  19.483  24.426  10.941
15197W        W87457   6.870  22.609   3.793
15198W        W87458  39.158   3.321   2.973
15199W        W87459  30.655  12.157  11.632
15200W        W87460  44.811  37.017   2.705
15201W        W87461   3.296  42.668  13.116
15202W        W87462  34.472   3.922  13.885
15203W        W87463  25.174  33.218   3.570
15204W        W87464  33.959  31.506   1.272
15205W        W87465   6.298  13.615   0.236
15206W        W87466  29.510  32.120   9.572
15207W        W87467  22.520  39.338  11.325
15208W        W87468  40.839  24.789  10.734
15209W        W87469  38.423  35.582   1.824
15210W        W87470  37.492   9.417   0.066
15211W        W87471  43.483  36.550  12.202
15212W        W87472   0.818   3.628   4.030
15213W        W87473  12.211  11.920   1.295
15214W        W87474  24.701  14.709  12.102
15215W        W87475   0.847  34.945   4.101
15216W        W87476  16.889  21.825  13.499
15217W        W87477  20.028   7.835  12.856
15218W        W87478  23.459  21.189   0.809
15219W        W87479   9.924   7.416   4.541
15220W        W87480  16.286  19.379   2.720
15221W        W87481  42.955  43.388   1.465
15222W        W87482  13.736  42.852   3.668
15223W        W87483  14.816  32.572   3.363
15224W        W87484  44.661  26.190   3.373
15225W        W87485  37.529  35.584   0.216
15226W        W87486   9.958  37.539  13.590
15227W        W87487   6.428  12.664   1.218
15228W        W87488   9.661   9.752   3.029
15229W        W87489  19.084  31.869  13.514
15230W        W87490  38.520  11.200  12.517
15231W        W87491   1.236  34.141  13.611
15232W        W87492  25.117   8.051  13.567
15233W        W87493  12.812   5.167   0.371
15234W        W87494   1.601  41.527   0.370
15235W        W87495  24.058  40.781   4.803
15236W        W87496   6.217  24.146   2.691
15237W        W87497  24.787  21.527  11.484
15238W        W87498   7.922  21.714   2.824
15239W        W87499   7.908  32.501  14.836
15240W        W87500   4.796  41.497   1.959
15241W        W87501  12.281  35.522   1.888
15242W        W87502  39.840  39.555  11.465
15243W        W87503   7.942  41.708  14.899
15244W        W87504  24.262  42.945  12.920
15245W        W87505  12.834  17.532   3.195
15246W        W87506  31.138  44.223  13.518
15247W        W87507  33.928  44.500  12.068
15248W        W87508  14.049  14.318   2.487
15249W        W87509   1.668  33.174  14.765
15250W        W87510  27.639  32.444   0.803
15251W        W87511  38.811   6.479   2.071
15252W        W87512  31.534   9.734  11.168
15253W        W87513  24.991   9.087  12.527
15254W        W87514   7.467  15.433  11.619
15255W        W87515  44.097  27.615  10.332
15256W        W87516  15.897  41.390   1.288
15257W        W87517  40.594  26.173   1.780
15258W        W87518  36.632  17.033   1.491
15259W        W87519  19.525   8.222   1.837
15260W        W87520  22.710  34.360   2.731
15261W        W87521   6.813   5.698   4.317
15262W        W87522  21.121  42.848   4.350
15263W        W87523  27.889  41.516  10.740
15264W        W87524  20.964   6.400  13.465
15265W        W87525  20.169  24.070   2.347
15266W        W87526  36.155  35.423  12.915
15267W        W87527  21.041  38.551   3.816
15268W        W87528   5.354  44.038  14.948
15269W        W87529  11.386  10.176  11.884
15270W        W87530   4.010  23.411  12.478
15271W        W87531  40.521  25.675  13.154
15272W        W87532   1.819   8.279   4.434
15273W        W87533  11.685  27.874   1.353
15274W        W87534  32.427  11.764   0.404
15275W        W87535  27.583  35.099  13.004
15276W        W87536  20.084  42.078  10.751
15277W        W87537   1.830   8.812  10.753
15278W        W87538  36.334  27.435  13.611
15279W        W87539   2.822  44.393   2.065
15280W        W87540   0.785  38.240   4.652
15281W        W87541  41.593  34.421  11.884
15282W        W87542  16.491  44.751  11.978
15283W        W87543  37.976  43.793   4.335
15284W        W87544  40.526  17.671   1.236
15285W        W87545  22.018   9.645   3.630
15286W        W87546  20.161  36.202   4.816
15287W        W87547   1.451  15.585   0.248
15288W        W87548  11.335  41.805  14.220
15289W        W87549   2.629  19.442   5.018
15290W        W87550   8.260  19.581  12.049
15291W        W87551  17.011  32.500  14.937
15292W        W87552   1.817  14.381   3.790
15293W        W87553  40.839  27.222  12.869
15294W        W87554  22.867  14.290   3.068
15295W        W87555  34.162  24.722   0.461
15296W        W87556  22.497   7.260  11.829
15297W        W87557  25.595  28.704   1.832
15298W        W87558  33.979   6.666   3.167
15299W        W87559  17.288  32.051  10.130
15300W        W87560   6.594  28.138   0.017
15301W        W87561   2.511  14.263   1.768
15302W        W87562  40.731  12.411  12.605
15303W        W87563  11.141  10.704  12.884
15304W        W87564   0.564   7.437  14.497
15305W        W87565   7.414   2.488  13.459
15306W        W87566   2.209   1.471   3.520
15307W        W87567   0.376  14.769  13.512
15308W        W87568  37.456  18.341   3.533
15309W        W87569  37.119  30.880   3.773
15310W        W87570  19.883  40.983   1.259
15311W        W87571  39.347   7.175  13.622
15312W        W87572  38.954  24.150  10.442
15313W        W87573  27.527  40.721  12.497
15314W        W87574  25.665  14.494  11.932
15315W        W87575  34.962  34.636  13.353
15316W        W87576  23.687   0.785   1.961
15317W        W87577  44.882   6.765  13.310
15318W        W87578  34.815  14.141   4.407
15319W        W87579  12.867  28.562  14.450
15320W        W87580  27.555  35.644   2.296
15321W        W87581  11.747  28.535  11.504
15322W        W87582  20.149  20.243  11.159
15323W        W87583   4.544  40.386   3.847
15324W        W87584  17.762  30.628   2.514
15325W        W87585  15.711  41.438  12.881
15326W        W87586   1.413  13.124  12.122
15327W        W87587  15.108  28.997   1.033
15328W        W87588  13.096  16.894   3.801
15329W        W87589  34.571  21.492  10.201
15330W        W87590  13.600  40.204  11.772
15331W        W87591   7.817  13.960  12.956
15332W        W87592  13.145   8.176   4.367
15333W        W87593  12.276   1.510   0.298
15334W        W87594  29.116  22.254   0.986
15335W        W87595   6.924  43.923   2.148
15336W        W87596  40.316  34.847   1.314
15337W        W87597  29.930  36.572  13.454
15338W        W87598  31.048  42.646  14.693
15339W        W87599   6.256  23.272  13.945
15340W        W87600   6.854   4.251   0.103
15341W        W87601  14.133  24.405   0.792
15342W        W87602  26.855  40.458  14.343
15343W        W87603  26.947  12.221  11.522
15344W        W87604  28.901  36.382   0.351
15345W        W87605   0.228  38.459  12.644
15346W        W87606   5.827   9.244  10.435
15347W        W87607  23.997   7.095   4.665
15348W        W87608   3.096  41.366  12.835
15349W        W87609  15.263  12.271  10.820
15350W        W87610  42.262  27.997  11.602
15351W        W87611   7.272  30.860  14.949
15352W        W87612  14.768   7.209   9.982
15353W        W87613   3.642  32.707   4.604
15354W        W87614  23.624  22.048   0.682
15355W        W87615   5.384  25.663  10.441
15356W        W87616  20.318  37.961   3.716
15357W        W87617  36.671  28.093   1.404
15358W        W87618  29.285  44.663  14.210
15359W        W87619  42.815  37.454  12.065
15360W        W87620   6.473  13.090   0.250
15361W        W87621  31.368  31.119   3.286
15362W        W87622  14.383  25.446   4.600
15363W        W87623   2.202  29.865   1.939
15364W        W87624  32.998  24.097   3.669
15365W        W87625  15.391  18.180  11.934
15366W        W87626   5.702  33.938  10.595
15367W        W87627  15.687  28.807  11.817
15368W        W87628  28.947   4.066  14.305
15369W        W87629  23.544  34.581   0.860
15370W        W87630  19.290  25.243  11.587
15371W        W87631   2.460  23.220   3.694
15372W        W87632  12.680   6.908  12.455
15373W        W87633  11.341  16.882   1.360
15374W        W87634  40.916  41.845  12.935
15375W        W87635   4.939  13.342  12.363
15376W        W87636  11.860  33.474  14.822
15377W        W87637  27.533  36.804   1.480
15378W        W87638   3.214  43.834   0.287
15379W        W87639  11.725  10.241  10.343
15380W        W87640  39.756  38.935  13.829
15381W        W87641  36.364  27.909   3.416
15382W        W87642  22.130  35.375  11.665
15383W        W87643  20.166  42.574   2.967
15384W        W87644  33.572  29.705  14.348
15385W        W87645  10.805   9.206   3.642
15386W        W87646  22.588  20.401   1.728
15387W        W87647  29.013   5.897   2.927
15388W        W87648  26.290  15.186   1.268
15389W        W87649  34.254  15.158   2.215
15390W        W87650  13.413  44.891   2.413
15391W        W87651  43.482  13.802   0.623
15392W        W87652   1.282  12.760  14.432
15393W        W87653  33.656  40.328  13.336
15394W        W87654   1.877   8.384  14.469
15395W        W87655  27.088  15.598   1.359
15396W        W87656   7.141  36.980   2.475
15397W        W87657  31.665  11.186   0.184
15398W        W87658  40.741  32.677   4.271
15399W        W87659   0.527  31.409   3.886
15400W        W87660  32.079   1.750  14.964
15401W        W87661   4.921  43.454   0.966
15402W        W87662   1.687  33.854  12.511
15403W        W87663   9.354  25.210   0.985
15404W        W87664  35.945  15.707  12.300
15405W        W87665   3.263  12.746   1.207
15406W        W87666  36.388  43.910   2.111
15407W        W87667   3.291  31.700   1.742
15408W        W87668  17.262  39.302   4.122
15409W        W87669   7.654  39.411  12.037
15410W        W87670  32.266  18.631   2.233
15411W        W87671  28.619  39.337  10.704
15412W        W87672  32.475   5.112  12.833
15413W        W87673  15.445   3.337  11.278
15414W        W87674   6.839  29.478   3.690
15415W        W87675   8.615  24.682  11.564
15416W        W87676  25.066  18.454  13.603
15417W        W87677  42.755  41.631  12.140
15418W        W87678  22.454   5.155  13.996
15419W        W87679  26.485  15.309   0.383
15420W        W87680   8.151   8.373   1.304
15421W        W87681  29.889  42.035   3.628
15422W        W87682  36.475  41.932  13.741
15423W        W87683  17.842  39.489   1.230
15424W        W87684   2.050  14.681   4.144
15425W        W87685  10.390  19.075   4.156
15426W        W87686  30.754  26.674  10.122
15427W        W87687  23.456   0.062  14.388
15428W        W87688  12.733   6.245   3.656
15429W        W87689  19.494  22.045   3.276
15430W        W87690   1.847  43.259  10.851
15431W        W87691  26.229  18.591  12.654
15432W        W87692  32.839  34.632  13.382
15433W        W87693  38.846  15.180   4.435
15434W        W87694   5.468   5.387  11.687
15435W        W87695  13.730  40.886   0.938
15436W        W87696  30.412  27.984  11.528
15437W        W87697  35.510  21.719  14.399
15438W        W87698  38.327  21.012   4.396
15439W        W87699   1.026   6.322   4.288
15440W        W87700  18.171  38.926  10.600
15441W        W87701  26.713   7.682   1.215
15442W        W87702   0.864  15.807  13.195
15443W        W87703   9.675  31.494  12.101
15444W        W87704  16.815   1.717   0.428
15445W        W87705  14.628  10.741  11.507
15446W        W87706  20.422   2.590   3.349
15447W        W87707  24.079   3.497  12.628
15448W        W87708  39.395  15.319  13.421
15449W        W87709  37.090  32.669  13.943
15450W        W87710  13.169  28.400   4.024
15451W        W87711   4.286  12.606  12.442
15452W        W87712  33.718  18.063  11.567
15453W        W87713  44.364   1.290   2.875
15454W        W87714  42.701   6.451  13.348
15455W        W87715  10.842  17.902   4.149
15456W        W87716  38.593  30.045   0.895
15457W        W87717   7.255  42.891  14.303
15458W        W87718   7.239   3.878  14.981
15459W        W87719  36.346   6.980  13.966
15460W        W87720   7.420  15.695   4.221
15461W        W87721  42.475  28.989   3.337
15462W        W87722   1.974  24.139   1.996
15463W        W87723  18.580  44.945   4.087
15464W        W87724   3.500  38.824  14.012
15465W        W87725  44.445  23.280   2.344
15466W        W87726  15.284  32.666   0.451
15467W        W87727  11.186  44.990   4.830
15468W        W87728  17.153  17.750  12.474
15469W        W87729  42.958  15.775  14.859
15470W        W87730  31.523   5.989  14.217
15471W        W87731  35.381  37.052   4.772
15472W        W87732  27.050  39.454   4.160
15473W        W87733  10.690  43.758  13.882
15474W        W87734  35.971  19.538   4.227
15475W        W87735   6.810  15.590  12.056
15476W        W87736   2.711  32.522  10.437
15477W        W87737  13.630  15.005   3.651
15478W        W87738  12.072  44.818   3.162
15479W        W87739  41.542   2.580  14.329
15480W        W87740  21.978   3.517  12.544
15481W        W87741  10.574  24.125  11.955
15482W        W87742   9.400   9.337   3.263
15483W        W87743  25.718  24.274   2.748
15484W        W87744  26.537  15.689   3.620
15485W        W87745  26.321  34.867   1.279
15486W        W87746  40.062  32.557   3.631
15487W        W87747  42.786   0.143  11.047
15488W        W87748   9.600  25.589  14.321
15489W        W87749  17.656   1.910   4.560
15490W        W87750   5.797  10.289  10.579
15491W        W87751  27.157  32.857  11.624
15492W        W87752  12.635  38.570   0.943
15493W        W87753   8.853  21.407   3.920
15494W        W87754  41.049  43.573  12.931
15495W        W87755   4.151  26.189  11.170
15496W        W87756  34.472  25.977  14.607
15497W        W87757   0.306  31.105  12.646
15498W        W87758  24.615   4.436   3.219
15499W        W87759  15.958  37.325  10.615
15500W        W87760  23.658  16.621   2.818
15501W        W87761   6.152  44.873  14.529
15502W        W87762   3.459   7.668   0.860
15503W        W87763  19.640   2.284   1.509
15504W        W87764  19.364  24.759  13.285
15505W        W87765   6.685  39.563  11.190
15506W        W87766  40.478  26.117   2.686
15507W        W87767  32.622  41.188   2.395
15508W        W87768  32.916  36.173  12.599
15509W        W87769  14.301   2.993   1.446
15510W        W87770  19.119  44.880  14.011
15511W        W87771  34.393  39.145  12.750
15512W        W87772  23.810  13.360  11.519
15513W        W87773  44.334   7.223   2.807
15514W        W87774  24.648  30.379   4.635
15515W        W87775   7.966  17.319  11.671
15516W        W87776  36.855  32.114   2.589
15517W        W87777   2.171  38.013   1.768
15518W        W87778  40.844   6.744   4.669
15519W        W87779  38.079  43.539  11.514
15520W        W87780   4.548  28.683  14.027
15521W        W87781  36.443  22.705   2.745
15522W        W87782   3.810   8.136  11.815
15523W        W87783  29.556  14.321   0.470
15524W        W87784  34.675  33.642  10.727
15525W        W87785  27.862  23.692   0.872
15526W        W87786  30.312  24.615   1.419
15527W        W87787  29.925  31.011  11.957
15528W        W87788  44.743   4.392  12.907
15529W        W87789  33.165  43.839   4.442
15530W        W87790  32.054  17.562  14.785
15531W        W87791  30.682  11.698  10.493
15532W        W87792  31.354   5.689  13.286
15533W        W87793  27.259  42.517   3.659
15534W        W87794  23.152   2.273  12.598
15535W        W87795  12.663   2.204   1.370
15536W        W87796  18.581  29.091   4.608
15537W        W87797  42.444  38.612  14.376
15538W        W87798  39.457   0.933   4.711
15539W        W87799  35.326  38.123  12.434
15540W        W87800  12.322   2.767   1.821
15541W        W87801   2.255  15.031  12.611
15542W        W87802  25.203  15.310   4.699
15543W        W87803   0.671   8.741  14.473
15544W        W87804  40.084   6.910   4.576
15545W        W87805   1.017  28.065   5.017
15546W        W87806  15.364  19.071   2.899
15547W        W87807  20.088  33.623  11.987
15548W        W87808   0.330  25.819  14.844
15549W        W87809  42.954  38.313  13.078
15550W        W87810  31.144   5.266  13.036
15551W        W87811  43.522  17.840  13.015
15552W        W87812   9.673  33.657  14.522
15553W        W87813  11.556  19.256  11.627
15554W        W87814   5.344  30.518  12.122
15555W        W87815  40.340  29.066   0.409
15556W        W87816   8.609  12.059  11.119
15557W        W87817  27.275  25.597  12.005
15558W        W87818  19.564  31.194  11.155
15559W        W87819  36.307   4.662  14.957
15560W        W87820  34.796  11.033   0.184
15561W        W87821   6.444  35.885  13.523
15562W        W87822  42.415  15.131   0.383
15563W        W87823  32.220  21.564   3.706
15564W        W87824  10.696   9.913  12.874
15565W        W87825  26.864   6.586   5.060
15566W        W87826  13.534  43.157   2.778
15567W        W87827   1.747  34.521  11.962
15568W        W87828   1.059  43.741  11.184
15569W        W87829   4.348  36.429  13.082
15570W        W87830  17.569  39.765  14.983
15571W        W87831  36.132  20.472  13.414
15572W        W87832  14.241  24.577  14.427
15573W        W87833  40.785   9.521   2.632
15574W        W87834  41.747  22.228  14.321
15575W        W87835  20.820   2.272   1.959
15576W        W87836  11.386  36.455  13.115
15577W        W87837  20.038   3.417  12.358
15578W        W87838   0.252  18.549  10.932
15579W        W87839   8.738   9.252  11.681
15580W        W87840  25.177  22.619   1.442
15581W        W87841  30.823  29.970  12.508
15582W        W87842   8.888   3.965   1.694
15583W        W87843  37.594  29.564  10.733
15584W        W87844   2.352  36.445   2.057
15585W        W87845  29.479  12.919  12.878
15586W        W87846  37.189  27.413   0.857
15587W        W87847   9.214  17.286  11.112
15588W        W87848  30.675   4.423   4.584
15589W        W87849  11.343  27.679  11.686
15590W        W87850  24.017   3.745  14.399
15591W        W87851  18.844  35.861   2.767
15592W        W87852  26.234  39.365  11.732
15593W        W87853  33.889  15.519   2.259
15594W        W87854  34.379   3.507  13.036
15595W        W87855  39.367  34.102   2.406
15596W        W87856  38.487  29.495   2.561
15597W        W87857  16.624  23.266  11.167
15598W        W87858  32.657  10.109   0.050
15599W        W87859  30.203   0.546  12.240
15600W        W87860  21.536  21.490   0.010
15601W        W87861  30.106  36.413   3.321
15602W        W87862  19.513   4.944  14.453
15603W        W87863  37.905  25.692   3.841
15604W        W87864  32.811  35.772   1.395
15605W        W87865  14.188  32.181  11.146
15606W        W87866  10.932  23.286   3.209
15607W        W87867  30.229  12.751   4.425
15608W        W87868  20.720  35.380  11.581
15609W        W87869   4.403  29.964   4.405
15610W        W87870  34.377  10.369   1.446
15611W        W87871   9.967  24.752  11.190
15612W        W87872  15.595  24.558   3.109
15613W        W87873  32.907   5.614   1.628
15614W        W87874  22.248  32.460   0.875
15615W        W87875   7.214  19.822   0.737
15616W        W87876   1.797  35.867  12.511
15617W        W87877  14.791  38.140  14.069
15618W        W87878  34.012  27.943  10.543
15619W        W87879  15.884  33.075   3.384
15620W        W87880  42.092   3.464   2.496
15621W        W87881  29.878  22.561  10.903
15622W        W87882   2.933   6.273   1.305
15623W        W87883  11.284  27.030   1.366
15624W        W87884   8.634  38.472  13.529
15625W        W87885   0.965   6.357   2.908
15626W        W87886   5.951  17.135   0.334
15627W        W87887  10.351  37.373   0.353
15628W        W87888  42.116  38.478   4.373
15629W        W87889  38.344  21.833  14.768
15630W        W87890   6.441  10.463  10.110
15631W        W87891  31.977  32.551  14.962
15632W        W87892  28.783  22.108  12.169
15633W        W87893  28.211   2.928  11.127
15634W        W87894  17.595   9.277  11.500
15635W        W87895  35.543  42.246  14.228
15636W        W87896  16.091  12.852  13.881
15637W        W87897   1.204  31.517   4.922
15638W        W87898  11.348  25.174  11.556
15639W        W87899  43.736  24.507   2.388
15640W        W87900  20.556  22.645   1.201
15641W        W87901  17.091   8.835  14.294
15642W        W87902   8.337   5.004  12.005
15643W        W87903  42.940   1.419  10.643
15644W        W87904   4.182  35.121  13.096
15645W        W87905  36.967  11.665  11.831
15646W        W87906   6.608   7.702  11.062
15647W        W87907   8.358  33.461   3.513
15648W        W87908   7.185   1.923   2.150
15649W        W87909   7.427   1.915  12.367
15650W        W87910   2.490  16.009   1.268
15651W        W87911   0.954  18.072   4.507
15652W        W87912  36.028   5.158  12.869
15653W        W87913  28.073  40.062  14.013
15654W        W87914  44.168  22.733  14.582
15655W        W87915  37.113  23.339  10.592
15656W        W87916   6.943  32.960   4.071
15657W        W87917  22.469  26.785   3.879
15658W        W87918   8.803  30.902   1.288
15659W        W87919  16.654  41.573  11.756
15660W        W87920   7.514   2.952   0.293
15661W        W87921   7.160  28.352  10.289
15662W        W87922  25.021  34.515  10.970
15663W        W87923  19.417  37.498   0.410
15664W        W87924  37.017  43.316   3.688
15665W        W87925  44.993  42.203   2.611
15666W        W87926  29.386  30.710  14.989
15667W        W87927   4.048  11.736  10.743
15668W        W87928  16.711   8.835   4.899
15669W        W87929  26.682  33.016  11.507
15670W        W87930  22.151   7.926  13.896
15671W        W87931  32.738   1.044   3.712
15672W        W87932  10.785  24.546  11.279
15673W        W87933  20.873  30.072   0.321
15674W        W87934  34.871  20.700  11.932
15675W        W87935   3.040   1.216  14.819
15676W        W87936  20.514  39.788   3.464
15677W        W87937   7.223   6.671  10.357
15678W        W87938   9.998  18.570   1.108
15679W        W87939  24.216  43.445  11.419
15680W        W87940  24.019  31.053   4.507
15681W        W87941  15.539  39.823  11.958
15682W        W87942  11.563  18.088   2.390
15683W        W87943  37.446  31.393   2.807
15684W        W87944  16.057  30.812  11.907
15685W        W87945  20.986  40.542   1.768
15686W        W87946  33.894  39.464   2.918
15687W        W87947   5.518   5.781  12.002
15688W        W87948   7.416   5.821  10.609
15689W        W87949  37.882  20.072  13.043
15690W        W87950  33.080  44.408  14.581
15691W        W87951  34.050  26.948  11.833
15692W        W87952   2.323  10.917   2.815
15693W        W87953  38.765  44.283   4.565
15694W        W87954   7.741  12.118   1.323
15695W        W87955   0.927  15.151   4.579
15696W        W87956   0.460  43.843  14.943
15697W        W87957   1.975  39.791  13.369
15698W        W87958   3.141  33.565  10.732
15699W        W87959  33.838  34.559   2.710
15700W        W87960  23.077  37.404   2.692
15701W        W87961   4.946  20.594   2.019
15702W        W87962  10.352  39.400  13.956
15703W        W87963   0.833  36.505   3.898
15704W        W87964  10.774  24.130  10.970
15705W        W87965  32.439  39.723  10.703
15706W        W87966  24.545  40.433  13.854
15707W        W87967  38.063  16.626  11.974
15708W        W87968  28.228  22.174   0.291
15709W        W87969   2.418   0.053   2.695
15710W        W87970  43.516  31.365  12.597
15711W        W87971   3.843  28.646  13.490
15712W        W87972  16.283   0.550   1.823
15713W        W87973   3.440   6.920   3.179
15714W        W87974   6.182  20.174   0.909
15715W        W87975  42.547   4.848  14.405
15716W        W87976  29.168   7.234   2.700
15717W        W87977  20.334  20.663  13.279
15718W        W87978  10.050  23.097   2.421
15719W        W87979  35.358  17.310  13.344
15720W        W87980  33.384   0.436  10.329
15721W        W87981  33.569  12.043   4.917
15722W        W87982  30.009  26.124   1.472
15723W        W87983  12.824  18.713  14.987
15724W        W87984  17.334  25.009  14.970
15725W        W87985  36.270  31.612  14.819
15726W        W87986  22.676  43.676   2.753
15727W        W87987  30.188  27.404   3.671
15728W        W87988  18.058  20.215  13.916
15729W        W87989  20.009  13.594   2.935
15730W        W87990  25.997  21.516  12.462
15731W        W87991  37.332  37.973   4.443
15732W        W87992  28.999   7.727   3.643
15733W        W87993  22.888  23.274   4.531
15734W        W87994  11.195  24.486   0.108
15735W        W87995  19.489   8.092  14.394
15736W        W87996  42.747  36.511   0.506
15737W        W87997  42.185  34.849   2.611
15738W        W87998  15.324   1.806  10.747
15739W        W87999  44.514  19.815   3.736
15740W        W88000   9.255  20.929   1.392
15741W        W88001   3.678  25.688   3.788
15742W        W88002  27.584  39.072  13.377
15743W        W88003  20.793  12.724   2.207
15744W        W88004  14.832  36.922   1.889
15745W        W88005  17.189  24.976   3.700
15746W        W88006  33.095  17.321  12.767
15747W        W88007  14.362  14.992  13.781
15748W        W88008  36.555  17.838  12.066
15749W        W88009  40.814  44.790   0.700
15750W        W88010  34.176  39.426  11.066
15751W        W88011  29.733  25.572  14.889
15752W        W88012   8.260  12.739  12.533
15753W        W88013  25.207  39.588   3.606
15754W        W88014   7.333   1.241   0.480
15755W        W88015   8.293   3.516   1.220
15756W        W88016   6.804  31.971   0.471
15757W        W88017   6.708   9.778  13.182
15758W        W88018  13.169   7.684   4.121
15759W        W88019  32.857  41.537   3.754
15760W        W88020  39.779  17.526   3.181
15761W        W88021  44.536   7.868  12.959
15762W        W88022  18.632  17.015  11.140
15763W        W88023  40.048   1.745  14.403
15764W        W88024   1.619  17.741  14.144
15765W        W88025  18.496  36.526  14.518
15766W        W88026  17.554  23.728   0.798
15767W        W88027  12.385  11.739   3.288
15768W        W88028  40.880  43.868   0.898
15769W        W88029  17.175  42.238   0.960
15770W        W88030   9.114   0.359  14.778
15771W        W88031  22.086  32.404   2.298
15772W        W88032  39.039  32.592   3.904
15773W        W88033  44.006  11.815   4.141
15774W        W88034  26.713  29.669  14.047
15775W        W88035   5.966   6.860   2.620
15776W        W88036  23.274  29.318   3.141
15777W        W88037  22.226  42.582  11.174
15778W        W88038  34.612   2.265   0.391
15779W        W88039   3.438  40.812  13.426
15780W        W88040  10.209   9.356  14.090
15781W        W88041   5.107  35.327  11.051
15782W        W88042  42.409  24.235   4.927
15783W        W88043  31.843   9.698   1.207
15784W        W88044  23.118   6.874   5.068
15785W        W88045  43.321   9.177  12.026
15786W        W88046  17.763  19.618   3.661
15787W        W88047  32.636   5.351   2.291
15788W        W88048   7.275  35.296  13.411
15789W        W88049  25.858  12.333   3.655
15790W        W88050  22.506  25.077   0.972
15791W        W88051  22.758  29.217  12.388
15792W        W88052   9.231  16.584  14.447
15793W        W88053  18.220  30.635   0.330
15794W        W88054   3.199   8.924  14.765
15795W        W88055  17.104  32.993   3.760
15796W        W88056  20.291   0.917  13.100
15797W        W88057  38.854   6.393   5.455
15798W        W88058  23.254  44.785   2.297
15799W        W88059  14.982   1.116  13.409
15800W        W88060   9.768  10.551  12.241
15801W        W88061  32.093  42.744  14.212
15802W        W88062  15.594  18.167   2.878
15803W        W88063  34.998  41.856  12.306
15804W        W88064  44.382  28.004  12.317
15805W        W88065  41.478   7.767   4.149
15806W        W88066  30.132  19.711   1.182
15807W        W88067  30.869  16.762   4.225
15808W        W88068  22.651  27.494  14.438
15809W        W88069  24.052  42.230   0.903
15810W        W88070   1.219  24.268  14.297
15811W        W88071  32.691  35.184   0.921
15812W        W88072  35.275  33.934  11.237
15813W        W88073  27.672   8.393   0.926
15814W        W88074  31.491  30.272  12.361
15815W        W88075   2.878  44.899  14.151
15816W        W88076  26.725   5.370  11.409
15817W        W88077  13.853  44.999  10.549
15818W        W88078  14.027   3.477  12.584
15819W        W88079  14.116  30.497   2.141
15820W        W88080  33.137  41.454   3.272
15821W        W88081  30.439  16.546   4.423
15822W        W88082  16.280  16.221   1.394
15823W        W88083  44.244  16.843  14.044
15824W        W88084  22.673   7.711  11.650
15825W        W88085  20.243  37.108   2.456
15826W        W88086   1.294  21.037  12.972
15827W        W88087  43.251  12.108   1.159
15828W        W88088  20.203  37.601   0.029
15829W        W88089   9.127  18.810   4.700
15830W        W88090  23.176  29.190   2.130
15831W        W88091   4.215  39.986   1.861
15832W        W88092  17.315  28.545   3.751
15833W        W88093  39.351   0.931   3.459
15834W        W88094  43.566  24.805  11.765
15835W        W88095  33.970  19.657   3.125
15836W        W88096  32.014  38.423  14.860
15837W        W88097  36.913  11.738   0.882
15838W        W88098  31.648   1.013   1.006
15839W        W88099  26.610  26.094   0.259
15840W        W88100  14.294  12.849  12.393
15841W        W88101  27.145  37.091   0.479
15842W        W88102  21.067   8.633   3.671
15843W        W88103   9.206  32.201  11.875
15844W        W88104  12.066  17.877   1.107
15845W        W88105  38.122  36.442   3.395
15846W        W88106  38.010  34.850  10.899
15847W        W88107  26.126  21.049  10.750
15848W        W88108   9.337  21.950   1.271
15849W        W88109   3.711  24.178   4.824
15850W        W88110  14.861   8.085  13.954
15851W        W88111   4.666   0.493  11.161
15852W        W88112   1.703  14.689   1.291
15853W        W88113  39.262  20.368  12.749
15854W        W88114   8.003  28.140  11.905
15855W        W88115  42.066  13.319   4.205
15856W        W88116   7.769   8.783   2.660
15857W        W88117   9.932  25.767   2.763
15858W        W88118  36.980  32.709   1.896
15859W        W88119  40.784   9.398  12.006
15860W        W88120  29.849  10.680   4.886
15861W        W88121   1.716  11.200   3.413
15862W        W88122  21.142  37.821  12.873
15863W        W88123  14.685   6.117  10.997
15864W        W88124   0.293  33.568   4.309
15865W        W88125   4.451  23.439   4.090
15866W        W88126   6.080  29.097  10.283
15867W        W88127  24.218  38.845   2.867
15868W        W88128  37.444  43.023   0.339
15869W        W88129  22.095  10.132   3.074
15870W        W88130  17.111  17.185   4.232
15871W        W88131   1.902   8.236   3.921
15872W        W88132  30.564  15.828  14.076
15873W        W88133   9.692  22.046  13.922
15874W        W88134  18.837   0.179   3.419
15875W        W88135   9.677  22.827  14.398
15876W        W88136  32.170   8.295   3.251
15877W        W88137  24.209   4.897   4.584
15878W        W88138  37.017  36.618   2.142
15879W        W88139   7.338  10.848  13.531
15880W        W88140  13.573   7.399   0.338
15881W        W88141  15.724  10.186   1.639
15882W        W88142  30.566  16.781  13.595
15883W        W88143  37.644  21.981   0.223
15884W        W88144   8.598  19.777   2.705
15885W        W88145  34.893   6.749  14.896
15886W        W88146  43.817  21.332   3.224
15887W        W88147  23.708  28.544   2.495
15888W        W88148   9.515  28.201  11.191
15889W        W88149  10.100  31.203  14.394
15890W        W88150  32.709  15.241  14.331
15891W        W88151   3.820   1.652   1.463
15892W        W88152  31.144  43.221   5.055
15893W        W88153  10.642  13.883  13.095
15894W        W88154  12.918  22.544  13.401
15895W        W88155  41.890  18.172  13.800
15896W        W88156  12.202  11.063   0.981
15897W        W88157  44.884  24.162  10.671
15898W        W88158  14.198   4.041  10.944
15899W        W88159   7.354  13.393   2.198
15900W        W88160  35.057  15.145  13.939
15901W        W88161  30.069  25.965   4.564
15902W        W88162  21.081   5.314  11.093
15903W        W88163  33.087  42.152  10.753
15904W        W88164  39.320  26.969  14.320
15905W        W88165  39.408  41.607   0.792
15906W        W88166  39.679  22.884   1.387
15907W        W88167  36.965  10.419  12.609
15908W        W88168  39.144  34.914   3.741
15909W        W88169   1.457  19.458  13.054
15910W        W88170  37.982  21.210   1.660
15911W        W88171  40.891  21.721  12.007
15912W        W88172  44.780  18.443   2.839
15913W        W88173   4.917   3.933   1.467
15914W        W88174   7.755  42.295   2.170
15915W        W88175  30.344  18.062  12.325
15916W        W88176   2.220  10.322  14.887
15917W        W88177  20.509  12.227   4.673
15918W        W88178  22.987  44.411  11.390
15919W        W88179  20.548  20.241   4.229
15920W        W88180  43.250  14.513   1.789
15921W        W88181  38.329  20.487   4.156
15922W        W88182  31.187  39.234   1.469
15923W        W88183  37.836  36.310   2.939
15924W        W88184   4.814  33.080   2.656
15925W        W88185  35.602  38.534  13.382
15926W        W88186   6.729  44.771   4.540
15927W        W88187   0.349  13.091  10.699
15928W        W88188  36.850  40.391  11.919
15929W        W88189  32.487  30.431  13.023
15930W        W88190  26.663  44.765   1.900
15931W        W88191  34.402  22.126   1.357
15932W        W88192  32.447  29.747   2.388
15933W        W88193  37.891  22.550  13.985
15934W        W88194   0.408   8.166   4.076
15935W        W88195  17.974  22.723   2.938
15936W        W88196   0.268  22.960   2.836
15937W        W88197  35.384   3.781   0.221
15938W        W88198  13.373  18.660   0.180
15939W        W88199  30.963  25.200  13.343
15940W        W88200  11.894  27.028  10.210
15941W        W88201   2.376  35.705  13.334
15942W        W88202  21.578  28.968   3.253
15943W        W88203  20.253  38.591  13.878
15944W        W88204  39.163  29.806   2.796
15945W        W88205   5.983  33.401  13.986
15946W        W88206   5.487   5.079   0.330
15947W        W88207   4.136  35.471  13.490
15948W        W88208   9.582  10.321   1.412
15949W        W88209  27.569   4.644  14.927
15950W        W88210  43.327  41.305   2.592
15951W        W88211  17.202  25.856   0.412
15952W        W88212  17.537  37.894  12.461
15953W        W88213  43.928   5.459  10.427
15954W        W88214  21.211  30.662  11.597
15955W        W88215  36.343  24.034  10.646
15956W        W88216  26.032  38.595   4.583
15957W        W88217  29.103  11.807  13.766
15958W        W88218   5.696  10.150   3.213
15959W        W88219  14.534  20.297   4.185
15960W        W88220   4.758   9.109  13.325
15961W        W88221   9.370  30.846  13.922
15962W        W88222  44.862  24.816  12.891
15963W        W88223   1.413  39.888  14.928
15964W        W88224   0.408  25.132  11.481
15965W        W88225  13.839  14.535   3.675
15966W        W88226  42.869   0.809  14.429
15967W        W88227  17.740  44.236   1.837
15968W        W88228  35.422  28.055   2.806
15969W        W88229  32.256  20.712  12.001
15970W        W88230  41.358  19.244   3.644
15971W        W88231   1.857   8.995   3.750
15972W        W88232  36.446  17.628   4.639
15973W        W88233   4.651  24.129   1.361
15974W        W88234  29.677  28.095  10.982
15975W        W88235  17.687   6.376  12.666
15976W        W88236  26.064  19.537   1.983
15977W        W88237  18.554  26.683  12.903
15978W        W88238  42.911  42.539   0.385
15979W        W88239  34.394   4.474   3.285
15980W        W88240   2.804  24.811  13.075
15981W        W88241  29.140  44.966   2.741
15982W        W88242  30.729  12.298   2.710
15983W        W88243  11.240  41.843  12.195
15984W        W88244  44.794  43.321  11.577
15985W        W88245  22.529   4.319   1.891
15986W        W88246  16.633  36.278  12.537
15987W        W88247  39.106  37.616  11.080
15988W        W88248  24.456  12.514  10.447
15989W        W88249  40.130  36.566  14.358
15990W        W88250   8.582  22.227  14.784
15991W        W88251  40.061  31.436   0.277
15992W        W88252  38.251  14.535  13.712
15993W        W88253  14.158  44.717  12.149
15994W        W88254   2.523  33.071   3.118
15995W        W88255  25.264   8.444  11.163
15996W        W88256   5.518  26.950   2.239
15997W        W88257  24.032  22.221   0.933
15998W        W88258  17.766  21.692  13.939
15999W        W88259  17.619  31.552  13.447
16000W        W88260  32.664  42.959   1.760
16001W        W88261   2.018   7.846  13.189
16002W        W88262   0.354  15.293  10.633
16003W        W88263   0.441  16.969   4.472
16004W        W88264   5.922   9.709   0.665
16005W        W88265  32.073  43.424   1.689
16006W        W88266  10.762   1.691   0.820
16007W        W88267  42.828  12.894  10.868
16008W        W88268  19.970   8.246   9.780
16009W        W88269  37.945  19.555  11.927
16010W        W88270   1.022  27.541   3.908
16011W        W88271  44.400  19.556   4.537
16012W        W88272  29.013  33.635  14.778
16013W        W88273  35.898   7.643  13.076
16014W        W88274  30.432   3.959   4.632
16015W        W88275  16.525  16.353   4.078
16016W        W88276  28.590  44.431   2.167
16017W        W88277  28.168  19.732  10.731
16018W        W88278  26.044   7.764   3.196
16019W        W88279  15.163  26.946  12.904
16020W        W88280  34.016   0.618  10.478
16021W        W88281  37.561  10.282  12.295
16022W        W88282  15.565  20.307  11.538
16023W        W88283  38.568  12.355  13.760
16024W        W88284  29.783   3.323   4.164
16025W        W88285  25.163   0.244  13.503
16026W        W88286  44.918   5.907   3.437
16027W        W88287  28.594  27.533   1.173
16028W        W88288  32.148  43.596  10.550
16029W        W88289  23.618  44.297  13.836
16030W        W88290  44.770  18.753   0.483
16031W        W88291   6.015   2.354   3.628
16032W        W88292  31.009   4.499  12.171
16033W        W88293   8.369  27.778   5.650
16034W        W88294  11.713  15.554  14.298
16035W        W88295   2.150   5.647  11.106
16036W        W88296  24.045  10.763  13.286
16037W        W88297  14.181  13.396  10.991
16038W        W88298  33.359  27.537   3.160
16039W        W88299   8.770  26.053   0.010
16040W        W88300  27.985   8.284  12.098
16041W        W88301   8.251  19.838   1.088
16042W        W88302  21.650  33.067   4.372
16043W        W88303  27.547  28.614  14.322
16044W        W88304  41.086  44.400  13.913
16045W        W88305   6.137  10.241   4.552
16046W        W88306  25.672  16.522  14.269
16047W        W88307  31.005  35.145   1.834
16048W        W88308  13.849  23.633  13.085
16049W        W88309  39.650   0.246   0.595
16050W        W88310   8.282  37.605  11.611
16051W        W88311  37.961  39.874   4.679
16052W        W88312  22.701  35.469   4.330
16053W        W88313  13.790   9.496  13.623
16054W        W88314  23.575  40.638  14.503
16055W        W88315  23.862  16.661  13.393
16056W        W88316  38.023  35.814   4.259
16057W        W88317  12.696   7.113  12.932
16058W        W88318   8.813  25.084   0.481
16059W        W88319  15.972   3.784   4.390
16060W        W88320  41.892  19.686   1.888
16061W        W88321  37.795  25.005  13.591
16062W        W88322  26.306  21.725   2.241
16063W        W88323  34.033  20.022  12.731
16064W        W88324  32.066  15.288   4.422
16065W        W88325  23.134  35.365  10.779
16066W        W88326  26.493   3.464   4.118
16067W        W88327  16.792  14.387   4.105
16068W        W88328   1.379  41.450  10.591
16069W        W88329  26.865  43.795  13.471
16070W        W88330   5.558   1.386  14.878
16071W        W88331  25.158   2.475  13.137
16072W        W88332  13.045  25.651  11.740
16073W        W88333  40.046  43.866  14.977
16074W        W88334  26.119  18.715  14.059
16075W        W88335   7.435  26.711   0.879
16076W        W88336   7.327  19.102  11.043
16077W        W88337  26.287  14.131   3.167
16078W        W88338  16.751  35.333  13.051
16079W        W88339   1.985  11.321   0.053
16080W        W88340  14.772  19.484   4.565
16081W        W88341  12.892  21.392   3.653
16082W        W88342  31.347  30.756   3.986
16083W        W88343  17.163  34.317   4.891
16084W        W88344  42.590   9.618   3.800
16085W        W88345   6.143  28.343   3.414
16086W        W88346  28.027  39.341  13.362
16087W        W88347  25.697  27.626   0.403
16088W        W88348  32.522   4.033  12.019
16089W        W88349  25.222  23.109   1.204
16090W        W88350   3.233   1.690  14.829
16091W        W88351  29.434  27.783   4.240
16092W        W88352  14.127  30.216   1.696
16093W        W88353  28.054  42.829  11.823
16094W        W88354  20.212  35.787  14.084
16095W        W88355  19.595  42.800   2.323
16096W        W88356   1.969   5.476  11.626
16097W        W88357  36.433  44.279   0.804
16098W        W88358  37.453  14.783  13.989
16099W        W88359  25.098  12.107  12.476
16100W        W88360  38.061   1.774   2.721
16101W        W88361   7.681  12.719   0.501
16102W        W88362   3.822   2.852   2.697
16103W        W88363  22.744  31.991  12.913
16104W        W88364  11.658   6.705  12.479
16105W        W88365  35.880  24.973  10.603
16106W        W88366  16.823  20.840  10.659
16107W        W88367  30.794  18.414   3.781
16108W        W88368  38.455  32.868   2.834
16109W        W88369   9.246  19.230  12.397
16110W        W88370  42.553  23.457  13.643
16111W        W88371   3.784  14.646  13.960
16112W        W88372  12.820  30.465  14.347
16113W        W88373  27.500  35.724   4.536
16114W        W88374  32.047  26.387  13.924
16115W        W88375  26.119  12.689   3.908
16116W        W88376   7.334  32.996  11.991
16117W        W88377   3.631  24.645  12.084
16118W        W88378  23.027  19.330   2.884
16119W        W88379  18.943  31.379  13.516
16120W        W88380   4.815  43.227   4.635
16121W        W88381  28.132  32.706  10.521
16122W        W88382  28.133  20.062   3.656
16123W        W88383  27.517  29.858  11.989
16124W        W88384  30.889  31.296   3.142
16125W        W88385  17.793  17.308   0.269
16126W        W88386  37.620   8.893   0.323
16127W        W88387  44.322  37.051   1.854
16128W        W88388  18.149  16.750   2.283
16129W        W88389  31.670  15.078  14.379
16130W        W88390   8.867  24.174   0.286
16131W        W88391  28.551  32.362  14.980
16132W        W88392  21.453  18.507  13.407
16133W        W88393  11.741  38.943   1.385
16134W        W88394   6.844   8.480   3.013
16135W        W88395  26.489  23.951  11.094
16136W        W88396   1.440  30.460  11.372
16137W        W88397  11.032  29.628  13.919
16138W        W88398  18.527  37.331  13.853
16139W        W88399  33.129  22.995   2.632
16140W        W88400  31.550  25.287   2.422
16141W        W88401   5.429  37.547   3.129
16142W        W88402  33.629  30.770   1.144
16143W        W88403  11.670  32.688  13.030
16144W        W88404  34.397   6.290   3.717
16145W        W88405  16.625  22.288  12.864
16146W        W88406  33.875   0.825  10.928
16147W        W88407  39.493   4.703  13.948
16148W        W88408  15.422  14.499   4.215
16149W        W88409   8.813  12.210   2.467
16150W        W88410  27.375  40.085   0.094
16151W        W88411   5.191  25.001   3.204
16152W        W88412  29.780   6.987   0.454
16153W        W88413  37.195  13.403   3.794
16154W        W88414  30.384   6.441   1.605
16155W        W88415   3.678  28.497  12.192
16156W        W88416  18.543  15.916   1.810
16157W        W88417  12.796  27.422   0.822
16158W        W88418  18.803  30.909  12.460
16159W        W88419   2.333  37.321  11.633
16160W        W88420  41.837  10.601  12.577
16161W        W88421  34.903  25.728  14.752
16162W        W88422  17.687  28.966   2.902
16163W        W88423  28.832  18.927   4.179
16164W        W88424  19.699  13.140  12.311
16165W        W88425  20.636  14.118  11.120
16166W        W88426   1.508  30.555  11.859
16167W        W88427  27.047   8.532  11.972
16168W        W88428  32.481  11.754   2.904
16169W        W88429  22.981   0.966  12.281
16170W        W88430   4.759  30.888  13.519
16171W        W88431  14.079   4.985  14.900
16172W        W88432  31.070  31.223   9.860
16173W        W88433  25.723   9.222   3.176
16174W        W88434  21.665   0.834  13.325
16175W        W88435   0.712  36.578  11.937
16176W        W88436   9.701  20.683   4.386
16177W        W88437  38.017   5.921  12.455
16178W        W88438  27.137   2.137  12.528
16179W        W88439   6.366  10.595  13.456
16180W        W88440  37.457  41.422  14.860
16181W        W88441  24.188   3.219  14.489
16182W        W88442   2.741  13.672  13.835
16183W        W88443  44.662  12.067  13.329
16184W        W88444  31.836  41.428   4.161
16185W        W88445  33.156  36.432  12.217
16186W        W88446  33.439  31.535  12.496
16187W        W88447  29.999  40.389   4.662
16188W        W88448   0.812  28.645   0.281
16189W        W88449   2.721  41.802  11.561
16190W        W88450  24.143  42.715   4.045
16191W        W88451  25.249  34.672   1.920
16192W        W88452  24.664  44.840   2.808
16193W        W88453  44.579   7.323   2.356
16194W        W88454  15.757  22.146   4.697
16195W        W88455  20.338  11.855  11.419
16196W        W88456   1.278  44.286   3.248
16197W        W88457  28.846  39.765  11.302
16198W        W88458  28.733  31.015  14.761
16199W        W88459  44.793  35.862  13.051
16200W        W88460  14.178  32.868  13.292
16201W        W88461   5.364  43.487  14.880
16202W        W88462  19.637   6.870  12.765
16203W        W88463  15.218  44.505  12.054
16204W        W88464  20.452  27.341   3.172
16205W        W88465  40.497  41.061   3.403
16206W        W88466  35.233  44.149   5.273
16207W        W88467  27.539  31.926   0.965
16208W        W88468   0.350   8.334   4.571
16209W        W88469   0.424  24.750   2.975
16210W        W88470  41.092   2.362  14.246
16211W        W88471  14.835   2.692  14.954
16212W        W88472   1.886  43.620   4.465
16213W        W88473  10.877  40.120   4.565
16214W        W88474  26.993  40.610   2.218
16215W        W88475   4.781  28.114  10.679
16216W        W88476  17.552  40.000   0.450
16217W        W88477  10.953   6.915  13.244
16218W        W88478   9.710  36.933  10.987
16219W        W88479  16.127  20.695  11.065
16220W        W88480  33.551   4.315  13.628
16221W        W88481  33.823  14.168  12.913
16222W        W88482  28.366  15.384  14.787
16223W        W88483  11.207   0.310   2.690
16224W        W88484  19.433  19.292  12.505
16225W        W88485  31.372  21.031   0.413
16226W        W88486   4.463  42.198   2.142
16227W        W88487  30.304  43.487   3.109
16228W        W88488   8.285  17.055   3.259
16229W        W88489  42.040  37.134  14.443
16230W        W88490  42.381  23.486  14.974
16231W        W88491  31.571  42.043  14.359
16232W        W88492  33.433  33.981   2.085
16233W        W88493  21.658  17.078   1.382
16234W        W88494  34.608  12.607   4.187
16235W        W88495  31.173  21.089   3.164
16236W        W88496  14.291  16.745  14.367
16237W        W88497  17.579   7.923  14.880
16238W        W88498  33.042  15.265   2.263
16239W        W88499   7.344   1.801   4.613
16240W        W88500  16.795   0.612   1.641
16241W        W88501  28.661  34.036   3.514
16242W        W88502  18.066  30.017  12.973
16243W        W88503  14.087  31.057   4.034
16244W        W88504  16.724  15.663   4.528
16245W        W88505  20.890  34.417   0.836
16246W        W88506  39.207  23.187   2.797
16247W        W88507  29.395   2.228   0.839
16248W        W88508  36.557  12.612   2.666
16249W        W88509  29.905  13.174   0.772
16250W        W88510  23.613  44.195   0.454
16251W        W88511  19.494  36.052   0.371
16252W        W88512  20.209  38.425   4.668
16253W        W88513  13.120  37.508  14.304
16254W        W88514  26.563  31.597  12.899
16255W        W88515   7.212  41.529  14.210
16256W        W88516   9.959   0.335   2.340
16257W        W88517   1.769  35.990   1.462
16258W        W88518  23.182  16.872   2.814
16259W        W88519  15.475   8.642   2.706
16260W        W88520  31.912  14.742  10.500
16261W        W88521  34.115  16.729   2.722
16262W        W88522  43.811  12.122  13.860
16263W        W88523  17.884  22.668  13.914
16264W        W88524  19.124   2.282   1.391
16265W        W88525  41.087  43.402   1.754
16266W        W88526  43.635   4.164  10.735
16267W        W88527  14.221  10.866  14.764
16268W        W88528  16.803  42.019  11.526
16269W        W88529  26.010  12.070  14.353
16270W        W88530   2.209  37.943  10.364
16271W        W88531  43.975   0.437   0.541
16272W        W88532  23.683  27.014  10.665
16273W        W88533  10.206   7.692   3.507
16274W        W88534   8.960  10.165  14.448
16275W        W88535  30.510   8.751   1.685
16276W        W88536   0.342  15.625   1.413
16277W        W88537  11.964  19.705  13.054
16278W        W88538   9.153  11.704   1.412
16279W        W88539  40.778  22.405  11.404
16280W        W88540  43.486  40.068   4.128
16281W        W88541   2.910   7.229  12.334
16282W        W88542   5.725  36.935  13.649
16283W        W88543   9.732  27.222  14.126
16284W        W88544   8.005  10.882   3.840
16285W        W88545  41.043  35.948  13.008
16286W        W88546  20.054  26.366  14.825
16287W        W88547   1.497  20.535  13.874
16288W        W88548  22.799  19.076   4.242
16289W        W88549  24.800  40.928  13.647
16290W        W88550  29.508  41.505   2.766
16291W        W88551  15.245   3.358  14.736
16292W        W88552  38.818   9.366  11.322
16293W        W88553  34.298  41.272  10.785
16294W        W88554  41.717  11.135   3.277
16295W        W88555  33.068  38.371  12.459
16296W        W88556  26.704  20.199  14.720
16297W        W88557   0.730   1.011   4.037
16298W        W88558   3.802  30.487  13.231
16299W        W88559   4.140  22.164  14.828
16300W        W88560  24.236  39.356  13.313
16301W        W88561  36.924  41.152  12.489
16302W        W88562  25.725  44.851   2.599
16303W        W88563  24.959  18.433   1.460
16304W        W88564  43.523   9.890  11.624
16305W        W88565  39.078  10.669  14.265
16306W        W88566   3.755  41.924   0.693
16307W        W88567  15.611  36.646  13.338
16308W        W88568  20.750  15.569   3.143
16309W        W88569  34.935   4.610   4.209
16310W        W88570   7.687  42.040   1.296
16311W        W88571   8.232  21.202   1.170
16312W        W88572  12.377  22.926  14.317
16313W        W88573  43.186  11.075  10.658
16314W        W88574  19.624  16.807  10.995
16315W        W88575  32.947  29.996   0.227
16316W        W88576  33.504  17.224   4.615
16317W        W88577   5.609  16.785  10.903
16318W        W88578   0.964   8.335   4.173
16319W        W88579   4.434  39.493  13.476
16320W        W88580  21.671  21.494  13.979
16321W        W88581  37.066  19.113  10.671
16322W        W88582  23.110   5.402  11.434
16323W        W88583  36.675  43.700  13.061
16324W        W88584  15.444  22.669   2.754
16325W        W88585  21.730  27.051  12.371
16326W        W88586  30.574  21.210   2.787
16327W        W88587  20.247   7.469   0.061
16328W        W88588  10.693  22.206  14.033
16329W        W88589  13.129   9.816   2.844
16330W        W88590  15.573  12.845  14.333
16331W        W88591   9.771  34.423  12.814
16332W        W88592  12.303  13.397   3.627
16333W        W88593   8.197  18.355   0.433
16334W        W88594  41.981  31.811  12.543
16335W        W88595  28.043  32.584   3.672
16336W        W88596  37.748  32.011   5.062
16337W        W88597  18.312  36.037  11.934
16338W        W88598   6.368   0.688   3.075
16339W        W88599  40.875   2.703  13.929
16340W        W88600  30.568  13.602  12.366
16341W        W88601  10.580  33.391  13.417
16342W        W88602   4.094   7.248   3.952
16343W        W88603   3.468  42.601   2.844
16344W        W88604  12.745  23.633   0.774
16345W        W88605  36.394  22.634   4.236
16346W        W88606  21.335  39.348  14.492
16347W        W88607  15.095  24.458   2.238
16348W        W88608  44.696  30.088   1.065
16349W        W88609  12.887  40.855  11.131
16350W        W88610   0.914  15.376  12.912
16351W        W88611  18.255   9.930   1.504
16352W        W88612  40.580  37.928   3.762
16353W        W88613  10.215  18.255   3.696
16354W        W88614  43.080  22.511  12.615
16355W        W88615  33.989   3.832  10.900
16356W        W88616   7.943  40.802   1.323
16357W        W88617  37.847  30.014   2.376
16358W        W88618  27.683   4.011   4.634
16359W        W88619  30.371  32.413   0.848
16360W        W88620  29.578  31.069   2.752
16361W        W88621  17.517  31.218  12.114
16362W        W88622  38.838  26.008  14.866
16363W        W88623  18.015  28.500  12.514
16364W        W88624  23.905  21.696  13.525
16365W        W88625  39.394  14.125  14.811
16366W        W88626  32.932  20.503  14.518
16367W        W88627  15.487  28.686   3.717
16368W        W88628   4.504  38.796  13.814
16369W        W88629   0.888  43.011  11.599
16370W        W88630  21.487  17.635   4.640
16371W        W88631  35.828   3.138   2.651
16372W        W88632  24.547  14.625   4.091
16373W        W88633   8.461  18.869   2.568
16374W        W88634   3.297  24.078  13.243
16375W        W88635  36.839  40.429   1.097
16376W        W88636  38.132  33.841   1.891
16377W        W88637  32.479  25.506  10.775
16378W        W88638  29.753  18.513   3.283
16379W        W88639   5.318   9.049   2.924
16380W        W88640   9.755  32.019  10.654
16381W        W88641  26.019   4.170   4.172
16382W        W88642  35.426  32.352   4.901
16383W        W88643  19.368   1.814   3.852
16384W        W88644  38.775   4.991  14.484
16385W        W88645  32.064  25.014   2.306
16386W        W88646  20.396  24.006  12.048
16387W        W88647   0.603  26.613  14.514
16388W        W88648  30.376   9.251  13.100
16389W        W88649   3.712  33.559   3.855
16390W        W88650  35.555   6.004   0.687
16391W        W88651  20.713  30.238  14.836
16392W        W88652  21.303  34.921  12.376
16393W        W88653  12.130  23.341  11.129
16394W        W88654   9.716  24.606   4.596
16395W        W88655  41.301  32.385   4.654
16396W        W88656  26.432  19.687  11.117
16397W        W88657  30.692   5.703   1.342
16398W        W88658   9.197  27.931  13.021
16399W        W88659   8.271  18.056  12.962
16400W        W88660  31.198  26.239  13.967
16401W        W88661  32.889  43.568  10.980
16402W        W88662  22.451   2.121   2.859
16403W        W88663  35.527  38.552   0.327
16404W        W88664   2.523  19.442  10.293
16405W        W88665  36.974  36.380  11.849
16406W        W88666  13.244   2.991   5.054
16407W        W88667  32.890  35.027  10.654
16408W        W88668  31.118  16.669  13.406
16409W        W88669  14.315  31.894  10.412
16410W        W88670  40.892  36.491  13.070
16411W        W88671  41.560  36.543  12.607
16412W        W88672  39.886   0.457  10.358
16413W        W88673  26.753  24.424  12.826
16414W        W88674  12.434  43.384   3.621
16415W        W88675  35.938  32.416  10.620
16416W        W88676  26.173  27.066   4.359
16417W        W88677  34.028  22.621   4.772
16418W        W88678  15.105  44.159   1.335
16419W        W88679  33.011  16.695   0.467
16420W        W88680  28.144  40.073   3.778
16421W        W88681  24.487  22.545  14.242
16422W        W88682  25.548  23.164   3.971
16423W        W88683  38.825  41.437   1.817
16424W        W88684  30.221  39.892   2.749
16425W        W88685   0.428  28.098   2.137
16426W        W88686  34.503  19.004   2.405
16427W        W88687  25.081  20.044  13.980
16428W        W88688  16.600  41.348   4.769
16429W        W88689  22.652  25.336   3.574
16430W        W88690  18.713  31.602  10.742
16431W        W88691  40.255  21.368  13.901
16432W        W88692  18.839   0.812  11.580
16433W        W88693  22.797  42.731  10.671
16434W        W88694  34.108  24.305  10.932
16435W        W88695  11.591   3.188  13.853
16436W        W88696  29.990   2.528  10.564
16437W        W88697   2.149   3.861  14.174
16438W        W88698  28.749  21.887   0.933
16439W        W88699   2.393   2.526   0.367
16440W        W88700  44.478   6.468   4.117
16441W        W88701  34.577  20.175  14.401
16442W        W88702  19.043  30.063  12.004
16443W        W88703  36.046  28.948  14.598
16444W        W88704  40.391   5.210   0.921
16445W        W88705  31.317  24.560   3.637
16446W        W88706  38.053  22.460  14.484
16447W        W88707  42.470   9.655  11.384
16448W        W88708  23.635   4.307  14.555
16449W        W88709   9.723  16.382  13.578
16450W        W88710  12.783  41.723  10.780
16451W        W88711   3.198  34.089   3.712
16452W        W88712  29.388  14.620  10.413
16453W        W88713  14.812  34.144  13.470
16454W        W88714  23.258  13.331   0.860
16455W        W88715   0.959  13.604  13.979
16456W        W88716  26.254  37.574   1.181
16457W        W88717  30.680  10.815   4.380
16458W        W88718  31.264  22.809   4.282
16459W        W88719   6.123  34.956  12.800
16460W        W88720  18.592  43.369  14.458
16461W        W88721  24.915  23.565   1.893
16462W        W88722   7.258   1.856   0.607
16463W        W88723  30.195  18.581   1.933
16464W        W88724  10.914  23.645  14.871
16465W        W88725  42.428  34.456  10.372
16466W        W88726  28.410  21.107  12.161
16467W        W88727  16.510  30.721   1.308
16468W        W88728  15.929  36.533   2.814
16469W        W88729   3.077  40.294   0.245
16470W        W88730   1.082  22.147   3.255
16471W        W88731  19.230  11.237   2.840
16472W        W88732  29.479  21.146   3.677
16473W        W88733  23.382   7.201   1.192
16474W        W88734   6.403  23.990   1.284
16475W        W88735  19.242   5.518   9.816
16476W        W88736   9.223  37.480   2.507
16477W        W88737  13.057  35.759  14.561
16478W        W88738   0.686  37.399  14.783
16479W        W88739  37.363  19.114   9.820
16480W        W88740  41.856  33.604  12.478
16481W        W88741   7.273  15.789   0.986
16482W        W88742   1.516  42.901   4.091
16483W        W88743  15.603  41.734   4.082
16484W        W88744  29.124  17.898   3.183
16485W        W88745  35.389  36.753  11.281
16486W        W88746  39.443  11.560  10.132
16487W        W88747  25.530  41.524  12.422
16488W        W88748   2.899  28.812   1.262
16489W        W88749   4.291   0.235   0.411
16490W        W88750   7.788  31.540  11.992
16491W        W88751  34.898  29.153   0.970
16492W        W88752   0.343  17.674   1.838
16493W        W88753  41.415   1.215   3.692
16494W        W88754  21.429  39.708  12.457
16495W        W88755  13.270  23.446  14.377
16496W        W88756   1.459   0.461  14.507
16497W        W88757  28.662  43.918   4.754
16498W        W88758   5.781   8.860  13.289
16499W        W88759  28.137  12.758   3.046
16500W        W88760  36.417  19.107  11.292
16501W        W88761   1.911   5.193  14.165
16502W        W88762   3.545  37.542  13.752
16503W        W88763  14.832  11.142   2.191
16504W        W88764  21.212  14.228   4.303
16505W        W88765   9.702   3.742   4.081
16506W        W88766   8.787  16.467   4.295
16507W        W88767  25.203  15.597   1.384
16508W        W88768  17.527  34.409   1.190
16509W        W88769  11.033  12.719  11.907
16510W        W88770  31.141   5.715  14.449
16511W        W88771  27.122  14.357  11.915
16512W        W88772   5.640  28.168   5.450
16513W        W88773  17.770   2.423   4.246
16514W        W88774  11.146  21.253  12.206
16515W        W88775  44.894  23.250  14.412
16516W        W88776   3.373  12.957  14.703
16517W        W88777  16.735  17.616  14.845
16518W        W88778  38.808   0.317   3.792
16519W        W88779  23.739   9.676   0.306
16520W        W88780  38.637  36.437   3.294
16521W        W88781  15.306  19.107  10.740
16522W        W88782  20.092  41.505   2.384
16523W        W88783  34.207  28.626  13.897
16524W        W88784   4.884  40.843   2.638
16525W        W88785  26.515  29.684  10.614
16526W        W88786  20.657  22.943   3.715
16527W        W88787   6.017   2.411  13.331
16528W        W88788  42.369  10.903  13.845
16529W        W88789  43.612  24.154   2.734
16530W        W88790  37.645  32.601  13.132
16531W        W88791  22.817  28.631  11.970
16532W        W88792  28.697  15.345  13.902
16533W        W88793  15.435   4.317   2.752
16534W        W88794  19.571  38.984  12.822
16535W        W88795  18.561  18.261   3.641
16536W        W88796  23.502  39.515   2.149
16537W        W88797  43.252  32.393   1.394
16538W        W88798  18.306  26.602   0.572
16539W        W88799  40.559  24.459   1.292
16540W        W88800  12.164  33.749  12.682
16541W        W88801   4.151   1.865   3.473
16542W        W88802  25.228  39.537   0.864
16543W        W88803  22.448  29.953   3.032
16544W        W88804  24.804  44.621   2.263
16545W        W88805   9.993  21.150  12.865
16546W        W88806  21.333  38.853  10.692
16547W        W88807   9.612  36.084  11.998
16548W        W88808  19.710   1.792   1.226
16549W        W88809  18.317  35.735  10.716
16550W        W88810  37.317  24.610   1.313
16551W        W88811  10.345   1.330  13.358
16552W        W88812   1.481  22.300   4.052
16553W        W88813  39.678  39.484  13.172
16554W        W88814   6.190  32.314  14.102
16555W        W88815  32.108  43.876   2.854
16556W        W88816  11.367  24.646  10.681
16557W        W88817  29.121   9.183  11.760
16558W        W88818  41.721  21.156   4.541
16559W        W88819   7.390  31.645   1.285
16560W        W88820  31.917  35.498  13.816
16561W        W88821  18.801  17.767  14.854
16562W        W88822  32.979  38.849   4.634
16563W        W88823  20.287  20.948   3.681
16564W        W88824  10.745   6.956   2.903
16565W        W88825  18.727  24.482   0.004
16566W        W88826  15.059  26.453  13.011
16567W        W88827  31.435  42.890  11.758
16568W        W88828   2.519   7.356  11.476
16569W        W88829  40.990  21.079   0.713
16570W        W88830  20.315  41.469   4.701
16571W        W88831  29.525  29.137  10.129
16572W        W88832   3.718  25.383  14.472
16573W        W88833   7.353  37.157  13.214
16574W        W88834  36.412  38.537  12.300
16575W        W88835  38.088  23.161  13.484
16576W        W88836   2.777  21.452   3.960
16577W        W88837   1.358  32.395  13.847
16578W        W88838  30.608   9.064  12.098
16579W        W88839  24.713  40.794   4.139
16580W        W88840  42.745   5.396  13.949
16581W        W88841  19.077  42.417   3.754
16582W        W88842  32.333  30.811   2.351
16583W        W88843  40.639  35.335  11.868
16584W        W88844  36.012  12.170  10.762
16585W        W88845  12.859   5.732  11.807
16586W        W88846   1.156   3.361  13.458
16587W        W88847  30.506   4.696   0.104
16588W        W88848  39.823  15.754   4.562
16589W        W88849  32.126  19.109   1.467
16590W        W88850   8.015  17.740   4.077
16591W        W88851   7.743  25.445   4.578
16592W        W88852  13.945  13.675  11.952
16593W        W88853  41.247   6.098   3.240
16594W        W88854   5.910   8.360  14.418
16595W        W88855  36.970   1.556  11.117
16596W        W88856   1.272   5.270   1.603
16597W        W88857  12.898  44.457  14.265
16598W        W88858  21.009  23.189  10.540
16599W        W88859  18.275  40.849   3.093
16600W        W88860   0.714  17.164   0.937
16601W        W88861   2.245   7.637  12.309
16602W        W88862   1.981  12.295  14.024
16603W        W88863  38.549   5.866   4.681
16604W        W88864  12.891  19.654  13.551
16605W        W88865  38.422  21.670  13.927
16606W        W88866  25.399  30.881  11.210
16607W        W88867  25.758  17.566   4.227
16608W        W88868  33.828  39.571   3.424
16609W        W88869   7.792   1.047   3.193
16610W        W88870  42.499  27.066  11.022
16611W        W88871  10.658  25.062   4.898
16612W        W88872   5.134   6.350  11.524
16613W        W88873  15.627   6.978  14.009
16614W        W88874  25.012  18.901  13.364
16615W        W88875   9.899  38.526  14.868
16616W        W88876  25.118  42.317   5.690
16617W        W88877  21.201  27.251   1.706
16618W        W88878  34.556  44.881  14.267
16619W        W88879  33.412  36.219   3.979
16620W        W88880   3.314  27.261  13.887
16621W        W88881  35.983   0.502  10.635
16622W        W88882  20.272  29.524   2.390
16623W        W88883  40.408  25.061  12.866
16624W        W88884   7.757  23.136   3.290
16625W        W88885  12.080  10.336  12.577
16626W        W88886   6.768  14.016   2.724
16627W        W88887  18.797   8.372   0.783
16628W        W88888  32.826  14.180   4.381
16629W        W88889  36.639   6.498  10.213
16630W        W88890  21.532  30.464  13.460
16631W        W88891  40.760  28.545  10.330
16632W        W88892  15.328  23.466  14.826
16633W        W88893  13.254   3.753   4.542
16634W        W88894  14.632  44.216   2.968
16635W        W88895  36.166   8.352   1.730
16636W        W88896  21.939  13.186   2.393
16637W        W88897  15.314  34.640  11.757
16638W        W88898  15.377  37.415  14.023
16639W        W88899   2.369  11.717  12.619
16640W        W88900  41.945  21.765   2.898
16641W        W88901  22.752  33.097  12.014
16642W        W88902  23.978  31.551   0.277
16643W        W88903  26.016  19.833   3.795
16644W        W88904  20.594  13.287   2.315
16645W        W88905  23.964  13.588   0.841
16646W        W88906  32.527   0.728  13.141
16647W        W88907  18.969  16.817  12.915
16648W        W88908  13.470   3.969   0.726
16649W        W88909  39.582  44.266   0.736
16650W        W88910  35.353  19.502   3.656
16651W        W88911   9.430   2.813  10.994
16652W        W88912   3.888  41.437  11.880
16653W        W88913  31.514  26.745   2.210
16654W        W88914  38.966  36.366  10.868
16655W        W88915  25.099  22.784  11.763
16656W        W88916   2.406  27.936   5.106
16657W        W88917  44.456   7.424  11.511
16658W        W88918  12.259  22.470  14.566
16659W        W88919   4.428   0.926  12.220
16660W        W88920  20.745  20.191   2.422
16661W        W88921  26.383  31.621   2.795
16662W        W88922   1.359  16.968   4.431
16663W        W88923   2.549  16.834  11.485
16664W        W88924  34.616  41.396   1.352
16665W        W88925  15.613  20.536   1.862
16666W        W88926  11.546  33.364   3.016
16667W        W88927  27.800   7.656   4.372
16668W        W88928   6.212   2.448  13.832
16669W        W88929  19.672   3.392   2.673
16670W        W88930  27.210  18.575   1.690
16671W        W88931  28.604  35.012  11.082
16672W        W88932  41.863   5.126  13.785
16673W        W88933  27.095   3.231   1.280
16674W        W88934  44.841  17.263  13.016
16675W        W88935  31.960  25.047   4.977
16676W        W88936  36.436  26.208   4.998
16677W        W88937  21.068  19.114   2.314
16678W        W88938  36.008   9.066   4.048
16679W        W88939  25.283  19.172   4.889
16680W        W88940  35.662  11.610  12.366
16681W        W88941  40.996  12.338   3.708
16682W        W88942  25.213  35.383   1.502
16683W        W88943  27.200   0.891  13.954
16684W        W88944  41.751   9.367   3.697
16685W        W88945  12.117  28.881   1.800
16686W        W88946  15.593   4.353  12.922
16687W        W88947  11.901  24.041   0.499
16688W        W88948   3.857  40.821   2.838
16689W        W88949   0.444  15.710   0.020
16690W        W88950  15.662  15.801  14.040
16691W        W88951  30.566  37.324  12.491
16692W        W88952   8.104   1.525  12.097
16693W        W88953   2.022  16.598  12.667
16694W        W88954  17.554  23.598  13.133
16695W        W88955  33.155  10.083  10.585
16696W        W88956  30.541   2.713   2.716
16697W        W88957  19.756   4.498  13.055
16698W        W88958  43.844  35.503  12.076
16699W        W88959  15.698  25.786   2.891
16700W        W88960  42.915  14.849   2.598
16701W        W88961  26.488  13.698  12.984
16702W        W88962  10.586  41.333  11.225
16703W        W88963  42.963   6.130   3.811
16704W        W88964  19.122  38.527   1.183
16705W        W88965   9.293  17.020  11.566
16706W        W88966  23.072  29.193  11.089
16707W        W88967  43.839  13.251   4.910
16708W        W88968  24.760  26.215   3.213
16709W        W88969  21.062  24.202  11.572
16710W        W88970  24.772  33.939  11.142
16711W        W88971  13.400  43.588  12.022
16712W        W88972  21.507  31.504   1.216
16713W        W88973   1.098  34.902  11.485
16714W        W88974  10.937  12.979   0.090
16715W        W88975  43.424  14.657   2.609
16716W        W88976  18.115   5.616  11.611
16717W        W88977  10.670  40.490  14.384
16718W        W88978  43.094  43.932  11.911
16719W        W88979  44.952  16.875   1.310
16720W        W88980  35.437  34.231  12.537
16721W        W88981  41.101  22.694  11.996
16722W        W88982  19.532  11.367   4.183
16723W        W88983  35.539   1.035   4.992
16724W        W88984  41.288  39.395  11.160
16725W        W88985   8.796  40.261  12.101
16726W        W88986  27.126   1.607   2.790
16727W        W88987  37.473   3.941   3.798
16728W        W88988  30.329   7.170  14.339
16729W        W88989   0.464  31.637  14.574
16730W        W88990  21.357   4.291  14.759
16731W        W88991  32.594   0.989  14.324
16732W        W88992  19.737  32.144   1.719
16733W        W88993   2.867  35.403  14.042
16734W        W88994  27.209  40.416  14.718
16735W        W88995  19.705  35.870   2.211
16736W        W88996  26.180   3.761   2.794
16737W        W88997  29.522   8.111   3.691
16738W        W88998  40.079  23.102   3.183
16739W        W88999  32.800  35.874  14.904
16740W        W89000   9.548  13.858  14.942
16741W        W89001  28.531  32.665   0.980
16742W        W89002   6.436  19.745   0.890
16743W        W89003  16.190  44.849   3.553
16744W        W89004   3.365  19.754   4.617
16745W        W89005  33.979  22.515  14.810
16746W        W89006  12.728  21.110   2.294
16747W        W89007  13.350  18.396  13.862
16748W        W89008   0.254  27.027  11.168
16749W        W89009  11.091   8.781   0.544
16750W        W89010  30.129   7.389  12.479
16751W        W89011  16.776  11.254  12.955
16752W        W89012  11.266   9.938   1.412
16753W        W89013  28.909  44.357   4.589
16754W        W89014  43.266  21.280   1.840
16755W        W89015  42.933  23.903  12.620
16756W        W89016   9.318   8.274   4.395
16757W        W89017  25.268  41.897   1.950
16758W        W89018   1.084  12.406  13.538
16759W        W89019  28.958   9.806  12.423
16760W        W89020  12.589  44.174   0.257
16761W        W89021  28.259  13.044   1.717
16762W        W89022   1.354   1.051   0.363
16763W        W89023  28.533  21.008  11.242
16764W        W89024  29.110  19.447  11.549
16765W        W89025   1.731  15.612   0.901
16766W        W89026   0.377   7.142   0.279
16767W        W89027  25.177   3.730  12.102
16768W        W89028  28.943  26.776  14.533
16769W        W89029  18.252  40.273   2.143
16770W        W89030   5.040  23.245   3.313
16771W        W89031  42.283  41.913   3.746
16772W        W89032  23.435  41.297  11.963
16773W        W89033   1.620  28.551  14.976
16774W        W89034  25.969  36.969   4.513
16775W        W89035  21.756  40.344   2.925
16776W        W89036  28.245   3.908   2.447
16777W        W89037  38.451   2.759   2.633
16778W        W89038  25.266  26.582  11.064
16779W        W89039  35.819  41.943  12.978
16780W        W89040  26.335   2.449   3.683
16781W        W89041   9.443   0.371   1.357
16782W        W89042  39.520  38.915  12.099
16783W        W89043   5.735  25.174   2.700
16784W        W89044  39.342   9.872  10.599
16785W        W89045  35.975   9.261   3.117
16786W        W89046  36.682  10.495  11.070
16787W        W89047  36.616  34.080   4.139
16788W        W89048  10.410  14.076   0.991
16789W        W89049   9.876  31.677  14.219
16790W        W89050  41.519  36.994  11.113
16791W        W89051  16.852  12.056  11.000
16792W        W89052  27.646   9.913   2.779
16793W        W89053   0.462  33.206   4.665
16794W        W89054  25.932  17.641   0.028
16795W        W89055   5.335  33.448   0.279
16796W        W89056  26.290  25.733   0.423
16797W        W89057   0.843  10.787  10.251
16798W        W89058  26.637  26.900   3.218
16799W        W89059  36.342  20.192   1.909
16800W        W89060   8.201  44.833  14.003
16801W        W89061  18.264  29.612  12.536
16802W        W89062  37.803   3.088  14.352
16803W        W89063  35.580   2.243  12.116
16804W        W89064  20.961  36.157   3.771
16805W        W89065  36.708  19.420  14.716
16806W        W89066   1.031   4.858  13.014
16807W        W89067  21.706  21.855   3.504
16808W        W89068  11.253  24.539   4.149
16809W        W89069  44.935   1.153  14.855
16810W        W89070  16.581   2.503  13.478
16811W        W89071  27.012  32.548  14.981
16812W        W89072  11.554  37.980   3.215
16813W        W89073   9.826  44.393   0.531
16814W        W89074   0.279  12.327   2.789
16815W        W89075   7.991  37.955   0.852
16816W        W89076   7.847   5.233  14.500
16817W        W89077  24.076  12.607  14.907
16818W        W89078  42.912  28.581   0.912
16819W        W89079   3.626  19.579  11.231
16820W        W89080  38.880  21.729   2.782
16821W        W89081  44.994  40.384  10.990
16822W        W89082  35.324  37.462  14.686
16823W        W89083  29.725   3.752   2.907
16824W        W89084  27.968  18.086   2.305
16825W        W89085  26.706  11.389   1.035
16826W        W89086  31.157   1.845   3.474
16827W        W89087  33.319  35.799  14.858
16828W        W89088  31.985   9.534  12.501
16829W        W89089   1.676  14.694  13.540
16830W        W89090  24.020  41.474   4.585
16831W        W89091  43.899  23.004  11.192
16832W        W89092  24.598  34.510  13.567
16833W        W89093  19.678  35.602  10.633
16834W        W89094  14.998   4.998   0.834
16835W        W89095  12.780   6.981   0.839
16836W        W89096  39.608  28.509   0.772
16837W        W89097  40.371  42.797  11.577
16838W        W89098  44.126  18.662   2.686
16839W        W89099  40.038  17.274   2.762
16840W        W89100   1.172  15.740   2.132
16841W        W89101  23.269  15.625  14.400
16842W        W89102  27.002  10.414  11.400
16843W        W89103  39.026   5.249  11.655
16844W        W89104  40.636  21.818   1.582
16845W        W89105   6.600  29.989   2.740
16846W        W89106   6.348  30.462   4.531
16847W        W89107   9.804  13.343  13.297
16848W        W89108  39.829   1.597   3.110
16849W        W89109  34.645   0.516   2.738
16850W        W89110  15.709  39.961  13.749
16851W        W89111  26.593  26.006   3.932
16852W        W89112  14.302  33.856   4.197
16853W        W89113  24.230   7.757  13.307
16854W        W89114  13.783  39.249  12.737
16855W        W89115  43.990  40.390  13.451
16856W        W89116  34.233   0.839  12.488
16857W        W89117  43.789  25.055  11.349
16858W        W89118  10.107  12.790   1.324
16859W        W89119   8.625  41.768   2.287
16860W        W89120  28.077  14.659   1.743
16861W        W89121  36.822  40.057  13.860
16862W        W89122  36.901  13.616   2.977
16863W        W89123  24.548  29.405   1.078
16864W        W89124  26.999  27.161  13.682
16865W        W89125   0.512   0.899  13.418
16866W        W89126  15.030  30.340   2.891
16867W        W89127  36.885  18.612   2.203
16868W        W89128  43.070  36.836  11.414
16869W        W89129  25.635  33.924  13.645
16870W        W89130   8.209  28.840  14.889
16871W        W89131   0.929  31.452  14.309
16872W        W89132  31.864   6.999   4.561
16873W        W89133  36.832  11.093  14.031
16874W        W89134  16.326  21.202   3.622
16875W        W89135  14.274   4.202  14.328
16876W        W89136  13.070  12.894   4.132
16877W        W89137  20.587  44.301  14.408
16878W        W89138  12.367  15.730  12.855
16879W        W89139   1.819  16.796  10.672
16880W        W89140  29.172  43.346  13.217
16881W        W89141   4.201   3.397  14.389
16882W        W89142  30.631  27.857   4.517
16883W        W89143   2.949  31.547   4.297
16884W        W89144  32.225  43.888   1.865
16885W        W89145  44.751  28.663  13.939
16886W        W89146   8.134  24.011  11.131
16887W        W89147  18.647  27.751  11.134
16888W        W89148  22.056   6.142  11.225
16889W        W89149  19.060  26.237  11.660
16890W        W89150   0.538  41.377  12.875
16891W        W89151   4.499  36.885  13.190
16892W        W89152   6.336  17.487   5.107
16893W        W89153   8.980  17.663   2.212
16894W        W89154  16.855   9.130   3.516
16895W        W89155  29.713   5.598  14.417
16896W        W89156  12.733  26.504   3.576
16897W        W89157  42.855  35.186   0.430
16898W        W89158  11.179   7.789  13.349
16899W        W89159  19.335  19.591  12.939
16900W        W89160  15.491  17.691   4.600
16901W        W89161  36.899  13.030  11.743
16902W        W89162  35.330  24.364  12.334
16903W        W89163  20.067  19.793  13.282
16904W        W89164   2.849  33.168  12.942
16905W        W89165  43.016  11.112   1.125
16906W        W89166  37.989  39.492  12.130
16907W        W89167  26.555  35.564  13.101
16908W        W89168  22.713  43.488  13.304
16909W        W89169  18.615  10.158  13.429
16910W        W89170  14.525  41.814  11.033
16911W        W89171  36.580  26.070   4.529
16912W        W89172  41.491  28.246   4.905
16913W        W89173   7.251   9.880  11.715
16914W        W89174  38.869  42.546  13.234
16915W        W89175   6.549   3.323  11.539
16916W        W89176  38.051  36.892  13.207
16917W        W89177   6.120  14.756   1.798
16918W        W89178  15.140  24.682   0.345
16919W        W89179  16.526  10.412  11.443
16920W        W89180  19.498  42.357  11.077
16921W        W89181  29.659  41.055  12.494
16922W        W89182  17.358  18.112   4.602
16923W        W89183   1.040   6.828   0.957
16924W        W89184  29.056   6.885  12.769
16925W        W89185  40.047  22.066   4.808
16926W        W89186  29.927  41.519  11.594
16927W        W89187  44.496  34.085   4.302
16928W        W89188  19.965   2.878  11.483
16929W        W89189   2.854  13.808   3.104
16930W        W89190  44.411  42.684  13.377
16931W        W89191   3.836  27.634  12.085
16932W        W89192  36.833   1.750  12.447
16933W        W89193  25.898  31.873   2.712
16934W        W89194  41.633  32.120  12.324
16935W        W89195  14.553  14.366   2.416
16936W        W89196  36.689  23.635  10.729
16937W        W89197  27.518  21.906  14.473
16938W        W89198  28.406  15.657   3.880
16939W        W89199  18.070  43.600   0.335
16940W        W89200   8.351  37.098  11.063
16941W        W89201  13.826   6.667   4.316
16942W        W89202   2.195  27.596   0.315
16943W        W89203  16.064  43.009   2.745
16944W        W89204  14.835  24.092  10.719
16945W        W89205  28.635  11.790   1.024
16946W        W89206  32.152   3.762   1.558
16947W        W89207   8.824  41.611  11.548
16948W        W89208  34.038  38.416  12.439
16949W        W89209   4.915  25.608   4.186
16950W        W89210   2.223  13.776  12.102
16951W        W89211  21.066   2.078  14.798
16952W        W89212  14.091  14.197   4.252
16953W        W89213  30.917  29.057  12.572
16954W        W89214   1.953  22.489   3.269
16955W        W89215  13.427   8.583  10.857
16956W        W89216  35.791  34.551  11.149
16957W        W89217   6.394  18.007   1.437
16958W        W89218  34.901   8.447  12.053
16959W        W89219  30.109  10.363  14.764
16960W        W89220  35.538   1.205  13.533
16961W        W89221  39.801  10.783   3.287
16962W        W89222  22.785  41.202  12.508
16963W        W89223  42.917  43.883   0.164
16964W        W89224  40.703  42.493  12.452
16965W        W89225  21.583  19.353   3.645
16966W        W89226   8.216  20.061   3.308
16967W        W89227   8.438  28.577  13.381
16968W        W89228  41.625  32.401   2.721
16969W        W89229  33.957  15.632   1.303
16970W        W89230  29.414  14.116   3.918
16971W        W89231  14.551  27.556   1.496
16972W        W89232  38.859  41.894   0.328
16973W        W89233  12.581  27.623  14.330
16974W        W89234  30.121  24.225   4.224
16975W        W89235   5.698  23.233  10.480
16976W        W89236   1.995  11.600  11.865
16977W        W89237  44.570  36.026   3.255
16978W        W89238  13.770  29.492  11.474
16979W        W89239  28.017  10.615  12.683
16980W        W89240  11.911  18.781  12.827
16981W        W89241  29.263   2.865   1.804
16982W        W89242  43.868  18.661  14.356
16983W        W89243   4.036  17.231  11.103
16984W        W89244  19.497  43.889   4.617
16985W        W89245   2.282  40.329  11.085
16986W        W89246  21.021  40.287   3.576
16987W        W89247   3.518  26.634  14.860
16988W        W89248   2.276  17.718  11.351
16989W        W89249  24.091  19.593   0.039
16990W        W89250  28.156  12.195  11.581
16991W        W89251  30.676   5.329   3.253
16992W        W89252   9.606   0.689  14.006
16993W        W89253  38.155   8.909  12.484
16994W        W89254   4.180  41.748   3.791
16995W        W89255  29.540   0.297   0.909
16996W        W89256  17.026   6.331  12.047
16997W        W89257  33.152  11.751  14.451
16998W        W89258   5.166  35.628  13.432
16999W        W89259  15.774  31.732   3.493
17000W        W89260  42.224  23.051   2.761
17001W        W89261  40.918   2.341   0.967
17002W        W89262  44.246   2.988  14.459
17003W        W89263  44.848   5.808   1.209
17004W        W89264  38.593  30.036  11.988
17005W        W89265   0.554  44.044  13.611
17006W        W89266   0.710  18.145  13.581
17007W        W89267  11.156  44.501   4.655
17008W        W89268  26.734   6.862   4.651
17009W        W89269  39.024  24.233   3.764
17010W        W89270   2.643   3.880  14.056
17011W        W89271  24.509  39.468  11.087
17012W        W89272   9.190  27.721   2.686
17013W        W89273  35.403   6.170   2.715
17014W        W89274  13.874  43.252  11.104
17015W        W89275  29.943  12.470  11.258
17016W        W89276  24.968  39.416  10.683
17017W        W89277   4.968  37.545  13.825
17018W        W89278   4.317   8.242  12.502
17019W        W89279  38.451   8.255  13.615
17020W        W89280  36.558   9.466   0.916
17021W        W89281  15.015   1.892  14.826
17022W        W89282  25.548  14.807  12.896
17023W        W89283  26.952  22.161  14.846
17024W        W89284  35.952   8.769   1.915
17025W        W89285  32.012   3.966   3.404
17026W        W89286  39.544   9.802   1.899
17027W        W89287  41.835  19.782  11.106
17028W        W89288  33.135  32.479   4.544
17029W        W89289   8.345   0.990  10.768
17030W        W89290  37.393  24.458   2.319
17031W        W89291  19.178  32.952  14.916
17032W        W89292  22.648   5.191  12.859
17033W        W89293  26.149  44.234   2.418
17034W        W89294  22.684  44.462  11.915
17035W        W89295   0.000  16.686   3.241
17036W        W89296  17.453  12.289  11.562
17037W        W89297  27.676  18.244   0.467
17038W        W89298  38.727  25.569  12.602
17039W        W89299  37.324  30.665   0.942
17040W        W89300  10.733  32.098   3.856
17041W        W89301  38.358   4.985   2.137
17042W        W89302  40.742  21.912  11.560
17043W        W89303  16.512  34.096   4.405
17044W        W89304  13.292  12.246   2.646
17045W        W89305  23.433  22.729  10.620
17046W        W89306  42.532   3.900   1.284
17047W        W89307  44.511  40.605   1.901
17048W        W89308  39.389   6.796  11.641
17049W        W89309  39.440  30.385   2.190
17050W        W89310  42.543   7.438   4.202
17051W        W89311  19.229  14.222  13.359
17052W        W89312  17.694   8.965  14.830
17053W        W89313   2.299  37.003  13.607
17054W        W89314  11.150  36.414   0.924
17055W        W89315  41.564  21.073  13.604
17056W        W89316  13.899  13.560  14.337
17057W        W89317  33.526  18.556  10.084
17058W        W89318  17.239  17.748  14.696
17059W        W89319  38.805  29.993  13.753
17060W        W89320   9.419  19.398   1.304
17061W        W89321  27.554   6.944   3.076
17062W        W89322  13.801  21.494  13.430
17063W        W89323  32.344  34.415  11.118
17064W        W89324  27.136  40.294   3.085
17065W        W89325  42.258  28.772   0.199
17066W        W89326  43.582  13.289  13.570
17067W        W89327  25.180  33.726   3.453
17068W        W89328   6.470   5.878   1.833
17069W        W89329  15.993  15.803  12.113
17070W        W89330   4.011  31.078  11.681
17071W        W89331  33.083  16.840   3.696
17072W        W89332  13.525   5.828  11.058
17073W        W89333   3.574  17.304   1.425
17074W        W89334  22.048  42.783   3.869
17075W        W89335  31.026   6.489  14.986
17076W        W89336  33.645  44.978   1.774
17077W        W89337  17.805  12.291  13.817
17078W        W89338  37.463  41.024  11.182
17079W        W89339  33.727  15.083  14.271
17080W        W89340  21.448   5.356  11.472
17081W        W89341  17.672  43.700   1.764
17082W        W89342  27.049  25.609   1.417
17083W        W89343  41.097  40.498  11.513
17084W        W89344  24.662  16.187   2.481
17085W        W89345  37.510  33.578   3.104
17086W        W89346   1.531  11.659  11.690
17087W        W89347  18.634  17.699   3.613
17088W        W89348  33.351  34.379  11.969
17089W        W89349  24.404  33.417  14.330
17090W        W89350  14.415   7.284   3.153
17091W        W89351   4.730  43.525  13.950
17092W        W89352  31.329  10.172  13.863
17093W        W89353  28.540  14.503   2.898
17094W        W89354  12.768  31.598   2.023
17095W        W89355  18.832  16.701   0.370
17096W        W89356   5.477  33.483  13.994
17097W        W89357   3.826   8.319  12.295
17098W        W89358  39.311  30.465   1.238
17099W        W89359  15.870   1.228  11.984
17100W        W89360  30.120  23.569  10.568
17101W        W89361   5.423  34.141  13.424
17102W        W89362  12.940  32.452  12.559
17103W        W89363  21.132  20.397   2.679
17104W        W89364  27.012  43.761  14.660
17105W        W89365  24.498  24.194  12.981
17106W        W89366  19.635  42.517   3.378
17107W        W89367  27.339  44.019  11.498
17108W        W89368  31.050  11.839   1.829
17109W        W89369  44.359  12.585  10.467
17110W        W89370  38.899  10.640  14.779
17111W        W89371  31.231  11.922   1.359
17112W        W89372  13.838  44.274  14.366
17113W        W89373  43.547   1.265   0.449
17114W        W89374  42.512  17.287   3.773
17115W        W89375  19.669  41.884  12.468
17116W        W89376  36.425  17.581   0.763
17117W        W89377  40.425  14.372  14.492
17118W        W89378  27.962   2.929   4.982
17119W        W89379  30.732  32.184   9.783
17120W        W89380  10.615  14.070  13.908
17121W        W89381  12.935  18.554  10.809
17122W        W89382  10.336  24.823   3.999
17123W        W89383   5.679  42.286  13.520
17124W        W89384  24.325  42.751  11.126
17125W        W89385  30.095  36.260  14.949
17126W        W89386  21.596  40.652   4.127
17127W        W89387  24.678  10.610   1.232
17128W        W89388  33.488   5.195  11.562
17129W        W89389  14.141  11.783   0.198
17130W        W89390  41.026  13.066   0.611
17131W        W89391  31.827  26.138  12.504
17132W        W89392  17.201  27.218  14.058
17133W        W89393  23.177  33.072   4.757
17134W        W89394  27.251  34.143  11.245
17135W        W89395   6.817  32.110   3.550
17136W        W89396  35.065  43.304  12.563
17137W        W89397  34.473  21.467  14.990
17138W        W89398  30.931  35.203  12.967
17139W        W89399  42.316  18.099   4.374
17140W        W89400  37.450   7.322   2.736
17141W        W89401   7.336  12.084   1.838
17142W        W89402  23.766   2.261  11.106
17143W        W89403   5.437  44.963  11.063
17144W        W89404   9.268  43.747   3.380
17145W        W89405  19.734  15.842  11.982
17146W        W89406   1.997  24.087   2.504
17147W        W89407   1.210  21.706   0.822
17148W        W89408   9.715  33.006  13.106
17149W        W89409  33.384   8.853  13.628
17150W        W89410   4.444  42.852   2.694
17151W        W89411  44.323  25.222  14.462
17152W        W89412  22.242   3.736  11.229
17153W        W89413  39.797  24.124   0.225
17154W        W89414  42.463  35.284  13.790
17155W        W89415  31.867   2.269  12.068
17156W        W89416  11.067  25.247  12.395
17157W        W89417  34.058  43.299  12.455
17158W        W89418  35.488  44.533   0.913
17159W        W89419  17.627  22.956   0.379
17160W        W89420  24.504   2.951  13.384
17161W        W89421   4.868  20.558  10.812
17162W        W89422  17.170   1.813   2.233
17163W        W89423  29.921  40.077   1.233
17164W        W89424   2.312  18.757   4.855
17165W        W89425  36.841  26.096  13.127
17166W        W89426  29.406  42.628   4.495
17167W        W89427   5.469  40.393   2.156
17168W        W89428  35.590   0.333   3.220
17169W        W89429   6.469  44.399  10.418
17170W        W89430  42.289  30.656   2.256
17171W        W89431  41.491  33.395  14.837
17172W        W89432   7.247  13.090   0.822
17173W        W89433  15.848  10.835  12.236
17174W        W89434  10.187  20.451  11.642
17175W        W89435  37.388  39.115   3.872
17176W        W89436   8.885  33.881   3.202
17177W        W89437  29.779  31.957  12.472
17178W        W89438   3.038  13.270   2.253
17179W        W89439  22.269  27.963   4.257
17180W        W89440  15.596  11.160   1.420
17181W        W89441   4.147  21.670   3.172
17182W        W89442   8.263   2.254   2.836
17183W        W89443  29.504  38.743  10.418
17184W        W89444  24.762  15.908   1.508
17185W        W89445  31.686  31.985  12.574
17186W        W89446  31.440   4.623   3.372
17187W        W89447  40.422  30.929  10.920
17188W        W89448  26.530  22.700   2.221
17189W        W89449   2.410  35.172   0.263
17190W        W89450  39.301  43.817   2.770
17191W        W89451  38.851  15.402   2.440
17192W        W89452  24.898  26.069   3.728
17193W        W89453  32.550   5.226  10.437
17194W        W89454  40.249   3.823  11.684
17195W        W89455   9.737  16.776   4.758
17196W        W89456  10.943  21.646   4.879
17197W        W89457   5.376  32.076   4.695
17198W        W89458  36.712  12.181  14.099
17199W        W89459  19.089   1.474   3.562
17200W        W89460  14.715  36.903  12.149
17201W        W89461   0.393  14.362   0.180
17202W        W89462  26.670   0.866   4.664
17203W        W89463  29.302  40.537  12.798
17204W        W89464  25.439  19.518  11.927
17205W        W89465  27.026  37.569   4.228
17206W        W89466  26.712  36.051  13.079
17207W        W89467   7.846  40.481   4.579
17208W        W89468  14.377  25.658  11.062
17209W        W89469  32.624  32.607  13.361
17210W        W89470  32.966  16.190  14.308
17211W        W89471   2.717  38.429  11.599
17212W        W89472  38.884  21.321  12.035
17213W        W89473  35.852  12.314   1.298
17214W        W89474   1.367  22.995  14.086
17215W        W89475   6.326   4.224  10.761
17216W        W89476  22.038  26.491   3.092
17217W        W89477  15.775  13.706  13.845
17218W        W89478  31.438  20.085   2.832
17219W        W89479   4.921  21.275  13.492
17220W        W89480  19.467  37.883   3.270
17221W        W89481   1.765  38.456  11.867
17222W        W89482  11.151  17.136   2.328
17223W        W89483  29.675   6.815   3.117
17224W        W89484  26.433  40.291  12.860
17225W        W89485  13.101  35.297   1.443
17226W        W89486  26.677  22.252   3.064
17227W        W89487   7.449  13.905   4.287
17228W        W89488   3.639   8.899   0.718
17229W        W89489  15.118   2.301  14.526
17230W        W89490  15.357  11.429   0.399
17231W        W89491  15.147  44.817  10.745
17232W        W89492   5.952   1.452   3.590
17233W        W89493   6.803  31.178  11.227
17234W        W89494  41.192   4.317  13.419
17235W        W89495  29.528   6.649  11.669
17236W        W89496  10.328   8.157   4.255
17237W        W89497  21.067  20.794   0.903
17238W        W89498  24.176  36.234   3.704
17239W        W89499  34.846  28.640  13.038
17240W        W89500  38.313   3.968   4.202
17241W        W89501  32.084  31.533  11.838
17242W        W89502  25.484  34.095   3.238
17243W        W89503  18.288  11.086  12.898
17244W        W89504  28.484  26.644  12.957
17245W        W89505  27.921  43.757   2.290
17246W        W89506  44.974  42.685   2.435
17247W        W89507  41.377  29.205  14.015
17248W        W89508  40.379  32.601   2.156
17249W        W89509  25.874  36.175  12.522
17250W        W89510   7.107  36.919   4.107
17251W        W89511  28.046  31.150   4.591
17252W        W89512  27.707  30.101   4.262
17253W        W89513  23.691  15.354  11.466
17254W        W89514  39.053   3.212  11.067
17255W        W89515  25.502  16.275  12.946
17256W        W89516  39.099   2.420  12.523
17257W        W89517  19.759   3.485   0.715
17258W        W89518  13.258  41.158   1.383
17259W        W89519  38.802  41.284  11.094
17260W        W89520  42.661  13.725  11.417
17261W        W89521  32.180  25.128  12.046
17262W        W89522  33.988   9.664   4.355
17263W        W89523   3.748  26.911   1.813
17264W        W89524  28.573   3.776   0.303
17265W        W89525   5.747  43.327  14.172
17266W        W89526  31.894  44.326  12.476
17267W        W89527  18.275  15.789   3.742
17268W        W89528  33.489  20.166  13.349
17269W        W89529  33.392  34.505  14.283
17270W        W89530  11.687  30.645  12.368
17271W        W89531   8.739  15.953   4.186
17272W        W89532  41.294  28.665  13.791
17273W        W89533  39.552  37.439   0.389
17274W        W89534  25.202  26.732   1.361
17275W        W89535  35.879  21.261   4.812
17276W        W89536  25.019  41.278   1.505
17277W        W89537  19.917  30.610   0.885
17278W        W89538   1.212  18.589   1.118
17279W        W89539   2.815  33.628   2.126
17280W        W89540   3.317  29.480  13.524
17281W        W89541  42.854   6.201   1.380
17282W        W89542   1.476  20.233  13.468
17283W        W89543   9.128   4.921  13.150
17284W        W89544  17.236  33.218  13.032
17285W        W89545  35.884  20.078  13.138
17286W        W89546   0.848   2.273  12.454
17287W        W89547  38.523  22.952   4.123
17288W        W89548  28.869  29.954   3.081
17289W        W89549  41.382  20.183  11.223
17290W        W89550  41.812  42.312  11.440
17291W        W89551   1.770  15.082   0.896
17292W        W89552  14.569  42.279  13.840
17293W        W89553  19.754  14.306  13.144
17294W        W89554  36.345  14.923   3.277
17295W        W89555  36.397  10.626  10.651
17296W        W89556   3.749  26.495  13.796
17297W        W89557  31.541   0.796   3.322
17298W        W89558  21.709  30.217  11.960
17299W        W89559   4.936  33.169  12.451
17300W        W89560  12.733  27.619   2.585
17301W        W89561  10.339   8.943  13.738
17302W        W89562  22.964  25.127  12.115
17303W        W89563  26.544   8.875   4.200
17304W        W89564  13.683  23.024   2.626
17305W        W89565   9.976  10.045   2.711
17306W        W89566  18.168  28.572   3.649
17307W        W89567  19.392  16.792  13.192
17308W        W89568   0.849  10.302   4.868
17309W        W89569  39.939  28.039  12.199
17310W        W89570  20.176  19.454   5.532
17311W        W89571   8.313   9.696   4.262
17312W        W89572   4.706  34.955   1.180
17313W        W89573   6.430  17.540  10.026
17314W        W89574   5.846  33.240   1.835
17315W        W89575  17.815   4.883   3.348
17316W        W89576  23.465  34.856   0.408
17317W        W89577  13.182  26.683   3.383
17318W        W89578  16.818  25.528   2.253
17319W        W89579  34.564  44.312  11.064
17320W        W89580  26.954  13.788  13.279
17321W        W89581  33.883  37.787  10.778
17322W        W89582  27.208  19.240  13.322
17323W        W89583   6.851  41.707   1.768
17324W        W89584   8.731  39.525   4.682
17325W        W89585  15.867  16.704  11.375
17326W        W89586  35.677  13.834   4.868
17327W        W89587  12.248  12.886   3.746
17328W        W89588  41.249   5.490  12.946
17329W        W89589  27.442  22.352   4.859
17330W        W89590  37.897  16.195   4.585
17331W        W89591  44.259  29.361   4.992
17332W        W89592   4.006  17.552  10.699
17333W        W89593  33.619  27.514   2.708
17334W        W89594   3.757  22.148  11.951
17335W        W89595  22.960  30.027  13.320
17336W        W89596  28.523  37.994   0.528
17337W        W89597  41.131  33.880   3.670
17338W        W89598  37.455  36.084   1.525
17339W        W89599  11.722  20.505   4.341
17340W        W89600  27.771  30.429   0.850
17341W        W89601  15.010  20.450  13.826
17342W        W89602  24.678  26.518  10.165
17343W        W89603  35.181  30.443  12.201
17344W        W89604  44.846  29.341   2.865
17345W        W89605  38.205  38.718   3.382
17346W        W89606   6.512  38.321  14.040
17347W        W89607  16.347  29.267   4.111
17348W        W89608   3.709  38.569  12.988
17349W        W89609   7.781  39.121  10.761
17350W        W89610   3.940  21.825   0.154
17351W        W89611  29.134  41.402  11.186
17352W        W89612  32.956  10.401   1.941
17353W        W89613   5.284   5.521   4.724
17354W        W89614   9.325  37.879  14.275
17355W        W89615  24.283  42.094   2.390
17356W        W89616  12.057  38.125   3.285
17357W        W89617  30.607  35.770  14.282
17358W        W89618   6.470  14.776  12.560
17359W        W89619  27.265  17.447  11.033
17360W        W89620   3.228   0.388  12.933
17361W        W89621   2.217  33.497  12.072
17362W        W89622  32.575   7.887  13.290
17363W        W89623   1.583  29.799   1.171
17364W        W89624   2.835  14.341   0.295
17365W        W89625  14.031  19.315  12.541
17366W        W89626  32.990  12.433   3.076
17367W        W89627  17.502  19.105   3.289
17368W        W89628   0.006  32.407   0.685
17369W        W89629  38.190   7.969  10.360
17370W        W89630   6.924  22.961   4.914
17371W        W89631   6.846  32.568   2.348
17372W        W89632  21.526  44.826   1.898
17373W        W89633  23.866   6.221  10.809
17374W        W89634  29.617   6.947  11.173
17375W        W89635  11.302   2.478   0.747
17376W        W89636   3.837   2.335   2.673
17377W        W89637   9.240  10.677  13.684
17378W        W89638  32.681   4.293  12.859
17379W        W89639  34.563  42.220   2.167
17380W        W89640  24.131  18.585   4.229
17381W        W89641   2.653   3.910  11.974
17382W        W89642  41.090   4.911   1.329
17383W        W89643  22.858   3.786  12.521
17384W        W89644   2.406   2.906  14.940
17385W        W89645  21.607  10.969   2.233
17386W        W89646  16.001  16.575  10.838
17387W        W89647  11.199  35.757   3.261
17388W        W89648  27.689  10.675   1.704
17389W        W89649   6.271   8.733  12.446
17390W        W89650  34.969  18.717  13.064
17391W        W89651   2.827   0.625   3.665
17392W        W89652   3.841  16.198   3.270
17393W        W89653   9.490   0.149   3.143
17394W        W89654  14.883  40.329   4.092
17395W        W89655  12.958  36.879  11.539
17396W        W89656  36.061  33.093   0.308
17397W        W89657  38.912  42.959   4.782
17398W        W89658  26.241   4.598  13.906
17399W        W89659   5.882  15.152  11.941
17400W        W89660  13.673   6.257  10.244
17401W        W89661  14.329  21.260   1.961
17402W        W89662  27.555   0.327   2.838
17403W        W89663  22.848  15.989   4.222
17404W        W89664  13.318   2.024   2.185
17405W        W89665   3.322  32.363   0.810
17406W        W89666  17.353  33.537   1.787
17407W        W89667  39.892  35.711   3.511
17408W        W89668   5.887   9.434   1.642
17409W        W89669  32.892  26.335   2.358
17410W        W89670  30.914  14.171  11.462
17411W        W89671  10.093  39.278   0.468
17412W        W89672  38.889  39.518   4.011
17413W        W89673  13.411  41.873   3.751
17414W        W89674  29.026   6.671   1.268
17415W        W89675   0.776  43.386  12.586
17416W        W89676  29.098  41.247  12.003
17417W        W89677   8.265   0.537  13.056
17418W        W89678   0.861  12.875   0.742
17419W        W89679  15.527   3.686  11.663
17420W        W89680  34.324   9.745  14.335
17421W        W89681  29.642  24.738  13.834
17422W        W89682  32.473  18.963   3.338
17423W        W89683   2.826   2.249  12.893
17424W        W89684  17.865  32.116  14.809
17425W        W89685  12.816   8.932  11.539
17426W        W89686  42.820  15.151  11.402
17427W        W89687   1.349  19.363   4.492
17428W        W89688  34.131  34.347   2.320
17429W        W89689  31.030  38.579  10.855
17430W        W89690   6.454  35.335  13.006
17431W        W89691  18.148  22.212   4.548
17432W        W89692  26.500  17.070  13.533
17433W        W89693  27.727  41.937   4.358
17434W        W89694   7.713  24.678  10.524
17435W        W89695  34.794   3.872   4.922
17436W        W89696  39.430  20.987  14.769
17437W        W89697  25.183  28.077  11.525
17438W        W89698  17.599  25.734  12.356
17439W        W89699   5.658  24.691   3.249
17440W        W89700  26.452  20.284   2.683
17441W        W89701  22.562  34.266  12.444
17442W        W89702  18.093  15.037  12.327
17443W        W89703  29.465   5.748  10.564
17444W        W89704  24.182  13.126  12.543
17445W        W89705  43.761  34.551   3.707
17446W        W89706  29.908  39.377   1.432
17447W        W89707  43.603  35.700   2.516
17448W        W89708  37.876  38.239  12.178
17449W        W89709  38.965  39.391   0.211
17450W        W89710   8.407  41.967  14.654
17451W        W89711  24.486  39.577  13.821
17452W        W89712  13.653   7.317   3.646
17453W        W89713  31.683  21.275   4.194
17454W        W89714  15.259   2.941   2.989
17455W        W89715  24.243  32.861   0.508
17456W        W89716  10.404  21.499  13.589
17457W        W89717   0.483   0.674  13.872
17458W        W89718   5.314   6.766  14.813
17459W        W89719  37.969   8.311  13.463
17460W        W89720   9.648  35.673  14.903
17461W        W89721   1.359  36.848  11.754
17462W        W89722  30.381  39.501  14.344
17463W        W89723  33.567  10.407   4.100
17464W        W89724  12.854  42.770  14.003
17465W        W89725  26.733  26.927  11.967
17466W        W89726  13.091   2.733  14.443
17467W        W89727  15.362  25.667   4.210
17468W        W89728   0.726  11.267  11.000
17469W        W89729  19.180   4.290   1.863
17470W        W89730  30.176  15.182   2.387
17471W        W89731   8.601  15.158  10.747
17472W        W89732  16.072  38.243  11.504
17473W        W89733  29.135  29.870   0.817
17474W        W89734  20.105  16.600   9.972
17475W        W89735  14.660  18.270  11.414
17476W        W89736  23.178  27.201   2.333
17477W        W89737  21.615  19.280  12.966
17478W        W89738  19.508  11.826  11.123
17479W        W89739  29.364  15.152   2.860
17480W        W89740  38.220  10.996  14.036
17481W        W89741  31.442   0.410  13.008
17482W        W89742  27.141   8.354   0.974
17483W        W89743  13.031  23.484   2.165
17484W        W89744  31.798  20.704  13.316
17485W        W89745  40.145   2.262   1.409
17486W        W89746  20.998   9.232  13.865
17487W        W89747   7.280  11.198  11.980
17488W        W89748  11.320  16.984   4.211
17489W        W89749   9.964  14.603  11.978
17490W        W89750  15.912   5.907  14.718
17491W        W89751  22.925   2.223   2.468
17492W        W89752  42.201  35.811   2.258
17493W        W89753  11.800  37.177   1.009
17494W        W89754   7.402  42.260  12.879
17495W        W89755  22.611  27.163   2.826
17496W        W89756   4.106  17.786   3.742
17497W        W89757   7.727  20.729   1.283
17498W        W89758  43.246  40.844   1.901
17499W        W89759  44.067  19.529  11.227
17500W        W89760  37.613  30.273  13.260
17501W        W89761  12.642   4.714   4.677
17502W        W89762  31.405   9.632   2.221
17503W        W89763  19.131  23.960  12.470
17504W        W89764  38.291  44.618  12.647
17505W        W89765  25.313  26.054   1.619
17506W        W89766  37.885  36.444   1.711
17507W        W89767  32.343  24.543   0.038
17508W        W89768   7.500  37.250   4.032
17509W        W89769  33.595  27.252  12.505
17510W        W89770  34.646   9.120   4.102
17511W        W89771  13.573  30.639  12.671
17512W        W89772  44.292   0.621   1.512
17513W        W89773  35.338   2.690  11.154
17514W        W89774  18.608  15.550  12.918
17515W        W89775   6.319  22.604  10.692
17516W        W89776  10.288  36.014   1.746
17517W        W89777  42.835   8.873  14.853
17518W        W89778  15.424   8.737   1.839
17519W        W89779  23.568  25.161   1.483
17520W        W89780   3.868  14.275  10.773
17521W        W89781  15.108  25.459   2.182
17522W        W89782   5.495   4.917   0.865
17523W        W89783  40.562  33.014   1.184
17524W        W89784   5.711   8.727  11.237
17525W        W89785  11.474  25.964  11.033
17526W        W89786  30.413  27.478  13.082
17527W        W89787  33.883  17.299   1.903
17528W        W89788  33.998  39.844   0.793
17529W        W89789  36.468  16.310   2.868
17530W        W89790  44.022  30.229  13.584
17531W        W89791   0.959  38.144   2.792
17532W        W89792  19.909  18.511   1.690
17533W        W89793  44.228  11.309   2.364
17534W        W89794   0.792  14.967   4.112
17535W        W89795  14.807  29.584   0.958
17536W        W89796  19.716   7.796   5.026
17537W        W89797  12.928  14.960   3.155
17538W        W89798  24.449  25.960  14.222
17539W        W89799  10.634  27.003   3.364
17540W        W89800  14.543   2.847   2.371
17541W        W89801   0.159  38.264   0.927
17542W        W89802  36.481   2.037   1.246
17543W        W89803  25.639  31.829   4.545
17544W        W89804   1.883  29.121   3.829
17545W        W89805  44.407   2.714  13.941
17546W        W89806  13.709  24.997   4.671
17547W        W89807   6.901   6.980   0.806
17548W        W89808   3.001  32.947   3.247
17549W        W89809  36.389  14.806   2.788
17550W        W89810   7.225   8.975  14.831
17551W        W89811   9.924   6.374   4.642
17552W        W89812  23.102  27.583  13.143
17553W        W89813   0.219   4.350  11.542
17554W        W89814  11.365  32.417   2.351
17555W        W89815   3.513  40.381   2.353
17556W        W89816  33.302  11.163   1.334
17557W        W89817  30.768   0.418  10.102
17558W        W89818  29.452  39.733  13.418
17559W        W89819  38.524   0.483  11.204
17560W        W89820   6.522  18.679  11.546
17561W        W89821  35.508  22.948   4.576
17562W        W89822   7.990   9.788  12.565
17563W        W89823  38.882  10.384   4.980
17564W        W89824  26.467   2.239  12.820
17565W        W89825  11.673  30.447  13.813
17566W        W89826   5.902  29.171  12.194
17567W        W89827  44.448  42.926   4.118
17568W        W89828  15.669  26.970  11.469
17569W        W89829  21.678   5.954   1.482
17570W        W89830  23.204  35.010   1.024
17571W        W89831  16.361  32.622   4.127
17572W        W89832  11.301  36.423   2.297
17573W        W89833  28.370  41.401   4.117
17574W        W89834  23.773  19.961   4.957
17575W        W89835  29.543  22.481   4.435
17576W        W89836  21.094  16.940   0.219
17577W        W89837  37.938  39.873  14.529
17578W        W89838  24.167  13.614   1.329
17579W        W89839   9.726  15.888   1.259
17580W        W89840  37.389  31.353   3.722
17581W        W89841  19.074  34.529   0.064
17582W        W89842  37.805  14.794  11.232
17583W        W89843  34.892   1.374   3.643
17584W        W89844  40.538  20.593   2.241
17585W        W89845   7.101  27.578  14.391
17586W        W89846  31.527  34.114   1.411
17587W        W89847  27.735   4.838  13.728
17588W        W89848   4.971  25.193  11.064
17589W        W89849   9.106  34.684  12.660
17590W        W89850  20.676   8.101   0.191
17591W        W89851  41.891  39.795   4.584
17592W        W89852   3.223  10.163   0.122
17593W        W89853  19.726  33.015   1.381
17594W        W89854  15.687  25.408   4.559
17595W        W89855  33.381  11.701   4.546
17596W        W89856   4.087  13.261   4.667
17597W        W89857   9.311  10.085   2.774
17598W        W89858  17.650  35.529   4.616
17599W        W89859   9.840  26.608   1.337
17600W        W89860  27.984   4.903  14.743
17601W        W89861  41.397  39.968   2.380
17602W        W89862  38.587  27.922   1.852
17603W        W89863   5.885  37.765   2.850
17604W        W89864  10.085   9.834  10.104
17605W        W89865  41.979  41.960  14.942
17606W        W89866  39.439   4.792   0.839
17607W        W89867   2.886   4.251   1.190
17608W        W89868  44.575   2.415   1.003
17609W        W89869  23.636  19.343   0.246
17610W        W89870  29.074   9.355   4.677
17611W        W89871  13.045  20.612  12.805
17612W        W89872  44.255   6.983  11.174
17613W        W89873  13.242  22.690   1.875
17614W        W89874  13.220  27.683  13.593
17615W        W89875  18.625  19.972   3.223
17616W        W89876  35.345  24.489   1.354
17617W        W89877  12.183  26.523  14.331
17618W        W89878  43.861  23.688   2.905
17619W        W89879  37.855  12.867   4.074
17620W        W89880  27.407  30.645  11.600
17621W        W89881  42.665  32.034  14.003
17622W        W89882  18.101   5.491  13.976
17623W        W89883  26.982   7.261   0.305
17624W        W89884  24.543   9.110  12.985
17625W        W89885  16.066  21.144  13.750
17626W        W89886  23.792  12.273  12.697
17627W        W89887  14.969  24.101   1.297
17628W        W89888   9.794   9.810   4.254
17629W        W89889  21.760  12.876   2.034
17630W        W89890  14.743  38.764  11.043
17631W        W89891  13.915  12.908   2.426
17632W        W89892  25.487   8.777   2.560
17633W        W89893  24.202  44.884   0.463
17634W        W89894  33.900   0.832  14.136
17635W        W89895  17.834  28.204   1.326
17636W        W89896  23.492   0.915  12.209
17637W        W89897  42.393  15.504   0.750
17638W        W89898   8.199  21.293  11.884
17639W        W89899  19.289   8.458  11.124
17640W        W89900   7.361  16.227   1.271
17641W        W89901  41.790  10.156   0.886
17642W        W89902   8.155  19.818   1.784
17643W        W89903  24.414  30.110  14.886
17644W        W89904  35.398  19.441  14.822
17645W        W89905  23.450  24.092   1.328
17646W        W89906   9.510  22.985   3.347
17647W        W89907  42.473  17.145   4.265
17648W        W89908  30.278  25.858   3.726
17649W        W89909  18.555  18.076  10.063
17650W        W89910  21.612  13.129  14.887
17651W        W89911  24.998  36.587  13.841
17652W        W89912  41.605  22.640  12.017
17653W        W89913  32.058  44.165  10.797
17654W        W89914  13.626  26.989   4.172
17655W        W89915  10.417  22.476   5.107
17656W        W89916   0.982  18.742   2.483
17657W        W89917  17.342  39.876  12.493
17658W        W89918  18.849  23.194   1.914
17659W        W89919  12.562  36.120   2.810
17660W        W89920   6.971  22.231   1.840
17661W        W89921  20.250   0.139  14.888
17662W        W89922  24.270  39.897  14.511
17663W        W89923   0.758  11.049   2.958
17664W        W89924  35.136  11.376   2.254
17665W        W89925   4.885   9.827   1.482
17666W        W89926  41.433  17.758  12.216
17667W        W89927  36.104  17.970   0.925
17668W        W89928  32.877  23.679  12.921
17669W        W89929   6.545  14.412   0.030
17670W        W89930  26.118  28.051   2.731
17671W        W89931  18.023   6.725  11.516
17672W        W89932  23.152  31.960  10.656
17673W        W89933   0.991  29.735   3.229
17674W        W89934  39.817  23.132  12.614
17675W        W89935  29.556   6.459  10.330
17676W        W89936  23.955  36.286   0.408
17677W        W89937  13.156  43.078   2.394
17678W        W89938  23.031  14.747   3.242
17679W        W89939  42.974   3.847   0.035
17680W        W89940  40.184  33.089  14.871
17681W        W89941   6.875  43.968  14.841
17682W        W89942  32.082  14.245   3.173
17683W        W89943  20.252  26.227   1.498
17684W        W89944  44.383  13.955   5.002
17685W        W89945  20.735   6.947   3.784
17686W        W89946  35.558  28.416   1.471
17687W        W89947  24.745  38.026  14.230
17688W        W89948  12.261  30.874  12.767
17689W        W89949  37.510  34.077   0.436
17690W        W89950  35.308  29.015   4.154
17691W        W89951  37.568  43.208   2.240
17692W        W89952  18.254  26.943  12.003
17693W        W89953   6.655   2.930  10.716
17694W        W89954  35.249  14.626   3.964
17695W        W89955   3.917  32.262  12.977
17696W        W89956   4.046  30.913  13.053
17697W        W89957  26.270  40.556   3.332
17698W        W89958  28.594  36.877  13.562
17699W        W89959  40.845  44.288   4.591
17700W        W89960  24.150   5.472  11.380
17701W        W89961  12.239  40.824  11.550
17702W        W89962   3.961  25.854  14.548
17703W        W89963  24.320  13.368  11.434
17704W        W89964  30.575  17.380  12.953
17705W        W89965  40.347  35.555  11.526
17706W        W89966  19.900  31.615   2.714
17707W        W89967   6.424  17.529   1.216
17708W        W89968  29.147  25.515   1.875
17709W        W89969  44.789  12.981  11.180
17710W        W89970  36.611  29.547   2.110
17711W        W89971  20.717  24.774  13.328
17712W        W89972  27.692  23.599   0.033
17713W        W89973  22.370   6.265   4.565
17714W        W89974  15.117   2.790  11.510
17715W        W89975  11.798  29.614  14.315
17716W        W89976  20.730  30.903   4.500
17717W        W89977  37.993  38.551  13.377
17718W        W89978  21.192  34.743  11.094
17719W        W89979  30.653  43.748   0.707
17720W        W89980   3.798  34.107   2.745
17721W        W89981  34.152  35.385   3.239
17722W        W89982  23.270  18.603   5.633
17723W        W89983  39.305  38.511   2.094
17724W        W89984  13.285  32.941  13.376
17725W        W89985   7.129   7.964   1.384
17726W        W89986  14.318  13.402   1.446
17727W        W89987  40.659  32.519   1.309
17728W        W89988  10.632  12.717   4.678
17729W        W89989  14.341   5.543  13.779
17730W        W89990   7.636  38.324   1.001
17731W        W89991  38.383   4.975  13.473
17732W        W89992   0.963  25.990   0.352
17733W        W89993   4.897  13.885  13.713
17734W        W89994  44.451  40.119   4.012
17735W        W89995  37.775   5.346   0.256
17736W        W89996   2.549  40.516  12.840
17737W        W89997  43.368  13.087   4.734
17738W        W89998   5.439  38.391   2.543
17739W        W89999   8.347  29.035  11.942
17740W        W90000   8.396  40.047   0.728
17741W        W90001   6.650  33.624  14.796
17742W        W90002  37.707  17.572  14.972
17743W        W90003  38.537  34.603  12.536
17744W        W90004  27.647  38.138   0.954
17745W        W90005  10.687  32.950  13.086
17746W        W90006   4.014  33.545   9.789
17747W        W90007  21.124   8.116   3.602
17748W        W90008  12.560  17.661  14.856
17749W        W90009  38.920  15.724   3.565
17750W        W90010  27.214   1.464   1.634
17751W        W90011  31.027  15.190  13.486
17752W        W90012  17.527  19.514  10.682
17753W        W90013  22.666   1.305   0.899
17754W        W90014  19.296  33.979  11.813
17755W        W90015  11.451  22.734   4.069
17756W        W90016   4.686  17.627   0.310
17757W        W90017  41.192  12.277  11.998
17758W        W90018  43.378  31.633   0.975
17759W        W90019   3.506  12.294   2.767
17760W        W90020  13.786   6.279  13.292
17761W        W90021  32.660  20.496  10.405
17762W        W90022   8.447  24.033  14.845
17763W        W90023  38.182   4.783   4.368
17764W        W90024  28.720   4.937  11.040
17765W        W90025  30.733   1.677  10.847
17766W        W90026   4.412  10.129   1.369
17767W        W90027  18.564   8.858   3.884
17768W        W90028  21.611  10.771  12.076
17769W        W90029  35.550   9.780   4.552
17770W        W90030  39.450  40.293  10.761
17771W        W90031  33.549  13.761   4.527
17772W        W90032  35.056  25.930  13.509
17773W        W90033  37.095   8.928   4.685
17774W        W90034  32.226   2.894   4.332
17775W        W90035  29.523  26.010  14.728
17776W        W90036  26.008  28.602  14.440
17777W        W90037  40.299  33.937  14.504
17778W        W90038   9.056  12.574   1.222
17779W        W90039  19.503   6.321   1.570
17780W        W90040  15.061  34.997  14.215
17781W        W90041   5.221  23.978   0.527
17782W        W90042  41.189  15.537  12.097
17783W        W90043  40.356  31.216  12.890
17784W        W90044  28.101  29.757  13.785
17785W        W90045  29.694  30.176   2.779
17786W        W90046  35.113   0.882  11.268
17787W        W90047  24.185  36.078   2.394
17788W        W90048  32.621  15.791  14.318
17789W        W90049  23.839   7.194  11.444
17790W        W90050  38.096  28.136   3.924
17791W        W90051   3.086  28.756  14.346
17792W        W90052  28.444  37.621  12.420
17793W        W90053  36.827  25.957  11.735
17794W        W90054  21.717   4.915  11.534
17795W        W90055  43.270  41.385   0.155
17796W        W90056  35.826  26.453   0.833
17797W        W90057  23.163  15.207  14.075
17798W        W90058  12.864   5.582   4.886
17799W        W90059  22.160  13.181  10.486
17800W        W90060   2.901  25.733  10.618
17801W        W90061  28.728  28.026   0.000
17802W        W90062  32.122  16.634   0.339
17803W        W90063  20.177  40.395   3.554
17804W        W90064  11.888  35.284  11.955
17805W        W90065   4.932  21.083  14.049
17806W        W90066   5.685  34.145   0.436
17807W        W90067  18.029  14.060  10.649
17808W        W90068  42.975  25.383  11.189
17809W        W90069  27.528   0.290   1.929
17810W        W90070  20.111  33.914   4.048
17811W        W90071  22.984   4.660   4.050
17812W        W90072  27.911   5.372   2.862
17813W        W90073  23.143  36.372   2.018
17814W        W90074  18.812  26.918  13.862
17815W        W90075   1.877   4.759   4.092
17816W        W90076   2.726   2.620   4.193
17817W        W90077   7.499  23.045  13.420
17818W        W90078  29.798  33.401  12.100
17819W        W90079   9.256  42.388   0.455
17820W        W90080  11.714   4.237  11.017
17821W        W90081  11.362   1.669  11.164
17822W        W90082  34.708  19.308  12.940
17823W        W90083  13.173   1.467   0.390
17824W        W90084  17.535  37.944   1.869
17825W        W90085  40.741   9.096  10.517
17826W        W90086  40.108  32.030  12.366
17827W        W90087  33.714  29.571   1.922
17828W        W90088   5.412  25.733   4.088
17829W        W90089  36.533  20.818  13.364
17830W        W90090  35.803  30.123   3.188
17831W        W90091  21.564  33.644  14.144
17832W        W90092  25.437  31.691  13.255
17833W        W90093  23.961  33.484   5.106
17834W        W90094   4.712  35.913   3.653
17835W        W90095   7.779   5.848  11.963
17836W        W90096  30.021  39.621  11.267
17837W        W90097  34.883  38.759   3.631
17838W        W90098  10.099  10.304   1.376
17839W        W90099  15.747  25.150  13.782
17840W        W90100  23.978  13.208  11.994
17841W        W90101  22.337  27.009   5.083
17842W        W90102  20.525  27.624   3.615
17843W        W90103  18.239  13.618   1.910
17844W        W90104  10.920  18.814   2.767
17845W        W90105  36.370  38.177  11.947
17846W        W90106  18.707  17.741  10.431
17847W        W90107  36.656  27.866  14.706
17848W        W90108  32.110  40.346   2.736
17849W        W90109   3.565  33.892  12.934
17850W        W90110  31.010  40.850   2.953
17851W        W90111  27.226   0.097   3.627
17852W        W90112  30.445   6.749  12.118
17853W        W90113   9.933   7.753   1.483
17854W        W90114  40.703   8.176  13.840
17855W        W90115  38.887  16.757   3.717
17856W        W90116  24.719  19.660   5.091
17857W        W90117  22.749  18.946  13.869
17858W        W90118  10.209  15.057  11.942
17859W        W90119   9.647   1.222  11.077
17860W        W90120  35.866  28.908  13.394
17861W        W90121   3.471  43.397  13.043
17862W        W90122  38.289  28.196   0.692
17863W        W90123  35.010   6.110  13.422
17864W        W90124  16.336  11.603   2.652
17865W        W90125  38.571  25.491   4.165
17866W        W90126  12.431  28.076   2.436
17867W        W90127  42.919   6.237   3.303
17868W        W90128  13.139  28.642  10.206
17869W        W90129  44.513  40.938   2.321
17870W        W90130   2.336  20.798  11.476
17871W        W90131  44.108  30.547   4.510
17872W        W90132  31.480  25.264   4.334
17873W        W90133  43.504  16.560  12.572
17874W        W90134  35.112  12.574  11.681
17875W        W90135   8.727   3.569  10.255
17876W        W90136  27.430  36.034   2.629
17877W        W90137  14.211  29.867  10.504
17878W        W90138  30.994   7.804  14.457
17879W        W90139  17.131   8.565   3.663
17880W        W90140  40.483   0.393   1.428
17881W        W90141  28.808  33.011   0.309
17882W        W90142  43.540  24.772   3.752
17883W        W90143   7.237   1.463   0.934
17884W        W90144  12.228  13.797   2.847
17885W        W90145  32.025  17.694   3.166
17886W        W90146  24.729  41.944   2.134
17887W        W90147   3.282  33.563   4.169
17888W        W90148  38.876  17.537   3.198
17889W        W90149   1.323  24.938  14.951
17890W        W90150  39.870  25.706  14.267
17891W        W90151  43.079  11.290  11.499
17892W        W90152   0.948  27.675   0.981
17893W        W90153  28.137  41.952  10.579
17894W        W90154   2.363  15.537  12.301
17895W        W90155  29.612  27.555   1.775
17896W        W90156  31.095   9.826   2.932
17897W        W90157  10.215   5.280  10.647
17898W        W90158   0.239  35.530  14.260
17899W        W90159  32.191  40.289   0.671
17900W        W90160  29.314  19.608  11.122
17901W        W90161  40.118   1.963   2.801
17902W        W90162   9.223  37.826   0.236
17903W        W90163  31.079   0.553  12.656
17904W        W90164  37.575  21.748   3.232
17905W        W90165   8.426  24.860  14.696
17906W        W90166  27.679  39.583  12.926
17907W        W90167  32.008  37.481   0.906
17908W        W90168  22.190   7.960  13.015
17909W        W90169  44.381  13.755   2.679
17910W        W90170  15.259  18.254   2.456
17911W        W90171  22.941  26.123   2.656
17912W        W90172  22.062   7.870   3.202
17913W        W90173  30.907  34.408   3.683
17914W        W90174  25.592   0.259   0.670
17915W        W90175  15.787  16.523   3.235
17916W        W90176  12.248  19.000  14.038
17917W        W90177  18.617  44.737  13.996
17918W        W90178   9.797  13.955   4.055
17919W        W90179  37.356  23.035  12.461
17920W        W90180   2.851   7.725  11.607
17921W        W90181  24.457  21.813  14.995
17922W        W90182  23.221  38.803  13.753
17923W        W90183  37.018   0.759   1.615
17924W        W90184  41.520  18.283  14.604
17925W        W90185  26.074   7.851  13.832
17926W        W90186  43.273   2.702   3.817
17927W        W90187  12.793  19.777  10.636
17928W        W90188  11.050   7.732  13.866
17929W        W90189  21.510  16.043  12.407
17930W        W90190  22.591  15.350  13.439
17931W        W90191  25.545  25.608   2.077
17932W        W90192   4.227  37.916  11.619
17933W        W90193  18.251  20.541   3.796
17934W        W90194  20.350  35.790   3.115
17935W        W90195   6.216  34.960  14.875
17936W        W90196  17.332  14.267  13.313
17937W        W90197   4.449  42.407  12.844
17938W        W90198  23.179   5.156  11.886
17939W        W90199  29.160  26.775  13.160
17940W        W90200  14.129  31.085  12.781
17941W        W90201  36.370  42.082  11.867
17942W        W90202  40.573  44.982  14.421
17943W        W90203   2.438  42.880   1.450
17944W        W90204  36.659  31.963  14.859
17945W        W90205  15.293   2.434  13.006
17946W        W90206  17.853  26.236  11.377
17947W        W90207  18.078  44.971   3.972
17948W        W90208  10.259  34.414  11.934
17949W        W90209   2.314  26.552  12.505
17950W        W90210  14.247  33.597  12.592
17951W        W90211  29.661  13.589   1.208
17952W        W90212  14.591  40.461   1.910
17953W        W90213  17.767  20.495   4.119
17954W        W90214  30.326   2.118  10.522
17955W        W90215  38.856  16.097  10.927
17956W        W90216  35.868   7.234  12.116
17957W        W90217  26.117  10.363  11.975
17958W        W90218   6.786  12.299  10.823
17959W        W90219  24.301  38.875  13.474
17960W        W90220  12.814  27.120   4.600
17961W        W90221  38.813  13.802  10.631
17962W        W90222  30.143   9.728   4.742
17963W        W90223  10.284   5.402  13.531
17964W        W90224  25.484  11.335  14.441
17965W        W90225  17.543  38.504  13.931
17966W        W90226  20.246  10.837   2.144
17967W        W90227   7.283  24.957   2.213
17968W        W90228  25.942  15.041   4.170
17969W        W90229  19.876  41.421  12.275
17970W        W90230   8.135   4.225  14.993
17971W        W90231  34.476  27.429   4.165
17972W        W90232  32.656  30.495   1.374
17973W        W90233   9.951  12.525   0.893
17974W        W90234  32.442  43.929  12.918
17975W        W90235  36.277  39.124   0.271
17976W        W90236  38.462  22.684  14.737
17977W        W90237  37.895  41.526  10.706
17978W        W90238  16.803  16.771   4.211
17979W        W90239  15.091  35.514   3.731
17980W        W90240  11.793  17.055  12.346
17981W        W90241  15.202  29.012   4.079
17982W        W90242  30.108  23.273  14.550
17983W        W90243   6.395  20.745  11.241
17984W        W90244  29.120  28.448  12.160
17985W        W90245  35.557  43.515   2.901
17986W        W90246  23.940   2.395   0.461
17987W        W90247  33.847   8.712  13.866
17988W        W90248  24.108  39.238   1.243
17989W        W90249  19.206  28.926   2.585
17990W        W90250  23.245  20.619   0.446
17991W        W90251  31.126  43.453  12.960
17992W        W90252  19.509  17.136   4.128
17993W        W90253  41.392  16.606   1.953
17994W        W90254   0.496   4.182   1.783
17995W        W90255  29.296  33.153  12.834
17996W        W90256   4.630   4.299  13.466
17997W        W90257  11.674  38.304   2.820
17998W        W90258  41.474   0.987  12.402
17999W        W90259  12.342  39.551   3.907
18000W        W90260   8.393  42.822   3.374
18001W        W90261  19.216  23.277   1.537
18002W        W90262   5.320  31.145   4.379
18003W        W90263  22.668  20.616  12.947
18004W        W90264   8.238  39.855  12.508
18005W        W90265  24.283   2.410   2.885
18006W        W90266  13.393  24.562  12.977
18007W        W90267  33.584  38.275  12.218
18008W        W90268  18.271  38.507  12.854
18009W        W90269  44.952   3.003   0.449
18010W        W90270  16.856  35.367  14.073
18011W        W90271  18.012   0.817   3.325
18012W        W90272  42.898   0.505  13.551
18013W        W90273   9.341  36.670  12.462
18014W        W90274  14.963  17.001   4.258
18015W        W90275  39.879  27.695   1.288
18016W        W90276   4.915   3.679  14.652
18017W        W90277   6.635   2.214  11.619
18018W        W90278  34.499   1.409  10.829
18019W        W90279  24.267  20.543  11.011
18020W        W90280   6.375  17.150   4.658
18021W        W90281  43.050  17.600  13.001
18022W        W90282  13.660  35.812  11.091
18023W        W90283  38.596  38.786  11.635
18024W        W90284  33.578  40.605  10.644
18025W        W90285  16.227  16.706   0.397
18026W        W90286  29.957   5.911  14.072
18027W        W90287  23.632  28.561  10.963
18028W        W90288  34.380  27.290  11.214
18029W        W90289  18.765  38.288  13.915
18030W        W90290   5.228   9.645  13.578
18031W        W90291   6.771  15.238   0.529
18032W        W90292   0.304  43.015  11.982
18033W        W90293  22.343  20.140  13.823
18034W        W90294  30.217  35.141  13.247
18035W        W90295  15.602  15.662   2.198
18036W        W90296   8.217  26.520  13.382
18037W        W90297  21.742  17.520   2.767
18038W        W90298   8.283  38.192  12.478
18039W        W90299   5.915  39.550   2.311
18040W        W90300  24.985   2.238   3.661
18041W        W90301  42.778  37.579  13.533
18042W        W90302  22.586  17.650   2.287
18043W        W90303  39.353  12.752  11.234
18044W        W90304   3.943  29.678   1.014
18045W        W90305  13.852  22.230  11.215
18046W        W90306  34.421  35.350  12.566
18047W        W90307  30.853  40.914   4.674
18048W        W90308  11.043  41.510  10.987
18049W        W90309  33.051  15.683   1.291
18050W        W90310  35.417   0.865  11.676
18051W        W90311  19.629  31.608  12.447
18052W        W90312  23.962  20.068  12.620
18053W        W90313  22.242  37.122  11.624
18054W        W90314  24.104  25.811  12.594
18055W        W90315  35.508   8.387   3.135
18056W        W90316  24.503   9.772  14.895
18057W        W90317  30.607  35.585  11.704
18058W        W90318  27.045  32.545   4.201
18059W        W90319  14.731  43.373  14.618
18060W        W90320  37.882  38.267  12.963
18061W        W90321  25.058   4.820   2.156
18062W        W90322  15.365  24.150  10.575
18063W        W90323  23.997  38.485  12.414
18064W        W90324   3.829  35.168   1.260
18065W        W90325  37.445  16.061   2.383
18066W        W90326  39.541   3.755   3.632
18067W        W90327   4.489   8.717   2.155
18068W        W90328   4.370  11.311   0.039
18069W        W90329  18.127  43.071   1.380
18070W        W90330  31.951   0.261   0.807
18071W        W90331  25.287   0.858  12.349
18072W        W90332   7.281  18.872   3.360
18073W        W90333  31.099  19.724   2.379
18074W        W90334   0.486   6.230  12.958
18075W        W90335  32.666  17.637   2.440
18076W        W90336   3.203  17.094  12.196
18077W        W90337  30.444  29.978  11.074
18078W        W90338  13.280  41.995   4.547
18079W        W90339  42.940  38.317   3.610
18080W        W90340   0.740  24.155  12.625
18081W        W90341  19.241   7.576   1.455
18082W        W90342   9.739  39.607   0.788
18083W        W90343   5.845  17.353   3.741
18084W        W90344  25.700   6.237   0.725
18085W        W90345  24.265  24.170   2.601
18086W        W90346  23.048  13.245  11.415
18087W        W90347   1.479  16.560   1.829
18088W        W90348   9.879  39.889  12.533
18089W        W90349   5.160  24.816  11.382
18090W        W90350  31.024  26.902   2.822
18091W        W90351  15.819  34.018  10.447
18092W        W90352   9.367  36.354   1.324
18093W        W90353  33.167   3.819   4.633
18094W        W90354  36.385   5.204  13.475
18095W        W90355  19.769  21.676  11.686
18096W        W90356  43.940   8.380  13.137
18097W        W90357  37.559  27.514  14.876
18098W        W90358  41.808   8.374   4.789
18099W        W90359  39.790  13.265   2.339
18100W        W90360  43.304  15.327  13.343
18101W        W90361  28.575   5.869   3.256
18102W        W90362  40.311  12.727  14.861
18103W        W90363  30.791  19.153  12.306
18104W        W90364  32.914  33.100  11.675
18105W        W90365  40.045  18.593   1.493
18106W        W90366  33.716  24.703  13.158
18107W        W90367  41.034   0.054  11.594
18108W        W90368  32.679  22.185  13.554
18109W        W90369  16.007  29.425   2.355
18110W        W90370  38.407  22.035  12.747
18111W        W90371  23.795  15.554  10.569
18112W        W90372  38.370  43.783  14.794
18113W        W90373  13.873  27.613   9.812
18114W        W90374  22.484  24.609  14.852
18115W        W90375  25.493   8.825   4.097
18116W        W90376  31.509  20.758   1.793
18117W        W90377  15.168  36.975  12.430
18118W        W90378  41.775  18.107   4.195
18119W        W90379  26.938  16.031   3.560
18120W        W90380  16.060  14.651  11.790
18121W        W90381   0.003  41.266  13.733
18122W        W90382  34.014  38.119  11.987
18123W        W90383  10.253  38.417   0.285
18124W        W90384   0.901  41.969  11.605
18125W        W90385   9.629  24.355  14.399
18126W        W90386  27.008   7.173  14.719
18127W        W90387  39.466  13.171   0.895
18128W        W90388  27.975  31.922   0.688
18129W        W90389  17.709  31.383   1.188
18130W        W90390  36.610  36.598  14.010
18131W        W90391   3.907  30.102   4.512
18132W        W90392   3.508  43.395   4.815
18133W        W90393   0.632  26.931  13.236
18134W        W90394  26.271   2.823  13.844
18135W        W90395  36.095  14.682   4.232
18136W        W90396   7.426  22.692  14.355
18137W        W90397   3.893  26.362  12.274
18138W        W90398   2.404  39.865  11.648
18139W        W90399  23.686  33.899  13.779
18140W        W90400  34.820  33.995   0.901
18141W        W90401  21.445  36.594   4.936
18142W        W90402  36.613  18.861  12.018
18143W        W90403   9.920   8.522  11.569
18144W        W90404  34.490  37.001  12.551
18145W        W90405  32.760  18.133  12.902
18146W        W90406  20.652   0.753   4.267
18147W        W90407   7.481  35.863   4.902
18148W        W90408   5.433  25.255   1.869
18149W        W90409  35.244   3.512  11.543
18150W        W90410   8.619  27.819   1.805
18151W        W90411  43.042   3.610   2.669
18152W        W90412   8.845  34.311  14.440
18153W        W90413   9.396  36.226  11.541
18154W        W90414  31.081  14.570  14.750
18155W        W90415  23.049  14.365  13.495
18156W        W90416  39.060  11.703   2.084
18157W        W90417  17.033  19.665   2.256
18158W        W90418  32.934  12.423  11.861
18159W        W90419   4.907   0.526  14.379
18160W        W90420  12.782  16.196   3.786
18161W        W90421  21.436   1.503   4.106
18162W        W90422  43.052  17.895  13.777
18163W        W90423  12.843  14.567  12.904
18164W        W90424  42.513  29.497   2.703
18165W        W90425  23.312  25.518   5.251
18166W        W90426  33.081  33.912   1.683
18167W        W90427  39.579  24.394  12.144
18168W        W90428  34.842   8.140   2.322
18169W        W90429  31.184  42.562   3.835
18170W        W90430   1.743   7.661  12.168
18171W        W90431  35.028  31.220   4.732
18172W        W90432  37.617  10.375   0.923
18173W        W90433  10.285  39.783   0.490
18174W        W90434  32.367  21.686   2.288
18175W        W90435   7.221   1.313  10.734
18176W        W90436  30.481  32.916  10.613
18177W        W90437   8.209  40.137  12.100
18178W        W90438  36.941  38.357  11.062
18179W        W90439   4.974   0.445   4.946
18180W        W90440   5.516   0.670  14.059
18181W        W90441   6.643   5.852  11.117
18182W        W90442  20.196   2.495  11.004
18183W        W90443  13.086  20.979   4.555
18184W        W90444  22.388  16.520   2.307
18185W        W90445  16.054  27.760  14.328
18186W        W90446   1.692  10.790  14.423
18187W        W90447  34.656  39.110   0.542
18188W        W90448  21.711  12.181   3.036
18189W        W90449   5.922   6.367   2.311
18190W        W90450  32.565   7.472  11.858
18191W        W90451  43.100  18.714   1.382
18192W        W90452  22.936   7.715   0.796
18193W        W90453  31.906  21.150   3.743
18194W        W90454   1.815  39.711   0.219
18195W        W90455  41.820  15.059  14.764
18196W        W90456  32.073  40.831   1.996
18197W        W90457  21.612  16.311  10.398
18198W        W90458  43.575   3.134  12.109
18199W        W90459  36.664  15.005  12.450
18200W        W90460   5.828   9.224   0.785
18201W        W90461   8.121  41.307   1.432
18202W        W90462  44.428  19.099   1.232
18203W        W90463   6.335  37.928   2.297
18204W        W90464  18.805  37.316  14.780
18205W        W90465   5.241  11.236  11.263
18206W        W90466   6.775   3.598  13.635
18207W        W90467   8.693   2.898   0.887
18208W        W90468   1.942  44.761   2.849
18209W        W90469  17.003   3.760  14.301
18210W        W90470   3.301   1.358  13.367
18211W        W90471  37.447  16.714   4.082
18212W        W90472  34.410  39.056  11.781
18213W        W90473   6.319  18.946   2.272
18214W        W90474  24.796  29.181  14.753
18215W        W90475  34.042  13.947   4.784
18216W        W90476   9.894  39.903   3.232
18217W        W90477  32.975   5.346   0.806
18218W        W90478  36.532   3.192  13.311
18219W        W90479  20.253  36.572   0.247
18220W        W90480  34.441  35.454  11.150
18221W        W90481  35.990  39.206  14.845
18222W        W90482   6.966  20.330   2.748
18223W        W90483  28.914  18.011  11.919
18224W        W90484  39.766  21.086   1.241
18225W        W90485  40.390   1.330  12.953
18226W        W90486  25.977  30.981   2.601
18227W        W90487  42.416   2.881  14.871
18228W        W90488  29.953   9.385   3.527
18229W        W90489  32.875  39.286  12.432
18230W        W90490   3.994  43.363  12.881
18231W        W90491  34.973   9.327  14.909
18232W        W90492  16.677  27.398  11.474
18233W        W90493  21.261  24.137  10.536
18234W        W90494  33.598   2.891   3.557
18235W        W90495  22.744  20.140  11.372
18236W        W90496   9.273  36.044  14.389
18237W        W90497  31.047  16.624   2.711
18238W        W90498  10.177  30.673  10.637
18239W        W90499   0.307  25.614  12.914
18240W        W90500  30.573  21.859   0.992
18241W        W90501  28.709  20.617   4.175
18242W        W90502   5.046  35.489   3.676
18243W        W90503  43.917  10.686  14.034
18244W        W90504  35.471  43.662   1.968
18245W        W90505   2.844  11.168   1.685
18246W        W90506  31.718  37.831   2.140
18247W        W90507   2.358   7.410  14.872
18248W        W90508  12.674  38.010  10.651
18249W        W90509  14.869  11.686   1.987
18250W        W90510   8.323  29.514  13.368
18251W        W90511  14.710  29.668  12.929
18252W        W90512   8.958   3.668   0.410
18253W        W90513  22.249   0.656  14.904
18254W        W90514   6.732  20.594   1.841
18255W        W90515   7.903  34.994  12.694
18256W        W90516   1.286  30.414   3.865
18257W        W90517  40.724  38.826   3.330
18258W        W90518  43.799  39.695   3.190
18259W        W90519  31.469  15.666  10.648
18260W        W90520  43.468   8.414  12.429
18261W        W90521   4.648  33.193  13.727
18262W        W90522   1.464   2.046   1.498
18263W        W90523   6.992  26.113   4.522
18264W        W90524  23.219  10.551  13.457
18265W        W90525  36.660   5.420  10.367
18266W        W90526  19.773  12.128   0.770
18267W        W90527  29.052  16.252   4.488
18268W        W90528   7.698  43.401  11.513
18269W        W90529   5.950   2.025  12.405
18270W        W90530  38.134  16.367   0.193
18271W        W90531  36.425   8.954  13.112
18272W        W90532  13.187  34.084   0.629
18273W        W90533  14.621   0.973   1.962
18274W        W90534   8.717  14.177   2.647
18275W        W90535   9.691  43.259  10.663
18276W        W90536  37.258   1.382  11.526
18277W        W90537  30.885   2.988   2.440
18278W        W90538  26.182  33.921   1.658
18279W        W90539  11.513  20.489  13.229
18280W        W90540  30.417  26.533   1.663
18281W        W90541  28.997  20.111  13.477
18282W        W90542   9.827  32.173  14.080
18283W        W90543  18.944  14.604   1.675
18284W        W90544  10.336  30.849   2.794
18285W        W90545   4.408  28.622  10.671
18286W        W90546   1.341  35.825   3.608
18287W        W90547  11.279   8.156  14.020
18288W        W90548  15.770  30.587  11.533
18289W        W90549  15.593  16.242  14.361
18290W        W90550  16.824  29.568  11.590
18291W        W90551  44.949  38.943  12.145
18292W        W90552  28.015  21.066   0.366
18293W        W90553   6.680  23.492  11.143
18294W        W90554  35.630  11.368   2.344
18295W        W90555  37.651   1.422  12.293
18296W        W90556  36.986  36.600  12.780
18297W        W90557  23.268  10.738   1.824
18298W        W90558  12.622  25.399   1.906
18299W        W90559  38.594  20.266  14.076
18300W        W90560  19.047  29.329   2.157
18301W        W90561  12.863  14.643  11.922
18302W        W90562  44.207  42.348  14.540
18303W        W90563   3.265   5.377   2.412
18304W        W90564  36.996  27.233  14.938
18305W        W90565  39.075  36.532  13.452
18306W        W90566   0.027   4.348  14.261
18307W        W90567   3.915  22.513  12.364
18308W        W90568  27.726  16.706   2.705
18309W        W90569  18.196  36.580   1.332
18310W        W90570   5.945  11.243  12.408
18311W        W90571  39.276  22.103   1.387
18312W        W90572   3.687  38.472  11.105
18313W        W90573  32.347  21.207  12.110
18314W        W90574  22.441   0.722  14.396
18315W        W90575  29.723  44.114   2.853
18316W        W90576  27.074   5.440  14.959
18317W        W90577  32.289  36.799  11.990
18318W        W90578  38.906  30.155   0.213
18319W        W90579  14.918  22.570   2.295
18320W        W90580  21.131   8.114  13.512
18321W        W90581  12.434  10.240   0.828
18322W        W90582  43.356   3.930   2.280
18323W        W90583  38.385  42.876  11.552
18324W        W90584  19.160  26.683   0.963
18325W        W90585  37.040  19.859  13.999
18326W        W90586  24.068  44.436  14.699
18327W        W90587  10.161  38.456   2.345
18328W        W90588  28.957  43.573   2.766
18329W        W90589  41.831  36.994   2.671
18330W        W90590  34.410  32.306   1.798
18331W        W90591  39.791  22.217  12.578
18332W        W90592  10.623   7.310   4.236
18333W        W90593  10.874   5.453  11.399
18334W        W90594  29.647  16.224   1.856
18335W        W90595   3.723   5.144  10.190
18336W        W90596  38.374  26.558   3.218
18337W        W90597  30.181  10.273   1.373
18338W        W90598  13.234   0.680   0.809
18339W        W90599  22.054   9.232   2.918
18340W        W90600   4.860  11.142  14.929
18341W        W90601  23.646  33.412   2.696
18342W        W90602  22.454  37.528   0.295
18343W        W90603   6.897  14.522   2.782
18344W        W90604   6.284   1.360  10.368
18345W        W90605  15.320  18.360   3.845
18346W        W90606  21.808  15.424   0.344
18347W        W90607  43.120  14.149   3.273
18348W        W90608  33.218  20.919  10.650
18349W        W90609  23.681  20.637  11.501
18350W        W90610   6.718  12.216   1.431
18351W        W90611  23.770  37.500   4.050
18352W        W90612   5.426  11.229   4.610
18353W        W90613  39.954  30.258   2.315
18354W        W90614   2.791  13.564  12.923
18355W        W90615  20.618  26.759   1.299
18356W        W90616  42.734  30.666  13.247
18357W        W90617  20.969  36.109  11.977
18358W        W90618  12.895  17.194   1.367
18359W        W90619  13.363  22.569  11.111
18360W        W90620   4.451  38.692  10.734
18361W        W90621  18.545  15.256   4.649
18362W        W90622   2.311  31.811   0.882
18363W        W90623  17.287   6.726  11.787
18364W        W90624  24.493   7.670   1.871
18365W        W90625   8.138  12.942   1.315
18366W        W90626   7.857  36.090  12.426
18367W        W90627  38.487  38.947  12.104
18368W        W90628   0.724  12.599  10.656
18369W        W90629  11.151  41.277   4.777
18370W        W90630  23.466   5.990  11.705
18371W        W90631  14.703  26.817   5.039
18372W        W90632  32.608  17.371   1.217
18373W        W90633  27.862  39.918   0.015
18374W        W90634  11.380  25.029   2.251
18375W        W90635  26.187  32.000  14.489
18376W        W90636  19.285  38.527   2.695
18377W        W90637  13.316  15.084  12.474
18378W        W90638  32.545  19.690  10.839
18379W        W90639  12.266   9.133   0.172
18380W        W90640  28.117  18.382   3.885
18381W        W90641  34.623  36.846  11.627
18382W        W90642  36.575  29.515   0.304
18383W        W90643  20.803  35.005   4.118
18384W        W90644  27.415  20.165  14.079
18385W        W90645   8.361   5.439  13.820
18386W        W90646   4.692  40.318   1.403
18387W        W90647  11.253  14.373   1.462
18388W        W90648  37.395   9.720  13.073
18389W        W90649  37.523  11.880   1.303
18390W        W90650   9.691  31.114  11.770
18391W        W90651   5.051  28.114  10.255
18392W        W90652  22.224  33.049  11.980
18393W        W90653  23.062   2.836  13.442
18394W        W90654   9.921  14.263  14.865
18395W        W90655  36.181  15.674  11.852
18396W        W90656   2.671   9.612   2.697
18397W        W90657   7.925   2.520   1.087
18398W        W90658  14.605  16.678   0.406
18399W        W90659  28.368  41.350   1.277
18400W        W90660   7.875   0.832  12.885
18401W        W90661   2.520  15.612   5.192
18402W        W90662  12.635  25.183  14.220
18403W        W90663   4.309   9.765   4.232
18404W        W90664  36.469  21.029   0.236
18405W        W90665  37.042  25.926  14.503
18406W        W90666   5.349  39.516  14.961
18407W        W90667  19.037  34.046  13.810
18408W        W90668  31.513  26.754   2.740
18409W        W90669   4.403  37.843   1.099
18410W        W90670  29.005  42.759  14.959
18411W        W90671  12.142  26.063   2.911
18412W        W90672  25.584  36.555  14.441
18413W        W90673  19.548  26.936   3.226
18414W        W90674   9.418  35.545  14.439
18415W        W90675  39.458   6.385   4.372
18416W        W90676  17.540  19.669  11.568
18417W        W90677  31.467  31.938   0.304
18418W        W90678  14.304  29.588  12.200
18419W        W90679  21.095   4.792   2.815
18420W        W90680   0.063  40.503   3.259
18421W        W90681   9.397   9.427   1.889
18422W        W90682  43.045  39.597  14.764
18423W        W90683   3.267  26.715   1.733
18424W        W90684  11.708  20.033  13.392
18425W        W90685   9.814   4.664   4.184
18426W        W90686   7.118  17.936  14.104
18427W        W90687  20.440  21.254   5.053
18428W        W90688   5.690  16.974  13.770
18429W        W90689  12.822  43.128  11.853
18430W        W90690   9.004  10.373  13.060
18431W        W90691  21.041  14.202   1.464
18432W        W90692  10.895  32.526  13.440
18433W        W90693  21.186   6.451  13.000
18434W        W90694  19.597  33.009  12.640
18435W        W90695  44.436  39.398   9.999
18436W        W90696  25.910  20.610  14.743
18437W        W90697  20.517  12.837  12.425
18438W        W90698  31.822  21.227  12.238
18439W        W90699  18.830  37.761  13.945
18440W        W90700  41.592  16.533  12.034
18441W        W90701  20.673  14.300  13.517
18442W        W90702  34.604  36.422  13.951
18443W        W90703   4.809  14.172   1.628
18444W        W90704  15.640  41.765  12.482
18445W        W90705  24.695  12.247   1.555
18446W        W90706  36.989   1.185  14.934
18447W        W90707   4.417  41.944   0.857
18448W        W90708  25.097   3.770  14.885
18449W        W90709  21.567   2.957   1.421
18450W        W90710  39.576  23.348  11.134
18451W        W90711  12.130  19.700   4.170
18452W        W90712  23.072   0.299   0.291
18453W        W90713   9.256  26.699   1.792
18454W        W90714  23.896  16.679   2.351
18455W        W90715  31.396  32.321   0.673
18456W        W90716  41.512  21.532  11.249
18457W        W90717  41.221  19.671  12.069
18458W        W90718  16.218  43.265   4.717
18459W        W90719  30.442   6.355   2.113
18460W        W90720  19.803  22.063  14.426
18461W        W90721  29.875   0.384  13.007
18462W        W90722  17.557  24.708  13.771
18463W        W90723  31.913   2.634  14.941
18464W        W90724  14.636   3.251  12.887
18465W        W90725  32.522  19.805   1.277
18466W        W90726  17.094  12.299   4.368
18467W        W90727  39.525  23.037   0.726
18468W        W90728   4.274  30.956  14.937
18469W        W90729  24.143  33.359  14.769
18470W        W90730   5.966  28.365  12.559
18471W        W90731  33.872  28.594  14.367
18472W        W90732  26.529  31.223   1.804
18473W        W90733  39.856   5.205  12.889
18474W        W90734  12.555  41.272  11.968
18475W        W90735  36.331  26.290   4.145
18476W        W90736  35.987  38.347   0.423
18477W        W90737  11.384  11.709   4.067
18478W        W90738  31.521   0.738  11.641
18479W        W90739  42.375  22.673   4.037
18480W        W90740   5.293  29.177   4.174
18481W        W90741  14.164  38.633   1.831
18482W        W90742  14.810  24.474  13.610
18483W        W90743  26.198   6.353   3.379
18484W        W90744   3.465  34.050   4.149
18485W        W90745   3.453  39.984  11.633
18486W        W90746  38.216   6.105   4.240
18487W        W90747  12.665  16.753   0.043
18488W        W90748   2.411  12.958  13.341
18489W        W90749   9.298  22.718  12.752
18490W        W90750  24.330   3.938  12.548
18491W        W90751  41.368  24.625  10.764
18492W        W90752  32.879   3.517  11.220
18493W        W90753   5.805   6.973  14.971
18494W        W90754  24.108   1.714   1.792
18495W        W90755  35.472  19.953  14.900
18496W        W90756  13.116   3.246  14.582
18497W        W90757  34.482  43.047   4.899
18498W        W90758   0.945  36.045   4.686
18499W        W90759  42.883  39.435   0.383
18500W        W90760  17.360  25.334   0.425
18501W        W90761   0.044   7.325  14.439
18502W        W90762  41.490  33.624   1.612
18503W        W90763   3.264  11.822   1.314
18504W        W90764  42.973  37.872   3.221
18505W        W90765  12.362  20.022   3.826
18506W        W90766  37.053  28.866   4.493
18507W        W90767   0.822  26.227   4.650
18508W        W90768  12.429  15.076   3.244
18509W        W90769  17.306  24.388   1.266
18510W        W90770   6.026  39.359  13.309
18511W        W90771  24.348  33.117   1.373
18512W        W90772  28.125  22.765   3.014
18513W        W90773  25.688  36.825   3.304
18514W        W90774  30.647  19.836   0.995
18515W        W90775  17.727   3.405   2.965
18516W        W90776   7.134  20.117  14.034
18517W        W90777   8.435  41.858   1.653
18518W        W90778  35.577   1.479   0.830
18519W        W90779  39.836  37.302  13.933
18520W        W90780  37.886  15.675   4.722
18521W        W90781   7.612   7.148  12.414
18522W        W90782  38.358  35.976   2.643
18523W        W90783   4.255  15.305  14.963
18524W        W90784  19.677   0.815  14.393
18525W        W90785  22.322  17.133   1.685
18526W        W90786  13.607  12.121   2.194
18527W        W90787  36.317  21.797   3.989
18528W        W90788  34.091   4.678  14.790
18529W        W90789  36.123  39.460  14.035
18530W        W90790  41.027  34.353   2.078
18531W        W90791  11.792  43.872   4.875
18532W        W90792   7.163  29.183   0.734
18533W        W90793  41.580  24.482  11.220
18534W        W90794  28.068  11.036   3.643
18535W        W90795  34.752   5.687   2.110
18536W        W90796  39.657   3.166   5.017
18537W        W90797  43.786  41.576   1.266
18538W        W90798  18.517  42.022  13.270
18539W        W90799  13.298  37.356  12.472
18540W        W90800  44.179  31.098   3.576
18541W        W90801  21.971  28.206   3.365
18542W        W90802  22.762  10.429   0.901
18543W        W90803   2.043   2.584  14.090
18544W        W90804   6.393  25.772  13.144
18545W        W90805  25.095  31.880  11.129
18546W        W90806   9.225  19.806  12.014
18547W        W90807  38.761  26.190   1.726
18548W        W90808  11.214  35.543  12.866
18549W        W90809   4.787   7.594  14.350
18550W        W90810  33.828  14.839   2.321
18551W        W90811  37.513  40.219   2.079
18552W        W90812  38.923  32.026  14.318
18553W        W90813  30.087  42.396   0.725
18554W        W90814   5.157  41.665   2.718
18555W        W90815  16.612  18.337  13.500
18556W        W90816   8.648  18.047   4.594
18557W        W90817  21.150  12.649  10.245
18558W        W90818   3.977  29.959  10.459
18559W        W90819  39.953   8.872  10.764
18560W        W90820  37.279   8.643  11.959
18561W        W90821  38.263  13.689  12.628
18562W        W90822   3.876   1.995  11.591
18563W        W90823  43.837   1.436  11.194
18564W        W90824  20.784  16.187  14.898
18565W        W90825   9.414  13.695   0.426
18566W        W90826  31.606  33.280   0.446
18567W        W90827   0.201  10.647   2.738
18568W        W90828  28.732  31.585  11.906
18569W        W90829  19.433  43.501  10.903
18570W        W90830  11.889  29.338  12.617
18571W        W90831  22.025  40.445  13.888
18572W        W90832  39.971  13.774  12.976
18573W        W90833  10.568   4.956   4.614
18574W        W90834  21.521  42.460   2.222
18575W        W90835   8.125   3.415  10.745
18576W        W90836  35.920  21.984  12.449
18577W        W90837  37.432  12.795   0.354
18578W        W90838  37.203   6.407   0.856
18579W        W90839  41.966  40.969   4.106
18580W        W90840  16.599   9.348  14.999
18581W        W90841  41.877   2.292   1.151
18582W        W90842  22.115   0.933   1.924
18583W        W90843  29.576   8.661   0.196
18584W        W90844   4.811  36.101  10.632
18585W        W90845  17.607   9.788  14.590
18586W        W90846   4.273  12.722  13.889
18587W        W90847  11.316  33.985   1.744
18588W        W90848   0.849  23.006  13.294
18589W        W90849  37.152   4.924   4.195
18590W        W90850  44.982  26.200  12.445
18591W        W90851  43.395  44.081  11.550
18592W        W90852   4.360  37.621  12.005
18593W        W90853  18.562  12.902  13.940
18594W        W90854  28.194   0.795   2.325
18595W        W90855  44.772   9.325  12.442
18596W        W90856   5.253  18.566   0.385
18597W        W90857  18.979   2.321   0.346
18598W        W90858  34.020   0.820   4.245
18599W        W90859   8.719   1.006  14.320
18600W        W90860   5.696  32.431  13.926
18601W        W90861  21.796  25.597  13.427
18602W        W90862   2.402  39.007   2.021
18603W        W90863   1.458  27.138   0.496
18604W        W90864  18.099  19.854   1.450
18605W        W90865  34.418  21.004  13.255
18606W        W90866  13.114  13.785  13.241
18607W        W90867   8.639   6.903  13.147
18608W        W90868  16.731  28.411   3.149
18609W        W90869   3.190  14.105  11.538
18610W        W90870  13.966  23.712  10.784
18611W        W90871  37.972   0.174  10.560
18612W        W90872  29.645  33.565  11.595
18613W        W90873  44.012   1.842   0.736
18614W        W90874  31.402  18.625  13.311
18615W        W90875  42.824  26.625   1.404
18616W        W90876  38.490  21.399  14.992
18617W        W90877   9.323  43.911  14.034
18618W        W90878  23.866  36.506   3.296
18619W        W90879  14.119  42.699   1.441
18620W        W90880  13.891  26.862   2.825
18621W        W90881  36.775   3.200  14.079
18622W        W90882  43.096  11.189  11.998
18623W        W90883  26.635  41.401   2.374
18624W        W90884  26.244  16.567   1.059
18625W        W90885  12.248  41.996   0.959
18626W        W90886   8.690  39.510   0.543
18627W        W90887   8.217  19.167  11.548
18628W        W90888  38.835  10.693  13.386
18629W        W90889   6.828  20.746   2.353
18630W        W90890  36.145   5.633   1.127
18631W        W90891  18.742  44.898   4.610
18632W        W90892   9.762  41.385   4.718
18633W        W90893   8.840  25.709   4.102
18634W        W90894  28.299  33.359   1.945
18635W        W90895   6.366  33.190  14.430
18636W        W90896  17.582   1.932  14.473
18637W        W90897  28.042  37.573  10.607
18638W        W90898  26.701  33.879   0.198
18639W        W90899   3.236  29.425   0.923
18640W        W90900  39.909  27.508  11.462
18641W        W90901  17.066  24.967  14.519
18642W        W90902  40.036  21.161  14.852
18643W        W90903  22.989  43.946  13.408
18644W        W90904  39.581  14.857  12.987
18645W        W90905  35.339  29.733   4.136
18646W        W90906  42.814   5.206   1.628
18647W        W90907  19.637   6.627   0.345
18648W        W90908  27.103  37.444   1.760
18649W        W90909  14.649  13.920   0.248
18650W        W90910  42.418  16.984  11.085
18651W        W90911  42.678  26.541   2.423
18652W        W90912  15.106  13.552  13.289
18653W        W90913  31.443   4.846  13.108
18654W        W90914  19.146  27.653   3.541
18655W        W90915  25.143  18.541   3.679
18656W        W90916  18.286   5.279  13.274
18657W        W90917  17.168  31.983   2.781
18658W        W90918   4.449  30.553   2.125
18659W        W90919   9.256   6.281   1.743
18660W        W90920  34.044  25.026  11.400
18661W        W90921  19.285  41.125  13.167
18662W        W90922  11.702   8.713   3.928
18663W        W90923  11.882  12.415  11.544
18664W        W90924   8.885  22.579   0.058
18665W        W90925   9.482  39.812   4.038
18666W        W90926  32.094  18.156  10.721
18667W        W90927  10.068  16.407   0.696
18668W        W90928  20.562  43.908   0.971
18669W        W90929  32.755   6.327   2.272
18670W        W90930  10.769   0.664  10.645
18671W        W90931  31.338   0.840  10.809
18672W        W90932  14.849  20.586   4.506
18673W        W90933  44.829  35.805  14.023
18674W        W90934   5.372  26.038   5.524
18675W        W90935  41.154  19.320   2.417
18676W        W90936  18.595   7.214  11.989
18677W        W90937  36.204  29.509   4.863
18678W        W90938  11.588  36.884   2.188
18679W        W90939  33.317  35.982  11.945
18680W        W90940  13.169  31.653   0.638
18681W        W90941  31.037  15.016  11.143
18682W        W90942  32.100  33.190   4.681
18683W        W90943  24.199  18.626   0.314
18684W        W90944  24.241   0.676   5.238
18685W        W90945   7.270  44.277  14.221
18686W        W90946  42.871  32.621  12.212
18687W        W90947  23.118  10.898  10.692
18688W        W90948  20.225  29.455  12.993
18689W        W90949   3.391  12.820  11.177
18690W        W90950  24.032  24.450   0.979
18691W        W90951  15.085   2.025   4.130
18692W        W90952  25.589  32.060  12.871
18693W        W90953  14.534  23.150  12.056
18694W        W90954  14.535  42.444  11.667
18695W        W90955   5.604   6.803   1.273
18696W        W90956  37.401  29.296   1.181
18697W        W90957  33.864   5.362  10.632
18698W        W90958  42.766   1.429  13.141
18699W        W90959  12.393  24.205   4.242
18700W        W90960  24.824   3.874   2.313
18701W        W90961  33.329  27.686  13.397
18702W        W90962   2.592   6.396   1.696
18703W        W90963  29.584   1.029   3.722
18704W        W90964  11.349  24.758   3.145
18705W        W90965  16.694  32.331   0.335
18706W        W90966  17.874  24.215   0.769
18707W        W90967   4.819   5.763  11.235
18708W        W90968  36.585   1.380  12.207
18709W        W90969  11.646  12.884   4.268
18710W        W90970  38.510   0.488   1.249
18711W        W90971  25.036   7.577   2.394
18712W        W90972  20.128   2.906  12.390
18713W        W90973   4.367  32.905  10.758
18714W        W90974  19.803  14.395   4.227
18715W        W90975  12.641  25.931   1.781
18716W        W90976  11.146  37.926  11.924
18717W        W90977  10.254  26.076  14.981
18718W        W90978   1.917  21.973   0.445
18719W        W90979  33.363  19.328  12.092
18720W        W90980  15.341   3.424  10.796
18721W        W90981  42.888  36.830  12.509
18722W        W90982   8.828   7.395  13.160
18723W        W90983  13.300  29.520  13.805
18724W        W90984   7.189  10.869   0.026
18725W        W90985  17.927  29.421  14.453
18726W        W90986   3.883   8.447   0.824
18727W        W90987  39.391   2.656   1.650
18728W        W90988  13.190  26.010   4.045
18729W        W90989  18.643  19.839  12.448
18730W        W90990  25.689  18.688  12.601
18731W        W90991  18.323  28.210   4.583
18732W        W90992  19.868  43.813  11.268
18733W        W90993  33.725   3.383   0.166
18734W        W90994  20.454  20.111  11.570
18735W        W90995  14.666   6.673  13.124
18736W        W90996  32.900   4.273   4.629
18737W        W90997   5.024  43.003   0.700
18738W        W90998  22.989  12.546  12.445
18739W        W90999   6.675  30.006   0.936
18740W        W91000   3.423  14.784   2.529
18741W        W91001  35.996  40.471  11.574
18742W        W91002  38.386  44.958  11.758
18743W        W91003  41.493  28.936  12.635
18744W        W91004  23.954  35.197   4.449
18745W        W91005  12.756   6.181   0.380
18746W        W91006  33.486  16.955  14.498
18747W        W91007   8.765  44.440  10.257
18748W        W91008  25.795   1.157   3.782
18749W        W91009  32.929  19.544  11.920
18750W        W91010  10.293  34.168   3.879
18751W        W91011  38.085  13.384  11.005
18752W        W91012  42.076  35.313   2.805
18753W        W91013  22.461  32.368  11.560
18754W        W91014  30.455   0.840  11.889
18755W        W91015   7.678   0.774   0.733
18756W        W91016  36.995  38.156  11.526
18757W        W91017  32.813  41.520  12.908
18758W        W91018  11.154   3.364  13.539
18759W        W91019  38.868  15.717  14.295
18760W        W91020   3.879  31.430  13.385
18761W        W91021  22.217  35.681   4.320
18762W        W91022  30.355  36.270  13.505
18763W        W91023  36.330   3.881   1.395
18764W        W91024  38.284  27.489  11.600
18765W        W91025  29.000  24.991  14.553
18766W        W91026   5.142  26.061  12.510
18767W        W91027   6.435  16.073   1.179
18768W        W91028   4.295  27.178  12.871
18769W        W91029  31.347  19.766  13.020
18770W        W91030  10.038  17.668   1.296
18771W        W91031  14.051  41.408   1.853
18772W        W91032  23.764  21.300  10.632
18773W        W91033   7.209  44.130  13.096
18774W        W91034  16.733  41.382  13.534
18775W        W91035  42.450   1.037  14.633
18776W        W91036  22.706  21.052   3.186
18777W        W91037  34.905  18.566  14.849
18778W        W91038  35.713   1.887  12.577
18779W        W91039  43.384   7.221  13.749
18780W        W91040  28.742  18.017  11.433
18781W        W91041  14.640   0.909  12.122
18782W        W91042  27.282  33.353   0.374
18783W        W91043  18.820  30.601  14.494
18784W        W91044  24.385  23.036  14.332
18785W        W91045  10.269   1.845  10.606
18786W        W91046   5.918   9.866   3.702
18787W        W91047   0.514   5.311   0.184
18788W        W91048  36.433  39.543   2.215
18789W        W91049  32.058  44.491   4.649
18790W        W91050  18.562  42.630   3.809
18791W        W91051   7.807  11.493   4.033
18792W        W91052  35.244  41.447  12.468
18793W        W91053   3.057   8.189  14.069
18794W        W91054  31.496  35.666  13.021
18795W        W91055  37.345  43.974   3.588
18796W        W91056  36.017  21.266  11.691
18797W        W91057  25.251   7.077  13.750
18798W        W91058  19.736  43.747  12.939
18799W        W91059   8.649  16.791  12.080
18800W        W91060  17.205  25.111  11.167
18801W        W91061  25.093  40.274   1.388
18802W        W91062  12.121  23.173  13.646
18803W        W91063  15.554  41.813   0.364
18804W        W91064  16.423  41.151  10.487
18805W        W91065  37.005  18.867   1.730
18806W        W91066  38.546  32.342  11.992
18807W        W91067   7.760  29.089  14.796
18808W        W91068  31.253   1.740  10.815
18809W        W91069  38.941  44.338  13.784
18810W        W91070  18.746  28.935   2.278
18811W        W91071  34.450  28.986   4.898
18812W        W91072  13.326  39.016   0.695
18813W        W91073   9.419  31.421   4.295
18814W        W91074  38.738  10.875   3.289
18815W        W91075   0.265   4.005   1.371
18816W        W91076  36.638  32.957   2.349
18817W        W91077  20.759   2.928  11.821
18818W        W91078  14.369  10.653  12.816
18819W        W91079  31.142   4.417   1.871
18820W        W91080  40.692   1.903   0.017
18821W        W91081  22.468   5.389  12.386
18822W        W91082  20.920   1.298  11.163
18823W        W91083   9.268  32.605   4.429
18824W        W91084  31.595  25.255  14.497
18825W        W91085  33.183  44.808  12.649
18826W        W91086   4.652  14.831   0.431
18827W        W91087  14.039   4.623  13.047
18828W        W91088  39.026  36.830   0.755
18829W        W91089  20.186  12.167   4.263
18830W        W91090  30.072  33.852   4.986
18831W        W91091   8.934  43.030  11.450
18832W        W91092  42.244  34.461   4.880
18833W        W91093   7.676  24.634  14.035
18834W        W91094   9.195   8.568  13.313
18835W        W91095  30.886  32.251  13.130
18836W        W91096  35.414   8.653   3.562
18837W        W91097  17.780  34.156   3.689
18838W        W91098  25.701  22.996  11.517
18839W        W91099   5.227  21.773   1.472
18840W        W91100  20.162  21.599  10.679
18841W        W91101  21.774   0.437  10.887
18842W        W91102  11.905  31.907   2.256
18843W        W91103   3.405  17.538   2.990
18844W        W91104  23.526  24.874   0.612
18845W        W91105   0.381  36.775   3.796
18846W        W91106   0.443  28.618  11.916
18847W        W91107   2.074   6.181  12.011
18848W        W91108   5.731  34.299  11.621
18849W        W91109  15.770   4.813   3.598
18850W        W91110  14.045  34.052   2.303
18851W        W91111  24.766  10.965   3.892
18852W        W91112  30.517   8.209  10.522
18853W        W91113  19.352  41.809  11.484
18854W        W91114  10.393  38.430  13.991
18855W        W91115  22.605  29.647  13.254
18856W        W91116  34.502   5.497  13.081
18857W        W91117  42.092  34.361  12.020
18858W        W91118  44.716  42.866   0.267
18859W        W91119  22.251  34.921  13.088
18860W        W91120  12.315  18.460   2.714
18861W        W91121  15.117  32.778  13.351
18862W        W91122   0.531   5.492   2.231
18863W        W91123  44.433   7.813  10.678
18864W        W91124  20.569   9.576  14.956
18865W        W91125  42.824   3.483  12.485
18866W        W91126  13.273  11.583   3.346
18867W        W91127  19.526  12.246   0.331
18868W        W91128  44.382   4.423  11.126
18869W        W91129  33.661   0.206  10.710
18870W        W91130   0.266  16.149   4.293
18871W        W91131  33.459  18.131  13.512
18872W        W91132  10.534   6.160   1.746
18873W        W91133  12.628   1.260  10.375
18874W        W91134  35.196  24.460   0.572
18875W        W91135  14.179   5.956  14.707
18876W        W91136  22.409  28.228   0.394
18877W        W91137  23.174  17.642   4.087
18878W        W91138   6.815   2.498  11.997
18879W        W91139   2.866   6.197   3.354
18880W        W91140  26.926  37.607  13.801
18881W        W91141  40.424  12.492   5.046
18882W        W91142   2.128  23.498   2.448
18883W        W91143  10.538   3.425  14.500
18884W        W91144  13.869  20.250  10.996
18885W        W91145   7.426   8.568  11.536
18886W        W91146  19.205  39.896  11.980
18887W        W91147   8.282  43.555   4.572
18888W        W91148  30.217  43.922   2.844
18889W        W91149  32.623  20.311  13.835
18890W        W91150  23.450  28.535   4.128
18891W        W91151  40.495  10.667  14.828
18892W        W91152   3.999   4.876   0.776
18893W        W91153  16.465  21.856   0.301
18894W        W91154  30.870  26.591  11.028
18895W        W91155  26.899  39.775   4.930
18896W        W91156   9.658  23.979   4.215
18897W        W91157   8.305   2.203   1.975
18898W        W91158  37.067   3.513   0.008
18899W        W91159  26.545   3.216  12.823
18900W        W91160   4.236  14.743   1.607
18901W        W91161  21.130  22.646  10.513
18902W        W91162  44.200  27.680   0.335
18903W        W91163  25.628  21.232   1.291
18904W        W91164  13.583   7.389   1.708
18905W        W91165  15.238  10.254   4.206
18906W        W91166  28.038  11.967  14.909
18907W        W91167  15.858  20.783  11.521
18908W        W91168  26.522  39.066  14.197
18909W        W91169  43.706  14.703   4.289
18910W        W91170  22.241   8.801  13.776
18911W        W91171  13.705  29.235  14.959
18912W        W91172  25.230  19.829   1.015
18913W        W91173  24.140  39.510   4.245
18914W        W91174   1.581  39.335  13.297
18915W        W91175  13.863  31.495   1.720
18916W        W91176  10.196  19.740  14.497
18917W        W91177  12.586  18.508   0.413
18918W        W91178   2.247  17.844   4.183
18919W        W91179   5.979  27.023  14.374
18920W        W91180   7.219  11.706  10.730
18921W        W91181  29.353   8.816  10.779
18922W        W91182  38.305   6.462   2.207
18923W        W91183  21.905  42.973  14.314
18924W        W91184  39.566  35.245  14.896
18925W        W91185  41.952  10.308   4.870
18926W        W91186   9.080  23.702  11.537
18927W        W91187   1.366  34.928  14.385
18928W        W91188   0.689   3.289   2.901
18929W        W91189   3.000  32.561  14.753
18930W        W91190  34.943  36.398   0.329
18931W        W91191  43.699  12.340  10.933
18932W        W91192  11.090  39.592  14.453
18933W        W91193  13.151  15.329   4.328
18934W        W91194  43.424  31.899   1.405
18935W        W91195  43.286  44.306  11.100
18936W        W91196   3.680  20.524   1.333
18937W        W91197  17.142  28.676   2.747
18938W        W91198  10.422   8.734  12.293
18939W        W91199  40.261  10.831   2.360
18940W        W91200  18.027  22.164  14.853
18941W        W91201   8.644  11.124  12.961
18942W        W91202   8.543  12.413   4.596
18943W        W91203  19.453  38.888   4.251
18944W        W91204  26.701  22.048  12.802
18945W        W91205  29.904  32.551   3.079
18946W        W91206   9.366  17.270  12.067
18947W        W91207  36.121  18.096  14.331
18948W        W91208   3.437  26.465  10.754
18949W        W91209   6.910  33.391  12.889
18950W        W91210   1.293  23.107  10.701
18951W        W91211  28.515  40.982   2.970
18952W        W91212  17.508  36.429   3.654
18953W        W91213   1.970  38.047   1.265
18954W        W91214  13.117  18.578  12.062
18955W        W91215  11.946  41.339   0.810
18956W        W91216  12.676  33.963   1.314
18957W        W91217  38.322  44.510  14.906
18958W        W91218  11.664  18.359  12.989
18959W        W91219  15.086  41.913   3.174
18960W        W91220  12.339  40.537   1.090
18961W        W91221  36.513  13.148   1.004
18962W        W91222  27.060   4.799  10.799
18963W        W91223  12.853  33.453  13.921
18964W        W91224  11.031  34.010  12.967
18965W        W91225  29.484  38.301  12.363
18966W        W91226  25.451   2.382  11.531
18967W        W91227  42.606   4.794   3.036
18968W        W91228  37.404  26.504  10.793
18969W        W91229  38.597  15.187   2.856
18970W        W91230   6.821   4.935  13.860
18971W        W91231   0.539  23.987   4.603
18972W        W91232  27.891   7.253  12.921
18973W        W91233   0.438  12.103   3.248
18974W        W91234  36.619  35.560  14.742
18975W        W91235  31.444  40.219   1.759
18976W        W91236  16.795  29.916  14.953
18977W        W91237  17.998   7.437   2.743
18978W        W91238  40.834  36.833   2.860
18979W        W91239  43.769  33.515  13.644
18980W        W91240  20.997  15.662   4.595
18981W        W91241  11.135  28.947  11.036
18982W        W91242  17.680   9.111   3.505
18983W        W91243  34.379   7.844  13.436
18984W        W91244  44.508  18.244   3.589
18985W        W91245  32.624  14.295  11.967
18986W        W91246   0.887   2.798  10.603
18987W        W91247  32.540  28.697  14.939
18988W        W91248  42.539  42.655   3.128
18989W        W91249  19.255  19.746   0.845
18990W        W91250  12.390   5.199  12.364
18991W        W91251  19.087  18.251   2.807
18992W        W91252  17.688  18.270  10.557
18993W        W91253  30.663  30.604  14.900
18994W        W91254  29.953  16.371  12.020
18995W        W91255  31.505  24.118   0.064
18996W        W91256  16.328  32.686   3.304
18997W        W91257  30.741  44.753   1.895
18998W        W91258  25.099  12.640   1.743
18999W        W91259  22.017  27.319  14.962
19000W        W91260  11.824  16.525   4.595
19001W        W91261  40.346   6.464   0.365
19002W        W91262  24.449   9.787  11.203
19003W        W91263  14.598  15.308  10.693
19004W        W91264  35.425   3.412   0.563
19005W        W91265  20.942  26.036  11.474
19006W        W91266  40.266   5.304   4.322
19007W        W91267  36.894  19.078  12.959
19008W        W91268  25.719  14.819   2.778
19009W        W91269  18.265  17.354   1.567
19010W        W91270  23.954  10.158   4.569
19011W        W91271  24.550  17.079  10.936
19012W        W91272  12.141  13.378   3.124
19013W        W91273  36.609   2.297   3.198
19014W        W91274  23.274  38.000  13.547
19015W        W91275  27.124  42.544  12.818
19016W        W91276  41.376   6.180  11.683
19017W        W91277   6.271  33.974   4.639
19018W        W91278  18.185  26.565  11.183
19019W        W91279  27.641  13.373   0.937
19020W        W91280   0.750  42.730   4.424
19021W        W91281  32.054  20.172  14.463
19022W        W91282  11.208  11.949   1.359
19023W        W91283  41.839  20.843  12.667
19024W        W91284  28.894  39.678   0.568
19025W        W91285  21.748  12.339   2.014
19026W        W91286   0.594  40.113  12.503
19027W        W91287  25.619  15.606   0.150
19028W        W91288  10.152  13.104   5.080
19029W        W91289   2.917   0.836   2.878
19030W        W91290  34.548  24.965  10.548
19031W        W91291  28.554  25.859  10.806
19032W        W91292  15.012   2.890  14.516
19033W        W91293  26.530  32.834   0.259
19034W        W91294  41.817   3.719   3.767
19035W        W91295   4.920  27.595  14.996
19036W        W91296   7.919   5.703   1.724
19037W        W91297  38.465  26.769   2.729
19038W        W91298  22.289  44.720   1.393
19039W        W91299  34.653  12.421  13.087
19040W        W91300  10.101  23.093  14.507
19041W        W91301  20.047   1.863  11.116
19042W        W91302  40.272  39.350  11.100
19043W        W91303  11.914   2.402   3.838
19044W        W91304  42.985  41.306  14.441
19045W        W91305  22.999  44.321   2.245
19046W        W91306  26.757  37.128  14.554
19047W        W91307  30.960   3.401  14.456
19048W        W91308  11.683  13.789  11.418
19049W        W91309  10.165  33.081  13.359
19050W        W91310  14.584   1.488   1.927
19051W        W91311  30.233  18.707   3.358
19052W        W91312  16.370  30.237   4.110
19053W        W91313  22.141  44.438   0.474
19054W        W91314  41.009  11.926   2.111
19055W        W91315  20.319  43.424   2.222
19056W        W91316  40.755  33.681  13.356
19057W        W91317  20.552  23.446   0.218
19058W        W91318   3.442  18.802  14.791
19059W        W91319  31.556  32.381   4.687
19060W        W91320  21.321  43.216  10.739
19061W        W91321   8.136   2.774   4.679
19062W        W91322   5.316   4.362   4.334
19063W        W91323  25.712  24.612   0.448
19064W        W91324  44.979  35.688   3.240
19065W        W91325  41.387  16.648   2.503
19066W        W91326   8.861  13.755  11.129
19067W        W91327   3.181  33.374  11.210
19068W        W91328  25.477   2.702   1.014
19069W        W91329  11.577  35.790   4.607
19070W        W91330  44.324  13.334   1.167
19071W        W91331  16.515  24.981  14.580
19072W        W91332  11.217  16.395   1.392
19073W        W91333  28.934  18.251   1.498
19074W        W91334  13.011  27.067   1.791
19075W        W91335   0.718   9.243   1.263
19076W        W91336  13.541  14.491   4.966
19077W        W91337  14.334  17.645   5.580
19078W        W91338  20.209  29.500   0.100
19079W        W91339  11.142  43.922   2.637
19080W        W91340  15.135  35.305   2.811
19081W        W91341  26.430  34.557   3.525
19082W        W91342  32.588  22.933  10.371
19083W        W91343  41.712   4.229  11.071
19084W        W91344  32.850  26.737   0.292
19085W        W91345  33.985  23.482   1.871
19086W        W91346  19.812  43.505   2.113
19087W        W91347   4.964   7.788  12.660
19088W        W91348  22.515  21.249  14.939
19089W        W91349  31.270   2.318   3.703
19090W        W91350  40.117  39.598  12.868
19091W        W91351  15.214  23.452   4.540
19092W        W91352   2.435   2.361   2.894
19093W        W91353   7.127   4.991   1.429
19094W        W91354  35.058  25.067   0.821
19095W        W91355  18.185  16.699   3.353
19096W        W91356   8.174  24.108  12.523
19097W        W91357  25.210   2.886  12.790
19098W        W91358  12.743  10.954  11.394
19099W        W91359  41.363  25.005   3.629
19100W        W91360  35.673  34.450  10.657
19101W        W91361  23.444  26.549  10.738
19102W        W91362   8.769  17.149  13.830
19103W        W91363  25.889  23.822   1.884
19104W        W91364  28.158   1.951  14.332
19105W        W91365  11.165  24.197   1.144
19106W        W91366  16.609  16.897  12.392
19107W        W91367  41.618   6.857   2.439
19108W        W91368   4.210   0.668   4.605
19109W        W91369  24.500  42.603   4.455
19110W        W91370  30.986  13.562   2.974
19111W        W91371  31.838   8.773   3.194
19112W        W91372  38.979  21.030   3.205
19113W        W91373   1.268  14.949   3.246
19114W        W91374  16.444  25.034  10.712
19115W        W91375  18.632  26.407  11.414
19116W        W91376  22.613  15.760   0.672
19117W        W91377  34.801   8.660  11.605
19118W        W91378  26.524   1.888  11.072
19119W        W91379  23.821  42.515  14.431
19120W        W91380  12.159  27.179  13.539
19121W        W91381   0.166  24.160  11.976
19122W        W91382  16.757  13.284   4.260
19123W        W91383  42.314  14.141  10.677
19124W        W91384  26.852   9.405  10.612
19125W        W91385   6.255  24.626  12.454
19126W        W91386  26.039   5.833   0.657
19127W        W91387  20.300   1.793  11.601
19128W        W91388  24.064  37.950  11.664
19129W        W91389  23.025  33.515  11.091
19130W        W91390  11.129  44.029  13.917
19131W        W91391   4.209  27.057   4.095
19132W        W91392  20.974  25.179   0.521
19133W        W91393  17.138   5.726  12.472
19134W        W91394  26.712  40.499  11.036
19135W        W91395   9.619   8.641   2.886
19136W        W91396   1.989   2.583   2.270
19137W        W91397  16.361   9.297  14.400
19138W        W91398  25.777   9.305  12.164
19139W        W91399  19.978  19.610   1.297
19140W        W91400  39.433  34.522   4.629
19141W        W91401   0.021  40.279  13.444
19142W        W91402   6.160  13.615   2.389
19143W        W91403  22.628  42.030  12.875
19144W        W91404   5.685   6.033  10.661
19145W        W91405  13.630  27.066  12.524
19146W        W91406  31.077  22.291  12.598
19147W        W91407   2.267  25.791  14.846
19148W        W91408   9.381  34.640  12.233
19149W        W91409   7.270  12.904  12.475
19150W        W91410  21.176  37.862  13.396
19151W        W91411  14.306  40.944  12.910
19152W        W91412  17.890   7.741   0.252
19153W        W91413   0.718  15.361  13.989
19154W        W91414   7.667  28.773   4.142
19155W        W91415  16.364  14.183  10.116
19156W        W91416   0.472  21.232   4.595
19157W        W91417  20.610  44.336   4.578
19158W        W91418  12.314  26.240  12.472
19159W        W91419  15.168  37.865  13.844
19160W        W91420  33.436  24.515  14.910
19161W        W91421   4.882   3.106  11.262
19162W        W91422   9.920  34.190   2.593
19163W        W91423  26.121  22.502   2.472
19164W        W91424  44.615  11.692   1.314
19165W        W91425  29.729  26.988   0.696
19166W        W91426  10.485  36.500  10.737
19167W        W91427  22.274  41.941   3.287
19168W        W91428  34.627  36.113  14.575
19169W        W91429  28.408  28.438   4.581
19170W        W91430  16.632   9.640   2.713
19171W        W91431  25.867   1.744   0.348
19172W        W91432  19.693  13.324  13.288
19173W        W91433  13.158   9.986   2.350
19174W        W91434   1.888  43.966  11.493
19175W        W91435  25.237  26.938  12.748
19176W        W91436   0.283  32.353  14.037
19177W        W91437   9.589  43.251   4.359
19178W        W91438  41.060  40.060  10.655
19179W        W91439  14.496   3.694   2.166
19180W        W91440  22.581   2.080  14.783
19181W        W91441   9.422   7.889  12.937
19182W        W91442   3.972   3.815  12.364
19183W        W91443  26.203  17.322   4.191
19184W        W91444   3.297  22.593   4.591
19185W        W91445  33.225  26.401   0.071
19186W        W91446  33.305  36.461  11.726
19187W        W91447  44.390  26.637   1.794
19188W        W91448  25.512  44.530  11.607
19189W        W91449   4.835  14.789  11.216
19190W        W91450  29.054  25.208  11.434
19191W        W91451  16.579  13.325  14.660
19192W        W91452  10.339  21.748  14.498
19193W        W91453  42.871  32.478   4.685
19194W        W91454  34.741  38.976  14.535
19195W        W91455  29.095  36.104  12.936
19196W        W91456  40.614  23.003   1.677
19197W        W91457  13.443   9.799   1.300
19198W        W91458  32.409  30.713   0.944
19199W        W91459  22.735  24.895  14.495
19200W        W91460  18.585  24.069   3.209
19201W        W91461  39.858  15.672   3.639
19202W        W91462  17.614  39.453   0.427
19203W        W91463   8.321   1.044  13.000
19204W        W91464  14.220   5.742   0.777
19205W        W91465  17.133  36.498   1.162
19206W        W91466  32.989  19.968   0.689
19207W        W91467  22.954   1.421   1.330
19208W        W91468   9.897  27.573  13.293
19209W        W91469  27.655  18.591  13.002
19210W        W91470  14.700  27.179   2.238
19211W        W91471  31.533   5.324   0.912
19212W        W91472  41.383  28.056   1.275
19213W        W91473   4.466  14.838  14.259
19214W        W91474  37.876  26.664  10.632
19215W        W91475  43.875  22.633   4.605
19216W        W91476   3.873  15.692  13.529
19217W        W91477  24.291  13.152   0.813
19218W        W91478   9.715  39.987  10.681
19219W        W91479   3.852  14.095   2.672
19220W        W91480  37.063  39.590   2.716
19221W        W91481   3.949  20.454  14.950
19222W        W91482  11.416  42.944  10.629
19223W        W91483  35.866   4.436  14.802
19224W        W91484  31.783  33.001   4.301
19225W        W91485  43.957  15.053  13.035
19226W        W91486   2.738  39.816   3.177
19227W        W91487  38.801  21.138  10.743
19228W        W91488   4.504  30.374   0.503
19229W        W91489  10.820  36.925  12.539
19230W        W91490   4.788  35.473   2.293
19231W        W91491   4.972  37.093  14.071
19232W        W91492   3.483  43.859   3.655
19233W        W91493  12.957  37.076   3.625
19234W        W91494  22.214  26.833   0.056
19235W        W91495  22.832  13.853   1.787
19236W        W91496  38.943  10.768  11.018
19237W        W91497  16.661   2.228  10.670
19238W        W91498  22.728  31.059  13.953
19239W        W91499  20.187  35.593  10.466
19240W        W91500  38.592  32.705   3.554
19241W        W91501   7.745  38.613  10.836
19242W        W91502  35.136  15.390   0.835
19243W        W91503  28.537  20.073  10.834
19244W        W91504  44.288  44.096   2.636
19245W        W91505  12.323  26.680  12.827
19246W        W91506   6.512  15.660  13.920
19247W        W91507  32.663   9.724  13.827
19248W        W91508  16.578  24.181   2.348
19249W        W91509  41.459  11.371   2.829
19250W        W91510  38.601   5.395   4.955
19251W        W91511  14.133   3.195  12.984
19252W        W91512  38.477  23.278  11.962
19253W        W91513  37.900  37.261   5.016
19254W        W91514  33.565   4.364  14.626
19255W        W91515   4.186  22.932  12.472
19256W        W91516  22.370   4.014   2.765
19257W        W91517   3.897  24.273  11.130
19258W        W91518   6.487   3.426  12.775
19259W        W91519  36.993  29.172  12.146
19260W        W91520  41.544  10.696   3.826
19261W        W91521  22.414  25.177   3.131
19262W        W91522  25.706  43.200  12.996
19263W        W91523   3.396   8.191   1.497
19264W        W91524  28.145  40.585   1.277
19265W        W91525  40.569   0.488   3.349
19266W        W91526  13.840  33.892  12.619
19267W        W91527  44.937   3.806   4.387
19268W        W91528  24.302   8.275   4.089
19269W        W91529  28.777  32.179  11.076
19270W        W91530  28.203  18.080  10.727
19271W        W91531  30.201  33.380  12.492
19272W        W91532   9.299   9.369  14.556
19273W        W91533  16.276  20.558  14.990
19274W        W91534   0.239  23.008  12.603
19275W        W91535   5.913  40.433   0.878
19276W        W91536  12.891  25.151   1.512
19277W        W91537   4.484  17.768  10.658
19278W        W91538  12.865   6.122  12.137
19279W        W91539   9.645  13.535   0.887
19280W        W91540  28.364  10.613   0.340
19281W        W91541   6.692  19.270   1.389
19282W        W91542  36.360  18.600   2.274
19283W        W91543  28.625  17.521  12.654
19284W        W91544  20.629  22.422   4.598
19285W        W91545   6.783  44.186  12.016
19286W        W91546  10.690  27.658  11.955
19287W        W91547  40.015  26.451  13.616
19288W        W91548  19.821  42.072  13.711
19289W        W91549  27.005  34.341   4.143
19290W        W91550   6.267   9.912   4.120
19291W        W91551   7.756   9.262   3.785
19292W        W91552  26.650  44.252   1.883
19293W        W91553  30.183  13.334  12.601
19294W        W91554  31.173  20.305  14.635
19295W        W91555  37.260  21.697   3.762
19296W        W91556  14.338  32.510   0.990
19297W        W91557  27.967  40.733   4.654
19298W        W91558  38.843  19.477   2.922
19299W        W91559  18.104   8.633  14.801
19300W        W91560  32.135   8.916  14.229
19301W        W91561   3.916  20.748  12.065
19302W        W91562   1.103  39.290   0.859
19303W        W91563  13.239  16.533  12.083
19304W        W91564  21.301  13.817  13.529
19305W        W91565   8.963  11.182  12.508
19306W        W91566  32.844  30.682   2.253
19307W        W91567  41.889  38.256   4.843
19308W        W91568  31.528   0.246  12.511
19309W        W91569  42.729  19.671   1.404
19310W        W91570  22.606  31.870   4.915
19311W        W91571  40.740  13.714  14.849
19312W        W91572   8.647   3.900  14.357
19313W        W91573  14.082  31.094  13.765
19314W        W91574   1.669  36.153  12.920
19315W        W91575  21.553  41.230   0.749
19316W        W91576   5.713  22.067   4.933
19317W        W91577  26.132  29.922   3.169
19318W        W91578  39.280  33.413   0.865
19319W        W91579  29.034  25.272  13.877
19320W        W91580  42.574  23.410   2.194
19321W        W91581  34.857   1.256   2.181
19322W        W91582  13.721  28.622  14.105
19323W        W91583  37.401   9.088   2.068
19324W        W91584  12.368  39.125  13.294
19325W        W91585  24.015  20.090   1.871
19326W        W91586  26.538  15.827   0.527
19327W        W91587   6.450   3.824  11.681
19328W        W91588  14.700  28.933  11.535
19329W        W91589  24.280   4.792  14.030
19330W        W91590   7.094  43.216   0.912
19331W        W91591  39.289  43.801  13.096
19332W        W91592   4.045  24.881   1.582
19333W        W91593   5.432   4.300   0.036
19334W        W91594  36.305  17.605  14.730
19335W        W91595  39.865  33.021   3.909
19336W        W91596  43.913  34.708   2.327
19337W        W91597  11.924  38.653  14.013
19338W        W91598  33.131  34.915   3.862
19339W        W91599  31.263  32.394  13.848
19340W        W91600   0.553  10.470   0.979
19341W        W91601  42.449  23.272   4.637
19342W        W91602  38.469  43.357   2.413
19343W        W91603   2.167  14.543   0.398
19344W        W91604  28.948  37.993   0.063
19345W        W91605  38.461  36.074  12.383
19346W        W91606  20.514  15.857  12.795
19347W        W91607  11.548  28.180   1.874
19348W        W91608  14.254   4.943   0.415
19349W        W91609  11.774  18.688   3.400
19350W        W91610  22.810  21.036   1.121
19351W        W91611  10.147  18.144  11.134
19352W        W91612  16.339  34.297  11.074
19353W        W91613   9.706  42.267  14.856
19354W        W91614  33.879  32.638  14.848
19355W        W91615  35.578  43.004   2.827
19356W        W91616   7.170  26.418  14.794
19357W        W91617  11.340  14.884  10.392
19358W        W91618   5.204   7.863   3.533
19359W        W91619  38.285  21.346   2.131
19360W        W91620  15.360   6.226   4.738
19361W        W91621  31.921  22.352  14.975
19362W        W91622  23.056  24.956   4.568
19363W        W91623  24.938  20.429   3.259
19364W        W91624  23.639  35.129   3.131
19365W        W91625  33.052  25.672   2.899
19366W        W91626  29.979  31.849  14.484
19367W        W91627  27.941   4.246   0.908
19368W        W91628  37.471  28.609   1.763
19369W        W91629  33.491  14.724   2.744
19370W        W91630  25.314  36.385   4.253
19371W        W91631   3.722  28.456   3.705
19372W        W91632  24.499  29.934  11.559
19373W        W91633  39.657   3.418   2.709
19374W        W91634  15.071  35.139  10.714
19375W        W91635  23.553  26.425  14.345
19376W        W91636  43.316  34.580  10.313
19377W        W91637  17.792   4.803  10.584
19378W        W91638  24.783  11.211  13.739
19379W        W91639  37.977  40.397  11.627
19380W        W91640  30.213  42.701  10.772
19381W        W91641   9.448  29.095   3.145
19382W        W91642  17.777  26.276  12.930
19383W        W91643   7.709   8.246   4.523
19384W        W91644  15.785  18.617   3.749
19385W        W91645  18.425   3.671   4.676
19386W        W91646  14.119  14.962   0.027
19387W        W91647  43.014   3.309   1.647
19388W        W91648  37.845  13.236  11.804
19389W        W91649   8.838  13.880   4.378
19390W        W91650  40.852  41.993   4.009
19391W        W91651   9.886  10.652  14.442
19392W        W91652  22.124   6.684  14.317
19393W        W91653   2.660  31.732   1.282
19394W        W91654  26.612   2.768   4.915
19395W        W91655  39.807  35.319  12.441
19396W        W91656   7.529  18.609  11.779
19397W        W91657  28.600  27.236  10.674
19398W        W91658  11.773  28.966   3.230
19399W        W91659  22.032   5.188   3.267
19400W        W91660  19.140  26.575   1.882
19401W        W91661   8.270  38.436  10.514
19402W        W91662  23.617  27.954   0.745
19403W        W91663  11.196  23.691   1.836
19404W        W91664  11.348  26.047   4.509
19405W        W91665  25.581  38.222  11.579
19406W        W91666  44.871   2.329   3.448
19407W        W91667  28.204   9.630   1.929
19408W        W91668  40.990   0.020  14.740
19409W        W91669  35.571  31.476   0.465
19410W        W91670   6.955  28.184  12.080
19411W        W91671  37.828   1.705  13.365
19412W        W91672  27.340  30.079  12.462
19413W        W91673  22.259  43.308  14.469
19414W        W91674  30.527  18.141  14.456
19415W        W91675  21.014   0.201  13.775
19416W        W91676  42.447  20.057  13.732
19417W        W91677  24.195  21.940   3.321
19418W        W91678  38.260  44.470  11.638
19419W        W91679  31.424  19.181   0.793
19420W        W91680  44.387   5.341   3.836
19421W        W91681   9.188  28.603  11.202
19422W        W91682   1.751   1.459   3.246
19423W        W91683   0.963  42.970  13.398
19424W        W91684  36.956  44.432   4.740
19425W        W91685  31.437  13.894  12.431
19426W        W91686  26.245  30.422   0.731
19427W        W91687  26.533  17.241  11.590
19428W        W91688   1.004  10.793   1.186
19429W        W91689  34.034   3.324  12.329
19430W        W91690   4.138  32.336   2.873
19431W        W91691   8.374   8.868  11.654
19432W        W91692  12.804  40.666  12.579
19433W        W91693  33.068  13.250  13.961
19434W        W91694  41.767  34.576  12.437
19435W        W91695  20.745  29.676  12.346
19436W        W91696   6.364  17.558  12.233
19437W        W91697  23.169   5.921  11.300
19438W        W91698  34.138  38.373   0.401
19439W        W91699  33.838  35.970  13.868
19440W        W91700  43.014  28.538   1.816
19441W        W91701  34.311  37.107   2.179
19442W        W91702   1.042   3.645   2.634
19443W        W91703  16.499  16.739  10.691
19444W        W91704  42.821   6.725  13.782
19445W        W91705   1.715   4.818  13.314
19446W        W91706   9.343  41.035  13.384
19447W        W91707  42.275  20.994   1.843
19448W        W91708  39.531  38.002  12.082
19449W        W91709  40.577  42.412   2.686
19450W        W91710  35.965   8.616   3.417
19451W        W91711   7.910   1.488   0.506
19452W        W91712  40.509  43.788   3.914
19453W        W91713  11.704  17.977  12.626
19454W        W91714  14.160  31.489  14.108
19455W        W91715  25.927  28.592   3.512
19456W        W91716  21.536  34.345  11.113
19457W        W91717  22.769  21.226   2.249
19458W        W91718  12.872  17.570   2.680
19459W        W91719   8.304  21.614   1.889
19460W        W91720  38.016  32.438  13.439
19461W        W91721  37.493  29.757   1.437
19462W        W91722  15.754  15.224   4.809
19463W        W91723  32.518   4.258   3.975
19464W        W91724  33.122  42.165  11.744
19465W        W91725  28.183  19.137  11.465
19466W        W91726  10.435  11.154  12.540
19467W        W91727   2.434  10.260  11.988
19468W        W91728   3.429  22.771   1.383
19469W        W91729  11.357  33.870  12.368
19470W        W91730   4.294  25.690  11.181
19471W        W91731  16.272   1.667  11.173
19472W        W91732  25.548  24.503   3.209
19473W        W91733  32.128  35.503   1.729
19474W        W91734   5.775   6.436  14.989
19475W        W91735   1.666  21.681   1.697
19476W        W91736  14.534   4.518  13.978
19477W        W91737  14.801  32.648   0.715
19478W        W91738  27.784   8.052   4.708
19479W        W91739  26.570  19.012  12.425
19480W        W91740  19.635  42.473   2.866
19481W        W91741  11.270   7.803  12.840
19482W        W91742  17.076  23.053  13.901
19483W        W91743  42.115  36.009  13.209
19484W        W91744  40.622  36.929  11.648
19485W        W91745   4.792   6.768  13.480
19486W        W91746  15.838  21.736  14.968
19487W        W91747  11.719  34.945  12.557
19488W        W91748  20.420   8.751  13.882
19489W        W91749   9.414  27.286  12.503
19490W        W91750  23.519  35.400   3.711
19491W        W91751  43.875  41.997  13.922
19492W        W91752  29.948  35.971   3.079
19493W        W91753  10.158   2.389   4.231
19494W        W91754  36.324   6.747   2.627
19495W        W91755  29.962  39.444  14.041
19496W        W91756  31.326  11.921   2.282
19497W        W91757  10.075   1.479  14.279
19498W        W91758   3.234  37.939  13.651
19499W        W91759  26.894  30.992   3.786
19500W        W91760  30.661  11.060  14.254
19501W        W91761  13.187   7.443  12.052
19502W        W91762  19.330  31.615  12.892
19503W        W91763  25.129  28.144   1.762
19504W        W91764  34.682  21.674  11.991
19505W        W91765  37.523   0.729  14.318
19506W        W91766  37.457  44.385  14.904
19507W        W91767  28.273  24.155  13.433
19508W        W91768  31.628  31.064  12.864
19509W        W91769  35.698  29.135  12.437
19510W        W91770   6.219  12.569   2.691
19511W        W91771  41.989  38.086   0.912
19512W        W91772  40.981  14.205  14.441
19513W        W91773  36.079  16.270   4.420
19514W        W91774  16.679  20.816  13.253
19515W        W91775  29.416   0.322   2.258
19516W        W91776  17.968  43.561   1.359
19517W        W91777   8.301  18.077  14.201
19518W        W91778   4.242  12.623  11.587
19519W        W91779  34.951  34.845   3.253
19520W        W91780  43.750  25.734   3.400
19521W        W91781  22.738  40.893  14.077
19522W        W91782   0.446  24.989   2.173
19523W        W91783  13.211  11.222  10.494
19524W        W91784  31.022   2.672   0.865
19525W        W91785  13.117  33.551  12.538
19526W        W91786  30.966  27.834   2.895
19527W        W91787  19.445  42.327  12.294
19528W        W91788  31.944  28.316  12.878
19529W        W91789  42.052   1.056   4.081
19530W        W91790  41.785  31.380  13.072
19531W        W91791  17.115  42.179   2.698
19532W        W91792  35.927   9.732  13.786
19533W        W91793  10.360  15.282  12.367
19534W        W91794   6.948   1.190   1.267
19535W        W91795   5.358  33.416  12.642
19536W        W91796  26.093  37.642  13.664
19537W        W91797  19.275   5.162   5.631
19538W        W91798  44.734   7.193   3.722
19539W        W91799  11.554  43.924   0.326
19540W        W91800  42.791  15.019   4.295
19541W        W91801  10.153  43.555  13.373
19542W        W91802   9.887  35.138   0.738
19543W        W91803  23.728  25.162   2.378
19544W        W91804  30.535  16.675   2.860
19545W        W91805  43.011  40.316  11.751
19546W        W91806  28.159  26.570   2.623
19547W        W91807  29.408  25.209  13.353
19548W        W91808   0.053   8.335   2.478
19549W        W91809  39.339  33.686   0.384
19550W        W91810  33.928  11.462   2.889
19551W        W91811  41.093  21.676  14.307
19552W        W91812  13.687  16.284  12.067
19553W        W91813  41.160  18.336  11.765
19554W        W91814  13.359  32.385  14.969
19555W        W91815  19.925  42.084   1.826
19556W        W91816  16.688   4.901  14.140
19557W        W91817  25.924  19.286   0.218
19558W        W91818  30.189   5.772   4.157
19559W        W91819   1.517   0.239   2.960
19560W        W91820   3.467  35.985   2.462
19561W        W91821  38.851  30.203   4.019
19562W        W91822  19.103  43.771  13.381
19563W        W91823  37.867   2.021   2.216
19564W        W91824  30.634   0.225   0.325
19565W        W91825  26.087  16.783  13.339
19566W        W91826  32.083  15.148   4.894
19567W        W91827  40.222  11.987  11.988
19568W        W91828  35.925  33.436  13.358
19569W        W91829  19.723   2.683  11.057
19570W        W91830   0.301   2.255  12.610
19571W        W91831  33.367  31.467  13.534
19572W        W91832   9.825  38.287   3.698
19573W        W91833  32.079   2.950  11.699
19574W        W91834  35.496  14.688  12.827
19575W        W91835  20.261  14.084   3.024
19576W        W91836  20.000  12.750   1.687
19577W        W91837  24.351  12.824  13.012
19578W        W91838   7.258  16.308  13.316
19579W        W91839   0.290   0.882   2.853
19580W        W91840  34.283  44.844   1.310
19581W        W91841   7.268  17.270   0.743
19582W        W91842  33.017  11.124  12.942
19583W        W91843  33.055   3.409  13.837
19584W        W91844  10.160  36.932  12.088
19585W        W91845  21.042   2.210  10.253
19586W        W91846  26.958   6.163   9.946
19587W        W91847  39.955  33.016   0.882
19588W        W91848  21.910  39.827  10.684
19589W        W91849   5.706  16.658   1.655
19590W        W91850  25.523  21.440   0.461
19591W        W91851  35.147   9.215   5.136
19592W        W91852  34.488  37.389  14.789
19593W        W91853  38.428  17.242   1.419
19594W        W91854  41.579  44.013  14.779
19595W        W91855  11.245   0.035   1.470
19596W        W91856  17.246  14.629   0.086
19597W        W91857  12.313   6.850  13.188
19598W        W91858  15.317  10.911   0.413
19599W        W91859  35.340  24.085  10.424
19600W        W91860  43.056   5.162  13.084
19601W        W91861  18.267  44.920  10.721
19602W        W91862  21.805  15.818   0.704
19603W        W91863  15.004  40.557  13.992
19604W        W91864  17.561   8.346  13.041
19605W        W91865  24.948  43.437   4.838
19606W        W91866  34.232  33.412   4.027
19607W        W91867  18.979   3.549  11.606
19608W        W91868  14.717  38.066  14.567
19609W        W91869   3.570  44.252  13.229
19610W        W91870  43.836  41.204   4.218
19611W        W91871   3.388  31.557   0.328
19612W        W91872  25.532  42.952  13.419
19613W        W91873   8.625  10.708   0.782
19614W        W91874  28.454  28.444   1.690
19615W        W91875  24.214  40.286  10.584
19616W        W91876  31.517   0.449   1.268
19617W        W91877  26.655  25.048  14.271
19618W        W91878  44.814  23.477  11.152
19619W        W91879  43.424  16.120   0.443
19620W        W91880  28.432  17.412  13.862
19621W        W91881  36.514   6.863   0.454
19622W        W91882   8.939  26.779   4.154
19623W        W91883  42.534  21.562  13.351
19624W        W91884  42.239  23.131   4.179
19625W        W91885  22.256  14.319  11.027
19626W        W91886  13.442  27.463   5.270
19627W        W91887  35.525  28.739   0.179
19628W        W91888  29.875  15.609   2.392
19629W        W91889  35.434   9.675  11.078
19630W        W91890  44.338  30.576  10.368
19631W        W91891  15.470  41.117  13.585
19632W        W91892  37.926  28.472   0.452
19633W        W91893   1.879  34.222  13.833
19634W        W91894  15.833  42.873  14.495
19635W        W91895   3.766  22.591   3.259
19636W        W91896  32.954   0.827  12.798
19637W        W91897   9.673  10.583   3.643
19638W        W91898   3.087  28.050   3.345
19639W        W91899  12.099  13.331  10.275
19640W        W91900   6.441  12.617  14.992
19641W        W91901  14.313  17.158  10.294
19642W        W91902   7.073   7.424   0.532
19643W        W91903  33.685  38.626   0.420
19644W        W91904  17.613  19.186   2.779
19645W        W91905  30.903  31.974   1.826
19646W        W91906  27.520  11.953  14.785
19647W        W91907   9.397   2.316  13.414
19648W        W91908  25.434  14.629   0.488
19649W        W91909   0.981  32.588   0.865
19650W        W91910  27.066  19.141   4.909
19651W        W91911  19.675  21.598   4.387
19652W        W91912  32.988  28.879   1.747
19653W        W91913  36.959  35.503   3.305
19654W        W91914  37.266  44.287  11.988
19655W        W91915  13.141  19.821  10.019
19656W        W91916  27.656  42.489  12.191
19657W        W91917  29.559  40.799   4.073
19658W        W91918   9.100   2.897   4.686
19659W        W91919  13.805  17.989   4.139
19660W        W91920  19.826  26.556  10.615
19661W        W91921   8.264  32.239   1.232
19662W        W91922  20.777  26.053   5.401
19663W        W91923  32.616  12.783  12.034
19664W        W91924  16.189  44.691  13.483
19665W        W91925  15.802  13.128   3.461
19666W        W91926  43.423  25.151  11.014
19667W        W91927  40.513  23.720   2.717
19668W        W91928   7.738   4.358   4.544
19669W        W91929   0.224   2.848   4.762
19670W        W91930  38.281  44.924   2.934
19671W        W91931  34.408  20.239  13.002
19672W        W91932  38.051  16.167  11.360
19673W        W91933  12.343  38.162   1.054
19674W        W91934  13.470  35.865  13.419
19675W        W91935  17.720  30.790  12.968
19676W        W91936  24.250  10.683   1.535
19677W        W91937  37.681   4.842   4.216
19678W        W91938  36.846  24.252  11.103
19679W        W91939  35.343  17.681  14.300
19680W        W91940  23.079  26.876  10.908
19681W        W91941   6.467  14.410  11.970
19682W        W91942  12.277  20.821  13.213
19683W        W91943  14.948  42.999   0.362
19684W        W91944  10.254  22.081  11.739
19685W        W91945   1.471   5.460  10.674
19686W        W91946   3.448  23.063   2.149
19687W        W91947   4.219  44.473  13.800
19688W        W91948   3.428  31.656  13.525
19689W        W91949  41.048  39.860  11.132
19690W        W91950   1.495  23.110   4.777
19691W        W91951  35.786  11.799  11.087
19692W        W91952   2.588  37.871   4.897
19693W        W91953  42.555   3.147  11.355
19694W        W91954  32.253  39.092   4.996
19695W        W91955   1.927  12.307  11.089
19696W        W91956  24.823  18.002   2.354
19697W        W91957  40.782  10.406  11.063
19698W        W91958  37.293   6.217   2.495
19699W        W91959  39.348   3.903  13.423
19700W        W91960  13.546  14.260   2.639
19701W        W91961  41.927   6.568  10.332
19702W        W91962  13.368   9.764   1.830
19703W        W91963  39.127  42.527   2.306
19704W        W91964  44.448  30.371  13.298
19705W        W91965   1.477  16.744   3.043
19706W        W91966  16.705   2.013  14.285
19707W        W91967  37.580   9.321  14.565
19708W        W91968  31.197   2.984  14.680
19709W        W91969   5.304  43.799  11.571
19710W        W91970  29.123  27.293   1.482
19711W        W91971  11.802   4.786  13.052
19712W        W91972  19.722  24.461  11.496
19713W        W91973  38.636  35.332  12.883
19714W        W91974  32.992  38.560  10.757
19715W        W91975  26.579  30.106   2.943
19716W        W91976   6.425  40.507  10.928
19717W        W91977  17.178  24.622  11.330
19718W        W91978  22.195   4.784   4.526
19719W        W91979  18.993  21.216   4.107
19720W        W91980  18.047  44.636  12.547
19721W        W91981   7.244  25.634   4.564
19722W        W91982  17.739  14.656   2.652
19723W        W91983  31.100  25.535   2.287
19724W        W91984  23.226  42.464  10.681
19725W        W91985  19.741  20.341  14.887
19726W        W91986  35.973  24.848   3.055
19727W        W91987  37.448  12.736  10.821
19728W        W91988  40.067  16.126   0.457
19729W        W91989  40.139  37.479  14.336
19730W        W91990  20.919  42.301  14.852
19731W        W91991  27.930   7.831   3.878
19732W        W91992  20.047  11.719   3.634
19733W        W91993  18.667  15.638  11.449
19734W        W91994   8.221  11.682  12.457
19735W        W91995  35.824  13.303   2.770
19736W        W91996  26.753  37.231  12.011
19737W        W91997   4.538  34.405  13.517
19738W        W91998  27.928  41.328   0.441
19739W        W91999  14.370  17.742  13.515
19740W        W92000  40.837  33.876   1.922
19741W        W92001  42.421  40.576   3.238
19742W        W92002  37.891  33.821   3.334
19743W        W92003  44.886   5.739  11.716
19744W        W92004  10.114   5.516   3.232
19745W        W92005   0.347   0.520   3.245
19746W        W92006  15.661  24.514   1.730
19747W        W92007   4.106  14.461  11.707
19748W        W92008   9.789  21.468  12.538
19749W        W92009  14.651  20.638   1.949
19750W        W92010   1.359  21.191   0.903
19751W        W92011  10.221  15.816  14.445
19752W        W92012  20.792  11.904  10.483
19753W        W92013  44.509  22.448   1.829
19754W        W92014   5.368  40.446   0.245
19755W        W92015  15.872  44.066   3.714
19756W        W92016  33.036  23.740  11.983
19757W        W92017  26.673  31.479   1.379
19758W        W92018   8.235  34.541  11.441
19759W        W92019   3.602  28.171  13.326
19760W        W92020  39.802  12.785  11.007
19761W        W92021  25.532  44.034  11.558
19762W        W92022  37.079  15.691   4.156
19763W        W92023  25.597  21.579  12.127
19764W        W92024  23.482  30.370   4.582
19765W        W92025  34.394  27.065  10.632
19766W        W92026  29.268  27.076   2.825
19767W        W92027   4.934  15.756  13.477
19768W        W92028  32.154  14.315   3.706
19769W        W92029  27.181  34.381  12.753
19770W        W92030  24.919  40.805   3.235
19771W        W92031   7.349  32.123  14.362
19772W        W92032  18.493  33.475  11.986
19773W        W92033  21.609  16.634  10.808
19774W        W92034  43.180  36.853   1.410
19775W        W92035  39.759  38.431  14.044
19776W        W92036  27.462  37.494   3.252
19777W        W92037  42.862  43.461   2.922
19778W        W92038  12.413   7.320   1.034
19779W        W92039  12.883  20.006  12.119
19780W        W92040  12.398  29.106   0.825
19781W        W92041  32.599  22.347  10.381
19782W        W92042   4.861  11.776   0.336
19783W        W92043   6.763  27.229   4.281
19784W        W92044  23.531   8.602   2.319
19785W        W92045  16.573   6.768  13.402
19786W        W92046  43.029  13.975  11.702
19787W        W92047  30.351  16.218  10.413
19788W        W92048  18.797  20.906   2.458
19789W        W92049  15.325  32.597   3.411
19790W        W92050  44.859   6.221  11.516
19791W        W92051  41.006   2.828  12.038
19792W        W92052  39.816  36.388  14.954
19793W        W92053  41.906  43.580   1.501
19794W        W92054  10.640  16.531  13.800
19795W        W92055   5.936  20.791   1.357
19796W        W92056   2.004  24.644   1.794
19797W        W92057   2.063   2.222  14.535
19798W        W92058   0.888   1.519   1.285
19799W        W92059  10.138  16.573   2.814
19800W        W92060  39.909  27.411  13.384
19801W        W92061   6.288  31.963  11.868
19802W        W92062  24.366   2.463  10.687
19803W        W92063   3.468  13.722  11.234
19804W        W92064  13.320  29.910   2.232
19805W        W92065  28.674  35.678   1.260
19806W        W92066  13.147  42.317  12.303
19807W        W92067  19.871  10.620   1.830
19808W        W92068  39.054  20.706  10.680
19809W        W92069  33.165   6.256   0.952
19810W        W92070   0.772  25.417  13.921
19811W        W92071  24.777   8.371  12.051
19812W        W92072   4.331  39.281  11.150
19813W        W92073  10.557  34.952  12.623
19814W        W92074  20.230  26.918   1.948
19815W        W92075  25.184  28.098   2.719
19816W        W92076  23.962  35.429   3.438
19817W        W92077  33.539  30.945   2.141
19818W        W92078  44.285  27.390  13.450
19819W        W92079   7.986  23.415  13.004
19820W        W92080  12.047  23.497  11.614
19821W        W92081   6.166   9.325   2.368
19822W        W92082  44.969   9.815  10.699
19823W        W92083  17.373  18.301   0.920
19824W        W92084  38.930  24.546   2.324
19825W        W92085  37.956  16.832  12.426
19826W        W92086   8.259  22.268  12.477
19827W        W92087   8.283  43.053   1.034
19828W        W92088  31.860  26.235   1.050
19829W        W92089  17.727  35.289  14.293
19830W        W92090  37.591   8.383  11.649
19831W        W92091   3.842   4.324   4.794
19832W        W92092  34.578  37.272  11.982
19833W        W92093  16.304  25.569   2.210
19834W        W92094  44.626  20.736   4.571
19835W        W92095  11.253   2.375  13.569
19836W        W92096   0.939  40.486  13.343
19837W        W92097  35.519  14.809  12.334
19838W        W92098  44.556  16.543   1.017
19839W        W92099  10.325  23.013  10.601
19840W        W92100   2.699  20.258   0.831
19841W        W92101  23.675  19.084   4.019
19842W        W92102   1.309  44.420  11.594
19843W        W92103   0.470  21.895  14.430
19844W        W92104   2.062  11.113  13.327
19845W        W92105  41.114  43.305  14.608
19846W        W92106  35.156  13.616   0.358
19847W        W92107  38.393   8.952   0.762
19848W        W92108  33.470  31.622   1.366
19849W        W92109  37.147   8.906  14.337
19850W        W92110  39.779   0.361   3.624
19851W        W92111  40.836  35.471  12.849
19852W        W92112  10.234  21.308   1.353
19853W        W92113  40.298   4.294  11.026
19854W        W92114  18.980  14.227   2.525
19855W        W92115  16.026  35.016  12.522
19856W        W92116  24.144   6.343   4.155
19857W        W92117  13.817  30.008  12.884
19858W        W92118   7.207  22.578   1.247
19859W        W92119  29.652  37.845  13.905
19860W        W92120  36.933   4.144  11.146
19861W        W92121  19.108  14.896   1.273
19862W        W92122  29.064  35.385  10.858
19863W        W92123  38.350  39.981   1.309
19864W        W92124   1.959  44.012  10.977
19865W        W92125  31.923   0.473   1.790
19866W        W92126   0.357   4.297   0.643
19867W        W92127  33.371   6.618   9.996
19868W        W92128  41.590  11.250   4.532
19869W        W92129  32.489  26.051  13.491
19870W        W92130   2.295  38.548   3.301
19871W        W92131  39.717  23.807   4.147
19872W        W92132   9.151  41.528   1.290
19873W        W92133   0.363   9.441   4.598
19874W        W92134   8.185  25.065  12.380
19875W        W92135  34.961  43.444   1.248
19876W        W92136   4.977  31.123   0.861
19877W        W92137  28.956  12.693  11.332
19878W        W92138   3.527   7.832  12.117
19879W        W92139  44.410   4.306   4.377
19880W        W92140   2.435  14.711  12.152
19881W        W92141  19.764   8.209  13.977
19882W        W92142   9.656   2.167   3.366
19883W        W92143  10.182  14.218   2.468
19884W        W92144  10.178  31.102   0.817
19885W        W92145   4.667  26.271   1.084
19886W        W92146  36.982  41.557   2.190
19887W        W92147  37.200  38.851   4.747
19888W        W92148  14.300  29.392   3.081
19889W        W92149  39.287  13.608  14.923
19890W        W92150  41.260  41.018   1.578
19891W        W92151  40.766   3.313  13.630
19892W        W92152   5.128  16.648  10.744
19893W        W92153   7.079  24.941   2.716
19894W        W92154  37.512  40.076   4.897
19895W        W92155   6.881  28.432   3.685
19896W        W92156   4.491  43.578  11.918
19897W        W92157  15.740  25.043   1.764
19898W        W92158  35.026  19.717   1.473
19899W        W92159  26.202  28.150   1.185
19900W        W92160   6.113  16.638  12.634
19901W        W92161  33.488  30.332  13.992
19902W        W92162  33.987  37.602  14.939
19903W        W92163   4.302  14.105   3.880
19904W        W92164  37.372  24.728   4.501
19905W        W92165  22.528  37.891   1.744
19906W        W92166  42.266  41.347   4.281
19907W        W92167  40.349  31.679  12.009
19908W        W92168  17.713  29.438  11.662
19909W        W92169  44.853  38.433   4.157
19910W        W92170  22.578  22.604  12.196
19911W        W92171  40.035   8.155   1.390
19912W        W92172  29.785  36.693   1.920
19913W        W92173  35.988  42.290  14.907
19914W        W92174  27.502  26.485  14.880
19915W        W92175  27.567  24.775   4.635
19916W        W92176   7.830  19.545  12.351
19917W        W92177  32.698   3.301  14.818
19918W        W92178  12.768  36.843  11.059
19919W        W92179  26.922  21.038   4.578
19920W        W92180  15.406  42.068  13.536
19921W        W92181  24.450  31.371  14.462
19922W        W92182  20.614  18.516  13.646
19923W        W92183  32.186  40.895   4.441
19924W        W92184  24.294   5.760   2.738
19925W        W92185   8.360  27.964  14.563
19926W        W92186   5.882  18.085  11.034
19927W        W92187  17.754  44.033   1.325
19928W        W92188  30.981  40.661  12.605
19929W        W92189  40.887  42.511  11.003
19930W        W92190  43.966  33.950   3.214
19931W        W92191  14.662  42.720   4.195
19932W        W92192  36.015   7.224   4.080
19933W        W92193   2.539   5.129   2.677
19934W        W92194  29.555  15.143  12.423
19935W        W92195   4.052  38.973  12.122
19936W        W92196  24.868  25.444   2.840
19937W        W92197  29.637  19.276   0.019
19938W        W92198  15.328  29.599  11.574
19939W        W92199  31.782  14.157   1.683
19940W        W92200  13.281  37.936   1.631
19941W        W92201  19.355   4.725   3.569
19942W        W92202  37.649  26.899  11.043
19943W        W92203  15.294  19.629   0.743
19944W        W92204  10.399  15.650  13.977
19945W        W92205   3.383  25.399   1.942
19946W        W92206  33.382  10.384   3.246
19947W        W92207   3.467  20.300  13.323
19948W        W92208  12.423  32.474   0.410
19949W        W92209   5.697   8.299   2.287
19950W        W92210  38.523  16.386  11.207
19951W        W92211   7.949   9.167  11.737
19952W        W92212  42.990  10.583   0.232
19953W        W92213  21.133   4.268  13.719
19954W        W92214   1.292  16.061  13.310
19955W        W92215  17.066  38.476  11.489
19956W        W92216  16.834  27.374   2.373
19957W        W92217   9.420   4.239  12.373
19958W        W92218  15.155   5.445  13.425
19959W        W92219   0.032  24.545   1.140
19960W        W92220  19.242   9.802   2.340
19961W        W92221  34.542  18.481   2.436
19962W        W92222  19.200   5.808  11.872
19963W        W92223   1.841   3.865  10.745
19964W        W92224   7.583  37.479  11.060
19965W        W92225   9.902  10.847  11.518
19966W        W92226  24.970  26.518  10.616
19967W        W92227  37.003  27.751   1.221
19968W        W92228  44.562  24.527   1.349
19969W        W92229  30.530  30.057  14.324
19970W        W92230  24.803   9.538   1.859
19971W        W92231  31.087  12.649   2.543
19972W        W92232   6.754   1.803   2.412
19973W        W92233  42.877   8.324  11.580
19974W        W92234  21.604   1.312  13.928
19975W        W92235  29.217   3.770   0.843
19976W        W92236  27.585  43.592  13.957
19977W        W92237  23.533  15.127  11.906
19978W        W92238  37.466  36.517   0.493
19979W        W92239  35.967  22.923  14.348
19980W        W92240  21.955   6.185  13.421
19981W        W92241  18.902   5.029   9.791
19982W        W92242   0.797   7.490   4.579
19983W        W92243  18.992  33.018  11.189
19984W        W92244  42.739  31.078  10.970
19985W        W92245   4.858  33.999   1.653
19986W        W92246  35.155  22.185   2.940
19987W        W92247  38.338  19.075  13.156
19988W        W92248  10.072  23.030   4.134
19989W        W92249   3.335  21.581  14.488
19990W        W92250  43.782  21.079   3.655
19991W        W92251   4.423  27.469  11.343
19992W        W92252  40.678  31.638  12.836
19993W        W92253  11.197   4.004  13.926
19994W        W92254  30.150  28.166   3.210
19995W        W92255  44.755  15.816  10.699
19996W        W92256  12.676  15.509   1.710
19997W        W92257   9.853  36.064  13.881
19998W        W92258  40.969  19.561  11.056
19999W        W92259   3.363  43.213   2.218
20000W        W92260  19.291   5.716   3.660
20001W        W92261  42.158  16.822   2.704
20002W        W92262  19.969   2.228   1.131
20003W        W92263  11.200   5.340   1.029
20004W        W92264  37.340  25.548  14.763
20005W        W92265  41.493   3.769  12.653
20006W        W92266  26.037  17.200   0.319
20007W        W92267  13.764  32.510  14.650
20008W        W92268  24.202  12.309  13.014
20009W        W92269  22.694  28.640   3.736
20010W        W92270  38.317   1.252   2.653
20011W        W92271   6.763  42.950   3.628
20012W        W92272   6.758  41.742  12.136
20013W        W92273  29.027  40.603   1.488
20014W        W92274  19.089  43.288  11.247
20015W        W92275  39.903   9.854  11.139
20016W        W92276   4.215  31.400   0.193
20017W        W92277  16.322  14.307   0.367
20018W        W92278  35.399  31.950   0.544
20019W        W92279  23.578  43.812  11.141
20020W        W92280   6.871  33.478   2.489
20021W        W92281  25.096  23.259   0.167
20022W        W92282  13.685  38.419   2.721
20023W        W92283  35.815  41.394   4.154
20024W        W92284  11.207   9.720  11.677
20025W        W92285  36.521  36.960   3.929
20026W        W92286   5.470  11.854  13.755
20027W        W92287  33.895  26.575   3.046
20028W        W92288   7.031  16.121  14.782
20029W        W92289  24.652  12.344  12.696
20030W        W92290  32.607  16.576   0.174
20031W        W92291  37.439  25.396  13.434
20032W        W92292  43.360  21.774  13.011
20033W        W92293  18.871  24.258   0.440
20034W        W92294  24.994   3.322   1.539
20035W        W92295  27.567   0.735  13.023
20036W        W92296  20.278   6.085  13.829
20037W        W92297   8.401  20.650   4.612
20038W        W92298   0.411  12.533  14.386
20039W        W92299  22.579  43.043   1.695
20040W        W92300  19.329   2.852   4.060
20041W        W92301  11.236   8.737  10.632
20042W        W92302  33.324  12.142  12.051
20043W        W92303  24.686  19.117   4.319
20044W        W92304  14.131  11.145   1.839
20045W        W92305   0.240  39.961  11.470
20046W        W92306  15.240  37.318   1.459
20047W        W92307  22.143  10.418   0.036
20048W        W92308   2.768  22.008  11.735
20049W        W92309  31.960  33.565  13.855
20050W        W92310  23.204  13.336  10.483
20051W        W92311  41.456   4.362  13.874
20052W        W92312  20.680  19.836  11.935
20053W        W92313   3.359  16.134  13.065
20054W        W92314  16.066  24.421  13.868
20055W        W92315  21.556  17.093  14.388
20056W        W92316  33.245  28.586  11.152
20057W        W92317  40.562  19.106   4.604
20058W        W92318  42.351  16.559   2.284
20059W        W92319  17.807  18.656  11.213
20060W        W92320  27.437  37.237  13.266
20061W        W92321  21.896  15.700  12.307
20062W        W92322   5.232  15.326   0.903
20063W        W92323  32.553   3.514  13.942
20064W        W92324  32.860  32.191   4.220
20065W        W92325   2.936  23.868  13.954
20066W        W92326   9.111  38.347  14.357
20067W        W92327  19.231  31.584  13.913
20068W        W92328  30.453   8.379  11.108
20069W        W92329   2.661  30.915   4.103
20070W        W92330   0.864  37.462  11.174
20071W        W92331   6.837   0.064   4.148
20072W        W92332  18.632   1.222   1.334
20073W        W92333  17.328  38.118  14.177
20074W        W92334  35.070  21.215   1.281
20075W        W92335  15.224  37.519  12.103
20076W        W92336  13.855  43.312  12.823
20077W        W92337   3.529  30.960  11.123
20078W        W92338  44.527  40.488  10.819
20079W        W92339   0.730  18.218   3.166
20080W        W92340  43.392  10.587  10.456
20081W        W92341  23.761  29.293  10.689
20082W        W92342  36.999   3.281   3.862
20083W        W92343   7.260   2.228  10.761
20084W        W92344  24.640  28.349   1.908
20085W        W92345  34.054  27.287  14.837
20086W        W92346  17.344  17.638   4.349
20087W        W92347   3.696  43.921  10.856
20088W        W92348   2.975   7.107  13.367
20089W        W92349  20.613  44.846   4.319
20090W        W92350  17.863  15.388   2.262
20091W        W92351  20.277   7.576  12.472
20092W        W92352  44.294  29.889  12.429
20093W        W92353  18.580  33.407   4.579
20094W        W92354  43.795  10.572   4.751
20095W        W92355  20.857  35.599   1.900
20096W        W92356   7.673   6.956   2.191
20097W        W92357   9.609   2.847   4.614
20098W        W92358  22.665  44.677  11.052
20099W        W92359   7.837  39.282   2.235
20100W        W92360  10.219   9.737   4.617
20101W        W92361  27.228  13.181  14.535
20102W        W92362  25.657   3.190  12.798
20103W        W92363  39.089  23.880   2.970
20104W        W92364  42.026  21.498  12.065
20105W        W92365  41.886   9.641   1.380
20106W        W92366  10.099  41.306  11.994
20107W        W92367  13.178  43.913   2.180
20108W        W92368  11.283   3.460  14.902
20109W        W92369   4.706  19.438   4.656
20110W        W92370  31.589  30.095  11.856
20111W        W92371  15.295  21.792   3.637
20112W        W92372  20.910  33.608  12.353
20113W        W92373  44.719  22.102   2.686
20114W        W92374  20.527  17.243   4.006
20115W        W92375  43.439  31.638   1.839
20116W        W92376  43.692  31.295   2.276
20117W        W92377  30.724  26.438  14.847
20118W        W92378  35.105  38.445  11.519
20119W        W92379  16.567  44.028   4.572
20120W        W92380  15.171  43.064  14.558
20121W        W92381   7.858  33.895  11.192
20122W        W92382  12.616  12.176  11.204
20123W        W92383  38.766  42.801  14.008
20124W        W92384  15.070  15.044   0.019
20125W        W92385  36.862  41.318  13.358
20126W        W92386   3.790  11.584   3.367
20127W        W92387  35.046  24.169  11.257
20128W        W92388  23.527  25.638   5.717
20129W        W92389  26.499  31.589   4.192
20130W        W92390  17.183  19.026   2.229
20131W        W92391  34.391  28.830  11.634
20132W        W92392  17.276   0.125  11.282
20133W        W92393  36.519  11.827   1.252
20134W        W92394  16.740   7.293   2.253
20135W        W92395  26.562  26.907  11.066
20136W        W92396  35.376  30.424   1.891
20137W        W92397  24.089  43.045  12.411
20138W        W92398  29.470  43.660   2.833
20139W        W92399  43.866   7.457   0.261
20140W        W92400  42.738  27.517   0.299
20141W        W92401  19.815  34.974  14.891
20142W        W92402  37.243  11.594  13.031
20143W        W92403  37.824  18.990   4.669
20144W        W92404  36.922  29.037  14.421
20145W        W92405   7.220  24.714  13.146
20146W        W92406  26.856  23.084   2.819
20147W        W92407  43.757  10.222   0.152
20148W        W92408  44.790   3.043  13.852
20149W        W92409  24.276  36.527   4.121
20150W        W92410  31.281  18.708   0.015
20151W        W92411  35.327  40.335   0.011
20152W        W92412  41.345   1.026   0.808
20153W        W92413   8.858  44.844  11.213
20154W        W92414  33.258  30.184   2.647
20155W        W92415  43.870  21.978  11.156
20156W        W92416  35.014   7.397  13.897
20157W        W92417   9.818   1.341  11.534
20158W        W92418  15.075  19.656   4.083
20159W        W92419  29.568  15.554   4.406
20160W        W92420  43.866   2.232  11.488
20161W        W92421  17.159  41.022   1.084
20162W        W92422  31.359  33.429   3.687
20163W        W92423  33.315  32.662   2.369
20164W        W92424   2.889  23.631  10.649
20165W        W92425  44.506  36.146   2.366
20166W        W92426  41.377  28.950   0.422
20167W        W92427   1.196  29.576   3.681
20168W        W92428  16.077  35.783  13.554
20169W        W92429  42.674  35.840  14.433
20170W        W92430  38.025  13.621   2.247
20171W        W92431   4.162  28.574  12.023
20172W        W92432  37.581  17.652  13.373
20173W        W92433  34.119  27.477   4.538
20174W        W92434  29.004  31.883   1.909
20175W        W92435  21.238  10.907   1.892
20176W        W92436  15.579  27.097  12.419
20177W        W92437  27.482  14.100   5.192
20178W        W92438  10.334  25.326   3.145
20179W        W92439  27.983  30.604  10.598
20180W        W92440   0.465  29.080   0.248
20181W        W92441  14.527  17.866  12.689
20182W        W92442   7.937  21.591   3.872
20183W        W92443  27.474  41.616  11.017
20184W        W92444  17.713  23.199   1.655
20185W        W92445  14.802   8.122  13.112
20186W        W92446  21.518  34.996   0.362
20187W        W92447  27.544   2.269   2.485
20188W        W92448   9.912  34.937   2.201
20189W        W92449   9.134   0.385  11.193
20190W        W92450   0.857  35.607  11.606
20191W        W92451  44.768  34.238  12.458
20192W        W92452   0.073  19.245  13.983
20193W        W92453  43.956  24.531   2.855
20194W        W92454   6.858  21.733   0.010
20195W        W92455  18.682   9.174   5.472
20196W        W92456  38.665  14.622  10.350
20197W        W92457  14.038  31.962   3.174
20198W        W92458  15.134  41.521  14.968
20199W        W92459  42.910  18.313   2.213
20200W        W92460  15.256  32.578   0.958
20201W        W92461  13.336   9.031   4.128
20202W        W92462  38.554  20.547   1.836
20203W        W92463  13.732  22.131  14.252
20204W        W92464  41.113  34.067  14.879
20205W        W92465  31.934  17.851  11.107
20206W        W92466  25.297  28.416   2.306
20207W        W92467  40.819  35.508  13.781
20208W        W92468  27.193   3.076   5.170
20209W        W92469  22.172  37.069   2.706
20210W        W92470  27.649  16.733  11.674
20211W        W92471  36.556  34.744  10.517
20212W        W92472  32.350  34.034   4.432
20213W        W92473   2.251  34.650   3.699
20214W        W92474  28.592  27.140  12.924
20215W        W92475  36.642  26.362  12.670
20216W        W92476  11.836   3.216   4.405
20217W        W92477  32.184  21.201   3.301
20218W        W92478  23.593   4.957   1.782
20219W        W92479  40.900  18.128   2.431
20220W        W92480  22.398  20.977   0.378
20221W        W92481  11.612  32.011  13.393
20222W        W92482  11.366  27.100   4.611
20223W        W92483  41.922  22.472   4.191
20224W        W92484  26.667  14.545  12.075
20225W        W92485  41.043  27.232  11.171
20226W        W92486  37.192  42.733   3.257
20227W        W92487  25.076  28.649   1.897
20228W        W92488  21.262  42.820   1.438
20229W        W92489  30.906  20.660  11.553
20230W        W92490  21.640   4.953   2.204
20231W        W92491   6.968   6.752   1.660
20232W        W92492  35.124  38.588  12.847
20233W        W92493  37.123   8.755   0.312
20234W        W92494   4.273  12.343   0.907
20235W        W92495  37.845   8.726   4.023
20236W        W92496  29.135   5.733  11.527
20237W        W92497  40.934  44.549  11.655
20238W        W92498  24.527  17.030  12.380
20239W        W92499   6.153  35.562  11.176
20240W        W92500  17.055   8.126  12.890
20241W        W92501  30.106  36.990  10.774
20242W        W92502  19.291  16.479   0.341
20243W        W92503  42.921  10.840   0.660
20244W        W92504  31.339  37.754  12.470
20245W        W92505  16.705   6.820  14.924
20246W        W92506  21.350  28.446  13.394
20247W        W92507   1.793  36.097   3.609
20248W        W92508  11.491  24.268   4.887
20249W        W92509  34.474  18.869  13.047
20250W        W92510  17.376  31.819   5.044
20251W        W92511  33.906  11.847   0.888
20252W        W92512  14.691  33.583  13.520
20253W        W92513   7.459  27.931  10.183
20254W        W92514  27.727  10.801   2.221
20255W        W92515  40.613  33.088  11.865
20256W        W92516  41.680   7.812  14.581
20257W        W92517   9.352  42.542  11.051
20258W        W92518  36.064  15.517  13.770
20259W        W92519   9.314  37.734  11.579
20260W        W92520  33.669  15.627   1.786
20261W        W92521  39.478  13.202  12.504
20262W        W92522  22.603  27.442  10.465
20263W        W92523   7.617  23.159   0.070
20264W        W92524  41.986  26.270   3.288
20265W        W92525  43.461  31.885  14.238
20266W        W92526  14.721  17.351   0.889
20267W        W92527  14.274  41.043   3.192
20268W        W92528  21.027  25.563   0.046
20269W        W92529  35.408  43.979  13.775
20270W        W92530  22.642   0.302   4.655
20271W        W92531  40.964  25.174  12.150
20272W        W92532   9.685  20.776   1.708
20273W        W92533  16.219   2.240   3.286
20274W        W92534  20.818  31.604   2.341
20275W        W92535  28.349   9.332  14.472
20276W        W92536  13.460  24.824  13.445
20277W        W92537  15.291   5.211  11.117
20278W        W92538   5.486   5.194  14.801
20279W        W92539  23.397  35.336  11.212
20280W        W92540  43.471  19.073   1.449
20281W        W92541  29.696  35.567   4.655
20282W        W92542  29.092  23.076   4.415
20283W        W92543   5.838  29.009  13.764
20284W        W92544   1.885  25.504   3.678
20285W        W92545  43.752   0.407  13.041
20286W        W92546  22.172  40.355   2.563
20287W        W92547  11.200  20.273   3.285
20288W        W92548  37.887  23.530  13.813
20289W        W92549  42.877  41.709  10.702
20290W        W92550  21.751  44.474   4.016
20291W        W92551   7.142  26.106  13.363
20292W        W92552  36.049  10.599   4.363
20293W        W92553  33.789  26.943   4.501
20294W        W92554   1.924  13.710   4.255
20295W        W92555  17.783  42.257   2.943
20296W        W92556  21.945  37.426  11.055
20297W        W92557  20.700   9.779   4.118
20298W        W92558  42.861  37.889  11.758
20299W        W92559  13.704  32.263  12.851
20300W        W92560   9.114  15.223   3.852
20301W        W92561  24.744  22.954  13.370
20302W        W92562  19.749   4.293  14.426
20303W        W92563  11.361  14.290  11.584
20304W        W92564  17.185   9.355  11.180
20305W        W92565  19.526   2.839   4.584
20306W        W92566  19.029   4.718  14.477
20307W        W92567  40.920   9.699   1.646
20308W        W92568  42.500  35.270   1.843
20309W        W92569  18.760   9.179  10.261
20310W        W92570  18.266  26.613  10.665
20311W        W92571  26.064  17.940  12.635
20312W        W92572  18.845  16.281   1.590
20313W        W92573  27.129  39.388   1.860
20314W        W92574   1.290  27.484  11.479
20315W        W92575  28.478  14.400  14.946
20316W        W92576  14.139   2.866   1.903
20317W        W92577   4.328  26.432  12.543
20318W        W92578  28.604   0.376  11.650
20319W        W92579  38.977  26.635   3.673
20320W        W92580  27.317  26.384   2.823
20321W        W92581  37.618  22.749  14.402
20322W        W92582  34.420  28.959  13.046
20323W        W92583  41.807  42.330   4.537
20324W        W92584  29.645   9.321  13.571
20325W        W92585  19.388  10.253  12.558
20326W        W92586   2.578  44.686  11.082
20327W        W92587  38.773  27.285  11.517
20328W        W92588  23.758  31.617   4.047
20329W        W92589  13.683  19.863   1.847
20330W        W92590   5.054  32.368   1.453
20331W        W92591  40.778   7.347   0.177
20332W        W92592  31.971  37.823   4.586
20333W        W92593  20.797  39.001   3.788
20334W        W92594  33.203  24.541   0.381
20335W        W92595  40.495  17.858   2.573
20336W        W92596  18.277  43.960   1.213
20337W        W92597  19.112  43.604  10.513
20338W        W92598  21.267  17.114  13.916
20339W        W92599  43.465  22.169  14.395
20340W        W92600  10.226  13.297  12.864
20341W        W92601  44.715  20.095  13.968
20342W        W92602  25.087  36.096  12.125
20343W        W92603  26.085  26.708   2.361
20344W        W92604  10.756  21.287  10.991
20345W        W92605   6.419  35.484  14.967
20346W        W92606   1.891  20.498  14.468
20347W        W92607  22.444  12.268   0.288
20348W        W92608  23.145  39.628  10.191
20349W        W92609  11.609   6.104  11.116
20350W        W92610  11.273   5.953   2.339
20351W        W92611  39.507  14.802  13.512
20352W        W92612  20.350  35.585   1.982
20353W        W92613  16.034  36.960  13.317
20354W        W92614   8.784   2.939  11.485
20355W        W92615  43.403  25.291   3.783
20356W        W92616  16.334  29.621  11.674
20357W        W92617   3.093  10.648  11.816
20358W        W92618  37.277  18.669   4.548
20359W        W92619  16.151  38.965  12.005
20360W        W92620  28.524  15.384   1.692
20361W        W92621   8.519  17.281  13.196
20362W        W92622  26.879  26.768  14.318
20363W        W92623  36.602   8.911   0.277
20364W        W92624  19.481  22.078   2.250
20365W        W92625  14.410   1.830   3.250
20366W        W92626  23.288  28.006   4.150
20367W        W92627  39.645  28.120  14.553
20368W        W92628   5.899  26.919   0.844
20369W        W92629  39.203  13.233  12.982
20370W        W92630  23.751   0.854   3.401
20371W        W92631  31.120  20.899  11.134
20372W        W92632  37.432   3.234  11.635
20373W        W92633  33.183   3.878  12.580
20374W        W92634  36.089  35.643   2.790
20375W        W92635  36.458  37.607  13.854
20376W        W92636   6.873  26.474  13.023
20377W        W92637  10.790  18.151   3.670
20378W        W92638  36.597  13.574  14.822
20379W        W92639  37.023  16.976  10.844
20380W        W92640  39.007  20.210  10.604
20381W        W92641  41.466  16.829   3.390
20382W        W92642  25.600  23.258   0.379
20383W        W92643   3.985  24.999  12.188
20384W        W92644  17.529  11.189  12.458
20385W        W92645  35.483   2.808  12.104
20386W        W92646  37.410  15.911  10.497
20387W        W92647  23.718  39.576   1.232
20388W        W92648   7.879  17.522   1.208
20389W        W92649  31.592  40.724   1.836
20390W        W92650  35.974  24.915   0.814
20391W        W92651  34.110   5.186  14.973
20392W        W92652  34.604   4.867   4.505
20393W        W92653  23.951  19.839  13.101
20394W        W92654  35.391   4.461  13.793
20395W        W92655  14.872  18.784   3.194
20396W        W92656  23.899  10.359  10.660
20397W        W92657   7.634  22.544  11.161
20398W        W92658   9.907  12.401  13.312
20399W        W92659  25.698   3.877   2.674
20400W        W92660  36.101  13.154  14.287
20401W        W92661  42.330  10.221   0.945
20402W        W92662  11.581  30.894   0.339
20403W        W92663  43.948  39.383  12.451
20404W        W92664  38.146  31.428  11.053
20405W        W92665  13.231  18.871   2.394
20406W        W92666  35.052  14.205   2.201
20407W        W92667  41.987   0.304   0.928
20408W        W92668  16.870  16.949   0.938
20409W        W92669  37.567  15.357   2.879
20410W        W92670  34.472  27.455   3.157
20411W        W92671  29.061  23.676  11.092
20412W        W92672  21.517   6.648  12.458
20413W        W92673  13.009  23.176  11.185
20414W        W92674  12.142  15.804  11.942
20415W        W92675   5.852  21.666   4.051
20416W        W92676  14.552  31.882   2.358
20417W        W92677  10.458  30.006   0.747
20418W        W92678  37.574  21.488   2.379
20419W        W92679  24.580  29.922  13.029
20420W        W92680  40.878  33.153   3.751
20421W        W92681   6.126  35.631   1.596
20422W        W92682  19.258   3.372   0.853
20423W        W92683   2.800   8.379   0.503
20424W        W92684  23.080  22.735  12.355
20425W        W92685   8.423   1.193  11.248
20426W        W92686  29.221   8.262   4.689
20427W        W92687  27.367  19.658   0.337
20428W        W92688  13.732  33.890   1.424
20429W        W92689  20.674  19.024   0.949
20430W        W92690  15.248  27.454   2.308
20431W        W92691  19.001  12.301  14.331
20432W        W92692   1.812  39.057   1.356
20433W        W92693  23.229  21.259   1.370
20434W        W92694   9.810  33.592   1.817
20435W        W92695  30.463  37.610  14.805
20436W        W92696  27.035  41.450  12.400
20437W        W92697  17.578  12.682  10.614
20438W        W92698  13.855  23.608   4.821
20439W        W92699  37.563  15.210  11.038
20440W        W92700  31.442  25.188   4.841
20441W        W92701   5.162  16.987  13.114
20442W        W92702  25.033  38.341  11.451
20443W        W92703   7.705  34.973   5.031
20444W        W92704  40.658  27.042  13.892
20445W        W92705   2.703  31.011   3.090
20446W        W92706  12.130  13.787  14.692
20447W        W92707  35.636  25.029  13.894
20448W        W92708  10.209  41.380  14.394
20449W        W92709  34.598  17.513  14.332
20450W        W92710  35.956   2.585   4.181
20451W        W92711  22.527  29.160   1.007
20452W        W92712  23.592  19.068   4.980
20453W        W92713  37.817  39.005   0.488
20454W        W92714  39.069   5.903  14.042
20455W        W92715   8.308  16.573  11.532
20456W        W92716  21.809  27.048  11.857
20457W        W92717  35.523  23.569  12.128
20458W        W92718  23.606  20.704   0.057
20459W        W92719  17.272  32.525   3.125
20460W        W92720  19.668  20.484   1.036
20461W        W92721  43.594  14.841  10.716
20462W        W92722   5.867  35.311   2.780
20463W        W92723  40.981   7.722  13.765
20464W        W92724  24.586   7.959   0.044
20465W        W92725  31.793  39.126   4.215
20466W        W92726   0.904  35.459  13.588
20467W        W92727  11.157  42.720  12.477
20468W        W92728  36.498  39.558   0.948
20469W        W92729  36.539   1.399   4.107
20470W        W92730  12.219  24.223  13.712
20471W        W92731  35.060  43.807   3.920
20472W        W92732  41.859  18.702   4.793
20473W        W92733  21.032  38.401   1.920
20474W        W92734  16.836  19.485   1.017
20475W        W92735  18.772  35.601  11.000
20476W        W92736  21.055  12.304   4.595
20477W        W92737   1.914  16.517  14.374
20478W        W92738  26.988  15.546   0.466
20479W        W92739  42.459  37.031  12.131
20480W        W92740  36.341  23.674  13.972
20481W        W92741  38.143  29.599   0.391
20482W        W92742  26.687  36.413  13.433
20483W        W92743  44.794  17.680  10.698
20484W        W92744   4.827  23.742   3.515
20485W        W92745  38.450  34.350   2.823
20486W        W92746  12.803  10.879   3.377
20487W        W92747  42.138  40.089  13.395
20488W        W92748  34.074   0.274  13.369
20489W        W92749  16.910   8.415  11.135
20490W        W92750  15.386  33.508  13.958
20491W        W92751   4.363  33.027   1.448
20492W        W92752  34.918  44.289   4.198
20493W        W92753  35.773  18.354   1.044
20494W        W92754  23.183   3.320  12.318
20495W        W92755  27.398  28.180  10.530
20496W        W92756  21.165  28.448  12.404
20497W        W92757   1.919  31.062   4.623
20498W        W92758  33.746  33.641   4.138
20499W        W92759  15.238  13.597   2.380
20500W        W92760  13.327  21.683   1.857
20501W        W92761  33.698   3.329  11.929
20502W        W92762  30.099  27.413   2.772
20503W        W92763  36.470   8.796  10.348
20504W        W92764  34.032  31.948   0.353
20505W        W92765  36.402   2.986  13.759
20506W        W92766  27.704  31.505   1.671
20507W        W92767  13.773  24.095   4.623
20508W        W92768  44.233  33.754  14.569
20509W        W92769  27.794  19.027  14.600
20510W        W92770  14.781   3.899  14.804
20511W        W92771  21.251  20.140   3.109
20512W        W92772  24.633   4.077  13.115
20513W        W92773   1.420  28.067   0.008
20514W        W92774  34.325  42.869   1.264
20515W        W92775  11.403  25.925   1.430
20516W        W92776  35.583  30.054   3.638
20517W        W92777  33.545  24.799   0.760
20518W        W92778  34.004  41.534   0.507
20519W        W92779  41.882  11.144  10.579
20520W        W92780  26.238  27.974  12.853
20521W        W92781  21.420  42.879  10.344
20522W        W92782  36.561   8.155  11.601
20523W        W92783  36.138  41.244   3.696
20524W        W92784  35.152  16.571  12.532
20525W        W92785  16.707  33.330  13.960
20526W        W92786  32.214  44.302  14.403
20527W        W92787  23.753  22.980   2.226
20528W        W92788  32.424  19.067  12.193
20529W        W92789  16.310  44.336  13.856
20530W        W92790  42.206  29.048  12.992
20531W        W92791  26.971  20.511  11.495
20532W        W92792  41.113   5.841  12.034
20533W        W92793  36.182  29.679  12.166
20534W        W92794  43.918  26.403   1.944
20535W        W92795  43.485  15.333  12.035
20536W        W92796  41.872  37.359  13.996
20537W        W92797  11.067  23.802  12.559
20538W        W92798  44.874  44.929   1.415
20539W        W92799  34.104  19.731  14.988
20540W        W92800  15.207   2.703   3.444
20541W        W92801  38.519  40.326  13.806
20542W        W92802   3.450   6.720   3.855
20543W        W92803  21.531  39.936   3.385
20544W        W92804  27.057  36.563   3.205
20545W        W92805  42.242  33.399  11.158
20546W        W92806  36.678   5.969   3.184
20547W        W92807   5.295  25.513  11.953
20548W        W92808  33.867  30.226  13.025
20549W        W92809  11.526  19.748  11.120
20550W        W92810   7.740  42.098  13.846
20551W        W92811   7.329   1.772  14.158
20552W        W92812   2.221  22.722   0.854
20553W        W92813  30.224  42.153  11.092
20554W        W92814  23.575  19.332   1.263
20555W        W92815  37.402  20.643   0.387
20556W        W92816  22.126  14.217   0.573
20557W        W92817  31.975  26.565   1.774
20558W        W92818  38.928  43.266   2.966
20559W        W92819  34.899  40.125  11.063
20560W        W92820   1.010   9.820   1.476
20561W        W92821  40.449  24.248   5.078
20562W        W92822  21.338  34.081   4.379
20563W        W92823  32.955  14.699  10.771
20564W        W92824  36.859   8.432  12.569
20565W        W92825  36.392  12.634   3.535
20566W        W92826  25.863  37.962  11.025
20567W        W92827  12.886  23.232  14.998
20568W        W92828  44.205  31.790   4.985
20569W        W92829  23.552  10.705  11.943
20570W        W92830   6.903  32.926   0.201
20571W        W92831  41.376  18.013   4.684
20572W        W92832   4.426  32.277   3.726
20573W        W92833   3.441  30.739   1.998
20574W        W92834   0.332  40.032   0.412
20575W        W92835  15.079  17.900   3.876
20576W        W92836  33.517   2.741  12.892
20577W        W92837  14.817  33.464  14.966
20578W        W92838  10.365   9.926   0.451
20579W        W92839  21.749   8.936  13.847
20580W        W92840   5.032  39.457  13.478
20581W        W92841  20.334  33.044  13.565
20582W        W92842  10.395  13.759   2.240
20583W        W92843   6.790  39.261   4.090
20584W        W92844  17.819  41.316   2.851
20585W        W92845   4.881  24.927  12.936
20586W        W92846  28.246  19.248  10.591
20587W        W92847  43.116  16.147   3.399
20588W        W92848  20.168   3.870   4.768
20589W        W92849  12.418  36.763  10.679
20590W        W92850  22.137  42.752   1.633
20591W        W92851   6.172   2.732  10.616
20592W        W92852  27.529  38.389   2.693
20593W        W92853  33.285  20.437   9.487
20594W        W92854  28.477   6.488  14.832
20595W        W92855  21.720   8.808   2.992
20596W        W92856  27.395  38.841  10.501
20597W        W92857  21.584  25.241  14.386
20598W        W92858   1.326  13.295   4.342
20599W        W92859  17.835  14.107   0.551
20600W        W92860  30.607  33.211   1.455
20601W        W92861   1.864   3.217  13.957
20602W        W92862  43.687  20.651  13.547
20603W        W92863  31.614  21.967  11.768
20604W        W92864  41.828   4.711   4.280
20605W        W92865  36.284  26.887  11.061
20606W        W92866  26.165  21.167  12.831
20607W        W92867  24.745  10.641  14.241
20608W        W92868  34.388  28.810   3.875
20609W        W92869  23.083  17.719   4.588
20610W        W92870  19.517  11.143  10.728
20611W        W92871  13.245  39.042  14.689
20612W        W92872  38.585  21.535  14.414
20613W        W92873   6.421   4.168   3.338
20614W        W92874  41.378  21.009   2.807
20615W        W92875  26.182  16.812   4.108
20616W        W92876  34.848  23.611  14.311
20617W        W92877  27.062  31.357  12.890
20618W        W92878  14.158  28.642   4.125
20619W        W92879  13.166  29.966   1.294
20620W        W92880   1.718  11.276   0.911
20621W        W92881  42.464  13.125  12.392
20622W        W92882   8.163   9.890   1.797
20623W        W92883  19.959  14.631  13.503
20624W        W92884  16.338  12.181  14.913
20625W        W92885  17.606   4.418   3.248
20626W        W92886  41.864  37.545   1.793
20627W        W92887  30.361  44.197  12.550
20628W        W92888  11.296  13.692   0.214
20629W        W92889  32.231  11.021   4.668
20630W        W92890  27.612  20.302   2.378
20631W        W92891  31.472  17.260   3.158
20632W        W92892   9.770  35.886  13.365
20633W        W92893  26.953  33.182   0.804
20634W        W92894  16.821  25.168   2.773
20635W        W92895  15.638   5.217   0.369
20636W        W92896  29.886  26.307  12.870
20637W        W92897  28.948   1.902   4.742
20638W        W92898  25.036  22.362   2.374
20639W        W92899  23.667  33.305  13.865
20640W        W92900  15.327   6.973   4.294
20641W        W92901  31.435  32.904   4.697
20642W        W92902   9.144  20.121   4.780
20643W        W92903   0.743  18.197  13.077
20644W        W92904  23.666  35.178  12.448
20645W        W92905  35.872   8.226  14.509
20646W        W92906   6.666  19.768   2.788
20647W        W92907  11.275  35.673   3.772
20648W        W92908  17.847  31.481   3.753
20649W        W92909  18.164  25.586  14.952
20650W        W92910  35.328  17.160   1.688
20651W        W92911  42.856  31.321   4.038
20652W        W92912  11.816   9.701  13.266
20653W        W92913  23.185   7.850   4.705
20654W        W92914  31.236  32.508  10.590
20655W        W92915  28.023  38.799  12.554
20656W        W92916  38.414  21.203  12.236
20657W        W92917  13.728  29.138   2.381
20658W        W92918   5.593  41.533  10.704
20659W        W92919   6.660  21.227  14.836
20660W        W92920  22.754  10.108  10.076
20661W        W92921   3.584  32.147  14.400
20662W        W92922  30.347  26.575   2.279
20663W        W92923  30.981  26.993   4.573
20664W        W92924  27.465  16.741  14.312
20665W        W92925  25.328  25.546   3.232
20666W        W92926  15.065  27.871  10.243
20667W        W92927  42.506  43.905  12.132
20668W        W92928  10.568   4.784   0.851
20669W        W92929  30.143  38.123   1.035
20670W        W92930  17.678   6.864   1.344
20671W        W92931  37.536  17.728   3.048
20672W        W92932  37.320  16.334  13.012
20673W        W92933  30.432  24.469  14.767
20674W        W92934  26.560  15.103  10.434
20675W        W92935  14.115  37.932  12.385
20676W        W92936  24.551  36.311  13.946
20677W        W92937  24.662   3.287   1.964
20678W        W92938  10.377  35.583   3.725
20679W        W92939   9.020   2.840  14.841
20680W        W92940   1.764  19.333   0.715
20681W        W92941  24.557  40.937  13.132
20682W        W92942  40.306  18.807   3.757
20683W        W92943  11.845  22.064   1.949
20684W        W92944  18.923  34.892  10.846
20685W        W92945  11.325  29.378  14.291
20686W        W92946  17.135  34.228  13.019
20687W        W92947  27.888  33.566  13.409
20688W        W92948  31.987  34.374  12.999
20689W        W92949  14.358  42.557   0.992
20690W        W92950  30.997  30.020  11.121
20691W        W92951  19.126   3.749   3.148
20692W        W92952  15.883  14.309   3.795
20693W        W92953   5.364  12.885  11.942
20694W        W92954  22.980  30.762  11.106
20695W        W92955   3.226  35.340   0.919
20696W        W92956   0.940  18.175   0.317
20697W        W92957  11.151   4.608  10.462
20698W        W92958   3.912  10.698   4.772
20699W        W92959   9.743   9.969  10.500
20700W        W92960   2.000  22.322   2.732
20701W        W92961  22.321  44.857  11.892
20702W        W92962   8.862   3.715   4.047
20703W        W92963   4.124  26.205   1.024
20704W        W92964   1.923  28.018   0.161
20705W        W92965  34.379  16.130   3.713
20706W        W92966  17.423  13.036   4.948
20707W        W92967   2.247   4.626  10.695
20708W        W92968  22.562  29.901  12.817
20709W        W92969  37.827  18.091   0.758
20710W        W92970  42.554  35.954  11.093
20711W        W92971  19.762  26.616   0.210
20712W        W92972  16.135  27.472   3.353
20713W        W92973   5.387  25.567  14.069
20714W        W92974   1.689  37.428   0.809
20715W        W92975   9.139   6.253  12.496
20716W        W92976  33.792  24.570   3.644
20717W        W92977  18.238  39.528  14.889
20718W        W92978   5.693   5.236  11.011
20719W        W92979   7.035   7.541  10.795
20720W        W92980   4.922  29.091   2.581
20721W        W92981  43.173  22.625   4.731
20722W        W92982   9.179  11.224   1.167
20723W        W92983  23.145  35.455   3.371
20724W        W92984  30.368  42.107  13.847
20725W        W92985  35.813  31.905  12.552
20726W        W92986  39.141  11.066   4.439
20727W        W92987   0.299  28.692   3.675
20728W        W92988  36.328   9.681   1.320
20729W        W92989  43.028  23.825   1.901
20730W        W92990   4.665  36.867  11.620
20731W        W92991  11.134  24.970   2.724
20732W        W92992  30.545  28.553  14.094
20733W        W92993  10.232  21.977   4.283
20734W        W92994  28.385  28.026   0.380
20735W        W92995  31.259   8.681  14.375
20736W        W92996  14.241  42.460   0.497
20737W        W92997  23.180  41.532   3.594
20738W        W92998   3.866  27.957  10.348
20739W        W92999  24.544  17.428   1.995
20740W        W93000  34.978  37.526   2.265
20741W        W93001  29.997  10.095  13.929
20742W        W93002  44.848   9.155  13.799
20743W        W93003   2.923  26.429  12.561
20744W        W93004  19.642   0.716  12.028
20745W        W93005  14.743  26.588   2.877
20746W        W93006  30.042  28.217  10.591
20747W        W93007  31.910  30.272   2.905
20748W        W93008  18.557   5.401   3.147
20749W        W93009  39.592  19.318   3.317
20750W        W93010  40.853   3.822  11.904
20751W        W93011  35.009  21.653  14.270
20752W        W93012   5.419   6.022   2.885
20753W        W93013  26.054  39.191  13.937
20754W        W93014  41.335  30.604  12.753
20755W        W93015  37.567  22.270  13.048
20756W        W93016   5.806   8.797  10.140
20757W        W93017  43.468  21.133  11.600
20758W        W93018  30.492  33.457  13.589
20759W        W93019  19.278  11.104  12.895
20760W        W93020  14.091   2.900  13.416
20761W        W93021  16.037  35.048  14.659
20762W        W93022  42.490  35.631   2.658
20763W        W93023  21.115   6.715  10.874
20764W        W93024  36.400  20.110  13.117
20765W        W93025  25.420  35.010  14.393
20766W        W93026  10.878  44.732   1.717
20767W        W93027  28.980   8.819  10.422
20768W        W93028  37.658  35.602  11.971
20769W        W93029   2.469  36.482   1.552
20770W        W93030  19.708  19.083   3.419
20771W        W93031  42.884  29.396  12.461
20772W        W93032  41.291  13.711   0.523
20773W        W93033  44.402  23.706  14.035
20774W        W93034   7.850  43.573   2.344
20775W        W93035   4.251  15.373   0.893
20776W        W93036  31.231  33.402  10.683
20777W        W93037  34.105   5.355  11.081
20778W        W93038  25.745  39.022  13.513
20779W        W93039   9.904  21.203  11.540
20780W        W93040   5.230  16.337   0.473
20781W        W93041  26.852  27.140   0.377
20782W        W93042  25.819  39.679  13.972
20783W        W93043  15.167   7.248   2.431
20784W        W93044  18.588  37.579   3.701
20785W        W93045  27.425  33.593  10.593
20786W        W93046  15.435  36.410   3.028
20787W        W93047  34.354  23.744  11.648
20788W        W93048   0.738  23.505   4.584
20789W        W93049   8.754  10.323  11.731
20790W        W93050  21.033  16.323  12.477
20791W        W93051  26.469  37.657  11.996
20792W        W93052  41.054  15.259   4.837
20793W        W93053  12.283  43.907  14.458
20794W        W93054  31.767  14.095   0.226
20795W        W93055   6.011  24.299   3.287
20796W        W93056  26.316  26.744   3.574
20797W        W93057   0.975  27.055  11.516
20798W        W93058  19.739  33.943  12.188
20799W        W93059  22.317  16.455   0.109
20800W        W93060  10.229   0.943   1.707
20801W        W93061  36.407   0.872   4.834
20802W        W93062  20.080  41.859  12.052
20803W        W93063  26.844  29.718  11.656
20804W        W93064  19.823  27.745  14.826
20805W        W93065  32.730  17.177   0.736
20806W        W93066  28.992  34.211   2.431
20807W        W93067  10.206  35.655  12.416
20808W        W93068  29.554  25.722  12.435
20809W        W93069   7.753   2.325  14.958
20810W        W93070  35.464  13.707   1.912
20811W        W93071  36.158  17.249   3.403
20812W        W93072  19.264  16.255   2.937
20813W        W93073  37.798  15.254   2.384
20814W        W93074  33.326   1.554  12.455
20815W        W93075  33.016  15.677  10.540
20816W        W93076   3.695  37.004  13.038
20817W        W93077  23.685  25.964  11.444
20818W        W93078  33.017  33.803   0.745
20819W        W93079  32.396  39.800   3.261
20820W        W93080  43.043  32.457   3.629
20821W        W93081   6.375  44.115   0.657
20822W        W93082  26.614  36.430   4.477
20823W        W93083  30.179  43.784   0.945
20824W        W93084  32.847  19.810   5.385
20825W        W93085  10.179  34.867  10.672
20826W        W93086  10.865   7.713  14.385
20827W        W93087  22.627  32.532  13.933
20828W        W93088  16.719  42.538  13.312
20829W        W93089  41.739  36.256   0.526
20830W        W93090   6.967   3.267   2.347
20831W        W93091  19.256  40.978   0.852
20832W        W93092  37.738  14.689   0.449
20833W        W93093  28.360   0.900  12.447
20834W        W93094  40.759  17.832  11.641
20835W        W93095   1.985  43.221   2.770
20836W        W93096  39.255  36.139  11.220
20837W        W93097  41.979  41.559   3.540
20838W        W93098   0.743  43.310  12.040
20839W        W93099  18.823  20.153  14.419
20840W        W93100  17.530   2.322   1.663
20841W        W93101  26.593  24.702  11.562
20842W        W93102  27.752  17.090   1.403
20843W        W93103  13.527  12.368  12.470
20844W        W93104  22.459  39.108  10.263
20845W        W93105  10.949  20.176   2.871
20846W        W93106  20.474  26.827   3.137
20847W        W93107   1.202  39.936  11.642
20848W        W93108   1.126  40.947  10.711
20849W        W93109   8.833  12.124   0.412
20850W        W93110  21.005  10.179   0.996
20851W        W93111  26.605  25.734  11.542
20852W        W93112  26.601  43.980   2.323
20853W        W93113  34.969  33.845   3.112
20854W        W93114  21.311   1.730   2.933
20855W        W93115  40.139  30.145   3.273
20856W        W93116  24.242  12.241   1.201
20857W        W93117  25.240  24.429  14.373
20858W        W93118  32.190  23.429   0.890
20859W        W93119  26.328  39.589  14.127
20860W        W93120  36.175  43.822  13.012
20861W        W93121  24.095  39.333   0.236
20862W        W93122   5.487   2.346   3.705
20863W        W93123   0.665  18.485  14.261
20864W        W93124   7.327   4.953  13.996
20865W        W93125   9.737  41.117   2.417
20866W        W93126  36.345   5.951  11.593
20867W        W93127   9.325  12.309   0.328
20868W        W93128  41.788   2.887  10.703
20869W        W93129  24.172  10.179   2.355
20870W        W93130  28.739  13.014  11.006
20871W        W93131  39.689  43.268  10.600
20872W        W93132  39.328   9.358   5.089
20873W        W93133  16.552   6.336   1.302
20874W        W93134   7.086  22.740  13.498
20875W        W93135   2.153  10.318   4.592
20876W        W93136  13.297  27.462  14.574
20877W        W93137  22.821  39.375   4.350
20878W        W93138   0.333  44.454   2.094
20879W        W93139  20.802  38.285  12.089
20880W        W93140  10.530  43.395  12.959
20881W        W93141  39.871   2.377  11.981
20882W        W93142   1.808  12.607  14.403
20883W        W93143  44.126  11.132  12.626
20884W        W93144  12.267  37.135   1.271
20885W        W93145  28.643   8.434  10.330
20886W        W93146   8.897  39.846   3.229
20887W        W93147  35.417  17.712   0.377
20888W        W93148  11.639  42.004   3.818
20889W        W93149  36.284  25.724   5.037
20890W        W93150  26.646  17.656   0.818
20891W        W93151  35.064   1.180  14.110
20892W        W93152   4.324  28.313   3.606
20893W        W93153   2.244   0.691  13.021
20894W        W93154  20.936  41.284   1.445
20895W        W93155  35.393   4.197   3.213
20896W        W93156  39.563  25.313  14.185
20897W        W93157  17.660  40.327   3.804
20898W        W93158  28.389  12.149  13.340
20899W        W93159   3.772   5.763   3.199
20900W        W93160  26.045  28.104   4.575
20901W        W93161  22.480  38.670  12.726
20902W        W93162   7.910  17.582   2.186
20903W        W93163   7.883   8.260   1.904
20904W        W93164  13.343   1.362   4.684
20905W        W93165  21.227   4.229  14.242
20906W        W93166  13.750  25.506   1.513
20907W        W93167  22.205  21.573  11.442
20908W        W93168  23.621  31.657   1.047
20909W        W93169  43.234  36.439   0.696
20910W        W93170  22.732  18.103  12.910
20911W        W93171  31.524  12.076   1.823
20912W        W93172  26.922  32.774  13.942
20913W        W93173   2.944  26.292  10.669
20914W        W93174  20.084  11.093   1.728
20915W        W93175  37.559  24.728   0.425
20916W        W93176  27.735  43.365  11.620
20917W        W93177  20.160  20.739  14.742
20918W        W93178  40.000  25.472  11.589
20919W        W93179   7.726  36.996   1.363
20920W        W93180  33.134  31.061  14.063
20921W        W93181  27.150   6.347  12.884
20922W        W93182  41.728  42.313  13.063
20923W        W93183   1.349  38.989  10.578
20924W        W93184  30.463  33.910   3.389
20925W        W93185  36.515  30.412   3.348
20926W        W93186  39.498  18.654   0.763
20927W        W93187   2.659  11.220   3.587
20928W        W93188   6.208  42.393  11.956
20929W        W93189  34.530   1.961   2.859
20930W        W93190  11.224  33.711   3.772
20931W        W93191  22.577  11.082  13.559
20932W        W93192  16.123  19.809  11.958
20933W        W93193  32.101  12.403   3.398
20934W        W93194  37.065   9.634  10.211
20935W        W93195  30.669   2.364   0.326
20936W        W93196  23.555   8.484  10.620
20937W        W93197  13.108  18.182   4.718
20938W        W93198  30.653  17.025   5.141
20939W        W93199  31.927  12.729  14.396
20940W        W93200  36.128  21.445  12.945
20941W        W93201  24.722  22.660   3.874
20942W        W93202  23.674  40.394   4.790
20943W        W93203  19.166  42.347   2.663
20944W        W93204  16.201   4.717   3.250
20945W        W93205  43.800   1.346  13.128
20946W        W93206   8.093  38.552   0.971
20947W        W93207  19.482  14.327   2.441
20948W        W93208  43.843  11.575  14.288
20949W        W93209  42.031  20.289  11.192
20950W        W93210   8.865  43.296   2.309
20951W        W93211  28.587   4.388  12.312
20952W        W93212  17.105  12.705   1.244
20953W        W93213   5.268  43.497   1.362
20954W        W93214   1.978  35.761   2.358
20955W        W93215  15.819  12.415   3.468
20956W        W93216  28.126  38.077  10.740
20957W        W93217   0.224   4.947  12.067
20958W        W93218  30.483  10.215   1.817
20959W        W93219   1.432  31.828  14.842
20960W        W93220  22.399  14.626  14.763
20961W        W93221  27.546  12.905  11.938
20962W        W93222  38.447  19.492   1.194
20963W        W93223  19.799   7.309  14.867
20964W        W93224  32.861   9.358  12.113
20965W        W93225  27.442   8.323  13.321
20966W        W93226   4.615   8.634   0.766
20967W        W93227  24.550  37.154  11.595
20968W        W93228  23.973  21.505  11.087
20969W        W93229  13.630  30.680   9.893
20970W        W93230  27.078  21.505   0.363
20971W        W93231  34.975  42.272   0.957
20972W        W93232  42.035  24.092   2.658
20973W        W93233  23.871  13.471   4.748
20974W        W93234  26.982  14.818  11.702
20975W        W93235   8.789  35.357  13.638
20976W        W93236  15.454  22.980  11.128
20977W        W93237   6.959  28.734   0.181
20978W        W93238   2.609   2.050  11.303
20979W        W93239  21.741  44.773   0.518
20980W        W93240  44.463  36.957   0.498
20981W        W93241  41.360   6.670   4.181
20982W        W93242   0.800   5.765   3.595
20983W        W93243  16.673   0.565   3.633
20984W        W93244  24.141  24.677   1.924
20985W        W93245  20.414  37.952   2.326
20986W        W93246   2.371  44.515   3.365
20987W        W93247  34.884   6.038  10.598
20988W        W93248   6.944  25.200   4.620
20989W        W93249  24.133  34.998   3.190
20990W        W93250  33.254  37.663  14.509
20991W        W93251  11.598  11.579  10.461
20992W        W93252  21.522  40.896  12.401
20993W        W93253  28.188  39.968   0.393
20994W        W93254  31.707   7.925  13.398
20995W        W93255  39.967   9.099  11.627
20996W        W93256  12.176  20.228   0.301
20997W        W93257  20.023  15.128   3.605
20998W        W93258  17.858  14.711  11.514
20999W        W93259  43.138  20.026   3.202
21000W        W93260   1.272  12.852   0.368
21001W        W93261  24.796  16.662  11.104
21002W        W93262  37.002   9.637  11.995
21003W        W93263  20.107  26.126   4.167
21004W        W93264  15.011  22.454   0.255
21005W        W93265  43.066  27.032   0.836
21006W        W93266  31.961  18.812  12.068
21007W        W93267  23.588  20.208  11.262
21008W        W93268  17.066   5.335  10.607
21009W        W93269  10.302   6.941  12.331
21010W        W93270  15.094  22.287   1.895
21011W        W93271  41.714  39.089  13.874
21012W        W93272  37.962  31.099   4.599
21013W        W93273  32.300  33.207   2.930
21014W        W93274  22.188   2.996   2.827
21015W        W93275  21.526  39.536   0.449
21016W        W93276   0.768  28.891  14.822
21017W        W93277   3.124  18.637   0.802
21018W        W93278   5.801  43.060  11.558
21019W        W93279  14.171  39.316  10.504
21020W        W93280  32.054   5.431   4.547
21021W        W93281  26.345  11.665   2.661
21022W        W93282   8.688  17.744  13.002
21023W        W93283  25.450  19.028   2.766
21024W        W93284  33.447  10.405  14.482
21025W        W93285  44.308  30.203   1.378
21026W        W93286  25.626   0.921   4.256
21027W        W93287  24.014  15.057  12.147
21028W        W93288  21.160   4.209   1.192
21029W        W93289   1.377  16.541  13.133
21030W        W93290  22.615   4.429   2.925
21031W        W93291  24.643  18.636   4.124
21032W        W93292  37.944  14.733  10.747
21033W        W93293   6.399  32.300   0.403
21034W        W93294  24.915  27.369   0.850
21035W        W93295  41.578  25.489  12.922
21036W        W93296  40.425  33.685  11.654
21037W        W93297  14.408  27.982  12.373
21038W        W93298   0.322   6.414   1.781
21039W        W93299   8.235  29.019   2.332
21040W        W93300  18.860   0.888  13.862
21041W        W93301  40.511   9.612   4.640
21042W        W93302  10.161  21.487  14.910
21043W        W93303  18.326  18.664  11.019
21044W        W93304  16.866   4.504  13.588
21045W        W93305  37.714  21.761  11.322
21046W        W93306   0.455  17.985  13.998
21047W        W93307   6.201  25.520  10.601
21048W        W93308  34.327  32.477  13.973
21049W        W93309  30.961  15.143  14.059
21050W        W93310  34.720  28.626  13.928
21051W        W93311   3.384   2.513   2.432
21052W        W93312  20.338   6.097   5.430
21053W        W93313  23.099   5.912   0.927
21054W        W93314  44.512  42.963  12.897
21055W        W93315  42.930  22.058   2.220
21056W        W93316  34.687  21.062   0.960
21057W        W93317  28.050  12.603  11.270
21058W        W93318  11.473  21.181   5.039
21059W        W93319  39.490  35.588   4.659
21060W        W93320  36.282   0.034  11.356
21061W        W93321  14.688   4.229   1.424
21062W        W93322  18.775  41.428  12.116
21063W        W93323  43.318  34.675  14.845
21064W        W93324   9.789  19.740  12.039
21065W        W93325  13.609   8.460  12.660
21066W        W93326   4.365   0.016   0.883
21067W        W93327   6.897  44.066   3.286
21068W        W93328   8.608  16.965   4.452
21069W        W93329   0.454  11.577  13.114
21070W        W93330   5.735  34.893  10.456
21071W        W93331  28.260  40.906   5.049
21072W        W93332  17.404  44.733  10.380
21073W        W93333   5.352  33.047   1.830
21074W        W93334  28.453   2.923   4.825
21075W        W93335  16.739  34.426   4.105
21076W        W93336  10.841  42.460  12.077
21077W        W93337   5.982   4.329   3.116
21078W        W93338   5.764  40.951  10.736
21079W        W93339  19.521   2.923   2.844
21080W        W93340  30.460  40.624  12.502
21081W        W93341  39.906  28.636   4.133
21082W        W93342  44.691  12.709   2.260
21083W        W93343   5.794  41.902  14.725
21084W        W93344  18.581  32.902  12.895
21085W        W93345  37.401   9.704   4.421
21086W        W93346  42.818  26.732   4.187
21087W        W93347   8.424  18.678   3.069
21088W        W93348  20.264  34.975  13.330
21089W        W93349  43.062  31.770  11.239
21090W        W93350  24.491  19.920  14.324
21091W        W93351  35.942  16.865  14.048
21092W        W93352   2.313   8.138  12.514
21093W        W93353   5.247  29.942  11.619
21094W        W93354  22.121   0.713   1.195
21095W        W93355  44.325  29.594   4.522
21096W        W93356  36.912  21.205  12.471
21097W        W93357  43.302  42.578  14.980
21098W        W93358  37.323   4.775  14.763
21099W        W93359  18.022   0.762   0.981
21100W        W93360  29.594  26.782   4.096
21101W        W93361   6.690  16.071   3.386
21102W        W93362  37.869  22.223  10.466
21103W        W93363  29.347   7.206  13.064
21104W        W93364  37.950  28.388  11.926
21105W        W93365  26.505  40.888   4.671
21106W        W93366  43.951  13.135  11.619
21107W        W93367  30.160  27.363   1.909
21108W        W93368  22.269  43.764  12.454
21109W        W93369  29.912  27.104  14.292
21110W        W93370  28.028  11.173   4.593
21111W        W93371  14.773  18.878   4.445
21112W        W93372  40.817  30.082  14.429
21113W        W93373  31.210  38.439   4.572
21114W        W93374  27.579  25.910   1.489
21115W        W93375  11.493   7.583   4.353
21116W        W93376  25.052  19.194   0.434
21117W        W93377  29.617  36.133   1.057
21118W        W93378  44.355  13.608  10.645
21119W        W93379   1.986   3.578  12.968
21120W        W93380  37.379  22.059  11.588
21121W        W93381  27.382  22.283   1.500
21122W        W93382  21.425  29.186  11.968
21123W        W93383   9.668  44.256   3.236
21124W        W93384  41.417  33.035  13.517
21125W        W93385  17.070  18.207  14.499
21126W        W93386  40.056  35.437   3.072
21127W        W93387  19.973  20.122  14.492
21128W        W93388   7.148  40.463   4.918
21129W        W93389  10.240  11.618  14.498
21130W        W93390  14.298  27.521  12.550
21131W        W93391  32.547  22.025   1.930
21132W        W93392  14.752  14.826   2.588
21133W        W93393  29.022   3.662  12.505
21134W        W93394   4.701  12.354  11.143
21135W        W93395   8.253  34.828   1.904
21136W        W93396  42.035  42.276   4.050
21137W        W93397  12.388  11.265   3.039
21138W        W93398  34.355   1.294   2.347
21139W        W93399   6.433  29.011  14.483
21140W        W93400  38.418  33.708   2.469
21141W        W93401  34.177  30.591  14.957
21142W        W93402  39.841   4.290  12.863
21143W        W93403  15.743  33.881   1.313
21144W        W93404   2.781  39.891   4.149
21145W        W93405  30.652   1.861   1.073
21146W        W93406  26.027  18.140   4.762
21147W        W93407  36.357  39.200  11.790
21148W        W93408  25.668  34.869  11.523
21149W        W93409  21.685  26.690  10.579
21150W        W93410  35.802  27.084   1.354
21151W        W93411  36.425   6.833  11.684
21152W        W93412  28.062  44.819   3.181
21153W        W93413  31.649  20.189  12.823
21154W        W93414   8.255  28.653   3.605
21155W        W93415  28.887   5.036  14.382
21156W        W93416  15.778  32.049   3.084
21157W        W93417  26.896  11.317  11.280
21158W        W93418  38.395  25.951  12.599
21159W        W93419  39.296  17.701  11.148
21160W        W93420  15.059  26.041   3.957
21161W        W93421  32.539   5.943   1.442
21162W        W93422  31.631  39.951  14.434
21163W        W93423   1.350  12.362   4.148
21164W        W93424  44.796  41.498   1.356
21165W        W93425   1.948   0.724   3.753
21166W        W93426  42.460   5.350   4.344
21167W        W93427  27.420  28.524   4.793
21168W        W93428  38.487  16.077  13.389
21169W        W93429  30.319  16.736  11.901
21170W        W93430  37.782  32.501   3.320
21171W        W93431  17.038   2.942   0.273
21172W        W93432  34.181  25.023  13.134
21173W        W93433  21.985  23.313   0.972
21174W        W93434  44.774  32.733  11.057
21175W        W93435  30.080   3.181   3.414
21176W        W93436  41.067   4.736   3.848
21177W        W93437  21.156   7.617   3.480
21178W        W93438  43.580  11.874  10.162
21179W        W93439  28.068  17.093   3.222
21180W        W93440  17.498   0.238  12.927
21181W        W93441  25.243  38.900   3.705
21182W        W93442  43.476  28.977   1.255
21183W        W93443  21.025  39.815   3.422
21184W        W93444  22.636  25.122  11.672
21185W        W93445   0.670  20.000  13.918
21186W        W93446  37.939  19.073   4.150
21187W        W93447  24.176  22.807   4.633
21188W        W93448  27.025   8.286  12.431
21189W        W93449  30.330  39.926   0.844
21190W        W93450  19.185  37.305  10.083
21191W        W93451   0.393  15.914   2.835
21192W        W93452  34.762  28.247  11.220
21193W        W93453  30.217  22.733  12.057
21194W        W93454  33.653  19.209   1.494
21195W        W93455  24.550  11.114  14.376
21196W        W93456  41.558   0.841   4.032
21197W        W93457  16.190  37.059   3.849
21198W        W93458   7.683   1.530   3.636
21199W        W93459  32.059  12.114  13.009
21200W        W93460  15.376  44.108  11.131
21201W        W93461  22.444  28.172   3.730
21202W        W93462  17.729  35.036  13.856
21203W        W93463  40.848   1.021   2.182
21204W        W93464   4.497  39.107  10.048
21205W        W93465   6.300  32.683  12.665
21206W        W93466  23.303  36.964   0.337
21207W        W93467  18.186  19.169  12.154
21208W        W93468  28.527  39.503   0.895
21209W        W93469  44.745  30.576  14.299
21210W        W93470  38.073  22.174   0.467
21211W        W93471  12.543  29.283  13.883
21212W        W93472   8.475  33.853  12.100
21213W        W93473  30.242  30.686   0.514
21214W        W93474   0.038  12.636   0.242
21215W        W93475   3.860   1.857   4.330
21216W        W93476   2.715  43.929  13.004
21217W        W93477  14.128  27.041   3.266
21218W        W93478  32.584   2.724  11.225
21219W        W93479  18.098  28.843   0.524
21220W        W93480  33.667  13.855   3.107
21221W        W93481  28.033  37.536   0.205
21222W        W93482   3.211  24.589   0.441
21223W        W93483  28.185  39.456   1.740
21224W        W93484   4.132  33.391   3.604
21225W        W93485  19.229  22.020   2.807
21226W        W93486  18.039  41.528  11.440
21227W        W93487  18.362  36.998  12.228
21228W        W93488   3.410  24.967   2.232
21229W        W93489  23.260  44.365  13.198
21230W        W93490  13.958   3.687   2.336
21231W        W93491  29.979  22.119  14.637
21232W        W93492  35.850  22.487  14.053
21233W        W93493  37.398  37.095   1.366
21234W        W93494  41.790  27.745   3.141
21235W        W93495  41.463  37.960   3.453
21236W        W93496  13.258  30.675   3.174
21237W        W93497  34.456  23.169  12.359
21238W        W93498  21.148  17.639  13.863
21239W        W93499  44.742  34.530  10.980
21240W        W93500   3.937  12.218  11.593
21241W        W93501  29.928  23.625  14.233
21242W        W93502  18.509  44.728  14.509
21243W        W93503   3.243  19.256   2.736
21244W        W93504  27.983  20.207  12.515
21245W        W93505  36.553  44.948   3.819
21246W        W93506  25.570  16.816   4.675
21247W        W93507   9.189  41.828   0.364
21248W        W93508   1.134  28.546  10.793
21249W        W93509  36.065   4.401   3.325
21250W        W93510  15.043   6.506   3.765
21251W        W93511  30.814   7.643   2.234
21252W        W93512  17.585   9.606   2.194
21253W        W93513  38.816  14.345   1.106
21254W        W93514   3.389  15.061  10.600
21255W        W93515  27.486   9.468  12.701
21256W        W93516  16.613  34.140   2.775
21257W        W93517  15.841  22.639  14.761
21258W        W93518   6.276  23.832   4.481
21259W        W93519  29.157  27.835  12.864
21260W        W93520  14.078  32.121   2.312
21261W        W93521  40.496  37.414  12.843
21262W        W93522  40.830   0.812  13.842
21263W        W93523  18.867  32.142   1.394
21264W        W93524  37.537  13.098  11.406
21265W        W93525  18.711  14.171   0.058
21266W        W93526   0.790  16.204   4.373
21267W        W93527  20.755   5.834   2.349
21268W        W93528  40.320  14.201   3.555
21269W        W93529  23.658  40.913   5.110
21270W        W93530   0.930   9.350   0.291
21271W        W93531  36.169  34.963  14.396
21272W        W93532   4.876   0.354  12.636
21273W        W93533   8.378   7.939  11.646
21274W        W93534  38.956  28.116   4.610
21275W        W93535  24.541  44.510   0.983
21276W        W93536   2.276  13.375  11.671
21277W        W93537  42.549  20.672  14.245
21278W        W93538   1.518  24.022   3.360
21279W        W93539  16.132  16.808  14.073
21280W        W93540  22.142  28.467   1.477
21281W        W93541  14.069  22.206   4.353
21282W        W93542  13.314  14.281  11.171
21283W        W93543  43.833  36.159  12.149
21284W        W93544  21.570   0.345   4.568
21285W        W93545  19.655   6.935  10.560
21286W        W93546  17.589  40.050  11.160
21287W        W93547  28.596  18.795  11.358
21288W        W93548   8.680  26.212   4.115
21289W        W93549  37.550  17.203   1.425
21290W        W93550  21.258  30.359   2.224
21291W        W93551  17.290  40.542   0.916
21292W        W93552  33.380   0.434   2.658
21293W        W93553  25.851  14.037  12.040
21294W        W93554   2.646   9.267  11.641
21295W        W93555  10.958  28.096   4.198
21296W        W93556  15.377  44.979   4.111
21297W        W93557  22.736  27.073  12.677
21298W        W93558  33.066   9.807  14.838
21299W        W93559   8.579  42.842  10.065
21300W        W93560  18.145  15.998   0.318
21301W        W93561  24.075   4.423   3.071
21302W        W93562  27.242   4.918   0.245
21303W        W93563  23.950  41.440  13.716
21304W        W93564   3.114  34.275   1.007
21305W        W93565  18.052   9.947  11.146
21306W        W93566   1.266  11.151   4.204
21307W        W93567  36.540  34.894   4.509
21308W        W93568  42.970   3.781   4.536
21309W        W93569  22.716  37.837  11.070
21310W        W93570  22.279  30.698   0.355
21311W        W93571  25.061  42.420  14.471
21312W        W93572  34.941  14.983  10.743
21313W        W93573  40.484   6.330   4.629
21314W        W93574  43.500   6.762  13.560
21315W        W93575  35.183  33.819  12.994
21316W        W93576  34.091  25.935  12.573
21317W        W93577  10.180  23.890   4.174
21318W        W93578  27.147  12.839  14.136
21319W        W93579   1.687  32.384   3.721
21320W        W93580  18.319   8.117  11.134
21321W        W93581   3.677  25.950   0.904
21322W        W93582  12.850   1.990   4.092
21323W        W93583  25.718  22.112   2.698
21324W        W93584  44.141  20.093  12.989
21325W        W93585  18.779   2.057   3.025
21326W        W93586  29.551  29.438  11.452
21327W        W93587  13.269  37.613   0.428
21328W        W93588   4.136  18.600  14.338
21329W        W93589  15.243  36.958   1.054
21330W        W93590  15.565  14.529   5.039
21331W        W93591  15.063  26.274  14.844
21332W        W93592  31.371  34.580  11.966
21333W        W93593  25.068  16.721   4.532
21334W        W93594  19.731  18.629  11.159
21335W        W93595   7.197  39.936  13.049
21336W        W93596  25.492  40.529  11.365
21337W        W93597  19.641  20.701   2.801
21338W        W93598  24.027  30.233  13.914
21339W        W93599  41.015  24.924  14.044
21340W        W93600  39.894  33.299  10.732
21341W        W93601   8.947  29.135   4.211
21342W        W93602  38.978   3.275  13.973
21343W        W93603  21.664  12.532  10.258
21344W        W93604   5.261  34.533   1.902
21345W        W93605  20.470  20.112  14.454
21346W        W93606   6.184  22.486  13.428
21347W        W93607  37.882  42.354   4.054
21348W        W93608  18.612  42.307  10.687
21349W        W93609  10.285  28.197   2.442
21350W        W93610  19.631   3.865  13.509
21351W        W93611   2.539   4.426  12.753
21352W        W93612   2.221   3.482   4.067
21353W        W93613  13.305  35.851   0.033
21354W        W93614  19.080  37.889   2.935
21355W        W93615  42.372  38.412   0.768
21356W        W93616  37.367  33.073  10.701
21357W        W93617  11.153  21.642  13.074
21358W        W93618  21.436  33.477   2.765
21359W        W93619  17.613  34.503   4.645
21360W        W93620  15.286  10.788   1.772
21361W        W93621  15.184  44.015  14.283
21362W        W93622  21.609  41.550  13.255
21363W        W93623  22.506  36.509   1.699
21364W        W93624  14.272  13.141  10.560
21365W        W93625  29.857  29.516  13.813
21366W        W93626  23.206  10.729   0.829
21367W        W93627  41.420  10.280  11.647
21368W        W93628  29.643  42.475   3.761
21369W        W93629  19.538  19.984   3.206
21370W        W93630  17.989  11.815  11.948
21371W        W93631   9.788  11.268   0.135
21372W        W93632   7.252  17.851  12.471
21373W        W93633   0.785  40.575  12.338
21374W        W93634  14.880   6.243  10.551
21375W        W93635  43.797  38.240   2.782
21376W        W93636  32.426   8.778   0.258
21377W        W93637  22.686   8.649  12.502
21378W        W93638  23.133  24.782  11.374
21379W        W93639  20.550  27.069   5.045
21380W        W93640  23.807  44.262  11.036
21381W        W93641  19.654  39.571   1.916
21382W        W93642   8.241  17.220   2.352
21383W        W93643  14.127   1.189   1.808
21384W        W93644  31.896  44.826   3.296
21385W        W93645  33.835  10.739  11.998
21386W        W93646  27.682   7.120   0.925
21387W        W93647   4.726   5.652  11.729
21388W        W93648  39.593  35.325   3.303
21389W        W93649  29.155   6.712  11.338
21390W        W93650  28.616  21.539   1.768
21391W        W93651  19.024  17.774   0.542
21392W        W93652  27.862  33.954  14.952
21393W        W93653  34.889  38.990  12.532
21394W        W93654  12.549  24.636   3.482
21395W        W93655  17.078  21.314   5.008
21396W        W93656  24.456  44.423   4.640
21397W        W93657   3.323  30.928  14.977
21398W        W93658  22.939  25.409  13.182
21399W        W93659  24.962  13.195  10.762
21400W        W93660   8.932  10.191   2.197
21401W        W93661  10.374   2.420   3.708
21402W        W93662  43.287  41.993  10.519
21403W        W93663  14.103  25.581  13.207
21404W        W93664  37.430   1.658   1.483
21405W        W93665  25.345  13.186   3.009
21406W        W93666   2.835  13.884  13.356
21407W        W93667  12.314   7.370  14.071
21408W        W93668  25.259  20.121   2.327
21409W        W93669  35.705  42.342  12.667
21410W        W93670  13.393   0.587   1.702
21411W        W93671  15.512  40.139   2.370
21412W        W93672  30.486  38.036   3.098
21413W        W93673  18.735  39.827   3.323
21414W        W93674  37.336   8.624   2.351
21415W        W93675  38.331  18.374  13.852
21416W        W93676  26.049   3.481  14.894
21417W        W93677  42.802  42.659   1.190
21418W        W93678   6.273  13.198  11.517
21419W        W93679  11.119  35.453  11.544
21420W        W93680  15.261  36.093  12.415
21421W        W93681  42.236  40.903  11.027
21422W        W93682  30.466   6.425   4.169
21423W        W93683  13.051  28.090   3.084
21424W        W93684   3.998   6.686   0.065
21425W        W93685  16.861  22.219   0.388
21426W        W93686   5.737   2.671  13.886
21427W        W93687  28.666  19.771  14.548
21428W        W93688  40.620  34.859   1.740
21429W        W93689  32.556  25.446  11.615
21430W        W93690  25.619   1.814  13.252
21431W        W93691  32.598  39.419   3.944
21432W        W93692  16.615  30.433  14.744
21433W        W93693  15.871  17.538  13.259
21434W        W93694   1.171   0.823  14.132
21435W        W93695  28.078  17.482   0.495
21436W        W93696   9.611  12.043  11.190
21437W        W93697  20.935   5.251   4.073
21438W        W93698  11.873  11.394  13.917
21439W        W93699  27.451   5.926   3.374
21440W        W93700  36.367  11.808   2.309
21441W        W93701  12.787   4.880  14.531
21442W        W93702   5.660  15.601   0.812
21443W        W93703  26.593  43.995  14.902
21444W        W93704  42.705  21.496   0.332
21445W        W93705  37.430  26.004  11.028
21446W        W93706   1.319  30.786   1.245
21447W        W93707  22.652  15.662  10.704
21448W        W93708  36.426  42.948  12.528
21449W        W93709  22.500  26.373   2.558
21450W        W93710  29.778  29.517  10.948
21451W        W93711  14.240  31.453  12.416
21452W        W93712  16.594   3.285   0.107
21453W        W93713  38.603  21.310   2.562
21454W        W93714  10.732   7.898   1.233
21455W        W93715  14.572  28.376   4.280
21456W        W93716  34.247  10.411   2.860
21457W        W93717  21.333   5.435  10.659
21458W        W93718  29.590  22.220  13.816
21459W        W93719   0.754  19.678  13.513
21460W        W93720  15.624  42.390   2.671
21461W        W93721  10.101   7.938   0.735
21462W        W93722  22.808  15.210  11.507
21463W        W93723   0.687  37.681   2.785
21464W        W93724   6.718  14.141  13.665
21465W        W93725  28.876   4.690   3.334
21466W        W93726  17.169  38.924   4.656
21467W        W93727  40.799   1.616   4.177
21468W        W93728  25.278  10.588  11.537
21469W        W93729  34.673   5.448  10.999
21470W        W93730  20.309  25.783   4.507
21471W        W93731  10.709  40.559   4.884
21472W        W93732  40.600  44.855  10.744
21473W        W93733   2.324  26.614  10.677
21474W        W93734   0.383  10.861  13.757
21475W        W93735  31.174  32.585  14.318
21476W        W93736  13.411  31.617  11.359
21477W        W93737  36.282  13.195   4.225
21478W        W93738  10.840  22.669  12.179
21479W        W93739  40.565  31.380  11.626
21480W        W93740   8.825  28.228   5.023
21481W        W93741   9.602  11.269  11.545
21482W        W93742  24.042  22.432   3.264
21483W        W93743  23.012  32.132  13.987
21484W        W93744  31.407  12.715  14.143
21485W        W93745  22.776  34.523  14.325
21486W        W93746  16.794   0.884  10.372
21487W        W93747  10.670  37.509   0.763
21488W        W93748  38.320   4.710   3.209
21489W        W93749  23.746  34.297  11.574
21490W        W93750  32.410   3.295  13.451
21491W        W93751  41.296   6.631   3.273
21492W        W93752   2.020  44.917  14.222
21493W        W93753   6.169  30.496   1.262
21494W        W93754  27.080  23.704  13.353
21495W        W93755   0.651  27.573   1.387
21496W        W93756  16.353  36.153   3.654
21497W        W93757   1.951  13.170  13.406
21498W        W93758  28.597  30.100   4.037
21499W        W93759  20.635  18.134   2.870
21500W        W93760  16.592  10.293   4.746
21501W        W93761  27.705  13.345  11.761
21502W        W93762  25.723  16.006   4.156
21503W        W93763   6.204  29.443  10.647
21504W        W93764  26.217   2.301  11.074
21505W        W93765  44.769  37.317  13.815
21506W        W93766   3.660  13.540   4.634
21507W        W93767   6.681  44.850   2.634
21508W        W93768  39.330  37.858   3.333
21509W        W93769   7.810   1.817  14.868
21510W        W93770   4.296  11.416  10.369
21511W        W93771  33.465   9.532   4.189
21512W        W93772  11.930  36.091   1.339
21513W        W93773  30.874   2.903  12.079
21514W        W93774  38.513  33.111   4.254
21515W        W93775  16.246  31.339   1.163
21516W        W93776  42.049  15.380   2.757
21517W        W93777  35.075  21.484   2.168
21518W        W93778  21.835  41.876  12.300
21519W        W93779  24.739  15.402  11.588
21520W        W93780  23.953  36.946  14.980
21521W        W93781   7.368  31.324   3.632
21522W        W93782  30.211   0.247  13.480
21523W        W93783  37.938  35.490  11.522
21524W        W93784  20.619  44.957  11.850
21525W        W93785  17.277  17.174  13.758
21526W        W93786  13.642   5.767  10.530
21527W        W93787  38.360  15.174  13.115
21528W        W93788  33.407  16.702  13.793
21529W        W93789   7.318  23.580   2.874
21530W        W93790  12.285  39.317   4.938
21531W        W93791  33.877  37.258   0.918
21532W        W93792  24.048  33.409  10.540
21533W        W93793   2.036  34.635   3.212
21534W        W93794  41.477   7.851   2.634
21535W        W93795  20.760  42.420   4.053
21536W        W93796  23.299  14.285   2.337
21537W        W93797   3.673  17.821   0.222
21538W        W93798  35.337  41.966  11.034
21539W        W93799  36.717  20.036   1.613
21540W        W93800  43.719  32.314  12.528
21541W        W93801   6.337   3.706  10.811
21542W        W93802   4.181  37.093  14.770
21543W        W93803  23.996  18.634  14.508
21544W        W93804  10.707  30.395   0.466
21545W        W93805  20.074  24.605   2.441
21546W        W93806  10.668  44.552   1.263
21547W        W93807  35.924  32.319   4.156
21548W        W93808  40.841  19.582  10.560
21549W        W93809  32.111  22.199  10.511
21550W        W93810  16.723  10.281  11.918
21551W        W93811  22.584   4.232  10.067
21552W        W93812   5.842  37.333   0.461
21553W        W93813   1.682  25.053   1.866
21554W        W93814  36.896  11.881   3.367
21555W        W93815  33.150  13.128   4.978
21556W        W93816  26.280  41.788   9.812
21557W        W93817  39.509   4.417   2.648
21558W        W93818  26.518  40.875  14.368
21559W        W93819   2.897  23.004   3.584
21560W        W93820  31.604  14.527  13.816
21561W        W93821  14.077   4.946  11.067
21562W        W93822  34.651  14.602  13.419
21563W        W93823  41.143  28.094   1.733
21564W        W93824  34.997   1.699  12.786
21565W        W93825   7.647  26.154  13.437
21566W        W93826  10.512  43.754  12.087
21567W        W93827   6.728  16.101  13.303
21568W        W93828  22.735  13.764  12.432
21569W        W93829  30.220  39.425   0.655
21570W        W93830  25.460   0.984  14.782
21571W        W93831  23.700  39.287   2.609
21572W        W93832  27.369  33.532  13.373
21573W        W93833  12.187  26.590   4.707
21574W        W93834   8.665  21.128  11.757
21575W        W93835  44.869  15.403  10.397
21576W        W93836  16.082   3.540   1.849
21577W        W93837  43.863   5.413  14.478
21578W        W93838  21.599  20.822   3.788
21579W        W93839  10.633   6.382   4.132
21580W        W93840  29.430  39.491   1.282
21581W        W93841  25.062   5.743   3.346
21582W        W93842  31.027   8.193  10.360
21583W        W93843  33.595   5.493  11.988
21584W        W93844   5.810  42.158  12.891
21585W        W93845  23.428  37.807   2.783
21586W        W93846  15.713  14.866   2.639
21587W        W93847  21.181   8.884  14.999
21588W        W93848   8.967  38.278   3.245
21589W        W93849   0.562  40.994  12.536
21590W        W93850   9.672   0.240   1.800
21591W        W93851  32.037   7.631  12.620
21592W        W93852   9.141  13.791  10.690
21593W        W93853  29.468  34.034   4.400
21594W        W93854  23.377  26.587   0.857
21595W        W93855   0.021   7.707   0.822
21596W        W93856  33.804   9.293   1.945
21597W        W93857  34.551  25.135   2.212
21598W        W93858  29.123  15.405  12.410
21599W        W93859  17.117  22.194  13.027
21600W        W93860  14.177  14.723  12.297
21601W        W93861  40.316   8.885   1.512
21602W        W93862  31.929  10.387   1.894
21603W        W93863  32.038  36.866   0.900
21604W        W93864  29.950   8.118   2.771
21605W        W93865   3.728  35.157  10.692
21606W        W93866   3.806  44.055   2.298
21607W        W93867   6.434   1.487   3.414
21608W        W93868  43.480   2.517  11.663
21609W        W93869  24.158  25.096   9.916
21610W        W93870  34.175  34.163  13.422
21611W        W93871   1.228  15.076  11.149
21612W        W93872  43.051  40.926   4.005
21613W        W93873  16.072  25.872   1.226
21614W        W93874  30.465   2.048  13.928
21615W        W93875  16.655  18.601   3.133
21616W        W93876  19.933  10.656   1.267
21617W        W93877   5.288  31.008   1.320
21618W        W93878  18.585   5.829   5.477
21619W        W93879  36.875  21.849   0.699
21620W        W93880  41.086  17.162   3.487
21621W        W93881   1.901  31.213  14.817
21622W        W93882  15.044  18.297  11.067
21623W        W93883  37.830  22.725  13.335
21624W        W93884  33.790  36.393  13.553
21625W        W93885   8.890  40.455  10.783
21626W        W93886  16.787   3.346  13.982
21627W        W93887   5.524  17.840   1.290
21628W        W93888   9.182  39.317  13.416
21629W        W93889   1.739  35.302  14.484
21630W        W93890  44.745  29.142  14.841
21631W        W93891  31.147  24.691  10.705
21632W        W93892   2.938  11.897   3.422
21633W        W93893  12.171  40.048   4.614
21634W        W93894  41.373  16.739   4.405
21635W        W93895   3.216  23.119   4.428
21636W        W93896  17.942   4.814   2.283
21637W        W93897  30.548  18.923   3.714
21638W        W93898   3.928  19.515  12.080
21639W        W93899  16.268  38.173  14.924
21640W        W93900  15.136  16.058  13.471
21641W        W93901  13.181  26.412   4.378
21642W        W93902  22.213  15.844   0.362
21643W        W93903  18.398  28.960   5.096
21644W        W93904  20.531  39.872   2.240
21645W        W93905  33.589  18.009   2.431
21646W        W93906   2.934  38.993  14.711
21647W        W93907  25.192  38.846  11.527
21648W        W93908   2.447  27.640   0.797
21649W        W93909  23.964  23.414   2.021
21650W        W93910  17.543  34.165   1.676
21651W        W93911  24.274  42.196  13.401
21652W        W93912   4.237   6.998  11.231
21653W        W93913  33.596   7.866  12.634
21654W        W93914  37.329  28.099   3.163
21655W        W93915   8.915  11.687   1.861
21656W        W93916   0.213   0.235  13.895
21657W        W93917  20.498   4.762  14.804
21658W        W93918  40.897   6.620   1.529
21659W        W93919   0.675  13.545  10.729
21660W        W93920   6.475  16.549   3.644
21661W        W93921  11.199  26.746  14.048
21662W        W93922   9.750  32.635   4.183
21663W        W93923  37.393  39.266   0.801
21664W        W93924  12.763  24.641   1.365
21665W        W93925  28.356  42.949  10.987
21666W        W93926   8.905   2.439  11.580
21667W        W93927  35.313   8.916  14.007
21668W        W93928  42.849   4.962  14.894
21669W        W93929  28.369   6.292   2.317
21670W        W93930  35.499  43.780   3.342
21671W        W93931  17.218   2.708  14.829
21672W        W93932  21.628  28.464  11.083
21673W        W93933  15.159  26.942   2.262
21674W        W93934  20.310  39.961  13.929
21675W        W93935  40.759   0.726   1.732
21676W        W93936   6.952   8.353   0.577
21677W        W93937  37.307  11.092  12.916
21678W        W93938   3.351  15.766   2.783
21679W        W93939   5.538   2.553   0.875
21680W        W93940  17.299   6.274  10.497
21681W        W93941  41.962  12.083   1.604
21682W        W93942  18.200  10.346  11.540
21683W        W93943  10.104  32.890   3.804
21684W        W93944   1.951  44.446   3.995
21685W        W93945   2.379  13.427  14.611
21686W        W93946  29.996  17.293   3.573
21687W        W93947  36.987  41.496  12.873
21688W        W93948  26.105  41.305   3.624
21689W        W93949  15.010  36.540   3.318
21690W        W93950  30.714  36.559   1.493
21691W        W93951   6.198  16.175  10.887
21692W        W93952  43.368   3.485   3.357
21693W        W93953  14.313  21.133  11.302
21694W        W93954  22.028   2.619   4.087
21695W        W93955  19.525  22.009  14.014
21696W        W93956   6.247   0.460  11.163
21697W        W93957  30.360  17.657   0.934
21698W        W93958  16.334  41.321   0.309
21699W        W93959  37.741  37.992  11.315
21700W        W93960  10.778  42.806   1.036
21701W        W93961  10.220   3.911  13.457
21702W        W93962  28.685   8.818   3.337
21703W        W93963  40.356   9.812  11.381
21704W        W93964   8.560  13.109  12.376
21705W        W93965   4.953  37.405  11.422
21706W        W93966  38.043   7.546  10.076
21707W        W93967   3.041  10.684   0.839
21708W        W93968   9.080  28.675   2.840
21709W        W93969   8.412   1.329   1.408
21710W        W93970   4.633   8.389   4.257
21711W        W93971  17.861  13.693   0.854
21712W        W93972  31.126  30.463  13.306
21713W        W93973  22.160  30.155   1.782
21714W        W93974  31.377  34.639  11.193
21715W        W93975  44.723  44.619  13.466
21716W        W93976  27.426  24.716  13.300
21717W        W93977  14.249   1.615   2.756
21718W        W93978  40.178  18.473  11.452
21719W        W93979  10.588  32.816  10.892
21720W        W93980  11.766   1.248   3.664
21721W        W93981  19.696  16.762   0.240
21722W        W93982  11.835  41.707  12.893
21723W        W93983  42.347  38.987   4.557
21724W        W93984   3.767   0.794   2.495
21725W        W93985   2.369   1.662   1.652
21726W        W93986  27.983  27.437   4.364
21727W        W93987   8.386  14.757   3.613
21728W        W93988  23.253  26.769  14.086
21729W        W93989  10.178  34.168  12.598
21730W        W93990   6.005  21.938  14.822
21731W        W93991  31.411   8.237   1.917
21732W        W93992  23.460   4.752  11.057
21733W        W93993  32.420   0.834  12.629
21734W        W93994  23.417  23.639  10.810
21735W        W93995  14.906  39.507   1.685
21736W        W93996  32.975  18.221   0.761
21737W        W93997   9.151  32.632   1.032
21738W        W93998  11.959  18.095   2.735
21739W        W93999  30.051  26.650   0.935
21740W        W94000  30.517  23.986  14.928
21741W        W94001  21.513  38.379   1.710
21742W        W94002  38.966  18.570  14.348
21743W        W94003  15.050  43.776  13.840
21744W        W94004  42.281  17.649   3.186
21745W        W94005  17.301  40.604   4.586
21746W        W94006   2.441   3.632  12.671
21747W        W94007   5.324  34.607  11.591
21748W        W94008  12.545  12.157  12.085
21749W        W94009  44.085   9.100   2.141
21750W        W94010  43.408  37.107   4.880
21751W        W94011  39.978   4.846  13.796
21752W        W94012   2.248  11.961   3.611
21753W        W94013   7.961  33.833  12.064
21754W        W94014  33.950  18.748   5.548
21755W        W94015  13.333   3.432   4.138
21756W        W94016  35.170  14.593  13.226
21757W        W94017  12.380   8.277  10.717
21758W        W94018  42.245  42.223  11.742
21759W        W94019  13.329  37.643  14.790
21760W        W94020   1.314  18.127  13.062
21761W        W94021  14.326  37.603   3.317
21762W        W94022  40.645  16.094   4.745
21763W        W94023  10.143   4.461   2.158
21764W        W94024  20.669  13.297  11.446
21765W        W94025  35.805  41.274   0.826
21766W        W94026  21.770  12.034  12.983
21767W        W94027  14.234  11.704  12.955
21768W        W94028  21.518   3.833   4.203
21769W        W94029  36.858  27.186   4.170
21770W        W94030  30.547  37.604  12.936
21771W        W94031  15.607   9.338   3.657
21772W        W94032  27.092  12.268  12.059
21773W        W94033  14.336  27.052  11.854
21774W        W94034   5.920  23.472  11.701
21775W        W94035  38.300  15.239   0.861
21776W        W94036  21.092  41.891  10.660
21777W        W94037   0.289   7.443   1.689
21778W        W94038  43.955  22.225  13.480
21779W        W94039  18.601   5.991   0.872
21780W        W94040  38.445  16.749   1.617
21781W        W94041  14.689  29.319  12.545
21782W        W94042   7.276  20.329   0.854
21783W        W94043  10.934  33.116  12.063
21784W        W94044  34.893  28.723  11.044
21785W        W94045  43.885   8.495   0.494
21786W        W94046   5.657  14.832  14.879
21787W        W94047  33.997  42.558  13.493
21788W        W94048  14.564  37.033   4.501
21789W        W94049   1.770  28.031  11.243
21790W        W94050  16.727  21.636  13.966
21791W        W94051  39.956  33.623  11.988
21792W        W94052  35.138   9.025   3.343
21793W        W94053  12.411   7.057   4.146
21794W        W94054  33.389  41.918   3.076
21795W        W94055  13.585   5.693   1.424
21796W        W94056  15.162  28.772   3.210
21797W        W94057   5.916  18.101   4.293
21798W        W94058   3.069   0.944  10.676
21799W        W94059  39.040   4.363   0.057
21800W        W94060  21.268   0.884   0.758
21801W        W94061  35.892  20.485   0.422
21802W        W94062  34.612  16.639   0.960
21803W        W94063  20.760  38.447   4.653
21804W        W94064   8.703  11.710  11.520
21805W        W94065   1.231  25.270   0.368
21806W        W94066  37.663  14.352  11.014
21807W        W94067  32.859  25.987   1.947
21808W        W94068  22.307  18.075   4.979
21809W        W94069   4.532   5.813  12.177
21810W        W94070  38.012  14.934   0.044
21811W        W94071  39.588  36.442  13.574
21812W        W94072   0.069  44.108   0.917
21813W        W94073  14.281  16.729  10.576
21814W        W94074  21.132   1.599   2.474
21815W        W94075  38.117   5.753   2.435
21816W        W94076  21.835   4.701   4.165
21817W        W94077  42.864  35.003  14.027
21818W        W94078  17.168  21.640   2.215
21819W        W94079   0.874  33.870  13.916
21820W        W94080   8.895  23.329   1.370
21821W        W94081  38.620  22.557   1.665
21822W        W94082  26.948  22.629   1.890
21823W        W94083  11.618  18.853  13.265
21824W        W94084  20.568  39.094  11.175
21825W        W94085  30.946  41.048   0.024
21826W        W94086  21.498  28.092  13.782
21827W        W94087  35.500  39.595  11.614
21828W        W94088  36.704  43.476   1.440
21829W        W94089  19.363  44.948  14.480
21830W        W94090  40.872  36.285  10.738
21831W        W94091  37.606  39.114  12.106
21832W        W94092  33.528  17.141  13.458
21833W        W94093   2.785  42.860   3.719
21834W        W94094   5.753  17.068  14.839
21835W        W94095   9.265   5.431   1.273
21836W        W94096  21.206  30.424   1.343
21837W        W94097  12.551  14.822   0.812
21838W        W94098  18.103  24.916  12.113
21839W        W94099  40.378  36.610   2.797
21840W        W94100  30.380  32.377   5.017
21841W        W94101  42.562  18.646   4.341
21842W        W94102  38.007  28.562   2.901
21843W        W94103  37.348  20.199   0.672
21844W        W94104   0.231   3.243  10.815
21845W        W94105  26.247  40.725  11.077
21846W        W94106  23.799  21.528   0.547
21847W        W94107   2.814  13.698  14.857
21848W        W94108   0.049  12.148   1.329
21849W        W94109  18.803  11.874   4.162
21850W        W94110  22.542  19.558   0.054
21851W        W94111   4.635  28.991  13.141
21852W        W94112  23.543   9.761   1.432
21853W        W94113   0.440  42.303  13.875
21854W        W94114  41.352  29.534  10.621
21855W        W94115  19.799   2.399   1.989
21856W        W94116  38.496  23.258   4.536
21857W        W94117  11.584   9.866  12.834
21858W        W94118   3.115  12.281   2.409
21859W        W94119  17.172   6.009  13.357
21860W        W94120  23.207  19.740  12.511
21861W        W94121  23.658  28.320   3.693
21862W        W94122  42.378  18.057  10.922
21863W        W94123  20.476   6.519  13.553
21864W        W94124  17.866  35.277   4.218
21865W        W94125  41.083  36.317  12.629
21866W        W94126  35.534  19.774   1.616
21867W        W94127  41.563   1.786  11.942
21868W        W94128  36.128  29.510  11.651
21869W        W94129   2.397   3.810  10.975
21870W        W94130  14.712  12.804  14.757
21871W        W94131  18.074  16.097   1.714
21872W        W94132  39.428  39.417   0.437
21873W        W94133  33.722  26.486   0.130
21874W        W94134   6.118  35.885  14.784
21875W        W94135  34.707  20.535  13.315
21876W        W94136  22.537  11.241   2.360
21877W        W94137  32.656  24.177  12.150
21878W        W94138  29.389  44.509   2.794
21879W        W94139  12.371  23.306  14.669
21880W        W94140  35.854  31.400   3.896
21881W        W94141  30.843  29.615  11.905
21882W        W94142  22.259  42.536   0.242
21883W        W94143  25.658  18.843  13.864
21884W        W94144   7.833  26.413  11.152
21885W        W94145  12.299   2.687   4.088
21886W        W94146  34.792  34.772  13.856
21887W        W94147  10.595  35.941   0.261
21888W        W94148   5.222   4.733  11.528
21889W        W94149  39.080   1.025   5.073
21890W        W94150   3.852  38.561   3.935
21891W        W94151  10.303  31.408   3.997
21892W        W94152  28.556   5.793   2.241
21893W        W94153   0.605  24.197  14.033
21894W        W94154  26.665  18.743   3.155
21895W        W94155  37.795  23.890   0.395
21896W        W94156  32.067  28.371   4.905
21897W        W94157  38.966  37.390   1.808
21898W        W94158  36.064  13.705  12.086
21899W        W94159  15.179   9.437  13.141
21900W        W94160   2.474  25.089   4.717
21901W        W94161   0.961  26.396  10.700
21902W        W94162  32.135   1.326  11.150
21903W        W94163  19.678   2.244  12.909
21904W        W94164  12.332  24.960  14.567
21905W        W94165  14.811  23.422  13.352
21906W        W94166  14.247  28.309   2.325
21907W        W94167   4.280  16.098  13.859
21908W        W94168  10.764   5.919  13.081
21909W        W94169  10.695  30.889   1.832
21910W        W94170   3.448  16.443   3.451
21911W        W94171  38.865  16.826   4.757
21912W        W94172   0.281   3.610  11.182
21913W        W94173  27.260  41.079  13.890
21914W        W94174  40.210  26.377  10.091
21915W        W94175  14.291   7.294  13.767
21916W        W94176  17.106  22.511   4.013
21917W        W94177  38.303   9.623  12.977
21918W        W94178  42.908  43.342   4.717
21919W        W94179   2.953  13.575   2.664
21920W        W94180   5.085   5.481  12.032
21921W        W94181  42.332   3.983  12.142
21922W        W94182  18.773  16.155   0.655
21923W        W94183  38.768   5.066   3.268
21924W        W94184  43.286  44.240   2.325
21925W        W94185  33.458   5.436  14.907
21926W        W94186  37.861  24.060   4.229
21927W        W94187  20.887   5.528   1.042
21928W        W94188  39.442  36.188  10.740
21929W        W94189  32.424   3.526  10.981
21930W        W94190   0.012  18.901   2.773
21931W        W94191  43.341  12.676   1.801
21932W        W94192  39.835   5.305  12.025
21933W        W94193  29.903  18.699  11.728
21934W        W94194  20.505   3.764   4.348
21935W        W94195  27.994  25.125  14.756
21936W        W94196  38.194   2.185   0.938
21937W        W94197  42.629  38.534  10.985
21938W        W94198  25.850   4.798   1.215
21939W        W94199  28.672   3.889   2.825
21940W        W94200  27.000  15.342  11.810
21941W        W94201   0.547   6.490   9.941
21942W        W94202  39.371  11.394   1.280
21943W        W94203  30.604  10.553  12.867
21944W        W94204  25.037  44.613   0.265
21945W        W94205  37.810  33.917  12.561
21946W        W94206  20.248  43.696  10.651
21947W        W94207   8.972  11.832  13.154
21948W        W94208  10.364  33.436  14.300
21949W        W94209  36.522  41.904   0.718
21950W        W94210  21.145  24.688  11.378
21951W        W94211  20.276  25.997  13.439
21952W        W94212  17.782  15.946  11.246
21953W        W94213  23.109  42.739  12.918
21954W        W94214  26.950  42.295  13.294
21955W        W94215  18.596   1.524   3.839
21956W        W94216  41.941  39.000   2.840
21957W        W94217  35.149  21.294  14.849
21958W        W94218  26.251   9.275   4.053
21959W        W94219  34.063  36.860   4.444
21960W        W94220  29.693  43.825   1.705
21961W        W94221  40.310  19.185   4.158
21962W        W94222  31.949   5.215   1.237
21963W        W94223   4.704  14.609   2.371
21964W        W94224   3.794  14.724   0.903
21965W        W94225  28.001  13.706  13.545
21966W        W94226  44.447   2.889   1.688
21967W        W94227  30.464  16.115  12.890
21968W        W94228   8.625  43.507  10.569
21969W        W94229  10.603   7.423   2.693
21970W        W94230   0.924   3.730   2.142
21971W        W94231  27.400  44.014  10.619
21972W        W94232  38.932  21.194  14.802
21973W        W94233  22.716   4.347   0.858
21974W        W94234  17.143  15.906   2.906
21975W        W94235   4.422  16.713   0.533
21976W        W94236  35.600  34.263  13.418
21977W        W94237  43.907  19.390  13.590
21978W        W94238   4.352  15.506   3.345
21979W        W94239  39.377  26.420   3.910
21980W        W94240  33.662  29.286   1.267
21981W        W94241  14.306   6.918   1.753
21982W        W94242  43.011  14.058   1.948
21983W        W94243  19.700  35.494  13.153
21984W        W94244   7.909  27.039  14.549
21985W        W94245  16.363  27.585   2.163
21986W        W94246  43.970  44.050   3.857
21987W        W94247  12.558  41.857   3.196
21988W        W94248  27.459  12.901  14.992
21989W        W94249  32.872  42.040   2.356
21990W        W94250  29.584  30.145   5.092
21991W        W94251  29.772   2.907   1.685
21992W        W94252  24.109  40.884  10.717
21993W        W94253   7.616   1.471   2.743
21994W        W94254  39.290  38.327  13.814
21995W        W94255  41.354  27.964  12.314
21996W        W94256  25.094  29.119   0.995
21997W        W94257  35.534  37.427   2.228
21998W        W94258  17.727   0.933   4.746
21999W        W94259  15.686  40.922  14.050
22000W        W94260  32.711  40.395  11.059
22001W        W94261   3.349  13.698   4.266
22002W        W94262   4.842  42.437   4.222
22003W        W94263  32.129  16.084   3.395
22004W        W94264   8.229  42.987   2.917
22005W        W94265  34.366  29.145  14.839
22006W        W94266  10.853  13.826  14.977
22007W        W94267  43.011   9.467   1.916
22008W        W94268   8.274   0.866   1.711
22009W        W94269  28.697  31.271   2.289
22010W        W94270  37.755  10.167   9.831
22011W        W94271  37.614   0.294   0.940
22012W        W94272  40.088  17.782  12.128
22013W        W94273  19.639  42.980   3.167
22014W        W94274  19.818  16.265   4.149
22015W        W94275  24.602  41.812  12.118
22016W        W94276   3.486   8.612   2.258
22017W        W94277  25.059  43.147  14.860
22018W        W94278  25.652  41.525  10.171
22019W        W94279   6.667  42.971  11.562
22020W        W94280  18.769  41.502   1.972
22021W        W94281   6.258  28.391  10.654
22022W        W94282   5.249   8.840  13.169
22023W        W94283  28.818  27.127   3.737
22024W        W94284  16.254   3.914   2.218
22025W        W94285   5.411  44.360   2.743
22026W        W94286  18.724  22.264  12.543
22027W        W94287  36.540  23.705   1.933
22028W        W94288  23.031  41.732  12.968
22029W        W94289  14.129  35.985  11.120
22030W        W94290  40.527  19.053   3.340
22031W        W94291  38.101  36.939   1.861
22032W        W94292  29.924  10.236   1.900
22033W        W94293   7.797  26.706  10.269
22034W        W94294   8.443  34.090  12.560
22035W        W94295   7.698  33.169  10.711
22036W        W94296  27.191  18.931  14.800
22037W        W94297  16.705  39.199   4.683
22038W        W94298   2.951   7.319   1.392
22039W        W94299  27.431  28.715  10.624
22040W        W94300  27.684  31.464  14.253
22041W        W94301  25.143  14.150   3.655
22042W        W94302  13.067  37.184   5.177
22043W        W94303   3.293  38.214   4.362
22044W        W94304  36.572  23.598   0.422
22045W        W94305  23.292   7.370  12.310
22046W        W94306  22.290  26.065  13.038
22047W        W94307  33.922   6.967   3.580
22048W        W94308   5.676  41.262  11.977
22049W        W94309  16.259  13.981  11.942
22050W        W94310  26.502  41.905  11.598
22051W        W94311  26.633  21.003   0.729
22052W        W94312  24.547  17.138   2.798
22053W        W94313   1.439  24.129   4.206
22054W        W94314  33.944  11.625   0.432
22055W        W94315   3.226  35.600   2.828
22056W        W94316  20.884  38.405   3.345
22057W        W94317  44.829  10.841  12.007
22058W        W94318  41.018  38.860   1.794
22059W        W94319  41.447   9.318   3.254
22060W        W94320  14.282  24.842   4.810
22061W        W94321  41.961   7.897   4.866
22062W        W94322   1.455  11.294  14.482
22063W        W94323  20.527   8.953   4.436
22064W        W94324  31.477  30.997   0.656
22065W        W94325  13.708  16.274  11.050
22066W        W94326  13.574  35.442  13.796
22067W        W94327  19.583  11.867  11.917
22068W        W94328   7.657  31.855   3.983
22069W        W94329  32.042  10.796  10.755
22070W        W94330   1.224  43.295   1.146
22071W        W94331   9.246  33.560   2.272
22072W        W94332  30.924  38.803  12.572
22073W        W94333  11.276  37.449  13.181
22074W        W94334  22.401  28.968  14.446
22075W        W94335  31.117   0.680   4.252
22076W        W94336  37.397  27.945  12.509
22077W        W94337   8.406  17.051  11.708
22078W        W94338  19.115  40.957   3.619
22079W        W94339   0.002  33.704   1.761
22080W        W94340   1.457   7.881  14.813
22081W        W94341  41.645  36.912  11.595
22082W        W94342  35.695  14.332  11.601
22083W        W94343  34.623  35.839   0.797
22084W        W94344  25.216   0.183   1.681
22085W        W94345   2.391   6.898  14.879
22086W        W94346   5.649   5.881   1.321
22087W        W94347  16.669  24.890   4.593
22088W        W94348   0.942  27.962  12.559
22089W        W94349  33.519  25.478   2.882
22090W        W94350  42.910  28.339   2.325
22091W        W94351   5.386  13.665   0.768
22092W        W94352  25.718  36.362   2.370
22093W        W94353   1.683  12.802   4.504
22094W        W94354   5.168   8.112   1.211
22095W        W94355  27.955  36.499   1.749
22096W        W94356  42.343  23.199   1.313
22097W        W94357  17.224  32.176   4.127
22098W        W94358  21.567  32.365   4.589
22099W        W94359   1.714  22.070   2.330
22100W        W94360  10.444  31.012   1.279
22101W        W94361  25.628  36.636   2.827
22102W        W94362  28.240  33.136  13.357
22103W        W94363   3.384   9.375  10.658
22104W        W94364  44.995  27.174   2.204
22105W        W94365  21.025  12.597  11.926
22106W        W94366  19.175  25.681   2.217
22107W        W94367  20.260   2.747  11.894
22108W        W94368  41.326  25.575   1.758
22109W        W94369  24.911   8.300   1.475
22110W        W94370  13.502   2.236   2.868
22111W        W94371  32.673  30.208  11.842
22112W        W94372  42.731   0.672  11.174
22113W        W94373  43.949  26.025  11.576
22114W        W94374  14.775  21.505   1.930
22115W        W94375   8.878  22.662  10.680
22116W        W94376  15.885  38.997  11.581
22117W        W94377  13.934  39.000  11.378
22118W        W94378   1.863   4.582   1.794
22119W        W94379  24.587  17.281  14.958
22120W        W94380   8.255  34.868  14.763
22121W        W94381  27.397  28.974  13.487
22122W        W94382  43.628   3.108  13.461
22123W        W94383  43.958  39.381   4.049
22124W        W94384   6.191  16.222   4.250
22125W        W94385   7.009  36.472  12.406
22126W        W94386  21.627  21.571   1.752
22127W        W94387   4.147   0.809  13.683
22128W        W94388  38.082  17.340   0.373
22129W        W94389   1.048  21.700   2.406
22130W        W94390  43.595  15.140   1.914
22131W        W94391  43.746  40.117   2.891
22132W        W94392  24.104   7.394  12.385
22133W        W94393  19.907   0.967  12.401
22134W        W94394   5.488  14.097  13.096
22135W        W94395  22.315  36.088  11.564
22136W        W94396  39.556  42.518   4.300
22137W        W94397  36.882   4.621  12.012
22138W        W94398  16.786  28.730  11.187
22139W        W94399   6.184  23.656   2.348
22140W        W94400  17.702  20.169  12.547
22141W        W94401  22.061  16.313  10.659
22142W        W94402  29.761  17.331   1.220
22143W        W94403  15.162  38.804  14.008
22144W        W94404   2.152  14.185   4.670
22145W        W94405  15.660  10.377  14.831
22146W        W94406   7.089  39.022   3.569
22147W        W94407  36.926  24.116   0.495
22148W        W94408  24.683  15.605  12.048
22149W        W94409  26.976  17.773  12.506
22150W        W94410  37.638  12.024   4.199
22151W        W94411  19.509  19.197   3.890
22152W        W94412   6.651  14.071  11.454
22153W        W94413  34.460  18.701   1.040
22154W        W94414  34.509   3.496  14.906
22155W        W94415   0.825   3.313  10.720
22156W        W94416  24.544   5.284  11.663
22157W        W94417  32.699  44.480  12.951
22158W        W94418   7.498  38.229  13.986
22159W        W94419   7.829  18.131  11.245
22160W        W94420   1.422  16.318  14.288
22161W        W94421  12.831  43.377  13.393
22162W        W94422  42.554  24.029   1.900
22163W        W94423  18.979   0.588   3.722
22164W        W94424  29.182  39.884  13.853
22165W        W94425   9.195  26.708   0.940
22166W        W94426  22.226  24.867   4.724
22167W        W94427   3.825  36.841   0.508
22168W        W94428  42.333  19.807  14.615
22169W        W94429  28.662  16.625  11.589
22170W        W94430  18.651  31.191   1.261
22171W        W94431   3.655  31.303  13.843
22172W        W94432  27.998   3.264  12.837
22173W        W94433   7.769   2.704  12.100
22174W        W94434  39.031  26.719   2.456
22175W        W94435  21.237  36.360   4.158
22176W        W94436  17.612  27.573  12.444
22177W        W94437  23.890  33.298  14.338
22178W        W94438  21.244  16.477  13.146
22179W        W94439  28.102  31.572  12.856
22180W        W94440   4.800  21.582   1.699
22181W        W94441   7.309  37.037   4.575
22182W        W94442  22.517   9.664  13.946
22183W        W94443  28.919  39.935   3.169
22184W        W94444  23.117  23.496   2.998
22185W        W94445   9.733  36.443  13.484
22186W        W94446  18.810  21.657  10.540
22187W        W94447   3.365  25.654   1.227
22188W        W94448  12.294  24.702  10.562
22189W        W94449  13.523  22.703   3.429
22190W        W94450  30.117  11.915  11.162
22191W        W94451  27.367  37.432  10.569
22192W        W94452   2.904  25.081   4.292
22193W        W94453  28.424  34.032   0.028
22194W        W94454  40.488  44.883   1.509
22195W        W94455  34.090   6.418   0.832
22196W        W94456  22.025  23.190   2.215
22197W        W94457  33.382   6.852  12.376
22198W        W94458  22.491  26.759  11.006
22199W        W94459  44.761  29.667  14.750
22200W        W94460  30.496  38.109  11.638
22201W        W94461  24.779  35.402  13.729
22202W        W94462  19.703  19.973   0.977
22203W        W94463  35.643   5.581  14.698
22204W        W94464  21.003  18.838   0.591
22205W        W94465  43.304  16.945  14.082
22206W        W94466  43.757  31.159   3.857
22207W        W94467  16.730  32.948  12.935
22208W        W94468   6.658  17.660   4.752
22209W        W94469   3.235  23.079  13.852
22210W        W94470  25.140  16.133   2.227
22211W        W94471   2.209  30.934   1.023
22212W        W94472   2.706   0.528  11.504
22213W        W94473  27.332   9.166  14.518
22214W        W94474  40.974  25.556   0.431
22215W        W94475  12.772   1.443   4.696
22216W        W94476  13.583  37.204   4.870
22217W        W94477  28.099   5.388   0.499
22218W        W94478  18.592   1.606  14.333
22219W        W94479   7.428  34.964   2.191
22220W        W94480  10.102   4.861  14.237
22221W        W94481  34.135  27.701   3.469
22222W        W94482  10.985  28.597   4.021
22223W        W94483  40.956  35.053  11.574
22224W        W94484  18.056  25.246  13.538
22225W        W94485  22.195  22.859   0.839
22226W        W94486  27.923  29.956  11.110
22227W        W94487   9.282   3.352   3.539
22228W        W94488   2.909   4.365  14.210
22229W        W94489  19.680  38.503   1.997
22230W        W94490  24.896  24.520  13.547
22231W        W94491  39.392  44.754  11.071
22232W        W94492  12.120  36.836   0.770
22233W        W94493  18.732   7.802  13.331
22234W        W94494   2.331  29.533   0.214
22235W        W94495  15.312  34.869  13.779
22236W        W94496  44.133  21.685   0.743
22237W        W94497  12.034   8.644  10.616
22238W        W94498  43.721  38.560   0.904
22239W        W94499  23.662  11.604   3.445
22240W        W94500  14.526  15.597   1.335
22241W        W94501  21.433  32.785   0.268
22242W        W94502  38.328  20.038   2.400
22243W        W94503   5.650   2.760  11.490
22244W        W94504  14.267  25.496   2.139
22245W        W94505   5.812  11.581   2.910
22246W        W94506   0.781   3.115   0.373
22247W        W94507   6.379  36.314  13.145
22248W        W94508  21.707   8.153   4.580
22249W        W94509  42.728  11.673   4.907
22250W        W94510   2.922  13.053   2.728
22251W        W94511   4.926   6.899   4.280
22252W        W94512  38.235  26.142  11.176
22253W        W94513   4.989   6.421   4.604
22254W        W94514  19.493   2.466   1.042
22255W        W94515  24.955  10.296  10.684
22256W        W94516  43.789  25.659  13.774
22257W        W94517   8.209  44.772   3.979
22258W        W94518  44.899  17.251   4.602
22259W        W94519   5.237  32.549  12.600
22260W        W94520  18.829  14.265   3.970
22261W        W94521   1.460   7.429  12.902
22262W        W94522   5.379  34.479   4.153
22263W        W94523  32.530  28.434  11.542
22264W        W94524  38.319  14.620  12.845
22265W        W94525  31.442   4.864   4.593
22266W        W94526   3.241  14.988  11.094
22267W        W94527  38.948  40.883  14.420
22268W        W94528   8.625   3.382  14.932
22269W        W94529  33.514  20.436   1.935
22270W        W94530   4.804   7.708  11.652
22271W        W94531  38.925  28.461   2.863
22272W        W94532  36.069  16.010   0.208
22273W        W94533  42.505  31.580  12.599
22274W        W94534  11.140  10.159  12.728
22275W        W94535  41.900   9.311  12.106
22276W        W94536  19.538  14.755   2.926
22277W        W94537   5.392  32.095   3.307
22278W        W94538   3.761   6.798  13.282
22279W        W94539   6.260  31.262   0.097
22280W        W94540   0.404  35.066   0.292
22281W        W94541  10.593  40.822  11.241
22282W        W94542  13.715   7.256   2.690
22283W        W94543   3.977  16.119  14.938
22284W        W94544  12.649  31.499  11.889
22285W        W94545  26.328  40.614   4.267
22286W        W94546  21.782  20.612  11.991
22287W        W94547   1.017  34.270  12.445
22288W        W94548   2.197  23.982  14.475
22289W        W94549  40.344  42.198  14.367
22290W        W94550   9.727  19.742  14.253
22291W        W94551   5.707  42.019   2.183
22292W        W94552  34.320  13.352  13.153
22293W        W94553  41.756  20.014  11.549
22294W        W94554  39.030  25.095   1.844
22295W        W94555  26.038   4.958   0.762
22296W        W94556   1.764   1.501   4.190
22297W        W94557  26.932  42.764  13.488
22298W        W94558  43.306  24.619  13.010
22299W        W94559  12.582  14.548   1.780
22300W        W94560  40.220  42.316   0.811
22301W        W94561   7.916   8.593  13.659
22302W        W94562  29.583   7.772  10.649
22303W        W94563  12.569  10.850   1.355
22304W        W94564   0.824  11.236  13.225
22305W        W94565  26.250   3.686  13.847
22306W        W94566   5.882  32.073   3.085
22307W        W94567  43.080  25.691   1.325
22308W        W94568  26.583  11.152  12.950
22309W        W94569  11.714   7.649   1.425
22310W        W94570  32.716  26.571   1.169
22311W        W94571  13.671  31.341  13.981
22312W        W94572  11.640   9.443   1.780
22313W        W94573  28.654  33.614   1.018
22314W        W94574  14.390  29.679   5.002
22315W        W94575  22.772  43.178   2.758
22316W        W94576  20.729   1.159  13.526
22317W        W94577   3.424   3.658  14.416
22318W        W94578  20.787  41.847  13.978
22319W        W94579  23.085   4.461   4.557
22320W        W94580   9.374  32.627  13.317
22321W        W94581  30.944  26.303   1.588
22322W        W94582  26.951  27.097   2.415
22323W        W94583  19.260  11.195  13.788
22324W        W94584  41.760  11.893   0.336
22325W        W94585  27.034  23.064  10.635
22326W        W94586  26.630  12.867  14.272
22327W        W94587  19.791  29.728   2.395
22328W        W94588  37.183  26.070   2.817
22329W        W94589  26.194   9.063   4.530
22330W        W94590  16.594  38.194   4.574
22331W        W94591  20.096  17.155   2.373
22332W        W94592   9.369   5.436  12.373
22333W        W94593   8.552   2.728  12.473
22334W        W94594  41.222  13.539  11.905
22335W        W94595   9.906  42.293   1.240
22336W        W94596  41.434  28.435   0.139
22337W        W94597  31.642  12.287   0.832
22338W        W94598  39.439  26.924   3.739
22339W        W94599  20.118  23.400   1.135
22340W        W94600   4.392   9.621   1.478
22341W        W94601  34.430  29.893   1.184
22342W        W94602  18.768  38.425   4.798
22343W        W94603  20.248  33.902  14.884
22344W        W94604  44.829  25.339  14.269
22345W        W94605  15.838   0.943  10.691
22346W        W94606  44.542  18.345   0.691
22347W        W94607  44.936  39.836   4.734
22348W        W94608  44.936  23.079   2.250
22349W        W94609  31.800  16.256   0.682
22350W        W94610   2.340  30.999   0.037
22351W        W94611  22.905   7.347  14.934
22352W        W94612  13.293  38.649  13.374
22353W        W94613   7.424   0.754  11.614
22354W        W94614  12.856   4.676  12.458
22355W        W94615  32.513   3.666   4.111
22356W        W94616  42.888  39.125  14.938
22357W        W94617   6.028   3.318   2.203
22358W        W94618  29.410  10.733   2.588
22359W        W94619   3.757  10.399  12.382
22360W        W94620  21.321  27.519  11.050
22361W        W94621  30.286  44.154  10.772
22362W        W94622  41.676  16.313  11.594
22363W        W94623  27.768  21.218  12.583
22364W        W94624  23.453  21.063   4.574
22365W        W94625  13.740  17.584  12.655
22366W        W94626   3.126  14.305  13.521
22367W        W94627  12.301  16.568   0.936
22368W        W94628  14.002  40.545  11.119
22369W        W94629  10.887  18.913   4.113
22370W        W94630  27.687  34.945  13.504
22371W        W94631  16.556  38.010   2.748
22372W        W94632  29.601  15.633  12.626
22373W        W94633  18.718   9.674   1.524
22374W        W94634  35.282  24.445  11.641
22375W        W94635  44.359  21.474  12.756
22376W        W94636  37.046  18.105  13.228
22377W        W94637  38.783   4.627   9.852
22378W        W94638  13.163  30.014  14.523
22379W        W94639  33.576  29.435  11.706
22380W        W94640  35.041  36.882  13.473
22381W        W94641  21.007  40.036  12.408
22382W        W94642  13.581  17.046   2.387
22383W        W94643   3.724  13.701   3.148
22384W        W94644  16.076  32.023   0.775
22385W        W94645   9.911  19.044   0.837
22386W        W94646   6.658  23.111  14.760
22387W        W94647  14.814  42.556   2.217
22388W        W94648  21.148  15.596  14.082
22389W        W94649  36.942  28.395  13.906
22390W        W94650   9.268  29.035  10.941
22391W        W94651  18.649  23.533   4.182
22392W        W94652  20.093   1.545   1.846
22393W        W94653  32.831   5.203   1.294
22394W        W94654  17.470  42.315  14.862
22395W        W94655  17.249  11.423  13.808
22396W        W94656  17.311  15.752  12.037
22397W        W94657  12.392  30.399   3.861
22398W        W94658  34.075  18.552  11.126
22399W        W94659  31.010  18.003   1.263
22400W        W94660  31.226  13.630   4.248
22401W        W94661  32.236  30.592  14.767
22402W        W94662   8.312  39.224   4.778
22403W        W94663  32.479  28.590   3.459
22404W        W94664  15.344  26.781  13.376
22405W        W94665  38.693   4.683  11.152
22406W        W94666  31.044  35.550   0.856
22407W        W94667   0.090  16.837   4.839
22408W        W94668  26.467  34.850   0.197
22409W        W94669  10.749  23.705  12.172
22410W        W94670   2.124  19.604   5.103
22411W        W94671  36.770  27.384  11.837
22412W        W94672  23.862  22.589  10.313
22413W        W94673  25.530  23.021   2.960
22414W        W94674   8.073  26.049   2.752
22415W        W94675  35.842   5.521   2.752
22416W        W94676  20.438   5.329   0.969
22417W        W94677  14.454   3.740  12.835
22418W        W94678   8.151  11.187   1.851
22419W        W94679  43.217  28.226   4.278
22420W        W94680  17.089  44.830   1.098
22421W        W94681  23.213   3.205  10.763
22422W        W94682  18.750  37.231  12.865
22423W        W94683   6.838   2.668   1.282
22424W        W94684  14.845  12.694   4.151
22425W        W94685  33.717  17.989  14.509
22426W        W94686  21.196   2.693  13.045
22427W        W94687  23.494  20.651   3.317
22428W        W94688  18.532   1.251  11.570
22429W        W94689  42.028  33.400  13.846
22430W        W94690  39.960  43.785   3.351
22431W        W94691  13.724  41.294   3.173
22432W        W94692   8.901  34.093  12.333
22433W        W94693  24.787  34.459   1.707
22434W        W94694  20.020  30.370   3.534
22435W        W94695  40.058  19.267  13.796
22436W        W94696   6.445  22.523  14.371
22437W        W94697  11.550   6.783  13.887
22438W        W94698  22.373  11.883  11.392
22439W        W94699  13.163  34.156   2.333
22440W        W94700  41.777   7.259   3.717
22441W        W94701  31.835  31.409  10.513
22442W        W94702  27.133  29.855  13.800
22443W        W94703   6.963  21.718   3.912
22444W        W94704  11.439  37.024  11.475
22445W        W94705  32.397  35.662  13.910
22446W        W94706  38.993   1.757   1.753
22447W        W94707   7.386  21.554   4.729
22448W        W94708  35.634  19.639   2.133
22449W        W94709  34.112  11.151  12.901
22450W        W94710  41.606   3.925   3.246
22451W        W94711  39.238  37.040   3.639
22452W        W94712  15.753  33.333   4.227
22453W        W94713  23.943  33.895   2.449
22454W        W94714   0.291   3.377   4.753
22455W        W94715  14.243  38.927  13.829
22456W        W94716  16.061  42.807  13.280
22457W        W94717  22.745  31.357   2.624
22458W        W94718  40.798  17.342  11.523
22459W        W94719  16.253   4.779  12.938
22460W        W94720  37.132   1.835   0.343
22461W        W94721   2.097  29.468  12.389
22462W        W94722   9.890  25.211  14.570
22463W        W94723  15.692  36.616  13.858
22464W        W94724  17.319   5.883  12.011
22465W        W94725  11.294  20.152  14.087
22466W        W94726   2.966  41.876  12.886
22467W        W94727   9.126  37.093  13.401
22468W        W94728  10.321  12.109  13.507
22469W        W94729  26.269  17.113   3.320
22470W        W94730  13.306  11.714   1.278
22471W        W94731  20.339  37.470   4.485
22472W        W94732  32.415  14.005   0.906
22473W        W94733  14.738  37.636  13.404
22474W        W94734  39.789  39.538  10.498
22475W        W94735  38.987  20.769  13.001
22476W        W94736   8.864  37.269  10.798
22477W        W94737  13.178  31.880   0.035
22478W        W94738  38.474   9.344   9.839
22479W        W94739  40.814  24.937   3.035
22480W        W94740   6.216  28.026  14.693
22481W        W94741  40.746  17.253   2.507
22482W        W94742   3.239   6.899   0.197
22483W        W94743   1.652  35.006  13.495
22484W        W94744  40.927   5.658  11.585
22485W        W94745  42.401  14.010   4.638
22486W        W94746   9.660  37.696   3.394
22487W        W94747  27.529  44.339  12.440
22488W        W94748   3.721  24.563   2.115
22489W        W94749  12.417  26.192   3.331
22490W        W94750  10.062  44.996  12.068
22491W        W94751  42.116  27.912   0.850
22492W        W94752  39.898  27.189   1.346
22493W        W94753  18.776   9.756   0.230
22494W        W94754  34.324  14.159   0.806
22495W        W94755  33.709  16.423   4.208
22496W        W94756  33.102  34.869   4.960
22497W        W94757   2.266  34.415   4.214
22498W        W94758  12.312   6.210  14.575
22499W        W94759   1.043  11.223   1.976
22500W        W94760  38.576  14.754   3.235
22501W        W94761   9.363  44.007   5.000
22502W        W94762  30.124   1.575   4.176
22503W        W94763  41.330  22.570   4.891
22504W        W94764  44.274  41.533   3.697
22505W        W94765   7.098  12.607   2.718
22506W        W94766  39.610   7.637  13.595
22507W        W94767  35.018  39.892  14.153
22508W        W94768  10.591  27.418   0.332
22509W        W94769  35.542   8.280  11.625
22510W        W94770   5.614  36.524   1.864
22511W        W94771  21.386  42.090  12.395
22512W        W94772   1.692   3.904   1.145
22513W        W94773  12.286   5.663   4.170
22514W        W94774  14.318  37.521  11.663
22515W        W94775  23.744  40.929   2.254
22516W        W94776  35.094   8.358   4.659
22517W        W94777  16.855   7.819   0.438
22518W        W94778  34.340   1.776   0.399
22519W        W94779  12.835  29.406  11.534
22520W        W94780  15.670  11.776   1.295
22521W        W94781  31.753  42.556   1.369
22522W        W94782  17.651  44.742  12.864
22523W        W94783  43.894  18.767   4.079
22524W        W94784  32.952  42.504   0.369
22525W        W94785  28.894  29.878  13.934
22526W        W94786   5.479  33.684  11.770
22527W        W94787   4.724  22.038   4.658
22528W        W94788  24.583   7.265  11.082
22529W        W94789  13.939  14.721   5.209
22530W        W94790   5.506  26.639   2.660
22531W        W94791  18.666   5.103  14.516
22532W        W94792   1.707  35.569  14.924
22533W        W94793  44.072  36.496   2.782
22534W        W94794  42.773  16.421   4.090
22535W        W94795  12.660  24.372  10.705
22536W        W94796  19.773   6.474  13.081
22537W        W94797   7.237  13.737  14.897
22538W        W94798  19.241   8.491  10.210
22539W        W94799  38.139  21.614  11.562
22540W        W94800  41.596  43.317   1.826
22541W        W94801  37.798  30.387  12.642
22542W        W94802   0.506  34.544  13.098
22543W        W94803  13.464  41.793  11.175
22544W        W94804  38.294   2.267   3.547
22545W        W94805  39.926   6.847   0.496
22546W        W94806  14.680  39.655  11.659
22547W        W94807  28.591  40.328   1.380
22548W        W94808  17.879  18.734  10.725
22549W        W94809  25.224  13.200   2.481
22550W        W94810  40.490   5.052  11.850
22551W        W94811   8.118  21.538   0.799
22552W        W94812  20.131   8.543  10.190
22553W        W94813  23.558  29.062  11.127
22554W        W94814  43.291  19.513   3.199
22555W        W94815  23.654   2.760   3.358
22556W        W94816  17.121  37.373  10.159
22557W        W94817  20.142  42.424   1.028
22558W        W94818  12.157  24.245   0.912
22559W        W94819   6.342  25.193  13.953
22560W        W94820   6.758  17.232   1.641
22561W        W94821   3.964  17.595   0.816
22562W        W94822  20.754   7.341  12.549
22563W        W94823  31.814   4.794  13.481
22564W        W94824   0.467  16.958   3.275
22565W        W94825   5.948   8.824   0.213
22566W        W94826  43.108  33.035  10.088
22567W        W94827   7.159  23.966   2.583
22568W        W94828  19.597  21.664   1.015
22569W        W94829  13.133  32.754   4.242
22570W        W94830  29.590  25.080   2.302
22571W        W94831   3.947  41.109   0.320
22572W        W94832   0.555  25.465   1.263
22573W        W94833  27.003  10.397  14.034
22574W        W94834  21.925  24.044   2.886
22575W        W94835  40.080   0.895  14.395
22576W        W94836  13.194  21.789   2.365
22577W        W94837  37.583  23.429   0.368
22578W        W94838  20.269  34.939   3.440
22579W        W94839  31.083   2.952  13.239
22580W        W94840  22.015   4.333   4.800
22581W        W94841  19.142   8.991  14.282
22582W        W94842  36.287  41.358   0.985
22583W        W94843  38.459  28.151  11.254
22584W        W94844  39.600  34.893  14.003
22585W        W94845  38.220  41.814  12.821
22586W        W94846  17.682   3.561  11.877
22587W        W94847  15.754  13.772  14.917
22588W        W94848  22.098  27.126   2.702
22589W        W94849  43.189  42.349  11.747
22590W        W94850  35.144  18.768  11.690
22591W        W94851   2.780  10.865   1.247
22592W        W94852  40.357  30.973   0.423
22593W        W94853  20.269  20.686   4.184
22594W        W94854   3.529  29.099   2.923
22595W        W94855  29.576  11.137  14.394
22596W        W94856  37.601  13.803   0.974
22597W        W94857  15.315  39.253   1.481
22598W        W94858  10.409   1.258  14.596
22599W        W94859  28.639   8.168  13.680
22600W        W94860  25.964  13.137   4.101
22601W        W94861  44.000  28.653  14.358
22602W        W94862  38.335  37.058   3.623
22603W        W94863  30.567  23.764   4.336
22604W        W94864  10.883  12.670  10.532
22605W        W94865  35.396  17.603  12.501
22606W        W94866  37.891  24.076  14.494
22607W        W94867  23.777  36.807   0.468
22608W        W94868  13.645  18.066   2.860
22609W        W94869  39.414  18.999  11.561
22610W        W94870  29.030  17.674   0.331
22611W        W94871  41.873  19.341   1.322
22612W        W94872  22.639  29.940  14.933
22613W        W94873  37.008  22.943   4.120
22614W        W94874   8.688  44.079  13.959
22615W        W94875   8.072   5.818  13.574
22616W        W94876  25.113  27.642   3.623
22617W        W94877  29.967  32.666   5.201
22618W        W94878  33.475  37.576   4.133
22619W        W94879  19.000  10.259   1.283
22620W        W94880  23.106  35.859  12.449
22621W        W94881   7.599  26.368   4.115
22622W        W94882   1.155  40.628   4.867
22623W        W94883   5.937  27.156   4.416
22624W        W94884  44.349  28.511  12.467
22625W        W94885  29.974   2.750  14.972
22626W        W94886  13.190  41.090   2.322
22627W        W94887  17.230  44.200  11.502
22628W        W94888   3.333  15.996  12.157
22629W        W94889  13.383  11.213   1.363
22630W        W94890   9.086  14.305  10.120
22631W        W94891  44.347  28.150   2.377
22632W        W94892  22.225  12.519  11.974
22633W        W94893  13.393   7.804   2.174
22634W        W94894   1.579  24.893   2.742
22635W        W94895   9.142  12.889   9.870
22636W        W94896  28.062  42.547  12.485
22637W        W94897  36.862  34.426  14.793
22638W        W94898  44.938   9.611   2.317
22639W        W94899  39.538  27.116   4.668
22640W        W94900   5.379  21.747  11.151
22641W        W94901  36.924  31.025  13.872
22642W        W94902  24.026  39.425  12.321
22643W        W94903  39.778   9.007   2.228
22644W        W94904   9.828  37.365   1.292
22645W        W94905  18.548  19.084   1.145
22646W        W94906   8.640  43.439  11.483
22647W        W94907  11.391  37.133  14.065
22648W        W94908  44.266  25.846   3.286
22649W        W94909  42.264  42.947  10.738
22650W        W94910  18.002  29.082  13.945
22651W        W94911  26.865  15.186  11.314
22652W        W94912  17.200   5.252   3.072
22653W        W94913  34.541  21.490   1.943
22654W        W94914  18.032  41.921  13.429
22655W        W94915  32.106   7.121  13.475
22656W        W94916  21.225  24.670  10.429
22657W        W94917  27.771  25.287   3.873
22658W        W94918  24.965  42.212  11.739
22659W        W94919  16.785   4.330  11.453
22660W        W94920   1.476  20.382  12.572
22661W        W94921  17.060   0.293   5.017
22662W        W94922   6.372  14.682   2.725
22663W        W94923  23.262   1.100  12.711
22664W        W94924   6.889   6.757  12.582
22665W        W94925   5.707  18.747  14.383
22666W        W94926  15.432  40.047   4.585
22667W        W94927  24.690  33.337   4.934
22668W        W94928  22.086  28.434   5.422
22669W        W94929  19.040  14.544   2.960
22670W        W94930  40.597  15.161   2.436
22671W        W94931  24.565  39.500   1.314
22672W        W94932  16.538  17.784  10.768
22673W        W94933  35.647  43.941   1.284
22674W        W94934  24.692  44.520  13.532
22675W        W94935   8.045  10.662   4.852
22676W        W94936  10.459  24.453  12.915
22677W        W94937  41.932  20.195  11.991
22678W        W94938  24.315  27.508  12.191
22679W        W94939  36.681   7.739  12.537
22680W        W94940  37.127  44.758  14.912
22681W        W94941  32.557   4.495  13.857
22682W        W94942  43.006   6.886  13.331
22683W        W94943  23.158  35.911   4.530
22684W        W94944  12.269  44.935  12.165
22685W        W94945  38.980   4.530  14.569
22686W        W94946  13.804  23.101   4.585
22687W        W94947  40.012  42.848  11.962
22688W        W94948   7.868  34.086   2.303
22689W        W94949  15.992  39.815   2.365
22690W        W94950  26.768  18.209   4.328
22691W        W94951   7.664   6.713   3.728
22692W        W94952   1.911  22.819   4.702
22693W        W94953  21.136  17.101  10.739
22694W        W94954  24.111  11.622   1.813
22695W        W94955  11.122   3.725  11.578
22696W        W94956  42.976  18.021   0.937
22697W        W94957  23.679  37.676  11.447
22698W        W94958  20.719  43.341   4.864
22699W        W94959  24.432  33.666  13.342
22700W        W94960  27.191   8.698  12.885
22701W        W94961  23.276  19.870  14.695
22702W        W94962   9.713   0.075   3.757
22703W        W94963   7.471   3.241   4.124
22704W        W94964  18.227  10.858   4.133
22705W        W94965   1.879   1.745  10.602
22706W        W94966  25.494  29.200   1.814
22707W        W94967   7.303   4.282   0.415
22708W        W94968  38.598  20.634  14.454
22709W        W94969   4.640  34.787  14.895
22710W        W94970  36.404  26.415   3.179
22711W        W94971  29.941  28.057   0.874
22712W        W94972  27.472  37.144   2.393
22713W        W94973  25.104  12.606  12.473
22714W        W94974   7.779  11.588   1.244
22715W        W94975  25.870  25.229  13.021
22716W        W94976  18.176   8.912   4.672
22717W        W94977  24.270  41.479   3.153
22718W        W94978   5.399  11.369   3.130
22719W        W94979  25.488   4.666  13.285
22720W        W94980  35.675  24.697   0.419
22721W        W94981  36.556  14.306   1.385
22722W        W94982  40.091   1.237  14.848
22723W        W94983   9.171  20.532   2.567
22724W        W94984  10.234  10.705  12.981
22725W        W94985  34.725  36.418  11.147
22726W        W94986  26.212  20.745   4.084
22727W        W94987  44.083  22.196  10.750
22728W        W94988  18.069  22.512  11.275
22729W        W94989   5.672  17.034  13.260
22730W        W94990  16.051   3.814  11.433
22731W        W94991  38.832  17.797  12.562
22732W        W94992  15.228  27.238   3.894
22733W        W94993   9.818  44.869   0.267
22734W        W94994  21.205   5.798   0.732
22735W        W94995  14.724  11.303  14.248
22736W        W94996  25.443  42.999  14.516
22737W        W94997  44.179  21.539  14.803
22738W        W94998  31.138  19.188   4.745
22739W        W94999  15.109  24.564  10.752
22740W        W95000  17.532  12.761  13.859
22741W        W95001   9.347   5.390  13.959
22742W        W95002  25.717   1.541  12.313
22743W        W95003  22.231   8.386   1.395
22744W        W95004  30.182  19.979   1.919
22745W        W95005  17.176   1.559  13.907
22746W        W95006  29.875  19.292   0.502
22747W        W95007  22.220   2.217   4.336
22748W        W95008  12.164  32.995   4.522
22749W        W95009  33.404  39.279  10.747
22750W        W95010  27.023  30.355  13.916
22751W        W95011  30.190  21.986   2.828
22752W        W95012   2.765  23.184   0.380
22753W        W95013  22.988   4.668   2.668
22754W        W95014  20.579  41.951  12.049
22755W        W95015  15.756  38.578   1.509
22756W        W95016  13.309  18.862  13.507
22757W        W95017   4.245  37.173   2.740
22758W        W95018   7.271  36.401   4.188
22759W        W95019  14.708  12.208   1.271
22760W        W95020  38.742   7.328   1.416
22761W        W95021  11.909  38.411  13.075
22762W        W95022  10.827   9.693  13.332
22763W        W95023   6.148  42.793   2.225
22764W        W95024   2.185  40.103  12.990
22765W        W95025  40.169  27.515  12.924
22766W        W95026  29.981  33.211   2.915
22767W        W95027  15.678  17.170  11.489
22768W        W95028  13.703  24.595  14.051
22769W        W95029  29.435  25.181  14.769
22770W        W95030  13.619  34.554   2.742
22771W        W95031  24.663  29.944   2.328
22772W        W95032  33.848  14.169   4.368
22773W        W95033  30.391  14.133   1.577
22774W        W95034   9.704  36.821   3.624
22775W        W95035  25.198  10.225  13.458
22776W        W95036  21.733  15.236  14.271
22777W        W95037   7.736  10.073  13.402
22778W        W95038  10.456  37.577  13.483
22779W        W95039   0.279  40.786  12.082
22780W        W95040  30.049  36.507   0.403
22781W        W95041  16.424  25.493   1.308
22782W        W95042  29.136   8.009  14.583
22783W        W95043  17.842   8.718   0.256
22784W        W95044  43.786   2.371  12.047
22785W        W95045  27.149  42.094   5.542
22786W        W95046  37.582   6.487  13.534
22787W        W95047  38.439  44.418  10.644
22788W        W95048   0.710  18.554   0.953
22789W        W95049  43.283  38.924  10.763
22790W        W95050   9.181  12.624  13.419
22791W        W95051  22.015  36.155   4.253
22792W        W95052  20.648  38.418   2.263
22793W        W95053   3.864  31.980  13.571
22794W        W95054  20.137  14.237   0.847
22795W        W95055  39.624   2.239   1.459
22796W        W95056  24.556   9.799   3.766
22797W        W95057  35.779  22.189   0.663
22798W        W95058  22.926  38.466  12.446
22799W        W95059   5.905   8.117  12.946
22800W        W95060   5.947   9.167  11.441
22801W        W95061   6.544  44.192   1.956
22802W        W95062  34.435  42.308   3.841
22803W        W95063  13.726  27.787   2.962
22804W        W95064   6.738  43.556   0.762
22805W        W95065  24.689  39.848   0.935
22806W        W95066  27.135   8.722   2.644
22807W        W95067   7.233   7.664   0.972
22808W        W95068  34.593  35.141   1.437
22809W        W95069  38.772  19.702   2.455
22810W        W95070  40.484  16.826   2.344
22811W        W95071  40.324  25.209  13.356
22812W        W95072  35.896  30.104  12.978
22813W        W95073  13.833  15.548   4.145
22814W        W95074  36.878  23.227   3.700
22815W        W95075  29.381  41.787  11.576
22816W        W95076  17.660   2.172   0.267
22817W        W95077  21.113  12.831  13.059
22818W        W95078   8.674   7.429   4.139
22819W        W95079  31.415  11.144   2.251
22820W        W95080  23.690   0.794  12.683
22821W        W95081  30.415  30.050  12.798
22822W        W95082   1.445  18.972  12.425
22823W        W95083  38.269   1.018  12.866
22824W        W95084   0.361  19.509  12.523
22825W        W95085  13.602   4.367  13.845
22826W        W95086  41.891  20.094   2.648
22827W        W95087   7.893  43.902  14.412
22828W        W95088   6.747  10.822  10.395
22829W        W95089  16.201  12.532  12.457
22830W        W95090  36.670  32.061   4.192
22831W        W95091  31.546  35.109   3.138
22832W        W95092  23.651  26.847  13.466
22833W        W95093  10.853   9.392   1.283
22834W        W95094   5.114   8.499  10.601
22835W        W95095  10.625  39.390   3.286
22836W        W95096  39.792  20.647  14.847
22837W        W95097  14.305  31.162   0.684
22838W        W95098  15.884  33.494  14.000
22839W        W95099  18.589  11.398   3.940
22840W        W95100   9.495   4.299  11.114
22841W        W95101  26.199  37.791   2.247
22842W        W95102  35.914  21.701   0.777
22843W        W95103  39.482  19.739  11.438
22844W        W95104  16.854  17.218   0.202
22845W        W95105  23.879  23.188   4.934
22846W        W95106  36.329  13.648  10.396
22847W        W95107  29.135   9.587   0.261
22848W        W95108   6.454  26.878  14.480
22849W        W95109  11.389   1.385  13.427
22850W        W95110  30.507  25.415  12.410
22851W        W95111  15.696  34.178   2.692
22852W        W95112   0.820   5.926   2.136
22853W        W95113  15.404  41.432  11.516
22854W        W95114  23.091  23.171  10.685
22855W        W95115  40.422  21.503  12.034
22856W        W95116   7.402  26.093  10.577
22857W        W95117  24.194  24.622  13.032
22858W        W95118  42.565  27.218  12.044
22859W        W95119  21.116  39.888  10.265
22860W        W95120   4.734  43.786   4.689
22861W        W95121  13.723  29.571   4.256
22862W        W95122  31.677  13.402   1.253
22863W        W95123  44.664  28.976   1.375
22864W        W95124  13.229   6.688   0.686
22865W        W95125   2.085  23.217  11.051
22866W        W95126  13.578  12.135   0.347
22867W        W95127  30.013   1.371  12.601
22868W        W95128   0.945  39.070   1.304
22869W        W95129   3.394  21.693   2.055
22870W        W95130  15.220   6.689   2.764
22871W        W95131  35.564  25.059   4.254
22872W        W95132   1.879  34.494  13.360
22873W        W95133  25.006  23.716  14.916
22874W        W95134   3.223  29.205  11.512
22875W        W95135  23.345  41.332   4.544
22876W        W95136  43.727   6.840  12.014
22877W        W95137   5.440  23.656   4.158
22878W        W95138   0.921  20.654  13.149
22879W        W95139  39.632  40.123   3.852
22880W        W95140   5.151  35.431  14.497
22881W        W95141   5.457   3.836  13.639
22882W        W95142  12.817  13.661   3.660
22883W        W95143  27.163   5.224   4.230
22884W        W95144  40.418  24.709  11.501
22885W        W95145  29.256  24.537  14.495
22886W        W95146  20.031  33.618   3.626
22887W        W95147   0.799  26.478   2.859
22888W        W95148   6.447  11.936  14.013
22889W        W95149   5.825  36.825   0.946
22890W        W95150  44.413  25.611  13.526
22891W        W95151  18.068  37.791  13.412
22892W        W95152  38.026  28.563   0.943
22893W        W95153   0.879  29.095  10.737
22894W        W95154   0.491   9.229  13.036
22895W        W95155  10.730  38.317   4.897
22896W        W95156  39.632  33.244  12.122
22897W        W95157   3.065  15.075   2.776
22898W        W95158  20.816  11.850   4.483
22899W        W95159  28.937  20.256   1.324
22900W        W95160  21.289  38.333  10.697
22901W        W95161  26.589  22.616   2.726
22902W        W95162  16.990   1.709  13.426
22903W        W95163  24.065  31.099   0.572
22904W        W95164  38.023   1.524   4.222
22905W        W95165  24.448  28.542   4.198
22906W        W95166   5.807  32.952  14.918
22907W        W95167  28.986   4.790   4.868
22908W        W95168  29.586  19.789  14.980
22909W        W95169  11.548  41.363  11.958
22910W        W95170  29.044  14.407   3.697
22911W        W95171  19.483   9.625  13.323
22912W        W95172  21.767  41.571   0.393
22913W        W95173  41.861   4.876   0.673
22914W        W95174   6.140  35.625  14.332
22915W        W95175  37.363   3.753  11.522
22916W        W95176  29.851  20.761   2.152
22917W        W95177  28.913  11.335  13.809
22918W        W95178  16.240  11.546  14.282
22919W        W95179  20.602  16.552   2.233
22920W        W95180  38.281  41.973   2.788
22921W        W95181  16.239  12.609  13.413
22922W        W95182   9.123   0.882  13.985
22923W        W95183   6.831  22.763   4.290
22924W        W95184  14.678  10.384   1.660
22925W        W95185  39.140  29.534  11.107
22926W        W95186   3.815   1.976  10.741
22927W        W95187  16.417  19.494   3.203
22928W        W95188  19.085  25.162   2.192
22929W        W95189   0.947  22.541  12.887
22930W        W95190  25.234  40.142   3.672
22931W        W95191  21.718  24.105  14.938
22932W        W95192   8.676  14.742  14.913
22933W        W95193  26.706  33.540  14.325
22934W        W95194  34.006  22.990   0.733
22935W        W95195  44.379  14.949  13.380
22936W        W95196   0.282  44.356   3.793
22937W        W95197   7.429  31.973  13.465
22938W        W95198  24.988  29.037   2.577
22939W        W95199  26.518  33.672   4.733
22940W        W95200   8.460   9.841   4.732
22941W        W95201  29.662  39.077   0.390
22942W        W95202  20.969   9.810   2.709
22943W        W95203  35.949  27.565  12.546
22944W        W95204  21.129   7.282  13.488
22945W        W95205  12.582  23.139  12.119
22946W        W95206  28.499  20.592  13.929
22947W        W95207   5.713  29.522  10.753
22948W        W95208  19.513  10.787   3.711
22949W        W95209  25.708  23.201  13.600
22950W        W95210  35.962  15.512   5.263
22951W        W95211  24.965   1.459  12.172
22952W        W95212  24.233  21.172   2.860
22953W        W95213  42.383  10.231   0.034
22954W        W95214  25.719  10.221  13.479
22955W        W95215  28.074  10.605   0.915
22956W        W95216   0.160  29.939  12.022
22957W        W95217   7.401  33.789  13.513
22958W        W95218  39.925   9.323   2.631
22959W        W95219  39.481  26.956   1.580
22960W        W95220  33.195  16.635   1.471
22961W        W95221  28.663  30.743   2.202
22962W        W95222  37.720   1.158  11.335
22963W        W95223  41.028   8.670  12.443
22964W        W95224  16.963  31.194   3.308
22965W        W95225  37.945  36.602   0.752
22966W        W95226  15.298  17.218   4.572
22967W        W95227  11.839  38.843   4.090
22968W        W95228  23.579  23.176   1.753
22969W        W95229  27.233  12.080   2.797
22970W        W95230  30.855   9.675   1.227
22971W        W95231  30.233  17.568   2.009
22972W        W95232  40.904   1.828   0.938
22973W        W95233  10.894  36.012  14.836
22974W        W95234  22.989  30.082   1.019
22975W        W95235  31.083  28.710   1.701
22976W        W95236  16.714  33.381   3.833
22977W        W95237   8.314  34.235   4.286
22978W        W95238  40.977   3.977   0.291
22979W        W95239  38.403  30.004  10.643
22980W        W95240  21.240  41.790  11.531
22981W        W95241   4.320  19.734  14.847
22982W        W95242  26.894  12.314   3.795
22983W        W95243  18.456  24.209   2.667
22984W        W95244  34.549   4.957  10.846
22985W        W95245  19.192  37.704  13.459
22986W        W95246   1.358  33.991   3.903
22987W        W95247   7.466  44.363   2.796
22988W        W95248  34.041  39.467  12.414
22989W        W95249  17.865  11.957  11.035
22990W        W95250  24.965  44.398  13.938
22991W        W95251  42.398  29.681   4.669
22992W        W95252  24.713  32.695   0.482
22993W        W95253  36.628   7.609   2.765
22994W        W95254  24.711  10.762  10.691
22995W        W95255  14.427  44.997   0.830
22996W        W95256   7.722  25.572   0.672
22997W        W95257  13.606  32.836   3.505
22998W        W95258  34.504  17.149  14.693
22999W        W95259  23.145  31.447  10.643
23000W        W95260  29.153   6.884   3.098
23001W        W95261  25.390  38.056   1.972
23002W        W95262  40.831  43.316  11.168
23003W        W95263  28.913   9.903   2.976
23004W        W95264  42.927  41.937  13.079
23005W        W95265  35.507   9.407  13.942
23006W        W95266  33.015  30.255  10.324
23007W        W95267   9.633  29.997  13.476
23008W        W95268  28.113  34.646  10.054
23009W        W95269  37.635   5.682   1.368
23010W        W95270  44.370  31.044  11.584
23011W        W95271  44.614  41.444   4.069
23012W        W95272  16.783  13.632   2.824
23013W        W95273  40.550  10.348  13.426
23014W        W95274  18.259  26.747  10.164
23015W        W95275  25.607  19.521   4.607
23016W        W95276  10.683   4.258   0.698
23017W        W95277  41.132  41.260  13.941
23018W        W95278  28.226  31.138  14.884
23019W        W95279   6.737   0.969  14.527
23020W        W95280   6.200   2.734   3.919
23021W        W95281   3.558  16.908  11.588
23022W        W95282  27.728  27.003   1.999
23023W        W95283  31.706  31.138   4.189
23024W        W95284  43.511  10.095   1.519
23025W        W95285   3.563  21.029  13.873
23026W        W95286  41.742  28.669   3.426
23027W        W95287  15.763  29.445   3.329
23028W        W95288  31.595  19.546   2.624
23029W        W95289  44.390  43.826  14.737
23030W        W95290   0.478   6.476  12.121
23031W        W95291   5.177   9.192   1.380
23032W        W95292   9.614  21.611  10.761
23033W        W95293   0.497  23.740  11.849
23034W        W95294   6.358  32.620   2.201
23035W        W95295   7.359  17.058  10.607
23036W        W95296  21.040  27.560   9.808
23037W        W95297   8.287  39.232  14.724
23038W        W95298  10.041  39.697   4.232
23039W        W95299  30.550  38.792  12.201
23040W        W95300  11.732   8.708  14.983
23041W        W95301  42.196  42.409   1.748
23042W        W95302   0.176  20.807  11.038
23043W        W95303  20.736  32.625   1.909
23044W        W95304  41.595   4.757   1.537
23045W        W95305  33.593   8.869  11.108
23046W        W95306  41.398   2.468  13.401
23047W        W95307  26.165   7.278  12.574
23048W        W95308  20.491  26.687   0.749
23049W        W95309  28.624  15.359   0.686
23050W        W95310  32.071  34.627   1.277
23051W        W95311  13.017  30.239   5.062
23052W        W95312  25.633   2.307   0.074
23053W        W95313  19.437  18.999   4.375
23054W        W95314   2.352  36.464  11.981
23055W        W95315  17.351  29.571  11.145
23056W        W95316  24.664  43.514  13.008
23057W        W95317  29.448   4.670   4.524
23058W        W95318  35.967  23.007  12.481
23059W        W95319  38.326   7.029   1.335
23060W        W95320   5.413   3.404  13.924
23061W        W95321  36.968  26.450   1.850
23062W        W95322  40.702  10.401   4.132
23063W        W95323  13.385  10.098  14.789
23064W        W95324  16.835  30.463   4.009
23065W        W95325  22.547  13.908   1.314
23066W        W95326  41.702  28.910   1.742
23067W        W95327  11.180  28.133   0.453
23068W        W95328  41.040  14.727  10.384
23069W        W95329  31.112  29.484  14.896
23070W        W95330  30.486   9.944  14.986
23071W        W95331  13.786   0.889   2.958
23072W        W95332  30.532  32.802   2.355
23073W        W95333   0.500  17.104  13.798
23074W        W95334  40.373  34.785  13.443
23075W        W95335  23.016  24.968   0.772
23076W        W95336  23.058  39.265   3.631
23077W        W95337  16.639  42.512  14.774
23078W        W95338  38.585  31.850  13.971
23079W        W95339  41.827  44.952  13.888
23080W        W95340   2.925   7.074   3.210
23081W        W95341  30.864  37.472   4.190
23082W        W95342   3.509  13.319  13.759
23083W        W95343  34.654  12.371  11.638
23084W        W95344  35.711  22.096  13.370
23085W        W95345  23.208  40.815  12.869
23086W        W95346  22.226   1.688  14.921
23087W        W95347   1.500  23.572  14.858
23088W        W95348  44.011  21.718  13.577
23089W        W95349  28.462  42.811   2.378
23090W        W95350  22.245  40.272   1.684
23091W        W95351  42.886  10.490   3.653
23092W        W95352  11.918  33.035  11.021
23093W        W95353  42.610  38.687   0.349
23094W        W95354  40.788   8.247   2.012
23095W        W95355  19.739  10.719  14.892
23096W        W95356  41.950  23.518  12.985
23097W        W95357  30.584  19.611  14.402
23098W        W95358  40.943  37.630  12.983
23099W        W95359  43.221  20.222  11.175
23100W        W95360  12.596  35.611   4.565
23101W        W95361  34.469  38.059  11.713
23102W        W95362  17.185  36.405   0.264
23103W        W95363  15.956  12.065   0.887
23104W        W95364  26.045  16.496  14.800
23105W        W95365  20.170  27.788   4.875
23106W        W95366  43.784  25.907  12.972
23107W        W95367  43.792  29.471   4.580
23108W        W95368  31.571   5.321   4.350
23109W        W95369  36.107  42.994   0.776
23110W        W95370  32.049  30.758  12.990
23111W        W95371  22.525   1.301   3.112
23112W        W95372  28.733  39.506   3.437
23113W        W95373  13.708  25.575  11.098
23114W        W95374  25.141   5.386  11.396
23115W        W95375  31.531  37.256   4.206
23116W        W95376   4.929  17.259   3.683
23117W        W95377   9.983  42.880   3.828
23118W        W95378  23.671  13.748  13.528
23119W        W95379  17.262   3.691   4.677
23120W        W95380  10.881  33.414   0.216
23121W        W95381   5.319   8.190   2.716
23122W        W95382  12.615  34.100  14.887
23123W        W95383  23.732  23.243  10.599
23124W        W95384  11.754  37.308   1.932
23125W        W95385  30.650  19.114   4.559
23126W        W95386  24.969  28.023   9.564
23127W        W95387  10.337  39.285   1.351
23128W        W95388  19.720  38.432   1.464
23129W        W95389   9.346  32.481  11.458
23130W        W95390   2.931  21.475   2.267
23131W        W95391  14.754  15.552  14.447
23132W        W95392  17.413   8.296  12.546
23133W        W95393   6.284  12.890  14.041
23134W        W95394  35.174   0.923   3.874
23135W        W95395  35.015  42.811  12.650
23136W        W95396  44.978  14.280   2.278
23137W        W95397   6.158   3.759   1.856
23138W        W95398   5.221  29.982  14.945
23139W        W95399  15.653   3.684  10.204
23140W        W95400  38.911   8.213   0.839
23141W        W95401   7.740  35.752   0.312
23142W        W95402  11.799  16.764   3.629
23143W        W95403  15.069  28.350   2.443
23144W        W95404  36.543  15.554   0.914
23145W        W95405  34.261  13.115  14.380
23146W        W95406  15.225  27.622   9.825
23147W        W95407  33.210  35.913   0.783
23148W        W95408  36.087  41.163   1.421
23149W        W95409   1.706  40.475  13.861
23150W        W95410  12.646  13.527   3.190
23151W        W95411  16.240  13.285   3.669
23152W        W95412  19.505  15.225   3.641
23153W        W95413  31.505   6.828  13.864
23154W        W95414  27.193  31.003   4.236
23155W        W95415  13.811  20.041  11.874
23156W        W95416   0.476  31.590  12.586
23157W        W95417   3.643  24.481   4.395
23158W        W95418   9.085  33.532   0.781
23159W        W95419  43.435  43.989  12.972
23160W        W95420  32.692  44.221  11.629
23161W        W95421  23.925  17.356  14.934
23162W        W95422  19.494  41.272  13.621
23163W        W95423   6.855  42.281  10.899
23164W        W95424  14.393   5.243   2.615
23165W        W95425  24.152   5.465  12.580
23166W        W95426  39.748  20.095   0.441
23167W        W95427  38.260  24.378   1.856
23168W        W95428  22.673  19.579   0.575
23169W        W95429  30.938  11.290   4.389
23170W        W95430  37.611  37.488   2.296
23171W        W95431  23.478  19.801  13.343
23172W        W95432  29.673  13.653  12.492
23173W        W95433   8.036  12.584  11.571
23174W        W95434   8.234  22.677   4.406
23175W        W95435  22.066  19.030  13.130
23176W        W95436  31.680  23.055  13.034
23177W        W95437  18.181  31.543  14.678
23178W        W95438  19.823  40.338   2.515
23179W        W95439   2.380  14.070   0.414
23180W        W95440  32.717   0.250   1.309
23181W        W95441  36.635  32.421  13.862
23182W        W95442  37.573  23.505  11.633
23183W        W95443  37.771  14.326  14.536
23184W        W95444   7.927  34.452   1.775
23185W        W95445  16.616  14.705   2.783
23186W        W95446  21.933   9.199  12.094
23187W        W95447  17.492  15.326   3.774
23188W        W95448  25.278  41.163  13.698
23189W        W95449  11.063  24.530  14.573
23190W        W95450  21.200  35.953   2.698
23191W        W95451  16.327  15.022   2.325
23192W        W95452   4.213  23.014   1.812
23193W        W95453  32.106   7.252  11.740
23194W        W95454  22.121  28.988  10.094
23195W        W95455  43.321  35.388  10.888
23196W        W95456  44.735  22.721  12.389
23197W        W95457   1.936  16.289  10.944
23198W        W95458  35.627  12.282   2.259
23199W        W95459   3.161  32.088  11.580
23200W        W95460  28.903  17.737  13.037
23201W        W95461  23.325  13.620   1.704
23202W        W95462  28.982   4.711   4.323
23203W        W95463  21.957  16.768  10.425
23204W        W95464  39.624  12.277   3.718
23205W        W95465   1.561  26.971   3.237
23206W        W95466   3.468  14.811  14.375
23207W        W95467  24.819   6.219  11.605
23208W        W95468  28.129  30.124  11.555
23209W        W95469  14.887  25.395   0.951
23210W        W95470  20.573  26.617  12.541
23211W        W95471   5.828  33.831  11.419
23212W        W95472  43.631  24.041  12.089
23213W        W95473  24.960  35.874  11.663
23214W        W95474  19.610  40.515  11.420
23215W        W95475  22.930  41.929  14.892
23216W        W95476   3.200  32.320  11.126
23217W        W95477  15.274  19.676   2.206
23218W        W95478  38.476  11.734  12.449
23219W        W95479   6.211  21.207   3.794
23220W        W95480  24.569  28.552  12.490
23221W        W95481  39.747   7.854   2.807
23222W        W95482  24.102  44.424   2.767
23223W        W95483  35.062   3.349  14.239
23224W        W95484  22.254  37.106   0.631
23225W        W95485  22.972  15.165  12.000
23226W        W95486  21.456  16.192   0.526
23227W        W95487  17.656  27.931   0.871
23228W        W95488   6.661  39.924   2.838
23229W        W95489  10.782   9.107   3.132
23230W        W95490  27.896  38.988  14.542
23231W        W95491  10.660  18.151   1.960
23232W        W95492  27.738  17.255  10.996
23233W        W95493  39.629  26.154  14.496
23234W        W95494   4.060  26.075  10.278
23235W        W95495  30.711  37.645  10.927
23236W        W95496  17.270  41.469  10.586
23237W        W95497  13.653  32.631  13.220
23238W        W95498  42.791  22.308  10.228
23239W        W95499  16.667  17.386  11.570
23240W        W95500  43.240  26.327  12.296
23241W        W95501  12.277   4.697  14.545
23242W        W95502  10.647  39.713  14.733
23243W        W95503   6.359  32.911   4.071
23244W        W95504  23.125  17.373   2.688
23245W        W95505  32.294  10.507   0.093
23246W        W95506   3.939  44.646  11.347
23247W        W95507   4.671  41.864   4.660
23248W        W95508  19.214  35.499   2.744
23249W        W95509  15.521  37.426  14.510
23250W        W95510  27.190   4.715  12.374
23251W        W95511   2.406   2.284   4.979
23252W        W95512  40.278  26.993   0.781
23253W        W95513  11.902   5.096  11.071
23254W        W95514  30.434  25.728   0.874
23255W        W95515  24.588   7.812  14.551
23256W        W95516  25.533   7.219  13.345
23257W        W95517   0.979  33.306   2.903
23258W        W95518  37.264   1.356   3.068
23259W        W95519   9.888  28.352   3.203
23260W        W95520   7.752  34.071   1.057
23261W        W95521  34.111  12.947  13.410
23262W        W95522  26.975   6.160  13.782
23263W        W95523  18.260  41.997   3.234
23264W        W95524  31.810  39.618  11.612
23265W        W95525  11.200  26.187   2.599
23266W        W95526   2.636  13.590   4.783
23267W        W95527  39.587  32.126  13.788
23268W        W95528  24.203  13.918   2.738
23269W        W95529  21.633  28.652  13.761
23270W        W95530  34.717  40.138   3.716
23271W        W95531  18.604  27.194   0.244
23272W        W95532  30.923  31.323  11.324
23273W        W95533  22.530  28.884   3.301
23274W        W95534   8.606  41.139  13.008
23275W        W95535  20.183  33.974  10.767
23276W        W95536  34.668   2.861  11.576
23277W        W95537  33.895  34.344  12.864
23278W        W95538  12.160  43.784  13.869
23279W        W95539  30.876   0.043   3.402
23280W        W95540  12.065  22.048  12.377
23281W        W95541   8.701   0.027   2.694
23282W        W95542   4.916  14.996  14.470
23283W        W95543   8.755  14.392  14.498
23284W        W95544  43.395  17.557   4.645
23285W        W95545  35.143   5.784   2.431
23286W        W95546  30.491   8.832   1.172
23287W        W95547  33.081   3.411   0.956
23288W        W95548  40.561  26.588  12.572
23289W        W95549  13.976  17.866   4.887
23290W        W95550  32.952   1.869   4.373
23291W        W95551  34.504  25.148  12.507
23292W        W95552  37.919  43.829  13.984
23293W        W95553  11.556  15.195  12.953
23294W        W95554  25.939  36.002   2.717
23295W        W95555   2.816  29.661   1.081
23296W        W95556   8.334  18.906  11.113
23297W        W95557  29.218  40.388   4.230
23298W        W95558  37.267   9.181   4.278
23299W        W95559  11.574  33.475  11.626
23300W        W95560  22.548  16.388   3.368
23301W        W95561   0.798  36.563  13.335
23302W        W95562   3.492   7.431  11.605
23303W        W95563  14.590  25.549  13.378
23304W        W95564  23.379  21.243  13.340
23305W        W95565   2.437   2.257  13.214
23306W        W95566   4.697  26.526  10.706
23307W        W95567  14.904   6.254   1.005
23308W        W95568  17.706  39.163  12.974
23309W        W95569  44.251  30.785   3.164
23310W        W95570  16.020  11.824  12.976
23311W        W95571  25.981  36.676  12.521
23312W        W95572   6.376   2.281   4.099
23313W        W95573  29.584   6.586   3.900
23314W        W95574  14.123   0.073   2.735
23315W        W95575   7.324  29.245  10.791
23316W        W95576   4.910  25.468  13.856
23317W        W95577  23.136  31.123   3.757
23318W        W95578  18.773   7.174   4.916
23319W        W95579  43.276  19.596  14.101
23320W        W95580   9.883  28.055   2.763
23321W        W95581  34.086  34.541   3.172
23322W        W95582  19.268  32.840   4.104
23323W        W95583   2.417  44.987   4.746
23324W        W95584  15.830  15.658   4.078
23325W        W95585  15.689  26.050  11.356
23326W        W95586  28.225   9.634  12.015
23327W        W95587  42.801  20.351  11.969
23328W        W95588  13.713  17.089  12.743
23329W        W95589  18.152   9.040  13.824
23330W        W95590  16.492   0.559  12.945
23331W        W95591  23.974  28.577  13.946
23332W        W95592  29.995  13.095  10.727
23333W        W95593   0.903  31.126   3.653
23334W        W95594  11.938  24.000  11.635
23335W        W95595  31.189   0.940   3.812
23336W        W95596  37.518  16.798  14.466
23337W        W95597  25.987  14.096   1.814
23338W        W95598   5.497   6.665  13.925
23339W        W95599  44.047  30.620   0.636
23340W        W95600  40.483  17.476   2.920
23341W        W95601  22.514  44.680   2.697
23342W        W95602  16.683   5.825   3.583
23343W        W95603  36.192  39.334  13.263
23344W        W95604   5.896  42.018  11.538
23345W        W95605   7.380  34.572   4.928
23346W        W95606  36.359   2.431   2.357
23347W        W95607  37.431  21.189   4.134
23348W        W95608  35.955  17.872  11.006
23349W        W95609   1.882  17.134  14.136
23350W        W95610  30.481   2.763   2.213
23351W        W95611  23.744  28.118  11.219
23352W        W95612   0.442   6.776   2.331
23353W        W95613  37.092  12.650   0.773
23354W        W95614  24.198  38.325   3.790
23355W        W95615  21.023  38.304  14.318
23356W        W95616  20.395  30.274   0.284
23357W        W95617  32.976  35.428   0.110
23358W        W95618  18.378  30.399   0.835
23359W        W95619  11.178  27.077  12.629
23360W        W95620  19.541  43.916   3.157
23361W        W95621   3.298  44.807   3.766
23362W        W95622   0.978  33.624  13.465
23363W        W95623  34.428  29.156   2.952
23364W        W95624  11.268   9.573  14.965
23365W        W95625  16.446  44.985  14.867
23366W        W95626  43.770  19.073   2.393
23367W        W95627  38.498  14.108  13.852
23368W        W95628  42.093  19.083  14.915
23369W        W95629  26.482  36.632   0.029
23370W        W95630   9.663  12.610   0.076
23371W        W95631  19.947  24.383   1.508
23372W        W95632   2.448  34.245  10.431
23373W        W95633  28.200  38.328  12.614
23374W        W95634  35.623  26.541  13.966
23375W        W95635  43.781   8.328  14.098
23376W        W95636  39.330  37.707  12.445
23377W        W95637  15.017   0.365   0.888
23378W        W95638   7.225   5.835   2.374
23379W        W95639  21.042   7.826   0.852
23380W        W95640  36.482  32.658  13.394
23381W        W95641  28.837  18.569  10.703
23382W        W95642  36.826  43.808  10.587
23383W        W95643  21.265  31.639   4.474
23384W        W95644  37.100  14.108   1.737
23385W        W95645  14.782   9.276  11.876
23386W        W95646  22.582  27.900   2.202
23387W        W95647  19.150  33.309   0.728
23388W        W95648  36.580  21.422   3.223
23389W        W95649  35.771  18.702   4.665
23390W        W95650   3.836   7.460   1.947
23391W        W95651  38.207   9.160  13.929
23392W        W95652  44.837   5.222  14.250
23393W        W95653  39.962  13.116   4.372
23394W        W95654  44.723  25.598   2.181
23395W        W95655  13.346  36.336  10.677
23396W        W95656  16.380  17.745  13.092
23397W        W95657   3.296  12.422   1.944
23398W        W95658  43.602   0.345   0.900
23399W        W95659  17.998  44.401   2.408
23400W        W95660  34.231  15.267   3.628
23401W        W95661  28.487  35.791   2.767
23402W        W95662  27.892   8.765  11.918
23403W        W95663   4.753   6.052  10.640
23404W        W95664  36.994  36.320  13.221
23405W        W95665  17.245  33.913  14.399
23406W        W95666  21.090  22.670   4.617
23407W        W95667   3.305  37.861  13.144
23408W        W95668  35.203  43.353  14.690
23409W        W95669  14.849  40.376  12.186
23410W        W95670  22.545  35.376   1.124
23411W        W95671  39.024   5.276   2.244
23412W        W95672  20.765   8.911  13.504
23413W        W95673   4.988   9.267   4.679
23414W        W95674  16.793  20.454  14.897
23415W        W95675   1.867  40.973  11.180
23416W        W95676  35.486  17.542  11.543
23417W        W95677  39.384  35.035  13.556
23418W        W95678  23.673   0.323  13.053
23419W        W95679  27.114  20.238  11.082
23420W        W95680   5.472  13.638   1.282
23421W        W95681  34.507  19.150  13.537
23422W        W95682  29.499  29.038  11.067
23423W        W95683  21.716  39.735   0.913
23424W        W95684   9.269  36.958  12.022
23425W        W95685   0.233  42.832   0.279
23426W        W95686   1.864   8.710   3.167
23427W        W95687  17.771  18.628  11.711
23428W        W95688  38.565   4.454  14.859
23429W        W95689   3.779  31.445  11.392
23430W        W95690  44.378  37.598   3.211
23431W        W95691  42.055   4.710   3.713
23432W        W95692  36.156  16.718   2.758
23433W        W95693   4.191  11.706   4.625
23434W        W95694  32.192  14.119  10.957
23435W        W95695  31.468  43.188   3.800
23436W        W95696  29.934  42.252  13.510
23437W        W95697  40.380  32.872  13.136
23438W        W95698  21.767  13.347   2.861
23439W        W95699  34.407  39.476   4.560
23440W        W95700  13.336  29.683   2.892
23441W        W95701  17.676  41.457  14.546
23442W        W95702  44.564  33.313  11.177
23443W        W95703  37.419  22.572   1.482
23444W        W95704  27.632  12.066  13.937
23445W        W95705  33.256   1.487   2.272
23446W        W95706  36.586  15.580   4.030
23447W        W95707   3.391  40.305  13.526
23448W        W95708  17.846  14.373   3.654
23449W        W95709  22.111  10.778  14.341
23450W        W95710  22.506  35.577   3.863
23451W        W95711  21.620  27.529  11.479
23452W        W95712  15.994   2.889  12.500
23453W        W95713   6.227  29.499  14.417
23454W        W95714  44.496  33.779   1.961
23455W        W95715  21.174  17.145   3.817
23456W        W95716  15.264  38.496  11.680
23457W        W95717  13.158  35.720  12.347
23458W        W95718  18.663  18.195  10.684
23459W        W95719  14.412  36.809   1.146
23460W        W95720  13.625   5.488   2.315
23461W        W95721  27.624   2.867  14.368
23462W        W95722  19.821  12.198   3.650
23463W        W95723  27.751  18.071  12.119
23464W        W95724  21.199  14.289  13.355
23465W        W95725  31.958  28.706   3.403
23466W        W95726  37.898  18.609  12.041
23467W        W95727   7.484   9.727  14.131
23468W        W95728   2.033  16.348  13.134
23469W        W95729  32.100  35.197  13.399
23470W        W95730  22.473  40.811   1.462
23471W        W95731  12.397  16.240  12.478
23472W        W95732  19.556   4.653  14.873
23473W        W95733  29.948  28.669  11.496
23474W        W95734  14.728  41.944  10.578
23475W        W95735  26.611  20.174  12.507
23476W        W95736   4.361  27.012   0.243
23477W        W95737   0.296  41.435   1.306
23478W        W95738  42.931  28.872  12.461
23479W        W95739  14.200  40.869   1.253
23480W        W95740   7.210  26.361   4.917
23481W        W95741  26.557   3.710  12.992
23482W        W95742  23.266   4.949  13.938
23483W        W95743  11.490  44.364   3.675
23484W        W95744  33.742   5.296   0.349
23485W        W95745  38.835   0.256  14.288
23486W        W95746  14.504  16.230  14.304
23487W        W95747  24.527  42.774  12.367
23488W        W95748  18.325  43.655   0.802
23489W        W95749   1.804  40.447   2.074
23490W        W95750  18.277  40.448   0.044
23491W        W95751  30.502   6.646   2.792
23492W        W95752  44.366  21.695   1.219
23493W        W95753  17.642  28.393  11.619
23494W        W95754  15.604  23.473   1.676
23495W        W95755   5.351  15.132  13.565
23496W        W95756  24.642  38.574  10.617
23497W        W95757  43.134  36.377   1.216
23498W        W95758  40.384   2.735  10.526
23499W        W95759  18.131  34.528   3.058
23500W        W95760  23.724  11.301  11.190
23501W        W95761  29.763  17.828   1.977
23502W        W95762  43.553  19.114   0.919
23503W        W95763  17.543   6.518  11.301
23504W        W95764   6.194  38.812  12.512
23505W        W95765  22.178  27.280  12.184
23506W        W95766  17.422   5.479   3.944
23507W        W95767  41.399  16.092  10.649
23508W        W95768  18.187  38.407   2.238
23509W        W95769  44.497   7.807  13.842
23510W        W95770  27.139  39.593   0.847
23511W        W95771  39.973  15.392   1.569
23512W        W95772  37.619  32.581   4.332
23513W        W95773  13.174   6.176   0.744
23514W        W95774  10.859  21.256   0.663
23515W        W95775  23.783  42.935   2.874
23516W        W95776  33.555  21.252   1.316
23517W        W95777  27.012  32.089   1.855
23518W        W95778  44.746  29.244   4.313
23519W        W95779  26.620  36.387  14.393
23520W        W95780  44.065  16.103   2.587
23521W        W95781  29.650  21.230  14.778
23522W        W95782   1.217  38.920  14.992
23523W        W95783  41.451  39.265   3.737
23524W        W95784  44.828  21.635  14.411
23525W        W95785   1.571  43.706  11.140
23526W        W95786  27.945  41.937   2.352
23527W        W95787   7.248  41.393   2.587
23528W        W95788  31.569   5.243  13.478
23529W        W95789  15.294  44.759   3.635
23530W        W95790  32.563  10.592  11.557
23531W        W95791   7.194  42.794   4.421
23532W        W95792  41.192  30.195   3.715
23533W        W95793  34.116  26.770  13.989
23534W        W95794   2.322  22.136   5.010
23535W        W95795  30.624  10.671  11.182
23536W        W95796  30.951  33.306  13.846
23537W        W95797  33.344   1.529   0.414
23538W        W95798  15.384  24.727  11.193
23539W        W95799  28.707  15.045  13.479
23540W        W95800   0.724  14.108   4.221
23541W        W95801  37.797  20.199  14.517
23542W        W95802   1.453  27.749   3.719
23543W        W95803  15.740  33.219   1.936
23544W        W95804  22.031  32.889   2.145
23545W        W95805  10.730  12.572  14.362
23546W        W95806   2.042  15.362  11.254
23547W        W95807  38.590  28.980  13.805
23548W        W95808   7.161  13.265  14.702
23549W        W95809  27.609  11.559   1.564
23550W        W95810  11.638  32.191   1.955
23551W        W95811  17.381  20.616   2.315
23552W        W95812  36.589  32.547   4.672
23553W        W95813  31.342  12.916   2.167
23554W        W95814   6.845  24.198   3.363
23555W        W95815  13.599  42.938  13.324
23556W        W95816  39.430  12.783   4.593
23557W        W95817  26.444  28.726   3.643
23558W        W95818   4.133  40.786  13.786
23559W        W95819  28.501  11.779   3.882
23560W        W95820  12.440  27.601   5.083
23561W        W95821  44.409  11.046  11.193
23562W        W95822   1.975  38.317   2.139
23563W        W95823  20.687  17.138   0.475
23564W        W95824   4.269  33.442  12.010
23565W        W95825  20.525  34.556  12.423
23566W        W95826   0.636  25.752   2.306
23567W        W95827  31.005  29.407   2.732
23568W        W95828  23.214  15.266   3.147
23569W        W95829   1.947  24.975   4.651
23570W        W95830   6.289  14.871  12.099
23571W        W95831   5.711  43.385   3.155
23572W        W95832  35.528  12.199  14.410
23573W        W95833  30.880  38.866   0.852
23574W        W95834  19.499  34.004   2.324
23575W        W95835  34.912   4.321  11.252
23576W        W95836  10.809  42.834   0.012
23577W        W95837  21.367  24.683   5.144
23578W        W95838   2.221  16.743  13.417
23579W        W95839  39.813   6.200   2.218
23580W        W95840  34.901  24.731   2.162
23581W        W95841  39.891  12.585   4.103
23582W        W95842  31.055  39.354   2.787
23583W        W95843  19.330  16.095   4.190
23584W        W95844  35.354   7.088  14.861
23585W        W95845  11.862  37.327   4.146
23586W        W95846   4.371  22.112   0.288
23587W        W95847   6.355  33.995   3.745
23588W        W95848  30.404   4.747  13.009
23589W        W95849  38.396  34.119   4.682
23590W        W95850   7.745  17.616   1.698
23591W        W95851  14.242  32.511  11.550
23592W        W95852  22.562  35.057   4.056
23593W        W95853  44.623  37.509   1.119
23594W        W95854  23.309  35.924  14.817
23595W        W95855  28.818  28.944  13.438
23596W        W95856  25.328  29.458  14.532
23597W        W95857  38.768   6.937   0.288
23598W        W95858  37.506   6.774  12.682
23599W        W95859  41.991  12.887   0.484
23600W        W95860  28.461  41.659  14.457
23601W        W95861   4.877  18.824   2.396
23602W        W95862  19.174  13.880   3.317
23603W        W95863  19.448  22.744   2.515
23604W        W95864   2.662  38.264   0.952
23605W        W95865  43.510  12.115  14.865
23606W        W95866  42.730  16.309  15.000
23607W        W95867  19.469  12.112   4.597
23608W        W95868  13.684  22.580   2.951
23609W        W95869  34.600  41.693  12.007
23610W        W95870  23.940  37.254  11.109
23611W        W95871   1.984  32.989  11.374
23612W        W95872  39.504   1.060   2.952
23613W        W95873  28.296  15.169  11.624
23614W        W95874  18.721  12.872  14.469
23615W        W95875   0.740   5.725  14.028
23616W        W95876  12.798  11.596   2.883
23617W        W95877  33.952  21.531  12.565
23618W        W95878   9.305  29.980  11.400
23619W        W95879  41.307  15.681   2.437
23620W        W95880  33.673  21.969  10.331
23621W        W95881   2.003  26.631   4.743
23622W        W95882  28.401   3.168   1.757
23623W        W95883  11.591  36.814  12.744
23624W        W95884  43.663  36.899  10.531
23625W        W95885  10.848  39.038   1.277
23626W        W95886  29.102  32.593  12.816
23627W        W95887   0.950  43.566   0.799
23628W        W95888  11.431  24.452  13.377
23629W        W95889  17.120   1.379   3.691
23630W        W95890   6.906   9.754  11.315
23631W        W95891  41.559  42.629   3.183
23632W        W95892   3.333  25.972  10.792
23633W        W95893  22.315  39.899   3.374
23634W        W95894  28.194  22.973   0.399
23635W        W95895  10.263  24.658  12.482
23636W        W95896  40.974  30.276  14.885
23637W        W95897  21.507  32.527  14.065
23638W        W95898  32.469   1.575   2.806
23639W        W95899  11.764  28.083  11.222
23640W        W95900  42.446   2.512   3.318
23641W        W95901  22.015   2.293   0.526
23642W        W95902  36.569   9.837  13.523
23643W        W95903  29.636   1.759   0.753
23644W        W95904  15.681  19.073   0.501
23645W        W95905  10.109  26.236   2.907
23646W        W95906  29.374   1.555  13.891
23647W        W95907  11.143   6.989   2.186
23648W        W95908  15.717  33.690  14.911
23649W        W95909  40.052  26.162   2.987
23650W        W95910  16.117  14.893   1.815
23651W        W95911   2.394   3.449  11.952
23652W        W95912   6.628   4.559  12.151
23653W        W95913  20.953  15.301   2.725
23654W        W95914  31.596   1.783   4.660
23655W        W95915  44.712   9.658  11.178
23656W        W95916  40.267   8.696  12.908
23657W        W95917  41.044  29.978   4.879
23658W        W95918  19.173   9.854  12.023
23659W        W95919  40.369  23.559  10.715
23660W        W95920  36.053   0.582   1.945
23661W        W95921  37.338  43.822  10.763
23662W        W95922  34.335  14.108   4.187
23663W        W95923  34.677  36.150   4.520
23664W        W95924  38.844   3.774   1.206
23665W        W95925  39.022  34.851   2.336
23666W        W95926   0.192  38.619   1.794
23667W        W95927  37.814  43.462  14.679
23668W        W95928  30.568  17.650   2.390
23669W        W95929  11.287   2.590  12.369
23670W        W95930   3.361  11.258   3.405
23671W        W95931  17.784  20.651  13.898
23672W        W95932  40.668  18.333  11.628
23673W        W95933   8.191  15.346   3.887
23674W        W95934  17.025   5.880   0.523
23675W        W95935  12.176   1.722  11.832
23676W        W95936   1.704  33.883   2.641
23677W        W95937  24.393  25.172  13.848
23678W        W95938  36.627  29.984   3.632
23679W        W95939   3.628  25.903  12.562
23680W        W95940  31.909  17.548  12.397
23681W        W95941  31.423  15.604   0.200
23682W        W95942  29.432  17.381  10.597
23683W        W95943  21.438  36.942  13.363
23684W        W95944  21.457   9.953  11.920
23685W        W95945   2.820  21.169  11.946
23686W        W95946  19.749  20.828   1.955
23687W        W95947  25.088  32.923  14.693
23688W        W95948  19.505  20.661  12.033
23689W        W95949   0.787  43.724   2.261
23690W        W95950   9.150  38.021  14.752
23691W        W95951  25.780  33.328  11.471
23692W        W95952  10.242   8.908  11.442
23693W        W95953  21.677  35.441   0.784
23694W        W95954  30.313  32.575  11.004
23695W        W95955  36.492  21.306   1.255
23696W        W95956  14.726  11.494   5.060
23697W        W95957   9.179  10.865  14.156
23698W        W95958   4.314  23.890  14.978
23699W        W95959  42.829  42.368   4.707
23700W        W95960  22.080  34.563   2.715
23701W        W95961  12.531   3.242  13.290
23702W        W95962  40.727  20.684   4.206
23703W        W95963  21.709  20.027  10.859
23704W        W95964  14.384  34.225  12.008
23705W        W95965   0.934  15.491   0.333
23706W        W95966  28.056   1.766   5.042
23707W        W95967   4.822  10.910  14.440
23708W        W95968  44.893  21.754   0.260
23709W        W95969  30.538   9.143  12.607
23710W        W95970  39.506  40.496   2.164
23711W        W95971  15.022   1.963   2.768
23712W        W95972  16.243  26.356  13.560
23713W        W95973  41.467  28.179  10.444
23714W        W95974  31.149  32.618  11.695
23715W        W95975  19.696  37.325   1.398
23716W        W95976  37.323  32.475  11.622
23717W        W95977   9.709  19.833  14.746
23718W        W95978  31.404  27.008   3.196
23719W        W95979  42.508  38.087   3.165
23720W        W95980   9.608   3.303  10.910
23721W        W95981  36.552  34.818   5.031
23722W        W95982  26.724  18.459   2.378
23723W        W95983   0.869  15.819  13.717
23724W        W95984  13.689  32.027   4.038
23725W        W95985  41.807  27.180   0.777
23726W        W95986  24.761  21.141   2.784
23727W        W95987  38.477  18.129   1.957
23728W        W95988  31.928  20.579  11.562
23729W        W95989  19.311  11.710  13.438
23730W        W95990  32.458   6.910   0.774
23731W        W95991  43.545  41.850   4.271
23732W        W95992  39.638  16.223   0.750
23733W        W95993  13.662  20.640  12.973
23734W        W95994  15.446  43.738  11.522
23735W        W95995   7.766   4.683  12.723
23736W        W95996  16.248  13.097   1.352
23737W        W95997  24.972  11.601  11.585
23738W        W95998  21.067  30.994   3.205
23739W        W95999  22.529  42.291   4.747
23740W        W96000  22.926  32.178   1.901
23741W        W96001   4.338  37.732   0.601
23742W        W96002  43.212   6.970   3.737
23743W        W96003  38.120  42.906  10.711
23744W        W96004  44.609  20.433   1.704
23745W        W96005   2.066  34.448  14.905
23746W        W96006  29.786   4.231   1.689
23747W        W96007  44.334   6.871  13.993
23748W        W96008  16.861  34.487  12.469
23749W        W96009   3.347  20.763   2.648
23750W        W96010  31.173   9.589   4.624
23751W        W96011   2.871   3.011  11.522
23752W        W96012  37.462  16.130  12.521
23753W        W96013  12.269   5.772   1.950
23754W        W96014  39.846   8.953  13.867
23755W        W96015  33.038  32.572   3.318
23756W        W96016  40.926  35.080  14.717
23757W        W96017  35.992  34.794   4.562
23758W        W96018   8.200  43.365  12.767
23759W        W96019  20.783  40.109  14.058
23760W        W96020   4.849  33.586   2.820
23761W        W96021   3.272  13.256  11.397
23762W        W96022  18.494  35.964  11.410
23763W        W96023  16.020   4.697   2.752
23764W        W96024  12.084  21.995  14.806
23765W        W96025   1.619  12.002   3.266
23766W        W96026   5.374   6.977   4.595
23767W        W96027  23.829  30.532   1.703
23768W        W96028   8.171  25.312  14.690
23769W        W96029  30.535   3.888   2.376
23770W        W96030   2.461  28.404   4.137
23771W        W96031   5.926   7.617   3.162
23772W        W96032   0.770  19.297  12.747
23773W        W96033  22.768  39.967  10.089
23774W        W96034   0.878   5.196   2.444
23775W        W96035  10.699   3.819   3.794
23776W        W96036  22.217  20.769   2.559
23777W        W96037  27.514  21.585  11.021
23778W        W96038  24.276  12.719   0.409
23779W        W96039  40.682  14.456  11.129
23780W        W96040  21.950   9.957  14.925
23781W        W96041  19.143   9.514  10.198
23782W        W96042   4.311  14.534  10.723
23783W        W96043  11.727   7.688  12.624
23784W        W96044   0.771  44.298  11.972
23785W        W96045  35.715   3.632  11.376
23786W        W96046  39.012  25.184   3.277
23787W        W96047  28.341  19.094  13.322
23788W        W96048   0.635  25.399   2.675
23789W        W96049   0.380  34.036  13.833
23790W        W96050   3.898  20.054   1.445
23791W        W96051  43.350  35.072  14.524
23792W        W96052  36.377   2.152  13.296
23793W        W96053  17.099  26.012  11.222
23794W        W96054  30.184  36.316   4.232
23795W        W96055  26.157  34.640   2.696
23796W        W96056  28.523  22.729   3.680
23797W        W96057  12.074  30.567   0.627
23798W        W96058  41.964   4.886   2.191
23799W        W96059   6.131  23.912   0.838
23800W        W96060  35.361  15.650   3.405
23801W        W96061  22.980  33.949   2.908
23802W        W96062  28.152   5.815  13.363
23803W        W96063  19.724  31.517   4.161
23804W        W96064  28.877  30.488   2.625
23805W        W96065  17.700  14.428   3.137
23806W        W96066  35.361   7.439   4.593
23807W        W96067  35.446  34.572   4.601
23808W        W96068  20.831  29.474   2.383
23809W        W96069  21.928  28.054   5.751
23810W        W96070  18.671  34.939   0.773
23811W        W96071  42.906  36.422   4.500
23812W        W96072   9.671  40.524  14.279
23813W        W96073   2.292  19.845   3.772
23814W        W96074  38.925  42.880  14.489
23815W        W96075   1.075  10.542  11.709
23816W        W96076   5.618  20.302  13.286
23817W        W96077   9.685  22.496   3.226
23818W        W96078   1.901   2.249   4.723
23819W        W96079  18.227  28.361  13.796
23820W        W96080  17.793   1.886   2.760
23821W        W96081  18.656  15.233   2.114
23822W        W96082   5.316  17.108  10.594
23823W        W96083  40.970  22.031  13.439
23824W        W96084  21.689  35.599  13.048
23825W        W96085   9.230  37.404  14.433
23826W        W96086  22.834   2.891   1.762
23827W        W96087  29.028  37.184   1.525
23828W        W96088  39.526  35.700  11.047
23829W        W96089  43.487  37.864   2.421
23830W        W96090  10.180  13.047  11.147
23831W        W96091  38.622  31.037  14.567
23832W        W96092   9.627  35.436   2.114
23833W        W96093   9.240   6.448   1.256
23834W        W96094  39.423  40.336   1.645
23835W        W96095  43.886  15.838  10.636
23836W        W96096  21.200  19.347  10.403
23837W        W96097  28.444  43.487   2.540
23838W        W96098   1.884  29.312  11.492
23839W        W96099  43.877  11.942  13.379
23840W        W96100  12.735  43.035  14.439
23841W        W96101  23.956   8.738  11.951
23842W        W96102  27.994  38.454   1.206
23843W        W96103  19.653   0.671   3.174
23844W        W96104  36.404  24.243   1.286
23845W        W96105  16.834  33.612   2.581
23846W        W96106  32.470  29.113  10.761
23847W        W96107  38.596  12.374  14.313
23848W        W96108   1.695  15.692  14.084
23849W        W96109   0.274  18.725   0.704
23850W        W96110  13.692  12.798  13.752
23851W        W96111   2.373   8.554   3.053
23852W        W96112  21.516   1.444  12.909
23853W        W96113  40.343  19.051  12.697
23854W        W96114  14.038   6.626   3.669
23855W        W96115  38.525  14.262   0.200
23856W        W96116  15.390  13.379  13.689
23857W        W96117  10.074  15.663  13.349
23858W        W96118  15.040  23.499   0.766
23859W        W96119  29.930  41.822  13.826
23860W        W96120   1.452   7.740   1.730
23861W        W96121  38.836  19.132  13.128
23862W        W96122   0.873  37.017  11.659
23863W        W96123   1.480  34.582  13.726
23864W        W96124  35.335  15.138   4.094
23865W        W96125   3.890  26.017   4.688
23866W        W96126  33.037  40.808  13.862
23867W        W96127  43.720   6.778   4.639
23868W        W96128  35.403  19.208  11.848
23869W        W96129  21.328  22.262   2.769
23870W        W96130  39.813  12.635  12.487
23871W        W96131  38.588  32.413   0.315
23872W        W96132  31.112  44.960  11.473
23873W        W96133  31.412   3.703   2.327
23874W        W96134  33.499  34.893  14.605
23875W        W96135  30.587   7.970   4.493
23876W        W96136   2.713  33.909  12.499
23877W        W96137   9.311   7.752  13.864
23878W        W96138  21.744  35.554  13.975
23879W        W96139  18.108  13.047  12.987
23880W        W96140  24.592  18.079   2.816
23881W        W96141  44.250   5.928  11.133
23882W        W96142  44.773  32.494   2.097
23883W        W96143  20.301  34.135   4.489
23884W        W96144  34.386  28.068  10.919
23885W        W96145  28.052  39.890   2.013
23886W        W96146  11.266   4.865   2.323
23887W        W96147  35.192  38.991  14.797
23888W        W96148  30.715  31.435  12.975
23889W        W96149  27.878  25.778   2.875
23890W        W96150  19.918  39.722  12.413
23891W        W96151   2.664  38.931  11.894
23892W        W96152   8.816  29.534  13.548
23893W        W96153   9.524  15.083   3.050
23894W        W96154  35.335  31.402  11.863
23895W        W96155  19.251  37.195  13.586
23896W        W96156  26.908  31.958   4.137
23897W        W96157  14.546  43.682  12.968
23898W        W96158  28.139  44.035   3.762
23899W        W96159  24.703   9.112   3.207
23900W        W96160  26.047  15.310   3.734
23901W        W96161  11.125  12.154   4.048
23902W        W96162  38.661  29.677   2.106
23903W        W96163  36.058  18.358   5.052
23904W        W96164  43.461  26.153  11.425
23905W        W96165   9.467  33.884   0.502
23906W        W96166  28.813  34.475  14.335
23907W        W96167   1.878   0.208   3.771
23908W        W96168  30.004  44.702   0.421
23909W        W96169  44.441  16.573   1.904
23910W        W96170  13.207  26.603   0.787
23911W        W96171  42.764  41.103  12.201
23912W        W96172  40.241  20.577   4.159
23913W        W96173  34.878  42.965   2.009
23914W        W96174  41.801   1.868  13.941
23915W        W96175  19.800  36.358  12.588
23916W        W96176  37.865   8.609  14.842
23917W        W96177  22.841   9.363  13.663
23918W        W96178  19.123   7.675  10.689
23919W        W96179   0.559  43.846  12.223
23920W        W96180  25.910  10.176   1.776
23921W        W96181   7.846  22.313  13.753
23922W        W96182  44.522  41.941   2.791
23923W        W96183  20.089  16.002  13.064
23924W        W96184  39.896  16.124  14.975
23925W        W96185  28.099  16.840   3.711
23926W        W96186   3.943   8.956   0.272
23927W        W96187  32.546  41.733   0.719
23928W        W96188   5.197  40.289  14.327
23929W        W96189   0.861  16.151   2.929
23930W        W96190  41.610  25.007   5.014
23931W        W96191  20.665  11.181  12.980
23932W        W96192  26.634  19.698  11.638
23933W        W96193  35.087  27.075  10.555
23934W        W96194  20.108  16.133   4.733
23935W        W96195   6.794  39.093  12.831
23936W        W96196  13.935   9.204  10.754
23937W        W96197  27.526  12.675   4.641
23938W        W96198  33.462  18.702   0.224
23939W        W96199  41.949  17.766  10.968
23940W        W96200  30.329   3.320  11.044
23941W        W96201  28.044  41.804  11.953
23942W        W96202  32.788  42.788   3.026
23943W        W96203   0.979  22.227   4.168
23944W        W96204  39.774  41.543   3.664
23945W        W96205  18.447  14.646   1.830
23946W        W96206  34.705  43.087   0.986
23947W        W96207  11.455   6.696  11.960
23948W        W96208  13.638  37.888  12.180
23949W        W96209  24.043  27.127   5.035
23950W        W96210  26.614  25.373   3.446
23951W        W96211  36.082   0.587   3.302
23952W        W96212  10.176  20.627   2.611
23953W        W96213   5.119  20.634   2.541
23954W        W96214  37.331   5.824   3.665
23955W        W96215  40.440  40.851  10.595
23956W        W96216  17.199  22.226   3.020
23957W        W96217  39.030  12.733   2.360
23958W        W96218   5.863   2.263  14.192
23959W        W96219   8.395   5.918   1.440
23960W        W96220  22.911  22.826  11.876
23961W        W96221  13.035  24.180   1.337
23962W        W96222  31.621  15.623   3.677
23963W        W96223  17.270  19.537  11.127
23964W        W96224   4.675  37.847  12.562
23965W        W96225  29.603  17.552   4.681
23966W        W96226  39.493   4.198  14.828
23967W        W96227  20.669  24.526   1.589
23968W        W96228  16.406  23.233   2.300
23969W        W96229  27.769  27.461   1.728
23970W        W96230   2.752  18.957  13.650
23971W        W96231  22.235   7.807   0.218
23972W        W96232   3.734  20.117  13.769
23973W        W96233   8.106  13.753  10.622
23974W        W96234  32.444  35.099  12.507
23975W        W96235   1.761  19.933  10.793
23976W        W96236  44.832  29.858   2.823
23977W        W96237   4.296  37.829  12.953
23978W        W96238  37.340  41.765   1.724
23979W        W96239   6.162   5.721   3.254
23980W        W96240  16.175  43.392  10.425
23981W        W96241  36.862  29.355   3.630
23982W        W96242  12.358   5.318   1.755
23983W        W96243   1.049  23.638   4.189
23984W        W96244  21.781  12.590  12.964
23985W        W96245  23.475  29.529   4.970
23986W        W96246  37.253  22.870  11.088
23987W        W96247  20.063   0.516   1.674
23988W        W96248  15.822   2.980  13.094
23989W        W96249  43.430  24.024  10.653
23990W        W96250  18.563   8.197   2.328
23991W        W96251  19.188  34.596  13.044
23992W        W96252  14.620   7.620  13.989
23993W        W96253  24.958  14.700  13.442
23994W        W96254   5.924   6.314  12.793
23995W        W96255   8.451  11.855  11.985
23996W        W96256  16.444  15.401  10.320
23997W        W96257  31.073   6.199  11.217
23998W        W96258  31.088  27.543   2.167
23999W        W96259   9.199  21.093   4.295
24000W        W96260  21.810   7.188   3.737
24001W        W96261  37.355   5.255  12.352
24002W        W96262   1.004  31.576  12.599
24003W        W96263   2.967   9.058   1.853
24004W        W96264  12.380  27.399   2.884
24005W        W96265  37.861  35.783  11.078
24006W        W96266  11.432  38.108   0.801
24007W        W96267  12.820  16.110  13.871
24008W        W96268  16.212  14.888  13.914
24009W        W96269  39.967  30.002  14.961
24010W        W96270  43.341  43.481  12.979
24011W        W96271  41.011  26.175   3.338
24012W        W96272  34.842  37.055  14.983
24013W        W96273  15.620   5.674  13.539
24014W        W96274  17.259   8.881   3.269
24015W        W96275  33.571  12.275   1.971
24016W        W96276  19.740  33.725  10.946
24017W        W96277  26.293  38.334   1.339
24018W        W96278  38.150   9.607   2.290
24019W        W96279  15.662  38.346   3.321
24020W        W96280  13.258  20.672   2.870
24021W        W96281  23.780  14.397   2.221
24022W        W96282  38.612  42.084   1.355
24023W        W96283  42.361  22.761  12.754
24024W        W96284   6.339  10.528  10.612
24025W        W96285  39.245  29.475  12.228
24026W        W96286  10.966  15.219   3.430
24027W        W96287  18.130  37.309  12.554
24028W        W96288  14.249  19.470  11.508
24029W        W96289   7.858  11.757   0.333
24030W        W96290   2.755  13.324   1.792
24031W        W96291  33.024  30.127   1.232
24032W        W96292  18.056   5.333   3.253
24033W        W96293  31.537   9.195  11.213
24034W        W96294  12.797  32.012  10.821
24035W        W96295  39.416  17.051   1.889
24036W        W96296  43.511  44.791   3.181
24037W        W96297  24.285  14.179  10.075
24038W        W96298   2.522  20.122  13.771
24039W        W96299  30.232  16.325   0.362
24040W        W96300  12.460  21.738  12.645
24041W        W96301  43.785   1.298  13.623
24042W        W96302  23.846   0.458   0.746
24043W        W96303  34.071  16.352  11.993
24044W        W96304  35.461  22.182  14.155
24045W        W96305  32.960  25.976   3.310
24046W        W96306  44.801  31.885   2.903
24047W        W96307   4.311  25.941  13.430
24048W        W96308  18.343  16.289   2.602
24049W        W96309   6.917  42.999   4.816
24050W        W96310   1.963  25.990  11.215
24051W        W96311  16.292  36.568   1.938
24052W        W96312  16.601  42.014   1.697
24053W        W96313  38.918  39.084  14.794
24054W        W96314  39.566  28.984   0.976
24055W        W96315  14.806  27.718  13.597
24056W        W96316  19.825   3.922   2.643
24057W        W96317  41.474  14.683   3.849
24058W        W96318   3.659  13.437  13.266
24059W        W96319   4.175   4.368  12.378
24060W        W96320   0.431  42.464   3.608
24061W        W96321  12.698  26.426  14.986
24062W        W96322  12.076   7.729   1.057
24063W        W96323  32.474   0.538   2.860
24064W        W96324  13.204  23.958  12.552
24065W        W96325  34.387  11.649   0.782
24066W        W96326   8.457  43.505  14.732
24067W        W96327  24.598  32.094  14.845
24068W        W96328  17.055  13.034   2.562
24069W        W96329   3.039  40.319   4.875
24070W        W96330  20.612  39.971  13.023
24071W        W96331  22.762  26.263   1.332
24072W        W96332  10.847  41.038   0.225
24073W        W96333  16.364  40.992   0.712
24074W        W96334  10.770  16.108  12.034
24075W        W96335  23.758   3.759  11.156
24076W        W96336  39.225  13.856  13.595
24077W        W96337  23.071   1.711   2.334
24078W        W96338  11.350  15.270  14.996
24079W        W96339  23.989  31.088  14.495
24080W        W96340   5.236  38.415   3.056
24081W        W96341  21.487   5.179   2.789
24082W        W96342  10.524   6.808  12.916
24083W        W96343  32.686  18.256  14.353
24084W        W96344  19.602  40.239  14.998
24085W        W96345   1.852  29.598   4.375
24086W        W96346  34.820   3.930  10.954
24087W        W96347  29.707  15.562   4.985
24088W        W96348  19.667  28.991   1.844
24089W        W96349  30.139  39.822   0.331
24090W        W96350  28.747  32.384   2.859
24091W        W96351   0.175  44.948  13.460
24092W        W96352   6.228   9.564  12.099
24093W        W96353  43.041  25.045   0.484
24094W        W96354  21.451   7.725  11.990
24095W        W96355  34.585  26.207   1.022
24096W        W96356  27.002  39.059  12.444
24097W        W96357  30.391  34.323   2.457
24098W        W96358  18.733  41.899  12.782
24099W        W96359   6.757  37.918  14.882
24100W        W96360  35.322  29.506  14.725
24101W        W96361  32.942  33.180   2.268
24102W        W96362   2.989  24.269   1.801
24103W        W96363  19.839  21.145  14.423
24104W        W96364  27.871   0.316  12.867
24105W        W96365  32.015   4.370  10.605
24106W        W96366  31.898   5.479   1.686
24107W        W96367  14.679   2.841  12.571
24108W        W96368  24.459  14.960   1.354
24109W        W96369  34.938  24.332  10.195
24110W        W96370  40.049   8.362   0.881
24111W        W96371  27.129  38.948   4.154
24112W        W96372  10.373  30.923  14.046
24113W        W96373  42.265   1.867   1.123
24114W        W96374  29.461   2.058  13.775
24115W        W96375  28.066  23.482  11.557
24116W        W96376   4.173  17.698   0.357
24117W        W96377  39.335   4.870  10.461
24118W        W96378  43.952  43.881   3.376
24119W        W96379   3.279  41.580   2.382
24120W        W96380  37.340  23.477   4.591
24121W        W96381  44.346  18.772  14.512
24122W        W96382  16.982   7.223   2.737
24123W        W96383   8.772   1.798  12.821
24124W        W96384   5.409  28.871  10.527
24125W        W96385  42.482   0.255  13.416
24126W        W96386  36.133  20.752   2.699
24127W        W96387  35.327  28.776  12.475
24128W        W96388   7.400  14.539  11.860
24129W        W96389   9.050   2.135   0.531
24130W        W96390  17.041  31.659   4.089
24131W        W96391  30.069  44.613  11.497
24132W        W96392  37.854  40.248  11.142
24133W        W96393  33.702   8.638   0.868
24134W        W96394  37.015  11.671  11.320
24135W        W96395   1.122  34.669  14.848
24136W        W96396   1.999  18.033  13.909
24137W        W96397  18.038  41.740   2.628
24138W        W96398  17.825  13.281   0.307
24139W        W96399  33.534   3.363   0.676
24140W        W96400  18.787   8.725   1.193
24141W        W96401   3.231  35.040  14.086
24142W        W96402  31.278  31.441   0.945
24143W        W96403   8.255  23.353   3.075
24144W        W96404  33.466  37.091  13.971
24145W        W96405  19.895  43.945   1.757
24146W        W96406   1.141  25.199   2.753
24147W        W96407  32.404   7.242   1.260
24148W        W96408  36.554  31.174   4.560
24149W        W96409  35.072  30.690   4.605
24150W        W96410  15.114  28.833   2.242
24151W        W96411   4.296  15.948  10.826
24152W        W96412  33.527  29.409  14.807
24153W        W96413  40.062  16.482   2.322
24154W        W96414  17.338  25.379   1.353
24155W        W96415   1.927   6.004  12.823
24156W        W96416  25.245   6.456   0.862
24157W        W96417  16.031  40.572  13.699
24158W        W96418  43.896  17.745   0.997
24159W        W96419  34.991  21.166  10.126
24160W        W96420  44.556  44.215   0.909
24161W        W96421   9.758  37.936   4.901
24162W        W96422  30.203   3.387  13.945
24163W        W96423  32.382  21.614  11.679
24164W        W96424  38.585   9.512  13.848
24165W        W96425   1.216   6.890  12.187
24166W        W96426  14.358  33.369   2.853
24167W        W96427  27.917  29.153  12.635
24168W        W96428  10.662  10.035   3.197
24169W        W96429  11.613  12.532  11.992
24170W        W96430  11.671  32.763   4.615
24171W        W96431  38.829  31.466  14.942
24172W        W96432  11.698  11.894  13.301
24173W        W96433  15.743  26.216   4.147
24174W        W96434  32.368  31.099  12.011
24175W        W96435  42.529   2.643  11.417
24176W        W96436  13.282  42.509  13.277
24177W        W96437  25.069  23.184  10.992
24178W        W96438   5.228  28.070   5.093
24179W        W96439   8.954  16.260  12.821
24180W        W96440  24.766   4.831  11.583
24181W        W96441   0.752   7.900  10.796
24182W        W96442  18.503  43.940   4.662
24183W        W96443  30.446  35.843   2.178
24184W        W96444  25.672  20.205  10.729
24185W        W96445  38.362  37.820   1.669
24186W        W96446  33.691  41.527   1.363
24187W        W96447   0.757   9.062  12.503
24188W        W96448   0.044   8.836   1.235
24189W        W96449   2.982  42.412  12.797
24190W        W96450  29.917  31.101   0.544
24191W        W96451  43.216   6.671  10.672
24192W        W96452   6.951  30.643  13.873
24193W        W96453  10.263   1.855   0.910
24194W        W96454   9.580   6.247   2.144
24195W        W96455   9.767  44.446   4.323
24196W        W96456   7.863  26.322  10.634
24197W        W96457   5.482  44.530   0.289
24198W        W96458  36.103  44.775  12.174
24199W        W96459  10.419  31.539  11.586
24200W        W96460  25.731  15.019  13.392
24201W        W96461  29.992  33.983   2.454
24202W        W96462  20.593  35.178   1.732
24203W        W96463  26.247  26.975  10.642
24204W        W96464   7.899   4.759   1.660
24205W        W96465  25.443  30.224  14.840
24206W        W96466  38.211   6.643   1.012
24207W        W96467  39.990  36.296   0.444
24208W        W96468  18.992  12.219   3.215
24209W        W96469  14.119  15.725   2.808
24210W        W96470  39.144  12.174   3.579
24211W        W96471  15.680  29.002  12.277
24212W        W96472  24.507  17.604   3.006
24213W        W96473   0.251  34.114   1.262
24214W        W96474  43.313  35.527   3.971
24215W        W96475  27.424  22.197   2.964
24216W        W96476  11.776  21.558  14.295
24217W        W96477  39.803  13.524   1.823
24218W        W96478   1.261   5.530  12.317
24219W        W96479  14.996  29.179   1.896
24220W        W96480   2.196  41.569  12.608
24221W        W96481  23.617  42.874  12.288
24222W        W96482  26.600   7.004   4.178
24223W        W96483   6.626   4.835   1.357
24224W        W96484  11.193  30.889   2.063
24225W        W96485  27.982  35.962  13.389
24226W        W96486  36.203  10.125  10.637
24227W        W96487  25.580  15.092   1.937
24228W        W96488   4.079  22.282  13.927
24229W        W96489  34.293  28.505  11.207
24230W        W96490   5.719  30.727  11.848
24231W        W96491  27.960  12.792   4.898
24232W        W96492  25.183  35.175  12.208
24233W        W96493  37.928  38.476   3.783
24234W        W96494   5.935   9.336   3.652
24235W        W96495  28.376  43.238  13.581
24236W        W96496  40.664   4.108  10.709
24237W        W96497   7.705  11.575  12.787
24238W        W96498   2.219   1.239  10.783
24239W        W96499   7.196   0.729   0.361
24240W        W96500  44.672  33.300   1.849
24241W        W96501   2.664  35.828  12.891
24242W        W96502  16.817  24.633   1.288
24243W        W96503  32.913   7.916   4.039
24244W        W96504  27.032  16.489   3.768
24245W        W96505  24.539  12.480  11.830
24246W        W96506   2.774  18.539   0.375
24247W        W96507   2.817   3.521  11.623
24248W        W96508  36.002  38.437   2.354
24249W        W96509  40.353   4.370   0.350
24250W        W96510  27.144  13.160   0.892
24251W        W96511   2.657  25.348   2.548
24252W        W96512   7.783  15.725   0.436
24253W        W96513   7.646   9.629   3.036
24254W        W96514   8.307   1.712  12.545
24255W        W96515  19.019  42.324  12.588
24256W        W96516  38.982   4.069  14.364
24257W        W96517  19.150  35.622  12.296
24258W        W96518  11.956  12.582   4.576
24259W        W96519  15.609  30.330   3.120
24260W        W96520  37.947  20.938   3.237
24261W        W96521  11.406  21.583  13.520
24262W        W96522  13.077  42.495  10.432
24263W        W96523  30.863  10.327  13.704
24264W        W96524  42.873  24.068   1.435
24265W        W96525  29.020  31.500  10.076
24266W        W96526  17.102  41.411  14.782
24267W        W96527  41.466   4.737  10.000
24268W        W96528  31.258   2.899  11.723
24269W        W96529  41.378  43.320  13.237
24270W        W96530  34.445  16.187   0.772
24271W        W96531   0.936  39.344   1.776
24272W        W96532   1.586   2.008  14.446
24273W        W96533   5.778  30.949  13.629
24274W        W96534  37.541  41.003   4.079
24275W        W96535   5.333  21.573   3.405
24276W        W96536  30.620  18.277  12.771
24277W        W96537  16.206  37.924   4.915
24278W        W96538  23.144  37.139  10.735
24279W        W96539  19.246   2.417  10.774
24280W        W96540  22.993  29.035   0.350
24281W        W96541  16.755  34.584   4.598
24282W        W96542  42.992  34.990   0.922
24283W        W96543  14.553  33.539  10.169
24284W        W96544   6.857  37.825  10.620
24285W        W96545  15.809  25.538   1.509
24286W        W96546  15.161  33.653  14.460
24287W        W96547   5.893   2.268   2.246
24288W        W96548  44.778  33.875  12.093
24289W        W96549  16.168  34.707  13.733
24290W        W96550  39.756  42.645  12.360
24291W        W96551   5.679  33.733   1.758
24292W        W96552   4.889  25.605  12.347
24293W        W96553  39.586  26.099  12.521
24294W        W96554  27.155   2.011  14.917
24295W        W96555  16.019  20.759   3.124
24296W        W96556  19.079  23.629   2.934
24297W        W96557   2.787   8.120  14.526
24298W        W96558  23.511  12.647   4.837
24299W        W96559  20.387   3.760  10.647
24300W        W96560  19.541  43.812  12.459
24301W        W96561  18.320   6.408   0.732
24302W        W96562  13.059  18.277   0.299
24303W        W96563  19.031  23.072  12.504
24304W        W96564  39.699  10.154   4.065
24305W        W96565  32.863  40.053   2.354
24306W        W96566   7.351  41.549  10.644
24307W        W96567  36.880  22.720  13.447
24308W        W96568   3.838  15.680   0.876
24309W        W96569   7.711  11.925  12.438
24310W        W96570  12.234  10.830   2.182
24311W        W96571  29.664   1.749  14.275
24312W        W96572   1.976  22.113   1.862
24313W        W96573   8.759  26.785   1.853
24314W        W96574  15.458   3.119  14.333
24315W        W96575  34.423  17.105   1.171
24316W        W96576   0.008  32.137   3.293
24317W        W96577   6.785  25.463  12.356
24318W        W96578  20.586   9.920  11.970
24319W        W96579  23.647   1.885   0.515
24320W        W96580  13.708  32.907   3.007
24321W        W96581  15.898  14.688  10.518
24322W        W96582  19.767  20.254   4.555
24323W        W96583  29.173  33.902   4.828
24324W        W96584   7.371   0.617   2.697
24325W        W96585  30.864  14.677  12.117
24326W        W96586  19.171  26.438   2.901
24327W        W96587  41.915  25.676   2.635
24328W        W96588  30.494   0.450   3.746
24329W        W96589  26.130  39.558   0.882
24330W        W96590  26.909  21.641  12.556
24331W        W96591  16.640  30.541   4.492
24332W        W96592  17.615  33.913   1.202
24333W        W96593  14.311  35.987  14.898
24334W        W96594   7.604   3.205  13.930
24335W        W96595  25.564  42.977  12.549
24336W        W96596   3.836  39.010  14.803
24337W        W96597  25.241  29.952   2.174
24338W        W96598  16.692  18.832   0.407
24339W        W96599  29.511  11.743   2.019
24340W        W96600  37.378  14.104   2.192
24341W        W96601  40.027   2.856   0.486
24342W        W96602  36.154  14.253  11.372
24343W        W96603  10.758  12.076   3.689
24344W        W96604  27.325   0.827   0.327
24345W        W96605  37.880   3.868  11.654
24346W        W96606  17.781  30.076  13.413
24347W        W96607   8.350  32.983   3.273
24348W        W96608   8.563  15.813  11.260
24349W        W96609   6.240  19.515   4.085
24350W        W96610  17.148  17.105  11.557
24351W        W96611  37.099  24.769  12.880
24352W        W96612  22.865  25.446   0.985
24353W        W96613   6.361  41.833   1.025
24354W        W96614  17.773  37.497   4.104
24355W        W96615  11.269  14.151   0.525
24356W        W96616  27.240  35.763  14.229
24357W        W96617  10.742  11.894   0.230
24358W        W96618   3.666  31.412  10.880
24359W        W96619  14.202  40.064   3.619
24360W        W96620  22.658  25.392  10.088
24361W        W96621  37.323   8.843   0.795
24362W        W96622   3.626  23.576   2.135
24363W        W96623  35.130  31.540   4.340
24364W        W96624  16.841  20.993   0.722
24365W        W96625  36.903  38.551  13.044
24366W        W96626  41.549  30.561   3.707
24367W        W96627  26.641  28.988  11.935
24368W        W96628   7.216  23.947  11.603
24369W        W96629   7.251  24.916  10.648
24370W        W96630  40.283  36.343  11.933
24371W        W96631  10.705  19.233   0.498
24372W        W96632   2.663  40.836  10.672
24373W        W96633  18.635  10.644  14.998
24374W        W96634  30.537   5.822   3.367
24375W        W96635  22.512  26.428  12.430
24376W        W96636  44.051   4.314  12.401
24377W        W96637  44.722  27.578  12.427
24378W        W96638   7.930   9.177   0.910
24379W        W96639  33.655  21.600  14.420
24380W        W96640  14.717  43.506  12.499
24381W        W96641   0.080  25.450  11.133
24382W        W96642  18.231   1.026   0.058
24383W        W96643  41.479  20.703   4.533
24384W        W96644  24.147  22.482   4.169
24385W        W96645  17.149   5.894   3.808
24386W        W96646  14.886   4.543   4.570
24387W        W96647   7.354  43.299   3.650
24388W        W96648  14.113  10.301  13.482
24389W        W96649   4.793  23.271  14.457
24390W        W96650  16.820  38.031  11.480
24391W        W96651   3.043   6.862   4.585
24392W        W96652   8.441  32.652  11.478
24393W        W96653  37.856  22.276   2.332
24394W        W96654  34.512  39.422  10.649
24395W        W96655   4.934  17.166  11.966
24396W        W96656  37.491  27.879  12.014
24397W        W96657  17.642  10.410   1.797
24398W        W96658  27.466  19.687  13.436
24399W        W96659   6.779  19.130   0.522
24400W        W96660   2.488   4.987  12.017
24401W        W96661  42.062  23.236  11.351
24402W        W96662  36.073  21.995  12.930
24403W        W96663  20.603  17.078  14.968
24404W        W96664  13.426  18.499  10.557
24405W        W96665  42.396   5.271  11.892
24406W        W96666  18.099  14.679  13.014
24407W        W96667  44.051  38.903   3.275
24408W        W96668  30.555  14.616   1.391
24409W        W96669  23.187  24.517   1.492
24410W        W96670  40.883  25.125  11.332
24411W        W96671  26.726  33.001   4.144
24412W        W96672  16.440  29.335   0.349
24413W        W96673   2.827  23.703   0.377
24414W        W96674  18.332  36.792   3.279
24415W        W96675  36.006  29.319   2.709
24416W        W96676   0.476   6.189   4.277
24417W        W96677  18.904  36.057  13.513
24418W        W96678  17.666  22.332   2.779
24419W        W96679  40.795  24.703  12.243
24420W        W96680  16.686  28.501  13.455
24421W        W96681  20.778  17.328  12.512
24422W        W96682  37.886  12.904  11.088
24423W        W96683  15.613  21.673  14.010
24424W        W96684  37.011  22.775   0.721
24425W        W96685  32.363  11.833   2.134
24426W        W96686   6.887  34.315  13.155
24427W        W96687  37.569  42.860  10.662
24428W        W96688  26.920  31.487   4.974
24429W        W96689  16.195  13.125  13.338
24430W        W96690  35.940  40.502   1.959
24431W        W96691   2.887  44.591  14.971
24432W        W96692  24.235  27.951   1.841
24433W        W96693  41.496  12.766  13.768
24434W        W96694  20.223  42.679   4.303
24435W        W96695  15.091  11.937  10.060
24436W        W96696  34.654   8.828   1.647
24437W        W96697  10.186  29.457  13.929
24438W        W96698  30.151   8.848  12.794
24439W        W96699  20.664  33.878   4.773
24440W        W96700  10.391   0.911  12.259
24441W        W96701  11.416   5.192   4.512
24442W        W96702  20.836  28.947   0.353
24443W        W96703   6.642  41.289   0.416
24444W        W96704  14.808   2.317   1.578
24445W        W96705  21.584  28.585   1.625
24446W        W96706  12.795  31.200  10.550
24447W        W96707  34.548  30.424  11.673
24448W        W96708  21.536  21.189   4.191
24449W        W96709  29.963  23.125  14.013
24450W        W96710  35.449  31.462   0.967
24451W        W96711   2.384  24.613  12.319
24452W        W96712  44.807  21.568   2.455
24453W        W96713  22.448  25.666   9.696
24454W        W96714  38.479  10.943  12.046
24455W        W96715   9.568  19.135   0.466
24456W        W96716   1.395  14.111  13.972
24457W        W96717  26.021  16.919  11.050
24458W        W96718  16.958  14.512   2.455
24459W        W96719   0.982   9.216  13.311
24460W        W96720   6.927  19.674   3.230
24461W        W96721  30.149  30.928  12.416
24462W        W96722  20.660  22.967   2.053
24463W        W96723  13.238  15.329   5.351
24464W        W96724  13.805  12.403  14.968
24465W        W96725  43.403  24.247   0.257
24466W        W96726   4.147  38.194   0.793
24467W        W96727  31.658   3.799   3.745
24468W        W96728  42.453  32.934   1.388
24469W        W96729   0.245  20.575   2.306
24470W        W96730   9.144   9.885  11.181
24471W        W96731  42.689  25.810   1.747
24472W        W96732  32.427  24.634  12.039
24473W        W96733  42.244   9.258   3.682
24474W        W96734  16.875  19.753   3.273
24475W        W96735  25.092  23.681  12.329
24476W        W96736   7.171  44.895   0.530
24477W        W96737   9.590  21.209  11.135
24478W        W96738  10.005  19.502  11.081
24479W        W96739  17.137  33.070  13.871
24480W        W96740  25.664  27.256  12.625
24481W        W96741  33.985  25.968  14.447
24482W        W96742  16.140  21.697   1.758
24483W        W96743   8.701  16.004   0.857
24484W        W96744  28.363  41.819  13.916
24485W        W96745   0.346   6.483  14.996
24486W        W96746  24.649  37.535   0.901
24487W        W96747  37.068   1.241   1.263
24488W        W96748  27.877  21.625  12.849
24489W        W96749  39.423  35.665  12.474
24490W        W96750   1.859  31.263   0.333
24491W        W96751   6.355   8.318  13.090
24492W        W96752  23.067  31.208   4.607
24493W        W96753   6.950  41.432   4.590
24494W        W96754   4.626  31.636  11.121
24495W        W96755  16.389   7.304   0.005
24496W        W96756  28.860  41.596   1.198
24497W        W96757   3.304  18.003   2.731
24498W        W96758  38.765  38.213   4.173
24499W        W96759   1.073  43.958  13.670
24500W        W96760  36.814  13.079  10.816
24501W        W96761   2.793   8.907   2.306
24502W        W96762   5.736   2.271   3.204
24503W        W96763   4.796   1.439  13.475
24504W        W96764  15.333   6.785   0.240
24505W        W96765   5.765  13.342  11.587
24506W        W96766  34.356  19.508  11.179
24507W        W96767  29.133   5.011  13.914
24508W        W96768  38.797   9.752  14.363
24509W        W96769  42.730   2.641  13.092
24510W        W96770  11.124   3.669  10.690
24511W        W96771   7.178  20.206  14.930
24512W        W96772  41.043  37.796  11.304
24513W        W96773  26.948   5.145  13.926
24514W        W96774  43.360  38.572  12.826
24515W        W96775  18.261  18.726   3.722
24516W        W96776  32.494  43.521   4.575
24517W        W96777  22.230   9.832   2.207
24518W        W96778  24.080  43.770  11.042
24519W        W96779  18.563   8.856   0.751
24520W        W96780  33.664  19.154   0.972
24521W        W96781  12.317  30.478   1.627
24522W        W96782  42.713  16.204  11.433
24523W        W96783  18.107   6.413   4.636
24524W        W96784  16.137  15.117  12.567
24525W        W96785  35.518  31.213  14.669
24526W        W96786  29.975  29.036   0.780
24527W        W96787  26.822   7.225  13.869
24528W        W96788  22.434  20.520   5.051
24529W        W96789   0.566  41.715  10.507
24530W        W96790  42.205  10.646   0.289
24531W        W96791  34.828  33.377   3.274
24532W        W96792  15.065  29.016   2.727
24533W        W96793  33.266  32.135   0.205
24534W        W96794   8.621  33.220   0.624
24535W        W96795  14.664  17.572   3.178
24536W        W96796  24.088  38.734   1.997
24537W        W96797   1.410  27.677   2.795
24538W        W96798  22.739  33.694   4.316
24539W        W96799   7.948  24.564   3.095
24540W        W96800  21.419   9.828  12.423
24541W        W96801  44.962   1.857   0.250
24542W        W96802   9.290   1.875  12.049
24543W        W96803  16.516  37.042  13.065
24544W        W96804  21.257  40.034  13.829
24545W        W96805  41.935  34.327  14.294
24546W        W96806  31.420   3.018   0.136
24547W        W96807  42.052  17.379   3.577
24548W        W96808  11.277   4.500  14.809
24549W        W96809   9.460  24.659  13.078
24550W        W96810   0.933   9.316  11.070
24551W        W96811  29.451  28.922   0.793
24552W        W96812  19.529  20.189   4.115
24553W        W96813  30.072  28.050   4.183
24554W        W96814   1.325  43.426  12.045
24555W        W96815  39.654  43.296  13.910
24556W        W96816  16.505  41.909  12.721
24557W        W96817  41.296  11.500   4.152
24558W        W96818   0.803  26.482  13.514
24559W        W96819  42.772  41.453   0.996
24560W        W96820  41.951   2.166   4.338
24561W        W96821  21.084   8.189  14.008
24562W        W96822   5.940  20.223   2.744
24563W        W96823   7.180  24.636  14.918
24564W        W96824  29.911   1.933  10.794
24565W        W96825  10.841  42.396   0.269
24566W        W96826  34.286   2.360  14.985
24567W        W96827  31.121  43.812  11.508
24568W        W96828  17.053  41.885  14.014
24569W        W96829  19.706  17.247   0.381
24570W        W96830   4.393  32.021  11.428
24571W        W96831  26.833  41.955  14.253
24572W        W96832  21.411  38.773   0.875
24573W        W96833  24.093  14.557  12.430
24574W        W96834  19.065  13.398   4.476
24575W        W96835  13.606  44.139  13.910
24576W        W96836  16.539  30.021   2.724
24577W        W96837  19.471  21.449   4.864
24578W        W96838  20.037  17.626   3.070
24579W        W96839  23.263  30.488  13.318
24580W        W96840  17.949   0.542  12.400
24581W        W96841  39.486  27.755   4.146
24582W        W96842   2.308  19.269  13.719
24583W        W96843  43.341   3.454  12.557
24584W        W96844  16.663  40.045   4.145
24585W        W96845   4.140  36.879  12.826
24586W        W96846  30.583  29.436   2.219
24587W        W96847   9.416   3.510   3.062
24588W        W96848  29.948   1.435  13.943
24589W        W96849  44.336  38.672   4.610
24590W        W96850  18.100  28.177  11.527
24591W        W96851  15.343  23.261   3.350
24592W        W96852  35.006  41.895   3.262
24593W        W96853  33.642  25.681  12.522
24594W        W96854  16.672  32.580   0.799
24595W        W96855  29.331  35.882  13.373
24596W        W96856  34.860  38.095   2.299
24597W        W96857  27.062   1.029   0.755
24598W        W96858   0.925   2.199  14.920
24599W        W96859  21.594   6.454   1.365
24600W        W96860  42.488  30.163  12.075
24601W        W96861  27.513   2.328   0.520
24602W        W96862  44.798  26.330   4.598
24603W        W96863   9.218  16.700  12.932
24604W        W96864  20.103  31.040   2.215
24605W        W96865  30.595  36.141   0.188
24606W        W96866  22.132  42.074  11.127
24607W        W96867  32.875   6.602   0.680
24608W        W96868  26.278   7.032  13.809
24609W        W96869  44.990  10.269   4.513
24610W        W96870  37.407  29.498  13.667
24611W        W96871  15.140   5.834  13.772
24612W        W96872  10.428  20.554  11.194
24613W        W96873  37.727  32.070   2.695
24614W        W96874   4.476  11.761  12.072
24615W        W96875  21.971  20.114   2.346
24616W        W96876  32.429  27.284  13.685
24617W        W96877   4.835  12.362  12.424
24618W        W96878  31.868  39.799  11.074
24619W        W96879  20.630  33.159  11.882
24620W        W96880  31.335  22.539  13.465
24621W        W96881  41.272  30.419   5.075
24622W        W96882  39.487  19.262  13.878
24623W        W96883  12.169   8.288  14.018
24624W        W96884   9.934  13.974   0.836
24625W        W96885  21.082   9.182  11.218
24626W        W96886  31.442  38.470  11.735
24627W        W96887  33.928  10.387  12.494
24628W        W96888  19.564  27.905   4.086
24629W        W96889  41.002  12.545   4.562
24630W        W96890  25.157  33.540  14.785
24631W        W96891   4.828  36.584  10.375
24632W        W96892  29.959  42.317  10.572
24633W        W96893  29.680  33.382   2.202
24634W        W96894  16.061  11.121  13.327
24635W        W96895  19.741   5.365  13.093
24636W        W96896  12.769  10.640   2.925
24637W        W96897   6.444  20.658   4.618
24638W        W96898  16.922  14.077   3.654
24639W        W96899  26.169  16.644   3.605
24640W        W96900   4.766  40.216  13.493
24641W        W96901  15.981   2.516  12.928
24642W        W96902   2.444  35.938   1.707
24643W        W96903  44.177  15.022   4.250
24644W        W96904  21.136  31.997   2.253
24645W        W96905  32.499   5.812   2.819
24646W        W96906  34.996  14.095   0.447
24647W        W96907  38.819  36.315  12.074
24648W        W96908  27.573   6.240   0.701
24649W        W96909  43.900  27.098   1.273
24650W        W96910   9.814  10.356  13.012
24651W        W96911  16.579   5.156   0.367
24652W        W96912   9.884   5.863   2.863
24653W        W96913  25.463  17.604   2.926
24654W        W96914   6.202  14.303   3.550
24655W        W96915   8.521  34.967   4.589
24656W        W96916  12.351   6.665   3.262
24657W        W96917  16.587  31.522  14.820
24658W        W96918  21.122  11.016  14.258
24659W        W96919   8.869  19.592  12.531
24660W        W96920  31.849   6.560   2.145
24661W        W96921  37.772  25.593  12.483
24662W        W96922  11.196  35.180   0.225
24663W        W96923  19.607  27.567   0.268
24664W        W96924  27.524  28.189  11.437
24665W        W96925   4.484  20.660   0.723
24666W        W96926  25.552  30.761   0.431
24667W        W96927  42.553  40.829   1.309
24668W        W96928  30.991   0.576   2.425
24669W        W96929  37.978   9.792   1.822
24670W        W96930  13.496  43.324   4.541
24671W        W96931  34.431   6.831  10.894
24672W        W96932  22.155   0.314  14.537
24673W        W96933  20.051  29.060  11.962
24674W        W96934  21.227  27.077  13.554
24675W        W96935  28.407   4.242   0.461
24676W        W96936  11.107   9.769   4.898
24677W        W96937  31.848   4.274  11.135
24678W        W96938  31.464  33.936  14.060
24679W        W96939  25.887   8.113   1.353
24680W        W96940  17.461  26.056  14.980
24681W        W96941   1.638  32.133  14.234
24682W        W96942  12.073  27.118  12.668
24683W        W96943  41.809  20.936   0.378
24684W        W96944  35.907  13.855  12.559
24685W        W96945   1.236  23.898   3.781
24686W        W96946   8.969  15.921   3.140
24687W        W96947   8.694  28.855   3.837
24688W        W96948  15.852  35.915   2.366
24689W        W96949  11.913  21.754   2.396
24690W        W96950  26.476  13.168   4.988
24691W        W96951  13.835  41.746   4.570
24692W        W96952  42.375  22.126   2.158
24693W        W96953  27.028  40.285   4.970
24694W        W96954  32.467   1.950   0.748
24695W        W96955  25.060  27.927   0.224
24696W        W96956  40.985  29.254  11.017
24697W        W96957   3.753   5.254  11.038
24698W        W96958  44.418  36.308   3.699
24699W        W96959  37.695  26.059   2.857
24700W        W96960  21.607  24.923  11.543
24701W        W96961  31.143  13.311   3.843
24702W        W96962   6.257  16.143   0.457
24703W        W96963  40.424  12.995  12.160
24704W        W96964  19.155  24.044  10.658
24705W        W96965   4.475  25.209  11.150
24706W        W96966  15.021  44.789  12.510
24707W        W96967  43.024  24.496  13.456
24708W        W96968  27.368  39.235   3.762
24709W        W96969   2.855  39.465  13.015
24710W        W96970  33.404  43.312   2.651
24711W        W96971  24.096   2.182  10.347
24712W        W96972  10.056  31.504   3.533
24713W        W96973   8.888   7.800  11.316
24714W        W96974  27.406  25.736  14.245
24715W        W96975  10.892  19.376  13.536
24716W        W96976   2.466  17.603  10.504
24717W        W96977  14.031  29.032  13.939
24718W        W96978  38.952  37.802  12.056
24719W        W96979  21.892  36.001  14.289
24720W        W96980  40.811  26.032  11.869
24721W        W96981  36.070  18.632  13.220
24722W        W96982  32.493  40.952   2.866
24723W        W96983   4.770   8.206  13.456
24724W        W96984   7.609  19.726  10.307
24725W        W96985  27.963  18.246   0.917
24726W        W96986  18.732  17.345   1.752
24727W        W96987  13.677  26.739  14.871
24728W        W96988  18.650  29.251  14.466
24729W        W96989  22.262  19.530  14.594
24730W        W96990  41.452  30.947  14.547
24731W        W96991   0.891  17.403   3.721
24732W        W96992   4.406  29.505   4.119
24733W        W96993  29.122  30.919   3.384
24734W        W96994  31.651   3.808  11.208
24735W        W96995   6.971  28.996  14.338
24736W        W96996  21.221  25.338  14.021
24737W        W96997  13.892  22.823   3.791
24738W        W96998  35.438  16.691   1.427
24739W        W96999   1.395  19.083   1.934
24740W        W97000  17.600  25.074  13.386
24741W        W97001   5.322  25.799   5.060
24742W        W97002   2.807  26.257   3.563
24743W        W97003  28.696  36.337  10.692
24744W        W97004   2.625  44.244   1.618
24745W        W97005  28.955  14.145   4.143
24746W        W97006   3.883  28.981  13.919
24747W        W97007  28.570   5.851  12.475
24748W        W97008  13.738  19.175  13.540
24749W        W97009   5.471   3.224   3.645
24750W        W97010  18.351   7.347   5.161
24751W        W97011  21.533  20.536   0.908
24752W        W97012   3.891   5.908  12.993
24753W        W97013  22.747  22.593   2.059
24754W        W97014  13.831   6.219   4.588
24755W        W97015  10.608  39.813  12.214
24756W        W97016   5.332  34.045   3.831
24757W        W97017  28.426  14.628   2.129
24758W        W97018  15.494   0.927   3.200
24759W        W97019  41.862  37.961  11.848
24760W        W97020   1.804  38.281  10.878
24761W        W97021  12.777  11.904  12.476
24762W        W97022  11.374  26.149  12.459
24763W        W97023  26.208  21.335   1.925
24764W        W97024  15.084  33.070   0.783
24765W        W97025  18.566  23.195  10.505
24766W        W97026  21.765   2.420   4.513
24767W        W97027  34.161  33.318   2.268
24768W        W97028  32.015   4.604   0.466
24769W        W97029  38.228  21.271   0.411
24770W        W97030  38.081  38.092  14.924
24771W        W97031  39.437  32.141   0.115
24772W        W97032  25.574  43.813   1.691
24773W        W97033  12.811  12.757   3.629
24774W        W97034  39.489  42.810   1.787
24775W        W97035  36.530  31.550   4.202
24776W        W97036  22.039   5.272   2.344
24777W        W97037  29.714  44.247   0.409
24778W        W97038  10.212  29.669   0.439
24779W        W97039  18.986  18.733   1.853
24780W        W97040  19.766  35.576   0.375
24781W        W97041  25.655   1.870  14.802
24782W        W97042  23.717  27.377  13.529
24783W        W97043  38.065  18.581  13.064
24784W        W97044  24.608  31.127   4.288
24785W        W97045  23.033  34.636   0.700
24786W        W97046  41.811  35.301  12.904
24787W        W97047  17.361   3.200   1.135
24788W        W97048  24.320  20.035  13.456
24789W        W97049  12.523  39.810   0.576
24790W        W97050  36.720  15.328  14.869
24791W        W97051   1.155  26.981  13.313
24792W        W97052   4.894   3.474  13.841
24793W        W97053  42.345  17.972   4.891
24794W        W97054  24.143  43.933  10.532
24795W        W97055  27.436  16.711   0.386
24796W        W97056  28.606  40.292  11.648
24797W        W97057  33.946   3.979   4.212
24798W        W97058  19.542  11.091  12.444
24799W        W97059  24.616   8.868   0.215
24800W        W97060   0.811  10.879  12.834
24801W        W97061  43.002  16.623  13.302
24802W        W97062   6.686  41.874   4.472
24803W        W97063  37.972  19.705  14.435
24804W        W97064   3.977  39.498  14.493
24805W        W97065  20.591  18.555  13.151
24806W        W97066  34.186  27.596  10.875
24807W        W97067   1.983  14.464  14.490
24808W        W97068  26.545  37.355   4.406
24809W        W97069  42.984  35.895  12.539
24810W        W97070  38.654  19.153  14.600
24811W        W97071  27.550  41.918  11.480
24812W        W97072  29.037  34.835  14.710
24813W        W97073  39.766  30.454   4.885
24814W        W97074  29.109  37.460   4.965
24815W        W97075  16.847  40.026  11.609
24816W        W97076  41.243   4.209  12.862
24817W        W97077  33.340  28.932  14.874
24818W        W97078  31.066   0.687   1.191
24819W        W97079  17.188  14.072   4.487
24820W        W97080  31.308  10.755   2.893
24821W        W97081  27.927  28.396  11.668
24822W        W97082  26.574  40.422   3.715
24823W        W97083  16.678   0.291  13.970
24824W        W97084  36.977  13.157   1.998
24825W        W97085  21.124  17.651   3.826
24826W        W97086  31.500  11.592  12.883
24827W        W97087  12.993  41.987   4.105
24828W        W97088  13.742   3.893  12.638
24829W        W97089  20.345  29.902  12.097
24830W        W97090   9.780  35.926  14.459
24831W        W97091  16.896   9.301   4.792
24832W        W97092   5.531   8.411  13.147
24833W        W97093  32.443  37.466   2.589
24834W        W97094  29.657  19.620   3.192
24835W        W97095  24.163  17.070   1.823
24836W        W97096  30.989  34.579   1.843
24837W        W97097  11.858   0.537   0.990
24838W        W97098  34.998   4.766  11.016
24839W        W97099   5.638   9.073   4.041
24840W        W97100  10.926  44.116  12.619
24841W        W97101  27.603   9.877   0.771
24842W        W97102  11.758  32.794   0.259
24843W        W97103  35.608  32.357  13.011
24844W        W97104  14.632  30.885  14.426
24845W        W97105  25.520  32.956   0.541
24846W        W97106  25.200  16.759   2.681
24847W        W97107  16.570  19.080  12.407
24848W        W97108  30.512  15.344   0.331
24849W        W97109  26.787  32.510  11.643
24850W        W97110  36.691  41.994   0.208
24851W        W97111  43.419  13.660   1.145
24852W        W97112  24.779  20.394   0.899
24853W        W97113  16.408   1.176  11.111
24854W        W97114  42.091  30.945   0.958
24855W        W97115   7.199  42.244  12.401
24856W        W97116  22.943   6.123   3.722
24857W        W97117  11.009  32.989  14.929
24858W        W97118  39.307  34.688   1.573
24859W        W97119  30.644   0.515  13.376
24860W        W97120  21.622  38.922   4.409
24861W        W97121  24.064  13.690   4.286
24862W        W97122   9.668  21.517  13.036
24863W        W97123  22.813  29.892   0.446
24864W        W97124  34.375  37.785  12.151
24865W        W97125  16.876   2.015  12.981
24866W        W97126   7.375  39.522   0.275
24867W        W97127  25.125  30.157  12.272
24868W        W97128  14.369  43.832   0.368
24869W        W97129  37.396  25.611   2.745
24870W        W97130  22.759  42.448   3.927
24871W        W97131  23.953  40.875   1.365
24872W        W97132  30.596  21.122   4.592
24873W        W97133  43.689  20.319  13.935
24874W        W97134  42.023  18.076  14.781
24875W        W97135  13.366  31.409   4.669
24876W        W97136  21.073  28.543   2.077
24877W        W97137  34.100  17.960  14.890
24878W        W97138   8.823  43.265  13.992
24879W        W97139  28.623  14.925  14.844
24880W        W97140  11.376  29.500  10.379
24881W        W97141  13.312  33.381  10.606
24882W        W97142  17.571  28.650   1.410
24883W        W97143  37.585   6.686   3.315
24884W        W97144   8.888   4.443  14.410
24885W        W97145  35.046   6.493   0.328
24886W        W97146  41.818  21.171  11.485
24887W        W97147  19.338   6.193  13.076
24888W        W97148  35.454   4.933   1.662
24889W        W97149  14.675  23.069   4.519
24890W        W97150   2.270  28.721  14.203
24891W        W97151  38.676  39.340  12.891
24892W        W97152   7.627  44.055  12.405
24893W        W97153   5.130  40.426   3.205
24894W        W97154   9.206  27.486   0.359
24895W        W97155  26.713  18.649   3.691
24896W        W97156  18.250  42.223   2.670
24897W        W97157  40.389  36.616   0.406
24898W        W97158  11.345  31.712  11.534
24899W        W97159   1.932  33.065   0.728
24900W        W97160  38.087  28.208  10.907
24901W        W97161  23.107  35.686  13.390
24902W        W97162  18.971   5.683  13.447
24903W        W97163   4.803  42.362  12.027
24904W        W97164  38.454  24.216   0.709
24905W        W97165  44.843  40.940  14.509
24906W        W97166  34.084  21.723   4.234
24907W        W97167  39.137  37.204   4.123
24908W        W97168  15.160  28.721  14.501
24909W        W97169   3.381  23.587  13.931
24910W        W97170   3.621   6.652  12.297
24911W        W97171  40.276  17.988  11.556
24912W        W97172  19.230  40.478   0.757
24913W        W97173   2.823  14.754   0.836
24914W        W97174  32.528  37.280   4.219
24915W        W97175  23.557  17.728   1.414
24916W        W97176   3.783  39.118  12.558
24917W        W97177  28.125  13.504   1.909
24918W        W97178  17.586  11.735   2.201
24919W        W97179  43.087  44.147   1.842
24920W        W97180  28.069  32.702  14.446
24921W        W97181   9.841  16.419   1.319
24922W        W97182  14.290  22.233   1.043
24923W        W97183  43.814  12.859   4.056
24924W        W97184   1.217  13.836   1.844
24925W        W97185   1.222   1.443   3.259
24926W        W97186  11.748  37.484  10.825
24927W        W97187  19.315  19.030   2.135
24928W        W97188   2.785   7.323   3.641
24929W        W97189  25.712  14.570   1.842
24930W        W97190  20.441  33.844  12.952
24931W        W97191  18.138  44.613   4.804
24932W        W97192  37.059  19.023  13.478
24933W        W97193  25.498   4.399   4.124
24934W        W97194  44.349  14.226   1.004
24935W        W97195   0.258  43.498  13.346
24936W        W97196  37.833  22.205   3.167
24937W        W97197   2.368  24.099   5.073
24938W        W97198   4.943  22.667   1.458
24939W        W97199  12.163  15.044   1.087
24940W        W97200   9.022  18.749  14.389
24941W        W97201  30.617  21.191   0.418
24942W        W97202  41.183   5.305   4.051
24943W        W97203  26.706  14.804   1.902
24944W        W97204  24.631  37.577   0.385
24945W        W97205  34.652  23.246  12.836
24946W        W97206  17.776  35.012   4.655
24947W        W97207   5.717  26.567   4.668
24948W        W97208  22.644  14.290   0.336
24949W        W97209  19.642  12.230  14.840
24950W        W97210  15.622  13.643   4.719
24951W        W97211  37.214  28.806  14.797
24952W        W97212  12.767  21.755  11.678
24953W        W97213  33.453  38.545   1.757
24954W        W97214   2.987   9.739  11.615
24955W        W97215  11.726  13.895  14.985
24956W        W97216  28.603   5.002   4.108
24957W        W97217   1.423  20.344  14.352
24958W        W97218   5.813  33.071   3.226
24959W        W97219  19.085   8.160   2.643
24960W        W97220  14.866  10.398   4.560
24961W        W97221  44.839   1.869  10.621
24962W        W97222   8.398  21.434   3.684
24963W        W97223  14.898  18.213  13.821
24964W        W97224  20.481  17.446   4.488
24965W        W97225   6.390  38.592  10.795
24966W        W97226  32.123  41.434   4.641
24967W        W97227  41.496  11.213   3.747
24968W        W97228  24.088  36.382  11.522
24969W        W97229  35.720   3.431   3.569
24970W        W97230  28.878  19.523   3.728
24971W        W97231  21.961  19.544   4.888
24972W        W97232  15.136  14.210   5.098
24973W        W97233  16.156  17.607   1.109
24974W        W97234  35.599  19.470   0.307
24975W        W97235  39.394  41.924   0.344
24976W        W97236   4.819  23.457  13.963
24977W        W97237   8.874  20.409  12.888
24978W        W97238  34.153  31.661  11.472
24979W        W97239  22.700  35.183  13.874
24980W        W97240  26.958  17.711   2.108
24981W        W97241  22.082  25.059   4.244
24982W        W97242   9.933   8.587  13.853
24983W        W97243  44.290  21.111  13.929
24984W        W97244  31.926  44.772  13.142
24985W        W97245   7.692  18.651   4.115
24986W        W97246  34.360   4.440  13.874
24987W        W97247   3.268   0.374   1.830
24988W        W97248  19.789  24.635  12.527
24989W        W97249  22.054  17.243  13.448
24990W        W97250  14.743  22.297   1.300
24991W        W97251  39.307  20.757   2.743
24992W        W97252   8.505  21.101   0.245
24993W        W97253  24.222  38.911  14.394
24994W        W97254  33.997  17.746   2.212
24995W        W97255  33.606  31.114  13.864
24996W        W97256  28.598  28.885   4.762
24997W        W97257  13.365  22.200  11.979
24998W        W97258  40.537   1.309  10.674
24999W        W97259  31.486  14.637   2.776
25000W        W97260  27.454  29.149   0.845
25001W        W97261  36.871  42.771   2.846
25002W        W97262   1.711  13.854   3.251
25003W        W97263  12.843  16.305  14.924
25004W        W97264  36.552   5.810  10.760
25005W        W97265  28.094  17.758  14.421
25006W        W97266  20.719   3.317   5.021
25007W        W97267  43.811  15.574  11.704
25008W        W97268   3.220  23.084  12.305
25009W        W97269  26.719  11.103  12.110
25010W        W97270  16.135  24.189  11.195
25011W        W97271  35.045  32.546   3.505
25012W        W97272   7.376   2.464  11.197
25013W        W97273   3.338  12.732   3.794
25014W        W97274   1.429  41.794   1.923
25015W        W97275   0.251  21.335   2.627
25016W        W97276   9.219  37.152  12.507
25017W        W97277   9.764  23.939  13.494
25018W        W97278   9.159  10.879  12.866
25019W        W97279   1.980   8.606  11.213
25020W        W97280   9.627  40.215  13.371
25021W        W97281   2.258  22.950   1.779
25022W        W97282  14.041   0.190   0.572
25023W        W97283   2.831  40.413  14.199
25024W        W97284  15.342  19.681  13.729
25025W        W97285  26.942   5.288   0.447
25026W        W97286  24.943   0.473  12.110
25027W        W97287  38.453  23.483  14.817
25028W        W97288  28.765   9.060   2.649
25029W        W97289  18.551  13.282   4.575
25030W        W97290  18.186  27.527  14.237
25031W        W97291  43.004  23.168   3.185
25032W        W97292   7.242  17.549   3.721
25033W        W97293  17.037  34.156  14.812
25034W        W97294  41.646  34.114   0.870
25035W        W97295  18.262  27.666   2.314
25036W        W97296  10.194  38.786   1.358
25037W        W97297  44.366  13.474   2.195
25038W        W97298  32.647  41.192   0.366
25039W        W97299   6.925  21.524  14.484
25040W        W97300  44.891   3.712   4.892
25041W        W97301  30.141  37.594   0.910
25042W        W97302   6.777   1.213   3.672
25043W        W97303   2.717  25.092   0.977
25044W        W97304  24.034  17.198   4.011
25045W        W97305  38.424  17.783   3.179
25046W        W97306  35.935  20.799  11.423
25047W        W97307  22.979   6.441  12.976
25048W        W97308  19.768  35.527  13.978
25049W        W97309   4.346  43.463  11.092
25050W        W97310  44.376  39.433   2.297
25051W        W97311   0.790  39.775   0.406
25052W        W97312  35.594   2.646  11.615
25053W        W97313  24.975  33.513  13.481
25054W        W97314  25.136  10.809  11.987
25055W        W97315  41.907  14.336   0.252
25056W        W97316  24.183  22.998   4.136
25057W        W97317  10.157  32.251  13.671
25058W        W97318  18.786  32.001  14.773
25059W        W97319  19.716  26.636  13.893
25060W        W97320  10.257  38.060  11.383
25061W        W97321   0.819   2.319  10.420
25062W        W97322  14.125  38.510   0.787
25063W        W97323  30.895  10.085  12.361
25064W        W97324  28.686  25.250  14.245
25065W        W97325   5.373  12.303   2.371
25066W        W97326   4.670  34.665   2.879
25067W        W97327  17.503   3.769  11.409
25068W        W97328  29.467  36.319  12.373
25069W        W97329  27.570  11.582  13.503
25070W        W97330  35.484   3.475   5.015
25071W        W97331  13.669  24.031   3.560
25072W        W97332  23.642  41.088   0.415
25073W        W97333  30.713  17.166  14.824
25074W        W97334  13.646  31.467  10.924
25075W        W97335   8.309  13.749   4.734
25076W        W97336  18.143   3.854   1.912
25077W        W97337  12.676   9.344  13.772
25078W        W97338  15.682  44.868   3.237
25079W        W97339  41.274   2.969  10.736
25080W        W97340  20.238  13.531   4.196
25081W        W97341  44.407   1.351   1.010
25082W        W97342  13.755   3.837  13.603
25083W        W97343  34.919  42.986  10.753
25084W        W97344  25.505   4.612   2.354
25085W        W97345  14.273   6.258  13.906
25086W        W97346  18.731  33.822   0.695
25087W        W97347   8.129  26.315   1.391
25088W        W97348  34.515   3.148   3.602
25089W        W97349  10.243   3.334   3.358
25090W        W97350  19.248  12.196   2.769
25091W        W97351  18.724  38.375   2.380
25092W        W97352  29.541   6.931  13.503
25093W        W97353  39.712  19.149  11.152
25094W        W97354  29.167  41.992   1.060
25095W        W97355  20.105   8.874   0.233
25096W        W97356  12.619  22.150   1.227
25097W        W97357   5.186  30.629   4.264
25098W        W97358   9.940   3.589   0.390
25099W        W97359  23.602  40.045  10.853
25100W        W97360  31.589  12.648   2.708
25101W        W97361  10.224  37.350  13.063
25102W        W97362   8.155  15.675   1.392
25103W        W97363  20.720  41.773   3.117
25104W        W97364   6.476   6.521  11.929
25105W        W97365  20.236  22.997   1.419
25106W        W97366  39.823  12.349   1.343
25107W        W97367   9.303  39.073  14.770
25108W        W97368  20.006  35.114  10.571
25109W        W97369   1.541   7.633   0.777
25110W        W97370  21.989  23.827  13.452
25111W        W97371  37.424  38.108   1.213
25112W        W97372   2.001  25.695   3.175
25113W        W97373  42.328   0.339  11.273
25114W        W97374  30.979   3.943   1.567
25115W        W97375   5.299   3.898   4.592
25116W        W97376  26.517   0.545   4.252
25117W        W97377  43.802  22.599   1.428
25118W        W97378   6.583  28.163  10.208
25119W        W97379  30.157  32.587  11.981
25120W        W97380   6.800  20.095   0.916
25121W        W97381  20.586  26.615  14.585
25122W        W97382   4.613  19.654   4.180
25123W        W97383   8.219  11.915  14.561
25124W        W97384  28.190  42.571  14.406
25125W        W97385  32.876  36.760   1.705
25126W        W97386  22.789  15.300   1.702
25127W        W97387  42.394   8.287   1.535
25128W        W97388  44.812  25.602  10.714
25129W        W97389  41.623  30.849  13.649
25130W        W97390  18.593  42.762  13.731
25131W        W97391  16.927  24.970  11.635
25132W        W97392   0.360  42.581  11.473
25133W        W97393  21.978  39.692   0.206
25134W        W97394  24.671   2.843  10.501
25135W        W97395  15.309   9.445  14.427
25136W        W97396   9.178  40.805   0.669
25137W        W97397   7.155  25.105  14.694
25138W        W97398   6.475  43.823   2.357
25139W        W97399   6.402  12.347   0.784
25140W        W97400   7.685  24.037  10.648
25141W        W97401  23.484  15.689   2.526
25142W        W97402   9.775  29.901   3.158
25143W        W97403   9.836  43.145  11.920
25144W        W97404  36.971  17.822   1.820
25145W        W97405   1.733  33.988  13.388
25146W        W97406  36.446  32.807   1.869
25147W        W97407  31.376  31.108   1.676
25148W        W97408  24.056   8.920   1.449
25149W        W97409   4.459  18.731  14.756
25150W        W97410   2.219  26.580  10.156
25151W        W97411  12.883  39.928   1.640
25152W        W97412   0.285  21.326   0.167
25153W        W97413  39.971   6.693   1.409
25154W        W97414  10.636  19.893  10.739
25155W        W97415  20.611   0.769   4.808
25156W        W97416  44.008  31.919  11.947
25157W        W97417  22.035  22.496  13.347
25158W        W97418   0.270  33.945   2.141
25159W        W97419   2.676  42.319  11.092
25160W        W97420  30.641  38.638   1.276
25161W        W97421  32.928   5.439  13.585
25162W        W97422   4.237   3.629   2.794
25163W        W97423  40.494   1.947   2.430
25164W        W97424  36.634  43.701  14.757
25165W        W97425   6.730   3.758   0.004
25166W        W97426  13.647  11.358  12.542
25167W        W97427   6.904   8.043  13.804
25168W        W97428  34.917  19.918  12.403
25169W        W97429  13.958  28.921  12.116
25170W        W97430  41.521   2.350   1.539
25171W        W97431  31.507   0.226   3.710
25172W        W97432  37.028  12.731  10.478
25173W        W97433  23.995  15.401   3.815
25174W        W97434  24.056  12.331  12.108
25175W        W97435   5.917  12.809  10.726
25176W        W97436  19.304   2.021   4.653
25177W        W97437  16.004  14.666  12.310
25178W        W97438  39.934  20.223  13.267
25179W        W97439  14.658  26.554   3.392
25180W        W97440  22.185  37.997  13.112
25181W        W97441  32.120  17.390  11.160
25182W        W97442  22.752  13.315  14.055
25183W        W97443  15.692  27.659  10.834
25184W        W97444   2.979  21.943  14.589
25185W        W97445  24.557   0.335  14.899
25186W        W97446  28.642  32.724   4.140
25187W        W97447  17.773  35.110   2.133
25188W        W97448  19.315  35.309  14.049
25189W        W97449   9.612  18.597   0.765
25190W        W97450  21.749  18.855   3.562
25191W        W97451  42.314  42.936  12.459
25192W        W97452  15.054  16.886   4.879
25193W        W97453  17.918  33.207  10.513
25194W        W97454   2.055  27.446   4.429
25195W        W97455  41.334   1.544   0.896
25196W        W97456   7.235  10.867   3.256
25197W        W97457  43.455  22.202  11.365
25198W        W97458  16.417  13.679   4.220
25199W        W97459  26.938  22.384   2.382
25200W        W97460  24.570   7.810   4.789
25201W        W97461  12.134  35.671   0.416
25202W        W97462   8.303  33.797  14.834
25203W        W97463   0.997  13.713   0.433
25204W        W97464  21.626  43.432   1.313
25205W        W97465  31.733   2.881  12.628
25206W        W97466  25.069  39.905   5.203
25207W        W97467   1.048  24.594   0.231
25208W        W97468  16.012  34.050   3.665
25209W        W97469  26.914  43.187   3.247
25210W        W97470  30.214   9.612  11.428
25211W        W97471  40.488   9.356   1.359
25212W        W97472   6.142  41.881   3.773
25213W        W97473  29.941  37.577  12.699
25214W        W97474  33.126   4.178   2.867
25215W        W97475   7.929  11.346  13.963
25216W        W97476  40.533  32.944   4.666
25217W        W97477  43.344  18.313  12.826
25218W        W97478  23.555  41.605   1.923
25219W        W97479  31.722  13.042  13.863
25220W        W97480  14.282   6.471   1.427
25221W        W97481   1.332  35.354   4.535
25222W        W97482  16.739  24.124   2.843
25223W        W97483  34.116  19.248   2.741
25224W        W97484  31.180  32.022  12.517
25225W        W97485  37.956   8.392   4.862
25226W        W97486  16.878  16.394  13.923
25227W        W97487  21.531  26.222   2.760
25228W        W97488  22.619  25.943   0.912
25229W        W97489  27.923  15.788  14.542
25230W        W97490  39.540   9.306  14.146
25231W        W97491   5.031   0.906   4.320
25232W        W97492  44.023  38.241   4.825
25233W        W97493  43.124   2.425   2.285
25234W        W97494  12.956  21.034  10.361
25235W        W97495  18.448  24.582  13.022
25236W        W97496  41.075  22.744   1.700
25237W        W97497  40.290  28.279  11.430
25238W        W97498  11.192  23.170   1.365
25239W        W97499  28.314  32.096   0.337
25240W        W97500   6.456  41.464  10.970
25241W        W97501  14.617   1.313  12.533
25242W        W97502  14.594  19.029  13.385
25243W        W97503   7.628  42.539  12.484
25244W        W97504  10.754  32.541   0.003
25245W        W97505  13.629   5.418  13.068
25246W        W97506   4.867  41.110   1.135
25247W        W97507  33.663   6.495  11.531
25248W        W97508   6.744   1.231  12.723
25249W        W97509  26.990   5.995  12.536
25250W        W97510  27.877  40.383   0.326
25251W        W97511  32.380  23.784  12.789
25252W        W97512  38.389   7.372  13.222
25253W        W97513  17.866  11.405   1.787
25254W        W97514  36.936   3.610  11.093
25255W        W97515  37.444  29.124   1.661
25256W        W97516  15.657  11.781   2.249
25257W        W97517   7.692  33.393   0.518
25258W        W97518  20.602  10.962   4.595
25259W        W97519  10.384  35.439  11.973
25260W        W97520  40.020   8.697   4.155
25261W        W97521  20.957   1.033  14.449
25262W        W97522  31.962   6.477   4.696
25263W        W97523   8.162  11.340  12.886
25264W        W97524  19.233  12.818   4.376
25265W        W97525  35.473  16.305  12.233
25266W        W97526  24.251  43.329   2.155
25267W        W97527  41.679   5.208   4.126
25268W        W97528   6.685  37.360  11.457
25269W        W97529  10.149  15.812  12.325
25270W        W97530  18.570  44.342   3.430
25271W        W97531  13.147   0.548   4.937
25272W        W97532   5.721  31.514  12.410
25273W        W97533  44.802  20.439   2.660
25274W        W97534   5.672  34.860  11.908
25275W        W97535  11.720  38.531   0.947
25276W        W97536   4.963  25.988   1.450
25277W        W97537   0.325  36.836   2.853
25278W        W97538   1.528  14.246   1.724
25279W        W97539  37.098   4.413  14.428
25280W        W97540  31.166  40.384  10.926
25281W        W97541  27.865  11.155   1.799
25282W        W97542  36.272   2.172   2.811
25283W        W97543  44.416  38.570   3.573
25284W        W97544  16.057   8.173   0.970
25285W        W97545  34.494  12.204   4.692
25286W        W97546  21.160  44.931   2.238
25287W        W97547   5.950   3.854  12.468
25288W        W97548  25.937  14.834   1.395
25289W        W97549  14.350  30.931  12.342
25290W        W97550  25.982   2.373  13.796
25291W        W97551   8.748  42.435   1.248
25292W        W97552  24.430  27.037  12.400
25293W        W97553   4.005   7.820  12.323
25294W        W97554  33.230  33.681   4.134
25295W        W97555  14.748  37.364  11.899
25296W        W97556  20.046  33.102   4.493
25297W        W97557  40.345  36.836  12.065
25298W        W97558  22.464  37.754  12.205
25299W        W97559   4.411  37.988   4.156
25300W        W97560   2.731   5.415  12.168
25301W        W97561  11.629  39.585   3.404
25302W        W97562  22.943  32.516   0.344
25303W        W97563  22.185  23.643   2.438
25304W        W97564  31.620  37.475  11.057
25305W        W97565  33.197   4.683   3.734
25306W        W97566   7.998  37.571   2.592
25307W        W97567  18.551   7.342  13.116
25308W        W97568   3.832   6.788  10.448
25309W        W97569   0.268  17.735   2.345
25310W        W97570  44.503  29.185  14.389
25311W        W97571   5.947  14.070  14.415
25312W        W97572   4.348  14.814  12.013
25313W        W97573  32.922  34.129  12.571
25314W        W97574  16.802  11.394   3.247
25315W        W97575   3.880  18.009  13.744
25316W        W97576  27.071  36.758  14.333
25317W        W97577  25.762  37.680   1.866
25318W        W97578  13.547  16.276  11.554
25319W        W97579  11.262  16.593   0.902
25320W        W97580  25.197   9.344  11.175
25321W        W97581  14.610   5.708   0.427
25322W        W97582  24.115  15.300  12.582
25323W        W97583  44.812   1.579  13.415
25324W        W97584  14.299  42.065   0.838
25325W        W97585  25.646   3.401  13.771
25326W        W97586  22.651  31.541   3.121
25327W        W97587  31.601  30.934   5.281
25328W        W97588  10.908  14.949   0.509
25329W        W97589   7.889  30.556   1.805
25330W        W97590  13.225  33.455   3.649
25331W        W97591   0.078  10.671   1.281
25332W        W97592  29.616   8.708   1.749
25333W        W97593  27.604  31.395  11.088
25334W        W97594   1.981  12.369   4.534
25335W        W97595  34.342  18.865   0.393
25336W        W97596  16.414  24.469  12.462
25337W        W97597  22.152  32.038  11.862
25338W        W97598  31.589  38.408   1.498
25339W        W97599  14.338  12.175  13.446
25340W        W97600  44.443  17.571  11.085
25341W        W97601  38.582  37.339   3.245
25342W        W97602  28.835  35.521   1.941
25343W        W97603  18.102  33.683   0.078
25344W        W97604  17.664  34.474   3.297
25345W        W97605  16.215  38.437   2.788
25346W        W97606  39.898  31.435  12.070
25347W        W97607   8.842  10.995  13.806
25348W        W97608  42.450   1.416   4.103
25349W        W97609   5.040  34.523  13.481
25350W        W97610  12.023  36.165   3.865
25351W        W97611  36.576  33.191  12.376
25352W        W97612   8.716  29.397  13.033
25353W        W97613  18.626  29.434  11.557
25354W        W97614  33.585  20.639  11.498
25355W        W97615   9.427  20.383  11.185
25356W        W97616  21.051  23.734   2.796
25357W        W97617  38.106  18.177  10.882
25358W        W97618  38.432   0.821  10.381
25359W        W97619  19.928   5.678  12.329
25360W        W97620  19.446  13.751  13.479
25361W        W97621  32.438  25.479  12.963
25362W        W97622  10.566  18.133   5.165
25363W        W97623  42.833   9.314   0.887
25364W        W97624  13.323  28.019  14.704
25365W        W97625  17.586   8.783  10.711
25366W        W97626  31.819  29.173   3.097
25367W        W97627   9.644   7.087  14.490
25368W        W97628   5.044  38.965  11.872
25369W        W97629  42.723   8.797  13.811
25370W        W97630  24.644  33.463  14.856
25371W        W97631   8.473  21.629   2.791
25372W        W97632   8.703  41.971  10.647
25373W        W97633   9.862  42.331  12.031
25374W        W97634  18.694  22.469  14.275
25375W        W97635  37.077  29.534   0.351
25376W        W97636   9.343  44.931  11.384
25377W        W97637  41.406  39.141  10.670
25378W        W97638  35.980   9.028  14.799
25379W        W97639  32.870  37.868  12.497
25380W        W97640  29.511  12.624   2.152
25381W        W97641   9.924   1.395  14.768
25382W        W97642  31.602  35.535   1.592
25383W        W97643   3.677  26.376   1.812
25384W        W97644  22.580  13.294  13.569
25385W        W97645  26.594   1.807   4.929
25386W        W97646  28.878  25.238  13.393
25387W        W97647  30.961  29.980  14.993
25388W        W97648  41.131  34.860   1.876
25389W        W97649  26.590  43.961   4.682
25390W        W97650  32.875  40.377   4.242
25391W        W97651  34.859  11.180   1.193
25392W        W97652   8.964  33.534  12.952
25393W        W97653  26.082  42.174   3.253
25394W        W97654  28.086  31.422   4.114
25395W        W97655  35.725  20.694   5.560
25396W        W97656  23.069  18.308   1.784
25397W        W97657  37.964   4.559  13.039
25398W        W97658  36.815  33.198   1.797
25399W        W97659   0.643  18.027   0.750
25400W        W97660  43.573   9.196   3.258
25401W        W97661   7.977  25.752  13.451
25402W        W97662  34.992  14.310  11.430
25403W        W97663   2.680  29.114   3.270
25404W        W97664  23.772   5.316   0.741
25405W        W97665  31.963  17.580   1.156
25406W        W97666  38.438  36.309  12.872
25407W        W97667  13.966   3.410  13.419
25408W        W97668   2.106   4.427   0.334
25409W        W97669  26.218   3.203   2.180
25410W        W97670  26.526  14.122   4.991
25411W        W97671  33.479  36.830  13.529
25412W        W97672  15.625  27.612  14.955
25413W        W97673  26.404  21.833  12.435
25414W        W97674  41.832  22.915   2.416
25415W        W97675  27.894  13.626   2.885
25416W        W97676  37.928   5.240  11.684
25417W        W97677  25.654   6.216  13.479
25418W        W97678   0.793  43.788  10.744
25419W        W97679  10.438  38.898  13.242
25420W        W97680   3.942  38.536  10.670
25421W        W97681   5.287  40.643  11.518
25422W        W97682  37.636   7.310  10.285
25423W        W97683  12.666  19.509  11.963
25424W        W97684   4.312  41.531  13.163
25425W        W97685  20.720  34.077  12.560
25426W        W97686   0.132   4.978  11.226
25427W        W97687  41.931  39.075  10.942
25428W        W97688  40.756  13.118   4.318
25429W        W97689   9.799  37.594  11.734
25430W        W97690  35.104  26.657  12.978
25431W        W97691   9.693   3.683   3.558
25432W        W97692  11.680  15.119   4.152
25433W        W97693   2.999  15.372  12.080
25434W        W97694   2.268  29.898   4.496
25435W        W97695  44.874  12.214  14.731
25436W        W97696  32.433  41.479   2.791
25437W        W97697  39.116  21.853  11.117
25438W        W97698  43.878  11.843   1.668
25439W        W97699  12.181  44.422   1.331
25440W        W97700  30.968  16.260   4.104
25441W        W97701  23.055  32.982  10.604
25442W        W97702  32.864  41.822   1.144
25443W        W97703   9.083  19.755  10.656
25444W        W97704   8.933  39.404  12.693
25445W        W97705  34.878   4.526  12.610
25446W        W97706  25.312  44.327  11.182
25447W        W97707  40.811  31.464   2.218
25448W        W97708  43.756   1.672  12.397
25449W        W97709  30.570  21.736  12.857
25450W        W97710  17.128  43.524   2.129
25451W        W97711  26.472  11.861   0.969
25452W        W97712  21.077  40.787   3.658
25453W        W97713  30.886   6.352   1.763
25454W        W97714  14.321  17.446  11.307
25455W        W97715  35.261  11.821   0.570
25456W        W97716   0.963  17.346   5.127
25457W        W97717  17.990   5.788  10.582
25458W        W97718   8.432  27.529   2.212
25459W        W97719  10.781  36.010   3.105
25460W        W97720  11.540  22.467  10.628
25461W        W97721   0.097  31.155   3.114
25462W        W97722  20.000  44.733   2.226
25463W        W97723  24.906  42.863   3.582
25464W        W97724   9.107  38.834   0.200
25465W        W97725  38.944  18.750  12.379
25466W        W97726  11.950  18.195  13.957
25467W        W97727   7.260  37.378  11.488
25468W        W97728  22.485  15.844  13.504
25469W        W97729  13.830  30.429  12.030
25470W        W97730  15.281  16.011  14.773
25471W        W97731  18.057  16.615   4.770
25472W        W97732   5.627  27.567   1.625
25473W        W97733   1.970  36.101   4.563
25474W        W97734  33.066  19.544  14.234
25475W        W97735  37.156  14.313  11.922
25476W        W97736  43.905   7.335  14.414
25477W        W97737  36.849  44.862   1.177
25478W        W97738  13.547  11.192   2.676
25479W        W97739  31.132  15.645   4.627
25480W        W97740  33.542  29.111  10.503
25481W        W97741  43.999  42.047   1.103
25482W        W97742  40.812  37.101  12.087
25483W        W97743  35.132  31.392   3.304
25484W        W97744  17.718  25.688   3.461
25485W        W97745  14.144  32.043   0.791
25486W        W97746   2.238  11.153   3.270
25487W        W97747  42.635  36.853  11.670
25488W        W97748  43.173   8.967   2.208
25489W        W97749  22.587  32.683   4.538
25490W        W97750  15.780  11.945   3.185
25491W        W97751   0.994  14.269  12.511
25492W        W97752   3.322   7.330  12.066
25493W        W97753  27.642  40.055   3.812
25494W        W97754  34.046  13.746  12.719
25495W        W97755  34.224  40.039   3.628
25496W        W97756  11.038  25.894   1.767
25497W        W97757  43.895  37.503   0.493
25498W        W97758   2.401  30.439  13.880
25499W        W97759   5.714   1.010   1.791
25500W        W97760  16.218   9.185   0.312
25501W        W97761  36.804  39.067  11.571
25502W        W97762  19.825   1.768   0.353
25503W        W97763   3.325  25.438   2.449
25504W        W97764   7.970   6.449   0.837
25505W        W97765  38.520  29.509  10.537
25506W        W97766  30.269   5.349   1.040
25507W        W97767  44.697  37.540  14.273
25508W        W97768  15.961  14.494  14.506
25509W        W97769   3.994  26.869   4.527
25510W        W97770  18.129  17.593  11.568
25511W        W97771  40.990  31.560  13.503
25512W        W97772  21.106  18.803   4.198
25513W        W97773  26.547  13.378   2.670
25514W        W97774  16.793  42.318  11.950
25515W        W97775  30.885   5.946  11.644
25516W        W97776   0.283  37.338  13.775
25517W        W97777  36.500   7.828   4.123
25518W        W97778  14.735   6.976  11.231
25519W        W97779  37.778   3.655  10.718
25520W        W97780  10.461  39.806   4.554
25521W        W97781  16.358  34.434  13.361
25522W        W97782  32.922   8.805   0.070
25523W        W97783  37.079  29.696   2.778
25524W        W97784   1.636  24.383   3.767
25525W        W97785  29.386  17.689  14.946
25526W        W97786  30.540   9.751  12.168
25527W        W97787  29.990   9.133   3.071
25528W        W97788  26.984  30.447  12.414
25529W        W97789  27.088  36.998  12.970
25530W        W97790  20.980  41.952   4.041
25531W        W97791   2.064  32.120   4.131
25532W        W97792   4.331   0.930   3.279
25533W        W97793   7.917  14.685  14.478
25534W        W97794   2.507   7.611   4.151
25535W        W97795   2.875  32.706  13.866
25536W        W97796  13.607  41.998  13.365
25537W        W97797  13.734  11.766   3.221
25538W        W97798  21.739  30.561   5.094
25539W        W97799   2.720   8.304   1.371
25540W        W97800  44.883  21.134  14.557
25541W        W97801  17.283  24.890   1.246
25542W        W97802  34.547  20.547   1.834
25543W        W97803  40.961  23.689  12.062
25544W        W97804  11.086   5.883   4.815
25545W        W97805  29.593  28.917   3.238
25546W        W97806  34.205  39.807  14.467
25547W        W97807  19.194  28.041  13.048
25548W        W97808  44.248  14.289   0.005
25549W        W97809  29.266  18.371   3.251
25550W        W97810  22.667  17.609   2.799
25551W        W97811  25.931   2.716   0.259
25552W        W97812   4.889  28.968  11.241
25553W        W97813  36.949  23.247  13.505
25554W        W97814  41.891  31.670  11.519
25555W        W97815  39.577   6.247  10.953
25556W        W97816  21.721  39.092   2.276
25557W        W97817  20.249  21.057   2.773
25558W        W97818  20.015   0.429   4.898
25559W        W97819  17.663  24.830  11.232
25560W        W97820  11.141   4.366  13.372
25561W        W97821  16.641  40.969   2.230
25562W        W97822  44.816   6.348   1.071
25563W        W97823  41.090  28.067   0.729
25564W        W97824  16.011  37.327   2.370
25565W        W97825  34.434  28.328   3.716
25566W        W97826  39.239  19.673   3.215
25567W        W97827  30.666   8.349   0.955
25568W        W97828  43.856   8.222  11.629
25569W        W97829  39.456  28.548   2.359
25570W        W97830  30.058  13.806  13.113
25571W        W97831  40.380   8.260  14.884
25572W        W97832  31.350   9.819   1.319
25573W        W97833   7.975  25.655   3.093
25574W        W97834  31.856  43.411   4.691
25575W        W97835  16.121  24.992   3.671
25576W        W97836  13.020  37.427  10.302
25577W        W97837  15.593  14.024   9.826
25578W        W97838   9.866  20.057   1.403
25579W        W97839  27.496  27.906   1.035
25580W        W97840  21.902  32.627   0.414
25581W        W97841  28.984  24.256   2.776
25582W        W97842  31.446  43.056   0.582
25583W        W97843  17.118  11.147   2.930
25584W        W97844  43.049   0.561   1.839
25585W        W97845  10.279  21.298   0.399
25586W        W97846  34.990   7.274   2.190
25587W        W97847   2.294  31.614  11.061
25588W        W97848  20.791  17.842   0.632
25589W        W97849  29.260  18.128  11.466
25590W        W97850  37.805  16.132  14.830
25591W        W97851  10.381   2.493  11.952
25592W        W97852  44.129  19.661   4.087
25593W        W97853  10.149  11.932   2.331
25594W        W97854  20.024  44.686   0.010
25595W        W97855  18.717  25.570   1.346
25596W        W97856  40.682   5.223  11.422
25597W        W97857   1.786   1.699   3.718
25598W        W97858  17.025  18.270  12.662
25599W        W97859  42.019  12.366   2.520
25600W        W97860   5.425  15.124   2.455
25601W        W97861  43.847  28.686   2.231
25602W        W97862  15.825  23.946   0.708
25603W        W97863  11.254  20.233   0.573
25604W        W97864  40.423  14.928  14.517
25605W        W97865  26.093  17.055   1.211
25606W        W97866  16.295   0.905  11.532
25607W        W97867  15.168  13.879   1.927
25608W        W97868   7.900  25.439  10.943
25609W        W97869   5.805  33.685  14.380
25610W        W97870  29.745  18.023  13.995
25611W        W97871   3.479   9.876  11.597
25612W        W97872  20.513  11.368  10.713
25613W        W97873  34.928  39.496   0.887
25614W        W97874  42.903  10.906   2.572
25615W        W97875  13.865   3.141   1.216
25616W        W97876  23.122  21.060  12.928
25617W        W97877  12.056   6.420   2.867
25618W        W97878  31.590  10.310  13.436
25619W        W97879  17.344  32.119   2.312
25620W        W97880  38.633  29.369   3.797
25621W        W97881  30.424  14.239  13.478
25622W        W97882  10.661   3.988  12.020
25623W        W97883  12.467  11.590  12.892
25624W        W97884  29.054  32.613   3.833
25625W        W97885  13.213  41.636   1.926
25626W        W97886  41.168   7.395   3.747
25627W        W97887  26.461  19.476   4.220
25628W        W97888  12.930  10.177  12.911
25629W        W97889  12.363   1.109  12.613
25630W        W97890  41.518  13.077  13.034
25631W        W97891   0.652   9.655  14.035
25632W        W97892  39.136   0.249   0.602
25633W        W97893  20.601  43.217   0.971
25634W        W97894   2.292   4.670   2.776
25635W        W97895  33.628  42.439   4.197
25636W        W97896   1.886  43.323  12.078
25637W        W97897   9.427  20.271   0.438
25638W        W97898  39.295  15.233   4.186
25639W        W97899  43.690  42.706  11.125
25640W        W97900  12.022  24.994  12.399
25641W        W97901  35.810   6.365   4.877
25642W        W97902  17.130  42.519  12.421
25643W        W97903  28.950   2.444   3.463
25644W        W97904  34.936  17.606  13.956
25645W        W97905  38.993  17.755  14.418
25646W        W97906   7.474  32.323  13.877
25647W        W97907  17.661  14.313   4.371
25648W        W97908   8.671  26.030  10.985
25649W        W97909  19.344  28.546  13.029
25650W        W97910  29.893  25.674   0.884
25651W        W97911  44.187  14.519   4.343
25652W        W97912  44.365   4.283   3.253
25653W        W97913  31.709  32.079  14.865
25654W        W97914  25.795  16.901   2.376
25655W        W97915  32.631  13.935   4.892
25656W        W97916  26.267   1.747  10.656
25657W        W97917   3.512  10.508   0.987
25658W        W97918  25.657  44.398   2.369
25659W        W97919  12.823  35.416  14.053
25660W        W97920  27.597   3.940  14.353
25661W        W97921  39.916  13.219   3.340
25662W        W97922  37.348  15.974   0.020
25663W        W97923  31.709   0.022   1.930
25664W        W97924  15.118  44.564  11.217
25665W        W97925  37.297  26.001  14.981
25666W        W97926  10.182  43.792  12.928
25667W        W97927  23.789  20.670   1.077
25668W        W97928  23.643  42.435   0.231
25669W        W97929   3.280  25.874   4.105
25670W        W97930  30.472  23.915  12.499
25671W        W97931  20.657  42.924   4.157
25672W        W97932  29.437  12.431  11.157
25673W        W97933  28.021  10.240  10.467
25674W        W97934   1.789  10.726   3.793
25675W        W97935   1.330  42.325   1.972
25676W        W97936  44.252  43.846   0.236
25677W        W97937   3.661  16.852  10.770
25678W        W97938   6.372  16.234  13.978
25679W        W97939  39.365  39.636  14.961
25680W        W97940   3.902  33.332  13.806
25681W        W97941  15.596  42.808  10.752
25682W        W97942  11.358  33.602  13.012
25683W        W97943  30.917  27.404   4.149
25684W        W97944  43.989   6.853   1.896
25685W        W97945   3.839  42.089   0.202
25686W        W97946  11.562  31.160  14.433
25687W        W97947  17.568  13.717  12.199
25688W        W97948  19.302   2.321  12.243
25689W        W97949  19.245  21.537  13.593
25690W        W97950  43.878  25.124  13.954
25691W        W97951  15.119  31.609   2.695
25692W        W97952  13.165  20.253   4.417
25693W        W97953  17.112  38.014   4.747
25694W        W97954  24.208  16.175   2.183
25695W        W97955  11.649  20.102  12.862
25696W        W97956  43.557  17.686   1.371
25697W        W97957  23.481  30.644  11.079
25698W        W97958  28.262  25.513  14.994
25699W        W97959   2.683   4.309   2.029
25700W        W97960   8.277  28.589  12.876
25701W        W97961   5.761   2.301   0.457
25702W        W97962  21.416  15.520  12.412
25703W        W97963  17.093  23.188  13.387
25704W        W97964   5.335  20.059  14.517
25705W        W97965  16.156  38.232   1.297
25706W        W97966  24.567  27.657   4.283
25707W        W97967  39.278  17.345  10.729
25708W        W97968   6.099   8.858   4.137
25709W        W97969  26.969  23.155  13.368
25710W        W97970   8.523  26.343   2.771
25711W        W97971  44.949   2.692   1.933
25712W        W97972  17.229  12.419  13.557
25713W        W97973   9.641   9.632   3.759
25714W        W97974   7.460  25.126   3.758
25715W        W97975   7.073   3.352  11.557
25716W        W97976  31.556  35.786   0.339
25717W        W97977  33.605  25.194   2.179
25718W        W97978  20.581  19.557   9.979
25719W        W97979  19.144  23.241  14.449
25720W        W97980   5.198  11.840  14.743
25721W        W97981  20.281  32.654   3.611
25722W        W97982  15.807  38.792  12.347
25723W        W97983  18.178  17.483   4.941
25724W        W97984  34.591  10.866  12.901
25725W        W97985  13.020  26.087   3.572
25726W        W97986  24.167  15.900  14.585
25727W        W97987  22.279  29.038  13.778
25728W        W97988  42.306  38.428   3.496
25729W        W97989  29.346  27.079   3.751
25730W        W97990  28.188  33.451   2.450
25731W        W97991   5.424  30.616   0.381
25732W        W97992  32.346  12.106   2.566
25733W        W97993  27.526  10.779   4.875
25734W        W97994  27.867  30.459   1.764
25735W        W97995   7.295   6.304  13.191
25736W        W97996  30.324   8.377   1.343
25737W        W97997  26.427  13.739   0.529
25738W        W97998  42.276  10.266  11.930
25739W        W97999   5.899  19.651  11.640
25740W        W98000   1.495  42.400   3.794
25741W        W98001   8.029  38.465  12.007
25742W        W98002  33.698  19.689   0.340
25743W        W98003  21.223  16.124   4.610
25744W        W98004  20.461  37.613  11.149
25745W        W98005  37.220  29.624   5.006
25746W        W98006  29.487   3.897   1.961
25747W        W98007  42.083  42.714   4.818
25748W        W98008  28.370  34.543  10.959
25749W        W98009  18.815  24.022   4.150
25750W        W98010   6.135  36.786   2.738
25751W        W98011  17.614  15.320  14.550
25752W        W98012   7.609  23.246   2.632
25753W        W98013  35.386   9.329   4.710
25754W        W98014   9.202  30.065   1.380
25755W        W98015  35.932  40.915  13.923
25756W        W98016  17.124  25.909  14.583
25757W        W98017  16.055  28.883   4.334
25758W        W98018  15.554   7.162  11.958
25759W        W98019  30.573  10.279  10.879
25760W        W98020  19.969  22.469   4.020
25761W        W98021   0.800  41.278  10.326
25762W        W98022  26.711   6.470   3.293
25763W        W98023  19.465  33.461   0.050
25764W        W98024  24.513  24.495   0.759
25765W        W98025  25.747  37.959  14.479
25766W        W98026  10.259  15.053   1.159
25767W        W98027   5.670  17.204   0.778
25768W        W98028   7.410  16.762   0.701
25769W        W98029   3.416  24.328  14.667
25770W        W98030  26.563  16.557  14.645
25771W        W98031  12.136  28.694  11.873
25772W        W98032  34.049  11.216   3.311
25773W        W98033   4.777   3.179   4.084
25774W        W98034  18.214  36.051   0.785
25775W        W98035  30.476   0.821   4.500
25776W        W98036  16.237  23.990   2.717
25777W        W98037  38.008   1.572  11.209
25778W        W98038  43.369   3.881  14.710
25779W        W98039   4.767  26.649   0.379
25780W        W98040  41.466  22.095   0.478
25781W        W98041  13.956   0.265  11.529
25782W        W98042  23.645  36.124  11.510
25783W        W98043  44.832  15.729  14.221
25784W        W98044  24.112   2.490  12.586
25785W        W98045  13.532  43.869   1.517
25786W        W98046   9.235  19.015  13.947
25787W        W98047   7.313   4.976  14.644
25788W        W98048  40.992  10.396  14.833
25789W        W98049  30.143  41.637  11.144
25790W        W98050  41.995  24.259  11.662
25791W        W98051  15.712  30.891   0.451
25792W        W98052  28.689   8.252  11.950
25793W        W98053  44.352  26.090   1.794
25794W        W98054   7.845   7.983   4.104
25795W        W98055   7.269  25.202   1.180
25796W        W98056  19.549  34.866  13.340
25797W        W98057  19.128  16.662   2.006
25798W        W98058  14.653  14.161  12.453
25799W        W98059  29.761  11.382   0.765
25800W        W98060  44.198  21.124  12.389
25801W        W98061  27.651  35.848  12.575
25802W        W98062   1.080  25.328   0.874
25803W        W98063   1.890  33.147  14.267
25804W        W98064  11.669   2.256  12.335
25805W        W98065  23.964  34.280   2.064
25806W        W98066  10.091  32.862  11.133
25807W        W98067  28.631  42.603  14.126
25808W        W98068  19.488   6.781  11.469
25809W        W98069  19.171  32.690  10.793
25810W        W98070  24.412  28.504  13.496
25811W        W98071  41.235  15.585  14.419
25812W        W98072  42.411   0.539   4.567
25813W        W98073   8.249   4.768  11.556
25814W        W98074  12.602   4.500  11.095
25815W        W98075   6.786  16.092  11.434
25816W        W98076  16.040  28.660  12.608
25817W        W98077  11.534  44.398  13.027
25818W        W98078  30.463  44.984  14.437
25819W        W98079  13.117  13.256   2.331
25820W        W98080   3.718  23.535  10.477
25821W        W98081  13.977   4.682   3.651
25822W        W98082   2.490  24.129   4.070
25823W        W98083  22.980  24.727  10.866
25824W        W98084   8.154  31.580   3.181
25825W        W98085   2.208  34.131   3.697
25826W        W98086  18.184  33.507  11.202
25827W        W98087  33.874   8.234   4.004
25828W        W98088  13.247   9.200   3.247
25829W        W98089  30.935  40.700  11.264
25830W        W98090  21.409  11.091   0.939
25831W        W98091   4.381  38.210  10.580
25832W        W98092  26.520  15.178  13.001
25833W        W98093  18.088   1.829   4.831
25834W        W98094  24.120  33.033  13.482
25835W        W98095  43.855  43.963  12.502
25836W        W98096  42.098  43.956   2.870
25837W        W98097  27.240  37.533  14.715
25838W        W98098   1.881  31.691   0.040
25839W        W98099   3.706  17.718  14.285
25840W        W98100   5.199  21.316   1.948
25841W        W98101  30.916   4.773  14.740
25842W        W98102  22.134  13.646   2.250
25843W        W98103  12.204  39.532  11.993
25844W        W98104  25.844  38.240   0.234
25845W        W98105  23.653  21.773  10.793
25846W        W98106   6.156  24.956  13.443
25847W        W98107  16.063  37.941   3.599
25848W        W98108  26.206  14.288   0.416
25849W        W98109  23.353  16.824  13.304
25850W        W98110  43.914  40.901  13.437
25851W        W98111  20.543  25.014   3.640
25852W        W98112   4.889  39.411  10.664
25853W        W98113  40.995  38.756  12.479
25854W        W98114  37.340  13.783  13.913
25855W        W98115  31.649  38.565   4.801
25856W        W98116  39.320  17.809   3.077
25857W        W98117   3.948  32.226  14.758
25858W        W98118   5.691  38.793   1.456
25859W        W98119  24.797  17.036  14.398
25860W        W98120  15.780   5.260  11.910
25861W        W98121  41.098  13.689   3.279
25862W        W98122  23.814  27.937  12.265
25863W        W98123  27.024  20.096  13.736
25864W        W98124  36.814  37.997   2.295
25865W        W98125  12.174   1.734  14.827
25866W        W98126  20.624   6.902   1.217
25867W        W98127   6.042  27.879   0.782
25868W        W98128  25.471  15.318  11.066
25869W        W98129  10.153   2.816   4.546
25870W        W98130  36.513  44.190   4.958
25871W        W98131  44.274   7.440  12.784
25872W        W98132  33.470  14.563  10.626
25873W        W98133   8.622  28.436  12.485
25874W        W98134  36.043  31.194  13.936
25875W        W98135  30.581  37.090  13.030
25876W        W98136  19.659  37.136   2.744
25877W        W98137  33.377  41.546  10.338
25878W        W98138  44.964  18.687   3.287
25879W        W98139  23.100  31.675   2.838
25880W        W98140  35.827  40.470   3.292
25881W        W98141  37.546  42.830   0.791
25882W        W98142  23.644   9.642  11.572
25883W        W98143  16.278  43.497   1.008
25884W        W98144  14.095  26.434  13.863
25885W        W98145  37.959  34.894   0.253
25886W        W98146   5.877   6.338  13.539
25887W        W98147   8.739   6.166   2.352
25888W        W98148  34.639  25.109  13.408
25889W        W98149  24.016  19.060  13.507
25890W        W98150  28.456  27.057   2.426
25891W        W98151  23.645  39.300  12.640
25892W        W98152  25.139  16.146  10.678
25893W        W98153  19.620  11.524   1.399
25894W        W98154  27.412   2.536   1.528
25895W        W98155  38.045  32.594  14.318
25896W        W98156  22.751  40.284   4.458
25897W        W98157   7.388  43.510   2.631
25898W        W98158  28.704  22.766   4.612
25899W        W98159  19.119  23.612   4.410
25900W        W98160   6.237   3.810   0.998
25901W        W98161  40.332  35.567   3.823
25902W        W98162  18.856  28.065   4.675
25903W        W98163  16.321  12.794  12.891
25904W        W98164  13.371  43.809   3.703
25905W        W98165  23.050  16.001  11.052
25906W        W98166  21.153  25.556   4.111
25907W        W98167  35.626   2.726   2.357
25908W        W98168   8.491  24.712  13.028
25909W        W98169  13.306  35.753   1.609
25910W        W98170   7.269  22.593   2.978
25911W        W98171  36.157  35.107  13.372
25912W        W98172  35.348  14.692  11.489
25913W        W98173   0.297  41.135   1.729
25914W        W98174  38.004  19.099  12.183
25915W        W98175  43.433   4.542  12.106
25916W        W98176  39.535  18.517   2.123
25917W        W98177  26.735   0.850  11.928
25918W        W98178  15.225   8.529  13.938
25919W        W98179  17.120  13.845  12.429
25920W        W98180  25.043   5.497   0.360
25921W        W98181  30.191  41.045  12.443
25922W        W98182   1.745  34.344   3.662
25923W        W98183  33.525  12.698  10.273
25924W        W98184   1.981  21.638  12.510
25925W        W98185  33.066  41.020   2.181
25926W        W98186  41.396  43.743   0.189
25927W        W98187  33.402  32.820  13.853
25928W        W98188   2.791   6.140  10.588
25929W        W98189  27.199  35.880   3.573
25930W        W98190  19.089  33.123   4.505
25931W        W98191  11.171  32.628   4.652
25932W        W98192  42.432  33.997   4.588
25933W        W98193   3.876   3.354  12.806
25934W        W98194  44.229   7.816   3.994
25935W        W98195   8.319  10.274   0.435
25936W        W98196  39.546  33.388  11.106
25937W        W98197  12.827  10.200   2.683
25938W        W98198  31.411  33.621   3.220
25939W        W98199  10.267  33.059   1.016
25940W        W98200   9.980   4.812   0.410
25941W        W98201  21.102  35.909   2.211
25942W        W98202   2.039  21.309   1.709
25943W        W98203  14.439  37.776  13.895
25944W        W98204  31.146   3.675   0.667
25945W        W98205  22.133  16.720  11.486
25946W        W98206  25.068  35.943  10.444
25947W        W98207  26.531  10.683  11.908
25948W        W98208  36.003  15.182  12.092
25949W        W98209   4.344  24.163   2.287
25950W        W98210  35.607  41.392   1.323
25951W        W98211  27.646  17.576   4.384
25952W        W98212  32.662   6.356   1.147
25953W        W98213  18.694  20.843   3.854
25954W        W98214  35.081  26.713   4.538
25955W        W98215  20.031  11.829  10.989
25956W        W98216   9.100  15.224  14.130
25957W        W98217  27.437  38.185  12.144
25958W        W98218  20.179   0.711   4.507
25959W        W98219  18.660   2.674  11.532
25960W        W98220  14.491  12.702  13.415
25961W        W98221  42.663  22.594   4.858
25962W        W98222  37.331  17.486   2.575
25963W        W98223   9.156  42.537  11.513
25964W        W98224  28.183  24.142   4.667
25965W        W98225   0.249   7.236   0.763
25966W        W98226  24.423   8.089  12.958
25967W        W98227  17.539  40.813   3.646
25968W        W98228  37.968  27.686  10.810
25969W        W98229  41.043   3.791  12.384
25970W        W98230  22.257   0.873   3.279
25971W        W98231  10.291  20.783   0.403
25972W        W98232  10.239  35.880   2.251
25973W        W98233  12.729  17.077  11.933
25974W        W98234  32.751  30.879   0.572
25975W        W98235  14.382  33.541  13.936
25976W        W98236  42.723  31.619  12.138
25977W        W98237  32.092   0.186  14.047
25978W        W98238  11.652  41.618  13.856
25979W        W98239   8.230   9.118  12.974
25980W        W98240  10.337  22.961   2.844
25981W        W98241  27.134   8.790   4.554
25982W        W98242  19.486  40.173  12.340
25983W        W98243  21.657  38.111  11.644
25984W        W98244  31.446  32.071  10.827
25985W        W98245   6.312  10.431   4.101
25986W        W98246  19.601  11.789  14.062
25987W        W98247  35.626  26.735   0.420
25988W        W98248  14.011  41.867  11.113
25989W        W98249  44.276  21.745   4.570
25990W        W98250   4.659  16.722  12.064
25991W        W98251  34.553  21.701   4.449
25992W        W98252   6.694   5.722  13.594
25993W        W98253   3.873  10.638  13.070
25994W        W98254   7.421  18.799   0.090
25995W        W98255  11.268   5.291  11.670
25996W        W98256   8.644   5.317   0.514
25997W        W98257   4.200   0.362  13.936
25998W        W98258  23.372  40.427   3.694
25999W        W98259   7.792   2.460   1.609
26000W        W98260  10.884  21.000   1.108
26001W        W98261  39.888  21.790   2.729
26002W        W98262   6.766  25.793   2.872
26003W        W98263  27.436  25.617   2.294
26004W        W98264   7.382  17.269   4.575
26005W        W98265  20.029  20.561  10.554
26006W        W98266  14.823  28.823  12.603
26007W        W98267  25.771  17.281   3.237
26008W        W98268  43.409   7.178  13.216
26009W        W98269  24.915  20.812   1.822
26010W        W98270  11.654  32.118  14.284
26011W        W98271  28.456  38.726  14.950
26012W        W98272  40.946  23.910  13.636
26013W        W98273   1.864  12.602   4.057
26014W        W98274  22.155   4.351   0.845
26015W        W98275  16.762  37.677  13.669
26016W        W98276  33.921  20.597  14.850
26017W        W98277   2.205  16.717   3.164
26018W        W98278  25.909   6.451  12.640
26019W        W98279   0.325  13.906  14.937
26020W        W98280  22.346  34.672  12.651
26021W        W98281  27.423  42.980   2.432
26022W        W98282  11.932  23.384  14.962
26023W        W98283  12.320  17.733   0.327
26024W        W98284  38.944  42.797  12.740
26025W        W98285  35.579  17.216  14.288
26026W        W98286  25.730  16.630   3.877
26027W        W98287  30.229  30.102   3.460
26028W        W98288   7.280  14.005  10.621
26029W        W98289   4.489  22.318   2.690
26030W        W98290   7.700  20.619  11.442
26031W        W98291  19.530  11.687   3.711
26032W        W98292   0.883  18.618  13.800
26033W        W98293   0.420  27.206   4.564
26034W        W98294  17.870  13.266   1.759
26035W        W98295  31.532  18.648   3.606
26036W        W98296  19.146  30.436   3.604
26037W        W98297  30.473  41.888   4.517
26038W        W98298  38.322   3.101  10.711
26039W        W98299  41.041  32.846   4.674
26040W        W98300  32.982  43.470   4.794
26041W        W98301  23.851  33.047   1.447
26042W        W98302  40.445  41.848  10.705
26043W        W98303  20.013  42.606   1.507
26044W        W98304  34.186  24.965  13.648
26045W        W98305  27.276  11.713  12.658
26046W        W98306  22.269  12.756   0.291
26047W        W98307   4.678  27.349   2.807
26048W        W98308  21.746  26.185   0.409
26049W        W98309  15.556   1.214   1.715
26050W        W98310  13.628  34.542  11.584
26051W        W98311  33.980  12.404  11.189
26052W        W98312  44.681   1.533   3.217
26053W        W98313   7.178  39.123   2.689
26054W        W98314  33.993  19.487  12.727
26055W        W98315  36.254  29.162   2.252
26056W        W98316  14.602  29.966  13.351
26057W        W98317   5.962  26.599  10.925
26058W        W98318  40.506  38.897  10.768
26059W        W98319   0.710  13.161  13.100
26060W        W98320  38.539  30.083  14.398
26061W        W98321  44.441   3.913  11.172
26062W        W98322  26.538  22.289   1.189
26063W        W98323   2.292  21.997  14.004
26064W        W98324  23.612  35.869  13.403
26065W        W98325  16.550  11.881   2.278
26066W        W98326   4.656  26.090  11.163
26067W        W98327  21.054  40.999   3.182
26068W        W98328   0.291  39.072   2.329
26069W        W98329  29.085  19.716  13.813
26070W        W98330  20.090  33.645  13.815
26071W        W98331  19.623  24.071  13.444
26072W        W98332  34.536  22.815   2.362
26073W        W98333  22.343   8.287   3.448
26074W        W98334  11.420  41.548  13.206
26075W        W98335  44.050  31.645   2.652
26076W        W98336  22.600   4.025   3.244
26077W        W98337  38.385  43.671  11.976
26078W        W98338  35.570  36.707   4.431
26079W        W98339  38.845  30.740  13.398
26080W        W98340  40.613   0.622   3.855
26081W        W98341  28.498  24.286  10.633
26082W        W98342  35.129  41.047   3.685
26083W        W98343  12.507  12.356  12.557
26084W        W98344  29.558  29.749   1.205
26085W        W98345  39.543  16.153   4.728
26086W        W98346   5.828  11.998  12.012
26087W        W98347   9.795  32.306   0.423
26088W        W98348   4.883   5.731   0.367
26089W        W98349  33.948  37.117  14.802
26090W        W98350  43.526  41.835   3.375
26091W        W98351  12.073  22.192  13.297
26092W        W98352  17.266  33.446  13.488
26093W        W98353  42.111  39.412   4.147
26094W        W98354   1.054  10.782   1.692
26095W        W98355  43.767  44.384  11.761
26096W        W98356  25.727  39.101   5.195
26097W        W98357  27.686  21.242   2.836
26098W        W98358  23.653  33.204   3.189
26099W        W98359   4.116  30.617   1.344
26100W        W98360   1.671  37.401  10.615
26101W        W98361  33.630  38.674   3.526
26102W        W98362   2.460  33.265  13.295
26103W        W98363  40.537   2.755  14.320
26104W        W98364  17.609  38.227   4.648
26105W        W98365   5.253  31.880  11.078
26106W        W98366   3.251  43.951  11.965
26107W        W98367   4.190   8.458   0.405
26108W        W98368   7.246   9.730  13.191
26109W        W98369  28.391  40.597   2.248
26110W        W98370  28.017  32.480  13.979
26111W        W98371  15.230   3.369   1.590
26112W        W98372  35.433  15.628  11.231
26113W        W98373  44.592   2.245  13.980
26114W        W98374  19.514   6.243   2.823
26115W        W98375  12.253  21.262  12.911
26116W        W98376   3.428  40.071  12.484
26117W        W98377  22.625  10.435  11.936
26118W        W98378   1.775  19.408   0.216
26119W        W98379  30.054  32.041   5.243
26120W        W98380  25.028  39.766   1.323
26121W        W98381  32.093  15.201  11.308
26122W        W98382   8.849  44.279  14.398
26123W        W98383   3.323  30.391   1.144
26124W        W98384  14.347  27.427   5.540
26125W        W98385  43.865  33.942  13.335
26126W        W98386   0.027   3.784   0.036
26127W        W98387   7.769  17.180   2.493
26128W        W98388  37.482   8.700  10.975
26129W        W98389  11.452  25.234   0.326
26130W        W98390   0.118  20.775  13.784
26131W        W98391  41.838  11.823   2.228
26132W        W98392  42.248  31.880  10.310
26133W        W98393   4.760  38.953  12.311
26134W        W98394  11.886  43.535   0.411
26135W        W98395   0.236  27.732  12.429
26136W        W98396   2.390  43.026  12.175
26137W        W98397   8.589  18.595   0.750
26138W        W98398  34.705  12.559  14.935
26139W        W98399  16.970   7.129  10.680
26140W        W98400  44.041   5.262  13.958
26141W        W98401  28.477  23.210   4.732
26142W        W98402  24.948  44.539  12.579
26143W        W98403  39.487  12.722  13.968
26144W        W98404  43.339  29.178   4.757
26145W        W98405  18.661   6.279  10.622
26146W        W98406   7.324  38.387   1.422
26147W        W98407  12.812  40.272  14.349
26148W        W98408  34.011  17.602   0.378
26149W        W98409  16.607  40.480  12.468
26150W        W98410   2.009  11.789   2.770
26151W        W98411  33.292  13.838  10.244
26152W        W98412   6.430  38.862   1.050
26153W        W98413  24.922  22.751  10.768
26154W        W98414   3.779  12.041   3.137
26155W        W98415  43.888   5.904  10.725
26156W        W98416  35.881  32.920  10.719
26157W        W98417  19.190   4.922  14.047
26158W        W98418   2.985  15.274   1.295
26159W        W98419  31.377  42.992   2.358
26160W        W98420   6.937   4.669   1.830
26161W        W98421  30.525  19.152   3.229
26162W        W98422  33.615   4.649  12.649
26163W        W98423  13.857  23.056  11.471
26164W        W98424  27.738  17.717  12.468
26165W        W98425   1.169  12.775   4.503
26166W        W98426   8.716  32.136   1.485
26167W        W98427  34.412   1.667  13.979
26168W        W98428  29.153  33.659  11.569
26169W        W98429  22.650  34.881   0.955
26170W        W98430   6.616  24.709  13.951
26171W        W98431  44.325  21.462   4.119
26172W        W98432  12.731  29.998   3.365
26173W        W98433  18.700  15.807  10.438
26174W        W98434  37.748   5.326  13.376
26175W        W98435   9.613  26.493  11.103
26176W        W98436  32.033  13.686   1.007
26177W        W98437  25.512   5.525   4.245
26178W        W98438   0.168  25.219  12.432
26179W        W98439  27.450  42.223   0.306
26180W        W98440  34.217  21.009  14.951
26181W        W98441  34.434   1.867   3.757
26182W        W98442  30.285   0.476  14.375
26183W        W98443  14.325  15.404   4.130
26184W        W98444   9.039  42.565   1.928
26185W        W98445  21.553  20.741  10.620
26186W        W98446  42.323   8.889  10.578
26187W        W98447   8.630  10.377  14.849
26188W        W98448  19.164  10.577  11.731
26189W        W98449   8.314   6.239   4.676
26190W        W98450   5.018  31.105  11.489
26191W        W98451  41.558  11.876  13.684
26192W        W98452   4.738  15.652  14.941
26193W        W98453  19.604  27.439  14.392
26194W        W98454   9.277  39.010   4.134
26195W        W98455  38.560  11.423   2.695
26196W        W98456   8.879  38.894  11.061
26197W        W98457   1.919   2.089  14.051
26198W        W98458  25.040  21.592   4.101
26199W        W98459  28.383  25.178  12.488
26200W        W98460   5.792   3.235  10.777
26201W        W98461  33.983  15.708  13.542
26202W        W98462  10.787  33.477   1.159
26203W        W98463  39.758   4.796   3.185
26204W        W98464  31.620   2.417  13.399
26205W        W98465  15.927  44.434   3.375
26206W        W98466  34.872   4.228   3.218
26207W        W98467  40.181  28.767  11.469
26208W        W98468  37.642  36.002   2.343
26209W        W98469   1.020   7.584  14.838
26210W        W98470  44.625  15.123   4.006
26211W        W98471   4.662  26.574  12.061
26212W        W98472   6.408  37.389  14.928
26213W        W98473  26.430  11.412   1.908
26214W        W98474  40.794  27.473  12.130
26215W        W98475   3.231   9.756   4.832
26216W        W98476  36.949  11.185  12.062
26217W        W98477  13.462  43.527   2.430
26218W        W98478  34.559  30.374   0.904
26219W        W98479   9.364  38.466  12.946
26220W        W98480  43.279  23.679  13.036
26221W        W98481  11.175  28.733   2.681
26222W        W98482  31.418   0.927   1.496
26223W        W98483  41.615  12.914   2.430
26224W        W98484  28.746   2.505  14.108
26225W        W98485   2.822   1.994  13.968
26226W        W98486  41.792  19.914   4.540
26227W        W98487  24.021   8.492   1.137
26228W        W98488   3.222  32.561   1.872
26229W        W98489   7.416  30.916  11.926
26230W        W98490  28.597   6.984  11.100
26231W        W98491   0.240  35.382  10.939
26232W        W98492   1.359  24.991   3.219
26233W        W98493  38.533  20.312  12.274
26234W        W98494  29.253  29.205   2.324
26235W        W98495   2.085   8.123  11.037
26236W        W98496  24.166  20.708   3.781
26237W        W98497   0.002   1.356  14.370
26238W        W98498  14.850   0.744  14.905
26239W        W98499  31.941  44.608  10.545
26240W        W98500  36.846   3.954  11.607
26241W        W98501  40.680   1.006   0.259
26242W        W98502  38.782  42.719  11.856
26243W        W98503   0.236  13.215   2.778
26244W        W98504  34.807  36.424  13.445
26245W        W98505  24.726  24.546  11.154
26246W        W98506  24.131  17.563  11.251
26247W        W98507   2.947  44.071  14.875
26248W        W98508  20.131  27.616  12.998
26249W        W98509  42.970   0.007  13.734
26250W        W98510   4.302  17.264  12.805
26251W        W98511  26.171   5.516  11.531
26252W        W98512  18.140  36.347  11.509
26253W        W98513  11.660  21.038   4.295
26254W        W98514  44.924  21.790   3.934
26255W        W98515  24.463  15.364  11.053
26256W        W98516  34.162   3.663   0.527
26257W        W98517  21.446   3.829   0.711
26258W        W98518  15.751  22.565  11.073
26259W        W98519  19.710  18.713   1.230
26260W        W98520  31.743  16.125   4.966
26261W        W98521   2.444  18.675   1.940
26262W        W98522  21.780  12.220  13.867
26263W        W98523   9.426   6.345  10.769
26264W        W98524   9.183   1.685   0.786
26265W        W98525  44.353   1.978   4.587
26266W        W98526  32.356  16.080  10.552
26267W        W98527  21.677  23.614   0.690
26268W        W98528  22.589  24.021  10.386
26269W        W98529  13.545  10.075   4.103
26270W        W98530  36.078  24.431  14.481
26271W        W98531  28.583  30.373   3.571
26272W        W98532  28.215  14.305   2.493
26273W        W98533  38.512  12.754   2.344
26274W        W98534  10.939  31.253   1.129
26275W        W98535  15.525  11.661  14.759
26276W        W98536  44.237   0.340   3.188
26277W        W98537   0.176  39.398  12.211
26278W        W98538  41.847  19.427   4.746
26279W        W98539   3.861  40.456  12.813
26280W        W98540   2.470  31.453  11.516
26281W        W98541  33.443   0.668  13.050
26282W        W98542  33.613  19.571   1.854
26283W        W98543   1.655   9.791   3.341
26284W        W98544  10.282  44.363   1.546
26285W        W98545  37.398   5.353   2.384
26286W        W98546   4.688   9.763   2.882
26287W        W98547  33.877   2.054  12.062
26288W        W98548  16.411  21.583  13.548
26289W        W98549   6.148  17.671   2.773
26290W        W98550  28.031  29.043   4.587
26291W        W98551  25.779  13.356   0.744
26292W        W98552  41.267  26.887  11.477
26293W        W98553   6.394  44.817  12.001
26294W        W98554  36.546   5.984  13.860
26295W        W98555  28.472   9.115  14.007
26296W        W98556  21.613   1.340  14.954
26297W        W98557  36.136   8.509  10.628
26298W        W98558   2.228  30.485  14.893
26299W        W98559  26.330   5.005   1.222
26300W        W98560  31.136  15.616   2.894
26301W        W98561  29.038  16.262  10.692
26302W        W98562  27.210  14.536  12.713
26303W        W98563  15.347  40.842  12.985
26304W        W98564  13.302  29.718  12.207
26305W        W98565  34.501  31.872  14.385
26306W        W98566  17.279  26.207   1.784
26307W        W98567   8.486  23.247  13.382
26308W        W98568  20.046   0.207  10.687
26309W        W98569  35.713   9.178  14.351
26310W        W98570   0.497  19.465   4.862
26311W        W98571   1.293  16.378   2.683
26312W        W98572   5.774  12.555   1.831
26313W        W98573  26.792  22.175   1.657
26314W        W98574   7.871  32.179  10.734
26315W        W98575  37.377  41.970   4.618
26316W        W98576  39.574  17.634  12.207
26317W        W98577  35.411  13.114  13.406
26318W        W98578   7.283  25.060  12.347
26319W        W98579  34.889   1.273  13.074
26320W        W98580  32.858  23.749   1.469
26321W        W98581   4.021  22.765   4.629
26322W        W98582   5.244  36.056  11.587
26323W        W98583  44.586   3.975   2.200
26324W        W98584  11.650  28.081  13.747
26325W        W98585  39.395  33.098  10.693
26326W        W98586  10.283   3.946   1.338
26327W        W98587  33.946  31.265  14.646
26328W        W98588  41.860  31.989  11.121
26329W        W98589  24.389   7.028   4.223
26330W        W98590  38.828  18.942   1.723
26331W        W98591  23.210  15.145   1.987
26332W        W98592  19.475  18.247   2.438
26333W        W98593   6.864  34.953   0.651
26334W        W98594  28.706  30.650  11.137
26335W        W98595  16.243  43.683  11.963
26336W        W98596  16.241  12.650  11.950
26337W        W98597   1.455  10.735   2.910
26338W        W98598  33.093  38.797  13.802
26339W        W98599   0.775  31.974   2.502
26340W        W98600   6.120  38.765   1.958
26341W        W98601  24.307  26.613   5.044
26342W        W98602  26.591  10.846   4.491
26343W        W98603   0.071  23.875   2.739
26344W        W98604   3.705  40.474  13.949
26345W        W98605   7.611  10.582   3.969
26346W        W98606   9.463  23.529   3.491
26347W        W98607  41.531  40.442   0.391
26348W        W98608   3.197  28.006   1.410
26349W        W98609   0.427   3.470  12.178
26350W        W98610  34.568   2.358  10.357
26351W        W98611  44.896  44.771   1.931
26352W        W98612  33.087  26.927  12.570
26353W        W98613  22.437  28.080  10.677
26354W        W98614  12.421   9.376  10.687
26355W        W98615  23.659   0.413  11.502
26356W        W98616  16.933  31.727   3.175
26357W        W98617   8.527  32.145   3.808
26358W        W98618  24.532  35.140   0.907
26359W        W98619  18.788   3.797   2.722
26360W        W98620  33.388  14.483  13.553
26361W        W98621  12.373  23.255   1.902
26362W        W98622   7.208  15.829  12.527
26363W        W98623  21.690  36.629  11.216
26364W        W98624   2.384  11.428   2.812
26365W        W98625   6.983  16.159  12.874
26366W        W98626   6.685  26.162   3.222
26367W        W98627  16.294  28.447   4.097
26368W        W98628  24.401  35.126   4.191
26369W        W98629  44.438  27.240   0.997
26370W        W98630  29.722  27.130   2.620
26371W        W98631  16.140  38.824   1.801
26372W        W98632  13.342  19.192  12.847
26373W        W98633  24.046   8.162  14.913
26374W        W98634  42.885  22.189   0.862
26375W        W98635   0.088  43.971  10.952
26376W        W98636  18.722   7.921  14.872
26377W        W98637  12.185  40.358   3.794
26378W        W98638   2.064  39.366  11.407
26379W        W98639  29.823  15.242   1.920
26380W        W98640  32.607  31.518  11.863
26381W        W98641  18.045  11.122   2.217
26382W        W98642  27.542   0.850   2.758
26383W        W98643  40.531  33.016   0.264
26384W        W98644  14.762  13.738   1.135
26385W        W98645  37.052  42.466   2.474
26386W        W98646  41.302  27.129  10.701
26387W        W98647   3.350  32.528  13.749
26388W        W98648  15.111  27.030  10.693
26389W        W98649   0.102  23.219  10.796
26390W        W98650  41.771   7.809  12.593
26391W        W98651  44.453  27.891  14.928
26392W        W98652  17.298  27.610   1.765
26393W        W98653  12.080  28.145   0.998
26394W        W98654   5.089  21.062  14.927
26395W        W98655   9.982  21.591   4.795
26396W        W98656  14.799  27.473   3.308
26397W        W98657  29.310  28.105  10.618
26398W        W98658  25.683  22.670   3.306
26399W        W98659  36.506   7.298   5.307
26400W        W98660  25.162   0.040   0.495
26401W        W98661  11.413  35.396   2.940
26402W        W98662  14.919   2.885   4.459
26403W        W98663  33.485  15.862  13.674
26404W        W98664  11.800  40.362   0.317
26405W        W98665  11.335  29.803  10.785
26406W        W98666  27.070  19.429   1.429
26407W        W98667  36.385  38.007   4.085
26408W        W98668   5.803  35.590   3.220
26409W        W98669  28.071  11.776   2.312
26410W        W98670  34.463   5.884   0.286
26411W        W98671   3.179   0.277  11.682
26412W        W98672   9.837  19.338  14.594
26413W        W98673  39.607  22.844  11.173
26414W        W98674  28.951  10.436  11.124
26415W        W98675  41.244  36.814  13.813
26416W        W98676  24.770   6.823  12.817
26417W        W98677  22.661   8.223   1.660
26418W        W98678  15.085  36.502  11.159
26419W        W98679  31.993  25.237   0.729
26420W        W98680  19.488   2.715  11.582
26421W        W98681   4.366   7.203   1.110
26422W        W98682  23.716  42.061   0.554
26423W        W98683   2.087  35.970   0.454
26424W        W98684  26.191  11.117  13.288
26425W        W98685  44.927  13.147   0.544
26426W        W98686  12.072   2.958   1.393
26427W        W98687  17.721  13.081  12.568
26428W        W98688  22.776  19.617  14.489
26429W        W98689  18.677  32.426   3.102
26430W        W98690  23.434  32.035   1.964
26431W        W98691  37.028  27.281  10.508
26432W        W98692  13.098  31.094  12.042
26433W        W98693  38.857  39.049   3.833
26434W        W98694  30.084  13.626  12.173
26435W        W98695  32.031  44.861   0.453
26436W        W98696  17.552  31.236  13.911
26437W        W98697  17.379  13.450   1.894
26438W        W98698  11.000  25.763  12.398
26439W        W98699  37.926   6.649  11.923
26440W        W98700  14.671   6.564   1.756
26441W        W98701  26.478   5.365  13.968
26442W        W98702   6.247  29.253  13.515
26443W        W98703   3.841  34.575  14.411
26444W        W98704   7.632   0.986  12.459
26445W        W98705  18.097  35.142  13.411
26446W        W98706  18.289  15.401   1.112
26447W        W98707  41.530  14.090  13.198
26448W        W98708  38.625  14.726   4.239
26449W        W98709  44.355  29.608   2.908
26450W        W98710  22.359  11.157   1.868
26451W        W98711  37.524   0.240   1.434
26452W        W98712  34.432  31.370  14.503
26453W        W98713   6.292   3.546   4.536
26454W        W98714  41.485  21.694  10.775
26455W        W98715  42.664  15.580   0.298
26456W        W98716   9.860   2.399   4.699
26457W        W98717  12.631  31.974   1.155
26458W        W98718  38.985  34.393  10.641
26459W        W98719  26.493  44.235  14.034
26460W        W98720   2.870   8.351   3.099
26461W        W98721  40.384  39.557   0.269
26462W        W98722  37.286  41.438   0.873
26463W        W98723  32.011  15.806   0.867
26464W        W98724   1.285  25.568  11.511
26465W        W98725  32.335  10.121   2.133
26466W        W98726  10.664  29.930   0.201
26467W        W98727  40.296  20.567  10.721
26468W        W98728  39.299  17.567   3.764
26469W        W98729  14.590  38.538  10.586
26470W        W98730  43.753  10.257   3.852
26471W        W98731  13.859  32.878  12.421
26472W        W98732  14.930  14.151   1.545
26473W        W98733  30.919  43.250  11.638
26474W        W98734  36.560  27.853  11.037
26475W        W98735   0.937   2.600   0.924
26476W        W98736  42.607  24.727   0.422
26477W        W98737  40.920  29.359   1.421
26478W        W98738  16.541  25.372   4.672
26479W        W98739  22.126   6.513  11.687
26480W        W98740  38.048  24.153  12.655
26481W        W98741  13.340  44.358  14.527
26482W        W98742  27.458  13.754  14.594
26483W        W98743  30.380  32.508  13.923
26484W        W98744   3.245  27.128   2.814
26485W        W98745  37.424  31.673   9.884
26486W        W98746  37.498  31.690  13.099
26487W        W98747  12.755  42.495  12.610
26488W        W98748   5.665  27.565   4.600
26489W        W98749  16.579  12.982   0.040
26490W        W98750  27.441  11.142  11.597
26491W        W98751  36.842  38.867  11.076
26492W        W98752  18.084  34.733  13.089
26493W        W98753  13.172  29.432   1.404
26494W        W98754   7.377  27.388   1.894
26495W        W98755   7.033  17.701   0.896
26496W        W98756  23.133   8.629  13.295
26497W        W98757  29.854  29.739   3.389
26498W        W98758  12.159  42.309  10.723
26499W        W98759  21.499  35.029  11.902
26500W        W98760  29.492  42.466   3.257
26501W        W98761   7.958  11.855   3.613
26502W        W98762   8.183  25.558  13.021
26503W        W98763  17.365   4.156  13.414
26504W        W98764  23.146  18.041   0.424
26505W        W98765  26.924   9.356   0.497
26506W        W98766  14.086  33.989  13.958
26507W        W98767  33.588  39.539  13.786
26508W        W98768  42.834  29.729  13.961
26509W        W98769   2.297   2.247  12.113
26510W        W98770   7.221  36.093   2.301
26511W        W98771  15.776   8.240  13.263
26512W        W98772  28.549  40.407  12.603
26513W        W98773  11.219   8.237   2.450
26514W        W98774  22.700  22.410   1.593
26515W        W98775  17.388   0.239  10.285
26516W        W98776  43.496  44.823   2.325
26517W        W98777   8.292  24.747   2.244
26518W        W98778  11.067  18.670   4.575
26519W        W98779  18.565  44.644  12.547
26520W        W98780   0.585  28.616   4.088
26521W        W98781  22.154  17.540  13.893
26522W        W98782  42.509  19.523  13.579
26523W        W98783  20.034  11.615  10.116
26524W        W98784  34.472  37.876  13.139
26525W        W98785  16.123  13.233  14.872
26526W        W98786   6.601  21.872   1.010
26527W        W98787  17.483  12.931   1.880
26528W        W98788  12.677  20.704  10.732
26529W        W98789  42.770  24.556  10.682
26530W        W98790  29.518  42.976   3.188
26531W        W98791  29.538  20.714  12.454
26532W        W98792   3.362  33.427  14.426
26533W        W98793  32.089  31.610  14.035
26534W        W98794  19.132  24.963  12.008
26535W        W98795  26.517  37.931  13.909
26536W        W98796  28.396  44.909   4.059
26537W        W98797  44.036  19.799  11.677
26538W        W98798   4.859  29.487   0.294
26539W        W98799  44.542  39.536  13.943
26540W        W98800  27.511  28.908  12.953
26541W        W98801   1.870  14.359  12.983
26542W        W98802  38.854   9.817   0.371
26543W        W98803  13.234  32.850   2.796
26544W        W98804  37.473   1.424   0.939
26545W        W98805  39.007   6.978   9.758
26546W        W98806  19.636  39.773   1.213
26547W        W98807  17.180  24.571  11.851
26548W        W98808  23.140   6.408   4.128
26549W        W98809  30.152  23.365  13.348
26550W        W98810  21.983  32.912  14.341
26551W        W98811  28.732  35.999   0.004
26552W        W98812   8.663   8.979   1.713
26553W        W98813  41.468   4.384  10.383
26554W        W98814   4.789  21.995  10.264
26555W        W98815  15.678  40.982   3.671
26556W        W98816   8.997  30.353  11.175
26557W        W98817  26.164  22.988   4.607
26558W        W98818  32.604  26.953  12.802
26559W        W98819  40.337  27.267  11.568
26560W        W98820  44.767  21.596   4.389
26561W        W98821  15.442  27.266  13.188
26562W        W98822  25.756  12.783  10.748
26563W        W98823  20.513  27.463  11.994
26564W        W98824   2.368  14.031  13.952
26565W        W98825  28.055  30.650   5.483
26566W        W98826  39.901   8.734   1.773
26567W        W98827  30.855  39.920  13.022
26568W        W98828  22.125  10.257  14.526
26569W        W98829   4.195  26.268  14.769
26570W        W98830  30.197   0.541   3.278
26571W        W98831   9.763  37.343  14.501
26572W        W98832  42.165  28.591  13.927
26573W        W98833  22.969  28.136   3.745
26574W        W98834  34.843  15.637   3.287
26575W        W98835  18.146  37.480   1.217
26576W        W98836   3.181  44.281   3.715
26577W        W98837  20.635   8.326  11.984
26578W        W98838  42.694  28.251  11.408
26579W        W98839   0.272  20.252  11.964
26580W        W98840  22.654  32.112  14.363
26581W        W98841  34.208  37.518  12.546
26582W        W98842   2.866  35.014   1.227
26583W        W98843  12.661   1.781   3.619
26584W        W98844   3.300  15.602   9.953
26585W        W98845   7.777  22.662   1.938
26586W        W98846  33.348   1.565  11.602
26587W        W98847  14.680  23.156  10.716
26588W        W98848  11.657  29.726   4.097
26589W        W98849  23.531  12.290   1.945
26590W        W98850   3.354  16.461  12.397
26591W        W98851  22.093  22.552  10.060
26592W        W98852  44.257  18.824  11.632
26593W        W98853  15.753  13.845   1.289
26594W        W98854   0.971  28.336   3.175
26595W        W98855  20.684  43.684  12.572
26596W        W98856  26.356  25.214   4.376
26597W        W98857  15.176  41.456   3.411
26598W        W98858  30.119   6.169   0.578
26599W        W98859  41.745  15.984   3.493
26600W        W98860  16.094  28.081   0.816
26601W        W98861  21.750   6.409   2.279
26602W        W98862  38.448  21.239  11.699
26603W        W98863  34.638  14.018  14.421
26604W        W98864  35.148  23.430  11.736
26605W        W98865  11.698  44.542   1.145
26606W        W98866   3.866  24.886  13.469
26607W        W98867   5.767  28.299   0.398
26608W        W98868  29.612  36.321  14.315
26609W        W98869  10.740  38.060  11.184
26610W        W98870  26.965  38.871  14.469
26611W        W98871  43.917  20.407   2.399
26612W        W98872  30.653  33.964  13.450
26613W        W98873  25.628  12.925   2.671
26614W        W98874  10.633   9.335  10.600
26615W        W98875  38.617   0.024  12.601
26616W        W98876   0.381  23.498  12.769
26617W        W98877  26.443  27.415   0.036
26618W        W98878  17.292  42.865  11.069
26619W        W98879  32.936   3.888  14.009
26620W        W98880   7.311   6.860  14.866
26621W        W98881   8.207  30.219   2.319
26622W        W98882  41.831   0.346   3.169
26623W        W98883   5.242  14.549  13.001
26624W        W98884   7.406  41.890   2.918
26625W        W98885  10.798  15.463   1.855
26626W        W98886  44.568   5.304  12.840
26627W        W98887  42.628  44.070  13.545
26628W        W98888  13.863   3.674  14.983
26629W        W98889  30.486  41.539   2.902
26630W        W98890   7.951  39.888   3.228
26631W        W98891  26.145  27.476  14.493
26632W        W98892  17.353  37.845   0.901
26633W        W98893  16.628  21.659  12.508
26634W        W98894  18.155  32.624   4.669
26635W        W98895  29.980  41.016   3.718
26636W        W98896  16.302  33.971  10.662
26637W        W98897   1.797   1.486   2.349
26638W        W98898  43.311  35.474  11.899
26639W        W98899  17.281  23.849   4.549
26640W        W98900   9.203   2.713   1.780
26641W        W98901  12.570  31.887   4.664
26642W        W98902   8.290  43.183  10.340
26643W        W98903  22.466  39.877   1.388
26644W        W98904  19.840  11.851  11.488
26645W        W98905   0.219   7.770  10.852
26646W        W98906   0.886   0.729  10.795
26647W        W98907  25.629  17.888  12.926
26648W        W98908  31.850  44.826  12.615
26649W        W98909  30.944  18.008   2.396
26650W        W98910  35.947  24.979  12.151
26651W        W98911  17.854  27.481   4.167
26652W        W98912   8.211  21.606   3.250
26653W        W98913  29.247  44.519   0.490
26654W        W98914  23.993  41.605  14.727
26655W        W98915  16.243   3.744   1.346
26656W        W98916  32.425  12.031  14.902
26657W        W98917  21.629  32.125   2.302
26658W        W98918  10.019  32.888   4.894
26659W        W98919  14.184  43.972   4.061
26660W        W98920  25.714   6.876  12.963
26661W        W98921  13.348  27.161   4.583
26662W        W98922   4.357  31.646  12.049
26663W        W98923  19.654  42.422  14.195
26664W        W98924  29.579   7.265  13.927
26665W        W98925  21.512  12.633  14.818
26666W        W98926  34.003   4.164  14.840
26667W        W98927   6.167   2.053   0.003
26668W        W98928  28.442  25.789   0.791
26669W        W98929  22.154  34.506  12.204
26670W        W98930  41.921  21.489  12.884
26671W        W98931  13.768  33.115  13.462
26672W        W98932   9.172  31.338   0.180
26673W        W98933   6.490  22.664   2.104
26674W        W98934  27.163  40.457   1.693
26675W        W98935  40.053  37.031   4.098
26676W        W98936  43.852   8.815  14.692
26677W        W98937  21.061  28.633   0.789
26678W        W98938  17.819  14.168   1.440
26679W        W98939  42.805  31.927   4.729
26680W        W98940  18.517   9.108  10.722
26681W        W98941  13.112   6.140  13.831
26682W        W98942  33.112  10.322  14.869
26683W        W98943  35.364  39.100  12.352
26684W        W98944   8.212  44.282   3.174
26685W        W98945  42.896  14.120  14.335
26686W        W98946   7.137  22.077   2.390
26687W        W98947  26.534  40.762  10.596
26688W        W98948   1.809  16.258  12.345
26689W        W98949   1.066  30.622   2.270
26690W        W98950   6.395  17.995  12.556
26691W        W98951  11.090   5.661  10.562
26692W        W98952  27.040  13.229  10.655
26693W        W98953  30.849  17.107   1.384
26694W        W98954   0.679  37.003   3.240
26695W        W98955   7.458  37.575  12.348
26696W        W98956   3.464   9.740  13.403
26697W        W98957  23.015  39.846  14.531
26698W        W98958  10.549   7.808  13.991
26699W        W98959  35.574  40.585   2.319
26700W        W98960  43.733  12.739   4.558
26701W        W98961  23.205  34.891  11.012
26702W        W98962   4.400  10.340  12.965
26703W        W98963  34.614  13.376  11.608
26704W        W98964   0.911   1.720   0.181
26705W        W98965  36.052  24.215   3.569
26706W        W98966  44.346  29.065  12.560
26707W        W98967  35.168  12.211  14.010
26708W        W98968  39.916  23.455  11.489
26709W        W98969  29.555  12.109  12.438
26710W        W98970  32.014  36.036  10.660
26711W        W98971  10.673  25.302  14.944
26712W        W98972  17.832  41.859  14.859
26713W        W98973  37.969  15.061   1.437
26714W        W98974   2.246  33.642  10.696
26715W        W98975  20.262   7.268   1.053
26716W        W98976  37.753  26.695   3.220
26717W        W98977  40.893  40.911  10.846
26718W        W98978  21.981  25.917   9.696
26719W        W98979   0.899  12.694   1.727
26720W        W98980  42.049  13.793  13.107
26721W        W98981  30.055  36.867   1.313
26722W        W98982   7.483   6.426   4.203
26723W        W98983  12.322  18.491  14.934
26724W        W98984  42.919   9.781  13.943
26725W        W98985  37.096  34.345  11.615
26726W        W98986  22.667  38.254  12.961
26727W        W98987  28.083  23.063  13.189
26728W        W98988  10.103   0.367  11.462
26729W        W98989   6.347  35.418   2.583
26730W        W98990  40.484  10.753  13.114
26731W        W98991  21.156   3.752  12.231
26732W        W98992  37.030  21.549  14.306
26733W        W98993  31.570  26.577  13.850
26734W        W98994  43.432   0.851  12.574
26735W        W98995  42.868  30.827   2.373
26736W        W98996  25.638   5.312  11.575
26737W        W98997  33.535  14.585  11.533
26738W        W98998  26.053  26.550   0.800
26739W        W98999   1.355   3.674   1.833
26740W        W99000   6.949  28.484  14.419
26741W        W99001   4.379  12.391   2.948
26742W        W99002  12.043   4.478  10.691
26743W        W99003  39.315  24.847  14.236
26744W        W99004   8.147  25.069  12.888
26745W        W99005  33.040  14.267   4.844
26746W        W99006  38.752  28.029   3.715
26747W        W99007  43.011  26.908  12.104
26748W        W99008  37.531   8.221  10.733
26749W        W99009  34.778   1.285   0.541
26750W        W99010  33.952  36.904  13.800
26751W        W99011  31.489  16.551  12.513
26752W        W99012  17.205  44.016   4.165
26753W        W99013  38.597  13.643   0.915
26754W        W99014  23.479  26.151  12.104
26755W        W99015  11.150  23.701   1.245
26756W        W99016  25.090  40.243  14.387
26757W        W99017  19.563  11.277  13.311
26758W        W99018  27.502  24.316   4.116
26759W        W99019  26.356  44.458   4.586
26760W        W99020  22.342  39.018  13.879
26761W        W99021  39.423  11.464   2.439
26762W        W99022  41.448   0.003  14.465
26763W        W99023   6.929   9.121   2.692
26764W        W99024  24.230  40.121   3.633
26765W        W99025  42.004   3.353   9.888
26766W        W99026  30.481  42.783   0.682
26767W        W99027  11.433  34.126   4.885
26768W        W99028  40.555  29.008  11.175
26769W        W99029  17.548   0.344  10.786
26770W        W99030  15.230  21.046   0.511
26771W        W99031   6.104  27.620   4.871
26772W        W99032  13.676   6.873  13.116
26773W        W99033  18.719  11.785   3.272
26774W        W99034  12.757  24.733   2.431
26775W        W99035  11.095  11.432  13.793
26776W        W99036  33.613  42.370  11.681
26777W        W99037  22.102  10.163  12.923
26778W        W99038  38.923   1.903   0.317
26779W        W99039  29.264  41.500   2.247
26780W        W99040   8.297   3.329   2.830
26781W        W99041  36.935  37.325   1.404
26782W        W99042   6.934  28.491  11.419
26783W        W99043  20.544  24.401   2.472
26784W        W99044  21.085   8.487   0.522
26785W        W99045   7.360  26.596  10.523
26786W        W99046   8.648  38.280  10.828
26787W        W99047   4.218  13.775   2.161
26788W        W99048  37.316  20.147  12.937
26789W        W99049  10.577  29.168   2.402
26790W        W99050  29.081  27.431   0.318
26791W        W99051  42.396  33.556  11.620
26792W        W99052   2.984  14.703  10.701
26793W        W99053   7.163  40.737  14.988
26794W        W99054  20.648  14.773   3.723
26795W        W99055  16.809  30.518   2.690
26796W        W99056  29.942  18.877   0.195
26797W        W99057   2.927  41.778  14.456
26798W        W99058  35.489  44.066  13.274
26799W        W99059   0.837  42.476  13.371
26800W        W99060  42.302  14.410   5.025
26801W        W99061  43.411  24.170   1.645
26802W        W99062   3.330  41.212  10.679
26803W        W99063   1.774  41.444  12.326
26804W        W99064  19.523  29.679   2.846
26805W        W99065  28.660  26.439   4.193
26806W        W99066  26.388  18.081   0.701
26807W        W99067  38.389  35.136   4.121
26808W        W99068  30.327  18.531  14.760
26809W        W99069   3.263   9.137  13.944
26810W        W99070  43.913  12.264   3.297
26811W        W99071  27.519   8.365  11.947
26812W        W99072  36.170  34.444   0.532
26813W        W99073  23.218   5.221   1.400
26814W        W99074  16.773  43.422  11.100
26815W        W99075  11.354  10.293   3.692
26816W        W99076  15.139  25.474  10.749
26817W        W99077  37.350  10.738   2.870
26818W        W99078   2.904  40.098   1.213
26819W        W99079   2.074  42.431  13.826
26820W        W99080   0.374  16.477   0.250
26821W        W99081  15.740  38.107  11.098
26822W        W99082  20.418   6.140  10.168
26823W        W99083  23.571  44.356  12.792
26824W        W99084   9.099  22.257   0.411
26825W        W99085   3.107  17.832  13.415
26826W        W99086  10.327  43.026  14.928
26827W        W99087  10.510  20.387  14.455
26828W        W99088  44.773  21.313   3.780
26829W        W99089  27.882  29.443   1.933
26830W        W99090  31.097  40.315  13.263
26831W        W99091  23.553   8.284  13.958
26832W        W99092   7.071  10.369  14.902
26833W        W99093  32.320  31.934  11.096
26834W        W99094   6.683  40.824  11.965
26835W        W99095  23.279  30.919  11.511
26836W        W99096  20.296  32.510   2.197
26837W        W99097  13.755  41.453   3.690
26838W        W99098   9.694  18.284  14.490
26839W        W99099   8.346  33.515  13.845
26840W        W99100   4.190  12.675  10.750
26841W        W99101   9.895  24.090  14.035
26842W        W99102  16.295  22.727   2.272
26843W        W99103  35.832   2.863  11.198
26844W        W99104   5.269  28.588   0.847
26845W        W99105  30.781  33.543   2.699
26846W        W99106  36.101   9.871   3.735
26847W        W99107  17.380  27.055   3.346
26848W        W99108  22.242  13.258  14.060
26849W        W99109  26.924  28.450  11.956
26850W        W99110   4.399   9.208  12.599
26851W        W99111  40.113   9.818   4.019
26852W        W99112  42.793   0.246   3.241
26853W        W99113  28.531  17.329   3.376
26854W        W99114  13.132  18.755   1.673
26855W        W99115   9.691  23.031  14.886
26856W        W99116  37.875  12.888   2.877
26857W        W99117   2.502  37.431   3.049
26858W        W99118  18.274  10.690  14.319
26859W        W99119  20.621  20.911  14.202
26860W        W99120  19.278  14.722  14.366
26861W        W99121  13.965  29.964  11.484
26862W        W99122  23.067   0.053  12.504
26863W        W99123   0.434  10.247  14.697
26864W        W99124  30.492   5.409   1.937
26865W        W99125   1.502  42.925  11.625
26866W        W99126  15.588  15.442   0.445
26867W        W99127  20.609  29.900  14.430
26868W        W99128  34.394   1.059   0.817
26869W        W99129  27.929  26.308   0.251
26870W        W99130   4.815  38.375  13.750
26871W        W99131  43.833   3.856   0.932
26872W        W99132  19.773  12.180   2.763
26873W        W99133  21.079   9.334   2.849
26874W        W99134  40.888  27.306  14.311
26875W        W99135  17.512  44.480   0.302
26876W        W99136  39.807  34.853   1.415
26877W        W99137  29.198  20.285   3.369
26878W        W99138  29.602   8.916  11.206
26879W        W99139  30.586  23.012   4.660
26880W        W99140  28.468   2.235  10.789
26881W        W99141  31.360  29.100   1.875
26882W        W99142  24.455  44.421  13.980
26883W        W99143  24.463  25.640  10.441
26884W        W99144  15.706  41.443  13.938
26885W        W99145  42.122   6.191   1.821
26886W        W99146  26.462  40.051   2.602
26887W        W99147  34.116   9.718  10.716
26888W        W99148  16.179  31.483   3.675
26889W        W99149   9.268  12.276   2.704
26890W        W99150  26.136  42.695   2.205
26891W        W99151  28.933  15.992   1.306
26892W        W99152  25.532  23.958  11.988
26893W        W99153  40.189  10.338   4.151
26894W        W99154  12.215   0.999   0.279
26895W        W99155  12.152  24.418  11.852
26896W        W99156  44.467  21.977   4.150
26897W        W99157   0.359  42.583  14.342
26898W        W99158   3.550  19.817  13.146
26899W        W99159  12.533  18.062  12.904
26900W        W99160  11.128  22.220   2.368
26901W        W99161   1.344  33.966   4.949
26902W        W99162  21.559   7.251   0.672
26903W        W99163  41.521  30.140  13.609
26904W        W99164   0.027  35.781  10.670
26905W        W99165  28.650  43.974   1.765
26906W        W99166   9.019  26.722  13.412
26907W        W99167  30.326   0.813  10.989
26908W        W99168  19.229  28.549   3.528
26909W        W99169  10.190   7.826  13.619
26910W        W99170  39.751  28.689   0.299
26911W        W99171  24.301   8.872  14.765
26912W        W99172  19.906  44.601   3.790
26913W        W99173  40.413  37.350  11.864
26914W        W99174  19.666  24.034   3.240
26915W        W99175  23.788  26.164  10.354
26916W        W99176  30.035  39.557   3.086
26917W        W99177  14.036   8.929  11.452
26918W        W99178   3.880  40.940  14.449
26919W        W99179  39.439  19.622   1.725
26920W        W99180   1.825   7.236  13.850
26921W        W99181  10.267  36.405   2.232
26922W        W99182  35.255  37.392   2.695
26923W        W99183  37.966  29.780  11.837
26924W        W99184  23.238  43.796   0.337
26925W        W99185  43.878   3.297  13.045
26926W        W99186  44.424   5.842  13.517
26927W        W99187   0.815   3.156  13.883
26928W        W99188  15.288  17.475  14.800
26929W        W99189  24.132  16.600   0.370
26930W        W99190  37.596  39.096  12.646
26931W        W99191   5.715  17.719  13.602
26932W        W99192  44.104  11.174   0.233
26933W        W99193  20.336   8.414   0.380
26934W        W99194  18.588  34.638  11.403
26935W        W99195  12.277   2.828  13.469
26936W        W99196  22.585  26.094  14.427
26937W        W99197  32.651  17.546  10.604
26938W        W99198  27.146   6.838   1.772
26939W        W99199  29.885  20.659  14.272
26940W        W99200  41.227  11.770   4.631
26941W        W99201  34.948  12.346  13.525
26942W        W99202  24.751  28.267  10.767
26943W        W99203   7.409   5.366  14.291
26944W        W99204  43.779  25.846  11.126
26945W        W99205  13.974  21.257  11.690
26946W        W99206  13.653  19.642   4.099
26947W        W99207  44.325  26.097   4.641
26948W        W99208  36.249   9.427  13.381
26949W        W99209  26.688  39.788  12.861
26950W        W99210  37.038  32.042  10.724
26951W        W99211  40.063  25.726  11.139
26952W        W99212  13.766   7.616   4.643
26953W        W99213  14.170   0.695  12.073
26954W        W99214   0.342   5.933  11.945
26955W        W99215  18.509  15.075  14.615
26956W        W99216   9.213  40.139  13.758
26957W        W99217  25.896   2.707  11.147
26958W        W99218  30.179  12.798  12.536
26959W        W99219   5.909  28.361   5.057
26960W        W99220  28.615  26.279   0.732
26961W        W99221  22.849   3.417   9.925
26962W        W99222  27.276  17.846   3.736
26963W        W99223   0.073   6.414  10.676
26964W        W99224   8.685  37.725   0.919
26965W        W99225  13.534  20.524  13.485
26966W        W99226  12.093   4.586  11.223
26967W        W99227   2.920   2.411   2.165
26968W        W99228  12.723  28.173  14.039
26969W        W99229  18.765  29.605  10.655
26970W        W99230  22.868  28.888  10.647
26971W        W99231  25.921  31.462   4.868
26972W        W99232  41.217   4.327  10.842
26973W        W99233   2.296  14.095   1.330
26974W        W99234  23.997  18.827   2.640
26975W        W99235   4.235  19.205  14.849
26976W        W99236  44.875  32.991   3.601
26977W        W99237   9.371  41.087   1.067
26978W        W99238  24.973  23.026   2.924
26979W        W99239  29.665  17.788  13.539
26980W        W99240  27.596   3.622  14.880
26981W        W99241  18.647  38.042  14.375
26982W        W99242   8.318  42.917  12.385
26983W        W99243  34.478  21.582   3.038
26984W        W99244  36.029  14.309   1.332
26985W        W99245  28.617  35.939   1.713
26986W        W99246  41.886  22.645   2.864
26987W        W99247  37.793   8.692  12.097
26988W        W99248   1.805  38.420   3.133
26989W        W99249  38.425  18.245   3.435
26990W        W99250   2.165  44.484  11.926
26991W        W99251  43.844   3.482   2.088
26992W        W99252  10.752   5.394  13.908
26993W        W99253  44.012  18.251   0.794
26994W        W99254  37.602  13.214   3.194
26995W        W99255  39.533  31.082   4.526
26996W        W99256  21.522  30.896   2.680
26997W        W99257  18.028  14.997   0.458
26998W        W99258  24.654   4.404   0.988
26999W        W99259   6.664  23.122   1.725
27000W        W99260  29.142   4.678  11.092
27001W        W99261   6.928  24.588   3.042
27002W        W99262   7.032  23.772   0.024
27003W        W99263  31.561  12.955  12.467
27004W        W99264  29.217  25.848   4.125
27005W        W99265  25.632  35.159  11.951
27006W        W99266   4.865  22.543  10.069
27007W        W99267  34.632  10.146  14.170
27008W        W99268  29.175  33.377   2.224
27009W        W99269  38.017  32.398   2.401
27010W        W99270   4.596  44.950   2.781
27011W        W99271  37.876  15.828  12.538
27012W        W99272   2.275  42.054  10.681
27013W        W99273  37.990  15.431  14.057
27014W        W99274  10.724   3.094  13.515
27015W        W99275  22.623  25.052  10.676
27016W        W99276  13.124  18.697   4.431
27017W        W99277  18.685   2.108  13.517
27018W        W99278  37.954   4.636   0.446
27019W        W99279  40.660  37.323  13.354
27020W        W99280  19.297   7.238  12.789
27021W        W99281  33.118  15.317   4.726
27022W        W99282   0.342  21.654   4.206
27023W        W99283  25.026  35.727  14.093
27024W        W99284   2.278  40.637  11.845
27025W        W99285  34.195   2.537   2.028
27026W        W99286  31.484  30.165  10.911
27027W        W99287  43.330   4.285   2.976
27028W        W99288  21.542  17.805  11.672
27029W        W99289   5.422  38.427  14.867
27030W        W99290  19.663  40.245   4.365
27031W        W99291  14.022   4.732   0.819
27032W        W99292   2.607  38.569  11.098
27033W        W99293   8.362  32.360   0.737
27034W        W99294  40.787  28.046  12.704
27035W        W99295  41.564  12.063  12.516
27036W        W99296  26.718   4.888  10.415
27037W        W99297  42.969   9.322  13.074
27038W        W99298  41.964   5.897  14.725
27039W        W99299  38.542  17.239  12.550
27040W        W99300  42.651  20.179   3.335
27041W        W99301  13.082   8.085   3.819
27042W        W99302  30.699  28.046  11.114
27043W        W99303  22.085  29.557   3.757
27044W        W99304  31.147  16.411   1.830
27045W        W99305  11.570  21.051  11.522
27046W        W99306   4.100  18.823   1.048
27047W        W99307  40.418   0.303   4.208
27048W        W99308  30.617   5.918  11.168
27049W        W99309  34.549   0.430  10.712
27050W        W99310  17.527  28.693   2.397
27051W        W99311  38.073  38.217   3.344
27052W        W99312  13.113  42.951  13.562
27053W        W99313  41.732  32.746  14.334
27054W        W99314  25.006  24.267   2.363
27055W        W99315   8.617  10.206   1.769
27056W        W99316   7.371   7.295   4.710
27057W        W99317  37.058  24.245   2.706
27058W        W99318   0.810  20.550  10.307
27059W        W99319  42.047  12.142  12.329
27060W        W99320  41.900  29.783  14.653
27061W        W99321  22.992  23.117  13.944
27062W        W99322  32.563  11.796   1.262
27063W        W99323   5.958  22.808   0.413
27064W        W99324   3.918   8.765  11.993
27065W        W99325  26.624   0.330   2.900
27066W        W99326  11.851  31.212  11.524
27067W        W99327  38.730  44.474  11.866
27068W        W99328  24.563  35.090   1.809
27069W        W99329  17.277  25.670   3.117
27070W        W99330  17.515  33.837   4.006
27071W        W99331  19.723  26.022   1.415
27072W        W99332  33.135  33.911  12.151
27073W        W99333  39.350   5.983   3.354
27074W        W99334   9.360  30.969   3.349
27075W        W99335   9.787  24.852  12.703
27076W        W99336  12.244  27.982   3.700
27077W        W99337   3.119  37.900   4.786
27078W        W99338  15.509  34.413  10.151
27079W        W99339  35.846  38.105  12.443
27080W        W99340  19.069   7.670   4.239
27081W        W99341  16.120  42.490   2.837
27082W        W99342   7.388  37.543   2.196
27083W        W99343  11.831   4.705  14.840
27084W        W99344   6.937  26.585  13.535
27085W        W99345  24.624  31.932  11.966
27086W        W99346  12.430  33.553   1.066
27087W        W99347   9.693  38.471  12.166
27088W        W99348  25.031  34.994  10.749
27089W        W99349  22.775  25.506  12.418
27090W        W99350   4.106  44.854  10.880
27091W        W99351   7.790  17.491   4.820
27092W        W99352  41.881   5.599  11.100
27093W        W99353  32.638   8.776   1.033
27094W        W99354  34.079  32.928  13.820
27095W        W99355  15.245   7.349  13.259
27096W        W99356   5.827  30.024   4.453
27097W        W99357  42.388   5.384  14.329
27098W        W99358  16.503  13.858   2.454
27099W        W99359  40.574  13.369  14.422
27100W        W99360  13.753   9.324  11.617
27101W        W99361  39.731  20.021   4.411
27102W        W99362  32.037  39.264  10.080
27103W        W99363  28.721  41.136   4.925
27104W        W99364  19.301  15.692   3.691
27105W        W99365   9.192   1.931   3.300
27106W        W99366  44.324  10.732   3.893
27107W        W99367  35.533  43.544  12.379
27108W        W99368   6.904   6.004  11.952
27109W        W99369  10.138  32.547  10.722
27110W        W99370  15.291  10.462  14.459
27111W        W99371  38.843  37.584  12.574
27112W        W99372  23.275  17.294   1.814
27113W        W99373  27.315  12.836   2.348
27114W        W99374  20.626   9.153   2.627
27115W        W99375  32.051  13.701  14.496
27116W        W99376  44.430   5.180   0.217
27117W        W99377  27.699   7.234  13.967
27118W        W99378   7.977  29.594  12.994
27119W        W99379   0.479  18.266   1.453
27120W        W99380  11.839  36.441   4.658
27121W        W99381   8.203  34.566   4.663
27122W        W99382  10.466  30.359   2.934
27123W        W99383  38.057  40.367  14.604
27124W        W99384  39.510  33.570  13.497
27125W        W99385  41.496  22.761   0.020
27126W        W99386  17.634  36.113   1.817
27127W        W99387  41.699  13.721  11.765
27128W        W99388   0.929  22.104   1.029
27129W        W99389  22.225  25.431   2.720
27130W        W99390  26.590  36.933  13.104
27131W        W99391  26.810   5.728  10.217
27132W        W99392   6.728  20.037   1.798
27133W        W99393  32.804  18.700  13.230
27134W        W99394  30.854   1.182  13.821
27135W        W99395  29.081  13.271   4.418
27136W        W99396  21.957  12.709  10.676
27137W        W99397  30.554  34.167  14.509
27138W        W99398   1.796  34.779   2.308
27139W        W99399  22.651  21.677   3.582
27140W        W99400  39.531  37.177  12.451
27141W        W99401   0.180  42.986   3.663
27142W        W99402  26.552   3.339  14.958
27143W        W99403  30.020   0.444  13.920
27144W        W99404   4.328  39.743  12.899
27145W        W99405  11.326  44.342   1.772
27146W        W99406  32.138  36.347   2.751
27147W        W99407   2.910  18.836  11.604
27148W        W99408   7.984   4.387   4.091
27149W        W99409  36.426   8.176  12.425
27150W        W99410  42.371  20.164  14.234
27151W        W99411  39.740  20.249  14.528
27152W        W99412  24.297  16.133  13.407
27153W        W99413   5.330  38.469  13.501
27154W        W99414   6.265  42.605  14.245
27155W        W99415  38.061  23.288   3.282
27156W        W99416  17.830  17.798  10.754
27157W        W99417  25.050   5.656  13.952
27158W        W99418  20.051  32.117   0.742
27159W        W99419  28.678  31.349   0.125
27160W        W99420  35.898   0.698   0.004
27161W        W99421   4.222   4.880   0.276
27162W        W99422  20.243  32.889   4.071
27163W        W99423  16.781  44.079   3.175
27164W        W99424  40.831  32.057   1.485
27165W        W99425  11.917  16.263   3.132
27166W        W99426  44.475   6.548   0.227
27167W        W99427  38.274  10.629   3.200
27168W        W99428   3.294  29.107   2.421
27169W        W99429  33.606   4.697   4.674
27170W        W99430   0.250  13.137   0.980
27171W        W99431  11.130  21.619   2.829
27172W        W99432  34.063  29.553   1.550
27173W        W99433  37.637  16.340  10.654
27174W        W99434  23.076  16.259  10.608
27175W        W99435  37.901  33.012  10.676
27176W        W99436  17.249  15.059  12.794
27177W        W99437  35.965  23.422   0.835
27178W        W99438   8.867   4.758  13.566
27179W        W99439   1.796  35.237   4.759
27180W        W99440   9.295  24.230  11.511
27181W        W99441  35.947  10.635  14.269
27182W        W99442  33.876   1.799   1.699
27183W        W99443   9.890  27.712   1.292
27184W        W99444  17.275  15.582   4.987
27185W        W99445   9.739  22.912  10.451
27186W        W99446  10.478  29.248  13.039
27187W        W99447  34.156  24.593  10.485
27188W        W99448  26.600   7.698  13.110
27189W        W99449  40.278   3.609  10.374
27190W        W99450  43.322  34.557  14.346
27191W        W99451   8.073   5.230   4.487
27192W        W99452   0.355  26.696  13.674
27193W        W99453  33.059  40.020   0.868
27194W        W99454   7.320  15.616   3.659
27195W        W99455  41.905  38.544  11.716
27196W        W99456  23.049   7.840  11.018
27197W        W99457  41.532   9.689   4.541
27198W        W99458  39.444  42.534   3.378
27199W        W99459  24.914   1.040  13.263
27200W        W99460  13.261   7.553   2.619
27201W        W99461   9.120  14.699  10.445
27202W        W99462   5.857  32.898   4.935
27203W        W99463  29.767  27.219  12.495
27204W        W99464   9.793  31.971   1.873
27205W        W99465  43.526  19.104  14.932
27206W        W99466   4.316  27.232  13.783
27207W        W99467  33.258   6.442   2.359
27208W        W99468  14.703  43.232   2.643
27209W        W99469   5.389  27.878   2.533
27210W        W99470  32.548   1.924   4.678
27211W        W99471  20.336  16.529  13.047
27212W        W99472   8.169  22.459   2.897
27213W        W99473  40.610  37.558   0.274
27214W        W99474  42.363  37.801   0.664
27215W        W99475  19.508  21.561  12.718
27216W        W99476   8.599  22.392   0.447
27217W        W99477  38.964  32.453  13.528
27218W        W99478  29.898  14.149   1.782
27219W        W99479  26.708  24.619   3.430
27220W        W99480  37.253  27.194  13.537
27221W        W99481   2.612  12.246   3.220
27222W        W99482  31.565  40.048   1.166
27223W        W99483  44.019  10.794  11.649
27224W        W99484  35.341   0.259   2.180
27225W        W99485  21.556  16.698  14.046
27226W        W99486  44.009  38.104  12.963
27227W        W99487  14.362  25.498   0.923
27228W        W99488  30.345  13.898   4.614
27229W        W99489  36.488  32.885  12.896
27230W        W99490  38.886  23.753  13.925
27231W        W99491  22.201  31.221  14.956
27232W        W99492  15.601  21.718  12.531
27233W        W99493   8.787   1.261  10.881
27234W        W99494  32.253  18.544   3.114
27235W        W99495  44.245  35.483  10.697
27236W        W99496   9.849  11.218   2.832
27237W        W99497  44.197  16.232  11.512
27238W        W99498  22.829   0.930   4.163
27239W        W99499  22.551  18.535  13.182
27240W        W99500  43.888   4.493   1.749
27241W        W99501  31.315  15.244  12.527
27242W        W99502  27.074  29.574  13.022
27243W        W99503  34.634  17.855  10.016
27244W        W99504   6.475  35.276   0.831
27245W        W99505  15.568  14.417   2.268
27246W        W99506   4.978  19.013   0.510
27247W        W99507  25.892  25.249  11.285
27248W        W99508  41.018  33.630   3.233
27249W        W99509  29.884  35.144   1.654
27250W        W99510  10.290  18.468   4.851
27251W        W99511  39.848   5.345  13.869
27252W        W99512  34.571   7.361  13.604
27253W        W99513  41.781  33.384  14.337
27254W        W99514  33.885  40.224  12.881
27255W        W99515  29.220  40.065  12.033
27256W        W99516   5.128  25.558  14.523
27257W        W99517   8.903  42.265  11.049
27258W        W99518   2.068  35.684  11.033
27259W        W99519  13.860   3.974   1.045
27260W        W99520  33.505  14.424  12.448
27261W        W99521  18.887  40.295  10.726
27262W        W99522  25.474  27.517  12.187
27263W        W99523  31.943  27.958  14.936
27264W        W99524   8.082  13.670   0.753
27265W        W99525   5.270  21.157  14.456
27266W        W99526  40.945   6.593  12.476
27267W        W99527  24.112   7.871  13.825
27268W        W99528  16.661  38.402   3.102
27269W        W99529  16.317  39.517  14.822
27270W        W99530  38.428  26.498   4.594
27271W        W99531  24.589   6.634   4.520
27272W        W99532  14.304  12.480  12.021
27273W        W99533   8.890  34.461   1.432
27274W        W99534   4.343   8.904  13.040
27275W        W99535   2.457  38.833  14.843
27276W        W99536  14.306  10.789  11.036
27277W        W99537   2.608  40.496   1.376
27278W        W99538  40.556  28.061   0.794
27279W        W99539   3.811   3.927  14.981
27280W        W99540  40.321  24.765  14.997
27281W        W99541  16.535  43.352   0.274
27282W        W99542  34.787  35.283   0.957
27283W        W99543  44.985  18.852  11.256
27284W        W99544   1.777   0.136   2.525
27285W        W99545   9.921  27.433  14.899
27286W        W99546  13.155  39.943  11.698
27287W        W99547  43.235  16.210  14.967
27288W        W99548  21.375  14.857  10.652
27289W        W99549  38.203  15.560   1.245
27290W        W99550   7.150   1.639  13.400
27291W        W99551   2.350  18.898   3.345
27292W        W99552   7.315  18.335  13.831
27293W        W99553   0.907   0.900   4.507
27294W        W99554  17.972   6.276  14.785
27295W        W99555  28.469  30.133   4.951
27296W        W99556  30.667  15.821  10.249
27297W        W99557  38.984  42.753   2.875
27298W        W99558   8.729  33.643  12.502
27299W        W99559  32.996  43.991   1.381
27300W        W99560  29.648   7.060   4.115
27301W        W99561  27.584   9.359   3.326
27302W        W99562  34.804  15.743  14.881
27303W        W99563  35.005   4.818   1.914
27304W        W99564  38.617  43.558   1.184
27305W        W99565   5.144   8.069  13.063
27306W        W99566  17.142   5.176   1.773
27307W        W99567   6.678  31.623  12.037
27308W        W99568   6.824  23.998  11.246
27309W        W99569   5.064   7.799   3.024
27310W        W99570  41.235  18.487   0.009
27311W        W99571  27.043  18.273  14.438
27312W        W99572  25.613   3.399  11.105
27313W        W99573  23.500   3.423   1.660
27314W        W99574   1.892  19.548  14.744
27315W        W99575  23.822  11.735   2.226
27316W        W99576   8.273  27.666   3.674
27317W        W99577  27.039  22.049   1.197
27318W        W99578   6.420   9.358  11.665
27319W        W99579   9.120  20.674  10.665
27320W        W99580  15.865   7.989   3.702
27321W        W99581   1.483   6.213   2.822
27322W        W99582  19.714   7.628   0.256
27323W        W99583  22.650  33.113  11.153
27324W        W99584  17.796  38.385   1.897
27325W        W99585  22.001  16.254  12.469
27326W        W99586  43.038  26.166   1.604
27327W        W99587   8.709  33.423  13.383
27328W        W99588  38.402  19.501   3.745
27329W        W99589   0.548  18.628   2.196
27330W        W99590  19.498  36.710  11.919
27331W        W99591   3.565  13.762   1.509
27332W        W99592  15.160  33.791  13.580
27333W        W99593  14.264  14.009  14.038
27334W        W99594  34.062  31.157  14.150
27335W        W99595  30.332  40.850   1.333
27336W        W99596  17.181  44.988  10.792
27337W        W99597  36.346  12.392  11.107
27338W        W99598   1.473  17.623   1.839
27339W        W99599  44.579  29.018   1.880
27340W        W99600  41.509   3.755  11.162
27341W        W99601  18.099  26.595  14.082
27342W        W99602  41.295   1.363  12.095
27343W        W99603  34.967  28.156  14.790
27344W        W99604   6.235  39.841   0.006
27345W        W99605  44.416  26.484   5.002
27346W        W99606  38.505  26.467  11.710
27347W        W99607  42.559  38.538  13.352
27348W        W99608  14.294  10.699   0.785
27349W        W99609  41.359  35.683  10.635
27350W        W99610   4.777  23.428  13.023
27351W        W99611   7.175  20.185   4.712
27352W        W99612  31.489  39.911  10.721
27353W        W99613  41.260  25.457   0.861
27354W        W99614   7.724  35.445   4.186
27355W        W99615  25.261   6.930   4.139
27356W        W99616  37.033  39.578  10.651
27357W        W99617  14.816   9.843   2.954
27358W        W99618  23.090  24.102  13.112
27359W        W99619  25.180  42.325  11.219
27360W        W99620  38.590  35.110   4.574
27361W        W99621  37.140  19.500   4.106
27362W        W99622  35.941   6.690   4.492
27363W        W99623   6.111  28.922   3.754
27364W        W99624  15.648   1.267  14.325
27365W        W99625  32.376  34.172  12.598
27366W        W99626  32.256   3.680   0.792
27367W        W99627   6.005   1.248  12.040
27368W        W99628  32.046  13.791  13.985
27369W        W99629  22.311  18.781  11.758
27370W        W99630  26.183  28.624  12.992
27371W        W99631  19.649  18.640   2.145
27372W        W99632  25.701  40.576  13.289
27373W        W99633  23.151   5.770   4.657
27374W        W99634  43.300   6.805  14.050
27375W        W99635  43.000  37.363   0.462
27376W        W99636  37.956  11.392  11.114
27377W        W99637  40.911  39.090  10.494
27378W        W99638  10.638  21.630  13.122
27379W        W99639   7.400   4.209  10.695
27380W        W99640   9.347  25.087  13.360
27381W        W99641  24.705   2.406  12.094
27382W        W99642   9.068  13.412   4.074
27383W        W99643  23.092  11.186   2.272
27384W        W99644   6.348  12.701  13.400
27385W        W99645  16.597  21.139  13.751
27386W        W99646  32.102  16.314   2.209
27387W        W99647  21.620  44.020   2.384
27388W        W99648  26.731  34.681   4.482
27389W        W99649  40.533  11.105   3.708
27390W        W99650  15.935  25.644  11.166
27391W        W99651   4.299  16.708   0.012
27392W        W99652  28.550  29.761   2.200
27393W        W99653  34.587   5.188   1.875
27394W        W99654  40.355  12.340   1.436
27395W        W99655   4.063  22.294  10.520
27396W        W99656  20.064  37.674   4.098
27397W        W99657  19.640  30.071   4.696
27398W        W99658  44.680  12.269   0.200
27399W        W99659   9.804  23.479   4.162
27400W        W99660  30.973  38.623  13.452
27401W        W99661  37.829   9.324   0.507
27402W        W99662   5.269  28.087   1.800
27403W        W99663  27.735   5.330   1.371
27404W        W99664   3.099  43.761  14.445
27405W        W99665   5.884  34.992   0.476
27406W        W99666  28.619  30.012   2.642
27407W        W99667  39.941  27.033   4.387
27408W        W99668  22.797  39.699  11.098
27409W        W99669  30.510  19.012  10.605
27410W        W99670  29.442  32.057   2.894
27411W        W99671  19.628  24.136  12.499
27412W        W99672  31.723  15.225  10.491
27413W        W99673  23.429   0.996   3.772
27414W        W99674  34.412  31.639  13.092
27415W        W99675  29.126  11.830  11.524
27416W        W99676  42.198  11.606  13.621
27417W        W99677  17.671  26.663   3.173
27418W        W99678  30.085  39.302   4.659
27419W        W99679   7.387  23.526  12.420
27420W        W99680  36.105  24.582  13.014
27421W        W99681  42.493   9.550   1.224
27422W        W99682  40.689  29.237   0.909
27423W        W99683  13.604   8.707  14.377
27424W        W99684  35.049   2.522  12.527
27425W        W99685  11.779  27.575   3.469
27426W        W99686  12.301  36.211   4.857
27427W        W99687   4.160   1.272   1.341
27428W        W99688   1.790  34.645  12.837
27429W        W99689  38.682  11.986   3.434
27430W        W99690  32.313   3.555   3.306
27431W        W99691  19.640  14.860  11.109
27432W        W99692  25.614  16.865  12.936
27433W        W99693  18.922  39.236  13.405
27434W        W99694   9.757  25.276   1.880
27435W        W99695   5.802  35.967  10.910
27436W        W99696  14.382  20.085   0.747
27437W        W99697  12.247  28.178  11.037
27438W        W99698  29.043  14.134   0.696
27439W        W99699  35.781  17.287  14.797
27440W        W99700  32.873  40.386  14.732
27441W        W99701  31.213  38.329  11.260
27442W        W99702  24.241  23.102   0.692
27443W        W99703  42.860  38.146  13.565
27444W        W99704  21.463  26.130   4.995
27445W        W99705  22.660  36.514  12.768
27446W        W99706  21.754  12.822  14.391
27447W        W99707  22.102  20.111  12.432
27448W        W99708  21.933  12.853   4.595
27449W        W99709   9.085  18.319   4.511
27450W        W99710  43.943  11.931  12.625
27451W        W99711  15.331  29.569  13.085
27452W        W99712  12.426  27.766   0.872
27453W        W99713  14.945  19.579  12.500
27454W        W99714  22.363  21.230   3.518
27455W        W99715   8.136   1.447   4.082
27456W        W99716  23.978  19.977  11.017
27457W        W99717  16.324  29.565  13.801
27458W        W99718  22.158  22.647  10.568
27459W        W99719   8.389  34.261   1.968
27460W        W99720  43.547  21.496  13.465
27461W        W99721   8.042  18.934  14.675
27462W        W99722   5.954   0.560  12.568
27463W        W99723  21.006  35.456   2.679
27464W        W99724   4.159  32.365   4.416
27465W        W99725   5.434  20.952  12.873
27466W        W99726  33.590   3.858   3.152
27467W        W99727   1.978  41.993  14.091
27468W        W99728   4.757   3.272   3.082
27469W        W99729   3.449  31.125  11.618
27470W        W99730   6.665  14.572  11.539
27471W        W99731  21.983  36.470  14.489
27472W        W99732   9.247  29.080   4.668
27473W        W99733  15.388  38.531  12.172
27474W        W99734  22.282  11.941  13.404
27475W        W99735  10.901  27.912  11.541
27476W        W99736  25.507  27.034  11.217
27477W        W99737  23.453  42.079  13.538
27478W        W99738   6.312   0.064  13.485
27479W        W99739  25.444  15.625  14.323
27480W        W99740   9.356   2.280   4.794
27481W        W99741  23.641  15.651  11.940
27482W        W99742  32.866  10.676   3.729
27483W        W99743  14.066  36.479  14.916
27484W        W99744  17.783   5.197  13.143
27485W        W99745  32.431  39.028   1.813
27486W        W99746  39.306  29.524  11.680
27487W        W99747   2.665  10.358   4.595
27488W        W99748  26.034  34.951  10.490
27489W        W99749   0.293  24.194  10.990
27490W        W99750   8.940  28.174   2.635
27491W        W99751  35.216  39.824   2.721
27492W        W99752  18.928  37.989  12.485
27493W        W99753  26.433   2.389  14.047
27494W        W99754  39.248  13.523   1.748
27495W        W99755  10.502  14.627  11.959
27496W        W99756  10.049  10.048   3.800
27497W        W99757  37.516  25.196  14.425
27498W        W99758  21.705  42.633  13.084
27499W        W99759  40.770  32.484   1.808
27500W        W99760  22.241  38.489  13.161
27501W        W99761   9.389  42.864   3.152
27502W        W99762   3.913  25.560  13.389
27503W        W99763  43.888  18.708  12.962
27504W        W99764  37.202  16.892   2.697
27505W        W99765  17.700  36.979  12.638
27506W        W99766  40.608  33.386  11.259
27507W        W99767   0.603  39.341   4.770
27508W        W99768   4.998   8.021  10.387
27509W        W99769  20.707  32.788   3.871
27510W        W99770   8.858  43.856  12.571
27511W        W99771  32.107   0.462   0.349
27512W        W99772   4.742   1.230  10.565
27513W        W99773  38.659  21.084  12.674
27514W        W99774   5.246  44.354   3.279
27515W        W99775  23.491  36.508   2.953
27516W        W99776  38.822  40.268  12.007
27517W        W99777  19.580  22.589   0.923
27518W        W99778   3.227  41.947   0.923
27519W        W99779  41.001   5.934  13.446
27520W        W99780  42.599  13.052  13.261
27521W        W99781  39.808  23.078  10.733
27522W        W99782   6.540  34.634  12.914
27523W        W99783  40.452  43.482  14.222
27524W        W99784  29.224   8.635   5.064
27525W        W99785  17.724  27.080   0.777
27526W        W99786   3.984  41.961  13.781
27527W        W99787  31.475   8.123   0.710
27528W        W99788  40.105  17.576  14.450
27529W        W99789   2.944  35.621   1.874
27530W        W99790  32.435  22.224  12.347
27531W        W99791  26.482  41.398   1.875
27532W        W99792  16.566  25.038   3.284
27533W        W99793  40.791  30.471  10.244
27534W        W99794  32.278  44.141   0.158
27535W        W99795  41.184  21.121   4.555
27536W        W99796  13.141  21.730   4.146
27537W        W99797  30.384  34.978  12.380
27538W        W99798  39.371  31.733   3.718
27539W        W99799  43.681   5.665   2.518
27540W        W99800  24.164  41.355  11.582
27541W        W99801  15.531  29.049  12.751
27542W        W99802  42.940   0.102  13.225
27543W        W99803  25.225  24.413   3.644
27544W        W99804   8.303   2.858   1.242
27545W        W99805  26.152  11.918   0.366
27546W        W99806  43.781  41.516  14.911
27547W        W99807  29.480   1.901  11.656
27548W        W99808   9.127  12.219  13.761
27549W        W99809  22.415  19.684  14.102
27550W        W99810  36.109  30.034  13.447
27551W        W99811  26.633   1.994  12.322
27552W        W99812  35.488   2.899   0.385
27553W        W99813  28.336  26.162  13.011
27554W        W99814  10.237  21.102  13.306
27555W        W99815  37.450  36.379   4.708
27556W        W99816  35.485   5.206   0.037
27557W        W99817   1.702  19.386  10.689
27558W        W99818   1.721  43.721  10.634
27559W        W99819  40.551   7.275   2.031
27560W        W99820  20.692  33.239   0.301
27561W        W99821  32.877   5.481   3.355
27562W        W99822   5.011  38.391   0.173
27563W        W99823   0.754  17.191  14.917
27564W        W99824  17.622  30.572   4.641
27565W        W99825  37.876  24.597   4.535
27566W        W99826  23.061   6.709   3.688
27567W        W99827   7.805  42.114   2.661
27568W        W99828   1.772  10.539   0.199
27569W        W99829   5.315  30.858   2.714
27570W        W99830  36.316  15.162   2.223
27571W        W99831  37.116  21.058   2.755
27572W        W99832  31.895  19.059   2.493
27573W        W99833  31.357  17.063  10.794
27574W        W99834  31.200   1.879   4.000
27575W        W99835  24.064   1.684  10.481
27576W        W99836   7.119  30.902   1.759
27577W        W99837   7.964  27.504  13.317
27578W        W99838   8.725  30.646   0.775
27579W        W99839  10.113  16.692  12.289
27580W        W99840   0.410  17.539   3.614
27581W        W99841  21.739   9.094   4.730
27582W        W99842  41.215  32.144  14.770
27583W        W99843  42.289   8.201   1.012
27584W        W99844   6.525  33.762   4.205
27585W        W99845   5.952  25.999  14.457
27586W        W99846  30.998  34.710  12.933
27587W        W99847  26.812  10.771  10.467
27588W        W99848   0.228  29.609  10.670
27589W        W99849  23.566  23.119   3.184
27590W        W99850  37.786  12.406  11.156
27591W        W99851  25.556  34.107  14.350
27592W        W99852  27.415  30.705   1.896
27593W        W99853  26.573  25.949   4.915
27594W        W99854   7.647  33.638  12.456
27595W        W99855  19.466  23.994   2.746
27596W        W99856  27.449  27.408  14.829
27597W        W99857  29.591  16.577  10.290
27598W        W99858  17.633  26.252  10.489
27599W        W99859   4.212   2.763   3.684
27600W        W99860   0.585  17.189  11.629
27601W        W99861  23.542  14.878   3.289
27602W        W99862  22.100  19.379  11.197
27603W        W99863  14.216   4.349   1.117
27604W        W99864  31.991  42.120  12.975
27605W        W99865  24.509  16.254  12.409
27606W        W99866  21.072   4.199   1.729
27607W        W99867  43.220  40.199  10.602
27608W        W99868  30.867   8.831  11.654
27609W        W99869  29.631  38.683   9.876
27610W        W99870  35.630  36.588  11.724
27611W        W99871   9.304  35.774   3.225
27612W        W99872  32.145   6.717  14.423
27613W        W99873  12.187  15.424   1.461
27614W        W99874  12.745  11.404  14.231
27615W        W99875  40.493  24.063  10.606
27616W        W99876   9.933  13.114   3.592
27617W        W99877  37.851   5.244   3.211
27618W        W99878  36.970  33.346  14.520
27619W        W99879  41.686   0.517   1.286
27620W        W99880   9.444  39.824  14.453
27621W        W99881  10.556  26.245  11.132
27622W        W99882   3.672  19.781   4.056
27623W        W99883  22.688  18.767   3.675
27624W        W99884   9.150  39.377  14.344
27625W        W99885   3.698   7.903   4.989
27626W        W99886  42.290   2.683   2.461
27627W        W99887  36.213  31.427   0.737
27628W        W99888  37.543  41.474   3.876
27629W        W99889   5.447  34.146  12.020
27630W        W99890  39.908  31.943  14.432
27631W        W99891  20.174  14.153  13.442
27632W        W99892   8.790  14.676   2.252
27633W        W99893  28.468  18.195   2.194
27634W        W99894  15.142  23.978  14.224
27635W        W99895  32.613  23.296  12.668
27636W        W99896  13.238  38.783   4.104
27637W        W99897  44.014  32.106   3.419
27638W        W99898   4.286  43.298  13.727
27639W        W99899   3.289   3.812  11.567
27640W        W99900   6.122   7.756  12.482
27641W        W99901   4.982  11.005   0.818
27642W        W99902  39.930  12.889  12.033
27643W        W99903  43.483   2.095  12.874
27644W        W99904  14.410  18.701  14.381
27645W        W99905  43.349   3.812  10.978
27646W        W99906  21.253   2.029  10.699
27647W        W99907  20.400   9.580  14.473
27648W        W99908  30.998   5.600   0.347
27649W        W99909  26.418  31.114  12.909
27650W        W99910   6.974  33.219  13.845
27651W        W99911  35.369   6.747  10.949
27652W        W99912  13.383  18.237   4.287
27653W        W99913   9.672  32.333  12.090
27654W        W99914  39.009  24.031  11.589
27655W        W99915  23.111  33.592   4.705
27656W        W99916  43.992  10.990   4.445
27657W        W99917  20.561   0.709  14.553
27658W        W99918  25.919  20.674   3.161
27659W        W99919   6.332   8.597   3.691
27660W        W99920  36.948   6.344  13.849
27661W        W99921  16.163  21.760   3.119
27662W        W99922  16.342  36.095  13.235
27663W        W99923  32.963   9.268  11.592
27664W        W99924  11.987  36.853   1.803
27665W        W99925  17.649  12.419  11.096
27666W        W99926  42.889  25.495   2.751
27667W        W99927  13.879  11.189   1.394
27668W        W99928  29.179  39.351  13.174
27669W        W99929  42.153   0.398  12.519
27670W        W99930  39.117  21.213  12.475
27671W        W99931  12.753  22.982   4.687
27672W        W99932  24.997   3.901  13.533
27673W        W99933  11.325  13.259  14.889
27674W        W99934   3.371  34.822   3.241
27675W        W99935   4.106   8.189  14.110
27676W        W99936   9.320  25.049  11.963
27677W        W99937  10.049  29.591  12.299
27678W        W99938  10.905   0.444   1.424
27679W        W99939   0.299  40.638   1.619
27680W        W99940   2.290   4.769   3.345
27681W        W99941  29.256  38.061   4.034
27682W        W99942  41.332   9.083   3.692
27683W        W99943  15.726  20.356   4.538
27684W        W99944  10.303  37.490  10.488
27685W        W99945  24.197  38.954  12.518
27686W        W99946  28.159  29.611   2.751
27687W        W99947  36.357  25.835   1.404
27688W        W99948  20.156  19.145   4.096
27689W        W99949  19.308   4.452  12.400
27690W        W99950   9.751  33.339   2.291
27691W        W99951   8.270  12.163   1.769
27692W        W99952  37.132  18.048   1.334
27693W        W99953  33.649  35.753  11.626
27694W        W99954  30.935  18.986   1.522
27695W        W99955  22.410   1.341   0.307
27696W        W99956  22.114  10.377  14.002
27697W        W99957  36.189  29.661   2.359
27698W        W99958  12.096  20.780   4.134
27699W        W99959   1.619  15.918  14.905
27700W        W99960  10.666  26.776  13.966
27701W        W99961  34.565  38.491   4.353
27702W        W99962   3.884  39.383  11.398
27703W        W99963  30.348   9.328   3.889
27704W        W99964  24.082  29.438  13.287
27705W        W99965  38.472  26.820   0.890
27706W        W99966  19.623  21.672   2.534
27707W        W99967  25.701  37.469   3.733
27708W        W99968  31.624  11.161   0.716
27709W        W99969  33.612  20.729  14.158
27710W        W99970   8.674  36.132   0.084
27711W        W99971  13.193  34.964  14.698
27712W        W99972   5.485   6.485   4.445
27713W        W99973   5.379   2.692  12.874
27714W        W99974  22.167  17.243  10.554
27715W        W99975   8.278  23.568   0.251
27716W        W99976  16.583  39.320   0.524
27717W        W99977   1.452  22.523   3.109
27718W        W99978   8.737  33.392   4.396
27719W        W99979  12.761  43.335  14.858
27720W        W99980   1.302  15.087   4.229
27721W        W99981  16.762  21.441  12.061
27722W        W99982  38.597  11.782   2.343
27723W        W99983  41.116  15.717  13.895
27724W        W99984  39.655  15.644  14.828
27725W        W99985  12.425  19.063   3.873
27726W        W99986   7.129  21.163  10.579
27727W        W99987  34.969  10.117   0.359
27728W        W99988   5.355   2.301  14.008
27729W        W99989  26.082  24.218   4.570
27730W        W99990  26.116   3.712  13.330
27731W        W99991  26.392  39.940  11.573
27732W        W99992  17.728  28.401  10.724
27733W        W99993  42.085  36.559   2.743
27734W        W99994  34.455  27.367   0.188
27735W        W99995  37.382  44.084  13.357
27736W        W99996  37.044  13.700  13.354
27737W        W99997  28.795  14.482  12.523
27738W        W99998  12.654  15.720   3.620
27739W        W99999  41.400  25.942  11.169
27740W        W    0  13.431   8.305  13.526
27741W        W    1   6.872  27.898   3.673
27742W        W    2  41.506  12.620   0.077
27743W        W    3  12.788  21.571   2.585
27744W        W    4  27.258  36.986   1.943
27745W        W    5  27.060  30.904  13.943
27746W        W    6  19.685  36.560  14.077
27747W        W    7  19.787   6.727   1.721
27748W        W    8  41.107  31.006   4.449
27749W        W    9   0.051  39.423   2.725
27750W        W   10  26.690   2.866  14.330
27751W        W   11   3.294   9.081   2.276
27752W        W   12  22.733  29.040   1.912
27753W        W   13  11.746   2.540   2.309
27754W        W   14  27.511  25.735  13.721
27755W        W   15  44.773  16.745  12.965
27756W        W   16   4.489   4.413   3.187
27757W        W   17  44.243  31.109   4.503
27758W        W   18  11.213  40.834  13.910
27759W        W   19   2.779  40.350   1.873
27760W        W   20  27.975  37.284  13.958
27761W        W   21   8.213  37.153   3.691
27762W        W   22  31.699  42.737   3.726
27763W        W   23   5.650  33.966   0.941
27764W        W   24  33.576   0.891  10.508
27765W        W   25   2.794  10.226  11.631
27766W        W   26  33.655  40.934  11.907
27767W        W   27  29.529   6.833   1.339
27768W        W   28  35.373   9.890   2.219
27769W        W   29  27.984   2.488  12.856
27770W        W   30  21.650  16.117  10.901
27771W        W   31  28.672  33.400   2.342
27772W        W   32  25.259  18.456  14.953
27773W        W   33  25.745  25.711  11.101
27774W        W   34  29.946  35.871   4.152
27775W        W   35  13.543  17.787   4.600
27776W        W   36   1.906   2.958  14.410
27777W        W   37  19.227  25.986  12.128
27778W        W   38  39.654   2.504   4.237
27779W        W   39   6.389  16.359   1.635
27780W        W   40  41.591  32.332  13.539
27781W        W   41   0.683  39.153   2.701
27782W        W   42  43.405  17.082   4.867
27783W        W   43  39.880  17.277   1.876
27784W        W   44  12.883  34.463   3.819
27785W        W   45  36.527  21.799  13.102
27786W        W   46  39.021  27.081   2.833
27787W        W   47   6.411  29.018   9.885
27788W        W   48  37.533  36.066   3.780
27789W        W   49  40.319  18.867  14.011
27790W        W   50  35.956  37.452  12.972
27791W        W   51  42.014  30.845   1.836
27792W        W   52   0.054   3.917  13.056
27793W        W   53  36.044  38.931  12.960
27794W        W   54  36.916  24.332   4.523
27795W        W   55  30.354  20.624  13.385
27796W        W   56  35.149  10.238   3.696
27797W        W   57  10.403  11.401   4.509
27798W        W   58  37.951  33.419  10.284
27799W        W   59  14.582  12.579   3.728
27800W        W   60  35.861   4.682   4.604
27801W        W   61  30.542  31.366   3.583
27802W        W   62   8.470  44.886   3.124
27803W        W   63  35.205   5.640  10.892
27804W        W   64  26.473  24.562   1.786
27805W        W   65  18.662  35.837   4.366
27806W        W   66   3.921   0.812   1.441
27807W        W   67  33.371  30.564   5.189
27808W        W   68  34.378   0.286  12.069
27809W        W   69  11.698   6.411  14.778
27810W        W   70  34.882  28.499  12.530
27811W        W   71   3.955  42.760   5.257
27812W        W   72  38.335  13.640  14.032
27813W        W   73  24.981  18.810   2.687
27814W        W   74  37.254  37.946  11.129
27815W        W   75  30.913  36.440   0.550
27816W        W   76  38.414   4.201  12.338
27817W        W   77   2.295  38.861  11.552
27818W        W   78  37.029   5.174   2.725
27819W        W   79   7.790  39.281  13.029
27820W        W   80  36.858   4.123  10.638
27821W        W   81   4.271  17.619   4.615
27822W        W   82  11.996  29.158   4.963
27823W        W   83   8.411  24.566  12.531
27824W        W   84  19.193  34.084   2.761
27825W        W   85  33.159   6.783  11.897
27826W        W   86  19.066  29.723  11.610
27827W        W   87   1.408  11.056   4.701
27828W        W   88  22.509  10.659   2.070
27829W        W   89  35.043  22.439  11.391
27830W        W   90  14.674  26.668   2.360
27831W        W   91  29.154  15.657   0.334
27832W        W   92  34.610  16.248  12.666
27833W        W   93  44.300  13.501   4.711
27834W        W   94  21.617  34.944   4.683
27835W        W   95  20.625  40.458  13.695
27836W        W   96  29.642  41.484  12.834
27837W        W   97  41.464  20.040   2.967
27838W        W   98  20.560  43.842   4.749
27839W        W   99   2.058  24.667  13.750
27840W        W  100  35.459  21.641  11.621
27841W        W  101   1.323  29.213   2.967
27842W        W  102  10.165  23.733   0.318
27843W        W  103  36.088  11.813   0.274
27844W        W  104  31.749  38.301  12.108
27845W        W  105  37.798  23.654  12.772
27846W        W  106  16.241  41.419  13.963
27847W        W  107  27.973  17.225   0.931
27848W        W  108   9.359  36.811   4.169
27849W        W  109  24.661  30.898  10.511
27850W        W  110  19.008   5.348  13.836
27851W        W  111  21.010  26.722  13.831
27852W        W  112  44.693  38.927   3.822
27853W        W  113   2.782   5.756   3.137
27854W        W  114  30.656  17.775  12.001
27855W        W  115  41.947  30.848   3.846
27856W        W  116  30.114   9.914   0.375
27857W        W  117  35.490  13.373   3.155
27858W        W  118  25.768  35.082  11.053
27859W        W  119  17.572  35.891   4.981
27860W        W  120  44.976  34.210   1.737
27861W        W  121  41.743  15.568   3.849
27862W        W  122  28.173  41.065  10.652
27863W        W  123  10.939  34.474  10.550
27864W        W  124  20.292   9.897   2.368
27865W        W  125  32.175  33.507  11.377
27866W        W  126  28.010   8.399   2.731
27867W        W  127  37.736  11.768   2.767
27868W        W  128  20.166  38.546   2.184
27869W        W  129  28.332  16.446   2.197
27870W        W  130   1.614   5.316  11.987
27871W        W  131  22.907  28.947  14.516
27872W        W  132  22.203   5.312  10.982
27873W        W  133  11.304  23.171  13.125
27874W        W  134  39.312  38.323  14.348
27875W        W  135  33.593  36.940  12.873
27876W        W  136   7.796  44.346   4.582
27877W        W  137  30.008  38.654  13.493
27878W        W  138  29.996  30.930  11.038
27879W        W  139  44.994  26.598  12.798
27880W        W  140   0.306  25.688   0.342
27881W        W  141  31.662  33.908  10.777
27882W        W  142   3.293  20.754   4.551
27883W        W  143   2.633   7.475  11.992
27884W        W  144  31.675  16.344  12.948
27885W        W  145  43.762  33.545   3.666
27886W        W  146   7.116  33.429   0.069
27887W        W  147  20.119  15.999   2.694
27888W        W  148  43.886  28.321   3.082
27889W        W  149   4.792  19.890  14.754
27890W        W  150  12.203  41.037   1.262
27891W        W  151  33.592  23.606  11.124
27892W        W  152  24.026  39.989  12.468
27893W        W  153  40.488  33.711   3.116
27894W        W  154  43.569   6.927  14.487
27895W        W  155  15.158  34.444   4.452
27896W        W  156  14.048  13.587   2.918
27897W        W  157   6.257  35.593  12.117
27898W        W  158  40.223  17.548   0.077
27899W        W  159  33.952  20.037   4.648
27900W        W  160  44.996  25.438   3.998
27901W        W  161   7.760   2.055   1.298
27902W        W  162  12.972   3.764   0.423
27903W        W  163   7.896  37.469   2.103
27904W        W  164  29.615  11.887  13.892
27905W        W  165  33.307  41.875   4.648
27906W        W  166   5.737  34.835  12.422
27907W        W  167  36.845  32.981  10.706
27908W        W  168   3.375  21.207   2.329
27909W        W  169  20.317  17.070  13.056
27910W        W  170  22.135  30.120  11.602
27911W        W  171  19.566  39.797   4.619
27912W        W  172   1.698  17.637  11.218
27913W        W  173  11.222  37.257  10.144
27914W        W  174   9.829  36.455  14.539
27915W        W  175   9.129  21.357   3.276
27916W        W  176  41.383  39.430   2.361
27917W        W  177  18.358  21.667  11.658
27918W        W  178  32.919   0.007   2.203
27919W        W  179   5.986  37.993  12.101
27920W        W  180  32.213  33.151   3.428
27921W        W  181  38.869  18.077   3.195
27922W        W  182  31.110  35.664   1.792
27923W        W  183  16.090  33.708  14.420
27924W        W  184   8.895  14.631  12.888
27925W        W  185  12.382  36.488  11.123
27926W        W  186  26.203  14.273   2.275
27927W        W  187  35.940   1.628  13.756
27928W        W  188   4.832  40.672   4.175
27929W        W  189   4.143   6.062   3.466
27930W        W  190  20.526   5.820   4.704
27931W        W  191  21.257   3.263   3.334
27932W        W  192  24.662  12.792  13.591
27933W        W  193  27.481  43.729   1.985
27934W        W  194   3.286   4.220  13.362
27935W        W  195  44.919  42.234   4.658
27936W        W  196  35.550   9.704   1.764
27937W        W  197  39.535  38.622   0.042
27938W        W  198  19.189  30.961   3.611
27939W        W  199   3.664   8.522   0.334
27940W        W  200  20.435   9.180   1.782
27941W        W  201  35.316   7.214  10.732
27942W        W  202  33.540  16.770  10.022
27943W        W  203  39.739   3.736  14.809
27944W        W  204   7.824  12.611   2.294
27945W        W  205  10.401   6.211   4.550
27946W        W  206  34.809  11.856  14.249
27947W        W  207  11.384  44.309  12.545
27948W        W  208   3.201   5.885   4.876
27949W        W  209  23.383  43.096  13.160
27950W        W  210  15.621  15.408  11.419
27951W        W  211   9.530  31.449   2.498
27952W        W  212  32.533   2.400   1.543
27953W        W  213  10.283   6.357  10.172
27954W        W  214  19.777  42.085   0.429
27955W        W  215  27.173  16.222   4.212
27956W        W  216  39.862  29.540  14.398
27957W        W  217   6.658  25.857  11.097
27958W        W  218  14.815  27.490  12.380
27959W        W  219  12.370  30.679   0.209
27960W        W  220  41.494  25.296   4.048
27961W        W  221   1.725  11.569   4.305
27962W        W  222   8.205   3.936   4.225
27963W        W  223  34.011   6.438  11.147
27964W        W  224   2.700  25.500  11.924
27965W        W  225   2.293   8.988   4.485
27966W        W  226   6.611  34.952  12.025
27967W        W  227   3.943  16.605   0.818
27968W        W  228  41.509  21.506   2.744
27969W        W  229  39.279  30.104   1.670
27970W        W  230  36.466  20.140  13.986
27971W        W  231  16.697   4.810  12.650
27972W        W  232  11.372  17.277  12.573
27973W        W  233   2.041  42.814   2.377
27974W        W  234  16.527  22.560   1.734
27975W        W  235  28.648  36.407   4.061
27976W        W  236  42.533  21.060  11.123
27977W        W  237  30.520  15.514  12.591
27978W        W  238  14.555  23.478   3.678
27979W        W  239  40.244   0.296  13.496
27980W        W  240   4.226   8.368   1.854
27981W        W  241  39.879  16.737  12.612
27982W        W  242   1.356  42.527   2.434
27983W        W  243  23.541   6.348  12.091
27984W        W  244  41.522  15.240   1.257
27985W        W  245  25.093  28.578  10.984
27986W        W  246  11.329  13.402  10.392
27987W        W  247  42.815  26.995   0.278
27988W        W  248  15.790  28.408  11.489
27989W        W  249  35.067  27.426  11.434
27990W        W  250  29.038   4.171  11.077
27991W        W  251  44.055  36.623  13.856
27992W        W  252  32.544  36.168  13.012
27993W        W  253  41.269   1.241  12.926
27994W        W  254  44.711   0.510  11.091
27995W        W  255  23.857   5.352  12.170
27996W        W  256  42.939  32.555  14.537
27997W        W  257  25.706  27.578   4.866
27998W        W  258  30.219  37.951   2.685
27999W        W  259  36.443  24.579   4.584
28000W        W  260  43.689   8.983  10.743
28001W        W  261  31.629  22.895   4.662
28002W        W  262  26.823  44.807   3.802
28003W        W  263   6.409  44.990   3.844
28004W        W  264   8.182  14.499  12.339
28005W        W  265  18.205  40.610  14.198
28006W        W  266  42.995  43.855  13.251
28007W        W  267  43.396   7.450  11.136
28008W        W  268  19.714  34.520  11.146
28009W        W  269  43.563  22.842  12.535
28010W        W  270  33.184   6.824   1.107
28011W        W  271   5.845  28.672   5.485
28012W        W  272  15.656  31.140   2.372
28013W        W  273  31.032  13.896   1.894
28014W        W  274   4.927  34.425   4.669
28015W        W  275   0.913  31.436  10.578
28016W        W  276  39.605  26.641  13.332
28017W        W  277  31.687  26.001  13.992
28018W        W  278  22.703   8.946  14.487
28019W        W  279  39.940  33.841  11.525
28020W        W  280   0.985  23.044   4.733
28021W        W  281   6.189   2.796   3.421
28022W        W  282   9.207  20.075  11.585
28023W        W  283   9.565  40.457  11.631
28024W        W  284  40.804  42.745   3.304
28025W        W  285   9.296  40.433   2.887
28026W        W  286  19.920  42.910   4.641
28027W        W  287  32.345  12.758   3.063
28028W        W  288  38.010   3.377  12.464
28029W        W  289  10.958   7.339   3.853
28030W        W  290  37.496  22.543   0.972
28031W        W  291  34.617   1.959  14.958
28032W        W  292  25.218  15.767  11.108
28033W        W  293  18.606  15.215   1.597
28034W        W  294   0.358  43.029  13.045
28035W        W  295  19.917  37.700  12.498
28036W        W  296  23.116  38.450   1.832
28037W        W  297   2.227  24.570   3.235
28038W        W  298  38.960  32.494  14.898
28039W        W  299  35.028  21.299   4.176
28040W        W  300  44.900  25.669  13.283
28041W        W  301  38.559  11.783  11.616
28042W        W  302  21.570   6.260  12.110
28043W        W  303  20.747  44.806  14.287
28044W        W  304  36.196  13.445  11.614
28045W        W  305  40.108  30.033   2.759
28046W        W  306  17.374  34.672  13.889
28047W        W  307  34.016  27.176   4.107
28048W        W  308  17.064  21.780   3.344
28049W        W  309  43.805   8.716   1.925
28050W        W  310  21.393  22.178  10.445
28051W        W  311  12.345   3.396   2.272
28052W        W  312  40.521   6.640  14.894
28053W        W  313  42.321  15.623   2.331
28054W        W  314   8.452   2.428  12.083
28055W        W  315  19.519   4.884   1.245
28056W        W  316  44.951  13.657   2.810
28057W        W  317  29.580   1.073   2.880
28058W        W  318  40.868   1.329  14.421
28059W        W  319  21.756  32.118  12.869
28060W        W  320  44.042  40.418  10.923
28061W        W  321  12.105   4.907  11.960
28062W        W  322  22.729  38.550   0.070
28063W        W  323  13.179  14.259   3.589
28064W        W  324   7.836  21.094   2.600
28065W        W  325  29.600  22.631   2.906
28066W        W  326  38.051   6.785   9.582
28067W        W  327  33.935  11.532   2.391
28068W        W  328  44.696   4.732  13.555
28069W        W  329  36.333  16.048  13.004
28070W        W  330   7.246  38.090  13.534
28071W        W  331   3.765   8.938  13.928
28072W        W  332  21.247  40.869   1.465
28073W        W  333  33.473  19.188   4.342
28074W        W  334  24.068  38.741  13.927
28075W        W  335  12.592  10.407  10.632
28076W        W  336   0.376   0.407   0.245
28077W        W  337   2.399   1.299  13.742
28078W        W  338  22.785  18.229   5.442
28079W        W  339  36.793   9.691  14.811
28080W        W  340  40.321  26.405   3.650
28081W        W  341  39.407   0.176  14.614
28082W        W  342  33.044  40.578   3.099
28083W        W  343  15.109  26.641   0.706
28084W        W  344  23.969   4.769   0.886
28085W        W  345   9.809   0.399  11.901
28086W        W  346  15.558   1.287   4.067
28087W        W  347  18.236   4.271   0.267
28088W        W  348   2.799  38.278   4.601
28089W        W  349  19.672  17.839  13.802
28090W        W  350  23.031  27.490   2.867
28091W        W  351  31.868  22.021   0.875
28092W        W  352  30.629   0.938   1.373
28093W        W  353  24.657   9.686   4.604
28094W        W  354  29.887   4.225   0.816
28095W        W  355  34.078   4.498  11.445
28096W        W  356  11.429  10.774  14.447
28097W        W  357  12.948  42.246   1.936
28098W        W  358   2.816  37.460  11.532
28099W        W  359  37.927  12.395  11.990
28100W        W  360   4.747   3.429  12.938
28101W        W  361  37.397  15.240  11.555
28102W        W  362  34.297  36.432  13.484
28103W        W  363  34.835  34.342   1.762
28104W        W  364   1.364  22.209   4.546
28105W        W  365  28.581  39.423  11.641
28106W        W  366   0.984  25.266  11.178
28107W        W  367  40.553  43.007   0.284
28108W        W  368   1.278  40.808   3.080
28109W        W  369  22.072  38.719   4.174
28110W        W  370  25.901  38.163   1.981
28111W        W  371  16.630  40.120   0.950
28112W        W  372  15.517   6.754   3.656
28113W        W  373  29.776   0.918   1.074
28114W        W  374  34.947  38.669  11.087
28115W        W  375   0.475  31.471   0.845
28116W        W  376  17.181  27.365   3.768
28117W        W  377  20.841   8.557  12.406
28118W        W  378   6.894  10.212   0.374
28119W        W  379  38.320  31.885   3.600
28120W        W  380  32.615  12.330   2.160
28121W        W  381  37.996  10.945   5.494
28122W        W  382  10.855  43.260   2.246
28123W        W  383  20.727  25.202   0.969
28124W        W  384  41.036  11.630   1.053
28125W        W  385  17.285  24.193  12.504
28126W        W  386  15.216  11.121   4.456
28127W        W  387  19.234   2.323   3.768
28128W        W  388  11.926   2.298   0.546
28129W        W  389   7.844  27.288  10.964
28130W        W  390  15.135  15.474   4.599
28131W        W  391  23.530   9.158  14.333
28132W        W  392   8.099   1.847  11.681
28133W        W  393  40.984  37.069  14.221
28134W        W  394  40.957  28.421  11.944
28135W        W  395  44.787   2.277  12.705
28136W        W  396  42.379  11.767   1.457
28137W        W  397  44.283  39.682   1.816
28138W        W  398  22.858  43.344   3.367
28139W        W  399  32.961  20.981   3.724
28140W        W  400  40.722   4.966   4.139
28141W        W  401  14.789  35.599  13.620
28142W        W  402  28.586   7.768  12.876
28143W        W  403  35.033  29.030  13.923
28144W        W  404  30.858  41.328   0.739
28145W        W  405  32.433  43.277  13.426
28146W        W  406   9.266  40.827  12.934
28147W        W  407  43.981  32.458   1.017
28148W        W  408   9.149   1.755  14.584
28149W        W  409  15.806  29.038   1.484
28150W        W  410  33.397  38.485   4.612
28151W        W  411  27.528  15.649   0.364
28152W        W  412  27.681   2.168   1.295
28153W        W  413  32.667  29.066   0.416
28154W        W  414  18.665  24.116  11.519
28155W        W  415  40.339   0.023  11.151
28156W        W  416   4.248  29.702  14.095
28157W        W  417  43.008  29.765  11.499
28158W        W  418   3.168  19.271   3.605
28159W        W  419  12.170  15.150  11.581
28160W        W  420  37.846  10.701  12.278
28161W        W  421  18.044  21.216  13.901
28162W        W  422   2.779   9.282   3.644
28163W        W  423  34.092  13.808  13.225
28164W        W  424  37.320   5.332  12.847
28165W        W  425  18.758  32.257  12.295
28166W        W  426   1.480  41.531   4.987
28167W        W  427  27.684   7.882   3.363
28168W        W  428  10.113  44.546  12.426
28169W        W  429  43.052   3.215   0.683
28170W        W  430  36.070  20.108   4.759
28171W        W  431   9.565   8.396  11.131
28172W        W  432   5.524  11.343  14.395
28173W        W  433  24.019   3.689  11.605
28174W        W  434   7.662   0.883   3.653
28175W        W  435  40.234   8.077   4.571
28176W        W  436  41.889  11.466   0.085
28177W        W  437   1.893  11.802  12.808
28178W        W  438   0.491   1.616  12.873
28179W        W  439  34.541  32.053   2.268
28180W        W  440  26.627  38.737  10.217
28181W        W  441  34.335  21.529   2.545
28182W        W  442  44.886  22.635   3.306
28183W        W  443  44.708   0.328  13.935
28184W        W  444   1.031   7.702   0.801
28185W        W  445  39.537  10.444   1.340
28186W        W  446  21.108  10.310  13.132
28187W        W  447  20.825  19.223   4.297
28188W        W  448  36.278  16.685   0.209
28189W        W  449   2.936  37.826   4.301
28190W        W  450   5.153  10.358   4.876
28191W        W  451  28.204  39.780  12.396
28192W        W  452  34.666  33.596   2.337
28193W        W  453  41.509  16.843   3.905
28194W        W  454  13.408  31.726   1.775
28195W        W  455  37.308  37.052   2.239
28196W        W  456  10.379  42.508  12.390
28197W        W  457  12.644  15.139  10.759
28198W        W  458  43.457   7.103   2.700
28199W        W  459   3.316  12.406  13.386
28200W        W  460  13.190  42.551   1.537
28201W        W  461  18.309  13.101   2.003
28202W        W  462  29.855  42.526   4.236
28203W        W  463  28.378   6.802  14.423
28204W        W  464   7.275   3.615  14.000
28205W        W  465  38.904  40.256   2.944
28206W        W  466  23.107  27.467  14.182
28207W        W  467   6.409  42.037  10.728
28208W        W  468   9.219   6.970   0.351
28209W        W  469  38.440  24.476   3.679
28210W        W  470   8.457  22.795   3.734
28211W        W  471  21.439  21.252  10.655
28212W        W  472  44.072  25.322   4.231
28213W        W  473  37.847  20.417  14.048
28214W        W  474  18.706   3.744  14.812
28215W        W  475  41.756  34.685  13.326
28216W        W  476  14.957  39.804  14.888
28217W        W  477  15.751  22.959   1.703
28218W        W  478   0.162   2.667  11.745
28219W        W  479  38.967  19.553  14.596
28220W        W  480  27.604  29.845   4.712
28221W        W  481  29.330  33.686   1.840
28222W        W  482  10.765   2.816   1.837
28223W        W  483  27.709   4.638  12.003
28224W        W  484   1.414  35.936   0.875
28225W        W  485   4.535  10.375  11.456
28226W        W  486  11.685  21.733  11.023
28227W        W  487  33.396  31.522   3.593
28228W        W  488  23.529  12.200  13.129
28229W        W  489  15.329  38.780   1.277
28230W        W  490  42.058  35.482   0.909
28231W        W  491  14.562  27.664  14.047
28232W        W  492   5.413  26.844   3.143
28233W        W  493   9.759  22.592  13.939
28234W        W  494   0.812  35.211   1.227
28235W        W  495   5.878  19.140   4.091
28236W        W  496  32.498   4.864   2.160
28237W        W  497  12.071   7.363   0.634
28238W        W  498  23.377  10.414  10.788
28239W        W  499  17.360  34.434  13.443
28240W        W  500  10.648  27.521  10.636
28241W        W  501  28.924  42.371   4.273
28242W        W  502   3.445  24.289  10.872
28243W        W  503  18.249   6.162   2.182
28244W        W  504  12.675   1.466  13.985
28245W        W  505   5.775  33.380   2.811
28246W        W  506  39.563  38.346  11.469
28247W        W  507  20.587   7.740  12.895
28248W        W  508  25.716  35.398  11.509
28249W        W  509   4.934   6.901   2.812
28250W        W  510   1.652   6.930   0.251
28251W        W  511  25.989  44.377  14.130
28252W        W  512  22.556  25.905  10.161
28253W        W  513  10.561  31.520   2.204
28254W        W  514  26.952  29.210   0.908
28255W        W  515  19.962  14.527   2.693
28256W        W  516  22.275  29.095  12.465
28257W        W  517  42.964   8.881  13.353
28258W        W  518  43.976   0.122  11.077
28259W        W  519  34.606   8.747  13.104
28260W        W  520  38.046  33.409   2.164
28261W        W  521  28.428   9.782  11.558
28262W        W  522   8.627  17.765   3.310
28263W        W  523  14.020  14.230   5.066
28264W        W  524  28.047   3.986  12.463
28265W        W  525  18.600  22.979   2.329
28266W        W  526  40.229  38.904   1.515
28267W        W  527  44.676  27.599   1.282
28268W        W  528   9.263  32.161   4.705
28269W        W  529   7.499  12.421  11.597
28270W        W  530  20.257  42.926  14.332
28271W        W  531  16.093  34.422   3.303
28272W        W  532  30.208  22.041   4.086
28273W        W  533  12.258  33.682   2.426
28274W        W  534  15.760  33.136  10.413
28275W        W  535   7.453  32.818   1.902
28276W        W  536  19.619   5.269   0.006
28277W        W  537  17.963  17.989  12.391
28278W        W  538  33.574  38.434  10.829
28279W        W  539   4.969  41.844  12.037
28280W        W  540  11.731  39.486  10.608
28281W        W  541  16.750  16.194   4.511
28282W        W  542  17.774  34.283   2.766
28283W        W  543   4.678  20.655   3.875
28284W        W  544  23.552  35.439   4.712
28285W        W  545  23.167  19.073   0.319
28286W        W  546  10.922  19.689   3.320
28287W        W  547  24.776  16.795  14.878
28288W        W  548  44.924  12.031  13.770
28289W        W  549  15.191  24.949   0.960
28290W        W  550   0.520  38.330  14.975
28291W        W  551  40.571  17.338  13.574
28292W        W  552  39.428  29.850  14.359
28293W        W  553  35.465  13.226   0.657
28294W        W  554  24.151  44.706  10.950
28295W        W  555   2.100  21.302  12.889
28296W        W  556   3.880   0.167   0.708
28297W        W  557  12.396  28.047  13.039
28298W        W  558  18.058  26.616  11.675
28299W        W  559  10.602  30.849  11.401
28300W        W  560  40.282  12.391  14.443
28301W        W  561   5.558  29.531  11.756
28302W        W  562   4.984  29.607   2.580
28303W        W  563   4.554   7.154  12.511
28304W        W  564  32.408  28.910  11.353
28305W        W  565  14.519  23.595   4.178
28306W        W  566  10.839   0.738  12.432
28307W        W  567   7.886  34.329   2.778
28308W        W  568  18.789   5.719   3.848
28309W        W  569  18.509  25.082  10.299
28310W        W  570   4.435   0.053  12.127
28311W        W  571  28.678  23.637   1.947
28312W        W  572  41.931  31.855   0.987
28313W        W  573   4.236  27.156  10.997
28314W        W  574  35.578  31.811  13.014
28315W        W  575  17.326   1.821   0.420
28316W        W  576   9.901   1.073   3.744
28317W        W  577  21.528  11.332  11.550
28318W        W  578   6.210   3.458  14.273
28319W        W  579  11.458   7.292   3.942
28320W        W  580   8.204  36.143  13.790
28321W        W  581  14.491   3.826   3.098
28322W        W  582   8.277  10.746  11.248
28323W        W  583   5.417   4.794   4.074
28324W        W  584  30.134  25.170   2.273
28325W        W  585   2.406  42.959   2.766
28326W        W  586  21.536  13.120  13.089
28327W        W  587  11.550   3.020   2.351
28328W        W  588  22.551   5.931  12.138
28329W        W  589  15.116  22.995  14.084
28330W        W  590  36.986  13.528   1.232
28331W        W  591  10.238   3.278   4.292
28332W        W  592  39.591   3.885  10.438
28333W        W  593   9.750  40.749  12.777
28334W        W  594  24.082  33.630   4.636
28335W        W  595   6.457  33.146   1.825
28336W        W  596  13.854  29.249   1.460
28337W        W  597  16.795  41.254  12.129
28338W        W  598  21.718  23.932  10.638
28339W        W  599  38.315  28.052  14.400
28340W        W  600   1.314  28.188   2.769
28341W        W  601  31.325  23.515  10.422
28342W        W  602  23.931  36.861  13.582
28343W        W  603  35.353  25.577   1.300
28344W        W  604  22.516  34.619  10.935
28345W        W  605  31.144  21.625   3.798
28346W        W  606  21.021  15.835  12.111
28347W        W  607   6.188  40.917   1.723
28348W        W  608  33.120  44.321   3.784
28349W        W  609   6.229  24.538   2.366
28350W        W  610  15.246   9.754   2.269
28351W        W  611  38.404   0.530   4.043
28352W        W  612  30.044  20.142   0.899
28353W        W  613  23.742  22.653   0.919
28354W        W  614  11.079  37.015   1.266
28355W        W  615  33.206   6.716   1.947
28356W        W  616  36.119  25.208   1.249
28357W        W  617  33.042  14.151   3.399
28358W        W  618  36.334  25.901  11.581
28359W        W  619   4.978  12.559   1.936
28360W        W  620  28.417  15.693  14.341
28361W        W  621  12.095  42.033   3.308
28362W        W  622  24.243  22.695   1.029
28363W        W  623  10.296  34.854   4.432
28364W        W  624  39.137   6.870  10.642
28365W        W  625  16.070  26.977  12.541
28366W        W  626   1.919  44.531  14.546
28367W        W  627  28.515  34.099   0.749
28368W        W  628  24.656  13.322  13.539
28369W        W  629  18.768  28.004   3.387
28370W        W  630  31.717  12.114  11.426
28371W        W  631  18.567   4.882   4.140
28372W        W  632  16.298   1.851  11.657
28373W        W  633  21.570   4.948  10.541
28374W        W  634  13.541  15.252  11.041
28375W        W  635  14.085  33.553   2.409
28376W        W  636  23.608  15.855  13.035
28377W        W  637  43.602  35.653  13.846
28378W        W  638   2.071   2.969   4.112
28379W        W  639  20.522  21.612   4.708
28380W        W  640  29.385  27.003   1.103
28381W        W  641  10.122  15.225  10.728
28382W        W  642  12.081  40.898  10.694
28383W        W  643   6.233   0.801  12.160
28384W        W  644  17.705   9.623  13.456
28385W        W  645  16.666  12.094   3.631
28386W        W  646  42.002  16.174  14.013
28387W        W  647  42.975   9.803   1.041
28388W        W  648   0.837  37.455   4.620
28389W        W  649  14.016  17.060  11.142
28390W        W  650  20.828  22.518   5.093
28391W        W  651  20.106   2.511  14.866
28392W        W  652  38.290  42.514  12.521
28393W        W  653  35.756   4.628  14.295
28394W        W  654  13.274  43.895   2.728
28395W        W  655   4.870  22.398  14.367
28396W        W  656  40.983  15.865   0.926
28397W        W  657   5.843  31.599   0.376
28398W        W  658   9.234  43.035  14.811
28399W        W  659  24.747   3.797  13.974
28400W        W  660   4.830  36.092   3.186
28401W        W  661   2.365  28.674   2.365
28402W        W  662  17.142   6.392   2.938
28403W        W  663   2.290  13.327   4.311
28404W        W  664  40.442   8.763  10.776
28405W        W  665   0.799  15.334  10.986
28406W        W  666  33.546  25.009   4.540
28407W        W  667  40.434  35.878  14.749
28408W        W  668  26.494  43.070  10.993
28409W        W  669   1.497   2.439  12.773
28410W        W  670  34.144  17.773  11.622
28411W        W  671   1.158  37.882   4.540
28412W        W  672   5.901  20.936  12.160
28413W        W  673  23.348   3.147   4.168
28414W        W  674  13.613  33.365   0.245
28415W        W  675  38.342  34.213   2.232
28416W        W  676  11.908  37.621   3.317
28417W        W  677  43.432  16.496   2.126
28418W        W  678   5.163  37.708   1.680
28419W        W  679   0.966  31.848  14.625
28420W        W  680  24.276  17.604   0.226
28421W        W  681  22.115   6.206   1.423
28422W        W  682  25.965  29.649   2.385
28423W        W  683   9.818  30.701   4.112
28424W        W  684  44.341   0.809   2.497
28425W        W  685  28.549  25.277  11.566
28426W        W  686  36.513  39.114  13.972
28427W        W  687  35.084   7.682  12.372
28428W        W  688  14.839  27.896   3.597
28429W        W  689  26.916  27.567   3.605
28430W        W  690  37.691  32.096   4.143
28431W        W  691  12.878  37.949   0.336
28432W        W  692  19.685  27.579   4.782
28433W        W  693   3.059  25.477   2.882
28434W        W  694  14.337   4.436  11.219
28435W        W  695  44.577  22.020  10.783
28436W        W  696   6.153   9.861   3.239
28437W        W  697  41.955  39.783  12.550
28438W        W  698  24.674  16.187  10.914
28439W        W  699  14.736  33.993  12.974
28440W        W  700   2.430   7.851   1.710
28441W        W  701   1.991  10.166   3.196
28442W        W  702  22.990  10.223   3.099
28443W        W  703  24.071  39.322   4.700
28444W        W  704  39.757  12.319   0.368
28445W        W  705  38.016  33.730   4.197
28446W        W  706  39.782   1.501   2.582
28447W        W  707  16.918  44.597   5.120
28448W        W  708  25.287   5.692  14.925
28449W        W  709   9.406  28.098   2.397
28450W        W  710  22.758  14.372  11.092
28451W        W  711  41.019  34.387   2.590
28452W        W  712  38.630  17.567  13.448
28453W        W  713   6.043  29.519  13.083
28454W        W  714  15.015  36.228  14.327
28455W        W  715  12.235  33.598  12.192
28456W        W  716   7.327  17.736  13.418
28457W        W  717  28.186   6.700  10.699
28458W        W  718  31.412  37.580  12.965
28459W        W  719  42.857  34.441  14.112
28460W        W  720  41.384  38.772   4.081
28461W        W  721  30.817   4.958  13.301
28462W        W  722  18.139   8.662   9.760
28463W        W  723  30.656  35.134   2.948
28464W        W  724  34.042  24.844   4.685
28465W        W  725   4.513  29.080  10.502
28466W        W  726  13.097  15.070  14.959
28467W        W  727  37.071   9.375  11.533
28468W        W  728  38.879  30.068   2.390
28469W        W  729  26.658  18.523  13.330
28470W        W  730  24.585   3.072   0.726
28471W        W  731  29.104   7.102  10.523
28472W        W  732  17.125  11.334   2.462
28473W        W  733  37.998  18.126  12.799
28474W        W  734   7.740  13.375  14.060
28475W        W  735  35.127  36.628  14.851
28476W        W  736   7.860  26.137   0.493
28477W        W  737  39.167   3.335   5.132
28478W        W  738  26.090  17.419  12.528
28479W        W  739  30.974   0.251   1.495
28480W        W  740  37.793  19.671  11.021
28481W        W  741  40.388   1.443  13.473
28482W        W  742   0.031  25.584   3.471
28483W        W  743  43.401  10.348   0.516
28484W        W  744  44.840   2.512   0.339
28485W        W  745  40.900  19.059  10.546
28486W        W  746  39.532  37.552  10.810
28487W        W  747  18.223  12.328   0.905
28488W        W  748  14.217  16.064   4.698
28489W        W  749  20.010  13.493  12.107
28490W        W  750  24.799  27.357   3.920
28491W        W  751  26.111  17.801  14.575
28492W        W  752  36.770  26.004   0.416
28493W        W  753  27.964  15.555  11.986
28494W        W  754  16.803  30.584  11.555
28495W        W  755  10.587  35.523   2.395
28496W        W  756  22.481  32.046  13.852
28497W        W  757  17.954  10.864   2.670
28498W        W  758  16.313   5.852   1.292
28499W        W  759  19.719   8.434   0.931
28500W        W  760   9.377   0.348  12.189
28501W        W  761   4.333   3.084   0.755
28502W        W  762  11.346  12.474  14.395
28503W        W  763  44.337  27.980   4.501
28504W        W  764   6.417  26.666   0.846
28505W        W  765   6.225  35.585   3.969
28506W        W  766  17.555  20.194   2.796
28507W        W  767   1.286   5.170  13.332
28508W        W  768  21.700  21.007  11.033
28509W        W  769  13.396  34.852   4.592
28510W        W  770  11.623  38.079  12.654
28511W        W  771  44.254   1.186   4.868
28512W        W  772   6.830  19.726  12.477
28513W        W  773  16.609  10.906   0.485
28514W        W  774  26.699  14.187   4.538
28515W        W  775  33.326  20.910   1.701
28516W        W  776   2.188  23.546  10.647
28517W        W  777  32.464  37.604  14.883
28518W        W  778  37.300  37.619   0.333
28519W        W  779  18.362  11.817   0.785
28520W        W  780   4.214  31.580   2.230
28521W        W  781  17.552  24.144  14.904
28522W        W  782   0.458   8.904  14.905
28523W        W  783  32.462  16.173   1.865
28524W        W  784  34.181  24.741   3.271
28525W        W  785  28.601   2.863  14.810
28526W        W  786   8.692  11.644   3.179
28527W        W  787  15.418  18.669  14.301
28528W        W  788  35.409  39.477   3.345
28529W        W  789   6.862  38.986  13.873
28530W        W  790   6.854  10.293  12.098
28531W        W  791  34.877  41.879   1.916
28532W        W  792   7.747  25.253  12.141
28533W        W  793  37.136  30.917  13.403
28534W        W  794   6.321  13.395  11.018
28535W        W  795  44.719  12.427   1.627
28536W        W  796  35.364  41.571  13.554
28537W        W  797  42.023  44.354   0.682
28538W        W  798  36.897  20.804   0.473
28539W        W  799  12.860  22.017  10.484
28540W        W  800  16.585  35.159   1.805
28541W        W  801  30.654  11.263  11.747
28542W        W  802  23.900   1.024  14.460
28543W        W  803  11.096  19.367  11.087
28544W        W  804  22.902   6.820  10.189
28545W        W  805   6.738  28.001  14.501
28546W        W  806  22.212  17.254   3.012
28547W        W  807  44.088   7.771  11.585
28548W        W  808   4.430  19.697   0.716
28549W        W  809  42.025  36.925   3.638
28550W        W  810   8.857  38.586   2.837
28551W        W  811   3.775  17.587   3.364
28552W        W  812  16.166  38.441   4.791
28553W        W  813  28.341  29.077  13.598
28554W        W  814  40.860  38.057   2.166
28555W        W  815   1.766  35.660  13.030
28556W        W  816  32.358  13.723   2.398
28557W        W  817  43.761  38.449  14.015
28558W        W  818  19.695   8.775  10.364
28559W        W  819  16.610   5.434   1.308
28560W        W  820  43.884  24.407   0.375
28561W        W  821  38.618  33.848   2.955
28562W        W  822   2.873   0.628  13.397
28563W        W  823  35.659  38.807  14.688
28564W        W  824  36.427  20.573  11.411
28565W        W  825  24.616  18.817  10.767
28566W        W  826  29.493  40.949  14.794
28567W        W  827  19.531  44.696  12.737
28568W        W  828  32.590  13.787  12.756
28569W        W  829  15.125  31.842  11.453
28570W        W  830  25.292   1.049   3.779
28571W        W  831  22.017   8.779   2.208
28572W        W  832   2.592  21.266   5.131
28573W        W  833  24.087   9.372   2.557
28574W        W  834  28.136  14.054   0.217
28575W        W  835  23.060  22.190  12.407
28576W        W  836  15.892   1.463  13.902
28577W        W  837   2.654  35.035   3.727
28578W        W  838   6.445  38.015  11.897
28579W        W  839  13.608   6.412   0.937
28580W        W  840  32.087   1.286   0.187
28581W        W  841  40.316  43.451  14.739
28582W        W  842  28.104  24.618  13.212
28583W        W  843  28.308   1.011   0.619
28584W        W  844  38.856   3.383   4.686
28585W        W  845  31.356  26.908  13.108
28586W        W  846  38.678  19.443   0.154
28587W        W  847  35.986   0.842   5.191
28588W        W  848  28.554  31.548   1.885
28589W        W  849   8.276  23.984  11.654
28590W        W  850  41.949   2.265  12.878
28591W        W  851   4.937  37.945  12.118
28592W        W  852  11.078  25.044   3.545
28593W        W  853  22.148  36.319  13.114
28594W        W  854  15.869   7.261  10.718
28595W        W  855   6.276  30.708  12.531
28596W        W  856  25.222  17.250   3.238
28597W        W  857  43.864  42.907  11.568
28598W        W  858   0.925  19.141  13.699
28599W        W  859  34.147  40.534   0.311
28600W        W  860  22.743   6.825  14.980
28601W        W  861  35.651  35.122  13.472
28602W        W  862  35.938  31.572  11.720
28603W        W  863  18.050   0.234  11.590
28604W        W  864  36.491  18.186   0.668
28605W        W  865   2.510  17.714   1.769
28606W        W  866  19.754  22.146   1.784
28607W        W  867   9.855  16.367  14.078
28608W        W  868  40.650  34.021   0.880
28609W        W  869  29.649   4.990   2.158
28610W        W  870  27.242  21.241  12.874
28611W        W  871  11.223  22.089   4.531
28612W        W  872  21.966  19.608   3.212
28613W        W  873  29.151   0.294  12.058
28614W        W  874   9.697   6.790  10.808
28615W        W  875  23.982  35.547  14.881
28616W        W  876  26.808  36.892   4.220
28617W        W  877   5.338  27.417   0.230
28618W        W  878  30.067  26.858   1.900
28619W        W  879  14.355   7.824   3.180
28620W        W  880  22.404   5.878   1.701
28621W        W  881   2.488  26.760   2.410
28622W        W  882  36.307  37.385   2.828
28623W        W  883  14.142  37.578   4.987
28624W        W  884  26.290  21.652   0.849
28625W        W  885  18.335  20.332  10.780
28626W        W  886  10.992  18.628   1.312
28627W        W  887  30.883  24.081  11.561
28628W        W  888   7.201  35.999  14.907
28629W        W  889  38.460  33.256   0.507
28630W        W  890  14.405   2.159   0.337
28631W        W  891   7.278   1.107   2.845
28632W        W  892  20.801   0.882   3.719
28633W        W  893  25.454  35.536  11.099
28634W        W  894  15.720   7.408   2.407
28635W        W  895  18.144  30.221  11.594
28636W        W  896  23.313  15.054  12.804
28637W        W  897  16.609  10.842  11.700
28638W        W  898  12.823   1.296   1.895
28639W        W  899  21.695  25.533  13.968
28640W        W  900  11.766  39.588  12.482
28641W        W  901   0.682  20.233   1.035
28642W        W  902   9.698  28.193  12.373
28643W        W  903  19.248   2.715  13.907
28644W        W  904  18.227  32.300  13.440
28645W        W  905  25.713  29.055   0.175
28646W        W  906  13.775  37.052   0.368
28647W        W  907  12.730  38.475   2.800
28648W        W  908   5.646  21.055   0.786
28649W        W  909  33.111  21.535   5.006
28650W        W  910  36.371  21.758  12.581
28651W        W  911  34.151  29.009  14.364
28652W        W  912  41.763  26.930   4.290
28653W        W  913  35.891  31.503  14.445
28654W        W  914  10.854  26.253  12.429
28655W        W  915  14.016  37.361  12.999
28656W        W  916  18.392   4.527  13.890
28657W        W  917  16.067   6.711  11.497
28658W        W  918  35.847  15.637   2.878
28659W        W  919  35.516  17.876  10.156
28660W        W  920  27.732  22.395  14.404
28661W        W  921  44.804   1.362  12.171
28662W        W  922  39.480  22.485   3.433
28663W        W  923  16.663  21.782  13.021
28664W        W  924  23.016  17.116   0.300
28665W        W  925  13.888  32.332  12.347
28666W        W  926  17.187  21.527  10.109
28667W        W  927  19.191  24.520   0.769
28668W        W  928  31.631  25.421   3.160
28669W        W  929  31.624  10.278   4.836
28670W        W  930   4.533   5.854   0.855
28671W        W  931  15.264  27.453  12.693
28672W        W  932  10.730  36.776  13.500
28673W        W  933  17.221  27.733  13.686
28674W        W  934  36.139  20.054   0.494
28675W        W  935  22.669  17.552   1.760
28676W        W  936  26.423  37.289  10.733
28677W        W  937  28.260   2.985   2.663
28678W        W  938  24.857  37.840  11.200
28679W        W  939  21.668  15.133   3.831
28680W        W  940  13.414   9.111  10.724
28681W        W  941   6.301  41.582  10.498
28682W        W  942   6.181  28.464   2.432
28683W        W  943   1.670  27.700   1.451
28684W        W  944  30.089  38.257   0.557
28685W        W  945  13.619   9.814   4.545
28686W        W  946  23.091  22.260   1.313
28687W        W  947  33.503  24.480  11.705
28688W        W  948  17.381  34.914   2.403
28689W        W  949  26.695  25.469  12.989
28690W        W  950  42.302   6.274  14.295
28691W        W  951  41.392  22.195   3.510
28692W        W  952  15.560  39.409  11.603
28693W        W  953  34.678  17.015  14.225
28694W        W  954  32.329  14.512   0.947
28695W        W  955  10.383   4.632  14.745
28696W        W  956  22.717  37.475  10.705
28697W        W  957   2.173  19.428   1.351
28698W        W  958  28.432  30.272   2.231
28699W        W  959  24.840   6.198   3.423
28700W        W  960  33.646  31.081  13.320
28701W        W  961  36.377  13.548  13.395
28702W        W  962  39.471  15.313  14.435
28703W        W  963   9.361  40.116  10.331
28704W        W  964  39.390  31.669  13.668
28705W        W  965  34.486  13.623   4.058
28706W        W  966  17.387  44.618  11.072
28707W        W  967  26.536   9.221   3.356
28708W        W  968   0.604  15.312   3.753
28709W        W  969   1.821  38.861   2.270
28710W        W  970  14.225  23.018  12.560
28711W        W  971   8.508  17.778   4.176
28712W        W  972  14.687  37.513   0.252
28713W        W  973  35.881  12.816  13.431
28714W        W  974  26.976  30.597  10.691
28715W        W  975  15.519  30.578   2.248
28716W        W  976  37.580   5.985  13.370
28717W        W  977  23.034  43.312   0.028
28718W        W  978  40.702   8.803  11.195
28719W        W  979  17.355   7.668  11.992
28720W        W  980  38.151   3.671   1.772
28721W        W  981  11.334  10.866  11.398
28722W        W  982  33.718  12.858   2.265
28723W        W  983  20.037  11.122  13.473
28724W        W  984  22.309  17.839  12.147
28725W        W  985  44.349  36.081  13.943
28726W        W  986  23.467  28.687   9.678
28727W        W  987  20.610  20.042   0.866
28728W        W  988   3.878  26.604   2.231
28729W        W  989  11.893  14.351  12.590
28730W        W  990  17.866  13.681  14.962
28731W        W  991   7.668  33.533   3.214
28732W        W  992  17.711  12.387   3.714
28733W        W  993  19.203  19.202  13.913
28734W        W  994  22.247  22.213   2.891
28735W        W  995  21.793  43.930   4.119
28736W        W  996   0.346  15.100  11.125
28737W        W  997  26.524  13.058  12.575
28738W        W  998  20.974  15.823   2.711
28739W        W  999  44.461  43.574  14.290
28740W        W 1000  18.099  44.984  14.007
28741W        W 1001  31.021  19.237  10.670
28742W        W 1002   3.467   0.786   1.153
28743W        W 1003  41.778  34.134  11.480
28744W        W 1004  13.303  30.159   3.173
28745W        W 1005  35.296  15.154  12.948
28746W        W 1006  18.581   4.744  11.626
28747W        W 1007  42.915  21.765   2.769
28748W        W 1008  29.048   6.811  11.856
28749W        W 1009  17.269  32.429  12.595
28750W        W 1010  44.719   3.242  10.934
28751W        W 1011  37.593  32.038   1.261
28752W        W 1012  37.504  10.988   0.055
28753W        W 1013  39.932   5.948  13.913
28754W        W 1014  25.374  43.800  11.128
28755W        W 1015  42.453  32.879  12.407
28756W        W 1016  21.546  40.345  11.540
28757W        W 1017  36.449   8.463   3.170
28758W        W 1018  37.802   3.976   2.395
28759W        W 1019  37.004  23.681   2.741
28760W        W 1020  32.179  21.517   4.990
28761W        W 1021  36.146  12.900  12.120
28762W        W 1022  39.886   4.778   2.172
28763W        W 1023   4.035  28.404  13.070
28764W        W 1024  28.146  23.904   0.393
28765W        W 1025  39.513   7.404   3.423
28766W        W 1026   2.562   5.176   1.823
28767W        W 1027  17.296  13.137  10.561
28768W        W 1028  24.979  41.413  10.716
28769W        W 1029  37.365   5.771  11.413
28770W        W 1030  11.731  37.269  12.935
28771W        W 1031  12.231  39.371  10.696
28772W        W 1032  13.571  32.207   2.095
28773W        W 1033  36.651  10.679  14.960
28774W        W 1034  14.185  33.976   0.284
28775W        W 1035  16.167  13.241   0.392
28776W        W 1036   4.252  26.689  12.994
28777W        W 1037  12.246  27.680   3.279
28778W        W 1038  14.920   1.814  10.370
28779W        W 1039   1.886  41.435  14.948
28780W        W 1040  43.949  43.487  11.222
28781W        W 1041   4.459  11.335  12.850
28782W        W 1042  26.118  27.831  11.484
28783W        W 1043  19.846  15.565  13.351
28784W        W 1044  11.122   1.974   2.698
28785W        W 1045   1.064  17.607  12.330
28786W        W 1046   5.590  27.238   2.872
28787W        W 1047  12.150   8.837   2.725
28788W        W 1048  27.705  31.626  11.926
28789W        W 1049  37.402  34.492  11.140
28790W        W 1050  20.026  28.070   2.831
28791W        W 1051  25.005   3.951  14.390
28792W        W 1052  23.770  16.207  11.224
28793W        W 1053  11.838  31.522   3.146
28794W        W 1054  39.974   2.292  12.872
28795W        W 1055  22.002  13.719   0.675
28796W        W 1056  33.842  44.035  11.070
28797W        W 1057  21.468  34.617  11.544
28798W        W 1058  22.540  33.642   2.846
28799W        W 1059  14.698  20.525  10.750
28800W        W 1060  37.270   3.701  13.887
28801W        W 1061   6.644  40.898  14.006
28802W        W 1062  24.958  16.176  12.834
28803W        W 1063  25.001  44.414  10.756
28804W        W 1064  11.817   6.121   3.710
28805W        W 1065  39.387  24.875  10.579
28806W        W 1066  29.393  22.885  12.599
28807W        W 1067  33.411  38.562   0.947
28808W        W 1068  12.581  19.920   0.878
28809W        W 1069  29.466  10.445   3.302
28810W        W 1070  31.896  27.817  12.915
28811W        W 1071  26.025  27.273   1.370
28812W        W 1072  15.582   5.640  11.123
28813W        W 1073  21.614  22.361   3.229
28814W        W 1074  38.550  26.926   3.655
28815W        W 1075  27.452  40.611   0.136
28816W        W 1076   8.690  31.415  11.042
28817W        W 1077  23.699  34.435   4.636
28818W        W 1078  38.312  42.757  12.048
28819W        W 1079  19.992  34.197   2.310
28820W        W 1080  20.991  16.653   3.710
28821W        W 1081  24.421  23.234  12.942
28822W        W 1082  11.940  20.344   3.893
28823W        W 1083  26.927  25.635  12.390
28824W        W 1084  39.910  37.805  14.928
28825W        W 1085  36.659   6.993   3.389
28826W        W 1086  31.003  16.902  12.946
28827W        W 1087  33.695  25.584  10.570
28828W        W 1088  22.685   9.198  12.648
28829W        W 1089  30.123  12.065   1.410
28830W        W 1090  21.013   2.470  13.520
28831W        W 1091  41.110   7.727   2.247
28832W        W 1092   3.424   1.864  13.335
28833W        W 1093  14.701  33.895  11.088
28834W        W 1094  36.625  44.208   0.325
28835W        W 1095  11.093  44.016   1.287
28836W        W 1096  36.398  25.577   0.973
28837W        W 1097  40.047  24.699   4.086
28838W        W 1098  17.642  21.552   2.402
28839W        W 1099   8.790  12.019  14.082
28840W        W 1100  38.502  19.491   4.566
28841W        W 1101  32.834  30.474  12.585
28842W        W 1102   3.005  24.029   4.019
28843W        W 1103  11.130  26.528   1.281
28844W        W 1104  13.044  26.321  11.145
28845W        W 1105  21.143  24.166  12.543
28846W        W 1106  29.140  41.487  12.973
28847W        W 1107  20.192  33.403   4.074
28848W        W 1108  26.800  35.119   4.190
28849W        W 1109  31.457  13.045  11.634
28850W        W 1110  28.606   4.277   2.365
28851W        W 1111  19.794  37.887   3.701
28852W        W 1112  26.489  37.669   0.236
28853W        W 1113  43.196  22.691  13.982
28854W        W 1114  38.298   0.442  14.803
28855W        W 1115  39.832  44.987  11.188
28856W        W 1116  21.961  28.068   3.881
28857W        W 1117  13.722  39.052  10.325
28858W        W 1118  30.164  22.991   2.673
28859W        W 1119   1.650  12.740   2.327
28860W        W 1120  28.630  35.373  12.387
28861W        W 1121  31.522  36.618  13.995
28862W        W 1122  26.400  41.270   4.314
28863W        W 1123  19.002  10.734  13.912
28864W        W 1124  31.504   4.390  13.476
28865W        W 1125  30.953   9.436   2.113
28866W        W 1126  28.128  28.758  13.974
28867W        W 1127  30.526  19.849   0.439
28868W        W 1128  27.513   6.810  10.953
28869W        W 1129  12.373   0.780  14.820
28870W        W 1130  44.463  29.325  11.654
28871W        W 1131  18.538  19.094  12.532
28872W        W 1132  22.938  15.136   0.391
28873W        W 1133  37.774  24.995   4.168
28874W        W 1134  10.618  21.655   3.665
28875W        W 1135  33.320  41.913   1.349
28876W        W 1136  40.852   1.534  13.020
28877W        W 1137  30.018   5.189   1.838
28878W        W 1138  22.777  11.705  10.455
28879W        W 1139  44.878  21.232  11.755
28880W        W 1140  29.579  11.142  12.590
28881W        W 1141  12.665   2.299  12.866
28882W        W 1142  39.266   8.911   2.288
28883W        W 1143  38.817  25.936   4.386
28884W        W 1144  38.278  28.574   4.124
28885W        W 1145  30.218  29.539  11.247
28886W        W 1146  22.329  35.972  14.581
28887W        W 1147  44.467  22.841   0.909
28888W        W 1148  14.206  11.110  13.024
28889W        W 1149   8.653   1.283   2.708
28890W        W 1150  20.796  16.165   3.807
28891W        W 1151  24.788  40.324   4.992
28892W        W 1152   2.791  35.264  12.085
28893W        W 1153   7.272  25.077   0.193
28894W        W 1154  24.682  42.429   3.780
28895W        W 1155  25.685  37.126   1.799
28896W        W 1156  40.297  26.573   0.087
28897W        W 1157  22.209  22.009  13.391
28898W        W 1158  10.157   4.971   2.253
28899W        W 1159  36.563   6.861   4.628
28900W        W 1160  23.324  39.678  11.151
28901W        W 1161  20.069  11.632   1.692
28902W        W 1162  30.931   3.522   2.394
28903W        W 1163  18.022  15.099  14.807
28904W        W 1164  37.930   2.781   2.742
28905W        W 1165  24.711  36.437  13.338
28906W        W 1166   5.926  38.051   4.206
28907W        W 1167   6.722  34.007   0.753
28908W        W 1168   2.967  14.460   4.219
28909W        W 1169   2.507  39.804  13.428
28910W        W 1170  25.479  22.082  12.166
28911W        W 1171   9.637   2.313   4.235
28912W        W 1172  11.446  10.310   2.768
28913W        W 1173  14.660  16.705  14.885
28914W        W 1174  20.257   3.108  13.537
28915W        W 1175  11.541  17.179   3.799
28916W        W 1176  35.777  13.384  12.826
28917W        W 1177  43.234  29.535  10.665
28918W        W 1178   8.756  12.662   4.195
28919W        W 1179  32.461  18.687   0.527
28920W        W 1180  40.132   9.969   2.010
28921W        W 1181  22.665   8.436  14.477
28922W        W 1182  39.301   4.842  11.775
28923W        W 1183  27.676  20.761   2.072
28924W        W 1184   6.699   9.516  12.379
28925W        W 1185  43.276  32.403   2.265
28926W        W 1186  33.281  25.012   1.765
28927W        W 1187  15.201  18.210  10.551
28928W        W 1188   5.020  31.123   1.766
28929W        W 1189  28.267  17.577  11.422
28930W        W 1190  34.060  19.698  14.051
28931W        W 1191  44.775  14.517  12.087
28932W        W 1192  19.438  19.104  13.462
28933W        W 1193  43.882  21.518  12.496
28934W        W 1194  31.917   2.167  14.721
28935W        W 1195   7.260  36.672  13.010
28936W        W 1196  18.536  35.713   3.173
28937W        W 1197   2.019  31.379   0.809
28938W        W 1198  39.363   7.633   0.711
28939W        W 1199  37.543   8.154  13.230
28940W        W 1200   5.135  23.955   4.482
28941W        W 1201  21.573  34.903   1.544
28942W        W 1202  12.620  13.290  10.670
28943W        W 1203  24.230  19.135  10.891
28944W        W 1204  23.883  25.267   0.505
28945W        W 1205   9.293  17.265   2.824
28946W        W 1206  26.940  28.556   3.581
28947W        W 1207  27.421  37.901   2.899
28948W        W 1208  19.278  33.710  14.120
28949W        W 1209  26.925  42.391   2.846
28950W        W 1210  37.048  17.791   2.876
28951W        W 1211   9.074  28.716  14.980
28952W        W 1212  17.261  34.666  12.768
28953W        W 1213  15.309  42.116  12.272
28954W        W 1214  43.371  37.878  10.670
28955W        W 1215   7.904  37.613   4.053
28956W        W 1216  39.436  43.998   3.282
28957W        W 1217  34.500  22.179  13.795
28958W        W 1218  26.472  12.577  10.265
28959W        W 1219  20.769  10.753  13.270
28960W        W 1220  34.115  30.719   4.703
28961W        W 1221  22.287  11.376   3.700
28962W        W 1222  17.335  41.482   2.946
28963W        W 1223  17.324  26.620  12.467
28964W        W 1224   4.924  23.664  13.452
28965W        W 1225  44.383  34.397   2.199
28966W        W 1226  28.236   2.628  14.029
28967W        W 1227  18.716   3.509  11.154
28968W        W 1228  36.489  11.847  10.099
28969W        W 1229   5.914  35.098  14.354
28970W        W 1230  11.412  35.257  13.807
28971W        W 1231  21.462  42.947  11.580
28972W        W 1232  14.778  44.872   2.273
28973W        W 1233  30.113  14.402  14.763
28974W        W 1234  21.105  29.972  13.013
28975W        W 1235  21.176  10.708  10.979
28976W        W 1236  16.853  19.783  14.041
28977W        W 1237  38.137   7.935  11.387
28978W        W 1238  16.234  15.568   0.902
28979W        W 1239   8.662   7.854   3.884
28980W        W 1240  39.109   4.824  12.475
28981W        W 1241  16.213  13.130   3.139
28982W        W 1242  34.461   0.535  13.568
28983W        W 1243   9.238   8.426   2.160
28984W        W 1244  32.239  13.804   3.402
28985W        W 1245   6.597  28.624  14.805
28986W        W 1246  25.638   7.209  11.865
28987W        W 1247  11.776  24.553   3.340
28988W        W 1248   3.881  43.426  10.758
28989W        W 1249  19.748  33.238  11.101
28990W        W 1250  17.130  40.907   0.567
28991W        W 1251  43.860  26.652   0.391
28992W        W 1252   0.928   8.618  14.934
28993W        W 1253  27.138  27.418  12.514
28994W        W 1254   7.901  34.518   1.252
28995W        W 1255  23.051  41.453  11.533
28996W        W 1256  35.646  21.226  13.014
28997W        W 1257  13.849   6.492  12.816
28998W        W 1258  25.951  10.282  13.960
28999W        W 1259  36.257  20.068   5.231
29000W        W 1260   6.271  34.161  12.880
29001W        W 1261  24.277  29.711   2.581
29002W        W 1262  29.502  33.295   5.513
29003W        W 1263   0.675  44.135   4.041
29004W        W 1264  27.992  39.903  10.011
29005W        W 1265   4.330  28.199   0.542
29006W        W 1266  35.016  13.171   3.136
29007W        W 1267  34.876  28.123   4.573
29008W        W 1268  31.890  15.531  14.473
29009W        W 1269   7.236   8.040  10.693
29010W        W 1270  43.895  25.893   1.965
29011W        W 1271  10.538   2.735   2.359
29012W        W 1272   8.861  44.902  14.952
29013W        W 1273  17.121   9.521   3.997
29014W        W 1274  42.857  21.053  14.070
29015W        W 1275  43.489   0.769  11.564
29016W        W 1276  40.603  43.246   2.892
29017W        W 1277  10.069  31.405   2.330
29018W        W 1278  40.794  34.540  12.839
29019W        W 1279   1.703  33.472  12.105
29020W        W 1280   7.366  32.300   4.586
29021W        W 1281  22.387   7.003   4.455
29022W        W 1282  11.870   8.397   0.799
29023W        W 1283  29.658  36.925   0.382
29024W        W 1284  42.819  11.776  12.978
29025W        W 1285   8.304  14.872  13.828
29026W        W 1286  36.243  10.845  13.445
29027W        W 1287  17.162   2.722   1.197
29028W        W 1288  38.486   3.765   0.261
29029W        W 1289  15.842  41.486  10.287
29030W        W 1290  20.638  31.172  14.476
29031W        W 1291  36.348  11.852   4.101
29032W        W 1292   0.353   1.491   3.547
29033W        W 1293  26.455   4.933  14.257
29034W        W 1294  44.842   6.885  13.815
29035W        W 1295  31.924  24.076  14.744
29036W        W 1296  27.620  16.065   0.856
29037W        W 1297  32.542   9.678  14.774
29038W        W 1298  36.328  35.616  12.370
29039W        W 1299  21.864  42.866   0.697
29040W        W 1300  31.128  30.885  12.128
29041W        W 1301   9.672   5.635   0.349
29042W        W 1302  42.104  34.490   1.912
29043W        W 1303  35.242  20.611   2.881
29044W        W 1304  16.681   3.032  13.265
29045W        W 1305  39.116  28.182   0.999
29046W        W 1306  32.041  42.118   3.360
29047W        W 1307  25.477   0.215   3.701
29048W        W 1308  44.346  43.574   3.533
29049W        W 1309  19.569  42.047  10.650
29050W        W 1310   1.022  38.079  10.608
29051W        W 1311   4.721   3.196  12.427
29052W        W 1312  20.772   3.753  11.419
29053W        W 1313  17.791  25.539   2.144
29054W        W 1314  28.310  39.409   2.279
29055W        W 1315  36.436  41.078   3.307
29056W        W 1316   3.358  31.127  12.491
29057W        W 1317  31.590  31.588  10.945
29058W        W 1318   0.830  11.819   0.749
29059W        W 1319  22.637  43.739  10.690
29060W        W 1320  24.507  20.924   2.155
29061W        W 1321  29.190   7.463   1.851
29062W        W 1322   4.974  17.038   1.382
29063W        W 1323  26.729  15.037  12.131
29064W        W 1324  33.471  37.776   3.137
29065W        W 1325  33.399   0.954  14.049
29066W        W 1326  40.539  22.356  13.700
29067W        W 1327   1.475  34.325   0.103
29068W        W 1328  14.600  35.897  14.451
29069W        W 1329   6.467   1.337   1.029
29070W        W 1330  17.298   1.091   5.045
29071W        W 1331   6.619  36.430   1.770
29072W        W 1332   2.561  25.154  11.584
29073W        W 1333  21.755  26.712   0.388
29074W        W 1334  10.125  25.585  14.271
29075W        W 1335   5.765  12.861  12.448
29076W        W 1336  19.833   6.602  11.807
29077W        W 1337  37.885  39.396   0.848
29078W        W 1338  38.157  38.068  12.563
29079W        W 1339  32.915  20.012  12.114
29080W        W 1340  13.906  28.285   2.805
29081W        W 1341  33.552   7.178   3.289
29082W        W 1342  36.868   8.841   3.665
29083W        W 1343  42.437  42.873  12.998
29084W        W 1344   0.470  39.334  14.104
29085W        W 1345  17.551  34.651   1.951
29086W        W 1346  16.521  28.524  12.591
29087W        W 1347  14.915  16.599  12.510
29088W        W 1348  35.549   6.347  11.229
29089W        W 1349  44.481  28.992   2.784
29090W        W 1350   8.592   0.983   0.753
29091W        W 1351  20.257  11.847  14.714
29092W        W 1352  31.629  20.735  12.823
29093W        W 1353  32.502   5.835   3.727
29094W        W 1354  44.551  30.107  14.354
29095W        W 1355   9.322  40.855  11.919
29096W        W 1356  35.957  25.446  11.935
29097W        W 1357  24.991   0.612   0.092
29098W        W 1358  16.082  32.665  13.469
29099W        W 1359  41.985  42.364  14.448
29100W        W 1360   4.424   3.841   2.365
29101W        W 1361  35.122  11.017  12.812
29102W        W 1362  27.243   9.914   2.006
29103W        W 1363  15.095   6.771   2.271
29104W        W 1364  17.216  27.986  12.899
29105W        W 1365   1.897  16.753   0.952
29106W        W 1366  35.348  32.950  11.595
29107W        W 1367  16.399  28.592  14.426
29108W        W 1368   0.386  37.788   3.687
29109W        W 1369  32.905  38.947   0.901
29110W        W 1370  43.775  24.576   4.597
29111W        W 1371   9.698  35.980  11.137
29112W        W 1372  40.792   8.747   0.736
29113W        W 1373  37.395  38.874   2.872
29114W        W 1374  27.364  19.799   1.693
29115W        W 1375   5.777   8.857  12.388
29116W        W 1376  11.761   7.875   2.924
29117W        W 1377  34.939  37.846   1.841
29118W        W 1378  26.972  13.705   0.450
29119W        W 1379  12.605  27.883  11.876
29120W        W 1380  26.686   1.872   2.921
29121W        W 1381   5.807  18.708   0.290
29122W        W 1382  25.389   7.837   0.756
29123W        W 1383  42.807  36.994   0.761
29124W        W 1384  41.598  28.963  14.953
29125W        W 1385  28.609  28.050  14.497
29126W        W 1386  21.765  26.042  13.986
29127W        W 1387  33.029  32.232   2.478
29128W        W 1388  40.460   9.571   1.885
29129W        W 1389   2.430  35.668   1.232
29130W        W 1390   8.275  23.482  11.749
29131W        W 1391  35.568   9.698   0.855
29132W        W 1392  28.969  19.212  13.918
29133W        W 1393  25.118  22.777  12.566
29134W        W 1394  21.200  37.220   4.057
29135W        W 1395  31.582   6.768   3.326
29136W        W 1396  36.944  30.706   2.685
29137W        W 1397  42.463  17.154   3.272
29138W        W 1398  42.367  10.297  14.508
29139W        W 1399  40.238   6.114  14.293
29140W        W 1400  22.216  18.288   2.835
29141W        W 1401  20.273  16.806   4.128
29142W        W 1402  16.867   7.522  12.556
29143W        W 1403  15.949   4.164   2.675
29144W        W 1404  44.427  42.237  10.769
29145W        W 1405  29.453  35.438   2.615
29146W        W 1406  18.479   3.368   3.618
29147W        W 1407   3.932  41.318   1.959
29148W        W 1408   9.759   4.135   3.287
29149W        W 1409  33.698  25.218   3.283
29150W        W 1410  25.552  44.436  10.733
29151W        W 1411   8.266  11.593   0.904
29152W        W 1412  25.189  15.996   0.659
29153W        W 1413  16.300  26.603  11.167
29154W        W 1414  25.500  15.684   4.917
29155W        W 1415  37.453  38.553  12.180
29156W        W 1416  21.166  28.636   2.588
29157W        W 1417  24.142  30.404  12.346
29158W        W 1418  36.609   5.270  14.489
29159W        W 1419  34.062  42.566   2.514
29160W        W 1420  32.544  20.815  12.425
29161W        W 1421  40.367  24.537   4.461
29162W        W 1422  22.338  42.456   4.249
29163W        W 1423  27.872  44.349   0.822
29164W        W 1424  28.792   2.741   3.877
29165W        W 1425   3.922  32.077   3.683
29166W        W 1426   4.309  16.018   3.314
29167W        W 1427  35.849   6.445  14.480
29168W        W 1428  35.302  29.450  11.154
29169W        W 1429   3.860  36.655  14.279
29170W        W 1430   4.959  42.782  14.798
29171W        W 1431  11.834  38.962  10.693
29172W        W 1432  10.146   3.310  14.186
29173W        W 1433  23.607  12.643  11.477
29174W        W 1434  31.795  23.693  10.622
29175W        W 1435  29.409  35.350  10.421
29176W        W 1436  33.896  34.552   3.677
29177W        W 1437  26.683  41.894   5.447
29178W        W 1438  10.768  30.642   3.684
29179W        W 1439  31.493  23.235   2.416
29180W        W 1440  24.478  29.519  13.998
29181W        W 1441   8.805  44.210   0.344
29182W        W 1442   8.158  10.387   1.927
29183W        W 1443  22.338  18.735  13.617
29184W        W 1444   7.403  41.016   0.414
29185W        W 1445   0.020  29.395  11.095
29186W        W 1446  31.906  35.968  11.879
29187W        W 1447  42.131   2.845  11.115
29188W        W 1448  32.221   2.138  12.961
29189W        W 1449   0.747   5.510   1.761
29190W        W 1450  21.518  38.553   3.613
29191W        W 1451  35.465  38.357   1.319
29192W        W 1452  28.069  13.856   0.687
29193W        W 1453  43.022  40.219   5.029
29194W        W 1454  33.429  37.232   2.249
29195W        W 1455  13.650  32.986   1.512
29196W        W 1456  15.301  22.300  11.712
29197W        W 1457  34.387  11.847  13.893
29198W        W 1458   7.843  34.025  14.719
29199W        W 1459   4.939  26.581  11.141
29200W        W 1460   4.425  27.288   3.673
29201W        W 1461  34.968  43.497  13.930
29202W        W 1462  29.002  31.613   1.254
29203W        W 1463  14.581  24.638  11.594
29204W        W 1464  43.783  12.181   0.304
29205W        W 1465  21.596  32.143  11.394
29206W        W 1466  20.089  39.489   4.104
29207W        W 1467  16.736  37.184   4.570
29208W        W 1468  34.469  12.138  13.486
29209W        W 1469  38.226  39.409  13.109
29210W        W 1470  32.504  18.262  13.862
29211W        W 1471   8.030  15.567  10.514
29212W        W 1472  35.193   1.870   4.249
29213W        W 1473  41.784  22.112  10.641
29214W        W 1474  37.927  18.545  14.120
29215W        W 1475  39.415  44.930  12.211
29216W        W 1476  39.822   9.953  14.050
29217W        W 1477  33.518  30.681   1.677
29218W        W 1478  10.086  20.192  12.081
29219W        W 1479  20.293  27.447  10.240
29220W        W 1480  34.372  19.169  12.591
29221W        W 1481   2.205  15.869   0.833
29222W        W 1482   3.763  32.672   2.843
29223W        W 1483  14.316  36.963   9.837
29224W        W 1484   1.022  38.405  14.951
29225W        W 1485  13.453  31.419   3.707
29226W        W 1486  31.947  27.769  10.748
29227W        W 1487  18.744  12.238  11.111
29228W        W 1488   9.788   3.868  11.020
29229W        W 1489  27.943  17.146   4.146
29230W        W 1490   8.852  29.970  12.158
29231W        W 1491  29.124  20.565  13.249
29232W        W 1492  13.794  37.499   2.555
29233W        W 1493   4.915  16.242   2.276
29234W        W 1494  36.395  34.377  13.752
29235W        W 1495   2.382  37.068   0.457
29236W        W 1496   8.737  23.195  10.687
29237W        W 1497  38.549   8.356   2.127
29238W        W 1498  41.339  44.499   4.461
29239W        W 1499  40.691   5.414  14.303
29240W        W 1500  27.410  35.668  12.082
29241W        W 1501  43.615  14.304   3.407
29242W        W 1502  16.240  32.473  11.517
29243W        W 1503   2.751  17.046  14.077
29244W        W 1504  35.605  33.937  14.372
29245W        W 1505  38.447  30.194   1.993
29246W        W 1506  28.203   5.368   1.002
29247W        W 1507  11.332  42.118   1.353
29248W        W 1508  27.253  24.195  10.966
29249W        W 1509  34.949   1.629  13.806
29250W        W 1510   1.320  42.318  14.764
29251W        W 1511  17.135  44.282   2.831
29252W        W 1512  21.419  22.698   5.049
29253W        W 1513   7.445  20.138   2.689
29254W        W 1514  19.328  43.117  11.700
29255W        W 1515   4.964  22.583   2.727
29256W        W 1516   3.888  23.640  12.972
29257W        W 1517  19.915  27.987  11.376
29258W        W 1518  26.649   6.129  12.146
29259W        W 1519  29.044  41.871  12.602
29260W        W 1520   4.805  44.393  11.444
29261W        W 1521  26.142  14.271  11.661
29262W        W 1522  26.516  13.220  10.599
29263W        W 1523  19.057  41.801   4.292
29264W        W 1524  28.495  40.014  14.402
29265W        W 1525   6.358  23.483  14.425
29266W        W 1526  25.678  13.751  14.974
29267W        W 1527  28.603  40.947   3.948
29268W        W 1528  40.308  19.206  11.731
29269W        W 1529  33.890  37.894   3.409
29270W        W 1530  27.994  30.658  12.474
29271W        W 1531  39.359  43.935  12.172
29272W        W 1532  26.113  35.350  12.111
29273W        W 1533  23.257  21.319  10.744
29274W        W 1534  23.001  38.973   4.090
29275W        W 1535  12.103  44.889  10.629
29276W        W 1536  38.900  40.777  11.142
29277W        W 1537  28.746  21.363   0.844
29278W        W 1538  29.472  37.886   3.591
29279W        W 1539   7.291  28.088  14.438
29280W        W 1540  36.035  29.284   1.757
29281W        W 1541  24.761  28.912   3.138
29282W        W 1542  31.437  28.922  10.747
29283W        W 1543  35.961  44.702  13.143
29284W        W 1544   9.021   6.292  11.089
29285W        W 1545   4.444  33.319   0.444
29286W        W 1546  29.419  16.240   2.779
29287W        W 1547  13.860  29.332   4.706
29288W        W 1548  39.081  41.022   3.646
29289W        W 1549  23.983  17.972   9.999
29290W        W 1550  12.318  44.070   1.858
29291W        W 1551  39.254  12.067  12.002
29292W        W 1552  12.127   7.632   3.271
29293W        W 1553  12.154  15.609  13.359
29294W        W 1554   7.744  35.497  12.500
29295W        W 1555  16.070  31.381  10.564
29296W        W 1556  40.124  26.235  12.421
29297W        W 1557  20.255   0.854  12.052
29298W        W 1558   8.659  33.123  11.601
29299W        W 1559  16.214  22.050   4.913
29300W        W 1560  30.179  38.530   4.380
29301W        W 1561  36.815   0.855  13.765
29302W        W 1562  38.756  38.747   4.229
29303W        W 1563   8.694   1.449   0.974
29304W        W 1564  31.697  42.642   2.079
29305W        W 1565  27.591  24.079  12.122
29306W        W 1566  31.151  34.579  14.773
29307W        W 1567  30.385  20.130   2.790
29308W        W 1568  29.094  28.505  13.611
29309W        W 1569  28.512   3.687  12.423
29310W        W 1570  17.609  14.998   0.080
29311W        W 1571  13.311  16.037   1.311
29312W        W 1572   8.188   9.321  13.562
29313W        W 1573  11.587  38.590  12.631
29314W        W 1574  40.732   2.775   3.438
29315W        W 1575  24.309  43.569   3.162
29316W        W 1576  37.519  29.118   4.508
29317W        W 1577  43.842  24.728   3.327
29318W        W 1578  32.373  36.232  10.999
29319W        W 1579  34.538  33.343   1.886
29320W        W 1580  31.034  40.553   3.775
29321W        W 1581  25.456   6.602  14.460
29322W        W 1582   3.988  43.670   2.743
29323W        W 1583  43.165  22.214   2.665
29324W        W 1584  31.245  41.962  12.600
29325W        W 1585  21.236  38.955   4.068
29326W        W 1586  26.584   1.194   0.586
29327W        W 1587  19.284   3.953  12.495
29328W        W 1588  29.221   5.779  11.022
29329W        W 1589  26.171  38.019   0.955
29330W        W 1590  34.977   2.198  10.625
29331W        W 1591  26.521  40.359   0.879
29332W        W 1592  42.519  10.649   2.862
29333W        W 1593  39.928  43.068  11.456
29334W        W 1594  15.757  25.674   0.485
29335W        W 1595  24.194  27.145   4.536
29336W        W 1596  27.896   7.631  11.472
29337W        W 1597   5.499  30.115  11.076
29338W        W 1598  32.126   8.924  11.144
29339W        W 1599  33.152  43.031   3.781
29340W        W 1600  33.856  36.926   2.358
29341W        W 1601  24.572  29.622  12.527
29342W        W 1602  35.799   4.193  14.008
29343W        W 1603  20.159  33.885  12.494
29344W        W 1604  42.139   9.157   1.381
29345W        W 1605   7.247  33.127   0.533
29346W        W 1606  28.665   0.878  11.463
29347W        W 1607  32.046  24.300  12.333
29348W        W 1608  28.414  24.316  14.780
29349W        W 1609  39.964  36.967   3.580
29350W        W 1610  34.518  36.924   1.730
29351W        W 1611  13.220   5.248  14.153
29352W        W 1612  38.957  34.111  11.532
29353W        W 1613   8.820  25.939   3.641
29354W        W 1614  40.653   2.893   4.891
29355W        W 1615  23.976   8.679  13.543
29356W        W 1616  13.653  23.981  11.106
29357W        W 1617  28.426  20.956  10.745
29358W        W 1618  21.442  36.517   1.906
29359W        W 1619  30.930  32.081   5.048
29360W        W 1620  40.518  14.745   1.363
29361W        W 1621  37.978  23.419  11.984
29362W        W 1622  44.276  28.400  13.972
29363W        W 1623  32.437  33.369  12.283
29364W        W 1624  24.543  41.600   4.596
29365W        W 1625  17.613   8.743  12.681
29366W        W 1626  18.126  19.096   4.074
29367W        W 1627  30.880  16.148  14.780
29368W        W 1628  16.650  35.806  14.937
29369W        W 1629  16.327  14.631   4.105
29370W        W 1630  36.585  34.613   0.248
29371W        W 1631  17.933  17.080   1.850
29372W        W 1632  42.284  11.389  14.083
29373W        W 1633  15.122  34.133   4.027
29374W        W 1634  38.846  18.812  10.158
29375W        W 1635  27.481   2.596  11.585
29376W        W 1636  17.600  31.898   1.163
29377W        W 1637  14.863  20.161  11.090
29378W        W 1638   3.321  12.012   0.463
29379W        W 1639  22.227  30.722  14.806
29380W        W 1640  35.803  23.826   3.301
29381W        W 1641  36.246  18.493   9.734
29382W        W 1642   8.897  40.551  13.925
29383W        W 1643  17.253  12.528  13.057
29384W        W 1644   4.921  39.956   3.135
29385W        W 1645  37.574  30.919  12.583
29386W        W 1646  34.157  36.114  14.826
29387W        W 1647  28.055   1.506   0.772
29388W        W 1648  14.748  20.920   2.777
29389W        W 1649   1.222  39.518   0.269
29390W        W 1650   8.852  37.279   2.191
29391W        W 1651  31.584  37.988   2.675
29392W        W 1652  41.415  38.054   4.794
29393W        W 1653  30.505  22.969  13.496
29394W        W 1654  24.131  10.553  11.530
29395W        W 1655  12.378  43.590  11.956
29396W        W 1656  20.109  28.165  14.105
29397W        W 1657  19.594  24.912  11.095
29398W        W 1658  38.592   2.924  11.152
29399W        W 1659  21.497   2.815   3.211
29400W        W 1660  38.377  44.893   0.712
29401W        W 1661   4.605  25.899  13.856
29402W        W 1662  26.949  16.266  13.494
29403W        W 1663   6.200  44.959  13.998
29404W        W 1664   6.857  43.413   3.855
29405W        W 1665  34.242  34.141  14.358
29406W        W 1666  31.432  25.308  13.057
29407W        W 1667  28.124  15.341   4.649
29408W        W 1668   5.942  19.681  14.103
29409W        W 1669  32.809  16.686   3.223
29410W        W 1670  12.182  36.862  13.394
29411W        W 1671   3.967   5.941  13.502
29412W        W 1672  23.559   9.024  10.574
29413W        W 1673  40.836  31.229  13.131
29414W        W 1674  42.278  19.391  10.658
29415W        W 1675  26.524  25.684  13.451
29416W        W 1676  23.030  30.084   4.655
29417W        W 1677  24.208  22.012  12.469
29418W        W 1678   8.117  35.784  11.830
29419W        W 1679   3.927  25.235   0.382
29420W        W 1680  44.276  28.928  13.981
29421W        W 1681  43.243   9.289  13.536
29422W        W 1682   9.968  24.537  13.086
29423W        W 1683  36.574  27.188   1.923
29424W        W 1684  22.975  20.677   1.472
29425W        W 1685  10.157  28.992   0.718
29426W        W 1686  24.557   3.450   4.325
29427W        W 1687   5.261  23.239   2.662
29428W        W 1688   6.232   2.235   1.401
29429W        W 1689  41.737  35.192   1.414
29430W        W 1690   6.275  43.029   2.705
29431W        W 1691   9.760  40.268   2.696
29432W        W 1692   8.624   8.244  12.983
29433W        W 1693  29.289  24.631   1.299
29434W        W 1694  32.167  29.436  14.263
29435W        W 1695  22.477  11.255   0.901
29436W        W 1696  37.518  38.848  10.446
29437W        W 1697  25.093   0.570  13.119
29438W        W 1698  24.520  17.265  11.412
29439W        W 1699  42.494  20.581  11.407
29440W        W 1700   3.798  27.351   4.677
29441W        W 1701  44.222   0.836   3.833
29442W        W 1702  35.911  13.694   3.100
29443W        W 1703   5.337  37.831  10.691
29444W        W 1704  24.081  34.374  10.536
29445W        W 1705  21.620   8.460  13.563
29446W        W 1706  30.656  35.078  11.981
29447W        W 1707   8.678  24.999   1.409
29448W        W 1708   4.773  14.352  10.920
29449W        W 1709  36.505   7.932   3.235
29450W        W 1710   8.236  43.862  14.028
29451W        W 1711  30.258  42.906   4.225
29452W        W 1712  27.790   2.005  11.674
29453W        W 1713   9.042  32.493  10.610
29454W        W 1714  17.665  20.997   3.194
29455W        W 1715  17.348   5.409   0.866
29456W        W 1716   6.251  39.981   1.445
29457W        W 1717   9.730  35.811  10.605
29458W        W 1718   6.919  26.725  11.484
29459W        W 1719   8.189  42.172  11.473
29460W        W 1720  37.729  24.855   3.126
29461W        W 1721  32.967  17.790  12.576
29462W        W 1722   8.244   5.233  10.590
29463W        W 1723  22.734  21.974   0.346
29464W        W 1724  44.461  20.959   9.970
29465W        W 1725  12.619  39.121   3.617
29466W        W 1726  13.655  20.103   4.438
29467W        W 1727  19.888  30.938   4.160
29468W        W 1728  24.129  22.177  14.264
29469W        W 1729  23.520  16.712   1.048
29470W        W 1730  12.385  16.772   0.479
29471W        W 1731  44.367  42.750  10.748
29472W        W 1732   5.935  10.300  13.320
29473W        W 1733   9.348  15.725   0.350
29474W        W 1734   8.726   2.503   2.766
29475W        W 1735  11.836  26.415  14.734
29476W        W 1736  10.273   5.485  14.036
29477W        W 1737  39.249   9.893   2.335
29478W        W 1738  16.647  31.814  13.813
29479W        W 1739  41.118  20.608  11.097
29480W        W 1740  19.194   4.492   2.354
29481W        W 1741  34.815  20.365  13.804
29482W        W 1742  17.229  32.608   1.686
29483W        W 1743  20.727  37.680  13.603
29484W        W 1744  28.227  32.121   1.160
29485W        W 1745   7.985  39.599  10.721
29486W        W 1746  19.114  30.690   4.049
29487W        W 1747  21.732  39.469  14.801
29488W        W 1748  12.673   3.264  10.326
29489W        W 1749  24.452  35.593   2.157
29490W        W 1750  44.167  12.068  12.174
29491W        W 1751  40.811  16.868  13.039
29492W        W 1752  44.310  35.353   0.771
29493W        W 1753   6.957  15.822   0.190
29494W        W 1754  33.851   4.213  11.820
29495W        W 1755  27.606  22.174   3.950
29496W        W 1756  10.719   9.188  13.443
29497W        W 1757  31.239  17.980   2.824
29498W        W 1758  27.163   2.017   0.841
29499W        W 1759  42.023  14.287   0.747
29500W        W 1760  38.268  14.660   0.415
29501W        W 1761  36.581  34.587   4.077
29502W        W 1762  20.253  21.899  12.442
29503W        W 1763   9.312  39.178  12.439
29504W        W 1764  32.868  32.919  12.998
29505W        W 1765  13.612   2.920  12.125
29506W        W 1766  16.692  13.862   1.228
29507W        W 1767   3.366  41.581   2.903
29508W        W 1768   4.372  21.023   4.100
29509W        W 1769  13.437   1.679  13.500
29510W        W 1770  41.975  23.952   4.999
29511W        W 1771  19.611  11.887   1.761
29512W        W 1772   3.829  24.002  10.696
29513W        W 1773   2.278   7.329   3.684
29514W        W 1774  34.516   4.368   4.828
29515W        W 1775  41.760  33.283   3.798
29516W        W 1776  42.993  14.269   4.761
29517W        W 1777  18.520  34.557   1.289
29518W        W 1778  24.447   9.629   2.824
29519W        W 1779  19.306   4.419   1.290
29520W        W 1780   0.775  36.631  14.373
29521W        W 1781  20.753  13.311  12.411
29522W        W 1782  36.714   4.602   0.787
29523W        W 1783   5.708  36.873  10.601
29524W        W 1784   2.653   0.495  14.667
29525W        W 1785  18.444  32.415   1.242
29526W        W 1786  20.715  43.754  14.243
29527W        W 1787  15.359  20.101  11.116
29528W        W 1788  39.742  38.498  14.574
29529W        W 1789  24.993  38.941  13.901
29530W        W 1790  25.945  23.114  14.813
29531W        W 1791  17.701   5.770   2.632
29532W        W 1792  37.092  35.410   4.264
29533W        W 1793  32.999  18.997  11.930
29534W        W 1794  35.894  43.849   0.465
29535W        W 1795  34.308  21.302   3.463
29536W        W 1796  43.452  37.441  14.704
29537W        W 1797  16.318  37.143  14.872
29538W        W 1798  16.848  37.380  14.077
29539W        W 1799   7.428   8.059  11.525
29540W        W 1800  44.083   3.850   3.395
29541W        W 1801  35.537   1.931  14.007
29542W        W 1802  18.654  20.697   2.910
29543W        W 1803  20.958  25.001   1.387
29544W        W 1804  13.285  32.858  10.616
29545W        W 1805  38.432  13.951  11.118
29546W        W 1806  22.237  44.746   3.889
29547W        W 1807  10.672  25.528   4.547
29548W        W 1808   9.715   4.203   2.348
29549W        W 1809  26.149  24.969   0.106
29550W        W 1810  25.230  10.874   4.144
29551W        W 1811   2.779  43.125   0.847
29552W        W 1812  26.186  34.987   1.835
29553W        W 1813   5.975  32.377  11.375
29554W        W 1814   6.794   9.679  11.861
29555W        W 1815  11.207   2.883  10.543
29556W        W 1816  19.691  42.325  12.761
29557W        W 1817  26.186  27.740   0.352
29558W        W 1818  26.718  35.988   3.204
29559W        W 1819  14.805  34.684   4.783
29560W        W 1820  23.368  15.700   0.934
29561W        W 1821  42.369  11.576  11.687
29562W        W 1822  27.541  37.675   2.421
29563W        W 1823  26.559   1.282   2.092
29564W        W 1824  25.639  43.881  10.667
29565W        W 1825   5.812  36.116   3.272
29566W        W 1826  11.187  22.560  13.037
29567W        W 1827  30.675  34.395  14.976
29568W        W 1828   2.035   0.358  14.511
29569W        W 1829  23.526   7.603  11.150
29570W        W 1830  15.517   8.360   4.058
29571W        W 1831  19.049  19.455   2.223
29572W        W 1832  42.437  34.319  13.839
29573W        W 1833  14.775  41.879   1.799
29574W        W 1834  24.221  42.184  14.454
29575W        W 1835  10.550  31.868  11.197
29576W        W 1836  30.438  44.829   0.024
29577W        W 1837   4.880  29.091  14.086
29578W        W 1838  25.285  17.560  11.392
29579W        W 1839  16.869  43.547  14.922
29580W        W 1840  41.460  41.475   1.911
29581W        W 1841  11.917  13.392  13.016
29582W        W 1842  38.567  43.410  12.877
29583W        W 1843  12.114  27.507  10.284
29584W        W 1844  21.026  44.790  14.755
29585W        W 1845  16.303  35.455   4.498
29586W        W 1846  10.743  30.072   1.373
29587W        W 1847  31.671  21.437   5.101
29588W        W 1848   4.789  33.576  10.684
29589W        W 1849   8.848   4.278  10.468
29590W        W 1850  24.651  29.168  12.166
29591W        W 1851   6.171   4.290   1.849
29592W        W 1852  35.062  40.515   3.643
29593W        W 1853   1.715  10.346  11.534
29594W        W 1854  26.606  32.477   1.515
29595W        W 1855   8.752  40.472   3.221
29596W        W 1856  33.375  31.949  10.971
29597W        W 1857  32.236   8.014   2.155
29598W        W 1858  31.021   5.287   3.661
29599W        W 1859   0.614  24.351  12.154
29600W        W 1860  44.172  27.892  13.421
29601W        W 1861   4.737  37.565   1.949
29602W        W 1862   1.146  40.259  12.556
29603W        W 1863  21.273  20.695  11.043
29604W        W 1864  27.083  39.310  13.494
29605W        W 1865  31.567   1.313  10.693
29606W        W 1866  13.357  19.986  14.976
29607W        W 1867   4.361  40.430   4.838
29608W        W 1868  31.805  17.584   0.662
29609W        W 1869   6.045  24.279   4.651
29610W        W 1870  33.580  11.331  13.058
29611W        W 1871  37.454  14.344  11.484
29612W        W 1872  32.971  19.520  14.816
29613W        W 1873  16.766  32.559  11.153
29614W        W 1874   3.459  11.921   1.786
29615W        W 1875  43.837   1.464  10.683
29616W        W 1876  28.030   9.387  13.497
29617W        W 1877  32.421   0.349  12.795
29618W        W 1878  16.269   3.259   2.826
29619W        W 1879  11.607  27.546   0.604
29620W        W 1880  32.173  23.067  12.827
29621W        W 1881  13.653  21.585   0.949
29622W        W 1882   5.450  13.408   1.752
29623W        W 1883  24.552  12.472   2.470
29624W        W 1884  35.861   7.149  14.037
29625W        W 1885  21.193  12.062   4.120
29626W        W 1886  41.838  32.141  10.641
29627W        W 1887  20.226   4.246   2.367
29628W        W 1888  21.752  21.058   5.383
29629W        W 1889   8.699  17.842   1.256
29630W        W 1890  41.297  41.358  13.414
29631W        W 1891  44.666  17.063   2.075
29632W        W 1892  18.741   4.061   3.177
29633W        W 1893  22.814   8.654   1.904
29634W        W 1894  25.212   6.656  12.625
29635W        W 1895  27.975   8.383   5.133
29636W        W 1896  36.459  42.644  12.953
29637W        W 1897  12.570  26.974   2.662
29638W        W 1898   1.708  28.403  11.620
29639W        W 1899  31.502  27.525  13.826
29640W        W 1900  11.146   0.914  13.393
29641W        W 1901  32.858   1.273  12.453
29642W        W 1902  34.519   6.120   1.613
29643W        W 1903  27.996  33.851  12.593
29644W        W 1904  19.641  38.347   4.752
29645W        W 1905   5.400   5.429  14.323
29646W        W 1906  37.543  40.577  11.418
29647W        W 1907   9.827   8.863  12.984
29648W        W 1908  10.946  28.530  14.433
29649W        W 1909  27.652  43.304   4.067
29650W        W 1910  36.173   3.194   3.544
29651W        W 1911   2.336  40.429   2.149
29652W        W 1912  22.535  13.898  11.176
29653W        W 1913  26.473  30.372  12.419
29654W        W 1914  26.391  19.106   0.487
29655W        W 1915  33.199   2.167  11.652
29656W        W 1916  27.070  31.682   1.076
29657W        W 1917  30.632  16.275  11.060
29658W        W 1918  10.386   3.009  11.994
29659W        W 1919  30.765   8.813  14.286
29660W        W 1920   9.327  43.346   2.819
29661W        W 1921   5.665   7.403   0.738
29662W        W 1922  32.094  40.952   3.928
29663W        W 1923  41.176  37.547  14.306
29664W        W 1924  24.077   8.627  12.443
29665W        W 1925  43.489   7.935  13.826
29666W        W 1926  16.012   6.907   1.658
29667W        W 1927  13.389  30.506  11.206
29668W        W 1928  40.561  29.856  13.419
29669W        W 1929   6.448  41.712  14.479
29670W        W 1930  35.843   9.341   4.969
29671W        W 1931  12.104  16.996  14.529
29672W        W 1932   5.852  11.247   1.821
29673W        W 1933  19.323  15.727  14.447
29674W        W 1934  32.052  26.530  12.261
29675W        W 1935   7.982  18.821  11.849
29676W        W 1936  34.928  19.100  13.898
29677W        W 1937  23.579  31.493   2.764
29678W        W 1938  32.401   0.917   0.352
29679W        W 1939   7.912   5.615  14.989
29680W        W 1940  34.440   2.341   2.487
29681W        W 1941  11.208  13.820  11.684
29682W        W 1942  25.994  34.083   3.242
29683W        W 1943  11.830  26.180  13.439
29684W        W 1944  37.695  13.872  14.318
29685W        W 1945  25.147  18.830   4.127
29686W        W 1946   8.844  43.121   2.807
29687W        W 1947  15.961  18.803   0.156
29688W        W 1948  41.070  17.681  14.110
29689W        W 1949  34.382   2.418  10.835
29690W        W 1950   1.333  11.596  13.955
29691W        W 1951   0.698  39.832  10.681
29692W        W 1952  13.439   9.327  12.020
29693W        W 1953   4.995  28.477  13.873
29694W        W 1954  34.733  26.812   9.979
29695W        W 1955   8.737  34.577  14.956
29696W        W 1956  31.924  18.546  13.410
29697W        W 1957  28.505  19.090   3.620
29698W        W 1958  14.356  11.620  13.463
29699W        W 1959  28.037   2.218   4.757
29700W        W 1960  18.093  34.904  14.354
29701W        W 1961  30.025   2.533  13.253
29702W        W 1962  21.076  35.094  14.115
29703W        W 1963  12.730  39.043   2.756
29704W        W 1964  13.170  15.845   5.260
29705W        W 1965  12.178  37.327   4.599
29706W        W 1966  16.713  22.035   0.847
29707W        W 1967   0.904   1.026   5.316
29708W        W 1968  33.448  29.370  13.965
29709W        W 1969  10.864  23.996  13.908
29710W        W 1970  16.199   1.297   3.527
29711W        W 1971  25.896   0.974   3.049
29712W        W 1972  23.791   4.963   0.362
29713W        W 1973  31.391  22.274   0.718
29714W        W 1974  36.556  36.693  11.689
29715W        W 1975   3.054  42.366   2.469
29716W        W 1976  18.830  44.710   3.693
29717W        W 1977  18.693   7.837   9.974
29718W        W 1978  11.887  13.068   2.770
29719W        W 1979  15.604  34.949  14.269
29720W        W 1980  20.266  13.320   0.594
29721W        W 1981  28.143   1.324   4.776
29722W        W 1982  39.066   3.063  13.270
29723W        W 1983  34.886  14.708   2.209
29724W        W 1984  14.213  29.682   4.076
29725W        W 1985  16.575  41.793   1.208
29726W        W 1986  37.436   5.406   2.939
29727W        W 1987  31.867   4.865  10.548
29728W        W 1988  27.421   7.810   1.862
29729W        W 1989  31.977  19.628   0.260
29730W        W 1990  12.256  34.485  10.323
29731W        W 1991  15.675  36.606  14.960
29732W        W 1992  34.104  42.627   4.136
29733W        W 1993   5.142  26.002   3.403
29734W        W 1994  32.860  34.070  14.846
29735W        W 1995  11.187  27.461  13.028
29736W        W 1996  24.140  43.474  14.295
29737W        W 1997  24.474  33.677   0.312
29738W        W 1998  35.962   4.394   1.800
29739W        W 1999  16.829   2.982  11.837
29740W        W 2000  41.949  35.466  13.397
29741W        W 2001   8.821  38.470  12.537
29742W        W 2002  33.097  11.690  10.573
29743W        W 2003  23.680  41.897  12.090
29744W        W 2004  17.227  25.682   1.784
29745W        W 2005   0.092   0.052   3.227
29746W        W 2006   0.230   0.593   4.087
29747W        W 2007  15.696  30.312  13.806
29748W        W 2008  27.614  17.483   1.757
29749W        W 2009  20.289  27.395  14.742
29750W        W 2010   2.071   4.281   3.309
29751W        W 2011  32.637  26.597  12.435
29752W        W 2012  43.551  32.848   2.259
29753W        W 2013  17.324  29.108   1.210
29754W        W 2014  37.107  26.911   0.902
29755W        W 2015  31.398  17.577  11.655
29756W        W 2016  16.552  31.564   2.699
29757W        W 2017  15.055  25.492  14.227
29758W        W 2018   7.942  35.970  13.341
29759W        W 2019  14.563   7.571  12.642
29760W        W 2020  39.508  43.446   0.283
29761W        W 2021  30.641  16.299  13.782
29762W        W 2022   6.216  12.075  10.715
29763W        W 2023  14.824  11.826  13.364
29764W        W 2024  39.300  19.121   0.946
29765W        W 2025  11.667   4.247   3.183
29766W        W 2026  21.660  22.875   3.206
29767W        W 2027  18.547  16.761  14.910
29768W        W 2028  10.142  12.713  11.604
29769W        W 2029  15.644  19.001   2.366
29770W        W 2030  38.427  24.927  14.941
29771W        W 2031  27.051  41.334  10.881
29772W        W 2032  13.322  11.661   2.810
29773W        W 2033  34.590  37.791  11.266
29774W        W 2034  43.540  11.661  13.856
29775W        W 2035  31.963  27.494  14.733
29776W        W 2036   3.422  34.853   2.334
29777W        W 2037  25.572  38.921  12.840
29778W        W 2038  21.534  20.567   2.928
29779W        W 2039   1.765  32.644  11.045
29780W        W 2040   1.233   0.430   0.933
29781W        W 2041   7.176  41.282   1.722
29782W        W 2042  29.117  24.834   4.034
29783W        W 2043  39.578  29.408  13.150
29784W        W 2044  14.188  19.040   0.815
29785W        W 2045  40.942  29.596   2.451
29786W        W 2046   9.456  10.408   5.017
29787W        W 2047   3.901  19.073  11.278
29788W        W 2048  25.005   1.400   2.206
29789W        W 2049  24.232  14.614  11.942
29790W        W 2050  40.772  20.666  13.342
29791W        W 2051  34.970   0.345  13.514
29792W        W 2052  24.544  39.799   4.144
29793W        W 2053  25.998  37.217  12.624
29794W        W 2054   4.146  18.255  12.531
29795W        W 2055  29.159  13.768  11.978
29796W        W 2056  33.499   8.250   1.325
29797W        W 2057  37.928  16.719   3.859
29798W        W 2058   9.225  11.392   2.214
29799W        W 2059   8.992  21.230   0.203
29800W        W 2060  26.403   4.425  14.391
29801W        W 2061  37.490  32.226  10.941
29802W        W 2062  37.529   2.798   4.803
29803W        W 2063  13.305  16.244   4.510
29804W        W 2064  40.639  38.381  14.630
29805W        W 2065  32.559  27.502   2.756
29806W        W 2066  31.362   2.816   1.698
29807W        W 2067  35.698  14.534   1.006
29808W        W 2068  19.921  24.229   0.973
29809W        W 2069  43.158  30.059   1.950
29810W        W 2070  35.714  10.359  10.833
29811W        W 2071  16.893  32.598   4.054
29812W        W 2072  33.235  24.594  10.549
29813W        W 2073  11.951  43.012   1.254
29814W        W 2074  24.541  13.948   1.399
29815W        W 2075  13.693  33.959   4.904
29816W        W 2076   7.837  37.300  11.469
29817W        W 2077  33.523  43.060  14.100
29818W        W 2078  34.037   5.339   3.953
29819W        W 2079  43.890  37.725   4.736
29820W        W 2080   5.208  26.137  11.163
29821W        W 2081  27.145  31.037  12.476
29822W        W 2082  34.752  13.412  14.537
29823W        W 2083  24.480   4.215   1.443
29824W        W 2084  17.218  33.086  10.388
29825W        W 2085  29.867   3.357  12.598
29826W        W 2086  28.135  25.682  10.559
29827W        W 2087  10.737  24.997  13.093
29828W        W 2088  14.307  10.376  14.880
29829W        W 2089  35.904  44.934   1.083
29830W        W 2090  39.456  36.343   4.034
29831W        W 2091  30.047  22.982   3.958
29832W        W 2092  29.707  42.411  13.056
29833W        W 2093  11.224  18.057  14.417
29834W        W 2094  36.412   6.302  10.662
29835W        W 2095  19.567  32.890   4.512
29836W        W 2096   9.159   4.228   0.708
29837W        W 2097  26.703  19.048   1.343
29838W        W 2098  24.478  40.794  14.756
29839W        W 2099  44.185  20.086  12.086
29840W        W 2100  17.717  26.555   1.900
29841W        W 2101   8.394  40.907   4.474
29842W        W 2102  44.376   4.663   0.538
29843W        W 2103  19.542  17.031   0.856
29844W        W 2104  27.775  42.646  14.071
29845W        W 2105  25.739   6.377  14.929
29846W        W 2106  20.723  26.751   2.266
29847W        W 2107  38.957  32.598  14.373
29848W        W 2108  20.367  14.797  14.284
29849W        W 2109   3.855  14.745  12.091
29850W        W 2110  28.708  18.286  13.834
29851W        W 2111   1.936  24.543  11.446
29852W        W 2112  40.231  10.311  12.002
29853W        W 2113  36.491  12.252  14.547
29854W        W 2114   0.645  33.021  14.105
29855W        W 2115  44.287  36.856   4.382
29856W        W 2116  43.500   3.204   1.809
29857W        W 2117  22.462  13.600   0.863
29858W        W 2118  12.250  33.062   0.333
29859W        W 2119  23.629  43.479   2.762
29860W        W 2120  13.863  12.719   1.946
29861W        W 2121  43.818  17.319   0.643
29862W        W 2122  10.848   8.706  12.587
29863W        W 2123  19.472   2.418   0.517
29864W        W 2124  44.838  32.453   4.489
29865W        W 2125  18.328   0.683  11.584
29866W        W 2126  12.371  28.632   0.282
29867W        W 2127  35.870  16.787   4.666
29868W        W 2128   3.193  15.612   1.681
29869W        W 2129  13.358  36.901   1.785
29870W        W 2130   7.863   1.956   1.804
29871W        W 2131  22.833  39.004  11.556
29872W        W 2132  25.021  40.906  10.632
29873W        W 2133  20.541  30.895   1.927
29874W        W 2134   6.332   2.008   2.220
29875W        W 2135  24.375   4.790  10.081
29876W        W 2136  25.024  24.055  11.985
29877W        W 2137   9.326  29.351  13.795
29878W        W 2138  41.818  17.465  12.351
29879W        W 2139  15.307  18.807   3.542
29880W        W 2140  35.923  19.463  14.917
29881W        W 2141   1.857  10.804  10.645
29882W        W 2142   0.349  33.996  11.242
29883W        W 2143   4.612  43.756  10.793
29884W        W 2144  43.907  41.348  10.798
29885W        W 2145  20.143  11.311  12.954
29886W        W 2146  35.441  41.316   2.783
29887W        W 2147  13.218  22.732  13.789
29888W        W 2148   0.862  14.758   0.240
29889W        W 2149  20.335  14.870   1.342
29890W        W 2150  31.429  15.773  11.913
29891W        W 2151  25.456   9.453  14.638
29892W        W 2152  41.129  22.925  14.294
29893W        W 2153  29.098  12.069   3.281
29894W        W 2154   1.412  12.631   2.779
29895W        W 2155  19.191  41.866   2.312
29896W        W 2156   7.301  11.152   4.578
29897W        W 2157  34.386  38.005  12.624
29898W        W 2158  37.772  44.156  12.128
29899W        W 2159  21.239  34.027  12.404
29900W        W 2160  14.122  24.512   2.244
29901W        W 2161  43.396  29.626  12.427
29902W        W 2162  37.958  25.884   1.147
29903W        W 2163   5.534  31.121  11.565
29904W        W 2164   9.567  40.672   4.170
29905W        W 2165  38.416  32.113  13.565
29906W        W 2166   4.044   8.803   1.646
29907W        W 2167  16.614  12.392   4.594
29908W        W 2168   0.660  10.389   2.824
29909W        W 2169   0.309  43.128  11.476
29910W        W 2170  35.986  22.491  12.392
29911W        W 2171   4.030  22.246   3.546
29912W        W 2172  32.682  11.423   2.137
29913W        W 2173   3.719  22.418  14.979
29914W        W 2174  12.235  19.775   0.545
29915W        W 2175  37.386  31.174  13.013
29916W        W 2176   6.795   3.019  11.889
29917W        W 2177  14.234  44.033   2.686
29918W        W 2178  23.052   0.946   0.855
29919W        W 2179  14.402  27.667   5.096
29920W        W 2180  41.369  37.305  13.870
29921W        W 2181  11.865  40.444   2.359
29922W        W 2182  40.332   2.745   2.196
29923W        W 2183  41.246   3.281   2.718
29924W        W 2184  29.296   4.396   1.774
29925W        W 2185   0.754  31.936   0.983
29926W        W 2186  19.807  31.813   0.338
29927W        W 2187  19.962   4.594  11.598
29928W        W 2188   5.978  18.297  14.406
29929W        W 2189  30.139  22.156  13.681
29930W        W 2190  26.516  16.615  12.484
29931W        W 2191  35.423  20.650  12.667
29932W        W 2192  17.634   7.874  14.023
29933W        W 2193  40.434  11.944  14.229
29934W        W 2194   1.739   0.541   3.308
29935W        W 2195   5.273  44.545  14.798
29936W        W 2196  23.392  32.545   2.794
29937W        W 2197  16.105  10.509   4.918
29938W        W 2198  29.453  30.391  10.680
29939W        W 2199  21.259  20.950  10.262
29940W        W 2200  43.921  27.930   1.597
29941W        W 2201  28.207  33.447   0.787
29942W        W 2202  16.253  13.524   2.773
29943W        W 2203   4.314  22.264   1.404
29944W        W 2204  28.224  39.927   5.040
29945W        W 2205  18.839   0.613  14.470
29946W        W 2206   9.767  44.747   4.752
29947W        W 2207  23.965   7.419  13.570
29948W        W 2208  35.057  13.949  11.055
29949W        W 2209  40.944  24.453   3.150
29950W        W 2210  10.780  44.478   4.223
29951W        W 2211   6.186   9.174   1.207
29952W        W 2212   2.469  13.473   2.874
29953W        W 2213  44.746  38.920   4.333
29954W        W 2214  32.357   0.711   4.488
29955W        W 2215   6.723  20.768   0.379
29956W        W 2216  34.427  11.649  14.566
29957W        W 2217  11.788   9.219  14.904
29958W        W 2218  44.120  39.738   2.716
29959W        W 2219  26.440  40.927   3.641
29960W        W 2220  14.752  10.417  13.952
29961W        W 2221  42.012  43.207   4.516
29962W        W 2222  26.002   0.074  12.937
29963W        W 2223  13.767   5.167  11.530
29964W        W 2224  37.588  15.757   4.290
29965W        W 2225  17.362  25.296  12.522
29966W        W 2226   7.230   8.687   2.709
29967W        W 2227  22.941   5.338  13.872
29968W        W 2228  24.116  15.407  14.942
29969W        W 2229  11.819  22.035  10.602
29970W        W 2230  22.283  20.406  12.022
29971W        W 2231   7.305  22.579  10.733
29972W        W 2232   5.397   0.036   3.847
29973W        W 2233  41.691  24.481  14.602
29974W        W 2234  26.511  16.561  13.603
29975W        W 2235  27.018  41.057  11.599
29976W        W 2236  12.321  35.916  10.721
29977W        W 2237  35.166  13.613   2.322
29978W        W 2238  42.291  29.641   3.701
29979W        W 2239  38.022  38.039   0.864
29980W        W 2240  42.498  43.935  13.041
29981W        W 2241   0.777  22.562  11.155
29982W        W 2242  33.417  11.585   2.711
29983W        W 2243   0.265  32.180   1.273
29984W        W 2244  22.260  26.375   4.400
29985W        W 2245  43.122  20.520  12.783
29986W        W 2246  28.021  42.724  14.893
29987W        W 2247  44.809   8.922   2.777
29988W        W 2248   8.941  19.404  10.280
29989W        W 2249  37.900  25.697  10.512
29990W        W 2250  11.929   6.906   0.409
29991W        W 2251   4.020   7.275   5.246
29992W        W 2252   7.929  39.931  14.402
29993W        W 2253  24.680  16.772  11.577
29994W        W 2254  33.664   6.287  13.959
29995W        W 2255  21.776  29.480   3.251
29996W        W 2256  42.383  10.206  13.197
29997W        W 2257   6.344  20.810  13.142
29998W        W 2258  41.503  21.813  14.584
29999W        W 2259  25.556  12.497  11.155
30000W        W 2260  33.608  37.624   0.402
30001W        W 2261   2.228   3.905   0.375
30002W        W 2262  31.411  19.602  12.504
30003W        W 2263  26.502  12.723   0.346
30004W        W 2264  42.956  43.857   2.594
30005W        W 2265  33.545  31.682  14.496
30006W        W 2266   5.688  26.521  10.489
30007W        W 2267  33.108   8.141   3.261
30008W        W 2268   9.100   9.055  13.486
30009W        W 2269  24.743  14.930  10.945
30010W        W 2270   4.539   9.467  11.899
30011W        W 2271  31.606  28.684   1.750
30012W        W 2272  42.994  41.239  10.991
30013W        W 2273  27.235  42.060  14.579
30014W        W 2274  14.595  32.045  13.080
30015W        W 2275   1.298  16.861  10.633
30016W        W 2276  39.223  37.667  10.419
30017W        W 2277  26.535  35.380   1.333
30018W        W 2278  13.919  34.609   1.359
30019W        W 2279   0.654  21.293  12.404
30020W        W 2280  32.466  38.680  10.742
30021W        W 2281  25.188  24.446   4.575
30022W        W 2282   4.298  10.028  11.130
30023W        W 2283  42.960  11.804   4.126
30024W        W 2284  24.585  37.294   1.357
30025W        W 2285  30.428  14.330  11.104
30026W        W 2286  36.735  31.197  10.666
30027W        W 2287  13.203  37.966   4.612
30028W        W 2288  41.037   6.302   1.916
30029W        W 2289   7.892  37.338  12.463
30030W        W 2290   4.659  18.330   4.563
30031W        W 2291  36.200  17.570   4.125
30032W        W 2292  19.059  26.962   4.115
30033W        W 2293  42.375  41.342   3.783
30034W        W 2294  36.134   2.495   5.070
30035W        W 2295  43.497  43.718   3.215
30036W        W 2296   1.743   4.399   4.813
30037W        W 2297   0.478  34.046  10.754
30038W        W 2298   3.782  15.560  12.664
30039W        W 2299  11.648  37.890  12.166
30040W        W 2300   7.633  29.662   4.154
30041W        W 2301  25.670  13.655  12.351
30042W        W 2302  18.981  14.388  11.556
30043W        W 2303  34.991  44.385   1.137
30044W        W 2304   6.854  37.096  14.417
30045W        W 2305   8.307   8.318  13.403
30046W        W 2306   5.911   5.316   3.454
30047W        W 2307   2.031  18.706  13.020
30048W        W 2308  14.414   4.308   2.875
30049W        W 2309  42.720  20.075   2.401
30050W        W 2310   0.916  44.770  14.921
30051W        W 2311  11.859   2.713   4.337
30052W        W 2312  37.007  11.744  10.825
30053W        W 2313   3.779   1.492  13.559
30054W        W 2314   5.527  25.964   2.253
30055W        W 2315   0.950  30.022  10.439
30056W        W 2316  34.695   4.450  10.743
30057W        W 2317   7.881   8.885   0.445
30058W        W 2318  21.524  24.203   5.071
30059W        W 2319   3.179   0.438  13.774
30060W        W 2320  37.208   8.214  10.262
30061W        W 2321  34.476   6.620   3.214
30062W        W 2322   8.840  36.356   1.349
30063W        W 2323  27.002   3.697   3.064
30064W        W 2324   7.626  31.653   0.828
30065W        W 2325  20.525  11.401   1.014
30066W        W 2326  17.612  26.427  13.967
30067W        W 2327  10.688  36.055   2.113
30068W        W 2328  41.966  44.798   4.665
30069W        W 2329  21.333   7.988   2.831
30070W        W 2330   2.379  32.140   3.170
30071W        W 2331  22.171  38.392   2.694
30072W        W 2332  25.729   8.813   5.094
30073W        W 2333  41.005  42.882   3.768
30074W        W 2334  30.733  13.529   2.135
30075W        W 2335   6.711  19.630  14.311
30076W        W 2336  20.614   4.142   0.476
30077W        W 2337  28.025  43.261  14.902
30078W        W 2338  30.940  19.085  12.789
30079W        W 2339   8.039   6.309  13.762
30080W        W 2340  13.870  44.228   0.720
30081W        W 2341  18.188  33.482  14.402
30082W        W 2342  33.630  22.702   4.445
30083W        W 2343  29.983  35.993   3.625
30084W        W 2344  15.622  19.273   3.293
30085W        W 2345   8.784  15.356   2.167
30086W        W 2346  24.809  10.477   5.142
30087W        W 2347  12.390  31.247   0.056
30088W        W 2348   5.826  31.537  10.548
30089W        W 2349  34.218  43.268  10.727
30090W        W 2350  24.042  27.395  14.963
30091W        W 2351  43.441   0.429   4.368
30092W        W 2352  11.849  10.879  14.126
30093W        W 2353  24.504  24.194   0.340
30094W        W 2354  14.679  30.354  11.621
30095W        W 2355  44.891  15.872   1.550
30096W        W 2356  25.023  33.612   1.179
30097W        W 2357   5.955  13.422  12.452
30098W        W 2358  40.955  37.323   2.732
30099W        W 2359  17.187   1.405   0.702
30100W        W 2360  24.585  38.997   1.178
30101W        W 2361  11.761  23.681  11.188
30102W        W 2362   9.599  21.170  11.949
30103W        W 2363  41.528  13.187  11.668
30104W        W 2364  41.452  26.888   0.519
30105W        W 2365  21.131   7.324   0.963
30106W        W 2366  36.786  31.194   3.068
30107W        W 2367   7.015  33.918   4.238
30108W        W 2368  27.661   5.242   2.423
30109W        W 2369  29.889   4.520   2.147
30110W        W 2370  32.357  12.144  10.806
30111W        W 2371  35.316   9.909   3.315
30112W        W 2372  39.332  28.640   1.819
30113W        W 2373  21.399  31.524  13.929
30114W        W 2374  22.461  37.476   3.792
30115W        W 2375   8.885   5.982  12.852
30116W        W 2376  41.864  21.044  13.162
30117W        W 2377  22.256  34.105   2.823
30118W        W 2378  22.364  14.440  12.047
30119W        W 2379  15.697  11.045  11.268
30120W        W 2380  18.300  13.086   3.300
30121W        W 2381  35.922  35.431  14.309
30122W        W 2382  35.877  33.539   0.037
30123W        W 2383  16.338  39.898  14.401
30124W        W 2384  22.018  35.955  13.797
30125W        W 2385  22.574   4.129  11.038
30126W        W 2386  32.831  28.486  12.442
30127W        W 2387  18.705   7.318  10.655
30128W        W 2388  21.602  10.428  11.045
30129W        W 2389  10.686   5.480   0.272
30130W        W 2390  15.494   9.216   0.281
30131W        W 2391  16.245  24.687  13.454
30132W        W 2392  42.120  43.566  11.327
30133W        W 2393   2.930   1.695  11.044
30134W        W 2394   3.607  10.122   0.663
30135W        W 2395  19.837  10.633  13.454
30136W        W 2396   6.853  16.594  13.098
30137W        W 2397  10.708  23.518   1.018
30138W        W 2398   4.884   5.562  10.766
30139W        W 2399   6.751  36.247  10.605
30140W        W 2400  33.213   2.842   2.156
30141W        W 2401  13.105   2.515  12.964
30142W        W 2402  34.442   8.397  12.297
30143W        W 2403  16.441  14.506  12.111
30144W        W 2404  17.115  21.533  12.918
30145W        W 2405  21.781  20.034   4.852
30146W        W 2406  37.434   7.882   0.364
30147W        W 2407  30.486  14.421  14.405
30148W        W 2408  33.507  15.228   2.512
30149W        W 2409  26.350  41.265   0.405
30150W        W 2410   7.654  22.243   2.844
30151W        W 2411  11.181  29.882   3.167
30152W        W 2412   7.765  19.749  14.258
30153W        W 2413  19.633  31.604   1.731
30154W        W 2414  41.103   4.000  10.423
30155W        W 2415  21.666  11.516  12.846
30156W        W 2416   0.740  17.647  12.902
30157W        W 2417  41.815  27.686  11.437
30158W        W 2418  31.729   3.951  14.378
30159W        W 2419  22.533  15.434   0.247
30160W        W 2420  19.821  13.052  14.226
30161W        W 2421  41.114  25.746   4.153
30162W        W 2422   2.498  14.852   4.005
30163W        W 2423  20.251  40.007  12.048
30164W        W 2424   5.296  18.658   3.669
30165W        W 2425  17.665  20.027   1.780
30166W        W 2426  38.074  14.435  14.957
30167W        W 2427   4.952  30.149   4.140
30168W        W 2428  29.419  26.924  14.308
30169W        W 2429  10.288  10.175  13.038
30170W        W 2430   0.406  22.570   3.179
30171W        W 2431   1.168  28.808   3.249
30172W        W 2432  15.295  29.235   4.899
30173W        W 2433  43.167  11.649   2.373
30174W        W 2434  16.703   0.955   4.636
30175W        W 2435  23.235  41.000   2.173
30176W        W 2436  41.988  39.950   4.112
30177W        W 2437  42.393  41.086  13.370
30178W        W 2438  31.515  10.211  10.970
30179W        W 2439  41.028   7.780   3.404
30180W        W 2440   7.258  12.922   3.150
30181W        W 2441  33.403  15.787  12.102
30182W        W 2442  23.213  20.983   2.397
30183W        W 2443  12.146  37.098   2.233
30184W        W 2444  40.597   7.860   4.267
30185W        W 2445  15.556   8.428   2.262
30186W        W 2446  31.385   7.222   4.715
30187W        W 2447  22.137  18.281  14.035
30188W        W 2448  43.511  22.584   1.865
30189W        W 2449  39.615  37.406   3.321
30190W        W 2450   5.414  37.994  11.573
30191W        W 2451  16.020   2.789  14.502
30192W        W 2452   5.984  27.569  13.018
30193W        W 2453   4.166  25.721   1.770
30194W        W 2454  36.909   8.791  14.822
30195W        W 2455  29.929  24.097  10.687
30196W        W 2456  30.373   4.221   1.031
30197W        W 2457   7.106   5.817  13.315
30198W        W 2458  21.845  39.982   3.806
30199W        W 2459  10.182  27.519   1.700
30200W        W 2460  15.683  39.506   3.742
30201W        W 2461  13.920  13.209  13.947
30202W        W 2462  40.507   0.230   0.923
30203W        W 2463  42.375  15.743  10.600
30204W        W 2464  30.859  39.683  11.390
30205W        W 2465  43.365  24.484  14.796
30206W        W 2466  23.561  41.602   0.399
30207W        W 2467  43.537  28.946  14.221
30208W        W 2468  34.411   9.725   2.649
30209W        W 2469  19.760  10.915  12.976
30210W        W 2470  18.114  19.853  12.450
30211W        W 2471  32.536  33.373   3.757
30212W        W 2472  39.332  10.813  13.292
30213W        W 2473   6.259  31.943  11.369
30214W        W 2474   2.389  32.380  11.663
30215W        W 2475   5.477  17.276   0.220
30216W        W 2476  12.994  39.589   3.602
30217W        W 2477  42.573  17.023  13.563
30218W        W 2478  41.293   8.134  13.267
30219W        W 2479  22.482  29.391  12.821
30220W        W 2480  32.180  31.994  11.617
30221W        W 2481  13.478   1.926  10.338
30222W        W 2482  43.694  33.669  11.422
30223W        W 2483  36.188  23.807  11.585
30224W        W 2484  33.673  44.974  12.490
30225W        W 2485  29.286  25.587  11.136
30226W        W 2486  27.208  22.023  12.842
30227W        W 2487  28.694  29.452  12.340
30228W        W 2488  33.900  34.064   3.849
30229W        W 2489   2.714   9.817  13.016
30230W        W 2490  10.795  20.372  13.354
30231W        W 2491  39.389  35.170   1.444
30232W        W 2492  44.783  41.065   1.812
30233W        W 2493  43.773  11.105  13.036
30234W        W 2494  33.911   4.692   3.290
30235W        W 2495  31.557  37.664  13.966
30236W        W 2496  32.909   9.139  13.073
30237W        W 2497  16.345  10.677   0.955
30238W        W 2498  39.197  34.380   0.761
30239W        W 2499  34.958  39.294   4.481
30240W        W 2500  28.451  42.878   3.278
30241W        W 2501  31.136  17.635   3.661
30242W        W 2502  13.346  34.317   4.674
30243W        W 2503  11.430  43.018   1.216
30244W        W 2504  41.104  38.118  13.100
30245W        W 2505   9.103  36.854  12.927
30246W        W 2506  37.430  27.234  14.417
30247W        W 2507  32.075   5.421  12.697
30248W        W 2508  10.198   4.364   1.648
30249W        W 2509  35.847   3.929   3.305
30250W        W 2510   6.838  16.109  11.977
30251W        W 2511  40.654  44.567   4.998
30252W        W 2512  37.965  19.808   0.486
30253W        W 2513  41.000  39.284  12.505
30254W        W 2514  30.340  25.662  11.192
30255W        W 2515  44.770  23.766  13.662
30256W        W 2516  42.981  16.574  14.276
30257W        W 2517  37.196  31.607   0.935
30258W        W 2518  39.590   1.972  14.443
30259W        W 2519  41.588  12.684  11.595
30260W        W 2520  36.475  40.244  12.757
30261W        W 2521  25.042  17.219   4.271
30262W        W 2522  37.377  21.620   4.664
30263W        W 2523   9.760  21.620   1.265
30264W        W 2524  13.914  14.104   2.962
30265W        W 2525  43.619  40.533   4.234
30266W        W 2526   3.787  30.133  11.392
30267W        W 2527  14.176  13.137  14.449
30268W        W 2528  41.354   9.676   1.312
30269W        W 2529  14.106   9.210  13.954
30270W        W 2530   5.413  12.520   4.945
30271W        W 2531   8.275  10.585   2.794
30272W        W 2532  25.446  35.911  12.452
30273W        W 2533  37.000  40.767   4.293
30274W        W 2534  15.703  42.686   3.141
30275W        W 2535  31.192  24.440   0.368
30276W        W 2536  39.025  21.356  11.156
30277W        W 2537  29.154  43.498   0.383
30278W        W 2538   5.505  18.638  14.855
30279W        W 2539   5.511   1.381  12.049
30280W        W 2540   3.676  40.110   4.333
30281W        W 2541  36.499  36.309   0.940
30282W        W 2542  37.853  43.763  12.921
30283W        W 2543  43.779  14.890  14.008
30284W        W 2544   2.389  31.768   3.624
30285W        W 2545  23.639  38.364   4.584
30286W        W 2546  30.160  35.088   3.104
30287W        W 2547  10.282  34.787   1.802
30288W        W 2548  43.578  32.563  10.482
30289W        W 2549   0.455  40.285  12.034
30290W        W 2550  29.922  23.052   1.864
30291W        W 2551  24.263  22.619   2.845
30292W        W 2552   4.231  21.240  12.466
30293W        W 2553   6.170   6.350  10.625
30294W        W 2554  33.009  36.532   0.176
30295W        W 2555  14.403  10.277   3.740
30296W        W 2556  27.490  22.808  10.672
30297W        W 2557  12.624  33.701   4.561
30298W        W 2558  30.236   4.807   0.888
30299W        W 2559  34.413  43.273  13.780
30300W        W 2560  21.311  29.035   4.522
30301W        W 2561  41.481  15.766  12.464
30302W        W 2562  37.953  31.001  11.286
30303W        W 2563  22.492  34.973  14.309
30304W        W 2564  25.004  30.876   2.254
30305W        W 2565  20.949  11.358   1.799
30306W        W 2566  36.844  37.788  12.495
30307W        W 2567  16.806  32.614  12.391
30308W        W 2568   2.260  39.625   3.297
30309W        W 2569  27.101  16.134  13.977
30310W        W 2570  27.435  16.083  13.530
30311W        W 2571  39.745  34.948   2.678
30312W        W 2572   1.546  14.643   4.174
30313W        W 2573  26.578  24.531  14.187
30314W        W 2574  39.351  29.462  14.706
30315W        W 2575  17.619  34.481   0.276
30316W        W 2576  20.020  28.417  13.661
30317W        W 2577  22.707  27.987  12.569
30318W        W 2578   7.943  35.080   2.266
30319W        W 2579  22.464  10.350  11.053
30320W        W 2580  36.829  23.976   3.147
30321W        W 2581   3.852   2.492  10.726
30322W        W 2582   3.862  10.081  13.304
30323W        W 2583  26.945  13.303  14.036
30324W        W 2584  13.630  19.732  14.604
30325W        W 2585   7.284  31.090  12.432
30326W        W 2586  24.506   3.840  11.576
30327W        W 2587  30.610   1.889  13.092
30328W        W 2588   2.674  23.182  12.764
30329W        W 2589  25.673  24.967  14.372
30330W        W 2590   1.147  34.454  14.339
30331W        W 2591  44.486  44.084  14.283
30332W        W 2592  25.743  30.379   0.703
30333W        W 2593  37.448  40.945   0.694
30334W        W 2594   6.204  14.068  13.594
30335W        W 2595  22.132  35.019  12.064
30336W        W 2596  22.576  16.709   1.878
30337W        W 2597  13.146  40.523  13.981
30338W        W 2598   0.973  40.126   1.287
30339W        W 2599   0.171  36.485   4.789
30340W        W 2600  15.374  43.971   0.900
30341W        W 2601  25.693   4.210  13.122
30342W        W 2602  37.334   3.183  14.018
30343W        W 2603  11.098   7.774   0.785
30344W        W 2604  37.108   2.344  10.761
30345W        W 2605  27.849  32.444  10.148
30346W        W 2606  26.599  34.376  12.535
30347W        W 2607   4.614  12.282  14.522
30348W        W 2608  20.313  18.105   2.442
30349W        W 2609  17.616  28.924  10.749
30350W        W 2610  36.848  11.357  14.480
30351W        W 2611   7.885   4.278   3.059
30352W        W 2612  38.008   8.362   4.348
30353W        W 2613  23.273   2.324  14.236
30354W        W 2614  12.376  24.703   0.886
30355W        W 2615   8.467   8.840  10.682
30356W        W 2616   4.318  20.648  13.380
30357W        W 2617  43.784   2.706   4.551
30358W        W 2618  17.141  40.885   2.056
30359W        W 2619   4.827  37.093   1.734
30360W        W 2620   6.551   0.332  10.770
30361W        W 2621   9.331  34.497   1.155
30362W        W 2622  31.919   3.097   0.186
30363W        W 2623  39.372  10.986   0.318
30364W        W 2624  35.347  11.758  14.231
30365W        W 2625  41.673   1.317  14.735
30366W        W 2626   1.000  34.466   3.230
30367W        W 2627   6.015  25.118  10.200
30368W        W 2628  15.519  40.141  12.870
30369W        W 2629   7.652   6.404   0.380
30370W        W 2630  28.110   2.862  14.555
30371W        W 2631  19.297  39.940   3.651
30372W        W 2632  41.877  13.428  13.934
30373W        W 2633  31.531  27.771   2.048
30374W        W 2634  30.846  36.458  13.549
30375W        W 2635  13.462  18.101   9.963
30376W        W 2636  40.846  37.059  14.754
30377W        W 2637   8.218  25.940  10.737
30378W        W 2638  13.390   2.888  10.825
30379W        W 2639  16.217   5.385  12.164
30380W        W 2640  29.032  33.891   3.828
30381W        W 2641   7.298  22.668   1.741
30382W        W 2642  27.032  18.817  13.531
30383W        W 2643  43.544  23.444   2.153
30384W        W 2644  24.905  26.941  14.223
30385W        W 2645  10.356  24.571  10.639
30386W        W 2646   2.177  25.138  14.009
30387W        W 2647   4.880  42.628  13.044
30388W        W 2648   0.244   7.908   1.356
30389W        W 2649  35.460  13.878   3.320
30390W        W 2650   6.334  11.126  13.491
30391W        W 2651  30.195  40.843   2.548
30392W        W 2652   1.714   5.344  11.133
30393W        W 2653   7.876   8.172  11.752
30394W        W 2654   4.019  33.529   0.661
30395W        W 2655  12.661  43.788  13.110
30396W        W 2656   6.784  42.847   0.306
30397W        W 2657  41.356  28.876   3.129
30398W        W 2658  14.077  27.740   1.619
30399W        W 2659   0.746  24.896   2.595
30400W        W 2660   4.273  21.086  14.368
30401W        W 2661   3.911  28.681  11.193
30402W        W 2662   0.180  16.985   2.222
30403W        W 2663  37.322  13.568   4.273
30404W        W 2664  42.375  43.225   0.300
30405W        W 2665  26.573   1.367   1.069
30406W        W 2666  33.496  24.169  10.386
30407W        W 2667  15.727   2.743  10.822
30408W        W 2668  37.591   9.821  13.717
30409W        W 2669  29.020   2.205  12.508
30410W        W 2670  42.013  31.897   0.372
30411W        W 2671   3.175  35.114  10.698
30412W        W 2672  41.606  23.161  13.391
30413W        W 2673  30.118  41.857   0.739
30414W        W 2674  30.222  24.120   0.330
30415W        W 2675  24.149  14.158   4.506
30416W        W 2676  43.696  27.737   0.313
30417W        W 2677   6.473  27.660  11.371
30418W        W 2678  26.997  28.411   2.607
30419W        W 2679  40.312  30.598   3.091
30420W        W 2680  34.183  18.003   3.233
30421W        W 2681  41.574  30.380  10.779
30422W        W 2682  44.487   7.187  13.580
30423W        W 2683  19.640   5.771  14.823
30424W        W 2684  35.555  23.195   4.087
30425W        W 2685  35.581   8.909   4.519
30426W        W 2686   3.467   8.373   3.473
30427W        W 2687  33.000  41.119  12.613
30428W        W 2688   8.224   7.660   4.109
30429W        W 2689  18.581  40.409  12.866
30430W        W 2690  35.407   6.539   4.569
30431W        W 2691   4.053  20.270  11.573
30432W        W 2692  44.999  39.535  10.887
30433W        W 2693  27.727  20.329   0.988
30434W        W 2694   0.773   3.323   4.482
30435W        W 2695   8.819  33.656  10.722
30436W        W 2696  18.131  30.513  13.058
30437W        W 2697  11.643  23.645   1.006
30438W        W 2698  17.183  28.151   2.742
30439W        W 2699  30.061   1.579   1.886
30440W        W 2700  44.037   1.951   1.754
30441W        W 2701  16.686  39.022   2.363
30442W        W 2702  33.079  36.273   3.545
30443W        W 2703   3.781  27.140  11.375
30444W        W 2704  40.247  32.378  14.384
30445W        W 2705  43.323   0.351   0.436
30446W        W 2706   3.983  13.762   3.604
30447W        W 2707  27.365  11.567  14.481
30448W        W 2708  29.194  39.817   3.589
30449W        W 2709  16.300  15.218  14.925
30450W        W 2710  29.553   4.984  11.133
30451W        W 2711   4.515  30.910  11.810
30452W        W 2712  24.028   8.135  12.600
30453W        W 2713  13.563   8.400   1.891
30454W        W 2714  28.030  14.517  13.084
30455W        W 2715  12.662  34.964   3.861
30456W        W 2716  36.801  29.046   0.377
30457W        W 2717  34.331  24.216   3.168
30458W        W 2718  32.142   1.664   9.998
30459W        W 2719   9.412   5.010  13.610
30460W        W 2720  31.042  35.156   3.287
30461W        W 2721  30.497   6.692  13.010
30462W        W 2722  31.957   3.213   3.115
30463W        W 2723  15.717   0.013  12.729
30464W        W 2724  32.164   5.202  11.841
30465W        W 2725  38.934  43.550   2.533
30466W        W 2726   1.898  10.654   2.665
30467W        W 2727   8.179  12.402  12.911
30468W        W 2728  14.223   4.172   2.339
30469W        W 2729  24.553  34.644  10.722
30470W        W 2730  36.030  10.336  13.293
30471W        W 2731  41.333  38.168  14.275
30472W        W 2732   5.327   4.088   0.504
30473W        W 2733  27.097   0.041   1.769
30474W        W 2734  32.579  40.600   4.597
30475W        W 2735  34.869  16.616   2.299
30476W        W 2736  29.893  13.597  10.689
30477W        W 2737   6.379  10.240  14.340
30478W        W 2738   7.664  12.002   2.251
30479W        W 2739  17.741  20.737  11.670
30480W        W 2740  19.734  33.117   4.068
30481W        W 2741  42.422  35.670  13.455
30482W        W 2742  16.959  43.229   2.870
30483W        W 2743  16.170   4.047   3.983
30484W        W 2744  39.247  14.337  12.045
30485W        W 2745  10.215  10.137   4.291
30486W        W 2746   3.733   1.771   0.950
30487W        W 2747   5.993  12.277  14.934
30488W        W 2748  18.220  24.533   3.833
30489W        W 2749  15.212  24.527   4.497
30490W        W 2750  41.498  41.428   1.397
30491W        W 2751  13.381  43.278   3.707
30492W        W 2752  31.980  30.422   1.878
30493W        W 2753  36.443   1.937  13.773
30494W        W 2754  12.844   7.247   2.457
30495W        W 2755  28.237  21.563  10.361
30496W        W 2756  16.684  23.141  14.899
30497W        W 2757   0.757  30.653   3.075
30498W        W 2758  42.035   2.391  13.901
30499W        W 2759  44.209  21.550  10.614
30500W        W 2760  42.918   8.935   2.656
30501W        W 2761   9.901  40.068  14.329
30502W        W 2762  21.061  28.238  10.408
30503W        W 2763  14.299  11.363  12.053
30504W        W 2764   7.189   9.825   3.227
30505W        W 2765  29.880  40.056  13.267
30506W        W 2766   4.534  28.927  14.494
30507W        W 2767  23.953   6.640   1.308
30508W        W 2768  39.898   1.993   4.166
30509W        W 2769   0.496  13.726  11.171
30510W        W 2770  30.503  20.003  10.612
30511W        W 2771   1.871  30.786   0.102
30512W        W 2772  43.241  37.071  12.914
30513W        W 2773  38.330  29.053  10.385
30514W        W 2774  29.671  30.294  14.932
30515W        W 2775  35.278   1.315  11.893
30516W        W 2776  22.815  31.587   1.293
30517W        W 2777  33.727  37.270  13.498
30518W        W 2778   1.800  44.486  13.996
30519W        W 2779  27.483   1.802  10.819
30520W        W 2780   3.494  14.440  11.299
30521W        W 2781   9.791   3.058   0.533
30522W        W 2782  20.182  22.202   3.635
30523W        W 2783  18.530  25.933  13.904
30524W        W 2784   8.802  42.387   4.296
30525W        W 2785  25.671  30.960   1.398
30526W        W 2786   4.427  22.937  10.609
30527W        W 2787  33.891  40.892   2.772
30528W        W 2788  36.545  26.765   4.127
30529W        W 2789  14.572  38.921  14.570
30530W        W 2790  13.126  12.336  14.383
30531W        W 2791  23.278  27.945  10.556
30532W        W 2792   8.685  25.206  12.168
30533W        W 2793   3.794  29.037   1.735
30534W        W 2794   6.938  19.748   4.478
30535W        W 2795  37.751  32.539   0.318
30536W        W 2796  14.406  16.047  11.671
30537W        W 2797   0.008   4.515   2.779
30538W        W 2798   1.829  44.493  11.525
30539W        W 2799  12.634  22.053   1.997
30540W        W 2800  14.834  15.128  13.487
30541W        W 2801  44.334   0.723  14.796
30542W        W 2802  41.506  27.435   4.111
30543W        W 2803   4.696  35.367   4.518
30544W        W 2804  28.956  40.359  13.825
30545W        W 2805  11.490  23.752   3.251
30546W        W 2806  16.847  25.136   5.021
30547W        W 2807  19.967   1.504  11.870
30548W        W 2808  30.005  33.856  10.724
30549W        W 2809  39.288  21.625   3.717
30550W        W 2810  20.509  12.315   0.471
30551W        W 2811  30.025   4.835  14.864
30552W        W 2812  22.873  21.283  13.412
30553W        W 2813  19.223  26.726  11.636
30554W        W 2814   5.596   9.062  12.844
30555W        W 2815  20.187  26.749   4.847
30556W        W 2816   0.667  30.140   0.342
30557W        W 2817   0.318  37.784  11.399
30558W        W 2818  29.765   0.196   4.059
30559W        W 2819  24.731  16.861   1.064
30560W        W 2820  40.048  43.373  11.992
30561W        W 2821  28.468  17.628  10.535
30562W        W 2822  10.922  22.533  14.942
30563W        W 2823  44.669  26.925   4.707
30564W        W 2824   9.331  32.975   1.389
30565W        W 2825   2.287  37.508  13.414
30566W        W 2826  11.765  14.813   0.453
30567W        W 2827   6.389  39.414  12.948
30568W        W 2828  35.097  43.381   3.170
30569W        W 2829   0.367  44.537   1.165
30570W        W 2830   1.580  32.364   0.599
30571W        W 2831   0.450  37.499  14.320
30572W        W 2832  43.770  22.377   0.492
30573W        W 2833  38.555  35.648   3.432
30574W        W 2834  18.562  29.591   1.415
30575W        W 2835  26.016  43.008   3.798
30576W        W 2836  27.187  16.336  14.520
30577W        W 2837  39.551  17.987   2.264
30578W        W 2838  29.191  23.378   2.270
30579W        W 2839  32.145   9.963  10.232
30580W        W 2840  10.020  24.697  14.484
30581W        W 2841  17.126   7.762   3.870
30582W        W 2842  36.730   2.732   1.735
30583W        W 2843   3.367  14.541   2.041
30584W        W 2844  10.646   8.886  13.023
30585W        W 2845   3.707  14.349  14.396
30586W        W 2846  21.057   2.790  11.201
30587W        W 2847  39.894   0.454  10.928
30588W        W 2848  42.993  13.176   3.876
30589W        W 2849  44.248  16.286  14.774
30590W        W 2850  25.239  30.023  10.460
30591W        W 2851  24.483   0.420   1.599
30592W        W 2852  31.717  43.916   4.621
30593W        W 2853  25.605  18.605   4.005
30594W        W 2854  22.895  42.965   3.756
30595W        W 2855  13.344  17.832   0.363
30596W        W 2856   9.203  30.358  13.960
30597W        W 2857   5.263  35.910  12.573
30598W        W 2858  19.663   1.809  13.234
30599W        W 2859  32.964   7.255   2.621
30600W        W 2860  36.568  25.039  12.476
30601W        W 2861  27.152  12.102   4.808
30602W        W 2862  12.394  26.385   0.462
30603W        W 2863  18.757  10.901   4.152
30604W        W 2864   0.957  34.584  13.482
30605W        W 2865  38.452   9.918  10.220
30606W        W 2866  40.372  40.335  11.217
30607W        W 2867  43.030  28.909  13.358
30608W        W 2868   3.916  44.375   0.063
30609W        W 2869  19.209   9.430   1.533
30610W        W 2870  19.928  38.090   2.244
30611W        W 2871  29.476  40.321   1.462
30612W        W 2872  10.928  35.146   2.230
30613W        W 2873  32.091  21.056  13.580
30614W        W 2874  32.916  40.930  13.385
30615W        W 2875   6.098  16.151   2.889
30616W        W 2876   2.958  17.320  14.990
30617W        W 2877  17.839  18.336   4.665
30618W        W 2878  36.609   8.122   2.749
30619W        W 2879  31.250   1.716  14.347
30620W        W 2880  24.216   1.812   3.717
30621W        W 2881  23.592   9.492  12.472
30622W        W 2882  44.208  27.589   3.699
30623W        W 2883  31.879   5.994   4.497
30624W        W 2884  13.896   2.331  14.044
30625W        W 2885  14.541  37.239  13.093
30626W        W 2886  44.810  32.014  12.946
30627W        W 2887  34.690  16.057   4.123
30628W        W 2888   8.668  15.246  13.833
30629W        W 2889  34.653  12.287  13.948
30630W        W 2890   4.192  38.614  14.310
30631W        W 2891   7.643  18.793   2.399
30632W        W 2892  15.351   8.183  14.815
30633W        W 2893  28.434  42.236   0.251
30634W        W 2894  36.830  17.302  11.207
30635W        W 2895  16.731  27.115  14.267
30636W        W 2896  28.992  40.411   4.686
30637W        W 2897  19.979  11.390  12.441
30638W        W 2898  39.233  25.703   1.021
30639W        W 2899  37.865  28.936   4.137
30640W        W 2900   6.875  24.750   0.317
30641W        W 2901  26.932  10.887  11.666
30642W        W 2902  38.980  40.971   4.534
30643W        W 2903   0.916   3.753  11.013
30644W        W 2904  19.184   6.748  12.508
30645W        W 2905  33.054  27.970   4.218
30646W        W 2906  19.650   5.423  10.645
30647W        W 2907   8.456  33.422   2.081
30648W        W 2908   8.503  33.167  12.430
30649W        W 2909   0.910  22.890  13.797
30650W        W 2910  20.031  20.114   1.351
30651W        W 2911  11.076  15.654  11.930
30652W        W 2912  14.053  30.530  12.537
30653W        W 2913  42.393   6.950   2.839
30654W        W 2914  35.553  43.449   0.534
30655W        W 2915  25.458  20.523  11.986
30656W        W 2916  43.132  24.789   0.932
30657W        W 2917  34.988  40.873  13.848
30658W        W 2918  23.137   3.533  14.922
30659W        W 2919  38.757  38.681   1.317
30660W        W 2920  26.366  26.238  12.404
30661W        W 2921  39.450  44.346   0.235
30662W        W 2922  38.966  28.847  12.421
30663W        W 2923  29.760  42.521   2.204
30664W        W 2924  34.097   1.242  13.845
30665W        W 2925  38.724  25.251  13.888
30666W        W 2926   5.521  13.131   3.093
30667W        W 2927  27.713  24.017  11.213
30668W        W 2928  41.453  18.501   1.296
30669W        W 2929  28.610  15.693   2.744
30670W        W 2930  31.693  40.974   4.357
30671W        W 2931   0.134  28.605  13.589
30672W        W 2932  17.578  22.399  10.630
30673W        W 2933  28.745   6.140  10.784
30674W        W 2934  41.863  20.383   1.379
30675W        W 2935  42.634  23.767  14.046
30676W        W 2936   8.259  22.404   3.441
30677W        W 2937  13.690  34.131   3.915
30678W        W 2938  43.984  19.287  12.400
30679W        W 2939  33.470  36.349   0.866
30680W        W 2940  26.229  22.489  12.016
30681W        W 2941  44.046  28.988   1.852
30682W        W 2942  13.288   6.936  13.454
30683W        W 2943  38.432   6.521  11.320
30684W        W 2944  25.634  13.166   4.490
30685W        W 2945  43.373  13.286   2.183
30686W        W 2946  29.471  33.507  14.950
30687W        W 2947   2.613  18.678  14.478
30688W        W 2948  12.638  32.201  12.912
30689W        W 2949  21.626  13.730   3.796
30690W        W 2950  17.351   6.251   2.486
30691W        W 2951  13.303   7.789  14.393
30692W        W 2952  39.059  15.850   2.159
30693W        W 2953  33.042   1.237  10.657
30694W        W 2954  23.761  34.259   2.805
30695W        W 2955  40.360   1.381   3.129
30696W        W 2956  23.141   3.842  11.577
30697W        W 2957   7.114   4.760   0.552
30698W        W 2958  20.454  30.048   3.504
30699W        W 2959   2.008   6.813   4.196
30700W        W 2960   3.353   3.283  12.925
30701W        W 2961  38.872  34.904   3.299
30702W        W 2962  41.925  34.575   3.761
30703W        W 2963  29.394  31.379  12.569
30704W        W 2964   2.042  38.318   4.050
30705W        W 2965   1.962  31.207  13.424
30706W        W 2966  12.425  37.582   5.037
30707W        W 2967  44.693  29.915  10.049
30708W        W 2968  43.848  36.905   4.094
30709W        W 2969   7.433  14.205   2.167
30710W        W 2970   5.300   8.714   3.820
30711W        W 2971  21.143  13.869  13.026
30712W        W 2972  32.097  28.534   3.901
30713W        W 2973  38.488  17.081   3.915
30714W        W 2974  10.751  44.436   2.177
30715W        W 2975  13.786   1.942   3.243
30716W        W 2976  14.749  28.384  11.516
30717W        W 2977  28.013  17.811  14.925
30718W        W 2978   1.350   6.844  11.230
30719W        W 2979  25.224  37.932  13.750
30720W        W 2980  27.562  31.915  13.409
30721W        W 2981  26.210  27.112   2.660
30722W        W 2982   8.289  39.840   0.256
30723W        W 2983   6.785  30.092  12.870
30724W        W 2984  10.234  31.182  10.671
30725W        W 2985  15.360  12.549  14.713
30726W        W 2986   6.694  25.697   0.589
30727W        W 2987  43.490  33.877   2.342
30728W        W 2988  40.800  28.083  11.572
30729W        W 2989  30.660  28.085   0.360
30730W        W 2990  19.581   6.357  12.584
30731W        W 2991  22.304  12.199  13.891
30732W        W 2992  11.271  17.783  12.408
30733W        W 2993  15.513  11.845  13.001
30734W        W 2994  22.034  15.148  11.025
30735W        W 2995  14.728  17.062   3.812
30736W        W 2996  19.776   2.973  13.231
30737W        W 2997  36.975  42.887  12.618
30738W        W 2998   7.431  35.060  12.528
30739W        W 2999  35.824  35.181   2.790
30740W        W 3000  40.313  27.869   2.609
30741W        W 3001   3.894  33.948   1.651
30742W        W 3002  26.991  43.274  14.852
30743W        W 3003  26.501  16.477  14.111
30744W        W 3004  17.186  10.821  12.321
30745W        W 3005  20.710  22.329  10.453
30746W        W 3006   4.335   6.383   3.845
30747W        W 3007  27.953  23.003   1.734
30748W        W 3008  25.498  19.535   0.667
30749W        W 3009  41.039  25.155  14.503
30750W        W 3010   2.688  41.740  12.456
30751W        W 3011  19.275  44.793   1.344
30752W        W 3012   3.395  28.172  11.463
30753W        W 3013  26.680  17.088   4.142
30754W        W 3014  41.668  13.885  10.514
30755W        W 3015   9.701  39.002   3.427
30756W        W 3016  11.932   8.448  13.097
30757W        W 3017  31.016  17.185   3.429
30758W        W 3018  30.486  43.987   2.398
30759W        W 3019  38.584  16.663  11.840
30760W        W 3020   4.468  31.467   2.662
30761W        W 3021   4.766  44.198  10.974
30762W        W 3022  44.735   2.478   2.972
30763W        W 3023  32.250  13.876  12.368
30764W        W 3024  44.482  41.822  12.482
30765W        W 3025   6.188  33.203  10.891
30766W        W 3026  35.608  25.217   1.598
30767W        W 3027  39.990  34.656  13.086
30768W        W 3028  41.364  14.244   2.201
30769W        W 3029  30.715  32.421  10.647
30770W        W 3030   4.650  15.102   4.286
30771W        W 3031  29.243  38.430  11.839
30772W        W 3032  22.646  21.969  12.620
30773W        W 3033   4.708  10.343  12.523
30774W        W 3034  31.978   9.935  11.061
30775W        W 3035  43.711  14.723  14.508
30776W        W 3036   7.284  30.842   0.789
30777W        W 3037  11.873   5.205  13.995
30778W        W 3038  33.049  43.791   3.399
30779W        W 3039  25.520   7.770   3.299
30780W        W 3040  28.467  10.605  13.962
30781W        W 3041  32.668  38.871   3.192
30782W        W 3042   0.938  12.649   1.210
30783W        W 3043  23.071   7.497   3.856
30784W        W 3044   0.269  23.490  11.445
30785W        W 3045  17.280  35.845   4.446
30786W        W 3046  21.403   1.156  11.113
30787W        W 3047  24.013  24.661   2.421
30788W        W 3048  35.818  41.290  13.570
30789W        W 3049   9.408  14.808   3.671
30790W        W 3050  27.620  36.643   2.395
30791W        W 3051  41.789  15.320   1.703
30792W        W 3052   2.846  22.345  12.134
30793W        W 3053  31.453  44.084  11.154
30794W        W 3054   5.324  12.754  13.599
30795W        W 3055  30.099  38.490  14.072
30796W        W 3056  15.353  33.972   4.964
30797W        W 3057  15.852  31.561   1.417
30798W        W 3058  32.960  28.249  14.464
30799W        W 3059   7.265   7.317  14.642
30800W        W 3060  41.354  35.362  11.481
30801W        W 3061  19.667  25.184  12.028
30802W        W 3062  18.814   6.538   4.741
30803W        W 3063  26.100  41.604   4.070
30804W        W 3064  34.011  14.685   2.818
30805W        W 3065   1.061   6.886  11.683
30806W        W 3066  17.844  40.444   2.369
30807W        W 3067  11.759   6.894  10.614
30808W        W 3068  39.861  29.697   0.424
30809W        W 3069  16.707  23.793  13.657
30810W        W 3070  25.918  35.614  14.503
30811W        W 3071  29.995  37.844   3.161
30812W        W 3072  26.659  40.378   4.614
30813W        W 3073  32.905  30.662  11.694
30814W        W 3074  38.102  44.486   2.223
30815W        W 3075  16.225  19.373  12.677
30816W        W 3076   1.747  20.209   2.951
30817W        W 3077  21.652  43.217  13.119
30818W        W 3078   9.348  27.960   1.360
30819W        W 3079   9.936  36.936  14.755
30820W        W 3080  12.689  28.383   3.303
30821W        W 3081  25.715  23.495  11.706
30822W        W 3082   9.458  23.304  11.057
30823W        W 3083  12.783  32.688   1.848
30824W        W 3084  36.064  23.439   1.921
30825W        W 3085  33.456   3.764  12.993
30826W        W 3086  27.194  41.500   4.663
30827W        W 3087  17.800  40.253  14.038
30828W        W 3088  43.263  22.145   1.742
30829W        W 3089   6.800  34.931  11.063
30830W        W 3090  24.001   4.421   4.366
30831W        W 3091   2.832  31.442   1.862
30832W        W 3092   8.850  11.884   3.770
30833W        W 3093  19.787  43.874  14.378
30834W        W 3094  17.255  39.142   0.223
30835W        W 3095  17.564   2.563   3.260
30836W        W 3096  20.949  38.870   2.160
30837W        W 3097  38.057  32.859   4.140
30838W        W 3098  23.521  14.581   4.129
30839W        W 3099  29.509  29.041   5.029
30840W        W 3100  44.780  29.443   1.152
30841W        W 3101  12.655   7.591   1.415
30842W        W 3102  17.753  42.399  13.427
30843W        W 3103  43.775   3.619  13.455
30844W        W 3104  11.811  20.727  14.757
30845W        W 3105   1.839  38.003   0.744
30846W        W 3106  38.877  28.559   2.301
30847W        W 3107  33.652   4.791   1.766
30848W        W 3108   1.861  36.829  10.457
30849W        W 3109  35.684  10.671  14.743
30850W        W 3110  28.865  42.888  11.085
30851W        W 3111  27.070  32.863   2.698
30852W        W 3112   6.166  37.126   3.135
30853W        W 3113  36.048   1.288   4.889
30854W        W 3114  25.676   0.571  12.496
30855W        W 3115   3.267   6.783   0.727
30856W        W 3116  23.529  18.070  14.844
30857W        W 3117  30.925  26.118  13.547
30858W        W 3118  13.854   5.231   1.365
30859W        W 3119  39.233  36.041  13.420
30860W        W 3120  22.285   4.309  14.408
30861W        W 3121  39.498   6.302   3.839
30862W        W 3122   6.916  34.467   3.556
30863W        W 3123  10.661  19.739   2.871
30864W        W 3124  40.977   1.040  12.539
30865W        W 3125   6.331  36.996  12.353
30866W        W 3126  29.421  41.947  12.945
30867W        W 3127   4.739  15.420   2.731
30868W        W 3128   6.724  20.128  13.078
30869W        W 3129  27.426  10.407   2.068
30870W        W 3130  14.339  31.435  13.462
30871W        W 3131  14.288  39.636   3.881
30872W        W 3132   8.861  23.709  10.606
30873W        W 3133  44.479  12.275  14.171
30874W        W 3134  26.699   9.787  14.310
30875W        W 3135  38.957  12.424  11.760
30876W        W 3136  35.134  12.291  12.966
30877W        W 3137  31.507  14.780   0.696
30878W        W 3138  35.303  30.562   0.859
30879W        W 3139   8.259  27.436   1.728
30880W        W 3140   2.866  38.433  10.678
30881W        W 3141   6.269   2.543  14.347
30882W        W 3142  27.615  42.352  12.698
30883W        W 3143  33.682  35.467  13.904
30884W        W 3144   5.277   4.351  14.093
30885W        W 3145  19.104  26.217   3.362
30886W        W 3146  23.052   8.221   0.700
30887W        W 3147  37.319  12.635   3.664
30888W        W 3148   7.327  27.992  13.044
30889W        W 3149  29.141   7.106  12.310
30890W        W 3150  37.411  18.056  11.562
30891W        W 3151  30.878  16.119   4.610
30892W        W 3152   4.430   4.749   4.569
30893W        W 3153  35.152  35.115  12.589
30894W        W 3154   3.885  14.380  13.085
30895W        W 3155   6.567  40.137   4.208
30896W        W 3156  25.471  41.446   1.029
30897W        W 3157  34.087   4.819  11.034
30898W        W 3158  43.368  32.850  11.142
30899W        W 3159  11.552   6.881   4.225
30900W        W 3160  43.259  24.541  10.829
30901W        W 3161  11.650  17.024  14.285
30902W        W 3162   8.199  32.624   0.322
30903W        W 3163  40.005  41.820   0.962
30904W        W 3164  41.481  36.216  12.993
30905W        W 3165  25.907  38.918  10.984
30906W        W 3166  28.399  36.063   4.590
30907W        W 3167  19.298  38.915   3.763
30908W        W 3168  14.231  22.986  13.858
30909W        W 3169  44.254  29.354   1.499
30910W        W 3170  22.081  29.106   3.408
30911W        W 3171  12.446  35.106  11.114
30912W        W 3172  32.414   2.231  11.212
30913W        W 3173  10.273  17.032  14.064
30914W        W 3174   3.009   0.222   2.243
30915W        W 3175  29.464  30.569   3.531
30916W        W 3176  35.071  17.860  11.705
30917W        W 3177  31.921  19.968   2.710
30918W        W 3178   3.712   5.647   4.082
30919W        W 3179  25.135  14.680   4.501
30920W        W 3180  43.414  44.551   1.902
30921W        W 3181  15.700  33.137   2.800
30922W        W 3182  39.872  36.422  11.581
30923W        W 3183  26.682  28.415   0.167
30924W        W 3184  39.033  36.673  11.583
30925W        W 3185  33.013  25.492   4.281
30926W        W 3186  10.746  33.121  14.080
30927W        W 3187  34.578  29.100   1.665
30928W        W 3188  20.176   8.102  11.089
30929W        W 3189  36.054   3.498  11.730
30930W        W 3190  16.528  35.057  12.477
30931W        W 3191   9.001  26.988  12.945
30932W        W 3192  23.214  40.812  10.464
30933W        W 3193  25.673  44.367   2.887
30934W        W 3194  42.265  15.269   4.130
30935W        W 3195  28.198  26.629   0.766
30936W        W 3196  39.986  38.550  13.476
30937W        W 3197  26.846  26.121  12.534
30938W        W 3198  22.714  37.763   1.188
30939W        W 3199  14.408  22.889   3.654
30940W        W 3200   6.393  13.299  13.706
30941W        W 3201  33.094   1.451  11.143
30942W        W 3202   5.770  20.172  12.816
30943W        W 3203  24.931  34.408   4.075
30944W        W 3204  10.364  33.233   3.432
30945W        W 3205  42.407  39.482  13.423
30946W        W 3206  14.065  29.876  10.992
30947W        W 3207  23.131  17.225  13.563
30948W        W 3208  31.295  39.682  11.686
30949W        W 3209  16.063   1.177   4.043
30950W        W 3210   2.108   3.742   0.856
30951W        W 3211  43.326   5.711   1.698
30952W        W 3212  28.116  26.378  13.907
30953W        W 3213  37.751  19.454   3.388
30954W        W 3214  41.365  44.200  13.464
30955W        W 3215  11.700  36.461  13.572
30956W        W 3216  39.280  44.740   2.803
30957W        W 3217  31.380  33.905  11.614
30958W        W 3218   8.377  12.764   3.858
30959W        W 3219  19.333  32.444   3.767
30960W        W 3220  40.402  22.926   4.524
30961W        W 3221  26.093  33.898   2.169
30962W        W 3222   6.669  32.514   3.174
30963W        W 3223  44.088  10.189  14.755
30964W        W 3224  33.924  28.392  12.549
30965W        W 3225  40.078  17.301  11.143
30966W        W 3226  12.732  11.916  11.665
30967W        W 3227  36.421  16.042   0.867
30968W        W 3228   1.304  27.158   2.771
30969W        W 3229  19.619  35.991  12.927
30970W        W 3230  18.044  18.836   0.311
30971W        W 3231  14.296  10.275  11.175
30972W        W 3232  24.259   0.693   4.355
30973W        W 3233  36.775  42.787  12.138
30974W        W 3234  17.310  42.096  11.611
30975W        W 3235  30.502   0.469   2.266
30976W        W 3236  16.543  35.824   3.228
30977W        W 3237  22.533   6.417   0.289
30978W        W 3238  21.295  16.216   1.839
30979W        W 3239  15.804  30.560  13.324
30980W        W 3240  37.346   4.794  12.083
30981W        W 3241  36.028  19.271   3.624
30982W        W 3242  26.610   5.803   1.916
30983W        W 3243  21.119  22.689   3.703
30984W        W 3244  14.585  29.088   1.064
30985W        W 3245  43.488  37.494   4.125
30986W        W 3246   5.082  19.702   4.414
30987W        W 3247  32.092  37.048   3.313
30988W        W 3248   1.256  39.707  11.173
30989W        W 3249  43.282  33.369   0.382
30990W        W 3250  38.469  33.976   0.706
30991W        W 3251  20.340  17.634   0.770
30992W        W 3252   6.434  39.127   4.466
30993W        W 3253  27.459  40.992  14.779
30994W        W 3254  42.864   5.712   1.232
30995W        W 3255  32.447  37.218   0.860
30996W        W 3256  29.588  44.725  11.285
30997W        W 3257   7.309  43.596  13.123
30998W        W 3258  21.512   5.883  14.039
30999W        W 3259  44.859  14.931   3.161
31000W        W 3260  44.491  34.930   5.515
31001W        W 3261  27.368  12.186   0.681
31002W        W 3262   4.213  11.387   3.147
31003W        W 3263  17.074   0.479  10.642
31004W        W 3264  37.531   2.928  14.860
31005W        W 3265  43.485   5.683  12.605
31006W        W 3266  41.908  36.019   3.106
31007W        W 3267   4.922  23.969  11.671
31008W        W 3268  16.877  29.544  13.327
31009W        W 3269  38.049  30.612   3.724
31010W        W 3270   3.670   4.663  13.611
31011W        W 3271  18.267   5.840  14.316
31012W        W 3272   9.932  29.382   1.670
31013W        W 3273  42.582  32.895   0.512
31014W        W 3274  39.263  16.817   1.251
31015W        W 3275  14.731  41.496   3.138
31016W        W 3276   4.970  12.058   1.748
31017W        W 3277  17.002  19.626  14.516
31018W        W 3278  29.700  29.453   2.196
31019W        W 3279  23.192  31.679  13.750
31020W        W 3280  43.481  41.456  12.903
31021W        W 3281   3.378   3.303   0.448
31022W        W 3282  14.270  37.404  12.156
31023W        W 3283  27.696  41.252   1.806
31024W        W 3284   7.383  22.185   1.541
31025W        W 3285  40.424  15.091  12.906
31026W        W 3286   6.905  33.408   4.325
31027W        W 3287   7.739  42.429  14.332
31028W        W 3288  35.252  15.300  10.436
31029W        W 3289  14.290  10.677  13.827
31030W        W 3290  10.770  41.220   2.416
31031W        W 3291  23.593  12.969   1.776
31032W        W 3292  35.930  29.625   3.265
31033W        W 3293   8.968  16.736   2.213
31034W        W 3294  34.032  26.510  11.488
31035W        W 3295   3.790   7.990   2.726
31036W        W 3296   1.994  11.628   3.278
31037W        W 3297  26.533  27.883   1.953
31038W        W 3298  34.183  29.038   0.349
31039W        W 3299  35.014  28.208  13.762
31040W        W 3300   1.019   4.785  14.477
31041W        W 3301   5.416  16.141   4.660
31042W        W 3302  14.487   1.476   0.492
31043W        W 3303  34.145  40.957  14.943
31044W        W 3304   8.234  36.778  10.676
31045W        W 3305  33.811  22.557   1.907
31046W        W 3306   8.287  44.383   1.326
31047W        W 3307  16.774  12.360   1.456
31048W        W 3308  33.338  22.603  12.501
31049W        W 3309   2.449  16.263   3.253
31050W        W 3310  33.097  15.071   2.828
31051W        W 3311  31.047  15.409   0.501
31052W        W 3312   8.420  27.592   5.091
31053W        W 3313  10.602  28.177  14.278
31054W        W 3314  24.412  15.146   0.300
31055W        W 3315  21.043   2.449   3.950
31056W        W 3316  23.073  39.548  10.698
31057W        W 3317  33.935  27.139  10.857
31058W        W 3318  42.450  13.678   4.211
31059W        W 3319  19.793  26.554   1.541
31060W        W 3320  38.838  16.723   4.244
31061W        W 3321   2.244  13.742  12.665
31062W        W 3322  18.336  35.585  14.158
31063W        W 3323  35.986  40.118  14.434
31064W        W 3324  26.041  12.094   0.842
31065W        W 3325  10.170  10.136  12.502
31066W        W 3326  29.891   1.196  13.077
31067W        W 3327  25.965  16.831   0.688
31068W        W 3328  35.925  26.550   3.438
31069W        W 3329  31.047  27.348  11.522
31070W        W 3330  29.208   0.237   3.203
31071W        W 3331  29.197   8.185  13.710
31072W        W 3332  37.070   7.675   0.710
31073W        W 3333  28.624  25.628  12.490
31074W        W 3334  21.519  23.954  11.550
31075W        W 3335  30.944  33.879  11.302
31076W        W 3336  15.118  19.662  13.238
31077W        W 3337  20.291  39.813   0.864
31078W        W 3338  29.624  32.098  14.821
31079W        W 3339  18.552  17.713   1.323
31080W        W 3340  29.498  27.420   3.116
31081W        W 3341   8.976   1.742  10.862
31082W        W 3342  24.017  42.509  13.069
31083W        W 3343  39.037   9.774   2.804
31084W        W 3344   7.392  24.008   0.449
31085W        W 3345  21.794   1.890   4.202
31086W        W 3346   2.807  10.777   0.379
31087W        W 3347  13.754  18.714  11.342
31088W        W 3348  37.744   1.530  10.621
31089W        W 3349  19.068  30.944   0.685
31090W        W 3350  29.015  31.402   1.725
31091W        W 3351  29.558   6.613   1.806
31092W        W 3352   2.508   1.945  14.572
31093W        W 3353  19.514  35.963  12.417
31094W        W 3354  43.425  36.039  14.999
31095W        W 3355  44.468  37.436   2.163
31096W        W 3356  41.362  33.918  13.001
31097W        W 3357  35.320  15.740   2.885
31098W        W 3358  38.430   3.146  13.933
31099W        W 3359  21.840  14.205  14.167
31100W        W 3360   4.414  27.955   4.526
31101W        W 3361  39.387  21.074   4.520
31102W        W 3362  35.462   9.510   0.061
31103W        W 3363  14.343  36.515  10.582
31104W        W 3364   9.153  30.383   0.519
31105W        W 3365  10.041  12.689   0.409
31106W        W 3366  40.368  28.154  12.447
31107W        W 3367  23.488  25.941   4.238
31108W        W 3368  19.687  24.280   2.360
31109W        W 3369   0.532  32.385   2.677
31110W        W 3370  15.897  25.644  12.128
31111W        W 3371   1.434  34.787   0.288
31112W        W 3372  20.974  19.687  12.360
31113W        W 3373  16.575   4.307  10.955
31114W        W 3374  20.274   8.599  11.109
31115W        W 3375  26.500  33.590  12.017
31116W        W 3376  30.366  15.112  12.242
31117W        W 3377   2.372   6.399  14.939
31118W        W 3378  44.711  11.805   3.375
31119W        W 3379  24.697  38.079  13.721
31120W        W 3380  22.703   5.935  11.090
31121W        W 3381  11.233   1.935  10.729
31122W        W 3382  16.767  12.353  12.894
31123W        W 3383   6.937   6.411   3.183
31124W        W 3384  34.444  27.142   1.146
31125W        W 3385  15.075  29.347  10.598
31126W        W 3386  41.149  14.761  12.393
31127W        W 3387  32.349  30.225  11.452
31128W        W 3388  33.379  13.210  12.110
31129W        W 3389   5.714  13.181  12.865
31130W        W 3390  12.322  14.692  10.706
31131W        W 3391  37.118   6.860  14.446
31132W        W 3392  12.826   4.318  11.849
31133W        W 3393  35.813   8.256  12.117
31134W        W 3394  29.172  41.509   1.709
31135W        W 3395  11.915  37.848   2.849
31136W        W 3396  18.762   0.905  12.977
31137W        W 3397  37.035  36.479   3.408
31138W        W 3398   2.277  20.214   3.022
31139W        W 3399  27.244   6.839   0.137
31140W        W 3400  10.739  36.281  12.600
31141W        W 3401  16.815  24.704  14.898
31142W        W 3402  19.446   1.402  10.645
31143W        W 3403  32.987  21.472  12.560
31144W        W 3404   8.340  34.569   0.993
31145W        W 3405  23.621  37.030   3.834
31146W        W 3406  25.945  41.029  12.942
31147W        W 3407  25.999  12.583   0.997
31148W        W 3408  19.819  14.153   4.689
31149W        W 3409  17.308  44.517   3.857
31150W        W 3410  33.395  41.380   2.334
31151W        W 3411  39.908  36.610  13.140
31152W        W 3412  42.216  33.869  13.819
31153W        W 3413  44.242  35.414   3.891
31154W        W 3414  30.915  22.598   3.477
31155W        W 3415   5.187  37.496   0.789
31156W        W 3416  21.057  31.622  11.080
31157W        W 3417  37.813   1.401   1.812
31158W        W 3418  43.593   2.913  10.557
31159W        W 3419  29.953   1.971  13.899
31160W        W 3420  44.547  35.331   3.469
31161W        W 3421  40.093  23.641   0.137
31162W        W 3422  40.518  21.315   0.687
31163W        W 3423  31.231  15.222  10.698
31164W        W 3424  12.159  43.332  14.106
31165W        W 3425   8.380   4.991  13.543
31166W        W 3426  42.819  36.713  10.956
31167W        W 3427   7.774  22.935  12.921
31168W        W 3428  26.505   0.860  10.967
31169W        W 3429  40.763  26.251  13.531
31170W        W 3430  38.239  10.461  12.032
31171W        W 3431  39.831   4.352   4.796
31172W        W 3432  29.207  36.437  10.675
31173W        W 3433  34.503   4.235  11.567
31174W        W 3434  27.200  37.905  10.398
31175W        W 3435  21.463   4.999  14.051
31176W        W 3436  28.272  17.034   2.252
31177W        W 3437   2.487   9.782  11.687
31178W        W 3438  40.539   6.630   5.055
31179W        W 3439  43.703  43.993  10.336
31180W        W 3440   2.530  31.338   0.894
31181W        W 3441  25.689  11.260   0.809
31182W        W 3442  14.651  21.713  13.869
31183W        W 3443  20.833   6.357  10.614
31184W        W 3444   3.794  15.743   2.358
31185W        W 3445   6.342  11.789  10.271
31186W        W 3446  32.136  32.477  13.291
31187W        W 3447   7.412   9.220   0.929
31188W        W 3448  37.870   6.594  10.406
31189W        W 3449   9.487  16.653  10.751
31190W        W 3450  35.880  11.247  13.499
31191W        W 3451  26.116   6.186   2.854
31192W        W 3452   3.826   5.791   0.231
31193W        W 3453   4.779  13.242  11.353
31194W        W 3454   1.734   4.675  12.270
31195W        W 3455  16.656  30.088   3.285
31196W        W 3456   4.396   8.987  11.124
31197W        W 3457   4.382  33.380   2.673
31198W        W 3458  41.355  40.442   1.388
31199W        W 3459   4.495  36.478   1.410
31200W        W 3460  30.090  20.208  11.288
31201W        W 3461   6.648  32.628   1.724
31202W        W 3462  37.292  34.808  11.648
31203W        W 3463  14.073  20.716  11.124
31204W        W 3464   6.888  15.934  14.294
31205W        W 3465  25.655  40.384  12.377
31206W        W 3466   5.940  31.184   3.234
31207W        W 3467  26.058  32.122   3.624
31208W        W 3468   2.224  38.642  12.025
31209W        W 3469  19.211  39.019  14.997
31210W        W 3470  23.803  28.107  13.002
31211W        W 3471   0.856  38.927  11.694
31212W        W 3472  23.542  12.323  14.474
31213W        W 3473  39.744  27.424  14.966
31214W        W 3474  42.027  17.524   0.540
31215W        W 3475  28.585  13.343   2.088
31216W        W 3476   7.232  16.240  11.202
31217W        W 3477   4.464  21.578  14.365
31218W        W 3478  39.372  12.207  13.822
31219W        W 3479  19.105  39.047   1.016
31220W        W 3480  20.999  12.712  14.860
31221W        W 3481  19.535   7.582  12.036
31222W        W 3482  11.370  34.044   0.193
31223W        W 3483  36.971  33.990   3.346
31224W        W 3484  24.072  11.274   1.197
31225W        W 3485  19.227   4.858  13.550
31226W        W 3486  32.497   6.803  10.627
31227W        W 3487   2.467  28.061  10.739
31228W        W 3488  37.595   6.178   5.032
31229W        W 3489   1.706  27.456  11.146
31230W        W 3490   0.392  22.806  12.084
31231W        W 3491  10.278  32.848   4.449
31232W        W 3492   1.870  10.730   1.089
31233W        W 3493  19.095  25.918  13.927
31234W        W 3494   6.960   8.205  14.325
31235W        W 3495  11.449  27.195   3.645
31236W        W 3496  30.159  28.990  11.996
31237W        W 3497  42.027  28.511   1.457
31238W        W 3498   5.621  11.103   2.698
31239W        W 3499  38.997  26.153   1.232
31240W        W 3500  26.971  20.584   0.632
31241W        W 3501  15.533  18.600  10.729
31242W        W 3502  25.178  35.983  11.122
31243W        W 3503  33.057  22.884   2.123
31244W        W 3504  25.045  30.122  13.114
31245W        W 3505  20.114   5.273  12.043
31246W        W 3506   7.631  39.852  10.379
31247W        W 3507  34.495   0.817  12.057
31248W        W 3508   3.923  40.393  10.449
31249W        W 3509  19.748  11.201   2.841
31250W        W 3510  38.234   4.459  11.052
31251W        W 3511   4.993  27.202  13.434
31252W        W 3512   1.066  21.043   2.703
31253W        W 3513   3.498  27.090  14.347
31254W        W 3514  12.729  44.965  11.889
31255W        W 3515  32.044  38.264  12.535
31256W        W 3516   0.713   8.706   5.109
31257W        W 3517  41.283  38.030   2.451
31258W        W 3518  12.762  16.706   1.373
31259W        W 3519  15.363  35.073   0.474
31260W        W 3520  23.763  32.915   2.767
31261W        W 3521  44.293  18.488  10.789
31262W        W 3522   2.956   0.771   1.963
31263W        W 3523  40.222  27.641   1.672
31264W        W 3524  18.049  32.052  10.851
31265W        W 3525  24.508  34.152  13.197
31266W        W 3526  27.519  29.422  12.830
31267W        W 3527   9.329  16.685   0.880
31268W        W 3528  32.075  24.461   1.318
31269W        W 3529  34.506  21.164   4.276
31270W        W 3530  33.291   9.525   1.996
31271W        W 3531  23.558  10.802  14.799
31272W        W 3532  35.461  27.230   0.485
31273W        W 3533  40.102  39.984   0.386
31274W        W 3534  38.360  34.690   1.904
31275W        W 3535  22.225  15.534   2.224
31276W        W 3536  31.401  16.109   4.566
31277W        W 3537  18.547  44.523  10.946
31278W        W 3538  30.604  43.417  12.930
31279W        W 3539   8.372  12.104   2.698
31280W        W 3540  39.233  17.693  14.858
31281W        W 3541  19.959   9.746   2.833
31282W        W 3542   6.255   1.664  12.222
31283W        W 3543   5.003   8.746   2.255
31284W        W 3544  16.781  25.185   4.180
31285W        W 3545  41.571  23.723   3.278
31286W        W 3546  39.614  11.694  12.449
31287W        W 3547  26.602   0.393  10.141
31288W        W 3548  42.356   3.675   4.632
31289W        W 3549  30.452  30.928   1.309
31290W        W 3550  24.152  31.086  11.784
31291W        W 3551  30.684   4.533   0.744
31292W        W 3552  32.492   5.822  14.487
31293W        W 3553  29.078   4.694  13.483
31294W        W 3554  12.861  36.553  12.677
31295W        W 3555  30.186  39.162  13.467
31296W        W 3556  35.774   8.401   0.811
31297W        W 3557  36.552  11.970  12.000
31298W        W 3558  15.772  26.068   3.313
31299W        W 3559  35.593  37.619  14.278
31300W        W 3560  41.590  24.578   0.399
31301W        W 3561  28.550  19.174  14.331
31302W        W 3562  34.103  25.982   3.675
31303W        W 3563  14.992  18.134  14.829
31304W        W 3564  27.965  36.123   0.324
31305W        W 3565  27.855   6.288  13.455
31306W        W 3566  24.798   0.121   2.378
31307W        W 3567   3.948  32.927   3.271
31308W        W 3568  23.505   1.390  13.100
31309W        W 3569   4.385   5.192   2.924
31310W        W 3570  25.699  10.957   4.395
31311W        W 3571  27.268  38.156   4.531
31312W        W 3572  27.594  11.644  11.504
31313W        W 3573  30.547  41.244  12.068
31314W        W 3574  25.939  29.114  12.463
31315W        W 3575  21.199   2.708  12.089
31316W        W 3576   1.397  13.856   0.103
31317W        W 3577   5.748  18.744  11.173
31318W        W 3578  24.131  29.124   1.970
31319W        W 3579   3.969  32.725  14.937
31320W        W 3580  40.749  42.568  14.531
31321W        W 3581  30.739   6.758   1.398
31322W        W 3582  34.930  41.829   0.705
31323W        W 3583  24.346   0.806  10.741
31324W        W 3584  18.308  25.684   1.006
31325W        W 3585  24.255  21.755   0.787
31326W        W 3586   4.819   2.254  11.489
31327W        W 3587   6.583  42.470   2.066
31328W        W 3588  44.356   9.551   1.613
31329W        W 3589  40.037   5.665   2.279
31330W        W 3590  22.140  15.053  14.956
31331W        W 3591  40.431  36.120  10.539
31332W        W 3592  29.774  12.765   1.719
31333W        W 3593  23.658  37.538  13.369
31334W        W 3594  36.264  10.252  11.939
31335W        W 3595   8.171  19.755  14.591
31336W        W 3596  18.210  25.556   1.873
31337W        W 3597  38.372  27.261  12.916
31338W        W 3598  42.475  12.127   4.868
31339W        W 3599  39.135  23.315   1.712
31340W        W 3600  24.156  35.216  13.023
31341W        W 3601  20.323   4.267  14.470
31342W        W 3602  41.575  35.137   1.900
31343W        W 3603  33.205  34.966   0.018
31344W        W 3604   2.855  10.851  12.589
31345W        W 3605  10.850   9.163   0.301
31346W        W 3606  34.064  32.093   0.898
31347W        W 3607  26.550  11.789   0.041
31348W        W 3608  29.113  22.475  13.864
31349W        W 3609  24.911  35.394  11.104
31350W        W 3610  30.149  32.108  14.891
31351W        W 3611  30.898  42.967   0.952
31352W        W 3612   7.912  25.961   9.761
31353W        W 3613  29.927  31.576  10.037
31354W        W 3614  26.981  37.158   4.614
31355W        W 3615   5.371  15.278   1.908
31356W        W 3616  27.659  40.544   1.447
31357W        W 3617   6.272  22.891   3.070
31358W        W 3618  13.336  30.576   4.196
31359W        W 3619  23.093   9.488   1.392
31360W        W 3620  42.931  13.214   0.444
31361W        W 3621  11.855   5.244  12.268
31362W        W 3622  41.215  30.541  13.787
31363W        W 3623   8.894  40.895   0.226
31364W        W 3624  22.212  39.930  12.875
31365W        W 3625  38.832  37.521   2.825
31366W        W 3626   7.217  38.468   4.245
31367W        W 3627   4.364  21.067  11.989
31368W        W 3628   7.963   7.599  13.079
31369W        W 3629  18.505  38.445  11.904
31370W        W 3630  36.500  16.254   0.394
31371W        W 3631  32.902  41.182  10.798
31372W        W 3632   1.928  24.120   0.363
31373W        W 3633  13.687   1.450   1.624
31374W        W 3634  23.687  26.021  10.848
31375W        W 3635   4.904   3.226  11.903
31376W        W 3636  44.711  31.521   4.142
31377W        W 3637   8.775  25.492   4.567
31378W        W 3638  44.784  24.982  13.788
31379W        W 3639  11.409  25.847  14.378
31380W        W 3640  19.599  32.452   4.793
31381W        W 3641  35.286  43.172  14.198
31382W        W 3642  11.327   1.604   0.442
31383W        W 3643  41.373  37.453   3.648
31384W        W 3644   5.134  14.549   3.106
31385W        W 3645  36.575  19.773   0.679
31386W        W 3646  39.416  27.583  11.470
31387W        W 3647  18.596  17.088  13.722
31388W        W 3648  19.081  23.064  11.493
31389W        W 3649  34.730  26.223  13.841
31390W        W 3650  14.621  15.198   0.805
31391W        W 3651   0.809   9.866  11.940
31392W        W 3652  13.655  25.962  13.034
31393W        W 3653  43.275  26.030   4.659
31394W        W 3654  28.835  12.375  12.016
31395W        W 3655  18.471  10.396   4.113
31396W        W 3656  36.221  41.139  14.389
31397W        W 3657  36.804  14.813  11.103
31398W        W 3658   0.376  24.598   4.911
31399W        W 3659  42.863   1.983   0.488
31400W        W 3660  39.424  44.250  10.874
31401W        W 3661  16.516  31.122  10.727
31402W        W 3662  22.746  38.170  12.048
31403W        W 3663  10.448  35.080   3.619
31404W        W 3664  33.051  41.913   0.678
31405W        W 3665   8.821   8.782   4.383
31406W        W 3666  39.773  19.139   4.150
31407W        W 3667   3.350  11.201  11.145
31408W        W 3668  21.992  13.522  11.982
31409W        W 3669  10.843  26.596   2.524
31410W        W 3670  21.645  37.534  14.103
31411W        W 3671  39.767  21.303  13.136
31412W        W 3672  13.884  17.349   5.498
31413W        W 3673  13.323  31.058   0.464
31414W        W 3674   7.476   9.812  12.565
31415W        W 3675  24.907   5.238  13.389
31416W        W 3676   4.520   6.492  14.397
31417W        W 3677   5.629  38.618   2.115
31418W        W 3678   1.143  42.415   1.150
31419W        W 3679  25.531  32.884   4.586
31420W        W 3680   5.601   9.899  13.330
31421W        W 3681  23.502   9.839  13.454
31422W        W 3682  13.765  40.194  12.968
31423W        W 3683   8.758   2.219   1.417
31424W        W 3684  25.250  12.815   1.220
31425W        W 3685  27.728  28.142  14.088
31426W        W 3686  10.153  34.493   2.940
31427W        W 3687   3.298  18.658   0.277
31428W        W 3688  29.410  13.678   3.155
31429W        W 3689  44.699  29.418   3.638
31430W        W 3690  43.302   2.481   4.418
31431W        W 3691  27.645  22.577   3.299
31432W        W 3692  17.051  10.387   2.449
31433W        W 3693  30.366  29.434  11.796
31434W        W 3694   1.706  38.465  11.362
31435W        W 3695  11.889  11.546  11.756
31436W        W 3696  41.787   4.859   3.274
31437W        W 3697  44.654  14.448   3.143
31438W        W 3698  41.944   4.212   3.887
31439W        W 3699   3.353   2.292   0.485
31440W        W 3700  38.944  33.985   0.983
31441W        W 3701  10.401  22.738   0.466
31442W        W 3702  40.726  44.934   3.384
31443W        W 3703  16.064  42.483  10.675
31444W        W 3704   2.450  15.889  13.382
31445W        W 3705  14.597  31.649  13.894
31446W        W 3706  44.858  22.574   1.367
31447W        W 3707  38.455  20.563   0.455
31448W        W 3708  35.131  40.811  12.954
31449W        W 3709  29.339  38.576   4.074
31450W        W 3710   4.820  32.310  14.488
31451W        W 3711   3.776  18.047  10.744
31452W        W 3712  36.904  43.979   4.440
31453W        W 3713  41.807  23.707  12.511
31454W        W 3714  37.686  27.070   4.566
31455W        W 3715  21.501  30.119  14.558
31456W        W 3716  20.634   6.483   2.863
31457W        W 3717  25.423  22.824  10.935
31458W        W 3718  16.821  10.232  14.329
31459W        W 3719  39.634   2.544   3.307
31460W        W 3720  25.363  34.003  14.826
31461W        W 3721  30.036  23.196  12.194
31462W        W 3722  23.629  12.565  14.023
31463W        W 3723   2.898  17.679   3.092
31464W        W 3724  22.445   6.797  13.876
31465W        W 3725  20.055  30.550   2.719
31466W        W 3726   3.714   2.576   3.118
31467W        W 3727  29.643  15.027  14.111
31468W        W 3728  17.677  35.173   0.656
31469W        W 3729  20.571  19.252  14.956
31470W        W 3730   4.704  27.225  14.698
31471W        W 3731  16.827  30.093   4.362
31472W        W 3732   6.675  26.292  14.970
31473W        W 3733   0.174  12.905   2.290
31474W        W 3734  18.157   7.776   5.401
31475W        W 3735  21.729   1.784  13.700
31476W        W 3736   8.935  40.959   3.212
31477W        W 3737  23.321  28.751   0.917
31478W        W 3738  14.981  17.812   4.708
31479W        W 3739  15.330  24.465  12.041
31480W        W 3740   8.436  15.872   2.192
31481W        W 3741  15.756  10.443  11.908
31482W        W 3742  23.256  44.966  10.513
31483W        W 3743  25.923  44.826  12.490
31484W        W 3744  34.633  32.059  12.028
31485W        W 3745   0.415  41.401  14.051
31486W        W 3746  24.445  44.790  14.597
31487W        W 3747  25.349   4.812  12.558
31488W        W 3748   8.124  29.380   1.885
31489W        W 3749  28.161  42.082   3.610
31490W        W 3750  43.314  43.300   0.743
31491W        W 3751  36.085   0.427   2.784
31492W        W 3752  38.253   6.265  12.158
31493W        W 3753   9.339   9.046   0.416
31494W        W 3754   6.857  21.187   2.604
31495W        W 3755  26.684  34.656   1.911
31496W        W 3756   7.138  10.583  13.958
31497W        W 3757  13.096  28.589   2.730
31498W        W 3758  34.512  11.128   0.785
31499W        W 3759  30.533  39.578   4.892
31500W        W 3760  39.922   6.666   3.214
31501W        W 3761  19.550  41.962   2.717
31502W        W 3762  33.072   9.288  13.550
31503W        W 3763  21.464   6.167  10.693
31504W        W 3764  21.171  35.499  10.682
31505W        W 3765  32.753  43.946   4.722
31506W        W 3766  37.995  26.469   0.173
31507W        W 3767  25.475  21.088   4.537
31508W        W 3768  20.136  44.371  11.960
31509W        W 3769  15.606  40.545   4.621
31510W        W 3770  38.931   2.503  14.503
31511W        W 3771  27.132   2.052  11.079
31512W        W 3772  12.365  40.621   1.598
31513W        W 3773  31.458  31.429  13.528
31514W        W 3774  17.610  19.689   2.611
31515W        W 3775  40.016  16.068  13.385
31516W        W 3776  18.840  14.815   0.809
31517W        W 3777  41.888  39.280   4.605
31518W        W 3778   1.021  15.689   0.811
31519W        W 3779   8.717  32.189  12.602
31520W        W 3780  23.543   6.164   1.063
31521W        W 3781   7.247  33.571  14.569
31522W        W 3782  14.545  34.414  14.759
31523W        W 3783  32.379  31.064   1.892
31524W        W 3784   4.278  24.461  14.549
31525W        W 3785   4.921  44.188   1.769
31526W        W 3786  26.445  10.681  13.302
31527W        W 3787  26.536  37.603  13.392
31528W        W 3788  24.461  20.721  10.547
31529W        W 3789  21.100   0.078   1.764
31530W        W 3790  36.516   7.818  12.016
31531W        W 3791   2.904   4.896   0.885
31532W        W 3792  11.400  39.676   1.842
31533W        W 3793  42.251   2.384  14.837
31534W        W 3794   0.728  40.478   5.147
31535W        W 3795  14.474  35.781  12.557
31536W        W 3796  12.825  28.027  14.543
31537W        W 3797  18.755   3.544  13.253
31538W        W 3798   9.822  21.804  14.435
31539W        W 3799   1.657  43.581  13.506
31540W        W 3800   8.224   9.301   1.391
31541W        W 3801  39.247  34.545  13.804
31542W        W 3802   0.271   6.612  13.928
31543W        W 3803  29.770  21.498  11.365
31544W        W 3804  25.175  33.416   2.589
31545W        W 3805  42.039  33.518  14.919
31546W        W 3806  44.552  22.757  11.540
31547W        W 3807   1.476  10.797  11.486
31548W        W 3808   1.001  35.392   1.700
31549W        W 3809  28.729   5.793   3.738
31550W        W 3810  32.694  36.133   3.192
31551W        W 3811  21.602  22.676  14.209
31552W        W 3812   0.847  15.810   3.705
31553W        W 3813  18.256  35.013   4.909
31554W        W 3814   7.502  21.797  12.072
31555W        W 3815  40.105   8.397  10.577
31556W        W 3816  20.325  18.580   3.827
31557W        W 3817  12.258  32.149   3.411
31558W        W 3818  16.752  35.782  13.302
31559W        W 3819  38.149  22.623   1.919
31560W        W 3820  18.408  41.700  12.416
31561W        W 3821   2.926  16.368  12.903
31562W        W 3822   5.227  37.321   3.552
31563W        W 3823  41.466   8.789   1.845
31564W        W 3824  28.919  32.919  11.675
31565W        W 3825  21.294  15.136  13.321
31566W        W 3826  41.813  17.074   4.474
31567W        W 3827  32.115  11.323  12.170
31568W        W 3828  13.381  15.835  11.770
31569W        W 3829  43.489  14.890  13.184
31570W        W 3830  11.210  36.493  14.844
31571W        W 3831  22.225   1.486  11.262
31572W        W 3832  20.735  44.223  14.896
31573W        W 3833  16.860   6.223  10.750
31574W        W 3834  34.413  44.178   4.091
31575W        W 3835  20.457  19.827   2.219
31576W        W 3836  21.674  42.098  13.122
31577W        W 3837  31.847  30.966   1.935
31578W        W 3838  36.307  37.044   2.441
31579W        W 3839  32.877  29.991  14.731
31580W        W 3840   0.166   3.480  13.394
31581W        W 3841  43.410  17.082   3.290
31582W        W 3842  36.975  20.553   4.260
31583W        W 3843  32.369  19.981   1.839
31584W        W 3844  37.177   0.457   2.830
31585W        W 3845  26.414   8.554   2.754
31586W        W 3846  10.900  33.426   4.175
31587W        W 3847  12.151  11.123   1.519
31588W        W 3848   5.463   1.485   3.756
31589W        W 3849  25.977  35.002   2.351
31590W        W 3850   6.677  42.721  11.112
31591W        W 3851   1.939  39.286   0.514
31592W        W 3852  34.454  23.623   4.082
31593W        W 3853  33.379   1.120  14.989
31594W        W 3854  18.363  14.659  11.711
31595W        W 3855   1.744  41.070   3.851
31596W        W 3856   6.529  39.099  11.005
31597W        W 3857  30.359  31.167   1.752
31598W        W 3858   8.260   4.693   3.781
31599W        W 3859   6.262  21.089   2.966
31600W        W 3860  40.969  23.948   3.895
31601W        W 3861  10.271  17.696   0.826
31602W        W 3862  26.474  28.958   0.927
31603W        W 3863   0.690   3.534   0.674
31604W        W 3864  10.707  36.269  13.485
31605W        W 3865  30.686  34.126   1.617
31606W        W 3866  22.709   9.081  12.152
31607W        W 3867  17.058  12.732  10.758
31608W        W 3868  24.281  37.954   2.478
31609W        W 3869  25.019   9.305   2.355
31610W        W 3870   7.463   9.813   1.409
31611W        W 3871   8.248  18.187   3.302
31612W        W 3872  19.273   2.767  12.546
31613W        W 3873  12.998  31.096   3.903
31614W        W 3874  21.842   8.370   3.255
31615W        W 3875  12.295  39.276  11.540
31616W        W 3876  16.266   4.285   1.284
31617W        W 3877  39.626  34.924  11.604
31618W        W 3878   9.869  38.410  14.049
31619W        W 3879  42.491  44.101  14.817
31620W        W 3880  18.514   5.911   1.400
31621W        W 3881   0.563  20.305   3.686
31622W        W 3882  39.578  31.358  14.357
31623W        W 3883  28.397   7.289  12.846
31624W        W 3884  10.790   3.001  11.159
31625W        W 3885  18.309  39.202   3.293
31626W        W 3886   5.824   4.456   4.124
31627W        W 3887   2.286  35.784   0.005
31628W        W 3888  12.650   4.386  12.821
31629W        W 3889  40.323  10.854   3.241
31630W        W 3890  17.014  15.893  12.453
31631W        W 3891  20.466  10.801   0.329
31632W        W 3892  23.240  12.202   1.521
31633W        W 3893  33.857  30.929  11.940
31634W        W 3894   7.683   2.370  12.503
31635W        W 3895  30.709  26.119   4.419
31636W        W 3896  37.411  38.585   1.398
31637W        W 3897  40.936  20.109  12.123
31638W        W 3898  10.112  15.902   9.997
31639W        W 3899  20.185  37.656   3.299
31640W        W 3900  14.549  19.177   3.273
31641W        W 3901  24.033  32.971  10.804
31642W        W 3902  26.390  26.116   2.761
31643W        W 3903   1.298  35.419  10.878
31644W        W 3904   0.655  17.777   1.445
31645W        W 3905  40.930   4.833  13.443
31646W        W 3906   4.420  12.768   1.383
31647W        W 3907   0.312  24.022   1.250
31648W        W 3908   7.377  35.912   4.376
31649W        W 3909  34.400   7.127   3.252
31650W        W 3910  11.425  42.887   0.663
31651W        W 3911  32.298   4.636  12.902
31652W        W 3912   8.337  12.141  13.341
31653W        W 3913  33.041  19.779   4.132
31654W        W 3914  19.135   0.772   0.780
31655W        W 3915  11.072  12.926  14.548
31656W        W 3916  20.284   6.176  11.500
31657W        W 3917   0.807   2.064   1.080
31658W        W 3918   3.234   8.937  13.082
31659W        W 3919  15.151  29.507   3.910
31660W        W 3920  17.338  27.501   4.245
31661W        W 3921   7.060  18.766  14.718
31662W        W 3922  10.799  22.990  10.350
31663W        W 3923  37.348  18.056  13.649
31664W        W 3924   5.204  17.590  13.781
31665W        W 3925  22.391   3.970   4.583
31666W        W 3926  23.843  18.943  11.186
31667W        W 3927  15.650  33.690   1.788
31668W        W 3928  36.011   5.177   4.630
31669W        W 3929  31.380  20.014   3.793
31670W        W 3930   9.856   3.697  14.033
31671W        W 3931  32.923  39.896  14.946
31672W        W 3932   1.529   7.258   4.164
31673W        W 3933  21.993  41.909   1.608
31674W        W 3934  23.879  36.022  10.516
31675W        W 3935  26.504  26.564  13.608
31676W        W 3936  22.095  16.781  10.933
31677W        W 3937  24.355  36.364   3.244
31678W        W 3938   4.268  25.975   0.185
31679W        W 3939  27.346  29.245   2.195
31680W        W 3940  15.383  32.048   2.768
31681W        W 3941  30.341  25.008  11.587
31682W        W 3942  43.422   8.559   2.643
31683W        W 3943  20.073   1.997   1.598
31684W        W 3944   8.383  25.134  14.258
31685W        W 3945  31.769  41.031  12.506
31686W        W 3946  12.978  32.424  13.326
31687W        W 3947   5.445  19.518   2.311
31688W        W 3948  10.689   8.262  12.350
31689W        W 3949  23.969  13.682   3.354
31690W        W 3950  31.270  37.111   0.290
31691W        W 3951  43.577  41.424  11.617
31692W        W 3952  44.193  18.072  11.963
31693W        W 3953  33.802  16.864  10.492
31694W        W 3954   0.390  33.723   2.992
31695W        W 3955   0.424  26.925  11.663
31696W        W 3956  28.038  16.168  11.669
31697W        W 3957  15.203   6.446   0.610
31698W        W 3958   3.222  18.394  11.737
31699W        W 3959  32.877  18.315   3.837
31700W        W 3960  30.315   3.954   3.707
31701W        W 3961  44.743  41.059  13.160
31702W        W 3962  34.106  10.749  11.563
31703W        W 3963  40.960  13.252  14.767
31704W        W 3964   2.212  42.054  12.445
31705W        W 3965  37.541  36.675   4.301
31706W        W 3966  11.127  43.513  14.050
31707W        W 3967  42.953  44.772  12.843
31708W        W 3968  21.960  13.788  12.805
31709W        W 3969   5.322   1.343   2.797
31710W        W 3970  22.201  12.734   2.296
31711W        W 3971  36.541  20.236   4.342
31712W        W 3972  19.294  43.486   0.861
31713W        W 3973  12.295   8.156   3.306
31714W        W 3974   6.650  11.707  11.583
31715W        W 3975   7.441   5.166   3.695
31716W        W 3976  39.370   8.224   4.577
31717W        W 3977   5.969   1.049  14.941
31718W        W 3978  32.506  34.418  13.022
31719W        W 3979  37.758   1.993  12.014
31720W        W 3980  14.688  39.994  12.988
31721W        W 3981  25.253  43.935  12.040
31722W        W 3982   4.139  37.353  11.086
31723W        W 3983  28.153  31.797   1.655
31724W        W 3984  11.098   5.454   3.261
31725W        W 3985  18.588  16.161   1.152
31726W        W 3986  32.499  12.600  10.580
31727W        W 3987  12.769  12.270   4.883
31728W        W 3988  26.737  30.126  10.737
31729W        W 3989  23.551   2.534   1.900
31730W        W 3990  33.709  25.193  13.336
31731W        W 3991  26.049  17.322   2.229
31732W        W 3992  43.364  15.575   4.670
31733W        W 3993   1.772  21.543   4.151
31734W        W 3994  10.313  20.513   0.872
31735W        W 3995   0.709  36.371  11.152
31736W        W 3996   4.883  16.502  14.730
31737W        W 3997  16.005  16.155   4.033
31738W        W 3998  43.394   3.348  11.237
31739W        W 3999  24.616  40.276  10.943
31740W        W 4000   4.443  20.081  13.395
31741W        W 4001  18.181  30.939   2.684
31742W        W 4002  42.347  42.761   0.946
31743W        W 4003  23.567  11.643  14.065
31744W        W 4004  27.854  34.736   4.077
31745W        W 4005  38.339   7.605  11.043
31746W        W 4006  22.524  10.774  12.309
31747W        W 4007  28.374  33.831   2.087
31748W        W 4008  12.380   1.302  12.113
31749W        W 4009  28.489  40.084   2.225
31750W        W 4010  41.274  44.033   0.608
31751W        W 4011  12.403   0.194   4.423
31752W        W 4012   7.119  22.674  11.200
31753W        W 4013   3.435   6.325  10.915
31754W        W 4014  11.244  10.687  11.865
31755W        W 4015  20.698  19.574  10.468
31756W        W 4016  27.429  33.133   3.293
31757W        W 4017  27.393  16.203   1.291
31758W        W 4018  44.272  11.913   4.629
31759W        W 4019  28.893  24.042   1.726
31760W        W 4020  36.842   3.735   3.157
31761W        W 4021  21.192   6.289   5.027
31762W        W 4022  41.943  23.734   3.637
31763W        W 4023  43.823   1.042   4.600
31764W        W 4024  28.203  43.094   3.689
31765W        W 4025  21.754  36.146   2.049
31766W        W 4026   2.265  34.455   0.768
31767W        W 4027  34.666   1.032  10.055
31768W        W 4028   7.012  38.402  13.945
31769W        W 4029  24.088  38.016  10.696
31770W        W 4030  29.021   2.958  11.824
31771W        W 4031   0.173  32.858  11.481
31772W        W 4032  15.522  14.225   0.825
31773W        W 4033   5.833   0.490   4.736
31774W        W 4034  19.771  40.976  12.559
31775W        W 4035  27.693  21.164   0.786
31776W        W 4036   7.336  40.007   2.219
31777W        W 4037   3.891   2.814  11.133
31778W        W 4038  10.845   3.900   0.331
31779W        W 4039   2.772  34.932  13.839
31780W        W 4040  36.580   0.446  13.972
31781W        W 4041  16.161  16.114  13.518
31782W        W 4042  32.519  35.899   4.093
31783W        W 4043   7.677  11.607  11.608
31784W        W 4044  37.048  24.437  14.165
31785W        W 4045  11.759  23.573   3.661
31786W        W 4046  31.719  13.834   4.313
31787W        W 4047  36.581  22.289   0.725
31788W        W 4048   8.327  25.183   3.581
31789W        W 4049  41.077  39.805  13.417
31790W        W 4050  15.655  12.761  10.708
31791W        W 4051  11.624  38.862   3.641
31792W        W 4052   2.779  44.201  11.076
31793W        W 4053  10.110  10.551  14.898
31794W        W 4054   2.873  22.233   1.836
31795W        W 4055  43.782  35.399  11.086
31796W        W 4056   6.451  31.490  13.854
31797W        W 4057  27.423  13.015   1.304
31798W        W 4058   7.309  24.127   3.060
31799W        W 4059   9.816  21.152  14.190
31800W        W 4060  16.044  37.034  13.839
31801W        W 4061  17.132  11.381   0.056
31802W        W 4062  11.881   9.284  12.076
31803W        W 4063  36.375   3.845   4.331
31804W        W 4064   2.468  31.730   4.155
31805W        W 4065  19.196  30.965   0.196
31806W        W 4066  12.573  28.956  11.640
31807W        W 4067  30.695  40.576   2.605
31808W        W 4068  41.622  37.247   3.108
31809W        W 4069  27.738  18.511   4.202
31810W        W 4070  12.095  13.916  11.089
31811W        W 4071   5.376  14.134  14.874
31812W        W 4072   0.720  33.529   0.489
31813W        W 4073  27.702  15.647   4.602
31814W        W 4074   8.787   7.827   0.447
31815W        W 4075  38.324  15.220   3.288
31816W        W 4076  30.159  30.354  14.037
31817W        W 4077  24.053  10.864  11.957
31818W        W 4078  36.849  41.994   2.590
31819W        W 4079   5.872  30.414   4.786
31820W        W 4080  19.973  38.547  12.131
31821W        W 4081   7.585   4.719   4.918
31822W        W 4082  36.000  36.491  10.948
31823W        W 4083   3.945  30.714   4.960
31824W        W 4084  13.874  42.764   0.937
31825W        W 4085  42.369  32.474  12.067
31826W        W 4086  23.717  16.033  14.365
31827W        W 4087  27.148  34.722  14.084
31828W        W 4088  32.687  17.602  11.942
31829W        W 4089   8.402   7.421  12.409
31830W        W 4090  10.738  18.258  14.565
31831W        W 4091  22.126  13.499  13.254
31832W        W 4092   3.513  34.155   1.331
31833W        W 4093  19.656   5.413   1.601
31834W        W 4094  19.810  23.224   0.686
31835W        W 4095  29.312  16.060  13.833
31836W        W 4096  31.403  40.927  11.167
31837W        W 4097  23.361  27.112  10.285
31838W        W 4098  34.987  41.790   4.106
31839W        W 4099  26.914   9.308  12.833
31840W        W 4100  24.629   3.333   4.831
31841W        W 4101   4.711  42.403   0.930
31842W        W 4102  14.324  20.094  14.405
31843W        W 4103  36.616   0.381   1.357
31844W        W 4104   7.616  27.693  14.299
31845W        W 4105   9.248  35.565   0.396
31846W        W 4106  14.312  13.864   2.262
31847W        W 4107  39.119   4.002  10.694
31848W        W 4108  36.929  27.480  14.481
31849W        W 4109  20.729  21.635   4.231
31850W        W 4110   9.776   0.486  10.604
31851W        W 4111   8.274  35.356  12.615
31852W        W 4112  40.404  20.321  13.942
31853W        W 4113  44.771  14.727   0.669
31854W        W 4114  17.365  19.613   3.088
31855W        W 4115  27.564   9.649   4.321
31856W        W 4116  16.795   7.289   4.603
31857W        W 4117   6.886  30.029   3.595
31858W        W 4118   9.688  33.864   2.255
31859W        W 4119  35.808  35.499   2.372
31860W        W 4120  23.406  10.225  13.802
31861W        W 4121  21.771  32.018   3.759
31862W        W 4122  11.229   7.206  14.995
31863W        W 4123  14.584   2.846  13.579
31864W        W 4124   9.752   9.174  14.357
31865W        W 4125  41.800  31.384  14.845
31866W        W 4126   5.812  36.597  11.400
31867W        W 4127  12.697  14.814   4.076
31868W        W 4128  28.163   2.009   0.770
31869W        W 4129  40.733  28.136   0.322
31870W        W 4130   7.936   2.335   4.894
31871W        W 4131  15.535  29.096   1.930
31872W        W 4132  16.684  15.630   3.568
31873W        W 4133  35.866  20.250   0.925
31874W        W 4134  34.946  39.957  13.646
31875W        W 4135  40.884  39.067  12.041
31876W        W 4136  24.787  39.966  14.031
31877W        W 4137  40.850   5.205   3.680
31878W        W 4138  19.660  16.035  13.485
31879W        W 4139  20.828   3.407   0.650
31880W        W 4140   5.948  32.056  10.618
31881W        W 4141  32.982  18.225  13.348
31882W        W 4142  10.545   0.417  13.898
31883W        W 4143   4.613   4.629  13.059
31884W        W 4144   1.174  26.800   1.288
31885W        W 4145  11.919  36.735   1.268
31886W        W 4146   6.297  36.039   1.943
31887W        W 4147  43.709   4.845   4.145
31888W        W 4148  27.563  17.246  14.004
31889W        W 4149  40.981  32.226   4.235
31890W        W 4150  29.684  37.291  10.806
31891W        W 4151  19.743   2.376  14.534
31892W        W 4152  24.453   0.862   2.815
31893W        W 4153  37.465   5.235  11.374
31894W        W 4154  21.980   7.970  11.367
31895W        W 4155  37.832   7.091   4.135
31896W        W 4156   2.027  20.014  14.574
31897W        W 4157   4.648  44.878   0.292
31898W        W 4158  30.645   3.381   1.636
31899W        W 4159  43.841  16.300   4.664
31900W        W 4160  20.358  19.271  11.630
31901W        W 4161  37.279  11.783  13.514
31902W        W 4162  38.010   3.813  12.152
31903W        W 4163  30.060   0.456   1.876
31904W        W 4164  14.037  26.065  10.919
31905W        W 4165   8.816  37.509   0.407
31906W        W 4166   6.710  15.976  12.471
31907W        W 4167  33.816  44.800   2.235
31908W        W 4168  43.422  13.177   1.679
31909W        W 4169  12.390  35.550   2.917
31910W        W 4170  31.360   3.184   2.360
31911W        W 4171  26.877  21.531  13.996
31912W        W 4172  41.437  31.076   3.146
31913W        W 4173  23.198   6.472   2.260
31914W        W 4174  32.082   1.951   4.452
31915W        W 4175  19.048  38.950  14.300
31916W        W 4176   7.422  44.926  11.894
31917W        W 4177  38.121  30.461   2.335
31918W        W 4178  42.723  39.026  11.981
31919W        W 4179   6.146  25.529  11.539
31920W        W 4180  13.989  11.583  13.820
31921W        W 4181  11.154  36.977  12.980
31922W        W 4182  13.248  24.687  12.064
31923W        W 4183  19.200  41.053   4.607
31924W        W 4184   4.848  38.918   2.146
31925W        W 4185  43.867  23.481  10.259
31926W        W 4186  16.159  34.686  14.243
31927W        W 4187  41.081  35.002  10.696
31928W        W 4188  39.102  18.784   2.287
31929W        W 4189   7.920  32.092   3.152
31930W        W 4190  22.265  31.039   1.925
31931W        W 4191  14.205   8.149   3.547
31932W        W 4192  42.919  37.035   4.148
31933W        W 4193  11.307   2.417  14.839
31934W        W 4194  21.842  44.184  14.837
31935W        W 4195   0.558  24.554   0.447
31936W        W 4196  16.948  31.647  10.957
31937W        W 4197  10.660  39.769   2.280
31938W        W 4198   2.651  14.357  14.410
31939W        W 4199  43.194  44.449   1.434
31940W        W 4200  29.260  13.419  14.605
31941W        W 4201  27.065  42.785  14.788
31942W        W 4202  29.400  17.215  14.174
31943W        W 4203  18.217   8.799  13.371
31944W        W 4204  25.047   0.175   3.981
31945W        W 4205  26.000   3.747   3.281
31946W        W 4206   5.661  26.636   3.816
31947W        W 4207   2.217  19.684  13.413
31948W        W 4208  40.046  36.956  13.520
31949W        W 4209  21.079  42.334   1.333
31950W        W 4210   8.407  32.968   1.790
31951W        W 4211  35.516   9.746  11.992
31952W        W 4212  28.521  12.547  11.074
31953W        W 4213  44.058  15.087   2.171
31954W        W 4214  11.925  19.074   0.680
31955W        W 4215  10.435  12.354   2.436
31956W        W 4216  27.051   8.847   4.046
31957W        W 4217  27.187  19.864  14.445
31958W        W 4218   0.596  14.218  11.209
31959W        W 4219  30.070  31.131   2.461
31960W        W 4220  23.100  14.401   0.046
31961W        W 4221  34.221  43.805  12.331
31962W        W 4222  13.326  37.711   2.593
31963W        W 4223  34.119   7.464   3.504
31964W        W 4224  10.290   9.801  12.124
31965W        W 4225  44.727  15.384  13.410
31966W        W 4226  22.650   2.996   3.152
31967W        W 4227  19.967  28.027   3.672
31968W        W 4228   1.775  10.033  12.432
31969W        W 4229  20.205  36.463  12.960
31970W        W 4230  16.045   8.922   4.560
31971W        W 4231  32.156   8.793   3.657
31972W        W 4232  11.349  13.171  13.897
31973W        W 4233  12.481  13.594  14.357
31974W        W 4234  28.373  36.645  12.453
31975W        W 4235  16.269   9.013  11.056
31976W        W 4236  25.882  42.406   2.838
31977W        W 4237  35.612  22.100   2.724
31978W        W 4238  23.221  19.294  10.684
31979W        W 4239  20.290  18.133  13.849
31980W        W 4240  27.446  16.701   1.254
31981W        W 4241  11.483  17.471  10.620
31982W        W 4242  17.724  44.752   1.745
31983W        W 4243  12.555   8.430  13.729
31984W        W 4244  27.661   3.948   2.557
31985W        W 4245  43.826  40.533  12.975
31986W        W 4246  44.536  19.208  14.765
31987W        W 4247  25.193  17.643  11.933
31988W        W 4248  11.752  25.724   4.695
31989W        W 4249  21.240  12.809  14.401
31990W        W 4250  21.462  15.112   1.276
31991W        W 4251  17.906  40.955  12.647
31992W        W 4252  39.542  34.269   4.180
31993W        W 4253   9.890  31.490  12.554
31994W        W 4254  39.381  15.363  11.121
31995W        W 4255   3.964   1.808  10.271
31996W        W 4256   4.983  41.302  12.581
31997W        W 4257   9.782  41.875  10.387
31998W        W 4258  19.024   6.790   3.123
31999W        W 4259  14.099  25.218  12.848
32000W        W 4260   7.864  33.990  13.379
32001W        W 4261  20.679  28.402  12.044
32002W        W 4262  22.076  35.251   4.064
32003W        W 4263  44.880  12.227  11.610
32004W        W 4264   6.839  12.960  11.666
32005W        W 4265   2.241  36.516   2.686
32006W        W 4266  35.227  23.491   2.052
32007W        W 4267  38.805  25.416   0.872
32008W        W 4268  36.596  17.213  14.477
32009W        W 4269  16.708  34.837   3.766
32010W        W 4270   9.127   9.394  11.971
32011W        W 4271  30.655  16.535   4.879
32012W        W 4272  28.159  26.585  11.086
32013W        W 4273  37.295   7.772  11.035
32014W        W 4274   0.381  36.529   2.348
32015W        W 4275  21.119   5.774  12.785
32016W        W 4276   2.275  24.513   1.362
32017W        W 4277  11.004  14.807   1.794
32018W        W 4278  20.556  22.683  13.031
32019W        W 4279  40.241  42.356  12.818
32020W        W 4280  33.611   9.869  13.042
32021W        W 4281  24.436  27.057   0.120
32022W        W 4282  35.558  34.803  14.943
32023W        W 4283  36.115  17.832   5.013
32024W        W 4284  24.544  18.153   4.322
32025W        W 4285  35.084  43.632  12.974
32026W        W 4286  35.254  20.687   1.344
32027W        W 4287   6.941  38.086  11.933
32028W        W 4288  35.116  14.229  14.987
32029W        W 4289  11.061  36.943   2.282
32030W        W 4290  25.285  23.252  12.505
32031W        W 4291  24.176  33.912   1.330
32032W        W 4292  15.294   4.453   0.198
32033W        W 4293  34.362  39.939  14.960
32034W        W 4294  14.616   2.188   4.104
32035W        W 4295  19.291  10.482   2.343
32036W        W 4296  24.235  24.454  14.394
32037W        W 4297  36.526  19.112  10.295
32038W        W 4298  36.187  18.659  13.724
32039W        W 4299  35.005  42.905  14.947
32040W        W 4300  40.354  22.615   3.156
32041W        W 4301  26.161   0.013  12.055
32042W        W 4302   1.834  17.701   3.943
32043W        W 4303  44.431  17.701  13.620
32044W        W 4304  19.409  29.699   1.549
32045W        W 4305   0.529  39.833   1.294
32046W        W 4306  15.596  24.880   3.855
32047W        W 4307  24.696  44.777   4.977
32048W        W 4308  20.509  12.706  13.806
32049W        W 4309   4.648  10.395   3.791
32050W        W 4310  15.096  18.650   1.610
32051W        W 4311  30.543  41.576  14.419
32052W        W 4312  41.224  38.540  13.916
32053W        W 4313  13.616  31.053  13.551
32054W        W 4314   7.955  43.862  11.512
32055W        W 4315  28.238  29.216   1.280
32056W        W 4316  12.832  23.179  14.481
32057W        W 4317   1.978   5.981  11.548
32058W        W 4318  20.387  34.489   0.690
32059W        W 4319   3.800   0.634  11.058
32060W        W 4320  14.849  28.659  13.083
32061W        W 4321  14.064  13.663  11.457
32062W        W 4322   4.885   6.277  11.084
32063W        W 4323  14.092  27.585   4.706
32064W        W 4324  33.944  40.001   0.304
32065W        W 4325  40.322   0.699  10.538
32066W        W 4326  16.474   4.749   1.053
32067W        W 4327  33.390  22.204  12.929
32068W        W 4328  16.591  12.615   1.022
32069W        W 4329  21.569   4.815   4.585
32070W        W 4330   7.156  30.140  10.432
32071W        W 4331   8.905  21.935   0.824
32072W        W 4332  36.932   0.065  14.001
32073W        W 4333  42.424  14.163   2.197
32074W        W 4334   7.482  11.756  11.169
32075W        W 4335  31.979  35.561   1.242
32076W        W 4336  19.584  30.182   3.769
32077W        W 4337   5.449  22.632   1.536
32078W        W 4338  42.511  42.001  13.368
32079W        W 4339  31.904  15.215   3.408
32080W        W 4340  31.056  12.351  14.001
32081W        W 4341  43.058  33.496   1.727
32082W        W 4342   9.311  14.212   1.822
32083W        W 4343  27.184  40.277  11.053
32084W        W 4344  18.234  31.857   3.111
32085W        W 4345  16.152  28.360   3.557
32086W        W 4346  12.553   4.179  13.760
32087W        W 4347  26.188  15.796  11.879
32088W        W 4348   6.788  24.601  13.436
32089W        W 4349  42.343  16.280   1.854
32090W        W 4350  39.229  19.206   0.431
32091W        W 4351  40.111  41.339  13.817
32092W        W 4352  32.436  28.584   1.299
32093W        W 4353  24.183  26.916  14.688
32094W        W 4354  17.331   5.184  13.376
32095W        W 4355   4.682  25.539   4.659
32096W        W 4356   3.271  15.715   2.219
32097W        W 4357  42.434  37.490  14.742
32098W        W 4358  21.759   9.723   3.170
32099W        W 4359  42.407  25.601   3.694
32100W        W 4360  26.098   4.453   4.783
32101W        W 4361  29.359  16.166  13.315
32102W        W 4362   4.678   6.659  12.587
32103W        W 4363   1.372   3.733  12.559
32104W        W 4364  31.592  33.862   2.789
32105W        W 4365  14.210  38.592   3.259
32106W        W 4366  43.471  32.914   4.185
32107W        W 4367  25.133   2.178   4.136
32108W        W 4368  30.024  20.259   3.738
32109W        W 4369  37.316   7.260   0.440
32110W        W 4370  22.688  38.360   2.768
32111W        W 4371  36.508  31.568   3.289
32112W        W 4372  24.252  40.027  13.999
32113W        W 4373   9.165  10.959  14.673
32114W        W 4374  23.612  36.687  12.766
32115W        W 4375  28.122   6.313  12.025
32116W        W 4376   4.247   3.604   0.779
32117W        W 4377  25.488  17.324   4.606
32118W        W 4378  11.140  30.727   4.937
32119W        W 4379  19.063  14.205  14.358
32120W        W 4380   2.163  26.263   0.974
32121W        W 4381  34.822  26.463   2.163
32122W        W 4382  39.436   3.170  12.923
32123W        W 4383  26.623  18.008  13.317
32124W        W 4384   9.180  22.652   3.083
32125W        W 4385   4.795   4.368   2.710
32126W        W 4386  35.661   0.959   0.929
32127W        W 4387  28.698   8.323   0.798
32128W        W 4388  25.436  26.105   0.216
32129W        W 4389  33.583  17.616  14.846
32130W        W 4390  26.510  11.237  11.637
32131W        W 4391  18.988  25.039   3.175
32132W        W 4392  42.240  37.629  13.423
32133W        W 4393  16.038  37.451  14.500
32134W        W 4394  13.664  32.019   0.192
32135W        W 4395  17.334  41.974   2.207
32136W        W 4396   2.983  12.539  12.999
32137W        W 4397  17.278   8.660   4.171
32138W        W 4398  32.324   7.389   3.285
32139W        W 4399   7.843  37.473  14.498
32140W        W 4400  43.189  15.646  14.413
32141W        W 4401  25.699  10.254  10.157
32142W        W 4402  33.638  32.050   1.156
32143W        W 4403  28.492  16.924   1.783
32144W        W 4404  26.014  42.697  13.438
32145W        W 4405   4.165  36.268   1.826
32146W        W 4406  35.403   4.517  11.229
32147W        W 4407  20.464  14.517   3.338
32148W        W 4408  27.020  21.231   2.328
32149W        W 4409  19.335  26.687  10.737
32150W        W 4410  30.194   6.217  12.103
32151W        W 4411  28.456  31.436   4.464
32152W        W 4412  15.770   9.665   0.326
32153W        W 4413   9.151  29.552  12.283
32154W        W 4414  23.032   8.291   4.932
32155W        W 4415  35.647  18.253   2.286
32156W        W 4416  31.491  34.479   1.915
32157W        W 4417  28.467  17.264  14.729
32158W        W 4418  27.966  25.588   0.951
32159W        W 4419  31.149  13.366   1.881
32160W        W 4420  23.119  40.121  11.017
32161W        W 4421   4.675  17.466   4.916
32162W        W 4422  44.974   9.516  11.998
32163W        W 4423  40.997  11.643   3.071
32164W        W 4424  33.658  30.531   3.848
32165W        W 4425  26.063  22.686   0.721
32166W        W 4426  41.241  19.752   3.771
32167W        W 4427   2.910   9.935   2.370
32168W        W 4428  22.636  27.485  12.947
32169W        W 4429  19.253   8.807  13.417
32170W        W 4430  15.871  44.712   1.744
32171W        W 4431  44.285  12.982   4.769
32172W        W 4432  39.544  15.820   1.982
32173W        W 4433  29.293   3.252   4.059
32174W        W 4434  39.650   8.252   3.254
32175W        W 4435  30.580  31.211   4.580
32176W        W 4436  16.063  28.803  10.548
32177W        W 4437   4.253  28.116   4.072
32178W        W 4438  20.964  43.200  14.737
32179W        W 4439  21.950  22.218   2.005
32180W        W 4440  28.241  31.957  14.830
32181W        W 4441  30.485  42.402   4.267
32182W        W 4442  38.449   7.202  12.430
32183W        W 4443  23.598  24.747   2.094
32184W        W 4444   9.713  44.973  10.603
32185W        W 4445  36.320  33.374   2.861
32186W        W 4446  12.779  29.968   4.694
32187W        W 4447  39.139  32.171   1.353
32188W        W 4448   7.685  29.218   0.803
32189W        W 4449  35.847  34.489   1.555
32190W        W 4450  12.108  28.904  10.532
32191W        W 4451   9.731  25.590   0.933
32192W        W 4452  42.546  16.744   0.934
32193W        W 4453  31.132   9.944   0.875
32194W        W 4454  34.944  22.306  13.561
32195W        W 4455   3.687   0.926   4.412
32196W        W 4456  21.538  14.418   2.402
32197W        W 4457  34.958  22.371   5.054
32198W        W 4458  24.742  33.893   4.194
32199W        W 4459  32.649  22.682  12.056
32200W        W 4460  12.373  17.939   1.544
32201W        W 4461  28.303  10.536  10.124
32202W        W 4462   1.873   6.475  11.637
32203W        W 4463  37.555  27.549  10.501
32204W        W 4464  33.956  20.668  10.616
32205W        W 4465  42.293  11.223   4.121
32206W        W 4466  36.489  31.340  13.042
32207W        W 4467  29.914  39.872   4.060
32208W        W 4468   9.981  37.429  12.197
32209W        W 4469  24.426   9.657  13.456
32210W        W 4470  28.426  30.111  13.961
32211W        W 4471  17.770   4.665  14.457
32212W        W 4472   5.367  12.044  10.528
32213W        W 4473  14.400   2.959   4.618
32214W        W 4474  11.645  19.586   1.796
32215W        W 4475   5.350  37.489  11.724
32216W        W 4476  36.266  39.902   1.293
32217W        W 4477  11.324  27.691   3.692
32218W        W 4478  27.445  21.675  13.115
32219W        W 4479  23.500  12.248   2.878
32220W        W 4480  19.146  21.544   3.725
32221W        W 4481  16.797  20.305   1.623
32222W        W 4482  27.082  30.556   0.460
32223W        W 4483  20.264  11.409   0.234
32224W        W 4484  39.977  38.798   0.791
32225W        W 4485  28.806  21.105   4.192
32226W        W 4486   1.232  26.223  11.102
32227W        W 4487  11.268  32.271  12.189
32228W        W 4488  44.859   9.431   2.812
32229W        W 4489  19.043  20.297  13.053
32230W        W 4490  35.625  18.605  11.567
32231W        W 4491  28.384   0.367  13.001
32232W        W 4492  28.399  43.965   2.320
32233W        W 4493  16.654   5.765  10.577
32234W        W 4494  31.853  32.399  12.859
32235W        W 4495  18.305  40.755  10.973
32236W        W 4496  17.574   5.140   1.518
32237W        W 4497  15.700  31.654  11.577
32238W        W 4498  26.954  25.683   2.457
32239W        W 4499  35.047  12.238   0.207
32240W        W 4500  10.248  12.695  12.480
32241W        W 4501  21.523  43.723   3.326
32242W        W 4502  16.755  24.043  12.074
32243W        W 4503  44.252  41.367   2.199
32244W        W 4504   5.096  44.633   3.735
32245W        W 4505  29.908   6.516   1.438
32246W        W 4506  34.125  37.568  13.406
32247W        W 4507   3.488  36.450   4.457
32248W        W 4508   3.905  37.206   2.317
32249W        W 4509   4.132  33.121   4.064
32250W        W 4510  36.804  13.297   4.170
32251W        W 4511  41.769   5.150  12.908
32252W        W 4512  32.142  37.110   0.443
32253W        W 4513  28.717  13.714   1.736
32254W        W 4514  21.645  27.301   2.417
32255W        W 4515  41.265  10.203  13.963
32256W        W 4516   5.912  44.993   3.728
32257W        W 4517  17.796  24.547   1.951
32258W        W 4518  34.850  37.025   4.708
32259W        W 4519  12.605   7.943  14.772
32260W        W 4520  11.388  15.731  13.882
32261W        W 4521  26.050  26.277  13.961
32262W        W 4522  26.526  15.151   2.732
32263W        W 4523  34.613  37.796   1.141
32264W        W 4524  14.364  41.784  10.177
32265W        W 4525  20.984  27.747  11.946
32266W        W 4526   3.207  35.442   4.188
32267W        W 4527  25.544  23.527   2.269
32268W        W 4528  29.209  44.725  12.859
32269W        W 4529  13.279  41.034  13.795
32270W        W 4530  10.878  11.296   4.682
32271W        W 4531  12.886  12.874  10.763
32272W        W 4532  28.200  41.276   1.783
32273W        W 4533  20.555  28.925  12.041
32274W        W 4534  24.630  32.923   3.550
32275W        W 4535  42.000   2.703  12.069
32276W        W 4536  18.324   8.415  11.556
32277W        W 4537  16.113   4.440  12.017
32278W        W 4538  39.854  26.489  11.522
32279W        W 4539  21.067  11.129  12.471
32280W        W 4540  42.172  14.919  12.465
32281W        W 4541  38.744  29.120   1.353
32282W        W 4542   9.417   7.113   4.497
32283W        W 4543  20.623  20.646   5.463
32284W        W 4544  20.760  36.900  13.991
32285W        W 4545  16.276  28.633  11.387
32286W        W 4546  20.140  39.258   1.732
32287W        W 4547   5.496  26.423  14.863
32288W        W 4548  19.997  25.919   1.887
32289W        W 4549  11.226  43.984  13.030
32290W        W 4550   6.122  24.378  14.963
32291W        W 4551  12.687  16.663   3.560
32292W        W 4552  20.843  26.408   0.474
32293W        W 4553  37.480  34.481   2.858
32294W        W 4554  34.657   3.692  13.435
32295W        W 4555  24.913  29.281   3.839
32296W        W 4556  41.517  22.430   0.896
32297W        W 4557   0.863  19.063   3.224
32298W        W 4558  13.307   5.910  11.980
32299W        W 4559   6.562   8.641   4.170
32300W        W 4560  34.694  23.009   2.820
32301W        W 4561  36.828  11.930   3.864
32302W        W 4562  41.024  19.674   4.274
32303W        W 4563  13.194  26.570   1.791
32304W        W 4564  42.550  16.821  14.451
32305W        W 4565  13.792  14.683  13.036
32306W        W 4566  39.271  19.651  12.289
32307W        W 4567   7.676  37.415   4.465
32308W        W 4568  25.326  29.615   1.220
32309W        W 4569  14.710  29.196   2.348
32310W        W 4570  41.797  38.033   4.378
32311W        W 4571  39.238  29.039   1.470
32312W        W 4572   7.182  27.123   1.490
32313W        W 4573  16.713   9.784  14.737
32314W        W 4574  37.114  23.462   1.287
32315W        W 4575  34.459  39.902   2.336
32316W        W 4576   3.386   7.062  12.527
32317W        W 4577  21.300  23.434  11.859
32318W        W 4578  18.303  43.758  13.334
32319W        W 4579   0.588  20.566  14.038
32320W        W 4580  25.987  44.981   0.888
32321W        W 4581   7.127   2.837  11.513
32322W        W 4582  37.570  40.846   2.646
32323W        W 4583  42.420  29.603   0.117
32324W        W 4584  33.536  36.984   2.753
32325W        W 4585  29.047  43.312   3.832
32326W        W 4586  34.916  31.076  11.049
32327W        W 4587  15.055   9.183  14.898
32328W        W 4588  42.115  22.532  11.982
32329W        W 4589  43.746   7.512  13.934
32330W        W 4590  16.324  17.130   3.689
32331W        W 4591  34.318  13.297  12.642
32332W        W 4592  42.964  41.822  12.574
32333W        W 4593  23.229  26.985   1.373
32334W        W 4594   8.653  43.551  12.992
32335W        W 4595  11.640  14.856  12.489
32336W        W 4596   9.293   0.796   0.012
32337W        W 4597  22.937  43.007  13.394
32338W        W 4598  42.530  21.085   1.375
32339W        W 4599  28.895  25.086   2.735
32340W        W 4600  22.954  16.759  10.512
32341W        W 4601  11.317  16.694  11.271
32342W        W 4602  40.942   5.651  13.881
32343W        W 4603  13.209   4.719   9.952
32344W        W 4604  14.995   5.872   3.463
32345W        W 4605   5.407  28.677   3.414
32346W        W 4606   4.272  24.947   3.283
32347W        W 4607  38.501  25.242  12.034
32348W        W 4608   3.259  28.686  12.419
32349W        W 4609  43.978  33.473   1.348
32350W        W 4610   4.375  44.322  14.272
32351W        W 4611   4.926  19.567   1.662
32352W        W 4612  42.631  32.545  10.873
32353W        W 4613  43.017  38.632  10.103
32354W        W 4614  37.757   0.451  10.054
32355W        W 4615  28.239  16.091   0.335
32356W        W 4616  15.332   6.560   1.090
32357W        W 4617   6.059  15.772   1.758
32358W        W 4618   0.075  14.273   1.778
32359W        W 4619  36.031  12.901   3.777
32360W        W 4620  32.036  12.314  10.447
32361W        W 4621   4.151  38.349  14.757
32362W        W 4622   0.104  26.620  10.672
32363W        W 4623  22.728  43.813  13.844
32364W        W 4624  16.989   3.845  11.436
32365W        W 4625   3.663  37.000  11.463
32366W        W 4626  41.607  43.494  14.768
32367W        W 4627  25.506  35.899  10.727
32368W        W 4628  11.425  23.542  14.965
32369W        W 4629  12.883  35.367  11.973
32370W        W 4630  15.534   2.429  11.589
32371W        W 4631  32.966  21.565   3.022
32372W        W 4632  13.138  24.513  10.814
32373W        W 4633   0.442  37.444   1.325
32374W        W 4634  14.291  25.406   1.633
32375W        W 4635  17.256   6.882   3.049
32376W        W 4636  15.632  44.793   2.196
32377W        W 4637   5.761  25.180  11.498
32378W        W 4638  43.296  22.592   0.475
32379W        W 4639  28.238   7.741  10.051
32380W        W 4640  29.732  22.769  12.229
32381W        W 4641  34.306  24.078  13.104
32382W        W 4642  10.677  29.249  13.904
32383W        W 4643  40.389  19.691  11.623
32384W        W 4644  22.328  34.407   0.471
32385W        W 4645  18.262  38.613  13.744
32386W        W 4646  12.666  11.841   2.432
32387W        W 4647  35.924  30.358   2.740
32388W        W 4648   7.587  21.213  13.442
32389W        W 4649   5.938  24.785  11.172
32390W        W 4650  35.472  33.419   0.848
32391W        W 4651  29.485  34.491  14.058
32392W        W 4652  44.522  31.486   3.625
32393W        W 4653   2.437  29.520  11.978
32394W        W 4654  24.145  16.260  11.589
32395W        W 4655  39.604  28.652  10.761
32396W        W 4656  27.667  35.626  14.488
32397W        W 4657  42.876  41.049   2.731
32398W        W 4658  10.159  41.801   0.345
32399W        W 4659  42.375  41.118   3.279
32400W        W 4660   3.382   5.437   4.681
32401W        W 4661  27.815  26.631   3.607
32402W        W 4662  12.795  41.979  12.567
32403W        W 4663   7.292  40.442  13.171
32404W        W 4664   3.867  43.610  11.236
32405W        W 4665  41.469  33.440   3.064
32406W        W 4666  43.962   5.605  13.580
32407W        W 4667  16.660  28.225   2.673
32408W        W 4668  32.195   0.799   2.103
32409W        W 4669   6.768  23.147  12.824
32410W        W 4670  17.471  26.639   0.913
32411W        W 4671  34.575  31.395  11.236
32412W        W 4672  11.331  39.790  10.763
32413W        W 4673  16.738  40.348  13.951
32414W        W 4674  18.554   0.156  11.515
32415W        W 4675  22.694   0.706  13.942
32416W        W 4676  13.740  42.396  14.008
32417W        W 4677  34.867   3.378   1.312
32418W        W 4678  26.932  19.592   1.892
32419W        W 4679   0.976  29.451  12.167
32420W        W 4680  20.254  20.577   0.431
32421W        W 4681  18.546   8.830   2.661
32422W        W 4682   6.319  36.560  10.679
32423W        W 4683   4.211   4.243  10.644
32424W        W 4684  27.318   0.650   3.875
32425W        W 4685   8.946   6.634  13.491
32426W        W 4686  14.720  39.946   3.810
32427W        W 4687   0.780  39.424  12.941
32428W        W 4688  27.470  27.645  10.547
32429W        W 4689  10.640   2.269   2.601
32430W        W 4690  24.648  25.719  12.964
32431W        W 4691   1.302  30.057  13.485
32432W        W 4692   8.650  32.105   4.327
32433W        W 4693  18.305  43.219  12.487
32434W        W 4694  38.968  44.252  12.311
32435W        W 4695   6.855  28.740  10.093
32436W        W 4696  36.143  16.753   1.954
32437W        W 4697  41.480  23.339   2.453
32438W        W 4698   3.292  41.091   3.037
32439W        W 4699  37.889  37.917  10.303
32440W        W 4700  23.625  40.570   0.404
32441W        W 4701   0.742   3.649  11.483
32442W        W 4702   1.209   6.933  12.756
32443W        W 4703  10.362  34.004   2.802
32444W        W 4704  35.079   2.162   0.186
32445W        W 4705  36.773  32.530   3.300
32446W        W 4706  34.256  21.049  10.277
32447W        W 4707  18.547  27.055  10.588
32448W        W 4708  11.809  20.774   1.523
32449W        W 4709  14.246  15.744   3.730
32450W        W 4710  28.634   6.224   0.240
32451W        W 4711  31.803  42.558   3.244
32452W        W 4712  35.480   4.733  13.310
32453W        W 4713  31.921  42.939   1.036
32454W        W 4714  21.921  39.868   3.055
32455W        W 4715  21.915  42.382  12.080
32456W        W 4716   3.817   8.134  13.293
32457W        W 4717  24.526   1.949   1.591
32458W        W 4718  42.889  21.358   4.206
32459W        W 4719  44.350  28.453   3.695
32460W        W 4720  19.052   7.226  13.246
32461W        W 4721  32.127  40.074   4.161
32462W        W 4722   2.389   3.489   0.049
32463W        W 4723  11.506  32.918  14.826
32464W        W 4724  35.950   8.742   1.395
32465W        W 4725  33.894  11.727   3.634
32466W        W 4726   3.387   5.832  11.052
32467W        W 4727  15.920  13.622   4.306
32468W        W 4728   5.243  36.794   3.539
32469W        W 4729  19.132  31.232   3.182
32470W        W 4730   0.287   8.239  12.869
32471W        W 4731  13.852  10.283  13.020
32472W        W 4732  32.123  42.922   1.554
32473W        W 4733   5.450  28.704  13.964
32474W        W 4734   1.670  30.013   2.700
32475W        W 4735  38.811  33.614  11.805
32476W        W 4736  19.062   2.590  11.877
32477W        W 4737  35.833  35.023  13.952
32478W        W 4738  20.245   9.607  11.096
32479W        W 4739  38.931   5.819   5.050
32480W        W 4740  37.123  41.892  10.701
32481W        W 4741  22.784  29.165   4.611
32482W        W 4742  29.064  18.623  13.645
32483W        W 4743  37.433  39.135  14.522
32484W        W 4744  25.888  39.728  11.616
32485W        W 4745  41.501  40.966   0.481
32486W        W 4746  26.020  25.592   4.302
32487W        W 4747  18.134   9.344   0.226
32488W        W 4748  10.655  22.531   2.821
32489W        W 4749  13.561  43.846   4.567
32490W        W 4750  11.168   8.764   3.147
32491W        W 4751  20.653  37.257   1.349
32492W        W 4752  11.933  27.288   1.957
32493W        W 4753   9.912  23.770   2.827
32494W        W 4754  37.366  24.690   2.782
32495W        W 4755  44.523  17.976  12.318
32496W        W 4756  27.600  22.095  13.986
32497W        W 4757  38.085  12.017   0.515
32498W        W 4758  22.934   1.723   3.736
32499W        W 4759  41.567  24.688   1.298
32500W        W 4760  28.709  44.331  11.550
32501W        W 4761  40.415  14.094  14.977
32502W        W 4762   3.139  28.415   2.250
32503W        W 4763   7.674  33.279   5.056
32504W        W 4764  44.725  29.195   0.685
32505W        W 4765  12.627   7.294  10.707
32506W        W 4766  27.521  41.254  14.327
32507W        W 4767  25.420  40.784  12.928
32508W        W 4768  36.992  24.053  10.662
32509W        W 4769   9.701   9.634   2.517
32510W        W 4770  14.922  16.229   5.213
32511W        W 4771  15.665  27.498   3.140
32512W        W 4772  44.879  34.038  12.936
32513W        W 4773  17.324  42.729   0.824
32514W        W 4774  42.742  33.883  13.948
32515W        W 4775  37.080   6.973  12.433
32516W        W 4776   5.641  34.885  12.964
32517W        W 4777  31.364  39.954   0.729
32518W        W 4778  14.076  10.049   4.201
32519W        W 4779   9.382  12.150   1.273
32520W        W 4780   2.367  29.997  14.968
32521W        W 4781  38.198  13.110   1.357
32522W        W 4782   8.627   6.193  12.436
32523W        W 4783  22.370  43.243  11.548
32524W        W 4784  44.781   7.276   1.731
32525W        W 4785  31.421  38.687  13.756
32526W        W 4786  12.804   6.994  13.860
32527W        W 4787  21.810  16.577   1.374
32528W        W 4788  39.537  30.139   4.537
32529W        W 4789   6.651  12.704   2.462
32530W        W 4790  33.219  40.040  11.704
32531W        W 4791  39.142   8.483   3.179
32532W        W 4792  17.401  18.847   0.934
32533W        W 4793   4.744   9.278   1.637
32534W        W 4794  18.254  32.165   4.890
32535W        W 4795  25.348   4.760   1.334
32536W        W 4796  40.094  30.567  13.423
32537W        W 4797   9.875  20.165  10.735
32538W        W 4798   5.333  23.745   2.753
32539W        W 4799   8.259  32.548  13.383
32540W        W 4800  15.419  27.125   2.841
32541W        W 4801   4.710  35.522  12.439
32542W        W 4802  18.587  25.279   3.687
32543W        W 4803  22.460   2.180   0.813
32544W        W 4804  38.080  19.046  10.684
32545W        W 4805  44.820   1.792  12.482
32546W        W 4806  11.203  43.494   4.182
32547W        W 4807   8.897  12.221  14.538
32548W        W 4808  13.106  35.382   0.523
32549W        W 4809  25.523  44.884   4.075
32550W        W 4810   0.974  36.914   4.693
32551W        W 4811  36.892   7.400  13.512
32552W        W 4812  19.307   4.800   3.024
32553W        W 4813  27.745   7.313  10.952
32554W        W 4814  27.570  25.703  11.599
32555W        W 4815  36.327   5.354   0.446
32556W        W 4816  14.400  19.219  11.093
32557W        W 4817  43.434  22.090   2.234
32558W        W 4818  18.629  36.097  10.918
32559W        W 4819   0.456  11.179   4.844
32560W        W 4820  28.622   0.021   1.764
32561W        W 4821  19.317  27.460  13.922
32562W        W 4822  20.856  11.857  11.447
32563W        W 4823  42.986  12.281   3.945
32564W        W 4824   5.144  39.111   2.902
32565W        W 4825  20.609  30.582  12.317
32566W        W 4826  13.775  37.562   0.418
32567W        W 4827  26.324  18.243   1.657
32568W        W 4828  39.741   8.812  12.016
32569W        W 4829  43.733   5.043  11.332
32570W        W 4830  34.156  44.444   2.603
32571W        W 4831  30.942  11.473   1.443
32572W        W 4832  17.495  35.757  11.666
32573W        W 4833  12.465  41.656  12.782
32574W        W 4834  20.598  42.199  13.665
32575W        W 4835   0.558  29.147  14.398
32576W        W 4836  26.873  41.215  12.955
32577W        W 4837  40.601  17.453  14.261
32578W        W 4838  17.783   0.084  12.521
32579W        W 4839  12.877  35.973  11.579
32580W        W 4840  16.307   6.169   4.224
32581W        W 4841  32.698  31.946  11.580
32582W        W 4842  22.497  36.551   3.123
32583W        W 4843  37.465  26.476  14.914
32584W        W 4844  38.335  36.904   4.375
32585W        W 4845  39.197  11.220   1.807
32586W        W 4846  32.227  12.185  11.311
32587W        W 4847  34.548   0.318  13.106
32588W        W 4848  43.973  31.005  11.913
32589W        W 4849  23.513  41.784  14.876
32590W        W 4850  14.443  42.945   0.419
32591W        W 4851  43.434   1.580  12.846
32592W        W 4852  23.494  22.531   2.271
32593W        W 4853   1.633   1.239   1.929
32594W        W 4854  27.522  40.768   1.923
32595W        W 4855  36.355  22.755  13.377
32596W        W 4856  32.475  23.803  13.296
32597W        W 4857  35.663  14.730  13.322
32598W        W 4858  10.878  29.936  10.610
32599W        W 4859  37.774   6.504   4.665
32600W        W 4860   2.808  29.162  11.919
32601W        W 4861  28.175  31.160  11.551
32602W        W 4862  35.272   7.865  13.612
32603W        W 4863  31.561  11.682   0.205
32604W        W 4864  22.093  10.340   2.103
32605W        W 4865   5.924  19.234  12.441
32606W        W 4866  40.006  26.135  10.813
32607W        W 4867  32.393  43.026   0.829
32608W        W 4868  12.689  35.191   2.624
32609W        W 4869  16.518   6.540   0.804
32610W        W 4870  24.160  16.040  12.063
32611W        W 4871  16.831   6.651   5.038
32612W        W 4872  10.332  24.147  12.471
32613W        W 4873  16.986  43.265   1.688
32614W        W 4874  36.323  31.896   2.675
32615W        W 4875  26.079  18.154   3.537
32616W        W 4876  17.301  28.169   1.418
32617W        W 4877  18.281   9.317  14.250
32618W        W 4878  36.964   8.694  10.221
32619W        W 4879  26.449  13.829  13.467
32620W        W 4880   2.802  22.236  12.732
32621W        W 4881  23.123  21.322  12.071
32622W        W 4882  19.319  17.805  14.181
32623W        W 4883  13.193  28.457  14.975
32624W        W 4884  34.038  13.460  11.124
32625W        W 4885   9.710  36.458   4.027
32626W        W 4886  35.592  39.293  10.674
32627W        W 4887  23.030  31.951   4.170
32628W        W 4888  13.880  36.989   3.927
32629W        W 4889  13.762  29.611  14.616
32630W        W 4890  23.969  13.159   1.239
32631W        W 4891  13.592  16.510   2.460
32632W        W 4892  21.029  34.497  12.428
32633W        W 4893   1.904  28.975  12.474
32634W        W 4894  30.696  22.126  13.951
32635W        W 4895  40.706  42.291   3.580
32636W        W 4896  24.747  35.004   3.347
32637W        W 4897  40.985  31.715   4.125
32638W        W 4898   6.277  35.670   1.113
32639W        W 4899  40.144   6.243  11.085
32640W        W 4900  34.955  22.049  10.467
32641W        W 4901  18.779  38.506   1.850
32642W        W 4902  20.521  12.135   1.394
32643W        W 4903  19.985  24.570  11.069
32644W        W 4904  34.936  18.843   2.689
32645W        W 4905  43.665  18.482  13.348
32646W        W 4906  42.869  41.310   3.214
32647W        W 4907  22.665  14.700  12.885
32648W        W 4908  24.799   9.789   2.345
32649W        W 4909  26.952  44.300  10.256
32650W        W 4910   3.950  23.174   2.223
32651W        W 4911  14.298  27.856  13.509
32652W        W 4912   6.631   1.768  11.162
32653W        W 4913  34.666  40.896   2.240
32654W        W 4914  36.770  27.556   3.809
32655W        W 4915  28.092  43.860   0.840
32656W        W 4916   8.494   9.690   0.244
32657W        W 4917   1.243  20.994   4.848
32658W        W 4918   8.132   5.578   1.164
32659W        W 4919  41.335  15.175  10.422
32660W        W 4920  30.945  28.194  12.891
32661W        W 4921   2.982  38.823   3.176
32662W        W 4922   8.356  42.009   4.659
32663W        W 4923   3.008  24.376   3.601
32664W        W 4924  28.598  27.461   2.097
32665W        W 4925  19.678  15.614  10.643
32666W        W 4926  37.571  11.053  11.064
32667W        W 4927  26.682   6.337   0.698
32668W        W 4928   5.375  20.224   1.749
32669W        W 4929  29.374   1.742  13.375
32670W        W 4930  21.568  27.712   3.829
32671W        W 4931  20.340  29.271   0.593
32672W        W 4932  36.988   6.624   1.783
32673W        W 4933  43.810  27.792   3.110
32674W        W 4934  21.005  24.757   3.722
32675W        W 4935  36.032  44.081  10.730
32676W        W 4936  15.249  39.843   0.298
32677W        W 4937  19.712  15.540   0.342
32678W        W 4938  34.540  37.414  12.896
32679W        W 4939   6.224  11.634  12.558
32680W        W 4940  42.711   4.989   2.469
32681W        W 4941  11.034  16.282  14.057
32682W        W 4942   2.531  42.473   2.931
32683W        W 4943  30.112  17.693   4.757
32684W        W 4944  41.474  35.568  12.308
32685W        W 4945  22.566  21.021   4.863
32686W        W 4946  18.580   6.201  12.525
32687W        W 4947  10.956  11.729   4.968
32688W        W 4948  10.415  30.602  11.912
32689W        W 4949  31.533   1.972   1.671
32690W        W 4950  22.529  40.420  14.024
32691W        W 4951  10.397  14.761   4.057
32692W        W 4952  11.168   6.352  14.514
32693W        W 4953   0.821  40.304   0.415
32694W        W 4954   4.218  34.238   4.546
32695W        W 4955   9.842  14.885  11.067
32696W        W 4956   5.817  17.349  12.436
32697W        W 4957  44.489  19.621  10.965
32698W        W 4958  38.627  26.095   4.854
32699W        W 4959   5.358  31.472   2.493
32700W        W 4960  35.860   2.215  12.939
32701W        W 4961  41.393   9.837  10.438
32702W        W 4962  24.124  17.771  12.535
32703W        W 4963  19.847   0.360   3.983
32704W        W 4964  22.469  12.637  12.403
32705W        W 4965   1.457  24.138   1.880
32706W        W 4966  34.554  43.355   3.879
32707W        W 4967  13.177  13.283   0.408
32708W        W 4968  12.111  19.182  13.083
32709W        W 4969  21.292  11.858  12.950
32710W        W 4970  36.247  23.553  10.452
32711W        W 4971   8.915   9.936  12.055
32712W        W 4972   1.720  27.459  12.562
32713W        W 4973  21.415   5.821  10.289
32714W        W 4974   6.397  24.917   0.347
32715W        W 4975  44.807   9.877   4.226
32716W        W 4976   2.976  17.340  13.292
32717W        W 4977  27.448  30.205   1.940
32718W        W 4978  33.022  37.018   4.780
32719W        W 4979  27.531  26.960   4.591
32720W        W 4980  24.772  11.638  10.822
32721W        W 4981  20.994  32.589  13.193
32722W        W 4982  42.743  36.207  10.166
32723W        W 4983  30.884  25.092  12.486
32724W        W 4984   9.800  26.097   1.475
32725W        W 4985  42.711   0.528   2.229
32726W        W 4986  22.261  37.975   3.564
32727W        W 4987  16.691  13.730  14.317
32728W        W 4988  36.311  40.074  14.009
32729W        W 4989   9.393  23.609  13.343
32730W        W 4990  43.944  37.905   1.430
32731W        W 4991  23.412  28.357  13.262
32732W        W 4992  30.525  21.351   0.914
32733W        W 4993   4.066  22.587  11.864
32734W        W 4994   8.212  21.201   2.916
32735W        W 4995  24.141  40.285  13.478
32736W        W 4996  21.148   4.648   1.490
32737W        W 4997  18.684  25.045   1.359
32738W        W 4998   4.200  12.803   2.271
32739W        W 4999   6.746  41.300  10.533
32740W        W 5000   1.715  27.116   0.029
32741W        W 5001  37.663   1.190   1.354
32742W        W 5002  20.148  31.904  14.364
32743W        W 5003  27.971  13.461   4.214
32744W        W 5004  35.444   1.302   3.136
32745W        W 5005  23.196   4.374   3.659
32746W        W 5006   9.383  43.337   2.300
32747W        W 5007  33.741  43.325   0.770
32748W        W 5008  32.996  10.212   2.961
32749W        W 5009   4.671  31.673   0.254
32750W        W 5010   2.035   2.266  10.593
32751W        W 5011   2.848  19.307  13.275
32752W        W 5012  13.582  17.153  11.543
32753W        W 5013  15.696   0.971  13.860
32754W        W 5014   6.265   1.154   0.412
32755W        W 5015   4.287  43.104   5.077
32756W        W 5016   6.314  43.295   0.947
32757W        W 5017  11.962  44.661  14.803
32758W        W 5018  34.061  18.772  11.827
32759W        W 5019  16.887  30.070  13.308
32760W        W 5020  18.846  42.632   4.240
32761W        W 5021  27.881  21.771   4.114
32762W        W 5022  14.685  40.529  12.981
32763W        W 5023  38.375  28.311   0.203
32764W        W 5024  35.974  32.190   3.327
32765W        W 5025  28.446  39.848  10.339
32766W        W 5026  35.819  17.884  13.963
32767W        W 5027  16.329  34.630   2.753
32768W        W 5028  31.890  29.667  11.982
32769W        W 5029  31.887   8.791   0.230
32770W        W 5030  33.911  17.574  11.207
32771W        W 5031  20.277  15.557  11.078
32772W        W 5032  19.370  33.432  12.406
32773W        W 5033   2.763  19.528   3.859
32774W        W 5034   1.854  21.762  11.050
32775W        W 5035  12.705  28.550   4.211
32776W        W 5036  15.219  10.234   2.402
32777W        W 5037   7.296   4.253   0.943
32778W        W 5038  40.051  34.597  11.691
32779W        W 5039  36.002   3.734   5.207
32780W        W 5040  29.456  23.894  10.832
32781W        W 5041  12.631  44.041  14.091
32782W        W 5042  26.847   4.890   1.224
32783W        W 5043  31.401  40.019  13.550
32784W        W 5044  40.918  43.062  13.807
32785W        W 5045  40.995   2.386  12.420
32786W        W 5046   7.631  42.003   4.132
32787W        W 5047  31.504  17.803   1.217
32788W        W 5048  27.147  22.037   0.312
32789W        W 5049  31.373  15.661  12.826
32790W        W 5050   8.094  38.548  11.476
32791W        W 5051  30.879   1.273  11.548
32792W        W 5052   3.250   4.946  14.903
32793W        W 5053  26.938  11.795  13.511
32794W        W 5054  14.277  36.265   1.804
32795W        W 5055  35.025  18.243   2.278
32796W        W 5056   9.746  16.563  13.094
32797W        W 5057  32.106  41.257   0.419
32798W        W 5058   3.209  41.528   0.122
32799W        W 5059  20.312  43.722   0.109
32800W        W 5060  32.011  11.625  14.509
32801W        W 5061  21.405   5.271   4.786
32802W        W 5062  16.190  19.340  12.152
32803W        W 5063  14.797  23.258  11.628
32804W        W 5064  29.100   9.702   4.273
32805W        W 5065  31.140   8.040  14.900
32806W        W 5066   4.943   0.819   3.799
32807W        W 5067  18.668  13.341   0.680
32808W        W 5068  14.652  43.753   3.958
32809W        W 5069   7.312  25.693   0.970
32810W        W 5070  28.286  35.476   4.079
32811W        W 5071  33.571  39.337   1.346
32812W        W 5072   5.351  38.883  14.233
32813W        W 5073  30.404   2.279  14.782
32814W        W 5074  25.645  28.224   2.948
32815W        W 5075   3.738  37.502   4.904
32816W        W 5076   3.650  18.681   2.350
32817W        W 5077   2.364   8.345  11.603
32818W        W 5078  32.181  44.355  13.021
32819W        W 5079  27.408  19.364   2.623
32820W        W 5080  26.954  23.717  11.079
32821W        W 5081  30.073   3.828  11.467
32822W        W 5082  36.042   0.087   3.220
32823W        W 5083  12.851  42.532   4.099
32824W        W 5084  43.424  34.978  11.656
32825W        W 5085  11.146   7.281  14.492
32826W        W 5086  24.444   9.394  13.912
32827W        W 5087  40.971   7.033   3.417
32828W        W 5088  43.036  39.456  13.818
32829W        W 5089  12.128  32.387  12.166
32830W        W 5090   6.455  25.975   2.334
32831W        W 5091   1.470   1.894   3.317
32832W        W 5092  37.239  14.356   3.799
32833W        W 5093  39.399   0.282  11.054
32834W        W 5094  23.141   7.282   2.936
32835W        W 5095  14.360  44.024   1.751
32836W        W 5096  37.966  11.559   0.690
32837W        W 5097  36.074  31.252   3.337
32838W        W 5098  14.598   2.368  13.375
32839W        W 5099  28.634  14.112   0.342
32840W        W 5100  35.129  26.203  12.087
32841W        W 5101  39.665  43.962   4.604
32842W        W 5102   0.957  34.339  12.960
32843W        W 5103   7.863  38.812   5.091
32844W        W 5104  33.418  20.752  14.676
32845W        W 5105  41.386  21.547   4.326
32846W        W 5106   2.612  27.540  11.444
32847W        W 5107  18.510  10.439   1.343
32848W        W 5108   3.663  29.206   0.726
32849W        W 5109  41.035  17.758   0.524
32850W        W 5110   1.314   5.006  12.305
32851W        W 5111   9.893  22.048  10.464
32852W        W 5112   5.621  37.975  11.098
32853W        W 5113  42.585  13.448   3.730
32854W        W 5114  34.172  43.041  11.183
32855W        W 5115   2.280  38.128  11.094
32856W        W 5116  30.690  44.828  13.984
32857W        W 5117   5.882  13.094  11.159
32858W        W 5118  39.060  33.988  11.020
32859W        W 5119  18.522  42.375  12.753
32860W        W 5120  23.688  35.116   0.791
32861W        W 5121  13.303  26.424   2.291
32862W        W 5122   7.127  38.392   0.928
32863W        W 5123   4.303  20.719  12.416
32864W        W 5124  24.419  14.622   3.243
32865W        W 5125  12.807  29.691  14.761
32866W        W 5126  33.565  16.978   4.155
32867W        W 5127   0.974  15.202   1.649
32868W        W 5128  32.870  16.527  11.966
32869W        W 5129  10.211   4.818  10.873
32870W        W 5130  21.840  35.316   2.259
32871W        W 5131  29.713   5.688   3.975
32872W        W 5132  11.738  12.237  14.100
32873W        W 5133   6.361  37.963   2.807
32874W        W 5134  33.030  43.042  11.816
32875W        W 5135  15.196  31.318  14.926
32876W        W 5136  17.270  28.446  10.442
32877W        W 5137  43.960  37.453   3.928
32878W        W 5138  31.813  31.969   1.588
32879W        W 5139   0.917   7.606  11.689
32880W        W 5140  43.336   2.063  14.340
32881W        W 5141   9.736  18.248   4.629
32882W        W 5142  36.461  28.758  14.358
32883W        W 5143  44.484   3.341  14.787
32884W        W 5144  26.616   3.015   1.435
32885W        W 5145  18.535  20.687   1.241
32886W        W 5146  24.654  39.042  10.821
32887W        W 5147  38.570  17.144   2.420
32888W        W 5148  22.726  28.109   2.811
32889W        W 5149  18.644  31.492  14.896
32890W        W 5150  20.606   9.520  12.387
32891W        W 5151  19.719  31.424  10.711
32892W        W 5152   5.496  16.022   3.749
32893W        W 5153   6.319  28.118   9.770
32894W        W 5154  24.182  15.819   2.740
32895W        W 5155  35.395  21.229  14.400
32896W        W 5156   9.308   5.875  13.136
32897W        W 5157  42.353  34.540  10.887
32898W        W 5158  40.150  17.084  14.322
32899W        W 5159   4.793   7.370  12.082
32900W        W 5160   3.792  26.516   4.855
32901W        W 5161  18.610  42.624  11.173
32902W        W 5162  40.801  10.310  14.363
32903W        W 5163   7.632   4.578  13.823
32904W        W 5164   3.969  13.555  11.863
32905W        W 5165  10.683  21.123   3.738
32906W        W 5166   8.614  34.912  11.414
32907W        W 5167  15.918  40.994  11.186
32908W        W 5168  33.489   0.616   2.189
32909W        W 5169  33.366  33.000   0.178
32910W        W 5170  38.498  19.907  12.602
32911W        W 5171  14.171   1.197  14.517
32912W        W 5172  31.358   2.348  11.975
32913W        W 5173  44.504  14.050  11.329
32914W        W 5174  16.153  44.911   4.098
32915W        W 5175  29.617  20.137   4.361
32916W        W 5176  35.859  24.508   3.994
32917W        W 5177  40.574  13.878  14.355
32918W        W 5178  18.160   6.224  13.445
32919W        W 5179   1.641  40.963  10.713
32920W        W 5180  16.752   1.810  11.922
32921W        W 5181   6.804  20.334   1.381
32922W        W 5182  19.606  15.101  10.657
32923W        W 5183  18.105   2.008  10.538
32924W        W 5184  34.566   6.923  13.310
32925W        W 5185  44.584  40.608   4.147
32926W        W 5186  31.512   2.411   0.896
32927W        W 5187  18.788  22.673  13.795
32928W        W 5188  13.618  24.096  13.128
32929W        W 5189  32.898   0.840  13.959
32930W        W 5190  20.752  30.943  11.538
32931W        W 5191  26.123  19.041  11.572
32932W        W 5192  16.109  31.167  11.061
32933W        W 5193  13.082  24.026   3.627
32934W        W 5194   8.504   6.362  11.064
32935W        W 5195   5.244   9.927  14.007
32936W        W 5196  17.743   1.500   0.906
32937W        W 5197   1.444  26.175   2.432
32938W        W 5198   1.881  13.828  13.896
32939W        W 5199  44.595  26.901  14.696
32940W        W 5200  43.517  42.267   2.292
32941W        W 5201  31.053  36.394   1.045
32942W        W 5202  44.713  14.816  11.629
32943W        W 5203   4.494  10.826   0.774
32944W        W 5204  17.708   6.398  13.966
32945W        W 5205  33.814   7.358   0.465
32946W        W 5206  43.776   3.672  11.252
32947W        W 5207  26.114  33.837  14.837
32948W        W 5208  34.935   5.696   3.268
32949W        W 5209  28.492  32.875   5.435
32950W        W 5210   3.643  38.787  13.493
32951W        W 5211  15.990   3.493   0.940
32952W        W 5212  21.619  39.491  10.374
32953W        W 5213  44.195  41.934  11.150
32954W        W 5214  30.900   7.491   1.111
32955W        W 5215  13.612  44.952   1.437
32956W        W 5216   5.869  28.891   5.020
32957W        W 5217  27.886  17.242   4.743
32958W        W 5218  36.406  44.337   3.940
32959W        W 5219  20.346  11.815  13.316
32960W        W 5220   3.111   4.169  11.922
32961W        W 5221  23.749  34.567   1.676
32962W        W 5222  20.545  12.724  11.081
32963W        W 5223  27.900   1.857   0.355
32964W        W 5224  25.772   1.463  10.738
32965W        W 5225  37.987   0.404  14.015
32966W        W 5226   7.156  30.622  14.368
32967W        W 5227  22.909  42.947   2.320
32968W        W 5228   8.819  31.518  14.791
32969W        W 5229  34.897  40.147   1.409
32970W        W 5230  11.653  27.497   4.470
32971W        W 5231  39.758  25.957   1.744
32972W        W 5232  34.339  28.793  12.549
32973W        W 5233  17.591  33.798   2.634
32974W        W 5234   4.723  16.438   2.705
32975W        W 5235  33.183  26.100   3.814
32976W        W 5236  19.698   2.825  14.817
32977W        W 5237  16.368  40.643   2.551
32978W        W 5238  40.965  44.501  10.765
32979W        W 5239  20.180  25.114  14.882
32980W        W 5240  29.507  38.399  13.330
32981W        W 5241   3.088   1.055   3.807
32982W        W 5242  10.841  19.425   4.140
32983W        W 5243  15.885  30.459   2.706
32984W        W 5244  23.701  17.733   2.433
32985W        W 5245   1.780  33.871   4.653
32986W        W 5246   9.815   4.133   0.451
32987W        W 5247  15.286  26.551   1.192
32988W        W 5248  17.036   0.487  11.566
32989W        W 5249  30.487   5.425   0.196
32990W        W 5250  32.150  27.046  14.545
32991W        W 5251  16.089  42.258   0.499
32992W        W 5252  22.087   7.890   2.672
32993W        W 5253  12.841  31.519   1.020
32994W        W 5254  32.551   7.115  11.480
32995W        W 5255   7.770  44.526  12.557
32996W        W 5256  25.049  20.260   3.796
32997W        W 5257  20.217  20.008   4.582
32998W        W 5258   9.797  24.273   2.805
32999W        W 5259  37.181  31.014  10.829
33000W        W 5260  41.292  34.942  13.386
33001W        W 5261  12.844  26.125  12.472
33002W        W 5262  25.674   9.224   0.883
33003W        W 5263  41.195  42.482  14.807
33004W        W 5264  43.623   1.633   1.071
33005W        W 5265   8.234  19.638   3.662
33006W        W 5266  17.354  28.575  14.624
33007W        W 5267   4.327  36.437  12.547
33008W        W 5268  42.078  41.280  12.979
33009W        W 5269  30.794  43.259  13.395
33010W        W 5270  12.202  27.620  11.074
33011W        W 5271  24.980   0.916  14.584
33012W        W 5272   4.737  21.095  10.776
33013W        W 5273   2.513  27.221   2.211
33014W        W 5274  18.629  33.008   2.390
33015W        W 5275  25.456  32.870   1.329
33016W        W 5276  20.616  44.203  11.197
33017W        W 5277   7.377  28.436   0.282
33018W        W 5278   5.477  13.834   3.734
33019W        W 5279  32.891   3.408  10.719
33020W        W 5280  32.531   3.479   2.838
33021W        W 5281   1.686  21.792  13.441
33022W        W 5282  14.112  33.470   0.397
33023W        W 5283   1.732  25.456  14.114
33024W        W 5284   8.094  33.082   3.726
33025W        W 5285  40.467  38.759  13.279
33026W        W 5286  24.153  28.241   0.307
33027W        W 5287  32.664  37.382  12.516
33028W        W 5288  23.090  33.875   3.932
33029W        W 5289  26.592  22.321  10.624
33030W        W 5290   8.112  14.306   0.340
33031W        W 5291  15.283  31.062   1.920
33032W        W 5292  27.958  43.457   2.730
33033W        W 5293  28.706  16.832  13.805
33034W        W 5294  38.493  12.979  11.068
33035W        W 5295  20.232   8.320  12.950
33036W        W 5296  22.161  27.771  12.366
33037W        W 5297  34.540  25.683  12.539
33038W        W 5298   3.775  38.545   0.068
33039W        W 5299  32.599   7.305  12.592
33040W        W 5300  16.293  16.922   5.645
33041W        W 5301  17.584  36.072   3.222
33042W        W 5302  27.037   4.445   1.407
33043W        W 5303   4.744  11.312  11.043
33044W        W 5304  26.976  17.478  11.457
33045W        W 5305  30.723   3.708   2.832
33046W        W 5306  15.670  16.056  13.360
33047W        W 5307  24.479   8.565  10.666
33048W        W 5308  10.859  32.768  12.624
33049W        W 5309  30.766  38.012   3.906
33050W        W 5310  41.034  18.482  14.524
33051W        W 5311  38.389  42.264  12.025
33052W        W 5312  16.918  15.673   5.374
33053W        W 5313  37.523  17.869   4.090
33054W        W 5314  40.870   5.748   2.803
33055W        W 5315   1.369  30.850  13.929
33056W        W 5316  11.208  19.161  13.165
33057W        W 5317  38.370   3.181   1.787
33058W        W 5318  24.714  12.474   0.448
33059W        W 5319  24.657  19.939   3.798
33060W        W 5320  44.963  38.121   2.273
33061W        W 5321  30.656  26.965   2.461
33062W        W 5322  27.685  36.968   2.829
33063W        W 5323  38.328  14.310   0.821
33064W        W 5324   8.124  16.053  10.670
33065W        W 5325  16.163  40.193   2.654
33066W        W 5326  17.489   0.756   3.264
33067W        W 5327  14.757  11.462  10.367
33068W        W 5328  21.113  14.258  10.205
33069W        W 5329  21.578   3.478  11.578
33070W        W 5330  30.719   6.808   5.037
33071W        W 5331   0.788  42.234  12.044
33072W        W 5332  18.227  44.699  13.577
33073W        W 5333  39.191  35.597   2.810
33074W        W 5334   4.763  14.799  10.689
33075W        W 5335   0.736  12.237  11.930
33076W        W 5336  23.592   5.486  11.757
33077W        W 5337  13.966   3.225  14.288
33078W        W 5338   0.305   1.510  14.767
33079W        W 5339  12.635  23.139   2.361
33080W        W 5340   8.830  17.068   2.656
33081W        W 5341   4.619  40.089   2.183
33082W        W 5342  43.604  27.466  11.015
33083W        W 5343  39.128  34.577   4.186
33084W        W 5344  33.133  34.554  13.828
33085W        W 5345  10.100  29.558  12.808
33086W        W 5346   8.802   4.272   2.188
33087W        W 5347  36.254  34.359  11.253
33088W        W 5348  33.450  12.927   4.129
33089W        W 5349  15.745  33.509   0.938
33090W        W 5350  16.247  39.298   2.439
33091W        W 5351  30.829   4.007   3.828
33092W        W 5352  17.566  41.215  11.443
33093W        W 5353  26.602  14.898   0.948
33094W        W 5354  21.281   3.792  14.888
33095W        W 5355  43.019  28.155  13.815
33096W        W 5356   7.522  27.630  11.485
33097W        W 5357  26.159  37.844  11.448
33098W        W 5358  26.398   2.799  11.097
33099W        W 5359  16.508  22.086  13.794
33100W        W 5360   4.952  37.029  13.061
33101W        W 5361  40.843  17.435  13.119
33102W        W 5362  26.075  41.547   3.174
33103W        W 5363  37.175   0.545  11.173
33104W        W 5364  40.793  34.180  10.750
33105W        W 5365  10.367  13.420   3.655
33106W        W 5366  16.758  27.642   3.621
33107W        W 5367  13.429   9.993  13.076
33108W        W 5368   7.124  14.492  13.891
33109W        W 5369  34.090  19.219  14.287
33110W        W 5370  34.429  18.891  14.012
33111W        W 5371   7.191  17.763   4.629
33112W        W 5372  35.596  20.174   3.930
33113W        W 5373   7.709  39.503  11.149
33114W        W 5374   0.397  44.712  11.969
33115W        W 5375  16.309   7.710  12.023
33116W        W 5376  27.884  15.226  14.863
33117W        W 5377   6.206  36.896  14.974
33118W        W 5378   2.210  10.431   3.654
33119W        W 5379  44.873  42.021   3.169
33120W        W 5380  21.733  31.636   2.170
33121W        W 5381  42.978  21.181  10.919
33122W        W 5382  36.427  42.328  11.055
33123W        W 5383  36.131  27.828  12.117
33124W        W 5384  26.830  23.609   2.600
33125W        W 5385  32.673  18.102  12.033
33126W        W 5386  25.500   5.331  10.649
33127W        W 5387  27.555  12.237   4.372
33128W        W 5388   5.207  43.914   2.929
33129W        W 5389  14.476  20.393  13.369
33130W        W 5390  43.196  35.957  14.485
33131W        W 5391  42.002  44.315  14.690
33132W        W 5392  17.549  38.374   1.253
33133W        W 5393  18.664  30.437   4.169
33134W        W 5394   9.733  23.992  11.701
33135W        W 5395  13.271  19.372  13.318
33136W        W 5396  40.041   5.571  14.280
33137W        W 5397  22.036  21.237   4.071
33138W        W 5398  16.308  40.166   3.763
33139W        W 5399  37.159  20.619   4.789
33140W        W 5400   5.729  29.894  14.872
33141W        W 5401  24.013  36.474   1.352
33142W        W 5402  13.669  21.153   3.422
33143W        W 5403  27.074  35.602   4.834
33144W        W 5404  25.600  21.142   3.184
33145W        W 5405   6.286   7.938   1.042
33146W        W 5406  21.865  25.218   1.600
33147W        W 5407  34.401   1.418  10.320
33148W        W 5408  39.760  37.588  12.942
33149W        W 5409  31.522   5.885   4.147
33150W        W 5410   7.697  21.155   4.129
33151W        W 5411  38.064  13.663  14.614
33152W        W 5412  19.789   0.888  12.896
33153W        W 5413  27.954  36.118  11.512
33154W        W 5414   8.037  14.318  11.119
33155W        W 5415  13.896  41.113  14.374
33156W        W 5416   6.010   3.279   1.291
33157W        W 5417  12.951  18.544   2.101
33158W        W 5418   5.860   4.260  11.132
33159W        W 5419   3.728  15.291  13.119
33160W        W 5420  19.813   6.787   2.705
33161W        W 5421  21.745   4.784  13.095
33162W        W 5422  33.545  13.290  11.150
33163W        W 5423  42.042   9.676   4.624
33164W        W 5424  39.060  39.797  12.053
33165W        W 5425  32.029  29.465   2.263
33166W        W 5426  30.066   4.335  11.655
33167W        W 5427   6.662  23.495  12.047
33168W        W 5428  29.178   9.995   3.844
33169W        W 5429  38.608  13.366   1.800
33170W        W 5430  35.994  29.682   1.392
33171W        W 5431   4.244  33.987   3.691
33172W        W 5432   5.015  38.845  13.753
33173W        W 5433   6.724  40.068  11.058
33174W        W 5434  43.101  22.351   4.307
33175W        W 5435   2.934  16.855  13.108
33176W        W 5436   7.426  23.491  10.766
33177W        W 5437  38.532   5.656   1.498
33178W        W 5438  22.610  13.706   3.762
33179W        W 5439   9.547  37.702  14.779
33180W        W 5440   6.683  17.628  10.478
33181W        W 5441  18.237  26.049   2.776
33182W        W 5442  19.824  41.906  13.035
33183W        W 5443  44.810  41.487  10.643
33184W        W 5444  20.407   3.041   3.081
33185W        W 5445  38.719  24.543   3.249
33186W        W 5446  35.074   7.401   9.800
33187W        W 5447  23.168  18.396   0.061
33188W        W 5448  22.687   8.153  11.943
33189W        W 5449  15.864  38.398  14.605
33190W        W 5450  23.242  39.991  13.513
33191W        W 5451  15.837  19.724   1.283
33192W        W 5452  40.634  36.148   1.236
33193W        W 5453  18.521  34.111  14.374
33194W        W 5454  37.912  30.952   0.113
33195W        W 5455  28.545  42.775  12.496
33196W        W 5456  10.219  44.019  13.895
33197W        W 5457  25.989  19.378   0.721
33198W        W 5458  39.440   3.394  13.403
33199W        W 5459   1.093  24.974  11.585
33200W        W 5460  35.821  26.142  12.826
33201W        W 5461  41.030   5.187  11.810
33202W        W 5462  20.030  32.892   1.948
33203W        W 5463  38.383  37.277   0.249
33204W        W 5464   8.363  25.700   3.793
33205W        W 5465  40.746  17.087   3.881
33206W        W 5466  37.542  14.696   0.950
33207W        W 5467  12.474  33.868  10.968
33208W        W 5468   8.387  31.094   2.989
33209W        W 5469  13.728  17.526   2.182
33210W        W 5470  15.193  44.355  14.974
33211W        W 5471   6.525  24.041  14.950
33212W        W 5472  39.333  27.504   2.731
33213W        W 5473  28.485   5.728  13.812
33214W        W 5474  32.339  28.552  13.116
33215W        W 5475  28.031   8.939  13.786
33216W        W 5476  20.192  25.296   4.522
33217W        W 5477  33.591   1.003   1.884
33218W        W 5478  35.682  18.683  13.608
33219W        W 5479  11.045  16.126  11.604
33220W        W 5480   0.430   5.512  10.641
33221W        W 5481  17.581  33.644  14.775
33222W        W 5482  29.634  10.883   0.796
33223W        W 5483   5.389  44.380  13.007
33224W        W 5484  14.495  32.966  11.423
33225W        W 5485  10.082   5.403   4.082
33226W        W 5486  31.422   3.316  13.369
33227W        W 5487   9.657  30.503  14.188
33228W        W 5488   0.431  29.161   3.550
33229W        W 5489  40.252  25.023   3.758
33230W        W 5490  22.387   1.743  14.433
33231W        W 5491  36.872   0.562  12.042
33232W        W 5492  11.741  18.301  14.865
33233W        W 5493   2.276  25.750  12.885
33234W        W 5494  31.515  20.755   0.891
33235W        W 5495  27.965  21.438   1.191
33236W        W 5496  34.601  25.410   4.721
33237W        W 5497  31.435   8.999  14.753
33238W        W 5498  25.609   6.050   4.136
33239W        W 5499  30.488  14.748  13.615
33240W        W 5500  24.979  36.057   1.974
33241W        W 5501   4.694  10.095  14.955
33242W        W 5502  36.978   9.685   1.382
33243W        W 5503  34.063  21.684   3.726
33244W        W 5504  27.704   0.428  11.029
33245W        W 5505  42.388  29.908   2.397
33246W        W 5506  19.773   6.156  11.545
33247W        W 5507  15.874   7.299  14.965
33248W        W 5508  17.579  15.640   2.797
33249W        W 5509  35.804  37.331  13.886
33250W        W 5510  11.992   3.401  14.130
33251W        W 5511  28.963  18.153   0.519
33252W        W 5512  22.217  42.312   3.762
33253W        W 5513  40.144  40.091  11.602
33254W        W 5514  10.758  14.981   4.359
33255W        W 5515   5.450  38.292  12.656
33256W        W 5516  12.810  22.627  14.391
33257W        W 5517  44.715  12.266  10.704
33258W        W 5518  30.054  39.092   3.779
33259W        W 5519  42.878  33.738  13.446
33260W        W 5520  24.994  43.292   3.852
33261W        W 5521  27.935  30.923  11.167
33262W        W 5522  15.205  39.422  12.014
33263W        W 5523  14.556  32.881   4.608
33264W        W 5524   2.950  12.728  14.908
33265W        W 5525  15.117  18.476  11.568
33266W        W 5526  23.953  22.192   3.742
33267W        W 5527   9.232   5.773   1.840
33268W        W 5528   1.461  43.032   1.537
33269W        W 5529   1.504  15.582  11.948
33270W        W 5530  17.118   3.421  11.685
33271W        W 5531  25.002  16.465   0.342
33272W        W 5532  10.555  11.292  13.836
33273W        W 5533  32.282  32.849   4.258
33274W        W 5534  10.680   3.583  13.332
33275W        W 5535  39.377  34.197   5.080
33276W        W 5536   4.357  31.205  10.790
33277W        W 5537  15.252  38.654  10.192
33278W        W 5538  28.690   9.802  10.646
33279W        W 5539  33.439  35.865   2.759
33280W        W 5540  33.627   5.160  11.059
33281W        W 5541  13.799  39.379  11.688
33282W        W 5542  28.523  19.981   4.938
33283W        W 5543   6.105   9.272  13.039
33284W        W 5544  16.124  28.474  11.881
33285W        W 5545   3.235  33.442   1.760
33286W        W 5546  37.197  17.489  14.988
33287W        W 5547  14.643  26.543   3.908
33288W        W 5548  20.566  35.430  14.600
33289W        W 5549  40.806  21.144  13.123
33290W        W 5550  25.592   7.973  12.008
33291W        W 5551  42.299  21.615   0.008
33292W        W 5552  17.963   4.888  12.404
33293W        W 5553   7.237  18.630  10.798
33294W        W 5554  31.686  36.430  10.612
33295W        W 5555  16.105  16.227  11.349
33296W        W 5556  17.736  23.517  10.582
33297W        W 5557  12.224  11.663  14.239
33298W        W 5558  11.795  34.446  12.046
33299W        W 5559  25.624  14.629  12.419
33300W        W 5560  20.539  20.604   4.628
33301W        W 5561  35.161  10.918   4.548
33302W        W 5562  28.896   5.414   2.028
33303W        W 5563   5.675  16.564   1.167
33304W        W 5564  34.194   3.911  14.318
33305W        W 5565  36.462  30.453   2.815
33306W        W 5566  35.451  40.398  10.598
33307W        W 5567   3.518  29.392  11.899
33308W        W 5568   0.322  34.399   4.892
33309W        W 5569  25.332  41.818  11.175
33310W        W 5570  10.823  17.718   1.705
33311W        W 5571   3.895  13.375  12.329
33312W        W 5572  20.300  21.983   0.497
33313W        W 5573  14.714  17.794  14.548
33314W        W 5574  13.209  44.732  11.152
33315W        W 5575  24.694  30.223   1.440
33316W        W 5576  30.534  20.016  11.498
33317W        W 5577   6.167   9.770  14.327
33318W        W 5578  44.271  44.441  11.965
33319W        W 5579  32.155   0.144  12.022
33320W        W 5580  12.926  43.718   0.264
33321W        W 5581  35.567  39.314   4.253
33322W        W 5582  12.329  25.669   0.017
33323W        W 5583  36.907   6.476  10.980
33324W        W 5584  21.946  15.560   4.071
33325W        W 5585  21.526  25.507  14.842
33326W        W 5586   7.685   8.837  14.595
33327W        W 5587   7.207   3.948  11.120
33328W        W 5588   6.306  40.823  12.318
33329W        W 5589  39.079   6.330  11.875
33330W        W 5590  19.724  13.990   1.391
33331W        W 5591  14.730  12.113  10.893
33332W        W 5592  20.674  23.827  11.037
33333W        W 5593   8.557  34.603   0.520
33334W        W 5594  11.949  36.923  11.514
33335W        W 5595  17.860  32.601  11.080
33336W        W 5596  23.511  24.435  11.564
33337W        W 5597  28.281  33.594   4.735
33338W        W 5598  19.287   6.107  14.953
33339W        W 5599  25.227   9.841  13.807
33340W        W 5600   4.829  32.548  12.947
33341W        W 5601  15.750  27.886  11.502
33342W        W 5602  21.638  36.989   1.956
33343W        W 5603  12.610  13.370  11.627
33344W        W 5604  23.091  15.254  13.472
33345W        W 5605  42.769  40.442   1.901
33346W        W 5606  21.703  23.603   2.182
33347W        W 5607  41.275  16.564   0.522
33348W        W 5608  30.578  30.188   2.674
33349W        W 5609  26.633   0.972  14.281
33350W        W 5610  23.482  18.050   4.203
33351W        W 5611  14.163  16.890  13.628
33352W        W 5612  23.625  13.230   2.607
33353W        W 5613   2.484  28.561  13.759
33354W        W 5614  31.117  36.903   2.798
33355W        W 5615  27.942  19.757  14.878
33356W        W 5616  22.954  33.103  14.360
33357W        W 5617  19.503  30.082  11.706
33358W        W 5618  21.969  18.561  13.316
33359W        W 5619  18.287  23.251   2.634
33360W        W 5620   2.203  39.413  10.915
33361W        W 5621  40.494  42.899  10.678
33362W        W 5622  12.852  18.994   0.839
33363W        W 5623  36.119  35.548   1.406
33364W        W 5624  36.074  24.470  10.581
33365W        W 5625  37.345  23.163  14.611
33366W        W 5626  40.076  12.741   0.420
33367W        W 5627  17.236  33.067  12.148
33368W        W 5628  28.318  16.062   3.583
33369W        W 5629  41.477   5.638   3.147
33370W        W 5630  20.101  18.747  12.460
33371W        W 5631  24.203  41.687  13.331
33372W        W 5632  20.578  36.784  14.873
33373W        W 5633  27.923   6.925   3.702
33374W        W 5634   0.003  11.620   4.317
33375W        W 5635  10.239  40.852  13.459
33376W        W 5636  26.569   2.024   3.396
33377W        W 5637  36.867  33.701  12.605
33378W        W 5638  11.343   9.766  13.531
33379W        W 5639  34.708  32.129   3.655
33380W        W 5640  37.454  37.874   3.098
33381W        W 5641   6.723   2.864  14.533
33382W        W 5642   7.643  12.907  11.424
33383W        W 5643  30.267  11.928   2.773
33384W        W 5644   1.927  24.704  14.237
33385W        W 5645  41.384   8.750   0.214
33386W        W 5646  39.469  22.764  14.355
33387W        W 5647  29.331  24.341  13.993
33388W        W 5648  31.448  10.412  14.754
33389W        W 5649   5.653  16.689   0.171
33390W        W 5650  42.425  40.704   0.172
33391W        W 5651  13.120  37.692  12.910
33392W        W 5652   6.879  22.489   2.603
33393W        W 5653   5.836  40.275   4.588
33394W        W 5654  27.239  42.256  12.369
33395W        W 5655  14.082  28.377   3.671
33396W        W 5656  13.103   8.238  14.518
33397W        W 5657  44.263  13.253   2.712
33398W        W 5658  27.757  13.186   1.667
33399W        W 5659  26.579   4.436   3.193
33400W        W 5660  31.915   7.445   4.286
33401W        W 5661  23.791  14.147  12.968
33402W        W 5662  16.101  35.688   4.081
33403W        W 5663  32.047   1.722   0.989
33404W        W 5664  28.557   3.647   3.722
33405W        W 5665  29.483  30.988  11.661
33406W        W 5666  23.371  42.977  11.410
33407W        W 5667  30.453   9.900  13.682
33408W        W 5668  28.229   4.730   4.972
33409W        W 5669  33.455  12.271  12.535
33410W        W 5670  24.557  21.657  11.950
33411W        W 5671   4.025  38.437  13.407
33412W        W 5672  27.450  28.400   1.536
33413W        W 5673  13.377  19.307  14.365
33414W        W 5674   5.213  11.593   1.185
33415W        W 5675  25.521  10.733   3.424
33416W        W 5676  30.606  38.820   0.243
33417W        W 5677  18.279  17.232  12.894
33418W        W 5678  39.938   4.426  12.360
33419W        W 5679  22.482  20.716  14.921
33420W        W 5680  41.934  38.547   1.840
33421W        W 5681   3.020   3.267   2.153
33422W        W 5682  23.083  12.265   3.177
33423W        W 5683  39.298  26.261  12.138
33424W        W 5684  40.906  34.848  12.047
33425W        W 5685  11.389   2.149  13.140
33426W        W 5686  14.134  22.816   2.841
33427W        W 5687  16.219  25.508  10.744
33428W        W 5688  44.903  27.216  10.833
33429W        W 5689  38.025  13.847   3.876
33430W        W 5690  32.419  19.671   4.899
33431W        W 5691  10.164  32.953  14.309
33432W        W 5692  38.655  16.283   0.847
33433W        W 5693   9.603  23.565  14.976
33434W        W 5694  23.091   7.117   0.334
33435W        W 5695  42.954  33.373  13.075
33436W        W 5696  34.098  23.931  13.557
33437W        W 5697  18.500  17.748  13.088
33438W        W 5698  39.788  13.825  14.979
33439W        W 5699   7.168  18.615  12.134
33440W        W 5700  44.535  34.944   0.026
33441W        W 5701   2.365   6.648  11.016
33442W        W 5702   4.983  39.282  10.101
33443W        W 5703  38.082  44.350  13.601
33444W        W 5704  20.753  36.234   1.366
33445W        W 5705  40.881  33.922   4.454
33446W        W 5706   7.945  42.986  11.155
33447W        W 5707  15.150   6.745  13.911
33448W        W 5708   6.266  25.441   0.415
33449W        W 5709  28.561  23.027  13.428
33450W        W 5710  14.898  43.571   3.548
33451W        W 5711  25.934  28.373  13.512
33452W        W 5712  42.889   4.903  10.468
33453W        W 5713  41.376   2.975  11.577
33454W        W 5714  28.573  29.054  14.063
33455W        W 5715  36.357  29.937   3.181
33456W        W 5716  30.173   1.509   0.352
33457W        W 5717  13.383   4.001   3.091
33458W        W 5718  33.239  30.884   0.786
33459W        W 5719  18.138  16.201  11.485
33460W        W 5720  21.564   7.703  11.494
33461W        W 5721  25.802  34.949  13.919
33462W        W 5722  39.176  20.530   0.961
33463W        W 5723   6.292  12.689  11.540
33464W        W 5724   3.714  11.383  12.522
33465W        W 5725  29.169   0.718   0.445
33466W        W 5726   1.535  43.299   3.605
33467W        W 5727  35.504  26.974  14.981
33468W        W 5728  33.315   1.041  12.489
33469W        W 5729  24.155  27.626   3.760
33470W        W 5730  10.168  35.839   1.239
33471W        W 5731  41.504  34.280   3.706
33472W        W 5732  34.622   9.353  11.935
33473W        W 5733   7.657  14.467   1.739
33474W        W 5734   0.909  27.687  12.979
33475W        W 5735  20.730  36.660  11.130
33476W        W 5736  35.036   4.749  11.524
33477W        W 5737  24.158  24.954   3.286
33478W        W 5738  25.122   6.680   4.565
33479W        W 5739  14.594   8.371   2.633
33480W        W 5740   9.373  32.575  12.447
33481W        W 5741  37.979  28.131  13.965
33482W        W 5742  40.346  42.485   4.537
33483W        W 5743  36.118  17.325  12.932
33484W        W 5744  41.999  14.513   1.231
33485W        W 5745  32.059  23.663   0.049
33486W        W 5746  24.944  32.345  12.078
33487W        W 5747  25.085  19.691   4.701
33488W        W 5748  36.106  38.397  10.652
33489W        W 5749   4.040   8.934   2.859
33490W        W 5750   6.396  24.974   1.647
33491W        W 5751  11.434  41.417   0.824
33492W        W 5752  11.099  12.877   4.460
33493W        W 5753  24.220  42.591   2.324
33494W        W 5754  39.897  18.353  12.819
33495W        W 5755  34.183  16.319  14.027
33496W        W 5756  23.169  37.990   0.475
33497W        W 5757   0.808   6.440   0.691
33498W        W 5758  23.757  18.357  11.875
33499W        W 5759  31.938  42.751  11.949
33500W        W 5760  22.664  12.132   1.502
33501W        W 5761  40.454  41.536  12.096
33502W        W 5762  25.192  30.649  13.081
33503W        W 5763  17.346   7.775   0.308
33504W        W 5764   0.728  24.875  10.596
33505W        W 5765  11.768   6.651   4.616
33506W        W 5766  31.786  19.047  12.506
33507W        W 5767   8.851  30.387   3.824
33508W        W 5768   6.632  26.170  13.383
33509W        W 5769  11.282  43.808  11.376
33510W        W 5770   9.169  10.023   3.701
33511W        W 5771  44.297  29.454  13.991
33512W        W 5772   8.992   0.653   2.126
33513W        W 5773  28.438   6.467  11.080
33514W        W 5774  43.337   2.326   1.352
33515W        W 5775  23.737  19.612  12.461
33516W        W 5776  38.549  44.294   2.326
33517W        W 5777  39.826  18.251  14.428
33518W        W 5778  32.041  28.648   2.891
33519W        W 5779  16.106  36.464   1.449
33520W        W 5780   2.904  38.508   1.344
33521W        W 5781  42.218  15.547   1.426
33522W        W 5782  19.611  20.304  14.167
33523W        W 5783  15.825  37.053  14.759
33524W        W 5784  19.797   1.755  12.752
33525W        W 5785   4.035  23.062   4.137
33526W        W 5786  24.844  33.213  10.693
33527W        W 5787  22.781  16.236   2.088
33528W        W 5788   4.317  40.588  11.609
33529W        W 5789   9.350  38.564   3.857
33530W        W 5790  11.670  35.028   3.521
33531W        W 5791   6.903  18.182  12.921
33532W        W 5792  42.499  22.887   0.053
33533W        W 5793   3.647  23.711   5.151
33534W        W 5794  22.638  42.680   1.333
33535W        W 5795  14.752  11.187   4.118
33536W        W 5796  40.308   1.963   0.358
33537W        W 5797  35.634  36.292  13.038
33538W        W 5798  14.239  11.393   0.488
33539W        W 5799  24.977  32.010   1.769
33540W        W 5800  39.092  36.697   4.145
33541W        W 5801  18.810  27.455  14.825
33542W        W 5802  30.524   3.245   2.713
33543W        W 5803   5.828  32.647   2.432
33544W        W 5804  37.512  27.937   5.155
33545W        W 5805   7.213   1.394   3.868
33546W        W 5806  38.523  30.334   4.543
33547W        W 5807  30.465  33.295   0.923
33548W        W 5808   4.701  19.186  13.823
33549W        W 5809  19.608  33.451   0.963
33550W        W 5810  39.773  34.402   3.213
33551W        W 5811   1.751  17.081  12.414
33552W        W 5812  36.470  24.920   2.311
33553W        W 5813   1.831  13.770  14.825
33554W        W 5814  34.554  21.111   2.857
33555W        W 5815  42.707  19.926  10.065
33556W        W 5816  26.603  42.935  12.379
33557W        W 5817   6.198  27.184  14.942
33558W        W 5818  11.104  33.565  10.844
33559W        W 5819  27.087   3.332  10.916
33560W        W 5820   7.275  21.658  10.732
33561W        W 5821  36.320   8.894  12.190
33562W        W 5822  10.678  22.337  11.528
33563W        W 5823  34.850  35.995  13.762
33564W        W 5824  35.162   2.992  11.560
33565W        W 5825  24.674   0.332  12.940
33566W        W 5826   8.335  41.958   3.258
33567W        W 5827  42.762  14.815   0.637
33568W        W 5828   4.723   8.352  11.582
33569W        W 5829   9.901   2.133   0.115
33570W        W 5830  37.109   5.232   4.743
33571W        W 5831   3.484  39.426   0.304
33572W        W 5832   3.769  38.978   0.378
33573W        W 5833  12.217   4.256   0.531
33574W        W 5834  42.307   7.011  12.192
33575W        W 5835  24.108   4.664  12.872
33576W        W 5836  27.697  40.345  14.234
33577W        W 5837  15.450  26.377   1.746
33578W        W 5838  21.391  29.919  14.101
33579W        W 5839   4.345   8.589   1.227
33580W        W 5840  35.682  23.212  12.908
33581W        W 5841  39.347  10.363  13.028
33582W        W 5842  15.752  12.407  13.462
33583W        W 5843  33.375   6.347  12.032
33584W        W 5844   0.266  37.621   4.192
33585W        W 5845  29.205  33.955  13.852
33586W        W 5846  16.718  42.082   4.764
33587W        W 5847  34.398   1.907  10.610
33588W        W 5848  39.440  35.488   1.858
33589W        W 5849   6.315  20.232  11.116
33590W        W 5850  12.823  21.710  13.049
33591W        W 5851  34.990  33.563   1.193
33592W        W 5852  13.137   3.093  12.241
33593W        W 5853   9.286   9.710   4.145
33594W        W 5854   5.899  11.671  14.280
33595W        W 5855   1.741  22.090  14.453
33596W        W 5856   2.736  23.245   2.694
33597W        W 5857   3.502  41.461   3.378
33598W        W 5858  12.812  15.278   2.198
33599W        W 5859  37.417   4.934   3.156
33600W        W 5860  33.175   6.314  11.585
33601W        W 5861  29.288   6.812   0.420
33602W        W 5862  40.447  36.116   0.247
33603W        W 5863  31.954  27.791   3.315
33604W        W 5864  24.705  27.451   0.355
33605W        W 5865   2.899   7.866   0.426
33606W        W 5866  22.110   3.654  13.032
33607W        W 5867  16.839  28.592   0.838
33608W        W 5868  39.495  38.047   2.872
33609W        W 5869   3.915  14.325   4.649
33610W        W 5870  24.683  44.889   0.675
33611W        W 5871  14.862  38.548   1.318
33612W        W 5872  39.273  40.222  12.238
33613W        W 5873  15.296   0.874  11.618
33614W        W 5874  42.009  32.915  11.068
33615W        W 5875  28.474  17.305   3.984
33616W        W 5876  42.340  19.655  14.078
33617W        W 5877   7.398  35.998  14.228
33618W        W 5878  20.604  18.102   0.068
33619W        W 5879   9.634  24.641   0.375
33620W        W 5880  34.718  37.542   4.860
33621W        W 5881  32.628  19.454   2.739
33622W        W 5882  13.653  29.611  10.480
33623W        W 5883  31.870   5.117  12.278
33624W        W 5884  33.939  41.905   3.231
33625W        W 5885  42.283  44.336  12.388
33626W        W 5886  41.183  25.729   3.125
33627W        W 5887   8.711  31.590  12.966
33628W        W 5888   2.943  37.129   1.756
33629W        W 5889   8.372   2.806  13.766
33630W        W 5890   6.159  31.942  13.096
33631W        W 5891  38.343  27.678   2.449
33632W        W 5892  38.699  10.130   5.415
33633W        W 5893  14.250  11.651  11.585
33634W        W 5894  20.735   1.941   2.383
33635W        W 5895   0.277  14.992   4.675
33636W        W 5896   2.453  30.427  12.039
33637W        W 5897   8.936   1.232   1.386
33638W        W 5898  39.883   7.570  11.382
33639W        W 5899   4.327   1.170   4.654
33640W        W 5900   7.857  39.033   4.137
33641W        W 5901  28.019   8.764   2.313
33642W        W 5902   4.003   5.854   0.780
33643W        W 5903  28.264  43.809   9.995
33644W        W 5904  26.576  17.159   1.995
33645W        W 5905  12.207  33.304  14.478
33646W        W 5906  43.891  34.991  11.880
33647W        W 5907  24.788  35.641  12.908
33648W        W 5908  23.979  30.030   0.801
33649W        W 5909  17.059  33.952   1.673
33650W        W 5910  25.482  24.776  10.812
33651W        W 5911  17.113  29.754   1.993
33652W        W 5912  16.775  26.664  12.436
33653W        W 5913  33.582  31.083   2.643
33654W        W 5914  21.057  14.168  13.863
33655W        W 5915  22.841  30.329   2.399
33656W        W 5916  43.319  16.169  13.537
33657W        W 5917   5.452   2.437  11.150
33658W        W 5918  27.487  35.834  13.477
33659W        W 5919  36.215  40.866  10.616
33660W        W 5920  23.473  10.837  12.446
33661W        W 5921  29.909  23.701   3.350
33662W        W 5922  12.518  21.726  13.624
33663W        W 5923  32.406  44.700  13.348
33664W        W 5924  36.479  24.091   0.765
33665W        W 5925  25.529  27.155  13.125
33666W        W 5926   1.441   8.411  13.855
33667W        W 5927  14.482  27.686   0.664
33668W        W 5928  20.634   0.287   4.629
33669W        W 5929  15.220  40.226   1.205
33670W        W 5930  19.008   4.433   0.754
33671W        W 5931  33.451  17.050   1.708
33672W        W 5932  38.713   2.721  13.003
33673W        W 5933  20.267  43.031  12.956
33674W        W 5934  23.256  27.147  13.356
33675W        W 5935  23.099  40.048   0.855
33676W        W 5936  22.166  16.501  11.973
33677W        W 5937   1.911  29.410   1.039
33678W        W 5938   1.197  16.870   2.605
33679W        W 5939  43.309  43.867  10.717
33680W        W 5940  15.404  25.056  11.601
33681W        W 5941  41.324  13.700  13.593
33682W        W 5942  26.213  21.464  11.968
33683W        W 5943  14.747  28.059  14.331
33684W        W 5944   7.070  28.447   1.130
33685W        W 5945  37.830  39.798   2.207
33686W        W 5946  32.858  23.570  10.573
33687W        W 5947  16.803  10.754  11.173
33688W        W 5948  11.528  41.622  11.108
33689W        W 5949  27.466  36.468  14.010
33690W        W 5950  23.046  40.369  11.927
33691W        W 5951  23.453   0.236   2.186
33692W        W 5952  28.620   0.939  14.732
33693W        W 5953  25.497  26.125  10.902
33694W        W 5954  17.023  18.113  11.174
33695W        W 5955  21.368  22.661  14.720
33696W        W 5956  23.082  33.003  13.459
33697W        W 5957  36.505  40.081   2.379
33698W        W 5958   4.790  24.738   4.122
33699W        W 5959  41.696  31.952  13.897
33700W        W 5960  13.657  12.035  13.138
33701W        W 5961  22.992  33.364   0.366
33702W        W 5962  27.608  14.570  11.337
33703W        W 5963  34.800  32.943   4.586
33704W        W 5964  15.143  23.049  13.154
33705W        W 5965  36.824  36.370   2.939
33706W        W 5966   4.955   1.328   3.774
33707W        W 5967   0.940  10.158  14.857
33708W        W 5968   0.668  22.647   4.110
33709W        W 5969  12.170  10.089   3.330
33710W        W 5970  38.409  30.339  13.802
33711W        W 5971  27.696  18.948   3.931
33712W        W 5972  35.399  20.639   3.822
33713W        W 5973  41.388   2.123   2.692
33714W        W 5974  17.634  20.238  13.585
33715W        W 5975  38.790   4.297   0.524
33716W        W 5976  19.927  19.863  15.000
33717W        W 5977   0.550  19.448  13.927
33718W        W 5978  25.487  28.096   0.501
33719W        W 5979   0.266  25.183  14.018
33720W        W 5980   7.702  17.107  12.072
33721W        W 5981   1.919  29.673  12.843
33722W        W 5982  16.240  33.949  13.521
33723W        W 5983  15.652  19.994   0.588
33724W        W 5984  35.980   5.954   4.458
33725W        W 5985  18.196  35.324   1.906
33726W        W 5986   9.651  33.112  14.507
33727W        W 5987  36.438  39.865  14.479
33728W        W 5988  22.300  20.140  11.584
33729W        W 5989  38.517  43.915  11.544
33730W        W 5990  36.641  43.521  11.847
33731W        W 5991  31.707  36.110   2.898
33732W        W 5992  23.773  31.862   2.323
33733W        W 5993  17.204   3.856   1.358
33734W        W 5994   3.507  29.082  14.305
33735W        W 5995  17.522  19.626   2.097
33736W        W 5996  35.659   3.260   4.055
33737W        W 5997  20.150   0.969  11.124
33738W        W 5998  34.511  41.364  12.984
33739W        W 5999  26.962   6.935  11.041
33740W        W 6000  27.672   3.152  13.483
33741W        W 6001  35.539  16.024  12.659
33742W        W 6002  30.684  28.027   3.288
33743W        W 6003  22.779  27.966   3.306
33744W        W 6004  42.317  22.888  11.634
33745W        W 6005  25.770  12.362   2.392
33746W        W 6006   0.227  36.704  12.146
33747W        W 6007  12.822  22.516   2.823
33748W        W 6008  24.486  13.610   3.356
33749W        W 6009  33.536  21.043   2.697
33750W        W 6010  29.109  22.416   0.052
33751W        W 6011  34.389  13.655   2.600
33752W        W 6012   2.380  15.621   0.403
33753W        W 6013   5.547  12.055   4.759
33754W        W 6014  19.145  37.916  12.958
33755W        W 6015  29.430  42.929  14.625
33756W        W 6016  40.551   1.329   1.721
33757W        W 6017   8.664  35.452   3.219
33758W        W 6018   9.202  36.938  14.229
33759W        W 6019  14.350  12.805   2.136
33760W        W 6020  42.449  29.003  10.693
33761W        W 6021   7.376  43.330  14.022
33762W        W 6022  12.817  19.209  14.421
33763W        W 6023  10.312  35.492   1.913
33764W        W 6024   0.370   4.163   2.759
33765W        W 6025  31.395   9.415   0.036
33766W        W 6026  39.910   2.676   5.059
33767W        W 6027   6.228  19.604  14.527
33768W        W 6028  28.349   4.217  14.538
33769W        W 6029  37.649  31.022   4.999
33770W        W 6030  25.865  39.084   4.658
33771W        W 6031  44.247  18.266  14.405
33772W        W 6032   4.772  30.020   0.779
33773W        W 6033  22.591   3.488   4.586
33774W        W 6034  11.202  29.901  14.945
33775W        W 6035  35.497  43.733  10.453
33776W        W 6036   3.723  33.032   3.727
33777W        W 6037  15.522  35.349  10.593
33778W        W 6038  24.649  25.247  10.740
33779W        W 6039  23.133   6.851   2.617
33780W        W 6040  28.471  43.517  14.952
33781W        W 6041  21.783  31.888   1.423
33782W        W 6042   2.715  12.751   3.128
33783W        W 6043  18.156  44.071   0.553
33784W        W 6044  32.670  20.926   4.705
33785W        W 6045   6.261   7.723  10.636
33786W        W 6046  15.614   0.036  10.686
33787W        W 6047  12.274  38.789   2.780
33788W        W 6048   1.336  24.138  11.153
33789W        W 6049   4.899  24.170  11.172
33790W        W 6050  19.991  21.120   4.115
33791W        W 6051  23.747  10.471   4.188
33792W        W 6052   1.620  12.655  10.840
33793W        W 6053   5.944  39.933   1.008
33794W        W 6054  42.057  43.789   3.679
33795W        W 6055  10.598  30.683  14.550
33796W        W 6056   3.232  43.014   0.634
33797W        W 6057  36.068   1.355  10.730
33798W        W 6058  40.383  32.493  12.804
33799W        W 6059  14.810  26.430   0.329
33800W        W 6060  26.156  30.886  14.055
33801W        W 6061  39.808  19.669  13.997
33802W        W 6062  25.222  38.795  12.487
33803W        W 6063  27.912  13.596   2.372
33804W        W 6064  41.406   3.856   0.981
33805W        W 6065  35.572  32.077  11.692
33806W        W 6066  32.147   8.752  12.911
33807W        W 6067  10.855  34.118  14.440
33808W        W 6068  34.623  20.488  11.070
33809W        W 6069  43.801  37.226  10.897
33810W        W 6070  14.873  25.494   4.384
33811W        W 6071  39.775   5.093   4.203
33812W        W 6072  41.473   8.636  11.557
33813W        W 6073  27.778  21.241  14.919
33814W        W 6074  11.598  43.116  13.347
33815W        W 6075  25.522  16.293   0.941
33816W        W 6076   1.830  39.672  12.873
33817W        W 6077  25.524  27.729  11.711
33818W        W 6078  41.821  14.219  12.089
33819W        W 6079  30.654  40.309  11.056
33820W        W 6080  25.027  38.164   4.503
33821W        W 6081   8.117  42.486  13.391
33822W        W 6082  40.786  32.528  13.130
33823W        W 6083  15.597  20.535   4.062
33824W        W 6084  44.510  25.036   4.538
33825W        W 6085  32.408  17.662  13.927
33826W        W 6086  21.529  36.864   1.004
33827W        W 6087  15.880   7.635  11.093
33828W        W 6088  25.473  42.188  13.824
33829W        W 6089  39.697  14.686  11.859
33830W        W 6090   4.275   1.293  13.517
33831W        W 6091  38.944  20.848  11.162
33832W        W 6092   5.157  17.378  10.133
33833W        W 6093  12.283   0.844  11.864
33834W        W 6094  25.644  25.648  13.948
33835W        W 6095  20.213   3.417   5.108
33836W        W 6096   4.390  14.354  13.053
33837W        W 6097  15.880  23.323   0.419
33838W        W 6098   8.453  38.264   2.839
33839W        W 6099  29.629   0.811  10.208
33840W        W 6100  28.531   3.389  13.480
33841W        W 6101   9.699   5.779   2.363
33842W        W 6102   6.419  28.089   1.102
33843W        W 6103  30.579  17.156   2.642
33844W        W 6104   6.705  25.607   3.722
33845W        W 6105  44.331  11.627  11.952
33846W        W 6106  38.566   6.880   4.716
33847W        W 6107  15.781  15.894   0.114
33848W        W 6108   7.393  39.299  14.799
33849W        W 6109  18.688  20.494   0.776
33850W        W 6110  37.216  43.482   0.539
33851W        W 6111  41.284  33.322   4.620
33852W        W 6112  22.176  34.834   3.732
33853W        W 6113  16.990  28.192   3.563
33854W        W 6114  28.387  19.667   0.419
33855W        W 6115   1.190  18.162  14.873
33856W        W 6116   9.958   5.198  11.121
33857W        W 6117  36.998  36.568  11.389
33858W        W 6118  29.616  26.808  11.629
33859W        W 6119  27.947  13.808  14.812
33860W        W 6120  22.812  17.643  11.454
33861W        W 6121  43.465   9.639   1.762
33862W        W 6122  22.399  10.619  12.781
33863W        W 6123  19.328  37.533  11.688
33864W        W 6124  28.766  32.014   3.695
33865W        W 6125  27.875  33.594   5.137
33866W        W 6126  18.287  20.785  12.551
33867W        W 6127   8.293  17.200   0.084
33868W        W 6128  36.349  13.374   2.795
33869W        W 6129   7.835  37.571   0.535
33870W        W 6130  23.236   9.323   3.584
33871W        W 6131   3.449  14.546   4.639
33872W        W 6132  39.209  19.786   2.712
33873W        W 6133  44.071   4.680   4.569
33874W        W 6134   7.244  38.828  12.903
33875W        W 6135  18.994  14.687  13.453
33876W        W 6136  28.739  26.181  14.317
33877W        W 6137  25.525  34.871  10.655
33878W        W 6138  33.851  15.540   0.779
33879W        W 6139  37.977  21.927  13.917
33880W        W 6140  35.054  20.785   4.170
33881W        W 6141  37.968  21.926  11.946
33882W        W 6142  31.451  27.707   1.306
33883W        W 6143   0.301  17.715  10.546
33884W        W 6144  36.891  25.648   0.799
33885W        W 6145  37.725   9.710  14.263
33886W        W 6146  18.221  36.587   2.802
33887W        W 6147  33.908  23.248   2.326
33888W        W 6148   1.774   1.635  14.864
33889W        W 6149  40.612   3.465  11.634
33890W        W 6150  15.505  36.459  14.318
33891W        W 6151  35.259  27.711   2.443
33892W        W 6152  23.452  12.809  13.581
33893W        W 6153  39.996  24.874   2.902
33894W        W 6154  31.715   1.442   1.323
33895W        W 6155   9.930  22.551  14.783
33896W        W 6156   5.265  33.839   0.601
33897W        W 6157  26.520  24.963  12.051
33898W        W 6158  42.920  35.828   3.832
33899W        W 6159   3.216  36.134   2.898
33900W        W 6160  42.454  30.374  10.481
33901W        W 6161  10.482   4.999   0.332
33902W        W 6162   2.721   6.612   3.068
33903W        W 6163  10.585  42.732   1.508
33904W        W 6164  41.932  43.952   2.384
33905W        W 6165  12.073  29.925  11.455
33906W        W 6166   7.449   8.871  12.828
33907W        W 6167  41.899  18.660  14.004
33908W        W 6168   4.299  27.577   1.284
33909W        W 6169  29.645  12.008  11.449
33910W        W 6170  12.619  17.062   0.894
33911W        W 6171   8.044  21.038  11.447
33912W        W 6172  39.811  40.377  13.830
33913W        W 6173  43.195  29.317   1.564
33914W        W 6174  14.917   1.393   1.480
33915W        W 6175  20.763   3.382   2.723
33916W        W 6176  39.794  33.898  13.802
33917W        W 6177  11.593   3.118   1.221
33918W        W 6178  37.367   4.360   2.590
33919W        W 6179  27.608   7.043  12.483
33920W        W 6180   9.579  12.720   4.490
33921W        W 6181  37.623  37.918   2.614
33922W        W 6182  19.061  29.846  12.466
33923W        W 6183  29.256  28.957   1.341
33924W        W 6184  24.345  42.213   4.141
33925W        W 6185  19.548  19.581   3.530
33926W        W 6186  10.578  43.745   2.107
33927W        W 6187  21.817  43.882   0.520
33928W        W 6188  35.963  38.901  11.589
33929W        W 6189  33.355   8.834  14.144
33930W        W 6190   7.590  15.001   1.909
33931W        W 6191  10.363  29.640   4.570
33932W        W 6192  33.392  40.432  13.797
33933W        W 6193  37.820   4.881   0.007
33934W        W 6194  10.336  26.567   1.215
33935W        W 6195  40.634  32.791  13.563
33936W        W 6196   3.260   2.001   0.878
33937W        W 6197  17.020  18.216   3.238
33938W        W 6198  30.650  14.592  11.557
33939W        W 6199  40.457   9.651  13.767
33940W        W 6200  16.255  26.668  12.184
33941W        W 6201  16.384   4.517   4.108
33942W        W 6202  23.304  11.798   3.116
33943W        W 6203  20.132  23.215  11.464
33944W        W 6204  24.467  26.500  12.377
33945W        W 6205  27.794  18.813  12.540
33946W        W 6206  18.291  37.573  14.806
33947W        W 6207  41.745  14.660   2.366
33948W        W 6208   7.125  14.845  11.538
33949W        W 6209  28.122  35.770   2.370
33950W        W 6210  12.100  28.385   2.742
33951W        W 6211   3.418  22.608  14.036
33952W        W 6212  38.852  22.875   4.526
33953W        W 6213  17.814   4.589   0.383
33954W        W 6214   5.438  35.076   1.918
33955W        W 6215  37.475  17.369  12.951
33956W        W 6216  22.083  40.941   4.185
33957W        W 6217   4.959  29.217  14.573
33958W        W 6218  33.127  33.010   4.553
33959W        W 6219  16.061  18.478  10.681
33960W        W 6220  15.777  28.264  12.884
33961W        W 6221   8.816  39.074   4.408
33962W        W 6222  36.048  22.104  13.760
33963W        W 6223   8.339  35.626  13.553
33964W        W 6224  37.308  36.141  10.220
33965W        W 6225  44.483  26.327  14.059
33966W        W 6226   4.859   4.614   4.291
33967W        W 6227  42.854  44.764   4.255
33968W        W 6228  18.716  44.619  13.416
33969W        W 6229   7.432  12.872  14.884
33970W        W 6230  11.263   6.472   2.144
33971W        W 6231  35.461  19.992  13.919
33972W        W 6232  35.476  26.232   4.182
33973W        W 6233  23.578  30.587   0.655
33974W        W 6234  28.183   6.796  10.180
33975W        W 6235  24.113  20.570  12.544
33976W        W 6236  32.588   3.416   1.253
33977W        W 6237  42.463  15.993   0.523
33978W        W 6238  25.115  10.618   0.935
33979W        W 6239  34.730  26.482  11.366
33980W        W 6240  13.613   4.974   2.255
33981W        W 6241  29.586  12.337  14.130
33982W        W 6242  20.086  41.359  11.250
33983W        W 6243  21.258  37.167   3.554
33984W        W 6244  26.483   6.339  13.765
33985W        W 6245  30.606  12.128   1.817
33986W        W 6246  32.849  39.053  11.964
33987W        W 6247  38.047  42.488  13.719
33988W        W 6248  23.077  35.606   0.250
33989W        W 6249  44.049   8.820  11.095
33990W        W 6250  32.808   9.876   5.166
33991W        W 6251  26.608  26.063   1.264
33992W        W 6252  38.436  23.452  10.640
33993W        W 6253   9.754   1.741   4.350
33994W        W 6254  40.562  11.390  12.549
33995W        W 6255  40.356  37.048   1.032
33996W        W 6256  40.324  11.194  10.551
33997W        W 6257  41.006  15.319   1.178
33998W        W 6258   1.964  41.610  11.864
33999W        W 6259  35.403  38.827   3.667
34000W        W 6260  13.085  20.091   0.914
34001W        W 6261  19.156  39.386  12.004
34002W        W 6262   8.606  31.124  12.457
34003W        W 6263  39.961   4.371   2.907
34004W        W 6264   1.205  30.518   3.349
34005W        W 6265  17.196  30.253   0.010
34006W        W 6266  19.158  30.934  13.312
34007W        W 6267  15.793  44.469  13.117
34008W        W 6268   8.727  37.216  13.083
34009W        W 6269  23.529   4.984   1.048
34010W        W 6270   7.176   6.092   0.496
34011W        W 6271  21.943   6.067   1.913
34012W        W 6272  26.720  27.709  12.465
34013W        W 6273  26.242  26.653  13.184
34014W        W 6274  15.886  43.530  11.270
34015W        W 6275  21.414   2.971   4.559
34016W        W 6276   8.020  41.873   5.022
34017W        W 6277   2.511  37.160   4.412
34018W        W 6278  33.098  36.696   2.725
34019W        W 6279  22.961  18.285   4.908
34020W        W 6280  16.754   5.783   2.699
34021W        W 6281  13.739  35.483  11.516
34022W        W 6282  10.743  10.589  11.979
34023W        W 6283  21.026  30.073   3.140
34024W        W 6284  36.299  18.092   4.486
34025W        W 6285  35.538  11.574   3.617
34026W        W 6286   8.489  21.252   4.847
34027W        W 6287  21.579  19.243   2.148
34028W        W 6288  24.054   4.376  12.431
34029W        W 6289   8.781  34.326  13.562
34030W        W 6290  29.292   8.336   1.494
34031W        W 6291   9.708   4.643   3.306
34032W        W 6292   0.647  40.929  10.958
34033W        W 6293   2.715  18.141  13.316
34034W        W 6294  32.524  34.632  10.682
34035W        W 6295  31.029  19.180   3.080
34036W        W 6296  14.583  13.223   0.736
34037W        W 6297  15.401   5.300  13.009
34038W        W 6298   8.882  41.002  12.602
34039W        W 6299   9.615  31.031  14.346
34040W        W 6300  27.082   6.221   3.577
34041W        W 6301   6.964  16.842  12.625
34042W        W 6302  30.919  11.459  10.914
34043W        W 6303  18.790  37.460  10.395
34044W        W 6304  35.307  42.896   2.362
34045W        W 6305  16.501   5.865   1.798
34046W        W 6306  12.900  14.711   3.618
34047W        W 6307  21.127  36.435   2.872
34048W        W 6308  19.504  30.535   1.841
34049W        W 6309   7.427  22.574  13.861
34050W        W 6310  39.115  38.962  11.389
34051W        W 6311  39.906   4.373  11.350
34052W        W 6312   9.741  37.772   0.796
34053W        W 6313   7.036  36.895   2.993
34054W        W 6314   5.774  43.562  11.507
34055W        W 6315  40.560   3.437   2.346
34056W        W 6316  32.019  13.585  12.004
34057W        W 6317  39.313  32.659   1.258
34058W        W 6318  35.970  14.275   0.065
34059W        W 6319  20.691  10.928  14.535
34060W        W 6320  17.529  11.128  11.561
34061W        W 6321  24.813  33.118  12.504
34062W        W 6322  14.645   8.566  12.881
34063W        W 6323  38.858  10.416  13.860
34064W        W 6324   9.392  11.690   0.965
34065W        W 6325  11.577  25.707   0.415
34066W        W 6326  28.499   1.976  14.733
34067W        W 6327  28.131  14.164   2.975
34068W        W 6328   2.226  40.118   0.448
34069W        W 6329  12.933  42.924   5.346
34070W        W 6330  33.125  26.709  11.489
34071W        W 6331   4.508  37.373  13.982
34072W        W 6332  22.106  35.228   3.377
34073W        W 6333  29.354  44.361  11.009
34074W        W 6334   4.381  41.688   5.074
34075W        W 6335  21.710  33.880   3.465
34076W        W 6336  40.484  21.103   2.314
34077W        W 6337  32.107  31.497  10.934
34078W        W 6338  24.676  22.404  11.104
34079W        W 6339  35.626  33.929   0.340
34080W        W 6340   3.253  44.893  11.367
34081W        W 6341   7.667  36.119  10.683
34082W        W 6342   7.957  10.269  14.229
34083W        W 6343  40.100   2.748  13.400
34084W        W 6344  14.616  31.430  14.405
34085W        W 6345  20.496  44.696  14.754
34086W        W 6346  40.815  25.254   2.259
34087W        W 6347  44.811   8.158   4.606
34088W        W 6348  14.696   2.558   2.794
34089W        W 6349  22.793   9.715   3.076
34090W        W 6350   6.010  38.330   3.719
34091W        W 6351  18.809  22.990   0.673
34092W        W 6352  13.142  36.610   1.012
34093W        W 6353  41.355  18.516   4.826
34094W        W 6354  22.733   5.609   0.725
34095W        W 6355  30.925   2.692   3.823
34096W        W 6356   6.247   1.902   3.748
34097W        W 6357   7.660  24.070  12.460
34098W        W 6358  22.934  28.396   0.394
34099W        W 6359   9.479  11.226  10.101
34100W        W 6360  10.146  42.424   0.680
34101W        W 6361  13.196  24.070   3.116
34102W        W 6362  14.388  27.984   4.541
34103W        W 6363  41.993  44.916   3.732
34104W        W 6364   1.758  14.774   3.306
34105W        W 6365  11.836  21.405  13.282
34106W        W 6366  32.745  35.715   0.894
34107W        W 6367  32.772  18.039   2.834
34108W        W 6368   2.390  32.068   0.418
34109W        W 6369   2.816  31.418   0.408
34110W        W 6370  11.999  12.653   1.714
34111W        W 6371  39.586   2.766  12.118
34112W        W 6372  11.840  28.598  13.703
34113W        W 6373   6.623  41.228  12.291
34114W        W 6374  27.910   5.464   3.797
34115W        W 6375   3.004  12.053   2.903
34116W        W 6376  17.738  27.704   2.231
34117W        W 6377  16.626  20.271   4.870
34118W        W 6378  24.451  19.225  14.924
34119W        W 6379  34.998   0.167  14.952
34120W        W 6380  40.548   9.723  10.908
34121W        W 6381  26.615   8.084  10.881
34122W        W 6382  16.256  37.201   4.366
34123W        W 6383  17.834   2.209  13.800
34124W        W 6384  11.487  37.522   3.611
34125W        W 6385   9.413  13.465  14.236
34126W        W 6386  21.443  25.863  10.573
34127W        W 6387   6.723  31.501   0.236
34128W        W 6388  15.371  43.769   3.610
34129W        W 6389   4.045  15.853   3.731
34130W        W 6390  13.100  44.064  12.141
34131W        W 6391  37.686  39.425   1.697
34132W        W 6392  36.824  19.566  10.677
34133W        W 6393  15.835  36.436  12.149
34134W        W 6394  29.869  13.873   0.332
34135W        W 6395  11.623   4.815  10.712
34136W        W 6396  35.066  10.711   1.793
34137W        W 6397   3.188  43.787   4.063
34138W        W 6398  40.974  42.775   0.472
34139W        W 6399   9.220   9.132  11.530
34140W        W 6400  29.712  30.199   1.469
34141W        W 6401  25.443  16.550   2.252
34142W        W 6402  17.088  14.634   1.065
34143W        W 6403  14.223   9.841  11.469
34144W        W 6404  10.873  30.924  14.894
34145W        W 6405  19.761   1.864  11.551
34146W        W 6406  28.449  43.004   0.764
34147W        W 6407  40.024   4.794  11.030
34148W        W 6408  17.385  16.288   2.230
34149W        W 6409   8.857   0.761   0.341
34150W        W 6410  39.996  36.096  14.538
34151W        W 6411  26.565   8.916  12.016
34152W        W 6412  34.365  11.296  12.456
34153W        W 6413  19.006  23.668   1.996
34154W        W 6414  24.472   5.675  13.847
34155W        W 6415  43.989  41.395  14.409
34156W        W 6416  12.769  38.416  12.505
34157W        W 6417  40.426   5.726  14.629
34158W        W 6418  21.649  44.484   2.732
34159W        W 6419  16.198  11.763   0.199
34160W        W 6420   2.270   9.158  12.472
34161W        W 6421  33.613  17.536  11.604
34162W        W 6422  36.934   2.866   0.750
34163W        W 6423  37.026  37.554   0.915
34164W        W 6424   1.608  16.113  12.868
34165W        W 6425  14.214  15.607  11.484
34166W        W 6426  44.410  37.764   4.840
34167W        W 6427  23.652  41.293  14.933
34168W        W 6428   4.202  34.794   1.243
34169W        W 6429  19.810  16.368  11.927
34170W        W 6430  14.035  11.165  13.514
34171W        W 6431  18.366  32.504   2.685
34172W        W 6432   7.948  41.209  14.911
34173W        W 6433   1.184  23.514   4.816
34174W        W 6434  22.046  24.308  13.684
34175W        W 6435  23.624  43.538  14.408
34176W        W 6436  39.097   3.054  14.511
34177W        W 6437  40.329  15.742   4.483
34178W        W 6438  30.534  18.001  10.800
34179W        W 6439   1.861  30.871  12.050
34180W        W 6440  14.798  25.550   2.924
34181W        W 6441  24.842  27.836  13.073
34182W        W 6442  13.315  12.854   3.669
34183W        W 6443  28.842  42.338  12.738
34184W        W 6444  23.526   7.027   4.457
34185W        W 6445  21.059  11.538   0.978
34186W        W 6446  32.550  33.382  12.840
34187W        W 6447  39.270   6.738  11.113
34188W        W 6448  36.934  36.316  10.949
34189W        W 6449   7.728  42.950   3.144
34190W        W 6450   6.784   7.284  14.477
34191W        W 6451  28.637  18.618   0.373
34192W        W 6452  43.009  21.113   0.093
34193W        W 6453  11.627  26.621  11.141
34194W        W 6454  21.227  16.729  11.991
34195W        W 6455  33.733   9.549   1.145
34196W        W 6456  12.796  12.026  12.958
34197W        W 6457  18.153   2.972   3.580
34198W        W 6458  20.822  13.195   1.864
34199W        W 6459  36.411  14.784   1.767
34200W        W 6460  34.381  40.496  14.830
34201W        W 6461   1.079  15.533   4.994
34202W        W 6462  12.126   2.021  12.232
34203W        W 6463  28.937  43.253   4.343
34204W        W 6464  15.026   5.899  11.920
34205W        W 6465   0.373   0.333   0.753
34206W        W 6466  25.123  43.736  13.533
34207W        W 6467   9.193  34.627  13.546
34208W        W 6468  34.192  10.269   3.551
34209W        W 6469  27.400  39.060   0.767
34210W        W 6470  11.824   1.410  12.492
34211W        W 6471   2.462  14.545   2.277
34212W        W 6472  30.444  18.684  13.361
34213W        W 6473  11.504  13.682   4.725
34214W        W 6474  35.809  22.829  12.015
34215W        W 6475  28.100  10.852   4.148
34216W        W 6476  22.791  19.752   3.671
34217W        W 6477  36.626   0.359   2.851
34218W        W 6478  19.830  35.933   4.526
34219W        W 6479   3.652  37.054  14.557
34220W        W 6480  44.030  30.459  14.825
34221W        W 6481   2.340  21.649   1.493
34222W        W 6482   6.253  20.826   1.802
34223W        W 6483  41.984  39.141  13.435
34224W        W 6484   6.360   1.032  13.052
34225W        W 6485  20.627  32.610  10.476
34226W        W 6486   4.696  25.140  12.501
34227W        W 6487  14.723  31.667  11.144
34228W        W 6488  29.532  24.081  13.579
34229W        W 6489   5.302  43.174  14.436
34230W        W 6490   6.651   5.180   2.670
34231W        W 6491  24.797  19.926   2.304
34232W        W 6492  35.498  41.103   0.392
34233W        W 6493  19.364  23.513   0.782
34234W        W 6494  40.434  18.010   3.629
34235W        W 6495  42.257   6.805  14.504
34236W        W 6496  25.651  18.757   3.506
34237W        W 6497  18.025  10.368  14.018
34238W        W 6498  24.519  23.950  14.313
34239W        W 6499   4.355   9.288   4.465
34240W        W 6500  32.931  23.396   3.345
34241W        W 6501  43.520  37.173   3.145
34242W        W 6502  44.872  44.258   1.785
34243W        W 6503  41.227  23.490  10.466
34244W        W 6504  27.214  35.350   1.901
34245W        W 6505  25.071  39.874   3.210
34246W        W 6506   2.881  43.823  13.514
34247W        W 6507   8.786  34.623   2.790
34248W        W 6508  28.503  17.046   2.913
34249W        W 6509  20.019  33.905   3.155
34250W        W 6510  37.985  35.305  14.524
34251W        W 6511   8.720  25.656  13.915
34252W        W 6512   8.400  40.434   2.801
34253W        W 6513  38.868  23.625   4.569
34254W        W 6514  18.191  17.052  13.399
34255W        W 6515  40.541   9.889  11.860
34256W        W 6516   1.464  17.526  11.882
34257W        W 6517  24.817  13.353  14.850
34258W        W 6518  21.040   2.382   0.968
34259W        W 6519  41.994   9.264  13.124
34260W        W 6520  27.496  17.522  13.350
34261W        W 6521  44.916   5.817  12.232
34262W        W 6522  19.680  40.398   2.023
34263W        W 6523  13.436   0.505   2.218
34264W        W 6524   9.112  15.139  10.735
34265W        W 6525  18.763  11.336  12.032
34266W        W 6526   2.003   8.599  12.586
34267W        W 6527  34.900  32.505  14.826
34268W        W 6528  30.273  37.422   3.180
34269W        W 6529   3.786   6.650  14.614
34270W        W 6530  23.256  23.129  13.476
34271W        W 6531  42.289  31.740   1.682
34272W        W 6532  34.462  30.321   4.060
34273W        W 6533   2.866  14.172  12.368
34274W        W 6534   9.258  20.065  12.995
34275W        W 6535  23.760   2.782   1.181
34276W        W 6536  37.883   2.949   3.231
34277W        W 6537   1.837  30.734  12.687
34278W        W 6538   7.804   0.029  12.470
34279W        W 6539   8.872   9.326  14.871
34280W        W 6540   7.210  41.873   0.992
34281W        W 6541   8.720  14.258  12.530
34282W        W 6542  27.075  37.772  12.854
34283W        W 6543  36.438   7.655   1.853
34284W        W 6544   7.231  41.014  11.140
34285W        W 6545   6.163  36.986  11.523
34286W        W 6546  24.284  28.086  10.891
34287W        W 6547  32.125  16.800   4.326
34288W        W 6548   2.056  17.001  11.491
34289W        W 6549   0.880  35.138   2.593
34290W        W 6550  18.264   1.380   4.617
34291W        W 6551  42.963   2.949  14.760
34292W        W 6552   2.821  31.012  12.551
34293W        W 6553   7.306  11.885   3.224
34294W        W 6554   4.854  28.028   2.772
34295W        W 6555  44.987  32.390  11.529
34296W        W 6556  31.154   1.524  11.996
34297W        W 6557  29.694  11.070  11.148
34298W        W 6558  40.707   2.378   2.249
34299W        W 6559   8.423  41.437   4.404
34300W        W 6560   9.225  30.257  14.833
34301W        W 6561  26.975  11.118  10.826
34302W        W 6562  23.297  32.961  13.977
34303W        W 6563   1.598  35.801   0.407
34304W        W 6564  16.663  27.128   3.834
34305W        W 6565  15.804   2.368   1.332
34306W        W 6566  37.590  20.168   1.769
34307W        W 6567  25.019  38.013  12.848
34308W        W 6568  40.191  33.380   3.364
34309W        W 6569  37.519   9.432  12.161
34310W        W 6570  16.144  17.525  12.094
34311W        W 6571  23.083  27.219  12.283
34312W        W 6572   4.875  16.661   0.758
34313W        W 6573  13.847  41.018  11.185
34314W        W 6574  30.165  32.967  14.823
34315W        W 6575  44.248  28.389  13.326
34316W        W 6576   0.509  20.691   1.865
34317W        W 6577  36.525   0.874   3.290
34318W        W 6578  36.423  18.110  11.086
34319W        W 6579  32.443  29.628  13.851
34320W        W 6580  15.806   5.912   0.666
34321W        W 6581  31.548   5.892  11.072
34322W        W 6582  18.675  26.490   3.244
34323W        W 6583  37.845   4.638  12.147
34324W        W 6584   9.258  29.535   4.396
34325W        W 6585   4.051  29.027  11.540
34326W        W 6586  17.561  41.872  10.800
34327W        W 6587  22.736   0.731   2.383
34328W        W 6588  44.354   6.904  14.865
34329W        W 6589  34.436  11.113  13.323
34330W        W 6590  30.917   8.775  14.787
34331W        W 6591  24.540  16.386   0.156
34332W        W 6592  16.647  14.569   0.751
34333W        W 6593  32.095   8.958   2.220
34334W        W 6594  22.899  14.382  12.052
34335W        W 6595  36.443   5.477  13.917
34336W        W 6596  37.899  11.228   1.476
34337W        W 6597  34.597   7.677   3.276
34338W        W 6598  11.253  12.288  13.907
34339W        W 6599  41.509   9.720  13.894
34340W        W 6600  24.036  13.827  10.453
34341W        W 6601  40.596  40.242  12.530
34342W        W 6602  29.242  25.694   0.045
34343W        W 6603  33.884  33.876  13.089
34344W        W 6604   6.139   1.372   1.438
34345W        W 6605  27.157  33.782   1.740
34346W        W 6606  42.083  15.487  11.209
34347W        W 6607  17.964  36.511   0.875
34348W        W 6608  13.750  42.325   2.375
34349W        W 6609   8.386  38.990   4.129
34350W        W 6610  40.863  36.405   0.382
34351W        W 6611   9.606  13.621   1.721
34352W        W 6612  37.687  15.071  12.188
34353W        W 6613  17.970  30.212   0.530
34354W        W 6614  27.705  38.651   2.211
34355W        W 6615  17.730  18.157  12.946
34356W        W 6616  29.540  41.083   4.502
34357W        W 6617   7.769  43.352   4.327
34358W        W 6618  10.060  33.373  14.710
34359W        W 6619  42.515   7.486  12.202
34360W        W 6620  38.291  28.203   1.223
34361W        W 6621  31.159  42.479   0.195
34362W        W 6622  37.633  19.520  11.485
34363W        W 6623  27.567  13.629  10.982
34364W        W 6624  35.492  29.786   1.462
34365W        W 6625  30.065   5.887  10.661
34366W        W 6626  27.753   1.358  10.838
34367W        W 6627  40.760  22.054  12.420
34368W        W 6628  26.712  21.593   2.548
34369W        W 6629  12.708   2.502  13.334
34370W        W 6630   2.851  23.683   0.917
34371W        W 6631  15.558  25.139   4.988
34372W        W 6632  17.208   9.658   5.021
34373W        W 6633  21.891  18.566  11.991
34374W        W 6634  21.542  29.999   2.990
34375W        W 6635  42.216  35.325   3.712
34376W        W 6636   6.710   1.324  10.862
34377W        W 6637   7.505  31.902  10.987
34378W        W 6638  43.269   7.254   4.598
34379W        W 6639  13.718  11.762   4.655
34380W        W 6640  14.835   4.744   3.266
34381W        W 6641  39.724   0.882  11.673
34382W        W 6642  25.916  35.017   4.743
34383W        W 6643  34.941   2.884  14.462
34384W        W 6644   6.976   9.785  12.731
34385W        W 6645  19.267   7.078   1.319
34386W        W 6646  27.977  13.572   3.407
34387W        W 6647   1.746  33.922   1.206
34388W        W 6648  31.404  35.673  11.165
34389W        W 6649  20.707   5.479  13.545
34390W        W 6650   3.112  40.644   3.223
34391W        W 6651   0.906  14.564  11.426
34392W        W 6652  29.836  25.694  13.791
34393W        W 6653  44.418  24.286  10.915
34394W        W 6654  29.606   5.597  13.402
34395W        W 6655   1.745  39.169  12.818
34396W        W 6656   9.265   1.005  12.957
34397W        W 6657  15.860  40.555   2.423
34398W        W 6658  26.184  33.049  11.621
34399W        W 6659  39.797   2.752  13.844
34400W        W 6660  14.566  40.578   3.126
34401W        W 6661  35.093  37.518  10.237
34402W        W 6662  36.456  29.264  14.460
34403W        W 6663  18.563   5.250   3.761
34404W        W 6664  25.101  11.652   3.607
34405W        W 6665  20.057  13.800   0.516
34406W        W 6666   0.435   4.537   1.371
34407W        W 6667  10.356  17.243  13.073
34408W        W 6668   1.419   7.938  11.071
34409W        W 6669   2.297  16.888  14.337
34410W        W 6670   6.886  30.506   0.832
34411W        W 6671  14.343  34.586  12.380
34412W        W 6672  15.577  12.828   1.296
34413W        W 6673  13.692   2.186  11.522
34414W        W 6674  30.964  41.300  14.567
34415W        W 6675  31.025  42.934  10.338
34416W        W 6676  19.886  13.378   3.400
34417W        W 6677  15.057   5.509   3.834
34418W        W 6678  37.554  12.104  14.087
34419W        W 6679   0.955   8.267   2.412
34420W        W 6680   2.691  35.450  14.907
34421W        W 6681  37.594   1.512   3.906
34422W        W 6682   3.256  34.109   2.778
34423W        W 6683  23.464   7.886   0.672
34424W        W 6684  25.190  33.845   2.902
34425W        W 6685   8.225   5.936  12.237
34426W        W 6686  10.248  22.633  10.939
34427W        W 6687  21.560  37.950   2.014
34428W        W 6688  26.920  28.630   4.823
34429W        W 6689  38.107  13.783   3.213
34430W        W 6690   2.857   5.330   3.931
34431W        W 6691  38.661  18.130  14.184
34432W        W 6692  20.127  38.276  10.711
34433W        W 6693  20.664  18.493   4.725
34434W        W 6694  18.799  10.930  11.696
34435W        W 6695  22.388   1.969  13.575
34436W        W 6696  17.897   9.665   0.553
34437W        W 6697  31.847  14.149   0.788
34438W        W 6698   4.238  25.401  14.541
34439W        W 6699  24.550  25.571   2.252
34440W        W 6700  13.242  36.272   0.315
34441W        W 6701  27.010  36.545  12.467
34442W        W 6702   9.248  18.008   1.951
34443W        W 6703  12.214   2.937  10.636
34444W        W 6704  43.126  17.032  13.608
34445W        W 6705  16.084  34.020  12.043
34446W        W 6706   1.462  27.644   1.004
34447W        W 6707  42.258  32.699   3.305
34448W        W 6708   0.299   7.400   4.747
34449W        W 6709  31.033  18.788  11.017
34450W        W 6710  20.101  22.122   4.509
34451W        W 6711   3.504  18.404   3.864
34452W        W 6712  19.221  18.428   4.637
34453W        W 6713   2.725  24.476   3.139
34454W        W 6714  42.578  13.374   0.932
34455W        W 6715  20.281  32.567  11.736
34456W        W 6716  42.751  18.606   1.788
34457W        W 6717   3.888  40.392   0.906
34458W        W 6718   9.943  23.974  14.931
34459W        W 6719  30.423  25.988   2.870
34460W        W 6720   8.368  31.229   1.293
34461W        W 6721  10.917   5.139  12.448
34462W        W 6722  11.233   3.991  14.950
34463W        W 6723  42.980   4.229  14.652
34464W        W 6724   2.370  41.505  14.696
34465W        W 6725  26.025   3.668   4.136
34466W        W 6726  17.723  18.009   3.671
34467W        W 6727  26.426  15.691  14.550
34468W        W 6728  23.770  37.720   1.039
34469W        W 6729  42.954  17.115   1.985
34470W        W 6730  35.132  30.189   4.506
34471W        W 6731   1.891  32.629   1.001
34472W        W 6732  15.352  27.578   4.294
34473W        W 6733  25.800   1.968  10.725
34474W        W 6734  29.425  19.568   0.437
34475W        W 6735  33.534  13.435   4.113
34476W        W 6736  44.713  13.087   3.603
34477W        W 6737  32.108  16.221  13.946
34478W        W 6738  19.241  36.668  13.581
34479W        W 6739   5.933  34.066  13.424
34480W        W 6740  41.019  20.521  11.584
34481W        W 6741  24.540  35.160  10.752
34482W        W 6742   5.307  35.937  10.716
34483W        W 6743   6.667   8.203   4.418
34484W        W 6744  42.197  29.145   1.778
34485W        W 6745  42.029  11.008  11.723
34486W        W 6746   1.685  33.633  12.973
34487W        W 6747   8.823  33.917  13.261
34488W        W 6748  39.391  44.830   0.396
34489W        W 6749  25.045  18.144   1.901
34490W        W 6750  41.442  15.990  14.668
34491W        W 6751  12.141   7.885   2.347
34492W        W 6752   7.727  31.726   3.476
34493W        W 6753  13.342  22.749   4.118
34494W        W 6754   1.368  12.810  11.725
34495W        W 6755  33.336  36.331   4.475
34496W        W 6756  25.800   8.382  11.072
34497W        W 6757  24.196  39.096   3.329
34498W        W 6758   7.719  15.330   3.521
34499W        W 6759  26.271  28.398  14.840
34500W        W 6760  12.245  15.530  14.316
34501W        W 6761  23.018  16.788   4.664
34502W        W 6762  22.967  10.371   4.508
34503W        W 6763  24.540  41.166  10.670
34504W        W 6764  37.959  17.956   1.971
34505W        W 6765  39.948  30.954   0.039
34506W        W 6766  16.857  37.784  11.045
34507W        W 6767   0.730  43.996   1.800
34508W        W 6768   8.378   9.577   2.599
34509W        W 6769  19.934  17.628   1.726
34510W        W 6770   6.485  15.678   2.112
34511W        W 6771   4.854  35.414   5.009
34512W        W 6772  42.725  21.494  13.821
34513W        W 6773  15.145   1.580  13.212
34514W        W 6774  41.922  40.767   0.278
34515W        W 6775   8.607   7.351   0.320
34516W        W 6776  28.016  27.892  11.621
34517W        W 6777  44.767  14.258   1.377
34518W        W 6778   1.496  44.755  11.216
34519W        W 6779   8.181  34.815  10.877
34520W        W 6780  13.533   8.723  13.867
34521W        W 6781  19.743   5.436   9.919
34522W        W 6782  26.999  41.048  14.495
34523W        W 6783   6.274  22.789   1.667
34524W        W 6784   8.380  25.031   4.089
34525W        W 6785  33.959  34.146  11.139
34526W        W 6786  14.594  26.641  10.651
34527W        W 6787   1.730  39.123   3.747
34528W        W 6788  28.492  26.168  14.777
34529W        W 6789  18.122  44.294   0.096
34530W        W 6790  27.464  40.259  12.295
34531W        W 6791  21.786  44.995   4.001
34532W        W 6792   5.510   9.323  11.691
34533W        W 6793  15.209  12.615  11.515
34534W        W 6794   1.877  16.519   3.924
34535W        W 6795   0.668  44.962  14.477
34536W        W 6796   1.425  33.280   3.819
34537W        W 6797  44.324  40.543  12.826
34538W        W 6798  39.108  15.741   4.066
34539W        W 6799   3.874  30.468   4.098
34540W        W 6800  22.077  30.549  13.582
34541W        W 6801  10.827   8.920  14.835
34542W        W 6802   5.607  13.803  12.605
34543W        W 6803  14.735  23.546   1.976
34544W        W 6804  42.644  41.432  12.591
34545W        W 6805   5.964   0.909   1.305
34546W        W 6806  22.540   4.763  14.320
34547W        W 6807  38.353   5.947  11.374
34548W        W 6808  43.210  41.409   0.705
34549W        W 6809  32.373  40.773   0.598
34550W        W 6810  20.317   9.409   4.283
34551W        W 6811  32.890   4.943  10.713
34552W        W 6812  19.862   3.177   2.234
34553W        W 6813   3.627  26.719   3.966
34554W        W 6814  27.001  25.777  13.902
34555W        W 6815  10.137  14.296  13.110
34556W        W 6816   7.667  38.368  11.276
34557W        W 6817   7.929  19.557   4.537
34558W        W 6818  19.526  22.258  10.862
34559W        W 6819   6.444  44.426   2.779
34560W        W 6820  34.915  11.462   0.751
34561W        W 6821  27.522  10.235  10.648
34562W        W 6822  27.739  43.857  12.491
34563W        W 6823  44.511   4.214   0.826
34564W        W 6824  38.141   9.815   2.753
34565W        W 6825  17.218  21.825   0.802
34566W        W 6826  40.485  17.140   0.253
34567W        W 6827  32.666  32.547   1.774
34568W        W 6828  26.560  20.841  12.547
34569W        W 6829  21.240  10.226   2.532
34570W        W 6830  14.789   0.860  11.627
34571W        W 6831  21.690   7.582  12.427
34572W        W 6832  18.863  16.171   2.595
34573W        W 6833  21.017   8.397  11.511
34574W        W 6834   4.610  12.402   3.689
34575W        W 6835  24.781  19.063  14.550
34576W        W 6836  20.073   2.643  13.484
34577W        W 6837  40.974   8.492  14.149
34578W        W 6838  37.440   1.970   1.944
34579W        W 6839  44.420  33.713   1.461
34580W        W 6840  43.122   1.610   0.187
34581W        W 6841  16.334  22.241   2.446
34582W        W 6842  44.055  25.546   1.203
34583W        W 6843  28.309  36.885   1.926
34584W        W 6844  39.536  19.010  14.790
34585W        W 6845  16.814   7.605  13.062
34586W        W 6846  23.795  36.060  11.019
34587W        W 6847  43.922  23.158   1.827
34588W        W 6848  42.335   4.108   0.866
34589W        W 6849   0.894  30.964   1.790
34590W        W 6850  20.806  34.718  11.934
34591W        W 6851   5.225  23.314  11.602
34592W        W 6852  19.596   4.136   2.196
34593W        W 6853  23.745  44.006   0.921
34594W        W 6854  27.987  36.253  12.456
34595W        W 6855  22.489  18.516   3.250
34596W        W 6856  41.095   0.555   2.078
34597W        W 6857  24.906   6.263  10.677
34598W        W 6858  33.589  30.471   2.956
34599W        W 6859   8.016   6.103   2.206
34600W        W 6860  40.896  40.179   4.352
34601W        W 6861  21.974   8.890  11.671
34602W        W 6862  39.074  32.032  13.817
34603W        W 6863  10.315   7.679   4.004
34604W        W 6864  27.178  25.007  11.577
34605W        W 6865  29.456  19.022   0.433
34606W        W 6866  34.515  32.418   4.096
34607W        W 6867  23.128   5.443   2.251
34608W        W 6868   3.040  21.589  11.087
34609W        W 6869  39.925  16.268  13.915
34610W        W 6870   0.204  17.569  11.535
34611W        W 6871   3.451  33.540  13.381
34612W        W 6872   2.385  29.532   0.732
34613W        W 6873  29.321  26.974  12.016
34614W        W 6874  17.645  37.514   2.191
34615W        W 6875   6.297   4.377   0.266
34616W        W 6876  35.941  26.649  14.973
34617W        W 6877   4.981   1.881   2.206
34618W        W 6878  29.816  34.574   0.772
34619W        W 6879  22.253  21.721   4.268
34620W        W 6880  21.243   2.365   3.093
34621W        W 6881   1.667  24.065  14.908
34622W        W 6882  14.248  24.681   1.216
34623W        W 6883  12.415  16.518  14.617
34624W        W 6884   4.930  43.781  11.206
34625W        W 6885   4.647  41.774  11.126
34626W        W 6886  36.590  19.128  12.471
34627W        W 6887  10.697  27.997  13.396
34628W        W 6888   8.291  37.022  12.435
34629W        W 6889  14.364   3.967   0.348
34630W        W 6890   5.854  23.598  10.822
34631W        W 6891  11.458  14.706  11.910
34632W        W 6892   5.454   4.916  12.568
34633W        W 6893   7.212  25.024   4.207
34634W        W 6894  18.132   9.708   1.032
34635W        W 6895  26.010   3.247  14.096
34636W        W 6896  14.036  37.907  11.860
34637W        W 6897   5.170  40.089  13.171
34638W        W 6898  15.627  12.263   4.476
34639W        W 6899   2.773   2.937   0.303
34640W        W 6900  39.973  28.933  13.089
34641W        W 6901  30.661  30.580  13.522
34642W        W 6902   7.361  32.576   2.374
34643W        W 6903  11.777   7.452  10.643
34644W        W 6904  16.818   8.103   1.733
34645W        W 6905  40.846   6.215   2.433
34646W        W 6906  33.297   5.036  12.542
34647W        W 6907  30.675  34.199   1.084
34648W        W 6908  27.863  28.206   1.256
34649W        W 6909  14.765  41.353  12.071
34650W        W 6910  16.791  31.042  12.454
34651W        W 6911  43.180  29.076   0.838
34652W        W 6912  20.581  25.970  10.664
34653W        W 6913  32.420  17.093  13.152
34654W        W 6914  24.565  33.179   3.117
34655W        W 6915  29.778  33.145   5.094
34656W        W 6916  44.596  42.462   1.035
34657W        W 6917  19.804  21.719  11.132
34658W        W 6918  15.594   2.251  10.705
34659W        W 6919  10.529  24.134   5.078
34660W        W 6920  26.121  42.254   9.980
34661W        W 6921   8.264  41.480   3.455
34662W        W 6922  28.661  32.911  10.349
34663W        W 6923  32.599  13.064  10.339
34664W        W 6924  38.657   7.962  11.278
34665W        W 6925  27.148  19.966  11.535
34666W        W 6926  17.769   9.817  12.985
34667W        W 6927  11.817  10.324  14.547
34668W        W 6928  15.760  19.801  14.683
34669W        W 6929   8.403  17.094  12.725
34670W        W 6930  22.642   6.316  13.951
34671W        W 6931   6.222  17.067  12.391
34672W        W 6932  29.642  15.249  11.568
34673W        W 6933  43.592  27.580  10.514
34674W        W 6934   1.703  26.504  13.884
34675W        W 6935  41.003  25.252   3.906
34676W        W 6936   9.450   0.988   2.842
34677W        W 6937  33.415  17.546  12.422
34678W        W 6938  14.258  43.781  12.548
34679W        W 6939   6.821  26.810  14.841
34680W        W 6940  23.169  28.707  11.104
34681W        W 6941   1.323  38.019  12.733
34682W        W 6942   0.054  31.848  13.405
34683W        W 6943  30.405   2.644  11.226
34684W        W 6944  21.526  44.612  13.133
34685W        W 6945  35.881   9.750   4.172
34686W        W 6946  13.534  13.641   0.223
34687W        W 6947  37.096  28.145   2.700
34688W        W 6948  27.045  33.295   1.660
34689W        W 6949   6.084   0.888   4.526
34690W        W 6950  34.318  42.013   4.646
34691W        W 6951   8.555  25.594  14.408
34692W        W 6952   1.135  42.185  11.205
34693W        W 6953  19.569  30.453   3.300
34694W        W 6954   2.987  21.559  12.579
34695W        W 6955  37.379  11.915  12.011
34696W        W 6956  22.402  37.927   2.600
34697W        W 6957   5.928   0.244   4.188
34698W        W 6958  10.620  17.410   4.483
34699W        W 6959   6.088  25.259   5.026
34700W        W 6960  36.690  23.929   4.921
34701W        W 6961   1.396   9.624   2.280
34702W        W 6962   2.203  25.069   2.761
34703W        W 6963  39.179  43.850   3.770
34704W        W 6964  39.762  15.557  12.001
34705W        W 6965  23.046  33.503   2.682
34706W        W 6966   6.235   4.445   2.660
34707W        W 6967  32.931   3.459  12.923
34708W        W 6968  43.466  14.316   0.471
34709W        W 6969   5.877  32.450  12.446
34710W        W 6970   0.127   8.834   2.378
34711W        W 6971  20.147  18.364  13.412
34712W        W 6972  33.585   8.674   3.989
34713W        W 6973   1.696  43.698  12.895
34714W        W 6974  13.065  41.270  14.722
34715W        W 6975  43.341  42.845  11.635
34716W        W 6976  15.517  26.901   3.607
34717W        W 6977  28.657  35.988   3.736
34718W        W 6978  25.091   1.884  12.439
34719W        W 6979  36.983  20.905   1.922
34720W        W 6980  17.133   5.158   3.590
34721W        W 6981   1.332   8.931  13.825
34722W        W 6982  29.905   3.967   0.356
34723W        W 6983   0.641  18.996  11.975
34724W        W 6984  20.138   6.882  10.689
34725W        W 6985   1.316  39.182   4.140
34726W        W 6986  39.014  33.977  12.983
34727W        W 6987   3.847  16.602  12.514
34728W        W 6988   1.672  25.426   4.595
34729W        W 6989  26.285  36.058  11.180
34730W        W 6990  16.730  35.467   1.397
34731W        W 6991  37.532  25.701  14.291
34732W        W 6992  37.890   9.170   2.280
34733W        W 6993  24.801  32.837  11.974
34734W        W 6994  19.295  13.102  11.053
34735W        W 6995  42.812  40.474   1.002
34736W        W 6996  32.027  21.143  14.089
34737W        W 6997   0.750   0.506   4.096
34738W        W 6998  15.504  23.205  12.333
34739W        W 6999  17.556   8.630  12.180
34740W        W 7000  19.259  37.118   3.369
34741W        W 7001   7.699  15.148   4.582
34742W        W 7002  41.138  32.503  10.964
34743W        W 7003  21.232   7.787  12.542
34744W        W 7004  13.649  14.516   1.699
34745W        W 7005  37.505  34.003   4.127
34746W        W 7006  44.180  34.118   1.241
34747W        W 7007  11.808  23.614  12.074
34748W        W 7008  44.772  44.038   2.773
34749W        W 7009  30.077  37.884  13.071
34750W        W 7010  15.573  44.049  13.414
34751W        W 7011   8.615  30.592  10.928
34752W        W 7012   2.128  26.230   0.046
34753W        W 7013  13.061  35.312   3.894
34754W        W 7014  37.518  14.534   2.464
34755W        W 7015  42.908  28.404  13.362
34756W        W 7016  41.795   6.234  12.980
34757W        W 7017  26.273   5.411   4.628
34758W        W 7018  34.599  20.637   0.244
34759W        W 7019  10.597  42.509   3.236
34760W        W 7020  17.625  43.350  14.523
34761W        W 7021  20.526  12.712   1.764
34762W        W 7022  29.893  17.639  10.640
34763W        W 7023  41.527  29.618  14.312
34764W        W 7024  34.152  36.438   3.281
34765W        W 7025  38.768  32.039  11.076
34766W        W 7026   2.507  18.608  13.349
34767W        W 7027   0.974  23.971  12.107
34768W        W 7028  11.296  31.976   1.058
34769W        W 7029   5.970  29.444  14.868
34770W        W 7030   1.710  29.603  10.635
34771W        W 7031  31.186  12.801   3.995
34772W        W 7032  28.022   4.012  10.290
34773W        W 7033  27.544  44.486  11.495
34774W        W 7034   5.942  10.857  10.606
34775W        W 7035  44.327  17.056   2.837
34776W        W 7036  22.472  21.156  11.549
34777W        W 7037   2.520  15.976  10.075
34778W        W 7038   6.219   4.177  12.140
34779W        W 7039  33.686  36.266   2.123
34780W        W 7040  28.250  34.613   1.853
34781W        W 7041   3.798  14.566   2.854
34782W        W 7042  28.940   4.093  13.777
34783W        W 7043  23.937  23.738   4.628
34784W        W 7044   4.910  14.784   4.585
34785W        W 7045  44.934  35.331  13.871
34786W        W 7046   0.528   1.118  10.671
34787W        W 7047  21.173  26.518  13.360
34788W        W 7048  13.687   8.786   1.338
34789W        W 7049  24.767  17.538  14.526
34790W        W 7050   2.572   0.844  10.788
34791W        W 7051   9.920   8.782  11.064
34792W        W 7052  43.889  23.587  12.320
34793W        W 7053  42.579  44.274   1.758
34794W        W 7054   9.322  35.598  13.385
34795W        W 7055  18.820  15.206   4.233
34796W        W 7056  37.347  31.720   4.845
34797W        W 7057   3.177  11.222  10.648
34798W        W 7058  19.011  32.813  11.656
34799W        W 7059  35.044  35.375   3.301
34800W        W 7060  25.164   1.235  14.224
34801W        W 7061  43.618  40.994   0.051
34802W        W 7062  30.147  15.184   0.907
34803W        W 7063  25.093  10.543   1.959
34804W        W 7064  33.110  38.234   1.407
34805W        W 7065  32.268  26.128   0.743
34806W        W 7066  20.663  44.786   4.845
34807W        W 7067   6.719  30.902  14.254
34808W        W 7068   8.914   3.344   3.100
34809W        W 7069   0.923  32.926  12.913
34810W        W 7070  23.183  35.923  11.632
34811W        W 7071  22.622  18.568   1.742
34812W        W 7072  10.861  16.326  12.519
34813W        W 7073   6.228  23.764  12.050
34814W        W 7074  13.657  22.434  10.710
34815W        W 7075  42.906  10.536  12.581
34816W        W 7076  13.968  13.168   3.254
34817W        W 7077   2.713  37.980   3.622
34818W        W 7078  26.538  23.762   2.191
34819W        W 7079  43.384  16.433  13.966
34820W        W 7080  44.876  10.130  11.092
34821W        W 7081  14.237  13.114   2.829
34822W        W 7082   8.430  33.169   1.134
34823W        W 7083  36.018   3.747  14.365
34824W        W 7084  30.047   7.590   2.659
34825W        W 7085  12.299  10.139  14.401
34826W        W 7086  20.311  21.721   1.650
34827W        W 7087  35.973  36.130   2.957
34828W        W 7088  32.850  41.440  14.393
34829W        W 7089  16.367   8.519   4.627
34830W        W 7090  13.329   1.355  12.117
34831W        W 7091  31.006  44.731   2.878
34832W        W 7092  34.623  37.783   3.795
34833W        W 7093  12.572  35.450  10.737
34834W        W 7094  16.556  37.051   2.824
34835W        W 7095  44.501  41.437  12.892
34836W        W 7096  34.773  39.217   3.252
34837W        W 7097  16.514   5.637  13.566
34838W        W 7098  32.064  26.041  12.036
34839W        W 7099   5.190  26.510  10.644
34840W        W 7100   5.075   8.817   1.738
34841W        W 7101  37.082  22.282   0.844
34842W        W 7102  36.864  43.957   2.332
34843W        W 7103  33.107  40.042   3.926
34844W        W 7104  28.019  22.517  13.165
34845W        W 7105  40.084  23.067  13.579
34846W        W 7106  33.885  43.743   3.346
34847W        W 7107  33.144  14.367  14.014
34848W        W 7108   4.964  15.016   1.759
34849W        W 7109  39.318  25.912  13.432
34850W        W 7110  21.481  32.502  13.142
34851W        W 7111  12.098  10.101   0.443
34852W        W 7112  31.702  18.761   4.822
34853W        W 7113  23.029  17.918  14.901
34854W        W 7114  12.709   5.948   0.819
34855W        W 7115  31.366   2.005  13.553
34856W        W 7116  31.872   9.862   2.146
34857W        W 7117   0.365  36.311  13.132
34858W        W 7118  25.477  26.526  10.580
34859W        W 7119  26.645   9.640  12.453
34860W        W 7120   1.816  44.521   1.037
34861W        W 7121  25.071  33.576   3.940
34862W        W 7122  21.759  32.927  14.887
34863W        W 7123  25.429  39.143   4.371
34864W        W 7124  35.582  26.735   1.796
34865W        W 7125  12.341  17.556  10.524
34866W        W 7126  31.518   6.011   2.796
34867W        W 7127  18.747  25.499  14.813
34868W        W 7128  15.365  15.030  11.132
34869W        W 7129  18.248  22.123   1.330
34870W        W 7130  12.064  34.485  12.499
34871W        W 7131  18.055  23.651   2.875
34872W        W 7132  30.566  41.757   1.622
34873W        W 7133  17.256  21.097   1.304
34874W        W 7134  14.796   7.354  14.483
34875W        W 7135   7.651  21.813  11.036
34876W        W 7136  40.368  26.355   4.641
34877W        W 7137  33.716  19.293  13.134
34878W        W 7138  14.638  16.341   4.796
34879W        W 7139  16.349  42.730   2.393
34880W        W 7140  21.281   8.857  13.624
34881W        W 7141  38.980  21.836  11.997
34882W        W 7142  10.254   5.780  13.186
34883W        W 7143  15.567  34.378   4.122
34884W        W 7144  26.937  33.308  11.944
34885W        W 7145  18.502  34.946  12.193
34886W        W 7146  34.180  25.041  12.074
34887W        W 7147  17.811  13.099  14.364
34888W        W 7148  42.096  23.682   4.577
34889W        W 7149  31.776   6.375   0.899
34890W        W 7150  39.981  19.278  14.775
34891W        W 7151  39.445  14.745   5.001
34892W        W 7152  42.429   8.327   3.499
34893W        W 7153   7.786  24.039   4.387
34894W        W 7154  18.752  38.327  14.879
34895W        W 7155  43.294  38.296   0.816
34896W        W 7156  24.389  14.800   2.266
34897W        W 7157   9.599  19.700  10.790
34898W        W 7158  44.215  44.364  13.155
34899W        W 7159   4.831  26.671   1.389
34900W        W 7160  30.349  31.626  14.769
34901W        W 7161   3.688   7.190   0.125
34902W        W 7162  33.574  43.520  12.449
34903W        W 7163  17.277  20.321   0.881
34904W        W 7164   8.069   2.748  13.342
34905W        W 7165  14.352  37.871  10.408
34906W        W 7166  26.861  33.389  13.355
34907W        W 7167  10.379  38.885   4.095
34908W        W 7168   7.026  25.529  11.051
34909W        W 7169  17.667  11.456   3.723
34910W        W 7170  44.559  22.154   0.345
34911W        W 7171  23.856  43.134   1.861
34912W        W 7172  21.232  41.739   1.811
34913W        W 7173  43.589  17.062   0.230
34914W        W 7174  11.153  11.262  12.950
34915W        W 7175  36.361   1.494   3.563
34916W        W 7176  23.111  44.567   1.165
34917W        W 7177  24.191  28.318  14.363
34918W        W 7178   9.158  26.292  14.790
34919W        W 7179  18.201  39.777  10.650
34920W        W 7180  29.522  39.477  11.379
34921W        W 7181  41.968  28.449   4.921
34922W        W 7182  37.033  19.664   1.411
34923W        W 7183  12.151  17.172   4.590
34924W        W 7184   0.695  12.924   2.208
34925W        W 7185  22.963  22.762   1.270
34926W        W 7186   8.199  38.990  13.113
34927W        W 7187  21.557   4.498  13.947
34928W        W 7188  22.998  39.229  11.092
34929W        W 7189   0.368   6.672   0.476
34930W        W 7190  32.133   4.291  11.641
34931W        W 7191  28.493  37.307  10.431
34932W        W 7192  21.507  41.985   1.435
34933W        W 7193   1.449  24.299   0.342
34934W        W 7194  37.951  26.225   3.331
34935W        W 7195   6.906  29.460  12.496
34936W        W 7196  12.631  11.672   3.748
34937W        W 7197  10.105  31.898  13.275
34938W        W 7198   2.434  36.596  13.887
34939W        W 7199  42.261  21.048  10.029
34940W        W 7200  24.731   4.756  14.956
34941W        W 7201  37.304  16.534   0.731
34942W        W 7202  33.970  42.720  11.590
34943W        W 7203  40.125  23.041   1.842
34944W        W 7204  18.749  17.747  10.964
34945W        W 7205  35.034   3.202   0.283
34946W        W 7206  18.629  39.902   4.849
34947W        W 7207  44.790  22.038   4.666
34948W        W 7208  33.378  25.387   0.484
34949W        W 7209  13.866  37.445  12.476
34950W        W 7210  27.659   6.728  13.944
34951W        W 7211  12.883  10.679  14.081
34952W        W 7212   2.659  20.626  13.141
34953W        W 7213  44.947  43.088   0.977
34954W        W 7214   1.684  44.805  10.678
34955W        W 7215  31.547  10.414  12.361
34956W        W 7216  29.209  40.793  13.800
34957W        W 7217  10.581  33.058   2.888
34958W        W 7218  39.595   1.788  10.675
34959W        W 7219  19.154  44.913  11.656
34960W        W 7220  43.987   4.894  14.323
34961W        W 7221  31.058   9.879  11.931
34962W        W 7222   6.414   9.647   3.718
34963W        W 7223  26.947   7.472  14.302
34964W        W 7224  10.488  37.599   4.223
34965W        W 7225  10.411  14.108  14.960
34966W        W 7226  27.066  18.663  12.046
34967W        W 7227  15.750  32.361   1.691
34968W        W 7228   5.623  25.611  11.251
34969W        W 7229  43.233  15.707   1.180
34970W        W 7230  28.869  25.579   1.018
34971W        W 7231  16.567  16.987  14.269
34972W        W 7232  20.173  12.942  10.150
34973W        W 7233  43.375  31.476   4.021
34974W        W 7234  12.725  26.642  12.521
34975W        W 7235  14.123   1.521   4.219
34976W        W 7236   3.705  37.049   1.511
34977W        W 7237  30.707  38.367   1.729
34978W        W 7238  11.579  41.395  14.831
34979W        W 7239  30.153  14.412  12.555
34980W        W 7240   3.495  17.588  10.679
34981W        W 7241  23.206   1.995   0.762
34982W        W 7242  24.192   5.886  11.076
34983W        W 7243  40.366  27.212  14.325
34984W        W 7244   3.024  28.989   0.426
34985W        W 7245  44.443   6.845   2.171
34986W        W 7246  37.527  38.870  14.023
34987W        W 7247  44.675   1.244  12.650
34988W        W 7248  40.511  20.631   1.263
34989W        W 7249   8.825  35.722  10.313
34990W        W 7250   0.768  30.021   1.647
34991W        W 7251  31.622  26.118  11.034
34992W        W 7252   8.116   0.989   0.495
34993W        W 7253  39.966   3.733   1.387
34994W        W 7254  34.267  29.667  12.335
34995W        W 7255  10.190  38.729   2.793
34996W        W 7256   3.729  31.581   3.701
34997W        W 7257  33.529  29.331   3.151
34998W        W 7258  18.710   7.756  11.060
34999W        W 7259  12.386  10.338  12.143
35000W        W 7260  42.232  36.414   0.456
35001W        W 7261  36.671   0.439  13.443
35002W        W 7262  30.266  35.078   2.597
35003W        W 7263  43.018  26.169  11.692
35004W        W 7264   4.644  36.359   2.782
35005W        W 7265  12.527  10.364   0.318
35006W        W 7266  17.634  24.525  10.406
35007W        W 7267  44.378   8.367  12.890
35008W        W 7268  13.614  25.047   2.756
35009W        W 7269  19.832  40.358  13.527
35010W        W 7270  17.516  33.066  10.811
35011W        W 7271   7.345  23.553  13.338
35012W        W 7272  31.380  26.563  10.930
35013W        W 7273  12.115  39.036  14.330
35014W        W 7274  26.150  34.148  12.402
35015W        W 7275  43.923  26.900   1.770
35016W        W 7276  22.734  28.085   0.789
35017W        W 7277  38.951  34.011   1.513
35018W        W 7278  12.870  32.768  11.277
35019W        W 7279  27.528  12.725  12.713
35020W        W 7280  31.596  21.103  13.771
35021W        W 7281  18.824   0.470  11.185
35022W        W 7282  35.041  17.548  12.135
35023W        W 7283  40.341   5.224   3.804
35024W        W 7284  24.009  26.714  12.524
35025W        W 7285  25.686  21.778  13.607
35026W        W 7286  26.583  23.421  12.155
35027W        W 7287  22.908  28.504   3.287
35028W        W 7288  12.400  12.701  10.897
35029W        W 7289   0.799  19.794  12.583
35030W        W 7290  41.737  31.528   2.311
35031W        W 7291  15.706  11.707  14.287
35032W        W 7292   8.807  27.440  11.105
35033W        W 7293   7.440  37.423   1.164
35034W        W 7294  30.633   2.325   0.856
35035W        W 7295  18.680  39.925   4.343
35036W        W 7296  32.881  35.792  12.935
35037W        W 7297   4.252  40.527  12.495
35038W        W 7298   4.037   3.291  12.298
35039W        W 7299  33.118  16.699  13.370
35040W        W 7300  32.713  36.238   0.976
35041W        W 7301   4.133   7.747   2.426
35042W        W 7302  44.243  37.807  12.058
35043W        W 7303  16.674  19.039   2.781
35044W        W 7304  17.549  32.459   0.056
35045W        W 7305  16.496  35.038  13.907
35046W        W 7306  25.952  21.054  13.885
35047W        W 7307   8.339  24.519   4.088
35048W        W 7308  10.417  24.515   3.563
35049W        W 7309   1.559  18.587  12.782
35050W        W 7310  22.332  16.542   4.209
35051W        W 7311  26.648  13.612  10.977
35052W        W 7312   2.554  42.600  13.718
35053W        W 7313  37.484   8.154   1.293
35054W        W 7314  35.148   0.862  12.891
35055W        W 7315  37.322  33.118   1.807
35056W        W 7316   6.283   7.292  10.334
35057W        W 7317  21.068  13.578   2.106
35058W        W 7318  15.266  11.935  12.523
35059W        W 7319  35.445   8.898   4.015
35060W        W 7320  24.613   9.621  12.982
35061W        W 7321  10.419  13.180  11.604
35062W        W 7322  27.206  11.581  10.720
35063W        W 7323  34.819   1.753  11.787
35064W        W 7324   1.096  23.939  14.898
35065W        W 7325  22.522  16.574  13.810
35066W        W 7326   2.848  13.828   0.384
35067W        W 7327   0.439  32.914  14.932
35068W        W 7328   9.393  39.439  12.000
35069W        W 7329  29.947  35.995   0.686
35070W        W 7330  11.606  22.590   4.554
35071W        W 7331  30.046  14.866  13.341
35072W        W 7332  29.311  40.414  10.625
35073W        W 7333   4.242  23.184   3.671
35074W        W 7334  15.797  15.915   2.602
35075W        W 7335  38.530  20.938   3.436
35076W        W 7336   6.460  21.811  12.862
35077W        W 7337  17.935  33.247  14.838
35078W        W 7338  39.234  28.511   4.399
35079W        W 7339   1.925  29.400   0.506
35080W        W 7340  16.688   0.067  12.980
35081W        W 7341  37.743  13.782   1.844
35082W        W 7342  42.279   4.352   1.345
35083W        W 7343   7.152   2.635   4.658
35084W        W 7344  18.280  29.166   1.512
35085W        W 7345  42.376   6.302   2.306
35086W        W 7346  35.391   6.658   1.752
35087W        W 7347  13.340  37.482   4.503
35088W        W 7348  15.280  15.672   3.618
35089W        W 7349  28.917  15.724   3.815
35090W        W 7350  18.197  18.465  13.591
35091W        W 7351  18.103  35.171  11.920
35092W        W 7352  33.947  23.047  13.235
35093W        W 7353  22.312  16.023  11.567
35094W        W 7354  19.247  24.268  13.136
35095W        W 7355  16.015  18.779   1.963
35096W        W 7356  23.743  28.059  13.698
35097W        W 7357   4.701  15.279  13.541
35098W        W 7358  30.914   5.497  14.021
35099W        W 7359   0.427  27.900  12.990
35100W        W 7360  31.886   5.933   0.703
35101W        W 7361   9.199  30.628  13.443
35102W        W 7362  44.503  41.376   2.683
35103W        W 7363  31.179  34.484  12.469
35104W        W 7364  10.048  15.066  13.316
35105W        W 7365  27.735  19.236  13.356
35106W        W 7366  39.877   6.758   1.909
35107W        W 7367   4.771  18.177  13.372
35108W        W 7368  15.224  26.643   2.667
35109W        W 7369  32.015   6.986   3.489
35110W        W 7370   9.497   4.869   2.890
35111W        W 7371  20.428  39.371   3.137
35112W        W 7372  13.655  13.117   0.265
35113W        W 7373  16.112  12.832   1.777
35114W        W 7374  35.135  44.013  10.745
35115W        W 7375  29.394  24.955  11.952
35116W        W 7376  18.267  23.083  11.195
35117W        W 7377   9.074  12.763   0.731
35118W        W 7378  28.654  15.171  12.527
35119W        W 7379   4.404  28.788  11.160
35120W        W 7380  27.695   3.793   0.816
35121W        W 7381  36.039  28.895   3.064
35122W        W 7382   5.990  16.661  14.066
35123W        W 7383   5.103  36.557   1.874
35124W        W 7384  17.288  44.955   0.165
35125W        W 7385   3.329  17.865  11.570
35126W        W 7386  31.167  39.025   2.370
35127W        W 7387  22.955   0.280  13.841
35128W        W 7388  11.644  31.413   0.365
35129W        W 7389  25.582  24.195  10.541
35130W        W 7390  33.501  22.188   2.294
35131W        W 7391  12.125  31.163  14.451
35132W        W 7392  34.725  20.626   2.801
35133W        W 7393  12.632   9.767   4.110
35134W        W 7394  15.675  36.383  11.667
35135W        W 7395  40.501  18.496   1.738
35136W        W 7396  32.890  25.802  10.916
35137W        W 7397   2.694  29.974  12.132
35138W        W 7398  20.831  28.538  10.045
35139W        W 7399  43.653  26.640  11.493
35140W        W 7400   7.509  30.253  14.484
35141W        W 7401  22.630  18.237   3.699
35142W        W 7402  31.613   3.728  12.595
35143W        W 7403   4.102   8.588  14.904
35144W        W 7404  15.234  29.400   0.731
35145W        W 7405  29.537  12.397  10.218
35146W        W 7406  15.518  21.725   4.889
35147W        W 7407  28.949  37.452   0.183
35148W        W 7408   2.686   7.593   2.444
35149W        W 7409  19.710  29.981  10.833
35150W        W 7410   1.219   8.320  11.378
35151W        W 7411   6.728  37.975   3.180
35152W        W 7412  35.304  27.372  14.355
35153W        W 7413  30.862  34.539  14.299
35154W        W 7414   1.639  39.017   0.882
35155W        W 7415   0.325   2.285  10.610
35156W        W 7416  19.287  41.337  14.359
35157W        W 7417  27.628   8.792   4.991
35158W        W 7418  35.837   6.270  10.507
35159W        W 7419  22.700  35.118  10.987
35160W        W 7420  17.254  30.132  14.069
35161W        W 7421  17.776   9.902   0.109
35162W        W 7422   4.869  43.456  14.453
35163W        W 7423   0.023  41.365  12.865
35164W        W 7424  16.889  20.649   2.104
35165W        W 7425   8.983  29.438   4.930
35166W        W 7426   6.224  42.491  12.891
35167W        W 7427  43.069  36.480  11.834
35168W        W 7428  32.296  43.562  14.708
35169W        W 7429  11.113  41.311   2.952
35170W        W 7430  41.838  42.270  10.937
35171W        W 7431  14.577   4.821  10.999
35172W        W 7432  23.194   7.088  13.606
35173W        W 7433   3.827   5.938   1.327
35174W        W 7434  41.798  41.442  13.399
35175W        W 7435  10.921  35.126   1.031
35176W        W 7436  30.124  17.083  12.871
35177W        W 7437   1.906  21.719   2.639
35178W        W 7438   9.931  41.530   4.227
35179W        W 7439  36.108  24.403   0.434
35180W        W 7440  21.656   0.788  13.854
35181W        W 7441  28.531   9.583  13.544
35182W        W 7442  39.251  12.650   3.790
35183W        W 7443   1.332  42.249  12.472
35184W        W 7444   8.645  32.419   3.191
35185W        W 7445  20.177  14.780  11.541
35186W        W 7446  17.864   8.651   1.186
35187W        W 7447  39.373  31.339  13.287
35188W        W 7448  31.824  13.524  12.481
35189W        W 7449  31.662  23.253   2.910
35190W        W 7450  26.985  25.145   0.463
35191W        W 7451   9.397  19.701  13.383
35192W        W 7452  34.055  19.580   4.936
35193W        W 7453   8.277  40.250   4.825
35194W        W 7454   1.302   7.316  13.759
35195W        W 7455  38.599   6.324  12.523
35196W        W 7456   9.269  21.134  11.550
35197W        W 7457  10.211  22.962  14.994
35198W        W 7458  39.524   8.444   2.397
35199W        W 7459  27.220  14.774  10.626
35200W        W 7460  44.348   2.346  10.454
35201W        W 7461  33.240   9.991   1.737
35202W        W 7462  18.110  33.305   0.455
35203W        W 7463  42.578  13.510   2.596
35204W        W 7464   8.409   4.454  13.455
35205W        W 7465  42.028   1.966  11.659
35206W        W 7466  30.888   0.211  13.000
35207W        W 7467  30.324  32.950  13.667
35208W        W 7468  22.828  26.110  13.936
35209W        W 7469   0.948  19.940   1.489
35210W        W 7470  28.579   4.927  14.828
35211W        W 7471   0.336  39.773   3.936
35212W        W 7472  40.253  15.762   1.316
35213W        W 7473  38.152  19.565   4.199
35214W        W 7474  32.088  40.441   3.676
35215W        W 7475  40.704  13.239  13.032
35216W        W 7476  26.438  43.773   0.872
35217W        W 7477  39.408  10.378   3.695
35218W        W 7478   3.011   1.430   4.122
35219W        W 7479   1.969  27.140  14.568
35220W        W 7480  40.489  20.787   2.761
35221W        W 7481  29.716   8.415   2.349
35222W        W 7482   6.429  10.794   2.278
35223W        W 7483  29.374  37.428  11.183
35224W        W 7484  26.222   8.842   1.827
35225W        W 7485   2.301   2.474   3.921
35226W        W 7486  27.567  44.239   1.941
35227W        W 7487   3.211  22.510   0.944
35228W        W 7488  25.593  34.366  13.307
35229W        W 7489  35.610  36.580   2.200
35230W        W 7490  41.997  22.857   0.068
35231W        W 7491  15.800  20.779  10.666
35232W        W 7492  35.367  25.028  10.488
35233W        W 7493  26.004  14.517   4.126
35234W        W 7494  30.503   4.721  14.133
35235W        W 7495  12.951  15.749   4.040
35236W        W 7496  28.976  37.526   4.449
35237W        W 7497  18.712   6.862  13.306
35238W        W 7498   2.956   9.355  12.941
35239W        W 7499  13.551   1.632   0.707
35240W        W 7500   1.021  43.009   4.096
35241W        W 7501  13.404  10.541  13.010
35242W        W 7502   6.196  36.460   0.764
35243W        W 7503   3.653  43.748  10.382
35244W        W 7504  36.285  38.261   1.917
35245W        W 7505  27.339  26.564  12.967
35246W        W 7506   9.177  19.217  13.335
35247W        W 7507   7.821  13.809  11.058
35248W        W 7508  22.016   1.728   1.440
35249W        W 7509  32.991   5.455  10.571
35250W        W 7510  39.823  31.225   2.209
35251W        W 7511   3.841  39.549  12.901
35252W        W 7512  36.100  12.867   2.745
35253W        W 7513  26.587  21.672   0.348
35254W        W 7514  33.190   4.358  12.813
35255W        W 7515  31.564  34.365   4.193
35256W        W 7516   2.995  25.093  14.504
35257W        W 7517  36.789  30.557  13.323
35258W        W 7518  12.586  28.552  12.484
35259W        W 7519   6.311  40.852   3.660
35260W        W 7520  39.653  13.619   3.585
35261W        W 7521  24.912  43.614  12.480
35262W        W 7522   5.672   9.863   1.922
35263W        W 7523  10.333  26.707  11.781
35264W        W 7524  42.812  42.987   0.165
35265W        W 7525  13.685  29.859  13.734
35266W        W 7526   5.146  12.253  14.415
35267W        W 7527  12.953  15.099  12.110
35268W        W 7528  17.117  17.518   2.179
35269W        W 7529  25.788  13.444   3.727
35270W        W 7530  19.212  17.679  13.679
35271W        W 7531   1.022  12.134  12.345
35272W        W 7532  27.392  11.330  11.116
35273W        W 7533  20.771  13.068  11.950
35274W        W 7534  35.527   6.139   3.719
35275W        W 7535  31.141  15.873   1.474
35276W        W 7536  18.257  19.528   4.372
35277W        W 7537  30.558  16.763   0.462
35278W        W 7538  35.274  18.579   0.234
35279W        W 7539   9.354  44.865   2.244
35280W        W 7540  23.777  30.523   1.141
35281W        W 7541  37.501  42.945  12.530
35282W        W 7542   7.420  11.385  13.518
35283W        W 7543   8.951  15.833   2.284
35284W        W 7544  41.474  30.863   4.120
35285W        W 7545   9.332   3.543  14.149
35286W        W 7546  14.028  23.236  11.013
35287W        W 7547  26.185   8.225  10.653
35288W        W 7548  12.753  10.756   1.859
35289W        W 7549   1.759   2.278   1.887
35290W        W 7550  14.689   1.957  13.096
35291W        W 7551  18.036   8.115  12.865
35292W        W 7552  41.964  34.623  14.740
35293W        W 7553  32.922  10.192  13.811
35294W        W 7554   6.426  32.418  11.604
35295W        W 7555  15.755  32.551  12.529
35296W        W 7556  25.852  13.151  13.631
35297W        W 7557  34.502  29.520  10.699
35298W        W 7558  18.586  20.083   1.489
35299W        W 7559  11.103  16.033   4.245
35300W        W 7560  14.856  30.765  12.834
35301W        W 7561  15.169  25.176   3.148
35302W        W 7562  17.661   0.223  14.949
35303W        W 7563   1.986  10.755  10.097
35304W        W 7564  38.482  17.885  11.089
35305W        W 7565  10.642  19.974   4.139
35306W        W 7566  39.626  12.683  14.949
35307W        W 7567  14.266  41.890   1.887
35308W        W 7568  11.207  11.690  14.242
35309W        W 7569  16.836  39.641   0.848
35310W        W 7570   4.286   9.807   0.988
35311W        W 7571  35.141  26.649   4.031
35312W        W 7572  38.550  21.749  11.216
35313W        W 7573  27.717  10.670  13.608
35314W        W 7574  33.570   4.324   2.031
35315W        W 7575  41.470  38.916  11.120
35316W        W 7576  16.769  32.399  14.483
35317W        W 7577  31.624  17.027   4.092
35318W        W 7578  43.358  43.957   0.440
35319W        W 7579  38.149   0.382  11.574
35320W        W 7580  21.866  38.017   2.519
35321W        W 7581  15.607  15.248   3.793
35322W        W 7582   8.052  32.947   2.811
35323W        W 7583  30.863  27.312   1.733
35324W        W 7584  15.085  16.276  11.636
35325W        W 7585  16.577  27.395  10.551
35326W        W 7586  24.194  43.956   4.646
35327W        W 7587  39.446  43.733  13.662
35328W        W 7588  18.738   6.673  11.077
35329W        W 7589  44.974  27.597  14.797
35330W        W 7590  13.132  40.301   1.897
35331W        W 7591  18.520   2.266  10.740
35332W        W 7592  15.076  34.796  11.099
35333W        W 7593   9.120  31.681   3.892
35334W        W 7594  19.153  31.611  11.958
35335W        W 7595  35.983  37.840   4.928
35336W        W 7596   6.474  16.934  11.482
35337W        W 7597  15.863  38.095   4.566
35338W        W 7598  35.111  15.739  14.408
35339W        W 7599  19.505  14.045  10.725
35340W        W 7600  23.216   5.821  10.490
35341W        W 7601  33.564  36.994  10.306
35342W        W 7602  17.829  19.603  11.104
35343W        W 7603   2.747  10.931  14.473
35344W        W 7604   7.947  28.007   4.594
35345W        W 7605  35.959   5.693   0.602
35346W        W 7606  19.586  27.650  13.073
35347W        W 7607  25.222  40.689  13.442
35348W        W 7608   1.873   2.198   3.755
35349W        W 7609  43.768   6.345  13.399
35350W        W 7610  20.711  10.656   0.779
35351W        W 7611  35.456   0.420  14.983
35352W        W 7612  11.760  32.519  13.954
35353W        W 7613  33.374  23.508  13.585
35354W        W 7614  25.509  12.880   5.206
35355W        W 7615  15.169  44.283  12.524
35356W        W 7616  23.411   9.197   4.486
35357W        W 7617  14.255  19.687   4.586
35358W        W 7618  34.614  27.454  11.654
35359W        W 7619  33.651  38.062  11.177
35360W        W 7620  24.548  34.986  12.030
35361W        W 7621  35.529  32.623   3.946
35362W        W 7622   8.991  24.757  12.899
35363W        W 7623  43.826  13.024   0.866
35364W        W 7624  28.011   1.861  10.798
35365W        W 7625  34.426  42.918  11.623
35366W        W 7626  27.225  28.500  12.381
35367W        W 7627  26.632   2.910   0.889
35368W        W 7628   1.923  10.370  14.227
35369W        W 7629   5.183  12.274  13.759
35370W        W 7630   6.727   7.931  10.600
35371W        W 7631  35.498  32.503  11.416
35372W        W 7632  32.152  21.162   1.045
35373W        W 7633  26.214  19.538  10.668
35374W        W 7634  43.956  31.662   0.411
35375W        W 7635   0.535  21.244  11.907
35376W        W 7636   9.883  21.661   0.372
35377W        W 7637  38.328  13.217   2.222
35378W        W 7638  28.161  15.093  12.432
35379W        W 7639   5.621  42.581   4.820
35380W        W 7640  37.243   2.280  14.333
35381W        W 7641  20.533   1.355   1.200
35382W        W 7642  13.207   6.986   4.864
35383W        W 7643   4.639   9.346  11.415
35384W        W 7644  22.761  35.302  12.054
35385W        W 7645  19.338  18.741   3.695
35386W        W 7646  32.691  12.903   5.012
35387W        W 7647   6.262  16.194  11.429
35388W        W 7648  19.223  24.654   2.119
35389W        W 7649  35.958   2.613  12.032
35390W        W 7650  24.685  32.135   3.276
35391W        W 7651  36.379  13.866   3.288
35392W        W 7652  29.696  16.583   0.729
35393W        W 7653  36.384   0.871  10.586
35394W        W 7654  38.686  29.145   2.236
35395W        W 7655  30.859  30.982   1.692
35396W        W 7656  18.248  33.464   4.125
35397W        W 7657  24.256  44.064   3.767
35398W        W 7658  27.075  24.552   3.805
35399W        W 7659  25.337  19.574   2.767
35400W        W 7660  24.436  37.346  13.849
35401W        W 7661  18.653  21.533   1.879
35402W        W 7662  43.742  43.771   4.277
35403W        W 7663  27.312  10.474  13.372
35404W        W 7664  28.129  24.146   0.873
35405W        W 7665   3.154  35.719  14.949
35406W        W 7666  43.729   1.801   4.131
35407W        W 7667   1.668  15.311   3.325
35408W        W 7668   4.695  39.185  11.559
35409W        W 7669  20.997  34.995  10.689
35410W        W 7670  21.493   9.431  13.896
35411W        W 7671  22.052  29.777  13.531
35412W        W 7672   0.269   4.374  12.928
35413W        W 7673  10.810  10.817   1.206
35414W        W 7674  18.426  29.699   1.913
35415W        W 7675  44.743  15.766  12.250
35416W        W 7676  27.883  28.380  10.570
35417W        W 7677  39.604  20.553   0.677
35418W        W 7678  16.685  11.096   3.682
35419W        W 7679  27.377  39.849   2.868
35420W        W 7680  17.065  41.165   2.488
35421W        W 7681  22.662  38.463  10.768
35422W        W 7682  32.524  36.712   0.813
35423W        W 7683  31.465  12.565   0.357
35424W        W 7684  29.038   3.995  11.619
35425W        W 7685  32.987  44.240  14.062
35426W        W 7686  39.444  38.986  12.613
35427W        W 7687  26.421  39.877  14.664
35428W        W 7688   1.886  40.057  14.809
35429W        W 7689  22.687  43.476  14.254
35430W        W 7690   5.308  19.721   3.116
35431W        W 7691   1.991   1.932   3.295
35432W        W 7692   8.053  19.262  13.324
35433W        W 7693  25.132  34.355   2.739
35434W        W 7694  19.992  44.564  13.054
35435W        W 7695   9.627   6.860   3.682
35436W        W 7696   1.820  13.071  11.619
35437W        W 7697  44.477  15.272  11.669
35438W        W 7698  27.285  34.007  13.114
35439W        W 7699  33.790  24.476  14.511
35440W        W 7700  29.493  35.190  14.064
35441W        W 7701  42.524  26.114  10.622
35442W        W 7702   3.131   2.501   0.922
35443W        W 7703  34.999  37.490   3.529
35444W        W 7704  11.752  10.957   1.991
35445W        W 7705   6.601  22.993  13.671
35446W        W 7706  19.800  10.061  13.393
35447W        W 7707   7.710   7.250   1.777
35448W        W 7708  42.077  42.751  13.374
35449W        W 7709  37.163  11.625   1.817
35450W        W 7710  25.212  15.213   2.326
35451W        W 7711   1.553   8.633   4.000
35452W        W 7712  29.691  18.417  10.593
35453W        W 7713  26.547  42.200  12.025
35454W        W 7714   6.048  19.387  12.932
35455W        W 7715  34.987  36.077   4.120
35456W        W 7716  21.222  25.011   2.211
35457W        W 7717  23.226  29.999   3.709
35458W        W 7718   7.619   7.070   1.304
35459W        W 7719  42.457  11.766  10.703
35460W        W 7720  25.112  29.493  11.153
35461W        W 7721  24.114  12.530  10.013
35462W        W 7722  41.842   0.488  11.235
35463W        W 7723  18.149  32.412  10.501
35464W        W 7724  14.535  40.376  11.165
35465W        W 7725  14.087  25.233  11.123
35466W        W 7726  39.398  31.964   0.625
35467W        W 7727  44.927  35.887  11.154
35468W        W 7728  19.430  44.382   2.422
35469W        W 7729  12.049  10.321  13.946
35470W        W 7730  20.725  41.509   3.897
35471W        W 7731  21.273  40.867  13.589
35472W        W 7732  17.161  34.461  14.395
35473W        W 7733  34.823  27.146   4.750
35474W        W 7734  43.380   3.895  11.988
35475W        W 7735  42.280  22.688   0.482
35476W        W 7736   2.398   7.220   3.174
35477W        W 7737  29.089  12.128   0.287
35478W        W 7738  14.266  39.839  14.162
35479W        W 7739  34.032  21.716  13.444
35480W        W 7740  43.966  25.980   1.460
35481W        W 7741   4.805  16.027  12.757
35482W        W 7742  35.491   5.805   4.137
35483W        W 7743   5.441  19.652  14.035
35484W        W 7744  25.988   1.882  12.031
35485W        W 7745   0.695  28.240  11.679
35486W        W 7746  42.835  18.821   2.280
35487W        W 7747  42.263  44.283   2.160
35488W        W 7748   4.778   8.932   1.179
35489W        W 7749   4.740   3.940   1.964
35490W        W 7750   5.892   3.355   4.927
35491W        W 7751  41.487  19.663   2.215
35492W        W 7752  30.048  19.741  14.719
35493W        W 7753   4.827  22.205   3.381
35494W        W 7754  34.536  25.007  11.090
35495W        W 7755  33.065   4.377  13.850
35496W        W 7756  33.079   3.441   4.287
35497W        W 7757  17.260  21.517   3.741
35498W        W 7758  30.707  31.114   5.082
35499W        W 7759   3.924  31.379  10.421
35500W        W 7760   5.960   7.718   4.593
35501W        W 7761   8.942   1.301   3.127
35502W        W 7762  27.124  14.628   4.099
35503W        W 7763  41.356  26.484  11.831
35504W        W 7764  43.260  10.197   0.009
35505W        W 7765  19.532  22.205  11.376
35506W        W 7766  21.250  41.573   0.470
35507W        W 7767  19.620  13.412   2.268
35508W        W 7768   1.050  20.788  14.741
35509W        W 7769  13.758  12.734   3.438
35510W        W 7770  43.538  22.156   4.128
35511W        W 7771  18.095  44.384   1.488
35512W        W 7772   3.461  11.275  12.954
35513W        W 7773  34.938  37.864  13.407
35514W        W 7774  34.163  26.087  12.071
35515W        W 7775  35.130  13.209  13.870
35516W        W 7776  39.315  41.129   2.140
35517W        W 7777  17.979  36.034   0.309
35518W        W 7778   3.206  37.467   5.056
35519W        W 7779  28.171  36.464   4.293
35520W        W 7780   0.762  19.661  10.642
35521W        W 7781  30.618  33.167  12.220
35522W        W 7782  14.281  12.211  14.943
35523W        W 7783  24.243  12.725   1.357
35524W        W 7784   1.491  37.474   2.282
35525W        W 7785   4.683   2.755  14.903
35526W        W 7786  26.409  22.009  11.947
35527W        W 7787  21.677  32.158   2.791
35528W        W 7788  27.422  23.833   4.281
35529W        W 7789  12.045  27.859   0.539
35530W        W 7790   5.354  27.410   1.199
35531W        W 7791  29.933  30.590   4.249
35532W        W 7792  39.918  36.334   4.852
35533W        W 7793  22.459  40.990  10.843
35534W        W 7794  39.065  13.047  13.984
35535W        W 7795  18.069   6.454   2.642
35536W        W 7796  21.635  32.178  11.925
35537W        W 7797  24.147  34.149   4.661
35538W        W 7798   2.725   4.827   3.060
35539W        W 7799  10.375   5.962   2.412
35540W        W 7800  18.263  44.845  11.223
35541W        W 7801  34.311  20.653   2.308
35542W        W 7802  35.379  22.159  11.686
35543W        W 7803  23.208  28.578   3.697
35544W        W 7804  17.033   9.603  13.893
35545W        W 7805  24.257  33.223   3.755
35546W        W 7806   7.884  16.594  11.198
35547W        W 7807  33.705  36.390  12.659
35548W        W 7808   2.462   0.451  11.964
35549W        W 7809  15.861  33.861   5.064
35550W        W 7810  23.080  32.024   1.018
35551W        W 7811  11.264  37.406  10.654
35552W        W 7812  41.066  10.630  11.476
35553W        W 7813   8.274  28.005  14.066
35554W        W 7814  18.986  32.273  11.577
35555W        W 7815  29.523  33.143   0.894
35556W        W 7816  12.649  30.342   2.043
35557W        W 7817   0.869  17.191   4.190
35558W        W 7818  14.849  29.965   1.962
35559W        W 7819  30.484  33.131  11.085
35560W        W 7820  35.633  21.764  12.885
35561W        W 7821  37.273  31.085   1.335
35562W        W 7822  44.377  39.529  12.664
35563W        W 7823  21.627  17.675   3.670
35564W        W 7824  17.687  36.755   4.620
35565W        W 7825  37.946  39.978   1.712
35566W        W 7826   0.746  42.773  12.029
35567W        W 7827  40.153  37.408  13.245
35568W        W 7828  13.535  44.304   3.717
35569W        W 7829   8.088   4.526  12.034
35570W        W 7830  32.056   6.409   4.179
35571W        W 7831  41.390  12.076  13.015
35572W        W 7832  42.415  23.516   3.616
35573W        W 7833   1.836  30.104   4.265
35574W        W 7834  16.300  30.522  11.542
35575W        W 7835  29.229  38.293   0.385
35576W        W 7836  29.934  23.016  11.714
35577W        W 7837  31.447  38.877  12.700
35578W        W 7838  12.410   0.631  12.831
35579W        W 7839   5.637  11.314  10.644
35580W        W 7840   3.717  33.539   2.003
35581W        W 7841  43.333   8.606  10.627
35582W        W 7842  33.812  41.022   3.347
35583W        W 7843  44.917  27.379   2.682
35584W        W 7844   2.945  14.552  14.819
35585W        W 7845  21.200  41.486   4.089
35586W        W 7846  19.207  11.098  12.008
35587W        W 7847  25.851  14.326   1.337
35588W        W 7848   7.883  24.784   2.624
35589W        W 7849  35.367  13.272   1.152
35590W        W 7850   9.241  11.829   0.499
35591W        W 7851  36.399  32.691   0.440
35592W        W 7852  30.109  20.437   1.717
35593W        W 7853  15.752  17.741   5.961
35594W        W 7854  16.338   7.212   0.888
35595W        W 7855  23.041  34.038  12.558
35596W        W 7856  19.731  25.729  12.088
35597W        W 7857   9.053  26.925   2.247
35598W        W 7858   5.104  37.847   4.574
35599W        W 7859   1.351  43.701  14.518
35600W        W 7860   5.171   9.548   2.821
35601W        W 7861   5.817  37.518  10.899
35602W        W 7862  39.454  40.738  10.505
35603W        W 7863  28.564  38.248  14.277
35604W        W 7864  11.302  36.129  11.538
35605W        W 7865  44.515  32.856   0.354
35606W        W 7866   4.909  17.687  10.979
35607W        W 7867  13.407  30.636  13.302
35608W        W 7868   8.394  35.596   2.788
35609W        W 7869  24.889  36.899  13.443
35610W        W 7870  16.483  32.952  11.521
35611W        W 7871  34.317  30.638   3.232
35612W        W 7872  21.715  28.647   0.163
35613W        W 7873   7.397  16.073   1.772
35614W        W 7874  24.497  11.366   4.083
35615W        W 7875  10.388  36.442  12.065
35616W        W 7876   4.270  12.214   1.434
35617W        W 7877  18.652  43.777   2.638
35618W        W 7878   8.447  24.251  12.084
35619W        W 7879   7.727  34.626   3.206
35620W        W 7880  36.573  13.968  13.162
35621W        W 7881  24.184  30.427  13.318
35622W        W 7882  30.007  11.659  11.579
35623W        W 7883   3.796  22.937   0.017
35624W        W 7884  15.364   1.354  11.087
35625W        W 7885  16.645  39.127  12.330
35626W        W 7886  13.790  32.301  10.332
35627W        W 7887  27.902  39.353  12.516
35628W        W 7888  30.066  40.449  13.560
35629W        W 7889  27.110  27.701  14.529
35630W        W 7890  14.168  26.732   4.680
35631W        W 7891  24.095  25.218   3.736
35632W        W 7892  30.026  33.327  13.385
35633W        W 7893  42.362  25.173   2.112
35634W        W 7894  16.909  38.613  12.371
35635W        W 7895  41.852  39.321  14.410
35636W        W 7896  37.319  39.865  13.168
35637W        W 7897  11.290  41.351   2.333
35638W        W 7898  32.829   9.877   1.195
35639W        W 7899  38.169  13.675  13.530
35640W        W 7900  43.783  17.823   4.396
35641W        W 7901  40.309  32.871   3.163
35642W        W 7902  42.311   7.799  12.551
35643W        W 7903   3.888  43.542   4.498
35644W        W 7904  24.006  24.179   3.739
35645W        W 7905  35.468  32.789   1.742
35646W        W 7906  41.529  18.795   3.864
35647W        W 7907  40.796  10.829   1.460
35648W        W 7908  27.035  16.853   0.857
35649W        W 7909   3.315  25.011   2.762
35650W        W 7910  35.665  11.917  13.856
35651W        W 7911  19.039  17.360  11.172
35652W        W 7912  34.839  23.807   3.276
35653W        W 7913  44.314  17.300   2.363
35654W        W 7914  28.559   3.702  10.539
35655W        W 7915  24.224  12.079  12.528
35656W        W 7916  44.846  38.536   4.667
35657W        W 7917  23.505  33.264  13.352
35658W        W 7918  23.141   1.744   4.569
35659W        W 7919   0.754  12.905  12.655
35660W        W 7920   3.588  44.681   4.189
35661W        W 7921  25.531  19.763  14.737
35662W        W 7922  16.746  26.452  13.496
35663W        W 7923  12.239  16.904   2.628
35664W        W 7924   0.780  15.061  11.448
35665W        W 7925  42.795  44.824   0.211
35666W        W 7926  34.982  25.431   2.681
35667W        W 7927   6.219   5.704   1.302
35668W        W 7928  28.155   1.200  11.557
35669W        W 7929  35.249  23.485   1.534
35670W        W 7930  14.861  13.667   0.630
35671W        W 7931  36.540  44.987   4.754
35672W        W 7932  40.256  42.792  12.440
35673W        W 7933   6.262  32.262  10.966
35674W        W 7934   1.675   7.893   3.091
35675W        W 7935   3.947  27.576  11.591
35676W        W 7936  40.974  17.677   2.743
35677W        W 7937   5.934  41.352  11.022
35678W        W 7938  38.981  19.215  12.619
35679W        W 7939  23.616  44.754   3.599
35680W        W 7940  30.406   2.160   4.265
35681W        W 7941  18.957  25.668   4.001
35682W        W 7942  41.360  10.687   3.341
35683W        W 7943   9.270  32.952  10.525
35684W        W 7944  35.004  39.479  12.378
35685W        W 7945  40.687  11.713  14.635
35686W        W 7946  35.028  25.617  12.152
35687W        W 7947  32.975   2.524  12.039
35688W        W 7948  20.843  12.744  10.663
35689W        W 7949  16.649  34.379  10.672
35690W        W 7950  24.580  17.508  12.575
35691W        W 7951  31.604   2.470   0.379
35692W        W 7952  19.527   7.878   4.126
35693W        W 7953  10.810   0.670   3.224
35694W        W 7954   1.719   1.189   3.739
35695W        W 7955  43.068  31.175  11.812
35696W        W 7956  44.915  14.861  10.864
35697W        W 7957  11.248  37.347   1.786
35698W        W 7958   7.906  28.120   9.969
35699W        W 7959   7.370  18.961   2.010
35700W        W 7960  17.527  34.159  12.599
35701W        W 7961  35.873  42.095   1.734
35702W        W 7962  14.813  28.338  10.254
35703W        W 7963  29.590  34.920   3.304
35704W        W 7964  28.438  11.313  11.042
35705W        W 7965  43.333   1.190  13.842
35706W        W 7966  11.313  18.331  13.985
35707W        W 7967  25.292  25.615   2.552
35708W        W 7968  37.778  26.658  12.412
35709W        W 7969  12.229  22.475   3.540
35710W        W 7970  33.887  40.602   4.158
35711W        W 7971   0.173  33.513  12.086
35712W        W 7972  15.106  42.285   2.549
35713W        W 7973  43.084  15.093   3.363
35714W        W 7974  38.890  21.263   3.669
35715W        W 7975  39.454  35.717  10.499
35716W        W 7976  32.076  28.214  11.959
35717W        W 7977  20.274  31.542   0.506
35718W        W 7978  10.427  41.019   4.159
35719W        W 7979  22.012  38.395  14.514
35720W        W 7980  31.172   6.393   3.237
35721W        W 7981  16.321   9.530  11.133
35722W        W 7982  37.286  15.675   3.335
35723W        W 7983  22.724  26.420   4.148
35724W        W 7984  42.414  31.400  10.707
35725W        W 7985   7.766  22.118  11.414
35726W        W 7986  14.722   7.948   3.544
35727W        W 7987   5.880  25.173   2.175
35728W        W 7988  33.502   3.846  10.704
35729W        W 7989  32.280  21.684   4.531
35730W        W 7990  36.876   7.681   3.569
35731W        W 7991   3.422  35.928   4.309
35732W        W 7992   6.129  13.303  14.832
35733W        W 7993  40.940  12.962   4.861
35734W        W 7994   6.000  32.404  11.927
35735W        W 7995   5.391  28.846  13.440
35736W        W 7996  22.637  12.296   4.451
35737W        W 7997  36.450  11.245  13.713
35738W        W 7998  23.292  37.538   4.213
35739W        W 7999  40.274  10.364  14.465
35740W        W 8000  20.339  13.078  14.137
35741W        W 8001  34.943  33.620   5.088
35742W        W 8002  40.588  12.879   1.455
35743W        W 8003  25.521  32.496  14.023
35744W        W 8004  16.628  37.871  12.815
35745W        W 8005  39.911  44.264  10.650
35746W        W 8006  38.597  18.821  12.780
35747W        W 8007   2.302   0.820  11.651
35748W        W 8008  32.708   3.946   2.163
35749W        W 8009  29.056   6.596  10.390
35750W        W 8010  34.920  37.420   4.038
35751W        W 8011  18.861  34.412   4.818
35752W        W 8012  40.494  27.901  14.895
35753W        W 8013   4.564   9.274   4.995
35754W        W 8014   2.782  39.122  10.443
35755W        W 8015  43.790   5.675  11.164
35756W        W 8016  35.635   1.795   1.402
35757W        W 8017  22.103  20.658   9.790
35758W        W 8018  16.368  24.595  10.979
35759W        W 8019   1.432  38.625   4.154
35760W        W 8020  28.382  38.927   2.798
35761W        W 8021  26.982  11.120  12.618
35762W        W 8022  40.081  37.463   5.028
35763W        W 8023  17.587  13.576   2.696
35764W        W 8024  26.616  24.044  14.441
35765W        W 8025  22.539  30.679  12.582
35766W        W 8026  41.351  20.150   4.436
35767W        W 8027   9.423  35.026   3.659
35768W        W 8028  34.022   7.239  14.143
35769W        W 8029  20.242  28.985   3.522
35770W        W 8030  26.132   1.924  14.023
35771W        W 8031  15.573  14.279  10.630
35772W        W 8032  24.030  18.181   1.937
35773W        W 8033  25.357  25.015  11.464
35774W        W 8034  10.858  44.702  11.917
35775W        W 8035   4.415   3.028  12.038
35776W        W 8036  44.912  38.014   3.666
35777W        W 8037   4.791   5.120  12.977
35778W        W 8038  20.519  34.538  14.555
35779W        W 8039  21.376  12.427   1.181
35780W        W 8040  23.061   0.422   4.151
35781W        W 8041  32.554  11.482   0.860
35782W        W 8042   4.463  33.854  11.170
35783W        W 8043   9.006   5.852  11.415
35784W        W 8044  27.094  28.337  13.777
35785W        W 8045  24.283  19.209   4.676
35786W        W 8046  34.510  27.622  13.051
35787W        W 8047  21.901   6.902  14.759
35788W        W 8048  44.579  27.954   3.729
35789W        W 8049   3.246  19.305  11.421
35790W        W 8050  15.111   1.522   4.157
35791W        W 8051  12.826  24.497   1.897
35792W        W 8052  25.283  43.519  14.418
35793W        W 8053  36.870  17.587   1.357
35794W        W 8054  38.676  41.523   3.191
35795W        W 8055  41.999  31.496   3.705
35796W        W 8056  37.364  19.258  13.149
35797W        W 8057  26.986  39.626  11.598
35798W        W 8058   6.107  27.050  13.436
35799W        W 8059  34.772  12.198   3.715
35800W        W 8060   8.595  12.823   1.130
35801W        W 8061   8.766  17.357  14.309
35802W        W 8062  25.993  10.189  14.467
35803W        W 8063   5.989  43.756  14.026
35804W        W 8064   3.363   2.921  11.282
35805W        W 8065   8.437   9.450   1.863
35806W        W 8066  43.543  11.563  11.411
35807W        W 8067  12.293  26.893   0.391
35808W        W 8068  17.277   8.773   4.690
35809W        W 8069  22.225   8.358  10.456
35810W        W 8070  16.615   5.300  10.319
35811W        W 8071   1.498  36.843  12.256
35812W        W 8072   6.904  15.078  13.531
35813W        W 8073  25.845   7.629   2.714
35814W        W 8074  39.918  14.149  12.587
35815W        W 8075  12.422  11.458   1.248
35816W        W 8076   6.577   2.036  12.106
35817W        W 8077  29.363  29.054  12.765
35818W        W 8078  28.407  15.821  11.954
35819W        W 8079  29.404  12.265   0.674
35820W        W 8080  23.566   8.696   0.477
35821W        W 8081  40.079  23.121  11.158
35822W        W 8082  43.682  29.401  12.046
35823W        W 8083  40.211  10.485   1.942
35824W        W 8084  10.281   2.333   2.209
35825W        W 8085  44.389  32.954  10.254
35826W        W 8086   4.311   5.309   2.415
35827W        W 8087  39.837  11.534   1.064
35828W        W 8088   2.888  15.886  13.100
35829W        W 8089  18.825   6.352  14.923
35830W        W 8090  22.809  25.568  11.874
35831W        W 8091  10.825  30.489   2.180
35832W        W 8092  17.858  23.984  11.339
35833W        W 8093  38.960  42.280  12.813
35834W        W 8094  41.298  22.716   0.512
35835W        W 8095  29.922   0.635   2.841
35836W        W 8096  31.501  16.681   0.744
35837W        W 8097  29.081  33.501   0.300
35838W        W 8098  40.923  14.582   4.513
35839W        W 8099  15.647   3.816  13.871
35840W        W 8100  12.681   3.440  14.355
35841W        W 8101  23.492  44.367   2.088
35842W        W 8102   4.639  34.324  11.072
35843W        W 8103  23.050  30.625  13.877
35844W        W 8104  27.413   4.831  14.419
35845W        W 8105  30.774   6.523  12.480
35846W        W 8106  17.760  44.955  11.231
35847W        W 8107  25.289  27.109   1.754
35848W        W 8108   6.009   1.884  14.517
35849W        W 8109  41.569  15.283   4.926
35850W        W 8110  10.323  37.019   0.747
35851W        W 8111  32.472  28.929   2.723
35852W        W 8112  24.000  31.818   2.788
35853W        W 8113  44.413  42.490  14.084
35854W        W 8114   1.598   4.334   4.043
35855W        W 8115  18.069   1.540   1.960
35856W        W 8116  36.905   9.286  12.385
35857W        W 8117  37.436  35.085   1.882
35858W        W 8118  27.579  43.915  12.002
35859W        W 8119  37.561  14.975  13.400
35860W        W 8120  14.614  21.912  12.438
35861W        W 8121  16.744  15.248   5.622
35862W        W 8122  33.029   3.239   1.446
35863W        W 8123   6.412  41.749   3.357
35864W        W 8124  31.110  29.432   2.208
35865W        W 8125   3.855  24.577  10.713
35866W        W 8126  16.730  36.829  10.808
35867W        W 8127  17.431  43.049   2.604
35868W        W 8128  33.631  44.462   1.859
35869W        W 8129  34.459  13.153  11.171
35870W        W 8130  22.842  35.688  13.898
35871W        W 8131  22.185  11.918   2.766
35872W        W 8132  22.419  41.309  13.980
35873W        W 8133   9.282  12.149   3.667
35874W        W 8134   4.362  30.393   4.129
35875W        W 8135   4.967  24.430  12.948
35876W        W 8136   3.960  39.830   3.979
35877W        W 8137   7.316  31.774   4.535
35878W        W 8138  43.917   6.317   1.960
35879W        W 8139   9.172  11.251   1.694
35880W        W 8140  28.678  34.396  12.558
35881W        W 8141  13.533   4.513   3.167
35882W        W 8142  13.382  15.528   3.859
35883W        W 8143  20.406  27.447  13.393
35884W        W 8144   1.757  36.884  14.398
35885W        W 8145   5.257  31.629  13.958
35886W        W 8146  14.298   6.260  12.904
35887W        W 8147  28.107  28.854   3.298
35888W        W 8148  36.976  38.785   1.626
35889W        W 8149   9.688   8.159  12.565
35890W        W 8150  31.401   8.182  14.478
35891W        W 8151  20.081   8.876  11.509
35892W        W 8152  23.169   3.790  12.108
35893W        W 8153  11.782   2.439   1.021
35894W        W 8154  24.456  16.546   0.761
35895W        W 8155  10.905  15.970   1.850
35896W        W 8156  17.617  21.012   4.113
35897W        W 8157   1.206  29.425  14.864
35898W        W 8158  24.066   8.908  13.094
35899W        W 8159  26.062  13.660   3.258
35900W        W 8160  28.411   7.869  11.000
35901W        W 8161  14.294  31.453  11.336
35902W        W 8162  39.418  24.816   4.763
35903W        W 8163  40.268  36.093   3.702
35904W        W 8164   8.228  24.987   1.775
35905W        W 8165  27.222   9.442  11.031
35906W        W 8166  34.494  15.289   1.754
35907W        W 8167   7.403  14.576  14.338
35908W        W 8168  33.026  23.631   3.903
35909W        W 8169  39.463  26.474   3.397
35910W        W 8170  31.354   4.458  10.958
35911W        W 8171  10.798  32.491   1.995
35912W        W 8172  42.729  10.240  12.176
35913W        W 8173  44.517  35.320  14.201
35914W        W 8174   7.383  18.188   1.223
35915W        W 8175  17.515  32.737   3.540
35916W        W 8176  32.696  21.445  13.042
35917W        W 8177  30.935  35.443   3.721
35918W        W 8178  33.617  15.091   0.891
35919W        W 8179  14.447  24.412   5.046
35920W        W 8180  44.027   7.880  12.939
35921W        W 8181  12.802  15.363  12.514
35922W        W 8182  44.851  19.922   2.791
35923W        W 8183  17.295  41.265   1.631
35924W        W 8184  43.343  24.482  12.105
35925W        W 8185   3.334  19.343  12.002
35926W        W 8186  34.876  21.589   5.425
35927W        W 8187   4.800  11.151   4.270
35928W        W 8188  35.534   0.372   2.689
35929W        W 8189  29.724   1.386   1.480
35930W        W 8190  25.393  16.068  12.506
35931W        W 8191   7.822  38.182  10.552
35932W        W 8192  25.114  26.525   0.115
35933W        W 8193  43.019  42.964  11.242
35934W        W 8194  28.478  35.952  13.519
35935W        W 8195  43.426  15.581   2.180
35936W        W 8196   3.553  24.924   1.740
35937W        W 8197  17.854  19.457   3.148
35938W        W 8198  12.479  10.957  10.961
35939W        W 8199  36.060   4.493   0.383
35940W        W 8200  42.600  35.939  13.043
35941W        W 8201  26.433  22.785   3.740
35942W        W 8202  37.355  31.400  11.247
35943W        W 8203  27.705  32.569   2.674
35944W        W 8204   1.006  25.099   5.171
35945W        W 8205  33.981   8.276  14.514
35946W        W 8206  36.524  41.371  11.721
35947W        W 8207  27.733  14.407   2.751
35948W        W 8208  28.591  39.988   3.558
35949W        W 8209  33.047  28.633   3.454
35950W        W 8210  38.142  34.365  10.675
35951W        W 8211  19.427  36.976  10.589
35952W        W 8212  32.228  13.397   3.734
35953W        W 8213   5.638  14.714   3.217
35954W        W 8214  30.625  22.498  11.155
35955W        W 8215  17.573   3.413   9.855
35956W        W 8216   2.285  38.417  10.664
35957W        W 8217   3.192  16.599  10.723
35958W        W 8218  36.955   0.924   3.620
35959W        W 8219  32.269  10.889  13.537
35960W        W 8220   9.505   2.255  14.812
35961W        W 8221  35.285  26.035  13.970
35962W        W 8222  35.095  40.914   0.033
35963W        W 8223  35.832   6.935   1.754
35964W        W 8224  38.022  22.772   5.022
35965W        W 8225  12.211  41.835  11.525
35966W        W 8226  28.065   9.878   4.282
35967W        W 8227  15.927  18.710  14.316
35968W        W 8228  18.895  10.166   2.199
35969W        W 8229  19.332  28.374   1.240
35970W        W 8230  26.475  19.290   1.742
35971W        W 8231   2.931  18.756  12.546
35972W        W 8232   4.477  23.093  13.347
35973W        W 8233  38.959  15.867   2.654
35974W        W 8234  24.148   4.500   1.779
35975W        W 8235  41.444   3.902  13.651
35976W        W 8236  20.205   0.011   4.658
35977W        W 8237   0.005   2.568  13.987
35978W        W 8238  35.985  31.204   0.343
35979W        W 8239  21.740   8.973  14.900
35980W        W 8240  39.496  13.671   2.186
35981W        W 8241   3.384   5.865  12.947
35982W        W 8242  27.452  11.885   1.129
35983W        W 8243   0.077  31.867  14.927
35984W        W 8244  34.541  24.920   5.027
35985W        W 8245  35.992  16.492  10.790
35986W        W 8246  22.408  42.784   4.693
35987W        W 8247   0.799  27.867  14.343
35988W        W 8248   5.479  36.024  13.459
35989W        W 8249  41.543  17.529   4.601
35990W        W 8250   9.955   3.316  10.514
35991W        W 8251  36.095   5.810  13.651
35992W        W 8252  40.327  30.226  10.403
35993W        W 8253  31.010   2.314   3.230
35994W        W 8254  36.282  27.148  14.292
35995W        W 8255  39.419  43.921  11.662
35996W        W 8256  14.036  25.888   1.894
35997W        W 8257   0.805  12.611   0.314
35998W        W 8258  35.681  36.940   3.374
35999W        W 8259  34.159   9.761  11.628
36000W        W 8260  35.716   8.057   2.727
36001W        W 8261  31.473  31.569   1.409
36002W        W 8262  14.578  20.791   4.093
36003W        W 8263  39.829   0.841  13.022
36004W        W 8264  21.459  14.694   5.095
36005W        W 8265  21.605  18.847  10.235
36006W        W 8266   5.194  27.599  13.670
36007W        W 8267  42.508  38.345  12.335
36008W        W 8268  36.379  33.618  11.941
36009W        W 8269   9.865   9.312   1.682
36010W        W 8270  27.911  26.446   1.765
36011W        W 8271  41.007  34.574  11.019
36012W        W 8272  38.022  40.005  10.664
36013W        W 8273  23.270  12.812  12.108
36014W        W 8274  15.811   4.092  14.420
36015W        W 8275  43.824  38.711   4.677
36016W        W 8276   8.339  24.111   0.381
36017W        W 8277   9.871  13.681   4.519
36018W        W 8278  40.314   9.885   3.330
36019W        W 8279   8.771  32.856  13.629
36020W        W 8280  41.380  41.656  12.007
36021W        W 8281  28.720  12.158  12.874
36022W        W 8282  11.251   1.875   0.885
36023W        W 8283  29.952  35.526   3.351
36024W        W 8284   3.356  36.634   3.133
36025W        W 8285  16.227  11.118   2.424
36026W        W 8286  10.476   7.731   4.502
36027W        W 8287  13.781  24.783   0.951
36028W        W 8288  22.182   4.547  12.253
36029W        W 8289  17.847  16.869  11.150
36030W        W 8290  21.337  19.142   3.232
36031W        W 8291  39.497   3.195  13.870
36032W        W 8292  44.459   7.229  14.431
36033W        W 8293  30.695  34.507   4.142
36034W        W 8294  28.504  39.933   4.127
36035W        W 8295   5.941  22.482   4.733
36036W        W 8296  39.695   7.991  11.043
36037W        W 8297   0.045  16.200   3.808
36038W        W 8298  43.255  12.858   0.299
36039W        W 8299  13.122   6.529   3.884
36040W        W 8300  29.079   5.654   2.460
36041W        W 8301   1.697  28.168  12.088
36042W        W 8302  28.703   1.457   1.448
36043W        W 8303   2.111  12.150   3.139
36044W        W 8304  35.646  40.605   0.308
36045W        W 8305  38.707  16.312   4.901
36046W        W 8306  16.041  23.731   1.786
36047W        W 8307   9.555  12.671   0.587
36048W        W 8308  28.915  19.996  14.984
36049W        W 8309   2.215   8.937   4.979
36050W        W 8310  27.973  27.487  12.101
36051W        W 8311  36.917  13.771  12.846
36052W        W 8312  32.439  11.455   9.543
36053W        W 8313   3.175  34.997   3.677
36054W        W 8314  19.373   9.799   0.709
36055W        W 8315  41.306  42.014  11.594
36056W        W 8316  38.295  15.100  12.151
36057W        W 8317   3.355  11.585  12.195
36058W        W 8318   1.302  14.643   0.505
36059W        W 8319  18.278  26.883  12.516
36060W        W 8320  31.566  12.625  12.877
36061W        W 8321   8.370  17.428  11.359
36062W        W 8322   9.840  19.543   0.681
36063W        W 8323  30.371  35.565   3.068
36064W        W 8324  41.335  44.777  12.523
36065W        W 8325  21.218  42.459   0.306
36066W        W 8326  13.357  20.555   1.139
36067W        W 8327  21.204  28.656  12.910
36068W        W 8328  16.166  13.625   3.292
36069W        W 8329  31.552  20.237  13.824
36070W        W 8330  29.146  16.585   3.535
36071W        W 8331  11.224  20.617   2.724
36072W        W 8332   7.685  38.313   3.162
36073W        W 8333   9.769  34.662   1.774
36074W        W 8334   1.319  38.633  12.044
36075W        W 8335  26.468   7.869   2.278
36076W        W 8336  14.186  17.271  12.811
36077W        W 8337   2.389  12.965   2.794
36078W        W 8338  43.061   8.407   0.770
36079W        W 8339  10.175  29.012  14.821
36080W        W 8340  15.669  43.467   0.362
36081W        W 8341   2.415  33.854   1.882
36082W        W 8342  43.286  18.291  11.191
36083W        W 8343   6.432   5.384   4.424
36084W        W 8344   9.247  21.144   9.908
36085W        W 8345  23.711  36.513  10.624
36086W        W 8346  18.143  43.898   1.730
36087W        W 8347  14.833   4.682  10.564
36088W        W 8348  41.934   4.685   1.155
36089W        W 8349   1.262  17.668   2.302
36090W        W 8350  30.723   9.806  10.755
36091W        W 8351   5.333  34.609  12.195
36092W        W 8352  15.627  34.976   3.932
36093W        W 8353  11.674  21.570  12.331
36094W        W 8354  34.082  35.816   0.866
36095W        W 8355  20.207  30.564  13.945
36096W        W 8356  34.596  34.474   3.171
36097W        W 8357  24.200  10.772   1.031
36098W        W 8358  17.109  29.097  12.401
36099W        W 8359  35.965  16.806   1.478
36100W        W 8360   4.493   7.678  12.466
36101W        W 8361  22.567   0.248  12.478
36102W        W 8362  27.593  38.826   1.686
36103W        W 8363  22.645  28.968   4.134
36104W        W 8364  30.259   3.610  10.615
36105W        W 8365  22.639   4.796  12.292
36106W        W 8366   8.556  22.219  12.902
36107W        W 8367   1.970  35.420  13.460
36108W        W 8368  32.554   1.942   3.753
36109W        W 8369  24.406  13.166   3.071
36110W        W 8370  15.733  23.848   2.590
36111W        W 8371   4.229  39.218  13.978
36112W        W 8372  40.354  11.208  12.040
36113W        W 8373   0.962  17.672  14.790
36114W        W 8374  42.265  25.061  11.461
36115W        W 8375  31.035  36.459   1.908
36116W        W 8376  32.902  18.724  10.622
36117W        W 8377   5.549   0.328   3.172
36118W        W 8378  19.202   6.735  13.034
36119W        W 8379   7.363  30.592  11.130
36120W        W 8380  24.384   1.199  14.528
36121W        W 8381  42.659   6.317   4.186
36122W        W 8382  16.895  34.722   5.110
36123W        W 8383   0.018   6.558   2.593
36124W        W 8384   5.701  23.035  10.963
36125W        W 8385  31.681   2.374   4.580
36126W        W 8386  44.875  31.536   2.166
36127W        W 8387  11.377  40.422  12.042
36128W        W 8388  20.194   2.393  12.351
36129W        W 8389   1.915   7.917  11.755
36130W        W 8390   0.288  29.575  14.501
36131W        W 8391  16.825  18.596  11.181
36132W        W 8392  36.598   6.802   2.173
36133W        W 8393  33.067   1.006   2.234
36134W        W 8394   5.729   3.007   4.547
36135W        W 8395  35.577  23.397  13.660
36136W        W 8396  40.050  20.207  14.945
36137W        W 8397  37.005   4.528   4.812
36138W        W 8398  36.524  38.783  14.888
36139W        W 8399  12.673  21.047   3.315
36140W        W 8400  25.511  31.332   4.572
36141W        W 8401  34.437   7.170  12.221
36142W        W 8402  28.271  14.489   3.359
36143W        W 8403  14.825   7.156   3.429
36144W        W 8404   1.526  43.313  12.501
36145W        W 8405  23.106  41.527   0.688
36146W        W 8406  12.326  21.299  13.424
36147W        W 8407  42.334   5.157  14.794
36148W        W 8408  40.526  37.843  13.962
36149W        W 8409  14.396  14.684   4.953
36150W        W 8410  29.162  22.054   4.198
36151W        W 8411  31.125  16.658   1.344
36152W        W 8412  24.910  42.172  12.600
36153W        W 8413   1.263  26.957   1.786
36154W        W 8414  18.118  43.819   2.781
36155W        W 8415   5.998  33.168   0.380
36156W        W 8416   6.465  44.758  12.668
36157W        W 8417  13.115   1.787  12.359
36158W        W 8418   0.881  33.502   1.485
36159W        W 8419  40.484   3.981   4.096
36160W        W 8420  28.954   2.787   1.355
36161W        W 8421   0.175   2.981  14.252
36162W        W 8422  19.770   9.458  14.555
36163W        W 8423   4.877   7.651   3.850
36164W        W 8424  21.704  27.263  13.583
36165W        W 8425  13.311  11.657  14.785
36166W        W 8426  10.280  39.001   3.220
36167W        W 8427  15.014  41.950   0.248
36168W        W 8428   5.308  34.073  13.932
36169W        W 8429  43.532  32.049  12.084
36170W        W 8430  12.292   8.694  11.496
36171W        W 8431  21.163  18.343   2.779
36172W        W 8432  34.954  40.418   1.905
36173W        W 8433  23.768  20.462  12.927
36174W        W 8434   0.506  33.514  13.997
36175W        W 8435   9.159  28.558   3.712
36176W        W 8436  25.935  41.413  12.031
36177W        W 8437  28.298  28.001   3.218
36178W        W 8438  28.940  10.825  14.011
36179W        W 8439  17.088   3.303   3.152
36180W        W 8440  35.984  37.143  14.548
36181W        W 8441   3.445  14.272   1.409
36182W        W 8442  13.686  22.922   1.140
36183W        W 8443  11.904   6.458  12.059
36184W        W 8444  38.718  10.404   4.094
36185W        W 8445  11.606   8.445  10.391
36186W        W 8446  39.493  31.494   1.407
36187W        W 8447  18.276  11.001  10.991
36188W        W 8448  13.818   0.309   1.881
36189W        W 8449  26.511  30.326  13.304
36190W        W 8450  38.566   5.662  11.025
36191W        W 8451   8.126  34.942   3.278
36192W        W 8452  44.835  32.076  14.058
36193W        W 8453   9.797   7.231  10.578
36194W        W 8454  41.642  13.819   3.696
36195W        W 8455  34.205  25.280   3.324
36196W        W 8456   1.363  26.322   2.960
36197W        W 8457   2.391  32.908  12.936
36198W        W 8458  35.648   0.989  13.074
36199W        W 8459   1.307  34.881   2.425
36200W        W 8460  15.165  34.560   0.465
36201W        W 8461   0.578  10.695   1.453
36202W        W 8462  13.287  30.127   5.480
36203W        W 8463   4.726   8.648   3.689
36204W        W 8464  35.959  36.616  10.460
36205W        W 8465  12.665   9.889   3.132
36206W        W 8466  17.692   7.005   4.324
36207W        W 8467  13.289  34.426  13.219
36208W        W 8468  13.517  22.955  13.290
36209W        W 8469  34.546   3.118   1.802
36210W        W 8470   5.292  26.902   1.212
36211W        W 8471   0.993   5.516   4.872
36212W        W 8472  38.491  38.581   3.810
36213W        W 8473   4.626   6.809   2.403
36214W        W 8474   8.248  22.793  13.411
36215W        W 8475  25.939  20.642  14.220
36216W        W 8476  32.986  23.116  14.465
36217W        W 8477  36.497  26.007  10.823
36218W        W 8478  29.489  30.479  11.560
36219W        W 8479  26.053  35.389   3.671
36220W        W 8480  23.614   7.223  13.876
36221W        W 8481  16.691  26.731  11.931
36222W        W 8482  37.919   8.199  14.484
36223W        W 8483  15.254   5.226  11.651
36224W        W 8484  36.945  19.414   0.666
36225W        W 8485  41.764   4.435  14.283
36226W        W 8486   6.743  35.867   1.203
36227W        W 8487  35.917  41.434   0.285
36228W        W 8488  16.304  29.853   2.274
36229W        W 8489  30.459  42.359  12.497
36230W        W 8490  43.450  23.613   1.679
36231W        W 8491  22.741  25.616  14.960
36232W        W 8492  33.987  35.630  14.602
36233W        W 8493  11.095  24.449   2.814
36234W        W 8494  23.899  18.159   3.272
36235W        W 8495  14.002  38.314   2.170
36236W        W 8496   0.209  37.869   2.696
36237W        W 8497  14.353  20.127  12.948
36238W        W 8498  39.027   2.787   2.409
36239W        W 8499  20.667  28.685   3.407
36240W        W 8500  38.329  43.704  14.276
36241W        W 8501  13.731   3.903   4.852
36242W        W 8502  25.425   1.453   0.029
36243W        W 8503  18.305  20.070  14.349
36244W        W 8504  14.851   6.582  12.656
36245W        W 8505  34.701  34.045   4.121
36246W        W 8506  13.347  18.497  11.115
36247W        W 8507  11.018  44.517  14.077
36248W        W 8508  24.070  26.555  14.329
36249W        W 8509   0.259  43.077  14.425
36250W        W 8510  40.709  33.868  13.922
36251W        W 8511  16.059  18.117   0.949
36252W        W 8512  15.600  37.961  14.455
36253W        W 8513  41.342  33.140   1.767
36254W        W 8514  13.150  26.188   2.734
36255W        W 8515  22.186  29.169   2.358
36256W        W 8516   5.306  44.898   3.339
36257W        W 8517   0.577  10.637  11.505
36258W        W 8518  43.279  34.495  11.362
36259W        W 8519  40.906  18.082  14.864
36260W        W 8520   8.758   1.964   0.941
36261W        W 8521  31.338  14.651   3.886
36262W        W 8522  11.917  10.565   2.905
36263W        W 8523   6.363   5.385   0.321
36264W        W 8524  43.513   3.049  14.727
36265W        W 8525  31.385  40.416   2.234
36266W        W 8526  24.791   4.711  13.998
36267W        W 8527  36.044   3.434   4.392
36268W        W 8528  10.421   7.035   5.128
36269W        W 8529  15.222  10.624  14.974
36270W        W 8530  28.545  37.806  10.577
36271W        W 8531  32.386   9.183   2.787
36272W        W 8532  19.001  34.351  11.580
36273W        W 8533   1.449   5.904   2.215
36274W        W 8534  16.014  25.403   2.644
36275W        W 8535   7.598  21.711   1.453
36276W        W 8536  15.672  29.526   1.583
36277W        W 8537  34.868  34.629   4.201
36278W        W 8538  34.690  34.923  12.423
36279W        W 8539  19.995  33.369   1.748
36280W        W 8540  24.521  22.211   0.788
36281W        W 8541  20.264  10.832  13.103
36282W        W 8542  24.050  21.457   1.606
36283W        W 8543  12.577  14.613   2.770
36284W        W 8544   6.845  10.666   2.979
36285W        W 8545  29.484  32.633   0.812
36286W        W 8546  35.789  37.010   2.426
36287W        W 8547   9.309  20.593  13.104
36288W        W 8548  25.274  39.554  12.088
36289W        W 8549  38.081  23.986   3.769
36290W        W 8550  21.306  32.452   4.133
36291W        W 8551  32.016  25.781  10.705
36292W        W 8552  16.869   2.784   0.768
36293W        W 8553  18.615   8.764   1.710
36294W        W 8554  30.621  20.254   3.236
36295W        W 8555  18.773   2.389  13.951
36296W        W 8556  32.983   9.388  12.630
36297W        W 8557   2.445  27.820  12.145
36298W        W 8558  13.467  13.564   4.695
36299W        W 8559  31.485  31.053   2.794
36300W        W 8560  15.082  17.750   1.799
36301W        W 8561   1.845  13.346   0.189
36302W        W 8562  42.838  14.840   3.814
36303W        W 8563  23.939  40.081   1.300
36304W        W 8564  13.281  33.070   0.768
36305W        W 8565  33.983  26.499  14.446
36306W        W 8566  19.969  37.348  11.146
36307W        W 8567  15.433  38.407   5.254
36308W        W 8568   5.374  12.632   2.794
36309W        W 8569  36.876  16.580   3.195
36310W        W 8570  29.051  13.346  10.774
36311W        W 8571  14.723  34.527   4.168
36312W        W 8572  44.358  17.695  14.295
36313W        W 8573  17.370   6.153   3.351
36314W        W 8574  19.433  30.131   2.394
36315W        W 8575  30.947  14.151  14.450
36316W        W 8576  18.082   1.511  10.664
36317W        W 8577   4.362  31.970   1.920
36318W        W 8578  25.633  14.757  14.074
36319W        W 8579  15.132  29.852  10.610
36320W        W 8580  23.165  34.506   4.552
36321W        W 8581  44.888  38.923  13.524
36322W        W 8582  12.193   8.764  14.290
36323W        W 8583  16.499   3.002  10.990
36324W        W 8584  44.794  20.525   0.263
36325W        W 8585  31.847  18.120   4.648
36326W        W 8586  17.138  14.632   0.574
36327W        W 8587   8.306  23.633  13.677
36328W        W 8588  33.986  26.578  13.053
36329W        W 8589   9.656  30.015   2.270
36330W        W 8590   9.817   5.891  12.956
36331W        W 8591   2.293  18.746   3.838
36332W        W 8592  13.097  13.507  11.484
36333W        W 8593   3.466  33.020   3.063
36334W        W 8594  18.667  10.119  14.828
36335W        W 8595   7.427  23.009   2.163
36336W        W 8596  26.128  35.511   4.647
36337W        W 8597  11.147  25.213  12.900
36338W        W 8598  42.416  34.417   3.804
36339W        W 8599  29.412   5.764   1.461
36340W        W 8600  22.746  11.250  14.005
36341W        W 8601   5.488  25.082  11.051
36342W        W 8602  37.616  42.000  11.614
36343W        W 8603  36.870  37.063  11.337
36344W        W 8604  25.779  19.977   4.338
36345W        W 8605   9.209  42.916  14.022
36346W        W 8606  41.406   3.442   3.201
36347W        W 8607  41.636  25.087  10.667
36348W        W 8608  38.171  19.202  14.421
36349W        W 8609   9.388  24.482   0.833
36350W        W 8610  37.586  17.269  14.266
36351W        W 8611  35.480  28.288   0.441
36352W        W 8612   9.679  23.981   3.250
36353W        W 8613   9.310   6.574   3.378
36354W        W 8614  26.474   7.221  14.265
36355W        W 8615  13.673  42.791  11.932
36356W        W 8616  38.608   0.783   0.408
36357W        W 8617   7.237  15.020   0.530
36358W        W 8618   8.844   0.394   3.861
36359W        W 8619  42.469  35.170   0.785
36360W        W 8620   7.926  32.635  11.544
36361W        W 8621   0.170  31.345  14.962
36362W        W 8622   1.655  19.874  11.959
36363W        W 8623  38.352  25.153   0.961
36364W        W 8624  20.276  34.934   2.938
36365W        W 8625  20.684  38.090  13.290
36366W        W 8626  42.971  19.761   0.478
36367W        W 8627  28.428  29.940  10.159
36368W        W 8628  38.947  40.382   4.924
36369W        W 8629  26.852   8.343   4.791
36370W        W 8630  11.414  43.468  12.131
36371W        W 8631  36.422  10.264   3.706
36372W        W 8632  12.361   5.338  11.059
36373W        W 8633  27.069  28.149  10.079
36374W        W 8634  34.408  26.446  10.189
36375W        W 8635  39.469   2.209  11.697
36376W        W 8636  29.381   0.445  13.091
36377W        W 8637  40.934  39.415   1.535
36378W        W 8638  16.141  22.159   1.528
36379W        W 8639  44.052   1.945  12.044
36380W        W 8640  15.614   7.113   1.970
36381W        W 8641  43.329  27.701  12.162
36382W        W 8642  30.530  15.827  12.207
36383W        W 8643  35.242  27.806   4.729
36384W        W 8644  14.299   7.119  12.349
36385W        W 8645  43.618  19.213   4.152
36386W        W 8646   6.848  31.299  13.338
36387W        W 8647  27.537  38.375  10.772
36388W        W 8648  26.866   1.253   3.216
36389W        W 8649  33.416  13.673   0.008
36390W        W 8650  36.168   4.335  12.103
36391W        W 8651  18.755  25.543   4.538
36392W        W 8652  13.215  20.561   4.823
36393W        W 8653  43.071  15.725  13.547
36394W        W 8654  26.500  17.558   2.299
36395W        W 8655   6.520  23.722  13.960
36396W        W 8656  35.992  34.929   2.358
36397W        W 8657  39.268  10.678   3.245
36398W        W 8658  38.331   6.745  12.639
36399W        W 8659  29.702   2.673   0.837
36400W        W 8660  33.663   4.560   0.081
36401W        W 8661  34.095  36.146  12.438
36402W        W 8662  28.958  43.473   4.794
36403W        W 8663  24.385   2.037   4.999
36404W        W 8664  41.644  16.049  11.135
36405W        W 8665  31.125  29.386   4.619
36406W        W 8666  25.200   6.880  13.104
36407W        W 8667  41.191  11.162   3.224
36408W        W 8668   1.716   3.474  13.507
36409W        W 8669  22.542  24.004  10.898
36410W        W 8670  18.688  15.046   2.591
36411W        W 8671  41.514  36.045  12.487
36412W        W 8672  13.206  33.262  12.953
36413W        W 8673  25.281  33.982  12.405
36414W        W 8674  44.490  21.595  13.832
36415W        W 8675   7.266  31.541   4.086
36416W        W 8676  31.728  14.297   9.987
36417W        W 8677  39.059  20.467  13.401
36418W        W 8678  43.816  43.046  12.056
36419W        W 8679  14.862  34.987   0.481
36420W        W 8680  25.232  20.048  13.144
36421W        W 8681  11.912  29.406   2.303
36422W        W 8682  28.612  38.426  12.915
36423W        W 8683   2.250  31.928  13.957
36424W        W 8684   0.239  27.476   4.145
36425W        W 8685   2.672  24.104  14.615
36426W        W 8686  25.582  43.428  11.449
36427W        W 8687   3.841  13.604   2.560
36428W        W 8688  41.869  33.750   0.382
36429W        W 8689  23.080  42.411  12.089
36430W        W 8690  42.456  28.693   1.675
36431W        W 8691   5.234  28.925  14.897
36432W        W 8692  35.427  12.676   4.364
36433W        W 8693  17.913  22.921  14.515
36434W        W 8694  29.212  37.074   3.158
36435W        W 8695   3.949  30.211  14.837
36436W        W 8696   2.522  33.547   2.870
36437W        W 8697  39.502  12.275  11.134
36438W        W 8698  20.018  36.851  12.651
36439W        W 8699   3.482  34.081  13.411
36440W        W 8700  20.559   6.898  12.270
36441W        W 8701  33.239  25.996  12.218
36442W        W 8702   9.930  39.391  11.274
36443W        W 8703   1.580   8.606   2.703
36444W        W 8704  12.076  39.528   0.996
36445W        W 8705  25.492  13.643   4.302
36446W        W 8706   3.712  42.658  11.257
36447W        W 8707  28.638  32.559   0.489
36448W        W 8708  42.583   1.849  11.008
36449W        W 8709  22.687   8.704  14.956
36450W        W 8710  15.154  17.892   5.198
36451W        W 8711  10.166   4.546   4.583
36452W        W 8712  14.865   0.413   2.228
36453W        W 8713  34.534   2.412  13.306
36454W        W 8714  17.145  32.771   0.705
36455W        W 8715   0.502  30.966   3.371
36456W        W 8716  10.738  24.660   4.345
36457W        W 8717  27.402   5.015  11.106
36458W        W 8718  23.428  11.378  13.624
36459W        W 8719  35.993  29.501  14.543
36460W        W 8720   7.837  35.431   4.877
36461W        W 8721  39.312  41.737   3.841
36462W        W 8722  43.761  30.973   3.301
36463W        W 8723  27.490  19.658   3.240
36464W        W 8724  44.462   7.139  10.697
36465W        W 8725   6.875   7.446  14.969
36466W        W 8726  23.605  40.355   4.238
36467W        W 8727  25.205   2.295  12.120
36468W        W 8728  19.773  29.451   3.286
36469W        W 8729  44.160  10.523  12.534
36470W        W 8730  36.448  20.670  13.864
36471W        W 8731  33.985  13.174   3.423
36472W        W 8732  21.136   1.928   3.366
36473W        W 8733  34.786  43.276  14.371
36474W        W 8734  15.585  38.105  11.578
36475W        W 8735   5.018  31.869  14.349
36476W        W 8736  32.456  17.998   3.273
36477W        W 8737  44.260  31.070  14.399
36478W        W 8738  11.763  33.245  10.076
36479W        W 8739  41.366  17.231   4.212
36480W        W 8740  10.417  40.784   0.364
36481W        W 8741  42.908  18.096  14.707
36482W        W 8742  44.211  36.812   0.957
36483W        W 8743  34.543  42.378   4.341
36484W        W 8744   3.487  24.416   1.692
36485W        W 8745  26.130  36.469  10.915
36486W        W 8746  10.161  24.664   0.349
36487W        W 8747   3.784   0.363   3.720
36488W        W 8748   4.716   2.230  12.408
36489W        W 8749  31.289  43.093  11.280
36490W        W 8750  42.488  40.464  11.649
36491W        W 8751  41.726   4.749   2.738
36492W        W 8752  18.537  35.167  14.396
36493W        W 8753  22.989  36.071   0.465
36494W        W 8754  43.448  44.903   4.053
36495W        W 8755  39.965  31.749   1.328
36496W        W 8756  38.479  34.156  11.316
36497W        W 8757   7.221  13.437  12.506
36498W        W 8758  37.495  18.901  12.810
36499W        W 8759  37.577  31.538  13.894
36500W        W 8760  40.021  38.837  11.941
36501W        W 8761  29.513  39.073   4.645
36502W        W 8762  38.643  19.121  13.614
36503W        W 8763  20.200  36.681   5.002
36504W        W 8764   3.104  29.748   4.266
36505W        W 8765  40.197  43.334  10.704
36506W        W 8766  30.032  22.342  12.395
36507W        W 8767  18.729  38.005   1.655
36508W        W 8768  42.222  10.512   4.266
36509W        W 8769  19.367  16.691  11.823
36510W        W 8770  14.403  36.482  12.587
36511W        W 8771  34.442  29.180  12.181
36512W        W 8772  31.087  34.382   1.335
36513W        W 8773   5.923  44.372   2.750
36514W        W 8774  39.969  42.931  10.929
36515W        W 8775   7.693  30.677  13.322
36516W        W 8776   3.899   4.260   2.421
36517W        W 8777  40.815  28.148   2.129
36518W        W 8778  30.532   3.828   1.864
36519W        W 8779   4.878  11.529   1.855
36520W        W 8780  10.414  21.020   3.300
36521W        W 8781  37.106  21.522   3.308
36522W        W 8782  12.093  33.593  13.542
36523W        W 8783  39.281  17.136  13.921
36524W        W 8784  41.759  10.267  12.050
36525W        W 8785  19.004  37.302  14.308
36526W        W 8786   4.241  39.470   4.383
36527W        W 8787  35.772   3.196   1.333
36528W        W 8788   5.384   1.746  12.958
36529W        W 8789  26.756  30.201   4.395
36530W        W 8790   1.316  28.668   0.382
36531W        W 8791  34.578  19.673  11.615
36532W        W 8792  28.097  18.630   2.225
36533W        W 8793  42.317  38.877   1.029
36534W        W 8794  24.257  44.818  10.454
36535W        W 8795  25.716  15.931   0.581
36536W        W 8796  42.012   5.092  11.118
36537W        W 8797  23.296  16.136   4.889
36538W        W 8798   7.438  29.298  12.497
36539W        W 8799  44.823  41.771  14.474
36540W        W 8800  28.713   6.737   0.245
36541W        W 8801   0.138   7.305  12.645
36542W        W 8802  34.622  31.512   3.221
36543W        W 8803  14.585   3.138   4.131
36544W        W 8804  22.996  21.678  11.028
36545W        W 8805  11.844   9.546  11.584
36546W        W 8806  21.440   9.922  14.908
36547W        W 8807   3.478  14.293   4.156
36548W        W 8808  42.522   9.977  13.653
36549W        W 8809   1.473  36.479  14.861
36550W        W 8810   4.810  20.228  14.374
36551W        W 8811  13.644  43.652  10.751
36552W        W 8812  33.904   3.974  13.082
36553W        W 8813  38.534  30.087  13.330
36554W        W 8814  16.989  41.990  10.675
36555W        W 8815  36.444  13.250   1.942
36556W        W 8816   8.829  36.360  13.610
36557W        W 8817  25.019  38.715  12.022
36558W        W 8818  22.221   9.215  14.943
36559W        W 8819  43.804  12.634  11.677
36560W        W 8820   1.253   2.486  10.774
36561W        W 8821   2.006  39.616   3.768
36562W        W 8822  23.985  20.710   2.889
36563W        W 8823   3.478   2.896   0.890
36564W        W 8824  25.785   1.422  13.549
36565W        W 8825   0.944   9.338   4.454
36566W        W 8826  40.875  26.242   1.324
36567W        W 8827  36.368  16.550  13.898
36568W        W 8828   6.854  32.409   0.179
36569W        W 8829  14.733  23.546   2.851
36570W        W 8830  26.959  14.264  13.849
36571W        W 8831  20.428  31.437  13.656
36572W        W 8832  15.183  28.683  11.598
36573W        W 8833   3.375  35.387   2.377
36574W        W 8834  41.286  13.293   4.606
36575W        W 8835  29.424   5.727  14.981
36576W        W 8836  33.757   6.227   2.278
36577W        W 8837  36.649  40.356   2.934
36578W        W 8838  41.091  24.947   2.608
36579W        W 8839   7.820  27.253  14.094
36580W        W 8840  13.590  31.144   3.207
36581W        W 8841  28.094  15.826  12.990
36582W        W 8842   7.831  27.810  11.047
36583W        W 8843  33.094   7.043   1.583
36584W        W 8844  27.880   1.217  13.052
36585W        W 8845   0.017  44.030  13.496
36586W        W 8846  42.840   4.450   0.644
36587W        W 8847   2.789  20.916   3.969
36588W        W 8848  21.183  35.804  11.107
36589W        W 8849  18.565  39.018   0.273
36590W        W 8850  30.627   7.256  12.196
36591W        W 8851  38.033  30.882   3.286
36592W        W 8852   7.116   4.694  12.072
36593W        W 8853  17.517  41.944  13.467
36594W        W 8854  38.936  28.621  14.000
36595W        W 8855  26.526   6.706   3.733
36596W        W 8856   5.342  27.643   5.369
36597W        W 8857  43.532  18.082   3.166
36598W        W 8858  26.365   9.235  10.764
36599W        W 8859  25.084  25.466  11.594
36600W        W 8860  41.910  40.535  11.875
36601W        W 8861  33.382  21.169  14.368
36602W        W 8862  44.499   3.167   0.266
36603W        W 8863  44.763  21.035   2.397
36604W        W 8864   6.247  40.904   3.093
36605W        W 8865  30.850   7.329  10.409
36606W        W 8866   0.307   5.584   1.431
36607W        W 8867   1.362  13.318  11.633
36608W        W 8868  15.316  17.006   2.466
36609W        W 8869  25.437   7.625   0.014
36610W        W 8870  23.129  14.591  12.663
36611W        W 8871  15.448   4.754   1.402
36612W        W 8872   9.406  41.099   3.039
36613W        W 8873  31.508  10.775  10.903
36614W        W 8874  19.313  16.654  14.295
36615W        W 8875  27.585   1.446   1.974
36616W        W 8876  33.389  28.579   1.628
36617W        W 8877   4.452   2.724  12.463
36618W        W 8878  12.276  30.673   2.137
36619W        W 8879  33.881  41.930  11.934
36620W        W 8880  28.009  15.429   0.525
36621W        W 8881  41.870  18.447   0.314
36622W        W 8882  25.676  10.150  12.158
36623W        W 8883  19.309  21.446  10.513
36624W        W 8884   6.830  10.158  11.608
36625W        W 8885  26.341  12.909  12.131
36626W        W 8886   6.398  24.906   2.697
36627W        W 8887   4.633  33.501   3.753
36628W        W 8888  40.376  44.377  13.358
36629W        W 8889   3.617  18.706  14.304
36630W        W 8890   9.146   7.599   1.817
36631W        W 8891   1.931  43.776   1.442
36632W        W 8892  15.318  33.355  14.884
36633W        W 8893  37.561  37.209  12.535
36634W        W 8894  17.061  20.542  11.919
36635W        W 8895  23.597  27.491   5.048
36636W        W 8896  14.193  23.308  10.518
36637W        W 8897  18.100  13.640  10.930
36638W        W 8898  39.156   0.089  10.548
36639W        W 8899  16.362   7.455  12.473
36640W        W 8900   8.919  31.987   3.478
36641W        W 8901  22.710  24.426   2.670
36642W        W 8902  11.707  44.368   0.136
36643W        W 8903  23.329   6.848  12.932
36644W        W 8904  26.296  37.237  14.323
36645W        W 8905  13.583   9.573  10.947
36646W        W 8906  33.494   5.325   4.075
36647W        W 8907   7.750  28.828  11.095
36648W        W 8908   9.916  35.163   1.719
36649W        W 8909  41.902  40.500  10.891
36650W        W 8910   9.659  42.308  10.655
36651W        W 8911  14.350   6.653   4.199
36652W        W 8912  44.107  35.752   2.366
36653W        W 8913  39.400  32.882   2.618
36654W        W 8914  31.111  18.394   0.798
36655W        W 8915  32.419  10.105  11.231
36656W        W 8916  43.058  44.553   0.962
36657W        W 8917  31.673  43.841  12.479
36658W        W 8918   5.512  10.767  11.600
36659W        W 8919  38.335  15.300   2.380
36660W        W 8920  27.151  14.768  11.136
36661W        W 8921  31.590   7.766  12.924
36662W        W 8922  41.325  43.289   3.774
36663W        W 8923   1.438   8.105  14.315
36664W        W 8924   0.430  20.041   1.473
36665W        W 8925  42.924  25.644  13.070
36666W        W 8926  16.285  25.777   1.698
36667W        W 8927  13.702   1.413  13.847
36668W        W 8928  20.247  28.066   0.327
36669W        W 8929  16.651  18.630  12.646
36670W        W 8930  41.447  39.500   1.295
36671W        W 8931  14.581  32.066   1.312
36672W        W 8932   0.850  38.016  11.095
36673W        W 8933  34.345  28.555   1.947
36674W        W 8934  44.483  26.232   4.138
36675W        W 8935  22.237  29.693  11.095
36676W        W 8936  28.634   5.255  13.970
36677W        W 8937  38.454   5.636  12.343
36678W        W 8938  42.031  40.906   4.622
36679W        W 8939  30.395  35.412  13.976
36680W        W 8940  37.080  23.769  13.584
36681W        W 8941  17.197  31.843  13.428
36682W        W 8942  38.950  11.430   0.960
36683W        W 8943  14.125   8.953  10.025
36684W        W 8944   6.847  30.574  14.776
36685W        W 8945  44.358   7.660   0.323
36686W        W 8946  16.175  25.742   3.058
36687W        W 8947  32.676  11.525  14.457
36688W        W 8948  30.506  33.874  14.962
36689W        W 8949  34.444  36.365   4.081
36690W        W 8950  28.929   8.692  11.014
36691W        W 8951   5.329  20.220   2.757
36692W        W 8952  18.405  40.875   1.304
36693W        W 8953  14.283  39.980  11.520
36694W        W 8954  15.682  26.782  10.149
36695W        W 8955  19.158  16.041  12.481
36696W        W 8956   6.662  24.678   0.783
36697W        W 8957  20.788   5.445  10.691
36698W        W 8958   3.785  32.821  13.784
36699W        W 8959   5.322  12.110  13.246
36700W        W 8960  34.829  43.980  12.081
36701W        W 8961  37.844  13.517   1.387
36702W        W 8962  15.757  28.145   1.235
36703W        W 8963  27.952  17.591  13.937
36704W        W 8964  27.394  17.916  12.786
36705W        W 8965  17.798  27.504   1.743
36706W        W 8966  22.079  42.011   4.161
36707W        W 8967  38.406  34.617  11.127
36708W        W 8968  15.116  21.945  10.888
36709W        W 8969  43.222   0.491  11.142
36710W        W 8970  40.967  38.813  11.536
36711W        W 8971  36.842  20.257   0.670
36712W        W 8972  37.748  42.496  12.458
36713W        W 8973  13.224  31.640   2.253
36714W        W 8974  34.022  10.718  13.803
36715W        W 8975  19.699  39.395  12.047
36716W        W 8976   5.455  42.276  12.408
36717W        W 8977  39.198  13.506  10.841
36718W        W 8978   7.440   6.422  11.054
36719W        W 8979  19.656  41.271   1.624
36720W        W 8980  32.043  27.634   2.851
36721W        W 8981  38.393   0.160   4.441
36722W        W 8982  38.975  13.752  13.121
36723W        W 8983  20.569  28.193  13.422
36724W        W 8984  39.443  10.620   0.725
36725W        W 8985  36.605  38.519   4.078
36726W        W 8986  35.398   3.695  14.723
36727W        W 8987  23.060  40.566  14.322
36728W        W 8988  17.256  24.694  13.365
36729W        W 8989  43.317  18.623   2.331
36730W        W 8990  22.076  38.812  11.985
36731W        W 8991  28.008  41.578  11.490
36732W        W 8992  38.467  20.778  11.421
36733W        W 8993  17.631  33.697   3.515
36734W        W 8994  29.866  17.187   4.068
36735W        W 8995  43.114  32.879   4.956
36736W        W 8996  35.502  28.678  10.730
36737W        W 8997  33.601  23.074  10.338
36738W        W 8998  14.034   4.280   5.045
36739W        W 8999  29.700  40.543  13.117
36740W        W 9000  40.413  26.440   2.286
36741W        W 9001  17.791   4.413  13.268
36742W        W 9002  21.963  20.654   3.225
36743W        W 9003  40.302  28.753   1.518
36744W        W 9004   2.198   5.174   4.132
36745W        W 9005   5.809  32.481  10.893
36746W        W 9006  29.788  43.827  12.883
36747W        W 9007  44.951  20.040  13.516
36748W        W 9008  34.707  14.297  12.031
36749W        W 9009  30.661   0.290  11.481
36750W        W 9010   9.362  13.304  10.588
36751W        W 9011  19.163  31.929  11.165
36752W        W 9012  31.150   7.794   3.716
36753W        W 9013   4.244  26.359  10.668
36754W        W 9014  12.064  15.262  12.950
36755W        W 9015  14.368   4.990  10.562
36756W        W 9016  44.967  19.152   1.090
36757W        W 9017  25.908   7.941   3.662
36758W        W 9018   5.601   3.074  13.586
36759W        W 9019  13.248   9.350   1.530
36760W        W 9020  44.035  21.550  14.072
36761W        W 9021   2.521  40.334  10.634
36762W        W 9022  24.722  17.153   3.311
36763W        W 9023  10.151  20.063   3.299
36764W        W 9024   3.435  32.493   5.037
36765W        W 9025  41.728  12.231   1.181
36766W        W 9026  40.228  21.818  12.446
36767W        W 9027   4.945   0.786   1.274
36768W        W 9028  13.852  28.698  14.619
36769W        W 9029  13.881  23.694   2.500
36770W        W 9030  33.353  11.866  13.037
36771W        W 9031  14.751  16.039  10.315
36772W        W 9032  30.461   9.010   4.285
36773W        W 9033  36.388  36.183  11.060
36774W        W 9034  13.365  24.590   4.772
36775W        W 9035   1.079  34.895   1.552
36776W        W 9036  24.084  29.643   1.766
36777W        W 9037  25.141  21.707   0.196
36778W        W 9038  26.612  38.729   2.080
36779W        W 9039  15.524  34.919  10.896
36780W        W 9040   6.217  25.244   3.287
36781W        W 9041  21.861  31.886  14.796
36782W        W 9042   9.117  18.737  13.506
36783W        W 9043  20.781   3.873  14.891
36784W        W 9044  42.955  43.224  11.706
36785W        W 9045  25.146  27.436  12.921
36786W        W 9046   2.483  15.754  12.766
36787W        W 9047   1.173  38.486  12.523
36788W        W 9048  34.312   1.256   0.310
36789W        W 9049  34.129  33.946   1.467
36790W        W 9050  27.982  40.572   3.692
36791W        W 9051  41.346  24.260   1.418
36792W        W 9052  32.997  27.694  12.992
36793W        W 9053  33.385  38.816  10.529
36794W        W 9054  18.155   2.077  12.006
36795W        W 9055  19.250   0.791  14.766
36796W        W 9056  11.376  44.498  10.584
36797W        W 9057  41.578  15.523  11.184
36798W        W 9058   2.790  32.537  11.972
36799W        W 9059  12.254  11.374   3.965
36800W        W 9060  14.842   9.230  14.425
36801W        W 9061  40.986  36.930   1.673
36802W        W 9062  13.221  25.664  13.183
36803W        W 9063   3.760  42.484  14.566
36804W        W 9064  10.142   2.400   1.712
36805W        W 9065   7.625   2.324  14.013
36806W        W 9066  15.122  27.017  11.488
36807W        W 9067  42.220  40.438  10.501
36808W        W 9068   0.562  31.747  13.475
36809W        W 9069  25.692  23.174   3.473
36810W        W 9070  29.552  32.929   2.895
36811W        W 9071  16.324  41.823  11.450
36812W        W 9072  33.198  37.888  11.352
36813W        W 9073  36.935   7.404   3.128
36814W        W 9074  30.288  25.446  13.831
36815W        W 9075   8.365  16.147  14.208
36816W        W 9076  15.551   3.453   4.199
36817W        W 9077   7.622  36.767   4.266
36818W        W 9078  25.012  41.659   1.160
36819W        W 9079  24.949  19.396  14.965
36820W        W 9080   0.101   9.060   3.764
36821W        W 9081   5.670  23.765   1.347
36822W        W 9082  40.078  14.212  11.717
36823W        W 9083   4.628  39.830   0.759
36824W        W 9084  31.904   8.019  10.768
36825W        W 9085  11.743  39.069   2.366
36826W        W 9086  21.180  24.792   4.633
36827W        W 9087  26.000  42.122   3.937
36828W        W 9088  14.668  21.600   0.772
36829W        W 9089  41.917  27.171   0.278
36830W        W 9090   8.934  30.219   2.807
36831W        W 9091  39.811   1.799   0.321
36832W        W 9092  10.864  25.414  13.471
36833W        W 9093   4.293   5.417   0.704
36834W        W 9094  44.978  37.068  13.391
36835W        W 9095  30.554  13.186   3.116
36836W        W 9096  11.824  22.266  13.739
36837W        W 9097  32.453  15.068  13.876
36838W        W 9098  28.071  36.892  12.057
36839W        W 9099  42.783  16.581  11.076
36840W        W 9100  40.788   1.523   0.375
36841W        W 9101  10.707   3.176   2.565
36842W        W 9102   5.928  17.837  12.425
36843W        W 9103  27.463  25.625   4.293
36844W        W 9104  34.932  11.845  11.244
36845W        W 9105   1.983   4.322  14.306
36846W        W 9106   4.220  19.083  11.998
36847W        W 9107  42.308  31.576   0.701
36848W        W 9108  17.315  17.213   3.559
36849W        W 9109  31.677  33.516   4.084
36850W        W 9110  42.815  43.584   3.890
36851W        W 9111  11.299   6.154  14.998
36852W        W 9112  40.460   6.151   3.697
36853W        W 9113  37.488  11.374  10.089
36854W        W 9114  44.619   3.354  11.425
36855W        W 9115  40.230  24.532   3.540
36856W        W 9116  43.670   5.484   2.034
36857W        W 9117  41.858   0.966   3.616
36858W        W 9118  11.139  22.574  10.318
36859W        W 9119  13.135  25.813  11.233
36860W        W 9120   5.258  25.316  11.479
36861W        W 9121  28.993  23.694   0.764
36862W        W 9122  31.427  26.732   3.640
36863W        W 9123  32.158  34.342   2.124
36864W        W 9124  30.541  20.259  11.056
36865W        W 9125  35.890   0.235  12.059
36866W        W 9126  27.689  42.894   4.920
36867W        W 9127  21.259  36.875   2.280
36868W        W 9128  31.522  14.855  14.820
36869W        W 9129  43.233   6.294   0.735
36870W        W 9130   7.394  11.263  11.030
36871W        W 9131   0.318  44.590  10.635
36872W        W 9132   0.276  11.650   4.750
36873W        W 9133  41.492  42.874  12.992
36874W        W 9134  37.558  44.932   1.827
36875W        W 9135  34.611  17.403   3.552
36876W        W 9136  11.318  23.423  11.266
36877W        W 9137   2.977  39.828   3.653
36878W        W 9138   3.676  19.811  12.624
36879W        W 9139   5.437  22.563   1.021
36880W        W 9140  43.900  37.325  12.530
36881W        W 9141  23.958  32.500   0.279
36882W        W 9142   3.952   3.995   1.332
36883W        W 9143  36.427  24.462  13.407
36884W        W 9144   0.723  19.535   4.109
36885W        W 9145   8.307  42.944  14.528
36886W        W 9146  36.487  32.534  14.931
36887W        W 9147  26.634   5.806   2.421
36888W        W 9148  10.321  11.913  14.924
36889W        W 9149  37.377  32.944   3.993
36890W        W 9150   1.989   0.069   1.744
36891W        W 9151  21.194  10.235   3.054
36892W        W 9152  43.223  19.404   4.926
36893W        W 9153  10.766  25.422   1.784
36894W        W 9154  25.631   9.748   3.081
36895W        W 9155  31.135  24.534  11.560
36896W        W 9156  11.691  39.656  10.008
36897W        W 9157  44.729  43.480   1.320
36898W        W 9158  32.507  27.819   4.065
36899W        W 9159   1.769   7.912   2.108
36900W        W 9160  17.550  21.139  13.792
36901W        W 9161  33.512  29.128   2.678
36902W        W 9162  38.700  41.170   9.804
36903W        W 9163  35.136  15.128  12.462
36904W        W 9164  20.427   1.345  12.059
36905W        W 9165  20.593  26.270   1.081
36906W        W 9166  39.816  30.365   1.311
36907W        W 9167  13.571  28.344   4.671
36908W        W 9168  31.622  26.256   2.754
36909W        W 9169  30.176   4.595   2.969
36910W        W 9170  33.597  37.783  12.029
36911W        W 9171  41.947  24.550  14.172
36912W        W 9172  28.724   7.214  11.987
36913W        W 9173  33.920  18.049   4.625
36914W        W 9174  27.443  23.657   0.517
36915W        W 9175  19.910  21.781   3.520
36916W        W 9176  11.333  26.064  13.472
36917W        W 9177   6.247  18.143  14.867
36918W        W 9178  22.226  22.235   1.523
36919W        W 9179   3.467  21.613  11.879
36920W        W 9180   8.623  16.165  10.812
36921W        W 9181   9.740   5.657   1.238
36922W        W 9182   5.867  20.757  13.924
36923W        W 9183  22.902   1.296   0.446
36924W        W 9184  23.509  10.447  12.810
36925W        W 9185  25.922   0.836  14.365
36926W        W 9186   0.014  44.519  11.055
36927W        W 9187  43.760  18.609  11.587
36928W        W 9188  33.973  27.035  12.825
36929W        W 9189  43.773  31.148  10.728
36930W        W 9190   2.110  41.137   4.255
36931W        W 9191  34.409   8.424  14.265
36932W        W 9192  16.421  39.013   4.207
36933W        W 9193   8.099  23.450   2.589
36934W        W 9194  40.760   4.937   3.256
36935W        W 9195  13.577  12.549  14.487
36936W        W 9196  31.424  18.840   2.398
36937W        W 9197  42.340  23.896  11.815
36938W        W 9198  44.036  43.540   3.923
36939W        W 9199  37.692  27.707   9.855
36940W        W 9200   5.798  20.760   0.392
36941W        W 9201   2.492  10.432   4.105
36942W        W 9202  28.546   0.028  11.207
36943W        W 9203  40.931  39.412   0.067
36944W        W 9204  22.098  39.083  11.075
36945W        W 9205  35.115  23.574   0.772
36946W        W 9206   7.289  29.663  12.182
36947W        W 9207  44.437  13.074   1.866
36948W        W 9208  10.341  21.757   2.363
36949W        W 9209  17.600  27.469  13.425
36950W        W 9210  32.376  14.267  14.354
36951W        W 9211  17.041  28.617   1.349
36952W        W 9212  10.129  18.730   3.892
36953W        W 9213  36.938  26.882   4.973
36954W        W 9214  43.211  15.580  10.330
36955W        W 9215  33.354   1.036   0.512
36956W        W 9216  17.545  37.826  13.390
36957W        W 9217   7.934   9.292  14.534
36958W        W 9218  21.504  22.230  13.966
36959W        W 9219   6.003  33.880   4.206
36960W        W 9220  34.480  24.196  12.620
36961W        W 9221   8.587  32.025  14.524
36962W        W 9222   7.478  27.241   0.995
36963W        W 9223  24.931   4.195  11.964
36964W        W 9224  24.479   8.045  10.706
36965W        W 9225  43.884   9.734  14.578
36966W        W 9226  29.994  36.573   3.805
36967W        W 9227   9.789  44.201  11.179
36968W        W 9228  26.199  33.382   5.068
36969W        W 9229  32.842  24.195  13.044
36970W        W 9230  30.510  42.876  11.619
36971W        W 9231  25.187   7.933   1.235
36972W        W 9232   4.333  15.570   2.283
36973W        W 9233   6.632  31.656  11.162
36974W        W 9234  11.365  29.703  13.381
36975W        W 9235  44.159   9.759   0.018
36976W        W 9236  20.215  36.707  13.964
36977W        W 9237  12.935  21.234   0.896
36978W        W 9238   0.438  35.555  10.468
36979W        W 9239  21.694   2.880   2.734
36980W        W 9240  40.454  40.983   4.643
36981W        W 9241  42.550  42.367   2.175
36982W        W 9242  12.709  19.008   2.217
36983W        W 9243  22.252  40.333   3.067
36984W        W 9244  36.728   0.939  12.358
36985W        W 9245  36.399   8.693  14.854
36986W        W 9246   1.450   9.179   0.938
36987W        W 9247   7.841  42.539   3.418
36988W        W 9248  12.221  19.531   3.620
36989W        W 9249  26.715  13.371   1.790
36990W        W 9250  13.998   6.096  12.505
36991W        W 9251  26.666  10.586   3.534
36992W        W 9252  25.456   7.892   1.663
36993W        W 9253  28.613  42.576   2.824
36994W        W 9254  31.562  29.515   4.883
36995W        W 9255  33.587   4.390   3.561
36996W        W 9256   1.708  40.052  10.926
36997W        W 9257  26.143  17.767  13.593
36998W        W 9258  44.714  40.844  12.151
36999W        W 9259  20.613   9.318  10.431
37000W        W 9260  17.159  32.392   3.654
37001W        W 9261  44.543  12.544  13.464
37002W        W 9262   3.812  26.084  14.122
37003W        W 9263  29.498  13.085   4.708
37004W        W 9264  33.159  39.723  12.523
37005W        W 9265  40.113   8.180   3.448
37006W        W 9266  21.524  23.549   3.671
37007W        W 9267  31.932  29.065   1.883
37008W        W 9268   9.355  27.082  14.461
37009W        W 9269  40.022  26.474  13.076
37010W        W 9270  29.536  14.192  13.180
37011W        W 9271  44.036  22.728  11.640
37012W        W 9272  38.047  37.400  13.358
37013W        W 9273  43.542  40.272  11.853
37014W        W 9274   9.856  30.654  12.744
37015W        W 9275   2.463  26.596  14.896
37016W        W 9276  14.394  30.510  11.171
37017W        W 9277  13.662  43.891   1.033
37018W        W 9278   9.394  43.904   2.910
37019W        W 9279  24.970  29.525   2.377
37020W        W 9280   5.481  28.427  11.659
37021W        W 9281  24.042   1.415  13.954
37022W        W 9282   6.743  11.369   1.529
37023W        W 9283  42.974  10.435   2.728
37024W        W 9284   0.528  11.356   0.588
37025W        W 9285  43.421  23.751   0.305
37026W        W 9286  30.247   2.887  12.359
37027W        W 9287  16.796  15.277  10.671
37028W        W 9288  43.015  27.748   4.300
37029W        W 9289  31.218  38.084  12.103
37030W        W 9290  27.594  33.446  13.863
37031W        W 9291  36.797  36.377   3.862
37032W        W 9292  29.615  35.953  12.032
37033W        W 9293   7.665  24.269   2.663
37034W        W 9294  33.586  44.099   4.609
37035W        W 9295  29.131  35.893   1.710
37036W        W 9296  25.426   1.031  13.423
37037W        W 9297  27.289   4.486   1.876
37038W        W 9298  21.951  32.944   0.828
37039W        W 9299   1.840  18.841   5.033
37040W        W 9300  20.548  31.860   1.653
37041W        W 9301   9.440  15.897   2.516
37042W        W 9302  43.323  11.941   3.737
37043W        W 9303  21.242  17.994  12.946
37044W        W 9304  11.151   9.811  10.831
37045W        W 9305  28.424   2.148  13.873
37046W        W 9306  29.622  15.505  13.950
37047W        W 9307  15.035  39.667   2.172
37048W        W 9308  19.494  28.550  13.554
37049W        W 9309  40.360  17.293   2.144
37050W        W 9310  42.440  26.567  13.043
37051W        W 9311  21.168   8.605   1.674
37052W        W 9312  20.665   2.601  12.190
37053W        W 9313  28.761  28.541  11.783
37054W        W 9314  40.923   1.413   3.652
37055W        W 9315  39.757   3.382  12.081
37056W        W 9316  33.463  39.058   1.772
37057W        W 9317  36.553   7.343   9.989
37058W        W 9318  24.430  17.545   3.509
37059W        W 9319  33.306  20.155   2.911
37060W        W 9320  11.287  13.378  11.920
37061W        W 9321   3.896  42.579   4.319
37062W        W 9322  21.611  27.600  13.953
37063W        W 9323  33.834   5.576   0.796
37064W        W 9324  33.008   1.522  12.010
37065W        W 9325   0.273   1.005   3.783
37066W        W 9326  44.822  19.400   2.841
37067W        W 9327   8.176  10.249   3.183
37068W        W 9328  14.883  19.144  12.942
37069W        W 9329  19.598   5.237   3.063
37070W        W 9330  31.840  36.471  13.616
37071W        W 9331  33.883  41.408   1.849
37072W        W 9332  12.237   1.102   3.479
37073W        W 9333   5.505   0.337  10.684
37074W        W 9334  21.981  32.518  13.129
37075W        W 9335   3.406  37.657   3.205
37076W        W 9336   6.876  36.475   2.265
37077W        W 9337   5.226   6.468   3.749
37078W        W 9338  36.817  27.974   3.118
37079W        W 9339  39.530  18.804   0.257
37080W        W 9340  42.938  35.419  14.553
37081W        W 9341   5.262  25.230   4.082
37082W        W 9342  38.086  22.019   2.735
37083W        W 9343   0.311  12.637  12.538
37084W        W 9344  28.595  13.999   2.825
37085W        W 9345  15.604  19.491  13.304
37086W        W 9346  13.143  32.665   3.325
37087W        W 9347  29.101  13.384   1.850
37088W        W 9348  19.077  33.747   2.118
37089W        W 9349  39.797  28.558  14.336
37090W        W 9350  39.177   3.433   4.118
37091W        W 9351  25.042  34.400  14.870
37092W        W 9352  24.091  37.015  14.057
37093W        W 9353  28.060  14.274   3.839
37094W        W 9354  26.844   3.404   4.970
37095W        W 9355   7.821  31.348  14.471
37096W        W 9356  34.148  40.923   3.729
37097W        W 9357  28.684  31.668  10.965
37098W        W 9358  16.354  35.352   3.137
37099W        W 9359   3.689  44.685  14.222
37100W        W 9360   0.750   4.798  12.088
37101W        W 9361  28.684  17.287   2.477
37102W        W 9362  12.359  26.975   3.826
37103W        W 9363   3.485   5.199   2.831
37104W        W 9364  23.957  23.349   2.922
37105W        W 9365  41.499   9.863  10.978
37106W        W 9366  38.988  20.748   3.678
37107W        W 9367   5.983   3.171   0.422
37108W        W 9368  24.925  14.718   1.452
37109W        W 9369   5.185  21.263  11.664
37110W        W 9370   7.608   0.261  11.551
37111W        W 9371   7.294  41.854  13.814
37112W        W 9372  43.654  23.216  11.595
37113W        W 9373  11.644  22.207   2.384
37114W        W 9374  33.042  36.828   3.624
37115W        W 9375  17.126   0.330   1.349
37116W        W 9376  30.510  12.803  11.998
37117W        W 9377  21.457  25.212  11.947
37118W        W 9378  15.118  39.394  12.523
37119W        W 9379   8.907  34.909   2.335
37120W        W 9380  27.497   7.437   3.200
37121W        W 9381  36.051  24.968   1.712
37122W        W 9382  24.579  31.721  13.355
37123W        W 9383  10.829  40.244  13.960
37124W        W 9384  40.783  43.432  14.977
37125W        W 9385  32.751  37.439   2.994
37126W        W 9386   0.469   4.824  11.620
37127W        W 9387   0.968  25.258   4.326
37128W        W 9388  28.015   3.090  14.119
37129W        W 9389  12.385  32.816  11.060
37130W        W 9390  34.170  17.276  10.488
37131W        W 9391  10.358  24.696  13.376
37132W        W 9392  12.667   9.630   3.617
37133W        W 9393   3.510  40.733  12.090
37134W        W 9394  18.010  32.358   0.286
37135W        W 9395  25.215  11.727   1.219
37136W        W 9396  33.894  42.715  14.398
37137W        W 9397  38.567  33.786  13.172
37138W        W 9398   2.068   0.771  14.835
37139W        W 9399  37.380  16.713   4.607
37140W        W 9400   7.017  24.275   4.975
37141W        W 9401   6.903  28.316  13.033
37142W        W 9402  36.539  40.523  12.317
37143W        W 9403  19.755   6.922   4.481
37144W        W 9404   9.153  21.588  14.853
37145W        W 9405  41.713  28.643  11.517
37146W        W 9406   4.991  13.857   1.279
37147W        W 9407  44.658  10.386   0.552
37148W        W 9408   3.444  19.633   1.791
37149W        W 9409  14.262  16.788  11.508
37150W        W 9410   1.356   6.372   0.904
37151W        W 9411   0.882  15.811  14.767
37152W        W 9412  17.419  43.418   3.009
37153W        W 9413  13.915  33.967  12.117
37154W        W 9414   8.665  10.736  10.922
37155W        W 9415   3.783  32.628  11.125
37156W        W 9416  22.317  11.715   2.235
37157W        W 9417   5.819  26.722   1.749
37158W        W 9418  13.695  26.730   0.747
37159W        W 9419  19.985   5.651  14.010
37160W        W 9420  33.542   4.944   2.786
37161W        W 9421  30.437  39.848   3.230
37162W        W 9422  38.608  36.944  10.654
37163W        W 9423  17.320   1.299   3.184
37164W        W 9424  25.025  18.259  13.119
37165W        W 9425   7.040   1.826   4.186
37166W        W 9426   4.200  30.574  14.545
37167W        W 9427  16.318  24.511  14.398
37168W        W 9428  17.228   9.341  10.668
37169W        W 9429  22.188  12.122  10.948
37170W        W 9430  37.630  22.541   3.898
37171W        W 9431  31.051  36.797   3.324
37172W        W 9432   8.877  12.829  10.710
37173W        W 9433  13.299   6.831   1.193
37174W        W 9434   6.385  14.103   4.521
37175W        W 9435  13.795  31.645   4.877
37176W        W 9436   6.779  24.925  11.536
37177W        W 9437  28.975   1.658  10.315
37178W        W 9438  39.327  14.865   1.786
37179W        W 9439  33.888  41.355  11.734
37180W        W 9440  22.642   9.026   4.616
37181W        W 9441  14.842   2.455  13.831
37182W        W 9442  18.081   9.485  11.429
37183W        W 9443  16.799  37.900   3.204
37184W        W 9444  41.798   8.737   0.949
37185W        W 9445  15.506  26.898   1.868
37186W        W 9446   3.165   0.970  13.696
37187W        W 9447  21.749  15.234   0.828
37188W        W 9448  33.506   7.123   0.812
37189W        W 9449  27.619  30.180   9.799
37190W        W 9450  26.606  26.029   2.277
37191W        W 9451  10.091   7.338   2.714
37192W        W 9452  20.790  29.490  10.514
37193W        W 9453  19.778  37.304  11.618
37194W        W 9454  36.425  13.754   3.799
37195W        W 9455  10.817  12.728   2.449
37196W        W 9456  40.065  20.624   0.927
37197W        W 9457  14.179  32.885  10.601
37198W        W 9458   6.305  34.804   1.495
37199W        W 9459  24.079  15.052   3.327
37200W        W 9460  44.965  30.943   4.861
37201W        W 9461  10.621  16.764  12.394
37202W        W 9462  16.681  11.898   0.391
37203W        W 9463   4.892   7.167   1.035
37204W        W 9464  24.154  21.709   4.648
37205W        W 9465  10.832  18.353  13.538
37206W        W 9466  10.665  40.922   3.597
37207W        W 9467  14.751  40.272   2.752
37208W        W 9468   7.524  33.930   2.664
37209W        W 9469  42.466   3.805   0.102
37210W        W 9470  31.609  34.839   2.712
37211W        W 9471  35.682   5.541   3.757
37212W        W 9472  31.578  23.626   0.265
37213W        W 9473  32.300  14.128   1.725
37214W        W 9474  16.134  13.086  10.701
37215W        W 9475  24.641  28.854   3.622
37216W        W 9476  44.971  21.155  13.192
37217W        W 9477  30.781  40.572   1.244
37218W        W 9478  33.894   2.869  13.359
37219W        W 9479  28.589   6.316   1.833
37220W        W 9480  36.823  27.041   3.193
37221W        W 9481  34.860  18.888  10.832
37222W        W 9482  33.122  17.267  14.728
37223W        W 9483  43.102  38.609  11.168
37224W        W 9484  24.956  37.937   1.706
37225W        W 9485  40.535   4.769  11.060
37226W        W 9486  12.354  29.153   0.325
37227W        W 9487  12.142   2.522   0.112
37228W        W 9488  44.959  15.007   0.241
37229W        W 9489  33.591   9.344   2.433
37230W        W 9490  28.057  34.023   4.900
37231W        W 9491  22.779  27.003   4.229
37232W        W 9492   8.363  24.764  12.026
37233W        W 9493  20.339  19.310   3.070
37234W        W 9494  22.610  36.568  10.650
37235W        W 9495  14.652  39.538  13.287
37236W        W 9496  21.636  11.246  14.946
37237W        W 9497   1.561   7.266  10.527
37238W        W 9498  26.434  17.399   0.015
37239W        W 9499  43.592   9.475  10.744
37240W        W 9500   6.215  26.938   0.424
37241W        W 9501  19.666  28.344   4.334
37242W        W 9502  38.783  19.606   3.437
37243W        W 9503  18.888   8.761  10.939
37244W        W 9504  25.261   1.251   0.814
37245W        W 9505  27.925  27.700   1.275
37246W        W 9506  34.057   4.343  13.414
37247W        W 9507   5.336  33.979   1.378
37248W        W 9508  34.502  21.311   4.760
37249W        W 9509  32.172  13.615  11.108
37250W        W 9510   6.765  23.591  13.085
37251W        W 9511  20.380  17.909   3.339
37252W        W 9512   7.341   0.910  14.800
37253W        W 9513  35.954  34.906   0.401
37254W        W 9514  10.743  28.159  12.055
37255W        W 9515  25.344   3.666   0.801
37256W        W 9516  44.299   2.977  12.164
37257W        W 9517  31.658   3.623   3.249
37258W        W 9518   6.920  25.706   2.384
37259W        W 9519   6.293   5.409   1.726
37260W        W 9520  19.980  42.487   2.492
37261W        W 9521   9.364  25.269   2.302
37262W        W 9522  10.706  16.797  10.731
37263W        W 9523   3.961  35.106  11.173
37264W        W 9524  32.071  15.023  10.087
37265W        W 9525  29.177  35.903   0.229
37266W        W 9526  33.545   1.048   4.355
37267W        W 9527  20.420  44.537   3.737
37268W        W 9528  37.555  11.135   3.654
37269W        W 9529   2.501  43.510  12.706
37270W        W 9530  44.352  22.658  12.830
37271W        W 9531  15.060  43.345  11.521
37272W        W 9532  29.855   7.852  13.123
37273W        W 9533  12.815  44.377   4.285
37274W        W 9534  12.879  29.443   4.693
37275W        W 9535  24.103   4.183  11.407
37276W        W 9536   3.478  11.374   1.143
37277W        W 9537  33.530  15.349   3.002
37278W        W 9538  43.998  16.750  13.395
37279W        W 9539  36.879  23.231   4.533
37280W        W 9540  12.363  19.495  12.776
37281W        W 9541  27.600  18.553   4.728
37282W        W 9542  44.848  43.012   3.245
37283W        W 9543  20.975  21.737  13.026
37284W        W 9544  38.375  18.613  12.352
37285W        W 9545  38.384  11.773   4.635
37286W        W 9546  17.520  28.411  12.453
37287W        W 9547   5.415  43.297   0.891
37288W        W 9548  44.175  35.375  11.682
37289W        W 9549  24.368   2.268   4.334
37290W        W 9550  14.685  28.870   3.300
37291W        W 9551  34.115  19.358   1.264
37292W        W 9552   8.928  21.780   2.993
37293W        W 9553  13.175  38.734   2.756
37294W        W 9554  30.666  23.237   2.602
37295W        W 9555  31.024  17.596   3.108
37296W        W 9556  27.466  29.789   5.561
37297W        W 9557  21.283   7.241   3.804
37298W        W 9558  31.887   9.278  14.991
37299W        W 9559  32.372   0.870  11.041
37300W        W 9560  13.289  13.623  10.601
37301W        W 9561   0.241  22.607  11.130
37302W        W 9562  36.000  31.707   3.091
37303W        W 9563   9.274  23.012   0.847
37304W        W 9564   1.665  16.214   4.813
37305W        W 9565  25.086  12.876  14.898
37306W        W 9566  36.348  43.058  12.017
37307W        W 9567  26.545  34.632  13.532
37308W        W 9568  11.703  36.848  13.229
37309W        W 9569  32.851  11.776   1.704
37310W        W 9570  42.220  36.978  14.910
37311W        W 9571   4.220  36.508   0.507
37312W        W 9572  17.695  40.547  12.884
37313W        W 9573  24.003  28.023   4.527
37314W        W 9574  39.448  32.954   3.136
37315W        W 9575  22.591  31.377   4.790
37316W        W 9576  25.025  18.558  14.115
37317W        W 9577  35.612  44.803   0.468
37318W        W 9578  44.459   8.206  14.434
37319W        W 9579  39.375  11.262  14.436
37320W        W 9580   4.697  21.078   2.756
37321W        W 9581  28.619  36.892  10.759
37322W        W 9582   7.191  40.569  11.393
37323W        W 9583   8.422   5.956  13.147
37324W        W 9584  28.345  21.607  14.226
37325W        W 9585  18.519   2.379  14.783
37326W        W 9586  42.484  14.664   1.362
37327W        W 9587  22.444   2.674  10.591
37328W        W 9588  37.836  33.917  10.531
37329W        W 9589  23.795   7.753  13.012
37330W        W 9590  18.483  24.104   4.574
37331W        W 9591  20.236  43.296  10.294
37332W        W 9592   8.823  25.161  14.547
37333W        W 9593   7.307  28.974   4.909
37334W        W 9594   5.671   3.877   0.923
37335W        W 9595   4.899  36.091   0.325
37336W        W 9596  30.482  10.144   2.350
37337W        W 9597  36.782  40.765   0.182
37338W        W 9598  19.703   8.240  13.032
37339W        W 9599  41.893  43.687  10.823
37340W        W 9600  39.112  24.610   4.385
37341W        W 9601  15.131   5.896   1.816
37342W        W 9602   2.758   9.479   0.187
37343W        W 9603   8.431  36.345  12.510
37344W        W 9604   6.942  37.524   3.964
37345W        W 9605   4.268  33.029  12.537
37346W        W 9606   1.398  31.684  14.331
37347W        W 9607  20.282  23.289  13.472
37348W        W 9608  41.337  24.119   4.583
37349W        W 9609  16.811  14.903  13.555
37350W        W 9610  28.589  42.430   1.688
37351W        W 9611   6.276   3.249  10.582
37352W        W 9612  35.478  24.729   0.910
37353W        W 9613  33.335  21.554   2.632
37354W        W 9614   2.372   0.749  14.330
37355W        W 9615   0.142  27.462  10.426
37356W        W 9616   3.728  43.548   2.306
37357W        W 9617  25.443  39.237  10.556
37358W        W 9618   3.720  23.613   3.358
37359W        W 9619   2.820   4.738  10.695
37360W        W 9620   3.410   4.036   2.223
37361W        W 9621  33.039  37.500   5.058
37362W        W 9622  18.421  25.263  11.628
37363W        W 9623  21.931   6.045  14.283
37364W        W 9624  33.984  24.656  11.735
37365W        W 9625  21.305  33.643  12.731
37366W        W 9626  32.041  34.879  12.940
37367W        W 9627   8.874  14.226  10.609
37368W        W 9628  13.419  34.870  13.459
37369W        W 9629  27.318   2.459   3.771
37370W        W 9630  17.308   5.410   2.590
37371W        W 9631  26.770  35.221  14.952
37372W        W 9632  10.531  32.309   2.674
37373W        W 9633  13.405  40.530  13.442
37374W        W 9634  41.240  38.495   2.223
37375W        W 9635  42.507   9.144  13.338
37376W        W 9636  40.007  32.983   1.957
37377W        W 9637  14.250  23.351   4.576
37378W        W 9638  17.355  42.352  11.148
37379W        W 9639  33.533  24.934  11.447
37380W        W 9640  14.243  41.258  12.492
37381W        W 9641  17.852  39.768   0.802
37382W        W 9642  38.949  40.852   0.890
37383W        W 9643   1.048   4.367  14.153
37384W        W 9644  31.969  29.001  12.434
37385W        W 9645  17.169  19.033  12.028
37386W        W 9646  36.821  14.828  13.256
37387W        W 9647   5.133  22.560  14.799
37388W        W 9648  11.955  26.668   4.162
37389W        W 9649  43.812  27.046   4.549
37390W        W 9650   5.635  35.555  14.357
37391W        W 9651  14.774  34.541   0.806
37392W        W 9652   4.763  40.917  10.710
37393W        W 9653  37.597  34.038  14.303
37394W        W 9654  23.596   5.733   2.227
37395W        W 9655  39.319  17.042   3.768
37396W        W 9656  44.979  10.860   3.268
37397W        W 9657  39.381  14.523   2.200
37398W        W 9658  21.118  10.827  12.910
37399W        W 9659  16.258  13.884  13.927
37400W        W 9660  12.332  11.222   4.930
37401W        W 9661  16.105   8.859  10.599
37402W        W 9662  31.571  30.444  14.034
37403W        W 9663  20.542  18.056  13.358
37404W        W 9664  38.816  36.468  14.893
37405W        W 9665  10.840  38.903   0.765
37406W        W 9666   1.287  22.656  10.971
37407W        W 9667  37.713  32.061  13.901
37408W        W 9668  37.350  36.528   3.000
37409W        W 9669  30.159   1.760   2.412
37410W        W 9670  13.570  11.086  11.625
37411W        W 9671   8.416  14.129   1.898
37412W        W 9672   4.208  27.142   1.863
37413W        W 9673   6.401  19.769  13.902
37414W        W 9674  37.278  20.765  12.029
37415W        W 9675  40.546  36.001  12.353
37416W        W 9676  11.359  31.780   4.954
37417W        W 9677  40.120  25.177   0.912
37418W        W 9678  40.420  44.735   1.024
37419W        W 9679  21.690  15.683  12.812
37420W        W 9680  33.366  23.668  10.643
37421W        W 9681  44.284  12.756   4.310
37422W        W 9682  22.611  38.917   1.426
37423W        W 9683  10.419  17.801   3.828
37424W        W 9684  13.575  31.185   5.107
37425W        W 9685  12.120  14.664  13.412
37426W        W 9686  43.304  35.358   1.387
37427W        W 9687   9.868  34.082   0.255
37428W        W 9688   1.120  43.754  14.984
37429W        W 9689  19.071  32.021   3.718
37430W        W 9690  21.271   1.439   1.980
37431W        W 9691  44.936  35.068   4.545
37432W        W 9692  12.670  32.464  14.299
37433W        W 9693   4.301  37.135  11.857
37434W        W 9694   6.200   1.791   0.835
37435W        W 9695  12.095  25.148   0.865
37436W        W 9696  41.403  12.967  12.542
37437W        W 9697  30.678  43.417   1.276
37438W        W 9698   9.077  16.207   2.689
37439W        W 9699  15.384  18.344  13.867
37440W        W 9700  36.358  43.510  13.416
37441W        W 9701  36.788  13.557  10.626
37442W        W 9702  43.598  44.045   1.930
37443W        W 9703  44.539  12.125  11.195
37444W        W 9704  11.091   2.120   3.931
37445W        W 9705  38.477   7.790   1.377
37446W        W 9706  28.556  15.245   3.058
37447W        W 9707   3.386  19.024  12.482
37448W        W 9708   2.687   3.487   3.108
37449W        W 9709  16.737  32.089   4.023
37450W        W 9710  17.140  30.067   1.374
37451W        W 9711   1.510  16.856   0.587
37452W        W 9712   7.664   9.374   0.502
37453W        W 9713  14.916  17.998   3.403
37454W        W 9714  37.138  11.744   0.404
37455W        W 9715   9.322   6.716  13.868
37456W        W 9716  30.016  16.059  11.622
37457W        W 9717  40.977   7.613  10.733
37458W        W 9718  19.101  11.408  10.570
37459W        W 9719   0.336   1.011   2.335
37460W        W 9720  11.402  26.437   0.021
37461W        W 9721  14.065  34.332   4.187
37462W        W 9722  18.323   3.769   3.300
37463W        W 9723  25.031  12.298   4.249
37464W        W 9724  21.673  17.150   3.729
37465W        W 9725  34.083  22.983   1.882
37466W        W 9726  35.401   2.910   1.905
37467W        W 9727  33.598   4.816  12.150
37468W        W 9728  38.438  39.864  13.275
37469W        W 9729  36.809  39.823  13.378
37470W        W 9730  19.443  14.182  11.587
37471W        W 9731  13.419  35.971   1.104
37472W        W 9732  10.659   4.657  11.686
37473W        W 9733  31.914  27.493   4.286
37474W        W 9734  24.885  32.096   0.447
37475W        W 9735   5.756   7.312   2.768
37476W        W 9736  10.816   1.847  12.467
37477W        W 9737  38.115  30.933   1.871
37478W        W 9738  40.217  34.522   1.690
37479W        W 9739   4.396  43.470  14.678
37480W        W 9740  34.388   2.565   4.142
37481W        W 9741  34.872  10.337  11.247
37482W        W 9742  41.520   9.214  12.472
37483W        W 9743   6.432  39.391  14.792
37484W        W 9744  28.755  17.553  11.635
37485W        W 9745  40.149  14.732   3.285
37486W        W 9746  36.854  42.046  11.119
37487W        W 9747  27.770  43.906  13.400
37488W        W 9748  38.426   4.362   4.528
37489W        W 9749  27.155  13.342   0.023
37490W        W 9750  20.821  33.007  13.422
37491W        W 9751  21.437  36.881  10.476
37492W        W 9752  12.408  33.686  13.130
37493W        W 9753   2.215  28.229  14.339
37494W        W 9754  42.969  21.938   1.327
37495W        W 9755  29.633  31.377   2.349
37496W        W 9756  10.188  38.113   1.951
37497W        W 9757  29.185  29.945  10.608
37498W        W 9758  21.823  21.769   5.062
37499W        W 9759  35.956   8.942   5.361
37500W        W 9760  33.543  24.933   0.252
37501W        W 9761   5.376   6.818  11.755
37502W        W 9762  11.137  32.089   2.005
37503W        W 9763   1.898  14.672  10.751
37504W        W 9764  13.730  17.741  12.170
37505W        W 9765  20.155  21.094  12.988
37506W        W 9766  19.781  44.890   1.730
37507W        W 9767  28.344   8.083   1.214
37508W        W 9768  14.716  33.768  12.511
37509W        W 9769  39.272  28.529  11.670
37510W        W 9770  30.152   6.165  11.117
37511W        W 9771  21.649  41.091  11.936
37512W        W 9772   1.972  23.099  14.968
37513W        W 9773   1.943  15.809  12.104
37514W        W 9774  12.246  13.653  10.674
37515W        W 9775  12.815   5.441  14.426
37516W        W 9776   3.881  14.186   3.181
37517W        W 9777  13.810  44.490   3.298
37518W        W 9778  27.002  30.367  10.213
37519W        W 9779   8.267  23.920  14.366
37520W        W 9780  36.601  17.475  12.932
37521W        W 9781  11.455  12.809   0.821
37522W        W 9782   9.342  26.009   1.723
37523W        W 9783   0.942  30.950  14.332
37524W        W 9784  22.067  40.912   4.797
37525W        W 9785  11.806  28.076  14.751
37526W        W 9786   2.522  30.024  14.483
37527W        W 9787  20.037  31.244   1.274
37528W        W 9788  43.867  26.582   4.769
37529W        W 9789  36.805  11.266  11.539
37530W        W 9790  44.345  29.171   1.027
37531W        W 9791  42.155  17.680  10.476
37532W        W 9792  21.457  10.785   0.010
37533W        W 9793  32.508  36.081  13.571
37534W        W 9794  21.935  27.606  11.878
37535W        W 9795   6.192  19.171  14.873
37536W        W 9796  31.143  17.001   0.945
37537W        W 9797   9.113  12.062  11.129
37538W        W 9798  10.846  30.593   3.190
37539W        W 9799   4.915  28.927  12.112
37540W        W 9800  18.918  10.749   1.424
37541W        W 9801   4.842  35.728   0.725
37542W        W 9802   6.940   1.676   1.416
37543W        W 9803  16.218  42.847  12.037
37544W        W 9804  42.371  30.039  13.896
37545W        W 9805  13.433  41.399  11.679
37546W        W 9806  19.239  25.206   0.264
37547W        W 9807  16.098   4.937   1.943
37548W        W 9808   5.440  30.767  13.113
37549W        W 9809  29.410  41.375   0.429
37550W        W 9810  30.122  30.128   5.129
37551W        W 9811  14.722  13.103   1.890
37552W        W 9812  35.811  31.884   0.849
37553W        W 9813  19.608   9.168  10.688
37554W        W 9814  24.336   8.788   1.890
37555W        W 9815  16.036  11.737  14.720
37556W        W 9816  42.109   6.740   2.307
37557W        W 9817  22.919  36.395   4.533
37558W        W 9818  31.402  18.839   1.330
37559W        W 9819  25.967  27.496  11.900
37560W        W 9820  17.741  21.628   1.742
37561W        W 9821   2.735   7.205   2.759
37562W        W 9822  22.705  14.740   1.710
37563W        W 9823  15.532  29.590   5.582
37564W        W 9824   9.617   7.777   1.881
37565W        W 9825  34.354  34.491  13.054
37566W        W 9826   8.841   9.248   2.627
37567W        W 9827   0.887  17.164  14.394
37568W        W 9828  36.117  36.409  11.896
37569W        W 9829  43.051  23.614   4.565
37570W        W 9830  38.141  21.008   2.527
37571W        W 9831  28.948  13.745  14.372
37572W        W 9832  39.392   6.925   5.061
37573W        W 9833  10.883  40.638  10.820
37574W        W 9834  11.735  29.731   1.836
37575W        W 9835  40.096  15.562  11.177
37576W        W 9836  12.080  43.613   2.718
37577W        W 9837  15.203  31.739   0.245
37578W        W 9838  12.731  33.627   2.739
37579W        W 9839   5.008  20.465  11.300
37580W        W 9840  17.628  39.589  10.491
37581W        W 9841  36.048  31.375  11.251
37582W        W 9842  39.048  32.103   4.088
37583W        W 9843  44.701   9.123   2.309
37584W        W 9844  23.196  39.812   0.393
37585W        W 9845  22.054  30.590   3.731
37586W        W 9846  34.777  38.271   3.836
37587W        W 9847  26.488  27.946  11.137
37588W        W 9848  39.396  28.902   2.743
37589W        W 9849  33.865   5.445   2.629
37590W        W 9850  11.903  23.107   0.404
37591W        W 9851  37.167  35.103  11.247
37592W        W 9852  38.425  16.269  12.139
37593W        W 9853  43.952  41.141   3.707
37594W        W 9854  25.049   4.858  13.058
37595W        W 9855  15.585  29.003   0.788
37596W        W 9856  31.061  43.420   0.766
37597W        W 9857   4.732  29.995   0.208
37598W        W 9858  37.445   6.402   2.007
37599W        W 9859  20.149  36.519  14.723
37600W        W 9860  22.734  19.033  11.885
37601W        W 9861   0.038  10.714   4.271
37602W        W 9862  26.802  11.874   1.725
37603W        W 9863  38.931  13.403  11.897
37604W        W 9864  33.627  14.588  14.074
37605W        W 9865   3.474  19.907  10.790
37606W        W 9866  30.650  21.366   1.848
37607W        W 9867  24.698   1.488   1.815
37608W        W 9868   9.341   0.328  14.299
37609W        W 9869  32.485   0.198  13.270
37610W        W 9870  18.995   0.447  12.929
37611W        W 9871  18.234  25.715   2.377
37612W        W 9872  11.214  11.917  11.577
37613W        W 9873  34.554  38.840   1.374
37614W        W 9874  29.979  32.980  10.475
37615W        W 9875  22.616  38.859  11.108
37616W        W 9876  35.455  19.024  13.960
37617W        W 9877  28.160  12.062  12.487
37618W        W 9878   6.857  12.837   2.000
37619W        W 9879   2.349  11.034   0.368
37620W        W 9880  38.609   2.941   2.181
37621W        W 9881   5.187  24.476   3.153
37622W        W 9882  44.824  13.340  10.728
37623W        W 9883  40.016  38.079  12.249
37624W        W 9884   7.368  27.123  10.643
37625W        W 9885   8.504  31.895  11.219
37626W        W 9886  37.966  17.647   3.375
37627W        W 9887  29.595  42.762  11.578
37628W        W 9888  36.918  38.850   2.647
37629W        W 9889  17.370  35.579   3.019
37630W        W 9890  34.736  16.161  13.834
37631W        W 9891   8.674  24.733   1.891
37632W        W 9892  42.516   7.489  11.118
37633W        W 9893  39.902  36.420   2.763
37634W        W 9894  20.654  37.313  12.658
37635W        W 9895  40.144  12.157   2.745
37636W        W 9896  21.685   0.191  12.508
37637W        W 9897   8.159  30.085   0.530
37638W        W 9898  23.069  10.082  12.099
37639W        W 9899  13.737  41.004   1.454
37640W        W 9900   0.028  31.380   3.765
37641W        W 9901   5.409  36.263  14.784
37642W        W 9902   4.945  40.039   3.656
37643W        W 9903  12.044  19.813  11.147
37644W        W 9904  18.032  37.240  10.787
37645W        W 9905  24.590  33.422  11.108
37646W        W 9906  35.023  26.082  11.589
37647W        W 9907   0.739  27.124  11.060
37648W        W 9908  37.979  34.026  11.556
37649W        W 9909  43.509  10.616   3.270
37650W        W 9910   6.322   7.188  14.937
37651W        W 9911   2.300  42.372   2.437
37652W        W 9912  18.564  27.841   4.316
37653W        W 9913  41.990  38.187   3.137
37654W        W 9914  12.579   5.762   2.393
37655W        W 9915  29.660  29.615   5.035
37656W        W 9916  44.364  44.410   3.129
37657W        W 9917   8.843  19.194   4.478
37658W        W 9918   8.861  13.670   2.399
37659W        W 9919   4.938  20.719  14.480
37660W        W 9920   7.369   8.939   0.454
37661W        W 9921  43.471  26.310   0.243
37662W        W 9922  35.767  39.773   1.202
37663W        W 9923  14.469  35.141  12.261
37664W        W 9924  34.043  30.489   1.010
37665W        W 9925  40.702  26.141  12.363
37666W        W 9926   7.721  28.089  11.487
37667W        W 9927  43.517  18.597  14.791
37668W        W 9928  10.305   2.409  13.823
37669W        W 9929  34.858   2.290   3.109
37670W        W 9930  32.724  42.263   1.411
37671W        W 9931  36.385  17.722   1.273
37672W        W 9932   1.248   7.767   0.333
37673W        W 9933  44.978  33.645  11.250
37674W        W 9934  12.904  40.532  13.463
37675W        W 9935  24.133  39.529   5.164
37676W        W 9936   9.606  23.426  12.613
37677W        W 9937  41.488   2.263  13.882
37678W        W 9938  31.371  21.662  10.678
37679W        W 9939  34.031  15.662  11.213
37680W        W 9940  24.243   6.167  13.870
37681W        W 9941  13.648  14.428  10.643
37682W        W 9942  33.001   3.677   2.879
37683W        W 9943   2.354  35.444   2.155
37684W        W 9944  22.477  35.597   4.790
37685W        W 9945   7.698  43.564   0.351
37686W        W 9946  36.133  32.903  12.484
37687W        W 9947   5.678  33.145   2.355
37688W        W 9948  24.560  40.069   0.480
37689W        W 9949  23.013  10.863   4.663
37690W        W 9950  26.201  16.245   0.650
37691W        W 9951  10.229  17.135  10.582
37692W        W 9952   2.774  27.265   3.601
37693W        W 9953  41.534  15.165   2.153
37694W        W 9954  17.655  28.415   0.606
37695W        W 9955  25.249  14.866  11.058
37696W        W 9956  34.159  16.642  13.392
37697W        W 9957  21.039   6.222   0.497
37698W        W 9958  19.180  10.851  14.395
37699W        W 9959  19.063  27.117  10.616
37700W        W 9960   4.099  42.906  10.546
37701W        W 9961  19.173  39.964   4.184
37702W        W 9962  24.937   2.664   2.266
37703W        W 9963  10.261  39.399  13.437
37704W        W 9964   9.263  19.527  12.898
37705W        W 9965  28.546  34.061  11.088
37706W        W 9966  18.302  14.211   0.358
37707W        W 9967   8.865  26.007   4.548
37708W        W 9968  42.100  30.106  12.584
37709W        W 9969  42.899  19.142  14.348
37710W        W 9970  36.972  41.267   0.049
37711W        W 9971  38.864  39.249  14.316
37712W        W 9972  19.328   1.618   0.816
37713W        W 9973  37.444   6.072  14.774
37714W        W 9974  33.299  19.654   3.170
37715W        W 9975   7.869  37.860   1.758
37716W        W 9976  17.213  15.530   3.384
37717W        W 9977   8.780  17.881  14.339
37718W        W 9978  27.239  26.210  10.852
37719W        W 9979  41.052  33.347   1.258
37720W        W 9980  41.401  11.879   2.863
37721W        W 9981  26.823  37.793   3.691
37722W        W 9982  42.329  22.579   2.585
37723W        W 9983  13.140  24.811  11.233
37724W        W 9984   9.138  31.126   4.619
37725W        W 9985  18.995  34.126   3.237
37726W        W 9986  35.837  20.703   2.233
37727W        W 9987  20.041   7.623   5.452
37728W        W 9988  18.192  17.668  12.066
37729W        W 9989  35.795  25.411  12.787
37730W        W 9990  18.554  10.765  12.569
37731W        W 9991   4.681  41.821  13.421
37732W        W 9992  33.846  21.595   1.742
37733W        W 9993  42.114  11.269   4.609
37734W        W 9994  35.426  40.089  13.370
37735W        W 9995   6.904  38.127  14.379
37736W        W 9996  40.279  28.477  14.101
37737W        W 9997  42.309   0.730   3.733
37738W        W 9998  36.993  18.805  11.136
37739W        W 9999   3.537   3.679   1.370
37740W        W10000  30.691   5.147  12.810
37741W        W10001   2.823   1.254   4.569
37742W        W10002  42.045  32.385   3.654
37743W        W10003  43.349   8.985   4.034
37744W        W10004  28.457  30.058  12.948
37745W        W10005  14.222  31.157   0.168
37746W        W10006  35.543   3.419  12.362
37747W        W10007  35.495   9.386   3.296
37748W        W10008  28.328  17.386  11.906
37749W        W10009  27.498  28.833   4.357
37750W        W10010  35.032  31.771   0.975
37751W        W10011   8.233  17.132   1.020
37752W        W10012  16.990  43.790  13.444
37753W        W10013  11.131  13.125   2.373
37754W        W10014  35.211  37.455   5.048
37755W        W10015   1.957  25.723   1.400
37756W        W10016  12.478   7.741  12.855
37757W        W10017   7.392  10.030   1.965
37758W        W10018  29.790  16.873  14.858
37759W        W10019  20.757  31.427   0.660
37760W        W10020  34.534   5.843  12.247
37761W        W10021  19.301  16.303  13.897
37762W        W10022  23.128  34.302  12.999
37763W        W10023  11.857  17.790   1.580
37764W        W10024  24.505  18.941  13.435
37765W        W10025  38.240  23.070   0.000
37766W        W10026   0.791  41.825   3.160
37767W        W10027  15.132  22.600   1.444
37768W        W10028  15.345  40.950   1.748
37769W        W10029  26.455  14.759   2.373
37770W        W10030  32.889   1.744   0.501
37771W        W10031  21.829  34.014  11.468
37772W        W10032  10.339  43.257  12.044
37773W        W10033   4.074  44.514   4.134
37774W        W10034  16.564  11.169  13.409
37775W        W10035   4.753  27.458  13.939
37776W        W10036  16.583  34.503   3.192
37777W        W10037  29.929  35.842   2.362
37778W        W10038   9.328  23.627   3.979
37779W        W10039  15.359   9.922   3.800
37780W        W10040  12.309  23.731   4.458
37781W        W10041  25.662  41.675  12.897
37782W        W10042   8.566  22.972   4.696
37783W        W10043  11.557  25.839  13.882
37784W        W10044  44.092  22.153   1.365
37785W        W10045  42.275  16.707  13.820
37786W        W10046  29.450  24.111   4.897
37787W        W10047  12.164  35.510   3.363
37788W        W10048  26.466  34.603   4.042
37789W        W10049  15.247  30.611  11.009
37790W        W10050  31.246  19.922  11.014
37791W        W10051  42.457  28.553   4.131
37792W        W10052  40.310  33.556  14.070
37793W        W10053  36.626   2.645  12.476
37794W        W10054   0.466   7.350   2.258
37795W        W10055  20.608  36.068  14.283
37796W        W10056  28.534  37.408   2.660
37797W        W10057  24.074   8.230  11.556
37798W        W10058   5.952  25.693   3.206
37799W        W10059  33.920  24.425   0.874
37800W        W10060  42.903  23.743  13.387
37801W        W10061  40.776   7.618  12.475
37802W        W10062  29.332   6.730  14.916
37803W        W10063  33.146  22.186   0.356
37804W        W10064  15.610  11.501   3.786
37805W        W10065  37.368   5.347   3.457
37806W        W10066  15.654   7.917  11.462
37807W        W10067  14.654  28.409  12.239
37808W        W10068   1.829  15.720   4.682
37809W        W10069  34.677   6.738  12.395
37810W        W10070   5.406  23.797   1.818
37811W        W10071   0.849  18.730  11.577
37812W        W10072  21.274  35.751   3.653
37813W        W10073  10.392  10.785  11.645
37814W        W10074  17.583  16.120   0.828
37815W        W10075  24.120   2.935   0.266
37816W        W10076   7.821  29.577   0.035
37817W        W10077  18.290   3.370   1.798
37818W        W10078  22.057  37.871  14.025
37819W        W10079  18.153  19.425   0.218
37820W        W10080   6.774  19.584  11.565
37821W        W10081  17.418  17.500   2.584
37822W        W10082  44.836  21.234  14.060
37823W        W10083  34.958  41.400  14.782
37824W        W10084  32.353  26.799   0.375
37825W        W10085  11.212  18.289  14.888
37826W        W10086  40.457  26.472  12.041
37827W        W10087  21.953  27.830  10.649
37828W        W10088   8.309  10.753  14.561
37829W        W10089   0.482   0.865  11.119
37830W        W10090  10.370  13.635   0.743
37831W        W10091  12.571  40.134  13.417
37832W        W10092  32.585  33.408  14.407
37833W        W10093  42.318  17.067   4.754
37834W        W10094  16.954  24.167  11.602
37835W        W10095  23.705  31.453  11.185
37836W        W10096  43.270   4.422   1.277
37837W        W10097   9.312  22.232   3.847
37838W        W10098  16.202  44.293  12.122
37839W        W10099   9.895  23.253   0.317
37840W        W10100  17.688  32.399   4.623
37841W        W10101  36.336  26.492   0.891
37842W        W10102   8.799  34.086   3.676
37843W        W10103  39.854  18.351  13.341
37844W        W10104   8.932  11.581  11.078
37845W        W10105  43.051   8.748   0.338
37846W        W10106  34.881  16.257   3.675
37847W        W10107  32.366  11.754  11.840
37848W        W10108  37.610  34.292   0.928
37849W        W10109  32.200  32.049  10.197
37850W        W10110  20.743  33.510  13.564
37851W        W10111  24.445  25.691  14.938
37852W        W10112  44.183  37.733  11.548
37853W        W10113  13.921  31.064  10.134
37854W        W10114  30.406  38.575   2.186
37855W        W10115  27.955  33.173   1.598
37856W        W10116  12.278   8.227   1.052
37857W        W10117  10.101  32.076  14.533
37858W        W10118  26.738  14.351   2.242
37859W        W10119  32.980  40.953  14.347
37860W        W10120  29.325   6.539   3.445
37861W        W10121  34.797  23.711   2.271
37862W        W10122  14.058   9.149   0.580
37863W        W10123  44.605   8.672   4.620
37864W        W10124  36.085  40.212  13.538
37865W        W10125  12.510  39.585   3.427
37866W        W10126  17.161  12.659   2.236
37867W        W10127   6.574   7.221  11.682
37868W        W10128  28.128  11.869  13.937
37869W        W10129   0.380  43.939  13.130
37870W        W10130  44.064  14.905  11.006
37871W        W10131   1.820  30.475  10.622
37872W        W10132  23.224  13.334  13.465
37873W        W10133  33.248  20.164  12.471
37874W        W10134  10.909  34.885   3.630
37875W        W10135  27.047   9.900   0.568
37876W        W10136  10.746   2.183  10.746
37877W        W10137  14.095  27.520  14.260
37878W        W10138  42.391  30.944   4.083
37879W        W10139  37.074  25.657  13.014
37880W        W10140  38.586  28.679  10.659
37881W        W10141  28.722  22.022   1.937
37882W        W10142  18.619  12.385  14.674
37883W        W10143  13.758  13.903  12.393
37884W        W10144  15.420  43.535   3.149
37885W        W10145  22.026  19.058  10.011
37886W        W10146  41.959  38.826   1.407
37887W        W10147  29.845   2.065  10.288
37888W        W10148   6.150   4.926   0.223
37889W        W10149  17.032  42.540  11.494
37890W        W10150   8.591  34.937   1.284
37891W        W10151  18.902  39.898   0.478
37892W        W10152  42.354   2.378  11.013
37893W        W10153  31.400  20.976  12.383
37894W        W10154  15.617  18.784  12.715
37895W        W10155  13.026  41.908   0.338
37896W        W10156  18.908  13.733  14.837
37897W        W10157  14.237   4.291  11.681
37898W        W10158  38.309  27.829  13.040
37899W        W10159   6.660   9.780   3.236
37900W        W10160   4.716  28.657   4.857
37901W        W10161  17.851  17.717   2.681
37902W        W10162   8.297  40.384   4.313
37903W        W10163  30.122  32.561   2.586
37904W        W10164  13.651  38.823   1.880
37905W        W10165  13.833  20.145  14.370
37906W        W10166  10.460  12.837  11.992
37907W        W10167  25.843  22.613  11.119
37908W        W10168  24.143  12.531   4.993
37909W        W10169  17.106  33.352   0.247
37910W        W10170  44.949  10.467  10.686
37911W        W10171   8.510   4.045  11.230
37912W        W10172  15.683  31.337  13.769
37913W        W10173  17.298  14.918  14.667
37914W        W10174  40.582  35.226   4.651
37915W        W10175  14.653   3.816  11.050
37916W        W10176  21.212  40.334   0.757
37917W        W10177  15.742   7.169   4.523
37918W        W10178   0.295  17.608   4.762
37919W        W10179  23.115  21.102  10.305
37920W        W10180  22.264  13.725   4.712
37921W        W10181  24.484  44.998   3.999
37922W        W10182   9.834   0.762   4.651
37923W        W10183  26.799  18.080   1.682
37924W        W10184  15.586   5.158  13.540
37925W        W10185  16.806  15.913   4.033
37926W        W10186  43.930  40.242   3.919
37927W        W10187   7.363  33.006  11.084
37928W        W10188  21.678   3.431   1.214
37929W        W10189  28.572  16.374   0.017
37930W        W10190  17.272  18.443  13.118
37931W        W10191   8.235   2.912  12.063
37932W        W10192  21.751  22.748   4.182
37933W        W10193  33.707  33.582   2.301
37934W        W10194  33.835  10.225   4.542
37935W        W10195  35.164  44.547  10.684
37936W        W10196   2.764  27.665  13.498
37937W        W10197  26.186   2.342  12.017
37938W        W10198  13.381  12.630   1.180
37939W        W10199   2.110  12.527  10.647
37940W        W10200  44.969  27.226  14.349
37941W        W10201  33.276  24.529   3.743
37942W        W10202   0.954  11.361  14.221
37943W        W10203  27.072  11.964   0.302
37944W        W10204  29.922  26.107  13.359
37945W        W10205  12.858   1.162  11.354
37946W        W10206  19.091   9.148  10.645
37947W        W10207   8.308  29.663   0.261
37948W        W10208  12.766  12.667  14.564
37949W        W10209  33.997   6.735  14.030
37950W        W10210   9.154  19.735   5.198
37951W        W10211   9.371  30.738  11.051
37952W        W10212   2.562  15.529  14.918
37953W        W10213  34.691  31.203  12.946
37954W        W10214   1.707  38.532  12.398
37955W        W10215  24.615  29.581  11.175
37956W        W10216  22.773  36.631   4.066
37957W        W10217   4.366  28.696  12.485
37958W        W10218  18.136  28.549  11.152
37959W        W10219  19.027   8.676  13.866
37960W        W10220   7.205  21.292   1.227
37961W        W10221  15.095  13.870   9.829
37962W        W10222  17.529  36.066  13.043
37963W        W10223  34.369  20.825   4.682
37964W        W10224  34.916  31.669  13.014
37965W        W10225  26.681  19.841   4.519
37966W        W10226  41.476  42.689  12.163
37967W        W10227  37.304  41.916   3.169
37968W        W10228  14.134  37.803   2.185
37969W        W10229  38.478  25.655   2.378
37970W        W10230   0.496   4.860  14.444
37971W        W10231  24.703  24.926   2.035
37972W        W10232   7.454   0.335   0.567
37973W        W10233  11.257  32.190   0.586
37974W        W10234  27.136  22.671  13.450
37975W        W10235  23.544  28.249   4.540
37976W        W10236  26.185  41.853  12.094
37977W        W10237  15.645  14.720   0.851
37978W        W10238   5.490   7.751  13.838
37979W        W10239  42.125  14.387   1.739
37980W        W10240  14.677  14.684  12.382
37981W        W10241   8.711  38.965  12.578
37982W        W10242  41.970   3.800   0.253
37983W        W10243  12.008  40.885   0.228
37984W        W10244  32.986   4.967   2.349
37985W        W10245  28.289  17.136   1.335
37986W        W10246  37.349  24.696  12.436
37987W        W10247  39.480  18.159  11.061
37988W        W10248   6.603  35.770   0.725
37989W        W10249  18.549  30.122  11.280
37990W        W10250   6.971  43.046  14.847
37991W        W10251  23.232  44.813  11.538
37992W        W10252  43.782  37.617  11.964
37993W        W10253   7.611  35.402   1.973
37994W        W10254  27.700   2.617  14.805
37995W        W10255  44.238  41.356  12.444
37996W        W10256  40.301  13.326   2.291
37997W        W10257  20.039   2.870  14.449
37998W        W10258  11.361  11.897   2.639
37999W        W10259   2.941  27.540  12.992
38000W        W10260   3.698  11.885  12.454
38001W        W10261  43.263   7.471   3.720
38002W        W10262  10.611   1.761  13.226
38003W        W10263  37.604  35.162  13.462
38004W        W10264  32.680   2.717   4.590
38005W        W10265  24.501  29.790  14.490
38006W        W10266  37.604  30.856   3.634
38007W        W10267  15.694  27.159   5.120
38008W        W10268  41.503  18.048  13.048
38009W        W10269   7.934  29.220   4.158
38010W        W10270  32.646  36.443   2.749
38011W        W10271  41.360  15.590  10.729
38012W        W10272  36.058   4.783  10.655
38013W        W10273  20.960  20.691   1.762
38014W        W10274  41.802  19.145  10.645
38015W        W10275  10.132  20.753  14.457
38016W        W10276   0.095   8.008   3.655
38017W        W10277   7.840  42.062   3.174
38018W        W10278  25.900  19.267  11.985
38019W        W10279  43.204  29.160  12.806
38020W        W10280  10.334   1.154   4.030
38021W        W10281  18.542  37.375   3.232
38022W        W10282  23.933  27.182  12.350
38023W        W10283  12.769  24.447  11.200
38024W        W10284  40.083   2.583  12.395
38025W        W10285   5.905  32.140   0.414
38026W        W10286  26.199  19.028  14.880
38027W        W10287  29.078   2.338   1.833
38028W        W10288   8.832  40.769  12.131
38029W        W10289  16.928   3.405   5.055
38030W        W10290  17.322  20.136  14.994
38031W        W10291  39.940  44.259   0.351
38032W        W10292  18.436  20.579   2.229
38033W        W10293  23.592  27.478  14.394
38034W        W10294  34.179  21.808   2.134
38035W        W10295  20.958  35.929   4.228
38036W        W10296  16.142  16.628  13.589
38037W        W10297  18.553  22.113  14.831
38038W        W10298  29.596  32.069   4.990
38039W        W10299   9.024  33.222  12.546
38040W        W10300   9.651  17.615  12.350
38041W        W10301  30.108  36.945   3.296
38042W        W10302   7.623  15.849  10.656
38043W        W10303  42.840  36.348  11.386
38044W        W10304  32.889  36.276   1.470
38045W        W10305  31.531  23.747   0.792
38046W        W10306  32.651  23.162  10.840
38047W        W10307  25.207  17.753  14.318
38048W        W10308  35.862  36.886  12.997
38049W        W10309  20.140  24.948  10.310
38050W        W10310   8.743  33.421  12.027
38051W        W10311  14.406  38.995  12.245
38052W        W10312  17.362   2.776   4.098
38053W        W10313  27.166  10.121   2.880
38054W        W10314  20.153   7.339   0.544
38055W        W10315  34.391   4.358   2.284
38056W        W10316  39.428  12.394   4.233
38057W        W10317  39.950  19.947  11.527
38058W        W10318  38.396  29.515   0.839
38059W        W10319  17.172   1.812   4.726
38060W        W10320  31.737  44.554  11.065
38061W        W10321   4.795  14.868  13.869
38062W        W10322  19.311   9.383  11.953
38063W        W10323  20.888  32.953   4.966
38064W        W10324  35.947  24.146  10.999
38065W        W10325  12.744  43.703  10.750
38066W        W10326  31.884  41.316  14.188
38067W        W10327  34.341   3.840   2.343
38068W        W10328  28.454  36.441   1.717
38069W        W10329   4.291  41.720   1.950
38070W        W10330   7.382  14.803  12.282
38071W        W10331  42.050  42.727   4.319
38072W        W10332  22.237  13.214   4.938
38073W        W10333  18.700  40.115  13.281
38074W        W10334  35.614   8.686  14.490
38075W        W10335  26.299   6.640   0.484
38076W        W10336  38.361   9.010  13.042
38077W        W10337  24.553  39.545  11.619
38078W        W10338   2.828   6.411   4.402
38079W        W10339  35.767  29.316   2.243
38080W        W10340  40.032  29.395  12.878
38081W        W10341  24.289  19.990   2.309
38082W        W10342  21.789  20.122   3.182
38083W        W10343  37.365  27.738  14.441
38084W        W10344  15.462  16.990   4.121
38085W        W10345  28.370  13.655   4.504
38086W        W10346  10.692  28.720   1.566
38087W        W10347  22.825  25.946   2.195
38088W        W10348  34.905   3.452  11.173
38089W        W10349  22.123  24.509   0.418
38090W        W10350   3.922  44.939  13.836
38091W        W10351   1.944   2.895  11.185
38092W        W10352  26.618  39.571   1.855
38093W        W10353  27.090  26.065   3.192
38094W        W10354   2.697  26.877  12.460
38095W        W10355  31.960  36.380  14.124
38096W        W10356  27.413  31.685   2.674
38097W        W10357   7.928  19.233  11.088
38098W        W10358   9.340  36.785   3.261
38099W        W10359  43.260  15.344  14.888
38100W        W10360  26.005   6.228  10.850
38101W        W10361   0.929  10.305   1.825
38102W        W10362   8.964  41.881  13.391
38103W        W10363  11.777  30.766  12.860
38104W        W10364  22.230  44.375  13.482
38105W        W10365  15.545  32.917   2.338
38106W        W10366  32.534   6.438   0.305
38107W        W10367  22.151  23.176  10.412
38108W        W10368  27.192   7.884  14.494
38109W        W10369  35.532  13.695   1.409
38110W        W10370  26.048   6.288   2.021
38111W        W10371  34.552  44.382  12.937
38112W        W10372  17.802  21.375   2.860
38113W        W10373  14.563  35.807   3.332
38114W        W10374  21.238  28.969   1.760
38115W        W10375  13.796  22.974   2.034
38116W        W10376  40.531  22.639   4.108
38117W        W10377  24.443  27.860  14.439
38118W        W10378  30.657  32.134   4.615
38119W        W10379   3.186  11.403  13.366
38120W        W10380  21.021  25.049  12.152
38121W        W10381  23.120  42.858  14.697
38122W        W10382  35.008   2.528   1.274
38123W        W10383  12.172  40.748   2.072
38124W        W10384  16.523  29.558  10.750
38125W        W10385   1.632  33.234  11.662
38126W        W10386  31.333   0.890   2.047
38127W        W10387   4.144  26.196   5.075
38128W        W10388   3.361  23.591  13.039
38129W        W10389  34.354  23.685   3.043
38130W        W10390   1.752  39.509  14.734
38131W        W10391  37.885  11.063   2.232
38132W        W10392   8.708  18.684   4.396
38133W        W10393  38.485   9.405   4.189
38134W        W10394  40.021  26.521   4.259
38135W        W10395  34.945  38.799   2.622
38136W        W10396  21.352  17.832  14.318
38137W        W10397  11.114  16.788  12.582
38138W        W10398   5.673   4.761  13.922
38139W        W10399  23.537  16.212  14.825
38140W        W10400  15.210  30.107   1.604
38141W        W10401  28.280   2.676   3.990
38142W        W10402  33.407  37.512   0.892
38143W        W10403  29.647  21.216  12.593
38144W        W10404   0.572  18.620  13.391
38145W        W10405   9.158  18.239  14.417
38146W        W10406  37.557  36.286   0.997
38147W        W10407  40.052  40.356  14.701
38148W        W10408   8.215  33.362   2.534
38149W        W10409  22.062  14.730  11.745
38150W        W10410   5.814   6.461   0.919
38151W        W10411  35.482  24.599  13.637
38152W        W10412  21.120   1.967  12.382
38153W        W10413  30.831  25.135   0.248
38154W        W10414  22.651  36.997  14.079
38155W        W10415  41.827  10.254  11.132
38156W        W10416   2.961   2.038   3.345
38157W        W10417   9.401   0.977   1.345
38158W        W10418  26.176  32.470   4.008
38159W        W10419  27.262  24.046   3.686
38160W        W10420   9.718  42.797  14.860
38161W        W10421  16.178   9.372   2.818
38162W        W10422  13.603  26.312  10.635
38163W        W10423  38.406  40.565   4.724
38164W        W10424  18.106  11.625   0.381
38165W        W10425  23.200  37.508  12.462
38166W        W10426  39.008  31.985  14.823
38167W        W10427  11.735  31.592  11.871
38168W        W10428  20.562  31.935   0.774
38169W        W10429  40.499   6.109   2.813
38170W        W10430  39.920  23.962  11.435
38171W        W10431   8.684  33.459  11.166
38172W        W10432  42.679  40.228  10.641
38173W        W10433  36.351  14.335  10.722
38174W        W10434  20.287  14.474  13.871
38175W        W10435  30.563   6.021  12.439
38176W        W10436  10.154  24.766   1.152
38177W        W10437   9.611   3.526  12.247
38178W        W10438  29.599  10.860  14.967
38179W        W10439  41.725  19.735  12.226
38180W        W10440  27.999  26.132   3.341
38181W        W10441   9.226  32.248   0.669
38182W        W10442  30.100  16.813   3.793
38183W        W10443  22.801  18.655   0.379
38184W        W10444  20.374  30.051  13.973
38185W        W10445  37.007   4.940  12.552
38186W        W10446   7.823  23.622  10.318
38187W        W10447  30.255  28.371  14.515
38188W        W10448  31.721  27.124   0.046
38189W        W10449  24.043   1.669   2.325
38190W        W10450  44.954  22.565  14.625
38191W        W10451  11.794  25.765   2.238
38192W        W10452  33.061   9.349   2.415
38193W        W10453  26.385  22.722   0.293
38194W        W10454  17.260  12.781   3.197
38195W        W10455  21.737  13.620   3.298
38196W        W10456   6.925   7.066   3.574
38197W        W10457  19.698  23.292  13.919
38198W        W10458   4.733  20.472   4.623
38199W        W10459  17.142  15.089   0.340
38200W        W10460  34.618  12.867  10.778
38201W        W10461  39.503  11.101   2.827
38202W        W10462   4.746  41.283   2.847
38203W        W10463  20.758  15.392  12.910
38204W        W10464   3.883  27.123   2.286
38205W        W10465  27.999  19.709  13.393
38206W        W10466  18.267  13.781  14.036
38207W        W10467   9.806   7.293  12.993
38208W        W10468  43.789  22.000  12.271
38209W        W10469  18.501  21.661   4.508
38210W        W10470  44.341  34.166  13.600
38211W        W10471  24.771  14.113   3.303
38212W        W10472  43.029  41.777   4.249
38213W        W10473  39.295  23.268   3.706
38214W        W10474  43.413  19.426   0.528
38215W        W10475  44.921  20.116   1.421
38216W        W10476  42.383  34.810  13.950
38217W        W10477  28.614  18.245  12.892
38218W        W10478  24.225  30.700   0.246
38219W        W10479  38.065  10.171   5.434
38220W        W10480  24.747  33.151   4.018
38221W        W10481   8.369   6.991  12.073
38222W        W10482   8.132  14.798   3.152
38223W        W10483  39.816  27.104   3.394
38224W        W10484  16.148  33.676   4.139
38225W        W10485  24.185  26.681   4.324
38226W        W10486  24.286  16.527  11.145
38227W        W10487  41.848  16.068   3.992
38228W        W10488   2.351  39.052   0.324
38229W        W10489  30.462  44.342  13.971
38230W        W10490  16.107  40.649   3.663
38231W        W10491  24.685  11.797  12.632
38232W        W10492  43.484  42.249   1.780
38233W        W10493  40.860  21.671   0.819
38234W        W10494  11.862  25.975  12.557
38235W        W10495  20.778   5.848   1.431
38236W        W10496  17.173  25.494  11.527
38237W        W10497  41.869  18.977  14.462
38238W        W10498  38.296  25.528   1.313
38239W        W10499  10.730  28.399   0.269
38240W        W10500  13.998  35.981  12.579
38241W        W10501   8.251   3.907  13.008
38242W        W10502  20.189  36.893   1.532
38243W        W10503  16.454  18.643  11.580
38244W        W10504  34.325   7.359   0.426
38245W        W10505  12.560  34.685   1.741
38246W        W10506  44.021  10.136  14.262
38247W        W10507  31.437  19.150  14.763
38248W        W10508  36.505   0.982  14.211
38249W        W10509  43.244  30.901  12.705
38250W        W10510  16.113   2.409   3.750
38251W        W10511  26.655  18.985   2.179
38252W        W10512  12.241   9.828  13.947
38253W        W10513  35.836   4.447   2.352
38254W        W10514  27.617  24.297  11.645
38255W        W10515  22.199  31.575  13.590
38256W        W10516  38.470  27.567  14.519
38257W        W10517  41.948  13.043  12.555
38258W        W10518   5.385  16.319  14.940
38259W        W10519   5.914  24.629  14.533
38260W        W10520  20.552   3.298  11.538
38261W        W10521  39.567  29.866  11.091
38262W        W10522  13.378  35.811  10.671
38263W        W10523  39.907   2.323   4.654
38264W        W10524  28.305  35.549   1.920
38265W        W10525  13.692  34.009   4.403
38266W        W10526  16.246   7.796   2.325
38267W        W10527  44.615  13.520   3.855
38268W        W10528  28.047  19.077  14.156
38269W        W10529  44.034   5.494   4.174
38270W        W10530  25.778   2.955   1.341
38271W        W10531  22.614  34.736  12.208
38272W        W10532  15.780  13.316   3.931
38273W        W10533   0.068  42.318   0.302
38274W        W10534  29.191   2.844  12.399
38275W        W10535  30.222   5.575   1.515
38276W        W10536  23.697   1.249   4.647
38277W        W10537  22.710  41.584   2.689
38278W        W10538  44.363   3.404   3.377
38279W        W10539  42.524  21.559  12.395
38280W        W10540  34.401  14.833   3.387
38281W        W10541  23.513  22.085  14.695
38282W        W10542   2.394  25.062   4.210
38283W        W10543   0.917  23.472  12.019
38284W        W10544  15.389  37.337   4.461
38285W        W10545  38.331  10.872   5.116
38286W        W10546   6.255  13.983  14.863
38287W        W10547  11.349   9.957  14.026
38288W        W10548   0.955   1.162  13.427
38289W        W10549  18.017  34.333   1.360
38290W        W10550  30.700  12.614  10.817
38291W        W10551   0.813   0.113   0.961
38292W        W10552   7.329  22.662  13.033
38293W        W10553  32.706  23.474   0.871
38294W        W10554   5.322  36.606   0.226
38295W        W10555  27.062  38.569   0.849
38296W        W10556  26.940  40.792   1.335
38297W        W10557  13.657  35.386  10.595
38298W        W10558   0.908  18.598   3.517
38299W        W10559  39.067  39.849   0.872
38300W        W10560  31.624  34.386   0.963
38301W        W10561  35.897  21.791  11.398
38302W        W10562  12.632  12.242  14.329
38303W        W10563  26.513   1.018  11.461
38304W        W10564  25.019   1.445  11.678
38305W        W10565   4.878   8.114  14.385
38306W        W10566  20.631  15.332   4.860
38307W        W10567   3.129  23.938  14.451
38308W        W10568  14.779  26.995   4.101
38309W        W10569  10.691  24.177  14.386
38310W        W10570   0.698  32.538  12.058
38311W        W10571   6.432  19.445   3.148
38312W        W10572  17.601  27.927   4.073
38313W        W10573   5.484   6.275   3.331
38314W        W10574  17.577  22.531  14.395
38315W        W10575  22.015  24.962   2.837
38316W        W10576  44.221  37.792   1.010
38317W        W10577  23.212  24.696  14.388
38318W        W10578  31.889   2.343   2.862
38319W        W10579  40.391  37.131   0.029
38320W        W10580   1.053  14.294  10.063
38321W        W10581  18.858   6.157   4.268
38322W        W10582  25.298  20.093   3.395
38323W        W10583  16.666  35.398   3.598
38324W        W10584   2.740  19.318   2.651
38325W        W10585   5.235  30.430  13.508
38326W        W10586  13.801  11.909  12.667
38327W        W10587  14.045  35.510   3.609
38328W        W10588   2.779  10.647   2.858
38329W        W10589   5.325  21.627   3.912
38330W        W10590  39.918  12.724   3.177
38331W        W10591  35.796  24.342   3.122
38332W        W10592  12.339  12.665  14.249
38333W        W10593  10.692  40.218  14.908
38334W        W10594   5.792  20.085  10.940
38335W        W10595  39.967  30.988  14.520
38336W        W10596  25.297  17.535   3.658
38337W        W10597  37.921   4.529   4.794
38338W        W10598  18.705   5.272   0.044
38339W        W10599   2.548  12.023  14.503
38340W        W10600  39.281  34.131   3.749
38341W        W10601  16.683  25.420  10.454
38342W        W10602  11.783  44.358   2.162
38343W        W10603  15.145   2.320   1.982
38344W        W10604  20.018   3.374   3.896
38345W        W10605  19.282   6.297   3.310
38346W        W10606  42.182  33.098  13.324
38347W        W10607  12.726  36.589   2.711
38348W        W10608  36.003   9.529  14.838
38349W        W10609  24.187  21.438   4.185
38350W        W10610  24.199  38.278  13.744
38351W        W10611  17.416   2.637  11.807
38352W        W10612  19.312  29.401  12.457
38353W        W10613  31.686  24.059   1.179
38354W        W10614  12.212  21.069  12.012
38355W        W10615  44.699  35.598   0.517
38356W        W10616  17.200  24.870   4.575
38357W        W10617   9.185   7.865  14.358
38358W        W10618  15.583  22.294  13.886
38359W        W10619  31.988  43.847  14.394
38360W        W10620  40.021  39.111   1.968
38361W        W10621   2.339   4.732   3.866
38362W        W10622  23.720  32.389   3.617
38363W        W10623  17.944  30.685   0.748
38364W        W10624  43.373  38.053   1.952
38365W        W10625   1.621   6.367  10.699
38366W        W10626  16.340  42.064   3.054
38367W        W10627  20.563  13.355   1.025
38368W        W10628   3.892  15.685  11.676
38369W        W10629  16.312  33.612  13.090
38370W        W10630  28.135  33.503  14.818
38371W        W10631  38.186  35.975   2.162
38372W        W10632   4.294  26.664   4.961
38373W        W10633  10.238  24.622   4.486
38374W        W10634   5.976  41.711  14.275
38375W        W10635  36.105  37.569  14.246
38376W        W10636  39.487  28.087  11.928
38377W        W10637  31.196   3.898  10.969
38378W        W10638  16.397  42.272   1.297
38379W        W10639   8.368  37.061   4.602
38380W        W10640  19.656  37.320   0.880
38381W        W10641   1.967  40.942   4.739
38382W        W10642   7.907  18.484  12.228
38383W        W10643  27.964  27.049   2.455
38384W        W10644  20.248  43.698   4.223
38385W        W10645   8.261  31.974  13.386
38386W        W10646  21.336  44.252   1.275
38387W        W10647   4.293  35.454  10.623
38388W        W10648   8.255   3.708   1.712
38389W        W10649  26.865  41.607  10.472
38390W        W10650  13.479  36.009   2.468
38391W        W10651  29.099  15.746   4.294
38392W        W10652  42.231  21.437   1.007
38393W        W10653  24.235  33.158   4.747
38394W        W10654  28.463  24.822  10.674
38395W        W10655  38.280  22.449  13.271
38396W        W10656  30.995   1.099   4.517
38397W        W10657  26.202  20.138  14.867
38398W        W10658  13.094  26.108  12.005
38399W        W10659  25.791   2.506   4.874
38400W        W10660   6.871  31.633   1.240
38401W        W10661  34.987  19.556   4.366
38402W        W10662   6.038  32.871   3.652
38403W        W10663   1.614   4.572   0.477
38404W        W10664  31.989  32.142   4.522
38405W        W10665  17.738   9.610   3.603
38406W        W10666  29.044  10.812   3.530
38407W        W10667   6.281  36.613  11.186
38408W        W10668  40.263  40.966  12.946
38409W        W10669   2.279  17.084   0.168
38410W        W10670  44.391  31.593   3.091
38411W        W10671  21.551  14.253  13.747
38412W        W10672  25.532  29.928  14.428
38413W        W10673  17.621  30.481  10.822
38414W        W10674  22.554  36.290   0.234
38415W        W10675  32.817  25.698   3.866
38416W        W10676  33.473  41.315  13.511
38417W        W10677   1.008  41.605  11.250
38418W        W10678  28.633  30.628  12.051
38419W        W10679  42.233   6.735  13.564
38420W        W10680  37.775   1.950  10.984
38421W        W10681  26.673  13.650  12.010
38422W        W10682   8.495  38.528   1.960
38423W        W10683  38.716  15.484  12.866
38424W        W10684  26.521  38.481  10.783
38425W        W10685   6.433  27.642  14.968
38426W        W10686   2.778  31.362  11.137
38427W        W10687  30.522  30.873   2.404
38428W        W10688  31.008  12.103  13.557
38429W        W10689  23.519  36.894   3.328
38430W        W10690  21.597   1.878   2.504
38431W        W10691  21.294  21.960   3.183
38432W        W10692  11.570  40.442   3.214
38433W        W10693  14.264  27.403   2.400
38434W        W10694  13.594  25.085  12.042
38435W        W10695  33.473  18.699   0.769
38436W        W10696  13.201  37.463   1.396
38437W        W10697   2.145  44.928  12.440
38438W        W10698  42.717  12.406  12.861
38439W        W10699   0.749  12.646  11.178
38440W        W10700   9.669  26.897   4.147
38441W        W10701  14.294  25.155   5.219
38442W        W10702  20.261   7.756   1.907
38443W        W10703  28.204  26.912  10.700
38444W        W10704  10.205  19.989   0.839
38445W        W10705  44.960  43.547   2.745
38446W        W10706  44.027  21.104  12.879
38447W        W10707  29.151  44.746   3.685
38448W        W10708   5.950   0.938  10.524
38449W        W10709  26.109  31.534   3.795
38450W        W10710  28.635  13.013   2.510
38451W        W10711  35.400  40.004   1.468
38452W        W10712  21.157  19.193  14.781
38453W        W10713  36.601  23.473  11.336
38454W        W10714  32.161  41.280   1.295
38455W        W10715  43.425   6.329  13.868
38456W        W10716  25.824  43.314   0.339
38457W        W10717  15.185   0.926  13.910
38458W        W10718  22.699  14.291  12.550
38459W        W10719  30.055  23.037  10.705
38460W        W10720  37.618  12.494   1.249
38461W        W10721  17.542  10.418  11.022
38462W        W10722  12.414  24.451  14.612
38463W        W10723   2.300  33.973  14.813
38464W        W10724  21.940  40.222   0.198
38465W        W10725   8.761   2.450   1.881
38466W        W10726  18.369  24.050  12.950
38467W        W10727   4.025  19.182   1.424
38468W        W10728   3.446  12.563   4.793
38469W        W10729  39.824  36.144   2.327
38470W        W10730   4.261  43.864   0.444
38471W        W10731  41.097   6.693   2.435
38472W        W10732  24.289  21.657  11.473
38473W        W10733  28.455   4.492  13.599
38474W        W10734  12.517  20.454   3.521
38475W        W10735  27.537   5.740   2.385
38476W        W10736  29.383  42.912   3.676
38477W        W10737  12.565   3.291  10.825
38478W        W10738   8.328  16.225   4.405
38479W        W10739  14.665  44.837  14.494
38480W        W10740   0.282  35.165   1.210
38481W        W10741  17.703  42.634   3.323
38482W        W10742  33.890   8.761   0.398
38483W        W10743   8.756  42.201   3.806
38484W        W10744  21.961  31.054   1.455
38485W        W10745  27.839  12.178   0.882
38486W        W10746  11.182  18.824   1.788
38487W        W10747  11.707  27.163  13.286
38488W        W10748  18.127  40.816   2.155
38489W        W10749  32.443  12.807   0.375
38490W        W10750  40.858  41.012  14.362
38491W        W10751  39.749  27.609  11.953
38492W        W10752  16.577  36.998   1.947
38493W        W10753  29.230  20.297  11.933
38494W        W10754  20.865   2.423  14.410
38495W        W10755  44.387  30.648   2.671
38496W        W10756  17.159   7.195  14.014
38497W        W10757  40.628  27.659  13.034
38498W        W10758  39.549  36.010   1.917
38499W        W10759  21.768  18.605   4.463
38500W        W10760   0.277   8.140   0.410
38501W        W10761  10.716  24.069   0.896
38502W        W10762  39.096   2.630  12.035
38503W        W10763  26.036  43.682  14.945
38504W        W10764  27.088  41.102   2.333
38505W        W10765  39.373   9.713   0.920
38506W        W10766  41.227  32.051   3.787
38507W        W10767  12.307  43.390  14.610
38508W        W10768  23.854  18.262   2.425
38509W        W10769  11.639  10.371   0.489
38510W        W10770   2.470  27.269   4.872
38511W        W10771   5.154  44.933   0.162
38512W        W10772  29.168  36.633  14.258
38513W        W10773  27.425  40.438   0.642
38514W        W10774   4.896  41.111   3.487
38515W        W10775   4.373  14.202   4.959
38516W        W10776   0.038  32.947   4.486
38517W        W10777  28.544  39.899   1.740
38518W        W10778  28.233  28.399   4.095
38519W        W10779  12.865  15.027   2.646
38520W        W10780  26.152  18.218  14.248
38521W        W10781  16.826  36.586   2.846
38522W        W10782   9.871  32.837  12.101
38523W        W10783   2.372  29.530   3.251
38524W        W10784  10.138  21.650  10.730
38525W        W10785  10.721  11.813   1.233
38526W        W10786  27.280  28.515  14.826
38527W        W10787  13.360  29.552   3.881
38528W        W10788   8.879  32.598  13.211
38529W        W10789   0.986  41.853   4.221
38530W        W10790  43.847  14.789   3.746
38531W        W10791   5.398   6.301   2.321
38532W        W10792  36.915  18.345   1.731
38533W        W10793   3.273   2.684  14.542
38534W        W10794   7.400  37.437  14.752
38535W        W10795  26.566  38.792   0.697
38536W        W10796   7.148  44.524   0.935
38537W        W10797  39.294  32.603  12.555
38538W        W10798  38.049   6.509   1.483
38539W        W10799  30.913  11.613  13.592
38540W        W10800   7.741  22.776   2.805
38541W        W10801   2.723  21.253   0.849
38542W        W10802  43.008  44.476  13.803
38543W        W10803   7.684  43.317   1.727
38544W        W10804  26.066  44.011   0.534
38545W        W10805  14.553  28.202   0.827
38546W        W10806   9.542  22.619  12.233
38547W        W10807  15.602  21.702   0.426
38548W        W10808  37.523  10.210  11.398
38549W        W10809  41.691  43.005  12.518
38550W        W10810  28.537   3.839  11.563
38551W        W10811  19.203  21.817  10.860
38552W        W10812  44.358  39.962   2.282
38553W        W10813   9.636  17.632   4.201
38554W        W10814  27.920   1.794   3.514
38555W        W10815  22.692  32.156   4.513
38556W        W10816  14.400  38.607   2.345
38557W        W10817  25.622   6.673   9.839
38558W        W10818   9.573   3.987   0.894
38559W        W10819   3.427  30.529   3.046
38560W        W10820   0.929  28.932   1.699
38561W        W10821  38.072  23.806   1.233
38562W        W10822   9.457  28.605   3.294
38563W        W10823  42.068  44.959  13.433
38564W        W10824  30.811  35.184  10.705
38565W        W10825  43.294  18.008   0.506
38566W        W10826  27.500  28.526   3.372
38567W        W10827  15.825   3.649  12.316
38568W        W10828   6.801  27.400   3.785
38569W        W10829  29.621  14.862  10.789
38570W        W10830  15.278   1.689   1.246
38571W        W10831  33.933   7.868   0.302
38572W        W10832   1.746   1.159   0.051
38573W        W10833   5.216  35.366   4.614
38574W        W10834  44.108  30.748  12.345
38575W        W10835  14.824  14.256   3.762
38576W        W10836   1.718  25.967  12.683
38577W        W10837  44.245  22.087  14.843
38578W        W10838  17.728  43.234  13.743
38579W        W10839   1.716  24.249  14.427
38580W        W10840  40.516  44.257   0.847
38581W        W10841  42.831   8.857   4.060
38582W        W10842  33.092  20.485   3.774
38583W        W10843  27.654  44.508   3.269
38584W        W10844  25.263   4.424  12.884
38585W        W10845  39.956  40.782  11.221
38586W        W10846   4.742  22.349   4.251
38587W        W10847   1.471  29.902  12.993
38588W        W10848  42.316  34.852   3.547
38589W        W10849  16.327  16.592  14.531
38590W        W10850  17.825  11.744  14.968
38591W        W10851   7.764  23.590   4.124
38592W        W10852  16.883  33.098   4.220
38593W        W10853   4.926  28.085  11.946
38594W        W10854  29.424  23.913   3.129
38595W        W10855  40.275  13.563   4.593
38596W        W10856  40.450  42.961   1.227
38597W        W10857  29.534  25.364   4.750
38598W        W10858  36.482  11.123   3.646
38599W        W10859   7.380  14.865   2.873
38600W        W10860   9.134  31.399   2.147
38601W        W10861   7.635   5.878   4.105
38602W        W10862   5.636  27.925  12.456
38603W        W10863  32.815  40.875  11.197
38604W        W10864  37.012  30.726  12.000
38605W        W10865  23.947   2.765  12.140
38606W        W10866   4.813   5.332   0.719
38607W        W10867  18.181  41.468   1.886
38608W        W10868  30.957  24.256  13.693
38609W        W10869  18.281   7.831   2.561
38610W        W10870   1.836  15.558   3.738
38611W        W10871  30.671  21.103  14.278
38612W        W10872  32.728  44.286   0.542
38613W        W10873  35.905  11.957   4.384
38614W        W10874   3.386  11.186  13.779
38615W        W10875  15.720   4.250  10.903
38616W        W10876  29.033  21.767   2.280
38617W        W10877   9.697   5.193   1.503
38618W        W10878   2.028  19.523  12.036
38619W        W10879  39.922  24.240   4.407
38620W        W10880  28.907  20.770   1.233
38621W        W10881  24.923   7.217  13.384
38622W        W10882  39.463  36.617  11.279
38623W        W10883  15.810  37.563   4.718
38624W        W10884  23.648   6.704  14.581
38625W        W10885   7.852   9.213   3.280
38626W        W10886  13.294   4.407  12.050
38627W        W10887  44.883  24.480  11.091
38628W        W10888  44.884   8.554   3.346
38629W        W10889  19.268  27.731  13.480
38630W        W10890  14.203  14.130   0.393
38631W        W10891  43.823   0.309   1.432
38632W        W10892  17.322  43.778  13.039
38633W        W10893  30.298  14.656   4.165
38634W        W10894  39.657  17.667   0.887
38635W        W10895  33.629  29.927   0.837
38636W        W10896  31.678  28.849   4.082
38637W        W10897  25.026   3.281  12.516
38638W        W10898  18.160  42.841  12.179
38639W        W10899   4.474  34.731   4.585
38640W        W10900  34.405  15.323   1.223
38641W        W10901  16.267  21.701   2.273
38642W        W10902  29.058   2.963  14.560
38643W        W10903  43.305  10.673   0.947
38644W        W10904  26.876  41.430  13.799
38645W        W10905  37.490  33.479  14.269
38646W        W10906   9.287   7.568  13.379
38647W        W10907   1.951  14.297   3.130
38648W        W10908  28.573  42.794   1.216
38649W        W10909   5.807  36.417  13.850
38650W        W10910   4.466  36.470  10.712
38651W        W10911  19.556  34.301  12.501
38652W        W10912  37.138  31.874  14.702
38653W        W10913  11.347  43.681  13.581
38654W        W10914  17.265   7.454  11.525
38655W        W10915   8.252   8.590  12.956
38656W        W10916  11.309  17.005  13.551
38657W        W10917  26.450  21.262   4.634
38658W        W10918   6.531   2.408   3.623
38659W        W10919  44.942  43.356  10.995
38660W        W10920   2.054  40.512   3.107
38661W        W10921  18.976   1.921   1.765
38662W        W10922  20.052   2.305   3.771
38663W        W10923  31.656  43.983   4.106
38664W        W10924  32.169  12.863   0.808
38665W        W10925  12.285  39.038   0.885
38666W        W10926  34.705   9.678  12.488
38667W        W10927  29.485  16.128   0.846
38668W        W10928  23.774  32.668   4.062
38669W        W10929  21.536  22.946   4.609
38670W        W10930  30.088  31.874   3.330
38671W        W10931  21.767  28.257   2.015
38672W        W10932  11.085  30.910  14.389
38673W        W10933  22.113  17.016  14.884
38674W        W10934  29.581  26.056   0.653
38675W        W10935  22.686  43.428   4.158
38676W        W10936  19.775  12.259  11.159
38677W        W10937  11.420  44.925  12.760
38678W        W10938  44.853  25.083   2.268
38679W        W10939  44.799  22.526   0.678
38680W        W10940  21.146   7.920   0.347
38681W        W10941  44.688  22.200   3.702
38682W        W10942  33.737  11.314   4.415
38683W        W10943  34.953  19.164   3.643
38684W        W10944   2.947  43.322   1.925
38685W        W10945   5.198  38.774  10.776
38686W        W10946  28.305   7.778   4.222
38687W        W10947  34.519   3.519   0.921
38688W        W10948  44.151   4.259   2.146
38689W        W10949  26.746  38.024  10.667
38690W        W10950  13.196  33.926   1.157
38691W        W10951  23.139   8.960   1.436
38692W        W10952  43.248  27.866  10.252
38693W        W10953  12.611  43.940   2.412
38694W        W10954  37.897  22.204  11.530
38695W        W10955  20.600   8.126  13.268
38696W        W10956   8.632   0.999  13.408
38697W        W10957   0.512   4.013  14.899
38698W        W10958  19.111  29.011  12.190
38699W        W10959  19.788  34.067   3.652
38700W        W10960  27.946   3.516  13.815
38701W        W10961   8.012  18.655   2.726
38702W        W10962  22.260   0.256  13.270
38703W        W10963   2.764  18.552   2.390
38704W        W10964  20.752  33.933  15.000
38705W        W10965  40.614  22.503  11.880
38706W        W10966  23.840  42.932  13.340
38707W        W10967  15.302   0.502   4.148
38708W        W10968  34.113  42.251  12.534
38709W        W10969  26.152  22.273  14.430
38710W        W10970  23.528  21.693  11.997
38711W        W10971  16.613  20.952  12.027
38712W        W10972  17.324  15.056   0.849
38713W        W10973  32.570   5.743  11.591
38714W        W10974  13.761  22.186   2.631
38715W        W10975  33.043  36.268  13.120
38716W        W10976  23.711  33.936   4.455
38717W        W10977  20.647  15.565  14.221
38718W        W10978  23.633  30.516  11.568
38719W        W10979  20.137   0.432   0.635
38720W        W10980   6.133  32.498   1.319
38721W        W10981  24.388  39.956   2.806
38722W        W10982  25.616  27.673  14.542
38723W        W10983  24.387  33.008  12.246
38724W        W10984  29.437  11.878  11.965
38725W        W10985   3.645  21.063   4.827
38726W        W10986   0.747  17.702  10.823
38727W        W10987  37.621   4.829  11.666
38728W        W10988   7.158  23.066  10.581
38729W        W10989  27.508  14.389   0.823
38730W        W10990  17.195   0.062   0.655
38731W        W10991  20.111  35.108   1.930
38732W        W10992  39.984  18.700   0.477
38733W        W10993  10.144  22.697  12.877
38734W        W10994  20.632  41.502  11.163
38735W        W10995  41.444   3.936   1.497
38736W        W10996  29.878  20.696   0.286
38737W        W10997  33.655   4.297  10.479
38738W        W10998   2.143  36.527  13.462
38739W        W10999   5.834  28.517  13.581
38740W        W11000  27.961  11.726   3.216
38741W        W11001  19.471   5.738  10.256
38742W        W11002   6.800   6.962  10.471
38743W        W11003  32.099  14.745   4.569
38744W        W11004  11.443  36.460   0.512
38745W        W11005   1.960  41.101   0.343
38746W        W11006  22.463  26.621  14.377
38747W        W11007  28.919   2.754   4.737
38748W        W11008   0.835   5.427   4.405
38749W        W11009  31.464  16.288   3.607
38750W        W11010  29.767  30.232   3.292
38751W        W11011  12.156  37.958  12.884
38752W        W11012  44.590  26.838   9.974
38753W        W11013  43.806  12.383   1.823
38754W        W11014  44.675  37.180   3.181
38755W        W11015   4.158   6.674   2.208
38756W        W11016  12.524   7.814   0.811
38757W        W11017  23.560  27.537   3.055
38758W        W11018   1.459  25.217  13.463
38759W        W11019  35.934  16.091   3.653
38760W        W11020  15.747  38.921  12.852
38761W        W11021   9.386  18.662   0.275
38762W        W11022   2.018  21.784  13.029
38763W        W11023  22.096  23.809  12.502
38764W        W11024  41.466   9.959  14.368
38765W        W11025   1.754  13.265   4.016
38766W        W11026  25.807  28.561   2.292
38767W        W11027   7.834  11.830   1.720
38768W        W11028  35.484   9.069  11.155
38769W        W11029   7.187  31.624  13.163
38770W        W11030  22.662  14.849   3.656
38771W        W11031  22.417  27.943  12.990
38772W        W11032   5.589  39.737   4.550
38773W        W11033   7.168  22.960   2.599
38774W        W11034  37.058   1.037  11.916
38775W        W11035  14.332  12.033   3.849
38776W        W11036   0.433  42.393   2.295
38777W        W11037  22.063  23.651   4.397
38778W        W11038  13.609  10.235   3.223
38779W        W11039  23.578  12.191  10.707
38780W        W11040  35.761  27.088  12.386
38781W        W11041  38.231  34.994  13.695
38782W        W11042  28.188  13.764   3.867
38783W        W11043  23.477   3.146  11.932
38784W        W11044  33.106   1.367  12.896
38785W        W11045  37.078  27.899   3.567
38786W        W11046  25.006  41.533   2.899
38787W        W11047   2.828  24.988  11.160
38788W        W11048  21.225  12.887   3.631
38789W        W11049  32.661  15.188  10.741
38790W        W11050  21.004  19.223  14.277
38791W        W11051  37.514  17.883  12.872
38792W        W11052  32.620  28.736   0.830
38793W        W11053  21.756  31.825  11.031
38794W        W11054  35.565  29.692  10.758
38795W        W11055   0.195   3.221  12.551
38796W        W11056  37.056  21.843  13.884
38797W        W11057  20.202  26.636   4.340
38798W        W11058   9.837  31.508  10.739
38799W        W11059  29.086  32.960   4.233
38800W        W11060  40.480  40.102   2.925
38801W        W11061   1.823  18.942   0.368
38802W        W11062  11.797   2.029   2.291
38803W        W11063  13.240  15.089  14.393
38804W        W11064  30.971   0.697  13.723
38805W        W11065  22.689   7.554  10.723
38806W        W11066  24.369  32.177   2.877
38807W        W11067  44.300  41.278  13.516
38808W        W11068   3.853  21.230  11.873
38809W        W11069  33.137  31.132  10.599
38810W        W11070  43.845  16.318  12.878
38811W        W11071  22.696  26.773   0.291
38812W        W11072  38.091  35.910  12.833
38813W        W11073  36.331  35.178  10.758
38814W        W11074  31.519  20.269  11.882
38815W        W11075  44.225   7.382  13.989
38816W        W11076  22.199  42.823   2.801
38817W        W11077   6.903   0.356  13.390
38818W        W11078  34.115  35.402   0.060
38819W        W11079  36.765  14.033  14.560
38820W        W11080  35.359   8.855  11.600
38821W        W11081   1.291  43.793  13.181
38822W        W11082  18.739  18.162  12.669
38823W        W11083   7.376  15.524  12.913
38824W        W11084  24.036   0.839   1.058
38825W        W11085  31.387  12.260  14.398
38826W        W11086  37.027  33.349   0.543
38827W        W11087   5.023  43.845  13.665
38828W        W11088  37.915  19.345   2.023
38829W        W11089   2.309  31.139   2.284
38830W        W11090   4.225  42.032  13.309
38831W        W11091  30.251  44.773   1.760
38832W        W11092   2.526  25.931  14.431
38833W        W11093  20.204  10.432  12.765
38834W        W11094  10.108   5.333  12.900
38835W        W11095  10.783  32.348   0.481
38836W        W11096  32.970  14.611   0.438
38837W        W11097  20.049  20.196   4.101
38838W        W11098  19.821  41.439   3.979
38839W        W11099   5.434   5.396  12.373
38840W        W11100  13.750   1.801   2.348
38841W        W11101  16.685   4.520   3.238
38842W        W11102   9.381  16.228  12.055
38843W        W11103  20.075  21.554  13.212
38844W        W11104  29.920  26.420   0.473
38845W        W11105  16.288  28.136   1.337
38846W        W11106  14.814   5.604  11.058
38847W        W11107   5.433  13.281  14.390
38848W        W11108  16.797   0.846  10.890
38849W        W11109  24.634  10.705   0.717
38850W        W11110   0.258  30.527   2.954
38851W        W11111  16.486  27.529   4.569
38852W        W11112  44.727  24.290   3.556
38853W        W11113  41.874  36.728   1.293
38854W        W11114  26.204  20.909  11.791
38855W        W11115   0.343  21.393  14.473
38856W        W11116  31.384   6.458   3.727
38857W        W11117  33.994   8.257  10.700
38858W        W11118  26.619   4.038  11.479
38859W        W11119  25.396  36.836   2.417
38860W        W11120  33.523  28.110   1.890
38861W        W11121  37.363   7.155   1.304
38862W        W11122  15.156  44.530   2.281
38863W        W11123  41.315  10.753   4.653
38864W        W11124  38.134  11.522   2.382
38865W        W11125  43.332  34.526  10.861
38866W        W11126  32.211  21.298   4.177
38867W        W11127   1.931  30.293  11.290
38868W        W11128  40.645   7.325  13.870
38869W        W11129   1.290  40.202   1.709
38870W        W11130  24.643  43.513  13.536
38871W        W11131  14.758  25.304  14.668
38872W        W11132  13.232  33.739   0.226
38873W        W11133  33.322  36.521   1.336
38874W        W11134  13.336  20.178   3.332
38875W        W11135   5.178  42.344  14.950
38876W        W11136  38.507  20.178  10.738
38877W        W11137  14.867   9.648   0.062
38878W        W11138  38.902  44.117   1.477
38879W        W11139  13.698  33.457   1.712
38880W        W11140   2.151   7.471  11.820
38881W        W11141  40.482  42.892   3.731
38882W        W11142  26.479  13.653   1.401
38883W        W11143   6.894   5.784   2.767
38884W        W11144   2.458  26.050  13.516
38885W        W11145  24.565  28.391  13.004
38886W        W11146   1.479  34.046   1.916
38887W        W11147  38.827  25.161  10.884
38888W        W11148  36.782  41.461   0.932
38889W        W11149  25.158  14.617  11.907
38890W        W11150   1.769  12.133  10.596
38891W        W11151   1.729  43.976   4.104
38892W        W11152  30.073  25.107   3.205
38893W        W11153  34.577  22.981   0.259
38894W        W11154  24.641  43.037  13.290
38895W        W11155  20.473  13.623  11.074
38896W        W11156   8.757  33.052  12.983
38897W        W11157  27.224   4.745  11.862
38898W        W11158  17.005  42.774   4.230
38899W        W11159   5.652  26.164  12.499
38900W        W11160  17.983  31.976  12.459
38901W        W11161  25.701  39.595   4.493
38902W        W11162  29.238  14.286  14.716
38903W        W11163   4.551  35.037   4.152
38904W        W11164  18.618  25.095  11.148
38905W        W11165  38.076  43.264  12.865
38906W        W11166  38.406  37.339  14.724
38907W        W11167  31.987  15.680  10.683
38908W        W11168  27.707  32.926   4.426
38909W        W11169  19.735  10.364  12.983
38910W        W11170  42.337  30.082   0.797
38911W        W11171  29.372  24.216  12.527
38912W        W11172  16.529   9.550   0.969
38913W        W11173  34.356  26.528  11.876
38914W        W11174  23.515  41.519  14.433
38915W        W11175  27.165   8.957  13.736
38916W        W11176   3.859   6.225   2.308
38917W        W11177  17.245  16.198   4.185
38918W        W11178  10.582  15.639  12.072
38919W        W11179  14.592   2.658   0.417
38920W        W11180   1.232  27.611   0.559
38921W        W11181  35.337  37.525  10.699
38922W        W11182  15.199  31.403  10.538
38923W        W11183   6.168  23.083   3.550
38924W        W11184   7.626   1.478  11.118
38925W        W11185  27.808  34.855  12.215
38926W        W11186  43.756  40.986   1.878
38927W        W11187  13.223  13.006  11.379
38928W        W11188  14.602  39.822   2.385
38929W        W11189  18.108  35.209  12.868
38930W        W11190   0.687   6.180  11.213
38931W        W11191   2.073   8.671   4.130
38932W        W11192   3.286   0.471   3.030
38933W        W11193  17.280  44.497   1.906
38934W        W11194  36.880  30.080   4.075
38935W        W11195  14.558  38.684  11.860
38936W        W11196  29.225  16.729  12.920
38937W        W11197  18.812  39.924   2.829
38938W        W11198  38.473  10.681   1.985
38939W        W11199  13.093   2.951   4.131
38940W        W11200  25.178   5.520   3.824
38941W        W11201  14.784  27.964   4.917
38942W        W11202  20.444   0.483  11.093
38943W        W11203  16.791  28.875  14.296
38944W        W11204   0.380  33.621   1.364
38945W        W11205  32.153  14.099   2.681
38946W        W11206  39.994  12.226   4.938
38947W        W11207  21.538   0.334   2.306
38948W        W11208  23.303  11.672   0.776
38949W        W11209   2.195   4.970  13.595
38950W        W11210  12.879  34.271  13.568
38951W        W11211  43.379  31.072  13.962
38952W        W11212  11.717  16.603   2.671
38953W        W11213  13.150   8.363   1.537
38954W        W11214   6.314  44.735   4.854
38955W        W11215  26.104  11.679   2.208
38956W        W11216  36.943  20.365  13.962
38957W        W11217   1.346  24.605   0.939
38958W        W11218  15.197  18.253   1.937
38959W        W11219   2.241   7.644   2.179
38960W        W11220   0.629   6.682  11.372
38961W        W11221  20.515  42.710   0.800
38962W        W11222  43.821  22.536   3.761
38963W        W11223  40.655  23.646   3.594
38964W        W11224   6.583   2.967   2.073
38965W        W11225  44.317  35.174  13.336
38966W        W11226  29.968  42.873   1.423
38967W        W11227   6.338   4.063   2.306
38968W        W11228   0.985  40.305  11.957
38969W        W11229  33.513   6.664   3.378
38970W        W11230  37.589  19.313   3.851
38971W        W11231  37.765  11.249  11.582
38972W        W11232  39.484  22.168   1.912
38973W        W11233   0.718   6.171  14.316
38974W        W11234  40.360  25.957   3.369
38975W        W11235  37.062  10.993   3.641
38976W        W11236  44.856  18.037   2.482
38977W        W11237  22.560   5.628  13.177
38978W        W11238   9.641  12.996  11.144
38979W        W11239  40.745   0.870  10.836
38980W        W11240  20.877  28.894  14.505
38981W        W11241  26.039   3.290   3.022
38982W        W11242  35.852  32.855  11.588
38983W        W11243   8.651   3.115  14.090
38984W        W11244  33.376   8.501   2.201
38985W        W11245  40.111  37.278   4.546
38986W        W11246  36.566  36.394  12.134
38987W        W11247   0.844  15.923   1.355
38988W        W11248  27.126  34.356   4.640
38989W        W11249  20.176  24.759  11.655
38990W        W11250  21.455  36.264   3.694
38991W        W11251  28.719  38.554   3.243
38992W        W11252  39.273   6.480  12.873
38993W        W11253  24.922  29.385   3.293
38994W        W11254  20.644   2.803   2.114
38995W        W11255  32.669   9.229  14.514
38996W        W11256   4.664  29.051   0.839
38997W        W11257   7.209  44.836  11.437
38998W        W11258  42.944  39.963  13.751
38999W        W11259  34.442  33.444  12.526
39000W        W11260  33.470  13.597   0.846
39001W        W11261   7.377  24.548  13.603
39002W        W11262   1.213  36.102   4.050
39003W        W11263  35.387  10.423  14.005
39004W        W11264   9.638  42.992   0.778
39005W        W11265  34.865  10.207   1.269
39006W        W11266  38.273  22.955   1.495
39007W        W11267   1.674  23.605   4.916
39008W        W11268   0.909   8.719   1.063
39009W        W11269  15.199   9.181  11.108
39010W        W11270  18.062  23.721   0.845
39011W        W11271  34.593  19.397   0.024
39012W        W11272  34.883   2.948  11.114
39013W        W11273   4.397  15.015   3.448
39014W        W11274  44.285  39.509   3.226
39015W        W11275  10.396  21.784   0.255
39016W        W11276  11.368  31.527   2.891
39017W        W11277  10.562  26.633   2.080
39018W        W11278  12.299   5.389  13.079
39019W        W11279  18.013   0.459   4.627
39020W        W11280   5.481  12.781  11.083
39021W        W11281   0.202   4.605   1.834
39022W        W11282  40.445  10.313  11.516
39023W        W11283   5.747   1.914   3.610
39024W        W11284  37.197   2.788   0.287
39025W        W11285  24.488  38.224   1.852
39026W        W11286  12.792  10.819   0.885
39027W        W11287   3.826   0.259  10.667
39028W        W11288  42.809  19.293  10.761
39029W        W11289   4.952  44.680   1.946
39030W        W11290   8.666  21.413  14.868
39031W        W11291  37.482  25.560  10.783
39032W        W11292  33.585   7.044  11.534
39033W        W11293  29.012  22.990  12.268
39034W        W11294  15.523   4.637  13.507
39035W        W11295  20.025  21.309   3.293
39036W        W11296  34.049  23.837  11.127
39037W        W11297  24.054   1.544  10.978
39038W        W11298  38.930  22.036   1.000
39039W        W11299  24.494   0.873   0.841
39040W        W11300  39.897  26.052  14.912
39041W        W11301  36.459  40.452   2.001
39042W        W11302   8.180   7.820  13.546
39043W        W11303  43.835  16.785   0.577
39044W        W11304  43.946  12.746  10.749
39045W        W11305  18.999   9.990  14.356
39046W        W11306  33.423  28.328   3.283
39047W        W11307  38.938  21.477   0.253
39048W        W11308  44.472  43.486  11.202
39049W        W11309  41.310   6.966   4.637
39050W        W11310  12.878   7.132   1.385
39051W        W11311   5.855  15.281   3.148
39052W        W11312   9.192   0.845  12.082
39053W        W11313   7.378  19.361  12.535
39054W        W11314  29.686  29.745   1.730
39055W        W11315  11.516  16.117   0.919
39056W        W11316  38.136  32.959  13.373
39057W        W11317  25.224  39.211  13.504
39058W        W11318  37.917  15.609   0.790
39059W        W11319  14.389  41.451   1.177
39060W        W11320  22.934  18.001   2.182
39061W        W11321  21.887  19.243  12.526
39062W        W11322   8.140   1.356   2.738
39063W        W11323  18.430  18.675   2.472
39064W        W11324  23.035  12.697  14.847
39065W        W11325  34.869  36.875  12.145
39066W        W11326  32.920  41.904   3.364
39067W        W11327   9.786  17.398   2.803
39068W        W11328  19.023  26.487  13.006
39069W        W11329  28.112  34.319   4.070
39070W        W11330  43.051  19.035   1.835
39071W        W11331  16.703   8.495  14.793
39072W        W11332  33.559  40.031   0.994
39073W        W11333   5.397  25.134  14.350
39074W        W11334  31.390   1.483   2.709
39075W        W11335  22.620  21.753  14.882
39076W        W11336   8.811  38.596  13.052
39077W        W11337   8.450  29.864   0.902
39078W        W11338  11.283  10.971  10.516
39079W        W11339  27.532  11.416  13.008
39080W        W11340  18.036  36.977   0.473
39081W        W11341  22.972  10.652   2.302
39082W        W11342   3.381   5.450   3.257
39083W        W11343  11.371   6.381   3.144
39084W        W11344  31.110  17.497  14.795
39085W        W11345  18.279  31.621  12.135
39086W        W11346  23.172  42.234  13.014
39087W        W11347   8.625  14.554  10.294
39088W        W11348  42.706  29.702  14.707
39089W        W11349  26.569  30.036   3.448
39090W        W11350  41.572  20.632  13.046
39091W        W11351  18.333  13.137  11.581
39092W        W11352   0.746  19.686  14.350
39093W        W11353  35.489  18.075   3.701
39094W        W11354  27.707  23.803   1.417
39095W        W11355  41.250   6.229  14.440
39096W        W11356  41.819  26.676   2.758
39097W        W11357   8.280  40.024   2.149
39098W        W11358  18.666  36.452   3.060
39099W        W11359   7.690  17.618  12.598
39100W        W11360  43.023   0.738   4.140
39101W        W11361  21.717  16.072   1.465
39102W        W11362  44.999   0.912  10.885
39103W        W11363  26.883  12.540   2.871
39104W        W11364   4.362  23.237  14.145
39105W        W11365  42.513  18.395  14.551
39106W        W11366  38.411  26.510   0.463
39107W        W11367  21.321  26.162  12.764
39108W        W11368  31.418  36.327  14.426
39109W        W11369  11.694  31.102   0.792
39110W        W11370   4.001  30.677   1.886
39111W        W11371  42.561  42.868   1.941
39112W        W11372  36.962   5.435   4.246
39113W        W11373  44.193  14.581  14.310
39114W        W11374  36.417  34.463  12.913
39115W        W11375  40.344  40.277   1.481
39116W        W11376  39.489  24.226   3.527
39117W        W11377  20.942  42.870   4.845
39118W        W11378  17.625  12.578  12.399
39119W        W11379  10.314  15.980   3.411
39120W        W11380  38.010   5.244   4.231
39121W        W11381  33.299   9.023   4.216
39122W        W11382  10.152  39.061   5.024
39123W        W11383  37.674  12.159  10.733
39124W        W11384  43.426  11.812   4.680
39125W        W11385  38.375   3.247   4.495
39126W        W11386  44.268  25.296   2.116
39127W        W11387  16.862   9.312  14.290
39128W        W11388  38.633  13.743   3.295
39129W        W11389  36.906   3.211   4.956
39130W        W11390  42.824   8.367   5.071
39131W        W11391  14.137   9.242   1.816
39132W        W11392  24.649  28.026  13.548
39133W        W11393  22.691  23.696   2.239
39134W        W11394   2.382   5.383   3.690
39135W        W11395  20.059  25.203   1.299
39136W        W11396  13.054  31.268  11.034
39137W        W11397   8.202  21.473  10.757
39138W        W11398  15.354  19.098   0.074
39139W        W11399  26.476  11.099  10.206
39140W        W11400  34.957  27.100  11.838
39141W        W11401  30.095   9.068   0.932
39142W        W11402  39.898  21.771  12.971
39143W        W11403  41.235  20.585   0.708
39144W        W11404  34.928   9.232   1.810
39145W        W11405  36.423  16.633   4.871
39146W        W11406  38.167  34.393   5.076
39147W        W11407  36.140  25.626  11.182
39148W        W11408  36.135  20.716   1.784
39149W        W11409   4.835  41.970  11.561
39150W        W11410  26.726  27.839  12.965
39151W        W11411   6.713  14.372  10.657
39152W        W11412  16.099   0.550   1.001
39153W        W11413   2.029  22.485   0.420
39154W        W11414  38.827  37.763   3.506
39155W        W11415  36.367  20.802   1.296
39156W        W11416   7.759  39.958  11.391
39157W        W11417  20.636  28.145  10.729
39158W        W11418   9.242   4.519  12.795
39159W        W11419   3.284  38.577  14.836
39160W        W11420   4.567  13.358   2.863
39161W        W11421  16.206   8.927   5.073
39162W        W11422  34.266  18.521   1.532
39163W        W11423  12.463  27.725  14.828
39164W        W11424   5.655  15.038  11.054
39165W        W11425   2.001  37.930  14.384
39166W        W11426   4.269   2.155  10.580
39167W        W11427  20.576  37.997   0.875
39168W        W11428  36.850  33.918  14.894
39169W        W11429   2.544   9.364   1.908
39170W        W11430  32.958  20.539   5.216
39171W        W11431   8.130  27.768   4.165
39172W        W11432  41.979  21.991  14.741
39173W        W11433  20.702  41.313   3.408
39174W        W11434  38.566  21.426   4.101
39175W        W11435  18.980  43.734   4.504
39176W        W11436  17.258  38.749  10.654
39177W        W11437   6.980   5.834  12.539
39178W        W11438  29.450  32.943  10.527
39179W        W11439   3.439  31.664  11.691
39180W        W11440  25.303  18.145  13.979
39181W        W11441  41.349  40.605   0.850
39182W        W11442  26.619  26.160  14.750
39183W        W11443  32.139  41.057  12.918
39184W        W11444  20.247   2.246  12.865
39185W        W11445  36.027  41.197  11.946
39186W        W11446   8.283  42.921   0.065
39187W        W11447  11.109  31.114   1.602
39188W        W11448  39.729  20.172   4.936
39189W        W11449  25.681  32.163  10.284
39190W        W11450  10.304  44.901   3.285
39191W        W11451  33.787  17.225  10.098
39192W        W11452   2.961  41.957  14.974
39193W        W11453   9.201  35.926  14.942
39194W        W11454   4.209  16.623   1.449
39195W        W11455  26.443   7.425  13.524
39196W        W11456   7.751   4.764   3.778
39197W        W11457  22.723  22.090  13.429
39198W        W11458  12.745   1.731   0.260
39199W        W11459  11.882  42.433  11.129
39200W        W11460  10.333  15.673   4.412
39201W        W11461  15.628  43.077  12.484
39202W        W11462  29.875  16.468   1.408
39203W        W11463  18.230  28.520   4.168
39204W        W11464  42.580  30.253  12.585
39205W        W11465   1.243  39.583   3.399
39206W        W11466  15.240   8.257   0.740
39207W        W11467  13.324  36.078   3.351
39208W        W11468  43.298  37.820   1.063
39209W        W11469  39.930  24.047   1.700
39210W        W11470  16.519  36.398   2.422
39211W        W11471  32.747  28.429  11.046
39212W        W11472  30.616  15.800  13.564
39213W        W11473  43.734  18.666  13.836
39214W        W11474  21.286  16.491   3.341
39215W        W11475   8.893   3.822  14.893
39216W        W11476  11.709  34.455  10.247
39217W        W11477   8.370   2.982   2.145
39218W        W11478  30.017  29.011  11.102
39219W        W11479  30.750  24.270   0.912
39220W        W11480  16.502  42.891   3.723
39221W        W11481  25.179  28.431   0.753
39222W        W11482   4.734  30.367  13.566
39223W        W11483  37.168  15.336  14.574
39224W        W11484  35.360  16.835  12.998
39225W        W11485  40.508   8.675   1.945
39226W        W11486  18.607  14.665  12.795
39227W        W11487  20.077  42.079   2.839
39228W        W11488  13.424  30.707  12.189
39229W        W11489  14.106  27.124   9.854
39230W        W11490  13.323  10.781  10.760
39231W        W11491  22.346  33.808  12.554
39232W        W11492  28.021   5.530  10.105
39233W        W11493  10.881  39.863  13.175
39234W        W11494  20.939  29.273  12.103
39235W        W11495  44.571   6.258   2.765
39236W        W11496   8.776  19.624   0.792
39237W        W11497   2.557  13.178   2.351
39238W        W11498  16.787   8.822   3.957
39239W        W11499  20.739  21.467   1.855
39240W        W11500  30.422  16.536  14.592
39241W        W11501  39.808  16.807   3.643
39242W        W11502   1.982   4.861  12.858
39243W        W11503  12.558  38.070  13.853
39244W        W11504  44.552  25.716   0.318
39245W        W11505  26.471  16.997  14.053
39246W        W11506  26.122  23.025   2.196
39247W        W11507  28.883  31.351  12.408
39248W        W11508  10.702  19.105  12.439
39249W        W11509   6.929  42.894  13.486
39250W        W11510  12.864  26.037   4.861
39251W        W11511  37.473  43.365   0.996
39252W        W11512   0.884  37.694  13.499
39253W        W11513  30.974   5.951  14.943
39254W        W11514  33.888  16.641  14.339
39255W        W11515  39.951  35.799   0.530
39256W        W11516  40.080  15.260   0.600
39257W        W11517  31.421  35.906   3.799
39258W        W11518  35.778  24.561  14.913
39259W        W11519  24.833  43.653   3.226
39260W        W11520  37.957  37.033   0.441
39261W        W11521   3.472  43.030  13.450
39262W        W11522  31.934  33.467   0.796
39263W        W11523  29.525   9.420   3.221
39264W        W11524  17.705  40.425  12.349
39265W        W11525  29.695  42.748  10.729
39266W        W11526  40.385   9.450  14.270
39267W        W11527  23.941  41.141   3.369
39268W        W11528  34.518  44.345   2.949
39269W        W11529  37.657  29.441  11.589
39270W        W11530   3.645  35.288  13.205
39271W        W11531  17.796  43.699   3.187
39272W        W11532   8.647  40.094   1.203
39273W        W11533  38.116  14.872   4.135
39274W        W11534  20.514  19.124   9.722
39275W        W11535   8.713   6.088   2.908
39276W        W11536  10.122  10.347  13.973
39277W        W11537  21.086  40.393  13.470
39278W        W11538  23.555   5.218  10.829
39279W        W11539  21.807   3.360  14.337
39280W        W11540  20.962  22.094   3.995
39281W        W11541  14.047  13.599   0.243
39282W        W11542  24.090  35.541   1.183
39283W        W11543  44.169  12.891  14.915
39284W        W11544  27.785  39.538   3.891
39285W        W11545  11.650  32.514   3.260
39286W        W11546  26.311   4.870  12.636
39287W        W11547  12.328  33.467  14.004
39288W        W11548  31.841  11.276  10.812
39289W        W11549   8.311   7.047  14.753
39290W        W11550  15.796   5.113   1.558
39291W        W11551  38.829   5.975  10.621
39292W        W11552  21.051  31.713   0.968
39293W        W11553  14.739  24.787  14.600
39294W        W11554  22.228  22.617   1.871
39295W        W11555   3.232  23.973   4.938
39296W        W11556   2.990   2.218  10.978
39297W        W11557  39.517  20.694  14.343
39298W        W11558  44.047  20.619  13.094
39299W        W11559  24.727  27.686   2.920
39300W        W11560  34.978  16.319  11.512
39301W        W11561   9.237  24.571  14.069
39302W        W11562  44.478   4.403   4.886
39303W        W11563  30.073  21.604   1.898
39304W        W11564  18.225  43.834   4.165
39305W        W11565  28.378   3.821   3.269
39306W        W11566  37.942  10.328   3.797
39307W        W11567  10.211  34.577   3.439
39308W        W11568  26.705  21.213  12.901
39309W        W11569  38.396  25.344  14.658
39310W        W11570  32.487   4.851   2.686
39311W        W11571  29.458  43.547   4.949
39312W        W11572   8.023  13.684  13.373
39313W        W11573  30.164   2.793   3.066
39314W        W11574  22.186  34.647   0.918
39315W        W11575   2.423  36.840  12.666
39316W        W11576  40.050  10.905  14.024
39317W        W11577  13.232  36.609  13.523
39318W        W11578  25.194  43.771   3.829
39319W        W11579  36.997   4.229  13.938
39320W        W11580  21.690  27.377   3.459
39321W        W11581  16.618  25.076  13.609
39322W        W11582  42.535   2.212   1.814
39323W        W11583   1.464   3.424  14.514
39324W        W11584  18.303  40.042   4.002
39325W        W11585  11.782   9.265   3.375
39326W        W11586  10.314  35.825  13.803
39327W        W11587  29.056  12.112  14.780
39328W        W11588   2.866   0.138  12.061
39329W        W11589   5.358  30.197  10.542
39330W        W11590   2.381  44.328   4.567
39331W        W11591  12.355  26.032   4.683
39332W        W11592  13.866  30.466  10.311
39333W        W11593   4.215  32.123  12.566
39334W        W11594   9.225  19.048  11.508
39335W        W11595  34.122  42.036   2.367
39336W        W11596  36.263  23.456  10.952
39337W        W11597  43.727  12.707   0.193
39338W        W11598  43.020  25.254  14.991
39339W        W11599   6.980  13.885  12.595
39340W        W11600  39.533  18.343  10.593
39341W        W11601  12.637   2.583  12.447
39342W        W11602   1.279   6.620  13.197
39343W        W11603  29.788   5.445   1.261
39344W        W11604  11.525  31.897   3.678
39345W        W11605   1.807  31.189  12.441
39346W        W11606  42.983  27.846  12.553
39347W        W11607   0.496   8.362   1.201
39348W        W11608   1.780  13.090  12.487
39349W        W11609  12.135  42.981  13.306
39350W        W11610   6.396  12.868   0.724
39351W        W11611   5.175  14.589   1.604
39352W        W11612   0.981   1.933   3.034
39353W        W11613   6.446  12.171  14.701
39354W        W11614  17.921  25.699  11.047
39355W        W11615  39.318  32.017   2.068
39356W        W11616  16.644  15.300   0.321
39357W        W11617  17.016  39.695   3.231
39358W        W11618   2.959  31.520  12.430
39359W        W11619  23.441   0.708  11.146
39360W        W11620   5.789  42.819   3.884
39361W        W11621  11.133  28.965   1.798
39362W        W11622  22.713  15.141   3.229
39363W        W11623  42.401   3.485   3.370
39364W        W11624  18.249  20.592  14.871
39365W        W11625  41.082  18.715   4.115
39366W        W11626  41.866  23.948  12.049
39367W        W11627  19.780  42.951   4.155
39368W        W11628   8.153  35.442   3.237
39369W        W11629   3.278  14.952  14.850
39370W        W11630  10.960   2.001  11.175
39371W        W11631  12.732  37.989  13.327
39372W        W11632  29.265  15.155  13.749
39373W        W11633   0.875  31.690  13.878
39374W        W11634  40.247  19.636  10.681
39375W        W11635  28.565  29.014  12.072
39376W        W11636  18.186   5.462   2.760
39377W        W11637  28.714   5.843  11.209
39378W        W11638  19.543  24.238  14.839
39379W        W11639  37.492   9.133  10.693
39380W        W11640  36.058  35.935  13.030
39381W        W11641  12.047  43.478   4.546
39382W        W11642  14.839  18.184  12.415
39383W        W11643  26.520  10.661  11.410
39384W        W11644  35.387  33.714  12.519
39385W        W11645   7.753  39.539   1.794
39386W        W11646  37.404  12.229  12.623
39387W        W11647   4.236  15.523  10.515
39388W        W11648   3.732  22.033   2.285
39389W        W11649  12.354  35.973  11.579
39390W        W11650  37.852  25.730   1.981
39391W        W11651   9.124  10.681  11.846
39392W        W11652  31.618  30.982   4.722
39393W        W11653  21.541  20.592  12.448
39394W        W11654  34.507  15.759  12.830
39395W        W11655  15.179  37.596   0.346
39396W        W11656  31.055  30.853  12.979
39397W        W11657  25.160  42.426   5.178
39398W        W11658  22.892  23.226   1.063
39399W        W11659  29.034  27.265  14.403
39400W        W11660  17.774  26.144   0.506
39401W        W11661  31.119  11.733  12.547
39402W        W11662  11.669  29.710  11.700
39403W        W11663  23.019  22.585   2.984
39404W        W11664   5.106  34.370   3.255
39405W        W11665  37.873  34.454   0.510
39406W        W11666  17.235  15.562  10.663
39407W        W11667  27.453  41.954   4.792
39408W        W11668  13.182  43.847   4.191
39409W        W11669  24.469  20.131   4.627
39410W        W11670  17.339   5.658   0.157
39411W        W11671  21.581  27.949  11.111
39412W        W11672  33.102  16.242   3.261
39413W        W11673  34.450  22.097   4.135
39414W        W11674  29.651  41.325  14.480
39415W        W11675  17.145  35.151   1.385
39416W        W11676   6.264  11.415   4.267
39417W        W11677  10.120  23.919  12.058
39418W        W11678  44.997  30.195   2.199
39419W        W11679  40.604  22.543   0.002
39420W        W11680  28.648  34.557  13.454
39421W        W11681  42.694  27.703   1.289
39422W        W11682  34.973   6.647   3.304
39423W        W11683  44.262  17.076  14.947
39424W        W11684  13.181  26.040  10.739
39425W        W11685  22.761  27.951   4.169
39426W        W11686  27.504  11.197   0.470
39427W        W11687  16.602  29.769  12.878
39428W        W11688   2.915  40.355   3.929
39429W        W11689  42.990  41.128   1.356
39430W        W11690  20.977   3.740   4.103
39431W        W11691  32.528   2.399   0.483
39432W        W11692  10.315  19.496   4.800
39433W        W11693  41.293  36.961  11.963
39434W        W11694  32.618  42.284  12.539
39435W        W11695  10.273  16.776   1.876
39436W        W11696  23.166  20.234  13.359
39437W        W11697   3.286  26.027   3.610
39438W        W11698  24.840  25.005  11.591
39439W        W11699  37.119  18.011   3.329
39440W        W11700  40.329  41.979   3.323
39441W        W11701  40.518  11.877   2.299
39442W        W11702  32.954   9.862  12.434
39443W        W11703  11.179  32.682  11.882
39444W        W11704  31.552  18.432   0.397
39445W        W11705  36.360  17.597  11.220
39446W        W11706  36.185  25.357  12.402
39447W        W11707  24.297  39.246   0.739
39448W        W11708  11.249  12.674   4.002
39449W        W11709   5.752  42.824   0.486
39450W        W11710  31.925  32.410  10.428
39451W        W11711  25.431   4.235   3.625
39452W        W11712  44.967   4.769   4.810
39453W        W11713  33.954  35.369  11.446
39454W        W11714  29.974  29.190  11.569
39455W        W11715   4.161   1.108  14.090
39456W        W11716  44.734  41.140   0.890
39457W        W11717   0.926  41.343   4.152
39458W        W11718  12.853  30.658   3.593
39459W        W11719   0.297  13.353  14.009
39460W        W11720  20.807   9.870  14.289
39461W        W11721   4.094   1.422   5.062
39462W        W11722  23.507  11.821   1.224
39463W        W11723  15.784  39.068   1.298
39464W        W11724  23.472   3.878   2.448
39465W        W11725   9.704  20.961  13.258
39466W        W11726  20.740   4.068  12.406
39467W        W11727  12.394  29.887   3.757
39468W        W11728  30.931  27.766  13.814
39469W        W11729  36.450   1.519  14.083
39470W        W11730  25.633  43.297  13.848
39471W        W11731  26.228  27.762  12.295
39472W        W11732  40.419  26.270  11.564
39473W        W11733  33.358  18.093  14.853
39474W        W11734  23.534  30.549  12.568
39475W        W11735  16.648  36.516   1.571
39476W        W11736   0.098  43.423   3.972
39477W        W11737  16.590  40.423   4.814
39478W        W11738  17.284   1.179  12.043
39479W        W11739  32.873  39.051   4.166
39480W        W11740  37.881  33.272  13.744
39481W        W11741  41.894  36.010   3.625
39482W        W11742  20.220  22.445  12.577
39483W        W11743  39.041  27.944   3.287
39484W        W11744  41.206  34.413   3.266
39485W        W11745   5.301  42.596  13.341
39486W        W11746  32.159  12.332   0.824
39487W        W11747   3.947  18.588   3.654
39488W        W11748  16.690  12.384   3.201
39489W        W11749   4.150  36.504   2.746
39490W        W11750  17.615  18.603  12.730
39491W        W11751  12.778  25.129  11.446
39492W        W11752  44.262  16.738   3.664
39493W        W11753  31.815  35.350  11.150
39494W        W11754  36.502   8.397  14.395
39495W        W11755  14.241  39.405  13.583
39496W        W11756  40.188   1.349   2.117
39497W        W11757  32.346   8.600   1.949
39498W        W11758   8.916   1.907  10.386
39499W        W11759  31.069   5.396  10.766
39500W        W11760  38.152  13.181   3.818
39501W        W11761   3.848  44.906   1.451
39502W        W11762  10.387  17.032  11.086
39503W        W11763  43.207  23.586   4.069
39504W        W11764   6.621  39.923   0.428
39505W        W11765  10.165  38.624  14.418
39506W        W11766  24.034  22.231   4.607
39507W        W11767   8.807  35.382   4.770
39508W        W11768  15.322  26.155   4.924
39509W        W11769  31.819  30.628  12.551
39510W        W11770   5.276  44.563  11.994
39511W        W11771  21.823   5.702  11.572
39512W        W11772  44.514   4.706   3.901
39513W        W11773  43.048  21.547  13.355
39514W        W11774  24.056  11.665   4.738
39515W        W11775  12.341   6.786  12.069
39516W        W11776   4.817   3.990  11.313
39517W        W11777   3.782   5.237   4.412
39518W        W11778  44.344  14.800   2.916
39519W        W11779   7.147  16.720  14.449
39520W        W11780  17.489  33.974   4.506
39521W        W11781  29.512  18.777  13.411
39522W        W11782  26.039  21.037   1.550
39523W        W11783  15.556  14.849  14.590
39524W        W11784  27.799  25.622  12.065
39525W        W11785  26.139   8.227  14.443
39526W        W11786  25.055  32.262  12.579
39527W        W11787   0.275  25.076   0.402
39528W        W11788  21.515  12.355  14.362
39529W        W11789   4.906  29.381   3.038
39530W        W11790  23.999  28.901  10.950
39531W        W11791  37.600  33.153  12.020
39532W        W11792  12.023  29.885  12.542
39533W        W11793  30.158  11.774  10.677
39534W        W11794  39.840   3.896   3.188
39535W        W11795  32.111  14.487   0.490
39536W        W11796   3.721   0.336  14.810
39537W        W11797  16.837   4.246   1.860
39538W        W11798  29.010   4.253   1.151
39539W        W11799  24.546   9.381  12.546
39540W        W11800  34.907   5.976   2.845
39541W        W11801  33.826  44.918  14.072
39542W        W11802   2.300  24.763  10.842
39543W        W11803  26.352   0.894   2.736
39544W        W11804  35.358  10.313  14.996
39545W        W11805  25.151  25.329   4.886
39546W        W11806  27.496  36.377  12.613
39547W        W11807  19.802  23.520  13.061
39548W        W11808  16.225  38.487   4.268
39549W        W11809  18.622  34.531   3.809
39550W        W11810  31.093  16.148   2.261
39551W        W11811  26.506  36.010   4.177
39552W        W11812  38.296  39.122   2.396
39553W        W11813  19.280  37.977   3.771
39554W        W11814  42.347  26.999   0.008
39555W        W11815   8.277   8.741   2.614
39556W        W11816  36.918  15.328   2.278
39557W        W11817  31.586  23.702  14.750
39558W        W11818  34.174  36.373  11.960
39559W        W11819  44.311  11.408   4.254
39560W        W11820  20.657   4.479   2.759
39561W        W11821   5.864  37.105  14.627
39562W        W11822  28.771  39.665   2.394
39563W        W11823  18.121  18.249   3.895
39564W        W11824  11.625  15.579  13.396
39565W        W11825  10.810  27.209  14.875
39566W        W11826  13.707  23.176  14.367
39567W        W11827  24.830  13.132   0.944
39568W        W11828   1.895   2.454   1.198
39569W        W11829  20.526  20.075   5.449
39570W        W11830  35.576  36.508   3.104
39571W        W11831  10.573  27.509   4.568
39572W        W11832  23.981   8.664   0.131
39573W        W11833  43.770  38.884  12.532
39574W        W11834  12.826  10.373   1.132
39575W        W11835   8.916  18.790   2.813
39576W        W11836  42.800  36.671   2.167
39577W        W11837  41.363  16.847  11.126
39578W        W11838  41.016   5.550  12.491
39579W        W11839  28.077   8.228   2.247
39580W        W11840  27.343  37.881   1.963
39581W        W11841  22.679  17.251   4.673
39582W        W11842  42.334  21.208  13.041
39583W        W11843  31.344   8.722  11.484
39584W        W11844  18.185   2.216  13.401
39585W        W11845  11.719  23.136  11.428
39586W        W11846  42.743   3.090  12.182
39587W        W11847   3.571  38.802  12.174
39588W        W11848  40.395  37.589   1.921
39589W        W11849  10.766  11.045   3.643
39590W        W11850  37.013  42.055   0.761
39591W        W11851   6.271   6.827  11.546
39592W        W11852  11.288   6.885   1.717
39593W        W11853  30.548  36.679   3.380
39594W        W11854   7.601  38.877  14.483
39595W        W11855  11.386  38.803   4.919
39596W        W11856  33.841   7.890   3.629
39597W        W11857  25.704  15.498   4.162
39598W        W11858  15.934  17.239  12.843
39599W        W11859  37.813  40.220  14.011
39600W        W11860  37.600  40.841  12.041
39601W        W11861   9.667  17.633   0.273
39602W        W11862  29.548   4.632  14.907
39603W        W11863   9.187  42.030   3.452
39604W        W11864  24.769   0.930   3.717
39605W        W11865   3.990  16.370   3.753
39606W        W11866  12.464  12.708   0.801
39607W        W11867   9.289  36.544   3.715
39608W        W11868  20.263   4.772   2.592
39609W        W11869  44.972   6.285  12.044
39610W        W11870  34.182  38.919   2.188
39611W        W11871   2.736  34.364  12.229
39612W        W11872  18.529  39.446   4.535
39613W        W11873  16.529   0.460  11.575
39614W        W11874  30.708  32.361   2.152
39615W        W11875  26.406   7.225  13.048
39616W        W11876   4.200  25.118  12.634
39617W        W11877  25.283   5.419   0.794
39618W        W11878  23.329  16.094  13.688
39619W        W11879  33.013  37.888   4.647
39620W        W11880  19.804  13.252  10.330
39621W        W11881   9.337  13.763  11.885
39622W        W11882  25.558  31.025   2.935
39623W        W11883   6.441  17.539   2.382
39624W        W11884  32.805  39.436  12.931
39625W        W11885  11.842  29.509   4.530
39626W        W11886  15.280  37.824   1.311
39627W        W11887   2.375  12.627  11.077
39628W        W11888  38.659  32.778   0.668
39629W        W11889  38.807  28.971  11.054
39630W        W11890  23.224  32.180  12.055
39631W        W11891  33.607  19.791  12.927
39632W        W11892  41.672  43.062   2.940
39633W        W11893  18.676  12.630   1.337
39634W        W11894  35.021  20.147   1.203
39635W        W11895  16.790  37.500  13.123
39636W        W11896  33.966  21.605   3.209
39637W        W11897   8.272  26.606   0.536
39638W        W11898  10.620   4.701  14.261
39639W        W11899  39.954  14.714  14.442
39640W        W11900  41.401  32.391  10.549
39641W        W11901  44.025  40.879  12.564
39642W        W11902  26.130   0.243   2.163
39643W        W11903  22.982  30.564   1.530
39644W        W11904  28.458  21.524   3.354
39645W        W11905   4.969  36.364   3.616
39646W        W11906  34.012  13.302   2.918
39647W        W11907   8.238  43.240   4.165
39648W        W11908  36.043  38.493  14.538
39649W        W11909  36.012  42.473   3.266
39650W        W11910  31.910   6.527   3.687
39651W        W11911  12.241   4.136  11.019
39652W        W11912  42.900  41.608   2.258
39653W        W11913  41.831  35.167   4.143
39654W        W11914  14.821  34.242   5.065
39655W        W11915   4.301  26.652   1.268
39656W        W11916  32.400  11.207  13.940
39657W        W11917  20.195  19.108   3.557
39658W        W11918  37.635  35.097   3.751
39659W        W11919  38.536  14.759  14.949
39660W        W11920  40.323   6.355   3.248
39661W        W11921  26.526  35.384  12.458
39662W        W11922   6.359  35.967   5.300
39663W        W11923   7.940  23.051   1.258
39664W        W11924  27.660  19.761  10.651
39665W        W11925   1.875   6.776  11.231
39666W        W11926   3.245  10.146  13.897
39667W        W11927  13.248  16.538  14.675
39668W        W11928  27.167   3.739   1.302
39669W        W11929  22.170   3.749   3.234
39670W        W11930  11.276   7.342  13.067
39671W        W11931  17.321  26.159  12.710
39672W        W11932   5.354   3.964  14.576
39673W        W11933  28.502  33.915  12.650
39674W        W11934  14.175   8.505   4.531
39675W        W11935  21.230  18.477   0.295
39676W        W11936   6.283  11.359   3.291
39677W        W11937  36.155  34.581  10.791
39678W        W11938  25.019  27.043  11.394
39679W        W11939  33.916  25.761   0.058
39680W        W11940  39.846   5.762  12.972
39681W        W11941  13.024  40.553   3.192
39682W        W11942  31.012  34.564   0.798
39683W        W11943  11.321  33.084   0.358
39684W        W11944  35.979  28.645   0.466
39685W        W11945   8.293  36.092   4.713
39686W        W11946  18.413   1.929   0.208
39687W        W11947  18.214  16.141  14.799
39688W        W11948  21.189  32.479  12.167
39689W        W11949   3.326  37.454   1.620
39690W        W11950   9.604  14.415  13.922
39691W        W11951  31.114  26.503   4.407
39692W        W11952  39.775  13.778  11.649
39693W        W11953  14.751  12.569   0.870
39694W        W11954  27.936  30.281  13.822
39695W        W11955  39.986  14.426   0.783
39696W        W11956  43.976   0.390  11.533
39697W        W11957  24.082  30.576  11.853
39698W        W11958   9.338   1.390  13.295
39699W        W11959  16.653   6.104  13.332
39700W        W11960  40.588   5.958  11.993
39701W        W11961  11.212  13.233   4.825
39702W        W11962  29.429  33.891   0.371
39703W        W11963  42.919  39.454   2.868
39704W        W11964  13.036  35.005  12.519
39705W        W11965   5.706  30.617   4.298
39706W        W11966  27.441  17.644   2.606
39707W        W11967  16.758  24.709  13.277
39708W        W11968   7.297  15.379   2.745
39709W        W11969  32.595  19.598   0.704
39710W        W11970  16.768  12.622  13.479
39711W        W11971   3.137  38.790  13.629
39712W        W11972  37.542  29.666  12.589
39713W        W11973  31.507  12.152  13.799
39714W        W11974  35.334  36.741  12.993
39715W        W11975  34.385  38.105   2.059
39716W        W11976  19.012  15.731   2.843
39717W        W11977  40.804  10.783  13.538
39718W        W11978   4.885  23.836   1.745
39719W        W11979   4.934  26.346   1.887
39720W        W11980   8.085  24.960   0.042
39721W        W11981   9.725   1.780   0.911
39722W        W11982   5.888   8.407   3.320
39723W        W11983  37.867  14.561   1.329
39724W        W11984  33.645  21.689   1.043
39725W        W11985   9.403  35.578  10.965
39726W        W11986   0.532   2.863   3.441
39727W        W11987  37.676  18.550  14.981
39728W        W11988  33.112   7.167  13.602
39729W        W11989  32.635   7.879  10.605
39730W        W11990   1.433  27.512   1.907
39731W        W11991  43.875  29.751   0.755
39732W        W11992  40.818  42.171   2.044
39733W        W11993  14.307  14.779  14.559
39734W        W11994  22.692  43.058  12.950
39735W        W11995  28.433   8.528   1.441
39736W        W11996  12.386  19.737   4.622
39737W        W11997   4.326  38.851   4.768
39738W        W11998  25.239  40.985   2.328
39739W        W11999  14.814  15.876  14.042
39740W        W12000   1.464   7.388   0.075
39741W        W12001  44.182  29.667  10.749
39742W        W12002  41.535  15.825   4.313
39743W        W12003  10.394  35.414   2.865
39744W        W12004   9.336  18.143  12.461
39745W        W12005  40.852  25.480  11.731
39746W        W12006  16.813  10.861   2.283
39747W        W12007   9.258  21.761   3.609
39748W        W12008  19.504  29.630   0.942
39749W        W12009   1.185  28.155  11.971
39750W        W12010   2.962   7.367  10.877
39751W        W12011  28.969  24.150  12.863
39752W        W12012   5.780  43.545   3.657
39753W        W12013   5.359  11.713   1.658
39754W        W12014  43.496   6.131  13.010
39755W        W12015   2.850   7.721  13.080
39756W        W12016  11.719   1.923  11.446
39757W        W12017  29.561  16.618  11.231
39758W        W12018  42.839   0.042  12.411
39759W        W12019  35.570  20.207  11.940
39760W        W12020  20.668   1.989   0.900
39761W        W12021  40.903  35.285   1.151
39762W        W12022  40.928  16.212   0.437
39763W        W12023  38.426  17.114  11.542
39764W        W12024  21.301  33.399   4.122
39765W        W12025  41.900   5.348   3.114
39766W        W12026   5.189   8.418   0.405
39767W        W12027   1.492  38.623  13.856
39768W        W12028  10.337  26.488  10.745
39769W        W12029  30.536   3.581  11.501
39770W        W12030  14.808  20.021   4.574
39771W        W12031  37.452   6.620  14.031
39772W        W12032  35.893  19.312   0.727
39773W        W12033  11.330  32.132  10.573
39774W        W12034  39.340  32.340   4.539
39775W        W12035   4.219  20.774  11.580
39776W        W12036   4.933  17.687  12.446
39777W        W12037   2.019  27.649   4.900
39778W        W12038  20.701   8.391   4.832
39779W        W12039  25.825   6.747  12.024
39780W        W12040  25.980  28.889  13.368
39781W        W12041  13.929  23.230  13.451
39782W        W12042   3.928   4.923  13.051
39783W        W12043  42.362   9.412   3.190
39784W        W12044   1.544  34.089  14.284
39785W        W12045  24.870  12.781   2.195
39786W        W12046  36.129  18.086   2.180
39787W        W12047  22.795  17.467  10.033
39788W        W12048  20.462   6.652  14.466
39789W        W12049  36.160   9.395   3.575
39790W        W12050   9.700  15.558  11.598
39791W        W12051  38.824  40.834   4.046
39792W        W12052   8.721  23.600   3.110
39793W        W12053  15.324   2.396  14.989
39794W        W12054  31.727  41.246  10.293
39795W        W12055   6.442   7.818  12.889
39796W        W12056  37.992  15.714  11.016
39797W        W12057  24.858  13.215   2.853
39798W        W12058  24.587  23.973   2.224
39799W        W12059  40.072   9.150   3.110
39800W        W12060  27.015  41.956  11.412
39801W        W12061  19.983   6.364   9.450
39802W        W12062  42.675  22.524  14.742
39803W        W12063   6.128  27.969   5.284
39804W        W12064  12.614   1.470  14.841
39805W        W12065   8.245  11.141  10.912
39806W        W12066  21.757  12.856   0.302
39807W        W12067   4.924  32.713  10.398
39808W        W12068  13.097  32.956  13.869
39809W        W12069  33.337   3.220  10.455
39810W        W12070  12.986   6.146   4.232
39811W        W12071  23.992   8.812   3.501
39812W        W12072  39.433  28.602   1.268
39813W        W12073  22.486  22.803  13.062
39814W        W12074   7.721  14.745   4.245
39815W        W12075   7.292  34.981   4.365
39816W        W12076  25.224  36.995  13.077
39817W        W12077   4.008  19.125   0.608
39818W        W12078  43.308  15.383  11.569
39819W        W12079  17.319  29.149   2.582
39820W        W12080  27.544   0.720  12.111
39821W        W12081  35.068  40.054   4.092
39822W        W12082  22.610  28.569  14.047
39823W        W12083  29.176  26.558  11.675
39824W        W12084  29.560   2.913   2.308
39825W        W12085  23.230  38.570  10.593
39826W        W12086   5.898   1.690   5.050
39827W        W12087  41.854  21.438   0.229
39828W        W12088   9.074  29.415   3.301
39829W        W12089  31.481  32.531  11.315
39830W        W12090  37.306  12.196   0.926
39831W        W12091  26.969  13.409   1.335
39832W        W12092  31.783  29.693  11.009
39833W        W12093   7.401  24.120   4.691
39834W        W12094  14.177  40.459  12.856
39835W        W12095  17.367  41.022  14.563
39836W        W12096  26.168  42.197   2.412
39837W        W12097  16.608  40.309   2.878
39838W        W12098  30.948  27.556   1.281
39839W        W12099   9.917   8.372   0.955
39840W        W12100  40.983  44.071   2.455
39841W        W12101  23.602  25.637  13.765
39842W        W12102  26.458  11.053   3.418
39843W        W12103  19.697  37.866  14.725
39844W        W12104  36.366  24.163  11.913
39845W        W12105  11.090  18.017  11.149
39846W        W12106   3.445  43.361   0.245
39847W        W12107  17.755  18.583  12.233
39848W        W12108   3.148  10.216   3.699
39849W        W12109   5.155  23.692   2.257
39850W        W12110  32.557  12.304  13.127
39851W        W12111  13.062  28.840  12.513
39852W        W12112   4.456   8.658  13.508
39853W        W12113  17.609  18.701  14.949
39854W        W12114  22.562  28.635   5.416
39855W        W12115  14.111  43.530   1.839
39856W        W12116  27.037   7.730   4.145
39857W        W12117  34.031  44.274   1.580
39858W        W12118  38.566  38.343   3.208
39859W        W12119   7.157  40.452   1.406
39860W        W12120  22.535  44.222  11.475
39861W        W12121  19.265  33.199   3.273
39862W        W12122   9.635  41.258  13.003
39863W        W12123  41.140   3.461  11.660
39864W        W12124   8.233  29.092  13.056
39865W        W12125  39.040  24.194  14.835
39866W        W12126  23.585  35.700  12.498
39867W        W12127  31.548  42.083  11.261
39868W        W12128  28.863  19.397   4.430
39869W        W12129  41.873  23.515  14.371
39870W        W12130   4.433  36.403   4.700
39871W        W12131  28.121   1.416  12.054
39872W        W12132  10.422  13.634  14.730
39873W        W12133   2.366  19.540  14.957
39874W        W12134  29.586   1.711   4.256
39875W        W12135  22.504   4.631  10.838
39876W        W12136  29.939  35.632   1.803
39877W        W12137  40.068  41.709   0.445
39878W        W12138  24.220  43.039  14.887
39879W        W12139  38.340  25.903  10.710
39880W        W12140   6.596  22.054   2.732
39881W        W12141  31.211   4.396   4.603
39882W        W12142  23.918  26.913   0.110
39883W        W12143   6.740  10.726   0.251
39884W        W12144  28.465  30.853   0.208
39885W        W12145  22.641  29.298   1.482
39886W        W12146   3.828  40.301   2.786
39887W        W12147  21.003  39.803   2.029
39888W        W12148  26.592  27.708  14.605
39889W        W12149  43.388   4.718   1.705
39890W        W12150  24.450  24.648  14.848
39891W        W12151   3.211  27.679   0.389
39892W        W12152  37.767  22.301   5.052
39893W        W12153   3.899  43.787  11.709
39894W        W12154  27.160  36.017  12.840
39895W        W12155  40.404  41.908  13.019
39896W        W12156   3.709  18.283   2.035
39897W        W12157  39.335  42.001   2.397
39898W        W12158  18.264   5.301   4.179
39899W        W12159  33.134  35.021  13.559
39900W        W12160   5.026  14.543   4.129
39901W        W12161  27.207  25.610  12.905
39902W        W12162  10.007  20.230  14.479
39903W        W12163  18.301  16.881   1.374
39904W        W12164  28.345   1.010  11.082
39905W        W12165  16.175   6.817   3.168
39906W        W12166  22.491  38.541  13.621
39907W        W12167  21.911   3.172  11.101
39908W        W12168  15.263   6.139  12.421
39909W        W12169  23.035   6.969  12.515
39910W        W12170  30.847  29.239  10.062
39911W        W12171  30.969  42.484   3.374
39912W        W12172  26.087   2.930   2.637
39913W        W12173  11.765  30.088  13.393
39914W        W12174  17.332  31.894  11.862
39915W        W12175  25.881   0.276   3.398
39916W        W12176  40.926  43.129   1.365
39917W        W12177   5.415  29.705  13.847
39918W        W12178   9.618  39.735   4.532
39919W        W12179  35.040  20.214   2.635
39920W        W12180  43.947  41.472   1.766
39921W        W12181  14.603  16.210   0.715
39922W        W12182  23.708   3.354  14.315
39923W        W12183  35.368  28.935   2.759
39924W        W12184  12.958  42.343   3.211
39925W        W12185   8.301   5.364   2.142
39926W        W12186  37.912  10.812   0.779
39927W        W12187  28.529   9.615  14.066
39928W        W12188  21.076   8.859   3.153
39929W        W12189   1.985  38.118  12.188
39930W        W12190  41.919  13.255  14.409
39931W        W12191  13.300  17.290   2.751
39932W        W12192   4.153  30.647  12.278
39933W        W12193  35.995  35.169   1.881
39934W        W12194  34.909  23.684  12.900
39935W        W12195   1.237  36.335   0.604
39936W        W12196  36.061   8.283  11.636
39937W        W12197  20.024  14.794  10.663
39938W        W12198  22.619  40.180  11.087
39939W        W12199  32.537  32.412   1.297
39940W        W12200   0.526  26.008   4.256
39941W        W12201  41.033  36.093   3.218
39942W        W12202   3.154  16.800   1.163
39943W        W12203  44.386  13.849  12.372
39944W        W12204  14.848  40.520  10.763
39945W        W12205  14.078  26.114   2.858
39946W        W12206  43.898  17.107   3.725
39947W        W12207   2.942   3.900  14.470
39948W        W12208  42.504  10.647  11.367
39949W        W12209   0.784   6.159  12.407
39950W        W12210   2.349   1.280   0.721
39951W        W12211   7.625  39.032  12.589
39952W        W12212   4.144  21.294  14.835
39953W        W12213  16.293  39.951   1.932
39954W        W12214  15.630  39.719   4.227
39955W        W12215  26.601   9.466   2.223
39956W        W12216  34.346  40.470   3.892
39957W        W12217  28.969  13.890   3.671
39958W        W12218   4.912  31.054   4.088
39959W        W12219  22.658  12.159  12.583
39960W        W12220   0.679  26.467   0.416
39961W        W12221  30.894  34.933   3.720
39962W        W12222  40.534  15.892  10.241
39963W        W12223  15.523  40.027  11.123
39964W        W12224   7.368  41.995   2.409
39965W        W12225   6.028  19.092   3.244
39966W        W12226   8.810  37.463  10.316
39967W        W12227  13.202  28.612  13.981
39968W        W12228  16.117  10.293   2.881
39969W        W12229   8.503  17.646   2.390
39970W        W12230  39.382   9.742  14.779
39971W        W12231   0.525   1.945   1.963
39972W        W12232  42.531   7.803   0.267
39973W        W12233   0.987  40.552  11.007
39974W        W12234  40.473  25.450   0.448
39975W        W12235  28.884   1.078   3.097
39976W        W12236   9.525  27.779  14.955
39977W        W12237  38.773  10.114   1.550
39978W        W12238  23.759  19.757   2.769
39979W        W12239  34.223  34.564  14.690
39980W        W12240  21.543   5.646  13.069
39981W        W12241  31.103  29.575   5.104
39982W        W12242  23.512  31.481   0.545
39983W        W12243   9.357  43.051  12.173
39984W        W12244   7.897  26.035  13.878
39985W        W12245   6.138  20.311  14.023
39986W        W12246  44.811  43.314  14.553
39987W        W12247  30.921  33.793   3.138
39988W        W12248  14.149  32.781   4.299
39989W        W12249  26.126  10.437   0.349
39990W        W12250  43.831  18.567   2.267
39991W        W12251  39.407  34.382  11.070
39992W        W12252  33.341  13.272  12.958
39993W        W12253  27.492  31.928   0.438
39994W        W12254  43.975  26.338   4.214
39995W        W12255  32.490  25.601   2.010
39996W        W12256   1.433  26.482   1.602
39997W        W12257   3.839  16.365  12.972
39998W        W12258  10.484  37.908  10.190
39999W        W12259   2.419  28.806  11.885
40000W        W12260   3.077  17.255  12.732
40001W        W12261  41.813  10.842   4.813
40002W        W12262   6.390  11.693   0.476
40003W        W12263  15.214  11.216  13.975
40004W        W12264  14.821  44.727   0.011
40005W        W12265  31.657  35.256   0.282
40006W        W12266  34.423  25.751   3.338
40007W        W12267   5.201  26.631   4.730
40008W        W12268   6.581  24.705  11.963
40009W        W12269  23.124  24.729  12.412
40010W        W12270   8.434  14.289  14.935
40011W        W12271  31.498  33.079   1.393
40012W        W12272  33.754  35.829   2.371
40013W        W12273  33.957   3.335  14.397
40014W        W12274  28.872   0.323   0.297
40015W        W12275  18.113  14.651   0.093
40016W        W12276  15.622   9.618  12.349
40017W        W12277   1.000  41.316   3.181
40018W        W12278  35.709  20.420   2.668
40019W        W12279  11.322  43.704  12.591
40020W        W12280  11.714  42.089  11.481
40021W        W12281   8.919  43.819  11.674
40022W        W12282   6.731  18.411  11.968
40023W        W12283  21.438  27.128   0.343
40024W        W12284  12.015  19.760   0.087
40025W        W12285  26.853  34.280   3.306
40026W        W12286  22.268  43.790  11.602
40027W        W12287  43.474   3.757  13.873
40028W        W12288  35.091  22.180   9.992
40029W        W12289   8.408   0.739  12.573
40030W        W12290  39.389  21.730   2.857
40031W        W12291  25.978  24.512   1.575
40032W        W12292  38.083  26.153   0.673
40033W        W12293  16.277  32.573  12.444
40034W        W12294  29.449  11.703   3.401
40035W        W12295   6.466  15.803  11.708
40036W        W12296  27.017  11.375  11.764
40037W        W12297  30.961   3.284  11.524
40038W        W12298  10.619  41.008   0.778
40039W        W12299   0.565   2.708  12.538
40040W        W12300  28.063   7.323  12.427
40041W        W12301  30.494  33.923  11.599
40042W        W12302   3.198  26.197   1.785
40043W        W12303  16.878  33.096  13.415
40044W        W12304  23.983   6.628  13.856
40045W        W12305   2.657  11.664   4.846
40046W        W12306   2.405  34.508  13.961
40047W        W12307   4.337   0.451  12.454
40048W        W12308  13.861  15.063  10.219
40049W        W12309  12.294  13.325   2.621
40050W        W12310   7.368  24.483   1.404
40051W        W12311  12.839  33.102   3.420
40052W        W12312  15.720   3.072   0.828
40053W        W12313   1.409  26.384  12.814
40054W        W12314  16.111  29.446   1.315
40055W        W12315  20.822  41.088  14.365
40056W        W12316   4.272  35.345  11.540
40057W        W12317  12.771  18.435   0.887
40058W        W12318  11.143  27.200   0.467
40059W        W12319  26.873  12.142   0.788
40060W        W12320   9.667  43.983   2.280
40061W        W12321  32.941  33.243   4.116
40062W        W12322   3.019  40.293  12.728
40063W        W12323  31.911  16.272  14.898
40064W        W12324  40.899  24.217  14.065
40065W        W12325  19.061  14.366  10.699
40066W        W12326  20.285  20.111  12.066
40067W        W12327  28.282   8.189   4.566
40068W        W12328   2.692  31.164  13.058
40069W        W12329  28.545  22.304  10.292
40070W        W12330  31.171  36.647   4.154
40071W        W12331  18.231  17.077  11.442
40072W        W12332   8.235  40.549   2.315
40073W        W12333  29.137  30.633  12.162
40074W        W12334  18.499  26.637   4.567
40075W        W12335  28.384  21.048   4.941
40076W        W12336  23.071   8.352  14.781
40077W        W12337  22.944  20.328   0.786
40078W        W12338  34.858  10.520  13.698
40079W        W12339  38.797  17.641   1.359
40080W        W12340   6.989   9.830   2.317
40081W        W12341  29.297  15.665  14.812
40082W        W12342  44.245  40.521  13.888
40083W        W12343  38.469  22.517  14.197
40084W        W12344  15.657  20.248  10.709
40085W        W12345   2.789  23.336  12.202
40086W        W12346  32.381  33.767  11.789
40087W        W12347  18.230  38.072  11.081
40088W        W12348   7.606  15.317  14.054
40089W        W12349  38.387  44.912  10.777
40090W        W12350  43.837  38.368  14.556
40091W        W12351  41.332  16.895   0.141
40092W        W12352  33.411  42.225  12.878
40093W        W12353  15.427  39.524   1.900
40094W        W12354  12.747  42.153   0.768
40095W        W12355  41.345  23.019   3.785
40096W        W12356   6.757  35.399   0.411
40097W        W12357   6.300  25.274  13.052
40098W        W12358  41.592   2.787  11.159
40099W        W12359  39.324  17.345  14.420
40100W        W12360  17.301   4.073  12.486
40101W        W12361   8.344  27.687  13.030
40102W        W12362  14.045   7.245  14.227
40103W        W12363  42.839  20.710   3.226
40104W        W12364  22.111  32.042  13.273
40105W        W12365  12.198   2.218  14.680
40106W        W12366  39.341   2.963   3.292
40107W        W12367   7.179  25.028   3.229
40108W        W12368  36.380  17.224   2.909
40109W        W12369  24.576  39.301  12.571
40110W        W12370  31.730  38.493   2.824
40111W        W12371  42.355  23.733  12.677
40112W        W12372  28.541  10.326   0.927
40113W        W12373  33.136  29.159  11.883
40114W        W12374  44.254  37.312  14.091
40115W        W12375  19.308  17.241  12.960
40116W        W12376  11.271   8.427   4.634
40117W        W12377  16.256  12.129   3.332
40118W        W12378  23.537  11.706   4.789
40119W        W12379  14.053  19.612  10.983
40120W        W12380  34.397  38.579   1.822
40121W        W12381   8.914  41.259   9.924
40122W        W12382  15.279  29.781   0.360
40123W        W12383  27.933  19.911   2.245
40124W        W12384  29.901   3.869   4.653
40125W        W12385  28.459  36.492  11.105
40126W        W12386  35.118  13.414   4.578
40127W        W12387  40.829  13.905   0.363
40128W        W12388  20.245  44.236   2.905
40129W        W12389  40.308  32.992  12.632
40130W        W12390   8.959  16.621  14.913
40131W        W12391  17.015   4.565  10.999
40132W        W12392   7.409  42.010   1.885
40133W        W12393  34.653  12.060  14.807
40134W        W12394  36.685  44.571   2.322
40135W        W12395  41.292  31.254   2.282
40136W        W12396  26.102  30.924   3.106
40137W        W12397  23.766   4.810  13.864
40138W        W12398  22.318   2.175   1.489
40139W        W12399  28.639  23.274  12.450
40140W        W12400  26.041  38.126  13.885
40141W        W12401  34.858   7.851   2.846
40142W        W12402   1.884  33.140  10.875
40143W        W12403  16.548  37.574  11.481
40144W        W12404  33.313  10.812   2.308
40145W        W12405  28.051   6.380   2.735
40146W        W12406  21.473  30.600   1.788
40147W        W12407  29.398  20.013   2.984
40148W        W12408  18.935   5.363  10.192
40149W        W12409  44.449   8.929  14.916
40150W        W12410  41.441  24.849  12.548
40151W        W12411  36.425  44.009  13.431
40152W        W12412  32.074  30.414   0.247
40153W        W12413  23.507  21.448  12.856
40154W        W12414   8.740   3.024   2.704
40155W        W12415  16.202  13.742  12.934
40156W        W12416   2.693  33.937  11.580
40157W        W12417  24.113  40.384   2.756
40158W        W12418  34.864   2.749  13.515
40159W        W12419   2.356  13.154   4.845
40160W        W12420  22.582  30.637   3.637
40161W        W12421  40.313  31.630  14.836
40162W        W12422  37.096  34.528   4.603
40163W        W12423  35.059  25.632  11.132
40164W        W12424  16.543  31.074   0.846
40165W        W12425  29.077  38.560  14.777
40166W        W12426  22.195   9.117  11.250
40167W        W12427   8.358  26.726   4.477
40168W        W12428   2.660  18.316   3.765
40169W        W12429  42.143  23.661  13.963
40170W        W12430  42.875  39.208  13.366
40171W        W12431  39.205  14.081   1.338
40172W        W12432   3.716  41.585   0.270
40173W        W12433  21.094  22.149   4.484
40174W        W12434  38.399  14.073   1.287
40175W        W12435  13.680  14.163   2.137
40176W        W12436  32.559  33.879   3.858
40177W        W12437  38.391  11.109   3.827
40178W        W12438   7.200  39.661  11.172
40179W        W12439  33.022  18.108  13.860
40180W        W12440   8.785  32.925  14.140
40181W        W12441  27.936  25.420  12.537
40182W        W12442  42.525  32.721   2.572
40183W        W12443  42.256  15.974  11.044
40184W        W12444  18.707  28.588   1.210
40185W        W12445  33.883  16.953  12.956
40186W        W12446  31.287  16.228   0.487
40187W        W12447  21.110  28.599  13.848
40188W        W12448   2.527   1.857  11.844
40189W        W12449  22.381  38.173  14.946
40190W        W12450  11.337   7.546  12.040
40191W        W12451  31.997  19.719   1.342
40192W        W12452  32.986   7.664  13.537
40193W        W12453  23.226  28.244   0.934
40194W        W12454  36.803   3.813   0.347
40195W        W12455   8.374   0.371   2.425
40196W        W12456  35.552  33.307  14.236
40197W        W12457  38.952  10.707   1.766
40198W        W12458  22.664  32.892  14.738
40199W        W12459  41.096  17.652   1.285
40200W        W12460   9.251  12.146   1.773
40201W        W12461  14.585  27.679  10.982
40202W        W12462  37.839  29.250  11.139
40203W        W12463  11.912   5.402   4.424
40204W        W12464  33.340   2.497   1.767
40205W        W12465  26.476  10.294   2.632
40206W        W12466   6.643  40.524   1.284
40207W        W12467  38.205  29.263  13.041
40208W        W12468  34.083  36.431  13.971
40209W        W12469  19.323  38.009  11.960
40210W        W12470  25.408  22.728   5.233
40211W        W12471  30.960  38.279  11.707
40212W        W12472  16.668  18.234  12.282
40213W        W12473  41.795  26.232   3.769
40214W        W12474  28.222  17.630  12.332
40215W        W12475  43.434   0.680  13.940
40216W        W12476   9.919  20.271   2.879
40217W        W12477  16.887  28.193  10.138
40218W        W12478   0.435   9.975   3.701
40219W        W12479  28.872  11.648  14.687
40220W        W12480   8.825  44.976  13.571
40221W        W12481  36.683  16.811   2.759
40222W        W12482  40.480   7.316   0.973
40223W        W12483  20.296  24.523  12.508
40224W        W12484  28.497  15.547  10.664
40225W        W12485  44.947  20.169  12.534
40226W        W12486   5.161  37.291   4.073
40227W        W12487  30.843  36.000   0.791
40228W        W12488  22.795  39.836   4.110
40229W        W12489  11.291   8.059   4.240
40230W        W12490  34.559  39.960  12.948
40231W        W12491   0.742  20.220  12.936
40232W        W12492  35.406  44.620  10.230
40233W        W12493  11.381  44.222   0.882
40234W        W12494  10.722  39.322  12.378
40235W        W12495  42.945  11.755   3.248
40236W        W12496  40.196  34.502  14.310
40237W        W12497  20.801  22.019   4.881
40238W        W12498  34.115  29.784  12.812
40239W        W12499  44.967  30.217   4.137
40240W        W12500  29.194  23.646   1.797
40241W        W12501   0.921   5.887  13.581
40242W        W12502  16.552  20.984  14.848
40243W        W12503   3.381  38.941  11.362
40244W        W12504  22.689  31.669  10.939
40245W        W12505  16.542  31.106   2.384
40246W        W12506  43.344  32.386  14.260
40247W        W12507  19.914  41.580  13.508
40248W        W12508   6.589  30.854   1.869
40249W        W12509  19.017  31.004   4.454
40250W        W12510  25.050  12.541   0.842
40251W        W12511  24.022  35.051  12.066
40252W        W12512  33.634  34.428   2.243
40253W        W12513   5.675  31.925  14.092
40254W        W12514   1.949   5.343   0.909
40255W        W12515   5.750  15.740   4.688
40256W        W12516  38.690  42.011   4.101
40257W        W12517  43.293  39.048   1.731
40258W        W12518  12.685  31.439   0.531
40259W        W12519  11.458  37.041  14.965
40260W        W12520  11.415   9.424   1.265
40261W        W12521  42.277  27.530   3.153
40262W        W12522  15.551  42.729  11.508
40263W        W12523  21.932  15.109   4.815
40264W        W12524  38.372  10.339   1.330
40265W        W12525  41.821  37.917  14.881
40266W        W12526  16.231  38.095   0.770
40267W        W12527   6.374  20.535   2.237
40268W        W12528  20.806  19.985   3.868
40269W        W12529  22.913  38.754  12.007
40270W        W12530  14.095   6.606   0.960
40271W        W12531  44.401  18.545  12.063
40272W        W12532  21.063  23.462  11.005
40273W        W12533   9.879  16.770   3.285
40274W        W12534  41.487  24.775   4.098
40275W        W12535  31.076   3.395   4.381
40276W        W12536  22.323  14.499  13.236
40277W        W12537  34.697  28.578   4.734
40278W        W12538  37.185  21.441   2.007
40279W        W12539  15.230  31.057   0.407
40280W        W12540  34.444  15.621   2.307
40281W        W12541   9.491   6.122  11.247
40282W        W12542  14.779  13.343   3.753
40283W        W12543  25.603  37.369   4.627
40284W        W12544   4.016  21.301  13.968
40285W        W12545  41.805   0.707  12.065
40286W        W12546   6.929  27.028  11.895
40287W        W12547   6.384  13.139   1.647
40288W        W12548  28.225  12.719   2.558
40289W        W12549  24.483  37.539  12.941
40290W        W12550  14.532   0.995  11.185
40291W        W12551   9.139  23.034  14.021
40292W        W12552  37.704  10.092   2.776
40293W        W12553  11.401  43.957   3.092
40294W        W12554  40.495  18.642   0.339
40295W        W12555   7.968  41.324  11.351
40296W        W12556  23.668  19.058   3.013
40297W        W12557   9.692  19.494  12.511
40298W        W12558  30.020  12.571   1.262
40299W        W12559  24.032  16.741  10.744
40300W        W12560  12.685   1.248   3.722
40301W        W12561   0.501  18.673   2.697
40302W        W12562  13.672  39.487   2.682
40303W        W12563   8.168  31.634  12.980
40304W        W12564  22.652  18.632  12.682
40305W        W12565   0.905  40.050  14.960
40306W        W12566  34.394  18.242   3.689
40307W        W12567  35.294  41.346   4.150
40308W        W12568  30.982   5.780  12.137
40309W        W12569   1.421  25.616  12.398
40310W        W12570   4.855  10.593  14.867
40311W        W12571  18.672  22.273  11.506
40312W        W12572   3.206  42.660   0.270
40313W        W12573  40.577  30.220   4.925
40314W        W12574  11.315  10.737   4.023
40315W        W12575  31.374  23.007  11.048
40316W        W12576  42.410  44.742   1.918
40317W        W12577  27.182  31.075  13.422
40318W        W12578   3.830  31.642   0.889
40319W        W12579  38.036  36.391   1.220
40320W        W12580  13.564  17.897  13.021
40321W        W12581  40.054   6.149  13.284
40322W        W12582  18.333  36.117   2.211
40323W        W12583  41.618   1.347  13.925
40324W        W12584  20.083  44.274   3.412
40325W        W12585   8.708  36.290   2.116
40326W        W12586  21.987   4.977   2.762
40327W        W12587  20.996  10.244   1.495
40328W        W12588  19.129   5.946   1.658
40329W        W12589   9.889  19.606   3.279
40330W        W12590  15.586   5.310   2.001
40331W        W12591  18.713   2.881  13.819
40332W        W12592   9.929  27.062  11.926
40333W        W12593  35.651  17.110   2.287
40334W        W12594  16.588  42.954  13.553
40335W        W12595  38.932  40.725   1.402
40336W        W12596  39.359  15.475   3.701
40337W        W12597   6.965   2.131  11.206
40338W        W12598  33.940   7.226  12.047
40339W        W12599  13.198  11.983   3.699
40340W        W12600   9.357  18.605  14.745
40341W        W12601   7.269  37.446  12.809
40342W        W12602  22.466  27.069  13.892
40343W        W12603  17.171  14.851   3.707
40344W        W12604   2.433  21.603   2.393
40345W        W12605  33.399  13.521  10.688
40346W        W12606  35.722  15.532  10.454
40347W        W12607  18.770  13.803  13.968
40348W        W12608  41.880   1.822   1.960
40349W        W12609  23.958   8.418   5.012
40350W        W12610   7.849  24.390   1.260
40351W        W12611  29.919   6.778  13.829
40352W        W12612  18.027  20.507   0.363
40353W        W12613  25.475   2.304  14.584
40354W        W12614  42.059  25.451  11.192
40355W        W12615  43.923   6.659   2.367
40356W        W12616   1.837  15.874  10.625
40357W        W12617   7.675  34.803   2.673
40358W        W12618  38.264  25.450   1.829
40359W        W12619   5.585   5.823   4.280
40360W        W12620  41.879  30.228   2.959
40361W        W12621  36.888  17.481  10.738
40362W        W12622  15.843  16.237  10.465
40363W        W12623  44.442  10.810   2.391
40364W        W12624  28.345   0.898   3.169
40365W        W12625  22.056  11.628  12.027
40366W        W12626  25.415  32.060   0.408
40367W        W12627   5.065  28.156   0.977
40368W        W12628  43.843  30.010  14.940
40369W        W12629  13.777   6.674   1.363
40370W        W12630   7.740  31.275   3.223
40371W        W12631  10.109   3.347  11.009
40372W        W12632  23.401  21.179   3.672
40373W        W12633  23.718   3.546   4.926
40374W        W12634  30.057  40.943  13.421
40375W        W12635  30.964  33.146   3.938
40376W        W12636  42.356   0.227  12.087
40377W        W12637  29.372  32.518   3.143
40378W        W12638   6.728  18.939   0.999
40379W        W12639  22.990  22.751  10.357
40380W        W12640   3.581   1.158   3.680
40381W        W12641  33.501  18.201   0.650
40382W        W12642  26.257  44.727   1.254
40383W        W12643  33.067  43.830  11.579
40384W        W12644   7.344  37.673   3.627
40385W        W12645   7.143  33.704  12.546
40386W        W12646  15.910  32.337  14.825
40387W        W12647  10.293   4.832  10.347
40388W        W12648  14.292  30.945  11.430
40389W        W12649   4.024  30.470  12.752
40390W        W12650  29.473  11.752   0.430
40391W        W12651   1.938  17.491  11.655
40392W        W12652  15.881  14.384  11.028
40393W        W12653  20.442   2.271   1.307
40394W        W12654  17.101  21.130   4.051
40395W        W12655  40.115  39.851  11.135
40396W        W12656  38.135  14.327   1.688
40397W        W12657   7.993  37.132   4.179
40398W        W12658  26.449  11.565  11.191
40399W        W12659  41.896  42.954   0.276
40400W        W12660  27.406  31.476   0.688
40401W        W12661  17.177  33.565   4.299
40402W        W12662  24.071   6.761   2.779
40403W        W12663  15.995   8.477   4.248
40404W        W12664   0.268  42.142   4.017
40405W        W12665  26.002  19.135   1.333
40406W        W12666  23.350   6.209  10.874
40407W        W12667   2.192   7.579   1.335
40408W        W12668  24.850  32.524   0.019
40409W        W12669  22.214  32.866  10.514
40410W        W12670  42.035  38.047   1.839
40411W        W12671  17.768  20.802  13.002
40412W        W12672  30.365  20.446  12.389
40413W        W12673  12.850  21.251  13.330
40414W        W12674  25.820   9.661  11.386
40415W        W12675  35.746   0.968   1.808
40416W        W12676   2.501  38.057   4.129
40417W        W12677   0.005  35.429  11.391
40418W        W12678  41.499  44.517  14.698
40419W        W12679  39.908  16.964   4.148
40420W        W12680  20.508  34.579   4.314
40421W        W12681   8.981   3.742  12.920
40422W        W12682  31.886  24.127  14.228
40423W        W12683  17.576  36.630   4.135
40424W        W12684  36.969  11.887  12.311
40425W        W12685  23.316  35.853  13.829
40426W        W12686  43.393  26.955   4.267
40427W        W12687  27.738  17.010  13.097
40428W        W12688  36.989  32.511   0.864
40429W        W12689  11.165  38.606  14.393
40430W        W12690  11.251  16.090  14.500
40431W        W12691  23.651  24.508   0.271
40432W        W12692  39.415  36.952  11.979
40433W        W12693  15.772   6.282   4.323
40434W        W12694  22.601  44.229  12.469
40435W        W12695  21.341  39.163  12.489
40436W        W12696   1.862  29.600  11.915
40437W        W12697  38.491  23.990  11.480
40438W        W12698   0.743  14.737   1.705
40439W        W12699  27.078  34.893   2.798
40440W        W12700  42.965  17.606   0.611
40441W        W12701   1.618   3.955  12.961
40442W        W12702  14.327  36.770  13.769
40443W        W12703  12.735  29.698   1.243
40444W        W12704  38.771  19.871  10.299
40445W        W12705   5.243   6.202  13.873
40446W        W12706  42.003  17.085  13.572
40447W        W12707  35.424  30.954   1.189
40448W        W12708   4.246  21.282  11.508
40449W        W12709   8.164  41.046   4.038
40450W        W12710   9.980  17.912  10.347
40451W        W12711  36.584  35.896   1.264
40452W        W12712   1.226  44.537   2.164
40453W        W12713  24.058  32.127  12.651
40454W        W12714  20.856   4.419  14.587
40455W        W12715  23.561  35.134   4.133
40456W        W12716   3.245  18.355   2.333
40457W        W12717  25.027  28.571   2.847
40458W        W12718   3.755  37.134  12.524
40459W        W12719  43.678  42.941  13.935
40460W        W12720  14.030   9.382   0.131
40461W        W12721  20.131  13.109  14.617
40462W        W12722   7.823   1.854  14.345
40463W        W12723  12.948  36.667   1.613
40464W        W12724  26.927  41.950   4.657
40465W        W12725  33.014  23.687   0.510
40466W        W12726  40.246   8.093  10.155
40467W        W12727  29.451  23.124  11.983
40468W        W12728  17.776  32.398   3.262
40469W        W12729  22.808  30.176  14.018
40470W        W12730  34.833  42.962   0.452
40471W        W12731  36.428  37.313   0.699
40472W        W12732   6.173  16.075   3.393
40473W        W12733   2.972   6.079   1.807
40474W        W12734  22.146  44.307   2.691
40475W        W12735  44.957  11.185   4.595
40476W        W12736   3.449  16.150   2.450
40477W        W12737  39.578  42.939  13.553
40478W        W12738  27.605   1.237  12.141
40479W        W12739  29.597  16.797   3.698
40480W        W12740  11.222  25.479   0.726
40481W        W12741  32.026  28.465  11.481
40482W        W12742   9.052  15.270  12.168
40483W        W12743  24.421  13.372   2.591
40484W        W12744  36.359  39.865  13.105
40485W        W12745  27.282  27.907   3.299
40486W        W12746  21.688  34.989   3.588
40487W        W12747   0.457  22.161   1.885
40488W        W12748  26.553   4.938   3.199
40489W        W12749  25.556  29.583   4.238
40490W        W12750  13.338  29.479  11.746
40491W        W12751  40.202  10.372   5.033
40492W        W12752   8.246  17.384  10.875
40493W        W12753  25.987  30.841  12.033
40494W        W12754  30.871  37.627   2.192
40495W        W12755  31.307  35.351  10.779
40496W        W12756  14.133   7.775  13.335
40497W        W12757  30.365  42.916   3.697
40498W        W12758  35.026  13.671   3.630
40499W        W12759  14.153  14.690  13.393
40500W        W12760  13.201   4.847   1.930
40501W        W12761   3.010  44.014  14.011
40502W        W12762  21.098   5.736   4.113
40503W        W12763  35.013  22.572   3.754
40504W        W12764  30.066  25.430   0.464
40505W        W12765  23.150  12.380  13.505
40506W        W12766  10.145  44.968  11.129
40507W        W12767   2.245  13.896  11.582
40508W        W12768  22.820  40.002  10.614
40509W        W12769  31.425  11.355  12.373
40510W        W12770  25.803  11.912  13.792
40511W        W12771   9.807  25.526   2.329
40512W        W12772   8.883  19.765   0.304
40513W        W12773  10.944   4.911   2.735
40514W        W12774   5.852  20.654  12.974
40515W        W12775  42.867  18.076  12.230
40516W        W12776  24.634  11.271  11.218
40517W        W12777  24.154  42.001   3.277
40518W        W12778  36.495   5.478  11.719
40519W        W12779   6.218  15.970   5.057
40520W        W12780  15.835  43.629  13.579
40521W        W12781   3.836  14.340   1.737
40522W        W12782  20.571   6.853   2.213
40523W        W12783  23.900   1.510  13.459
40524W        W12784  25.782  44.729  13.759
40525W        W12785  29.633  17.246   2.819
40526W        W12786  40.144  28.380   0.773
40527W        W12787  23.940   9.368  14.042
40528W        W12788  36.438  24.053   0.234
40529W        W12789   0.770  16.369  11.190
40530W        W12790  37.085  21.550   4.226
40531W        W12791  36.232  12.733   1.117
40532W        W12792  27.484   0.911  10.939
40533W        W12793   6.276  18.166  14.008
40534W        W12794  33.608  26.483   2.632
40535W        W12795  44.447  40.287  14.830
40536W        W12796  16.275   6.776  11.029
40537W        W12797  33.440  28.614   0.343
40538W        W12798   4.525   9.834   0.486
40539W        W12799   5.610  39.265   2.721
40540W        W12800  30.569   9.828   2.784
40541W        W12801   3.373  23.414  10.864
40542W        W12802  27.589  40.429  11.417
40543W        W12803  32.947  41.250   2.824
40544W        W12804  16.012  39.311   4.084
40545W        W12805  21.586  38.988  11.126
40546W        W12806  41.446   0.548  10.876
40547W        W12807   2.967  43.998   0.727
40548W        W12808  10.075  39.755  10.968
40549W        W12809  31.661   7.380  11.502
40550W        W12810  18.161  13.721  11.427
40551W        W12811  10.935  33.552  10.349
40552W        W12812   3.843  32.979  10.763
40553W        W12813  37.646  38.552   3.282
40554W        W12814   1.089   3.911  12.969
40555W        W12815  30.455  14.362   4.828
40556W        W12816  19.493  43.937   2.088
40557W        W12817  35.089  15.992  11.907
40558W        W12818   6.424  22.622   3.490
40559W        W12819  42.972  41.104   2.239
40560W        W12820   9.103  43.372  10.405
40561W        W12821  41.941  18.598  11.475
40562W        W12822   7.842  29.261   2.869
40563W        W12823   0.522  27.704   3.755
40564W        W12824  27.868   1.243   4.306
40565W        W12825  25.003  27.208   1.341
40566W        W12826  26.985  12.828   3.908
40567W        W12827  32.638  35.617   3.136
40568W        W12828   1.942  44.883   0.068
40569W        W12829   2.432  42.961  12.682
40570W        W12830  32.656   9.248   0.433
40571W        W12831  12.088  33.469  11.710
40572W        W12832  33.457   2.080   4.133
40573W        W12833  31.892  20.639  13.806
40574W        W12834   0.495   5.692   4.130
40575W        W12835  23.272  39.780  13.000
40576W        W12836  43.509  12.328  13.468
40577W        W12837   9.588   0.162  13.802
40578W        W12838   3.539   5.287   1.892
40579W        W12839  40.500  38.599   0.639
40580W        W12840   3.017  36.578  11.438
40581W        W12841   5.470  14.322  14.401
40582W        W12842  13.887   3.041   4.657
40583W        W12843  30.235  35.434   1.383
40584W        W12844  20.738  44.671  13.546
40585W        W12845  20.949  14.074   1.967
40586W        W12846   8.786  21.798  14.560
40587W        W12847   7.183  22.965   0.320
40588W        W12848  12.914  27.941   0.068
40589W        W12849   9.699  36.882  14.277
40590W        W12850  12.579  39.957   2.600
40591W        W12851  35.229  24.992   1.313
40592W        W12852   8.487  41.020   3.544
40593W        W12853  34.922  10.130   2.278
40594W        W12854  34.588  27.937   3.419
40595W        W12855  30.169  36.804   2.286
40596W        W12856  15.852  41.958   4.450
40597W        W12857  25.720  31.995   2.240
40598W        W12858  12.703  20.329   1.162
40599W        W12859  21.818  19.440   4.103
40600W        W12860  33.166   9.477   1.283
40601W        W12861  34.210  19.119   0.830
40602W        W12862  43.253  25.148  12.585
40603W        W12863  14.756  35.184   0.011
40604W        W12864  42.577  36.468   2.601
40605W        W12865  16.267  29.069   2.871
40606W        W12866  42.553  22.552  11.018
40607W        W12867   0.025  43.599   0.894
40608W        W12868  15.581  43.839   4.567
40609W        W12869  18.169   8.615  12.888
40610W        W12870  28.892   5.770   0.099
40611W        W12871  34.020  25.450   1.822
40612W        W12872  28.973  29.073  11.014
40613W        W12873  23.270  36.438   3.403
40614W        W12874  18.405  23.348   0.709
40615W        W12875  24.172  14.682   4.481
40616W        W12876  22.697  24.105   0.851
40617W        W12877  21.703  26.522   2.165
40618W        W12878  16.173  44.442   2.547
40619W        W12879  14.395  21.122  12.647
40620W        W12880  21.980  33.614  11.191
40621W        W12881  30.646   2.965   0.667
40622W        W12882  31.814  19.679  12.844
40623W        W12883  19.248  43.560  12.915
40624W        W12884  44.039  40.745   4.047
40625W        W12885  39.327   5.999   1.558
40626W        W12886   7.932  38.603  12.526
40627W        W12887  35.326  30.097  13.023
40628W        W12888  33.162  35.871   4.699
40629W        W12889  15.507   1.699   1.911
40630W        W12890  19.791  25.996  12.869
40631W        W12891  42.767   5.491   0.680
40632W        W12892  10.356  22.543  11.921
40633W        W12893  38.140  19.978  14.004
40634W        W12894   2.439   2.932  11.942
40635W        W12895  10.792   2.488  11.183
40636W        W12896  24.446  35.429   3.210
40637W        W12897   9.556  23.479  11.667
40638W        W12898   3.794  23.093  14.510
40639W        W12899  10.569  13.687   4.422
40640W        W12900  38.970  16.733  13.539
40641W        W12901  22.505  36.022   0.681
40642W        W12902   7.355  13.175   3.604
40643W        W12903  41.937  32.087   1.498
40644W        W12904  28.249  34.176  13.517
40645W        W12905  26.972  26.607   0.324
40646W        W12906  32.999   7.143  10.682
40647W        W12907   0.393  33.089   4.130
40648W        W12908  40.054  27.242   0.354
40649W        W12909  30.580  36.086  11.631
40650W        W12910   0.335  12.233  12.852
40651W        W12911  14.886  34.539  13.804
40652W        W12912  11.116  33.980   2.261
40653W        W12913  28.409  19.118   4.528
40654W        W12914  20.021  34.510  14.726
40655W        W12915  34.593   2.604   1.712
40656W        W12916  24.389  38.044   0.311
40657W        W12917  44.818  14.648   2.703
40658W        W12918   6.644  43.309  13.437
40659W        W12919  14.156   3.325  10.707
40660W        W12920  23.524  16.649   4.703
40661W        W12921  28.269   4.735  11.159
40662W        W12922  24.272  14.099   3.218
40663W        W12923  42.112  40.957  10.533
40664W        W12924  32.533  16.931   3.574
40665W        W12925  23.603  27.516  10.506
40666W        W12926  43.848  18.107  11.543
40667W        W12927   1.675   4.884   0.911
40668W        W12928  37.305   2.847  10.793
40669W        W12929  38.799   9.404   5.033
40670W        W12930   6.833  22.556  11.721
40671W        W12931  20.030  16.577  12.597
40672W        W12932  19.022  21.266   3.279
40673W        W12933  13.892  39.781  13.805
40674W        W12934  25.692  37.812  10.544
40675W        W12935  25.766  11.429  13.986
40676W        W12936  21.562  34.416  14.702
40677W        W12937  16.670  27.033   2.794
40678W        W12938  14.234  12.014   1.365
40679W        W12939  44.718  14.889  14.270
40680W        W12940   6.905  35.364  10.766
40681W        W12941  41.959   8.212   2.423
40682W        W12942  22.007  19.706  13.764
40683W        W12943   6.724  19.372   4.208
40684W        W12944   7.213  19.776   0.215
40685W        W12945  35.969   4.834   1.502
40686W        W12946  34.057  26.513   1.761
40687W        W12947   7.802  41.052   1.789
40688W        W12948   3.957   0.766  12.028
40689W        W12949  18.500   5.697  12.573
40690W        W12950  26.010  15.536  12.303
40691W        W12951  19.784  33.611  11.446
40692W        W12952  40.608  31.442  14.472
40693W        W12953  28.410  31.500  13.770
40694W        W12954  15.680   6.417  13.321
40695W        W12955  28.908  27.631  14.736
40696W        W12956   8.240   8.450  11.972
40697W        W12957   4.315  34.393  14.827
40698W        W12958  14.436  36.080   4.812
40699W        W12959   6.887  13.151   2.414
40700W        W12960   7.323  33.924   3.138
40701W        W12961  11.630  39.832   1.060
40702W        W12962  10.515  32.389  11.160
40703W        W12963   6.171   7.854  13.330
40704W        W12964   1.232   3.226  12.581
40705W        W12965  30.235   5.252   4.170
40706W        W12966  33.164  19.065  14.987
40707W        W12967   1.160  15.953   4.118
40708W        W12968   4.867  39.578   0.159
40709W        W12969  20.248  34.632  12.891
40710W        W12970  14.305  15.965  10.034
40711W        W12971   5.895  16.310   2.438
40712W        W12972  26.883  44.731  12.569
40713W        W12973   2.388  36.770   0.054
40714W        W12974   4.164  44.890  11.719
40715W        W12975  24.026  35.442   2.931
40716W        W12976  42.489  36.717   3.026
40717W        W12977  26.049   8.889  11.038
40718W        W12978  10.574  26.160   3.153
40719W        W12979  15.654  34.024  12.404
40720W        W12980  24.628  31.128   1.377
40721W        W12981  34.966   6.787  11.586
40722W        W12982  31.008  21.196  12.631
40723W        W12983  13.617  43.774  14.286
40724W        W12984  40.525  23.651   0.434
40725W        W12985   9.201  14.715   1.922
40726W        W12986  15.542  29.155   0.259
40727W        W12987  17.247   5.154   4.310
40728W        W12988  38.872  42.350  14.703
40729W        W12989  30.193  18.066   1.820
40730W        W12990  35.332  19.669  10.648
40731W        W12991  27.754  29.593   0.808
40732W        W12992  42.602  20.027   1.871
40733W        W12993  36.413  13.856  10.865
40734W        W12994  30.974   8.791   1.366
40735W        W12995  21.078  11.227   3.223
40736W        W12996  31.940  41.209  12.037
40737W        W12997  21.705  24.741  14.459
40738W        W12998  10.452   9.724  14.526
40739W        W12999  15.729   7.333   1.499
40740W        W13000  25.570  18.251   3.614
40741W        W13001  23.677  27.743  14.853
40742W        W13002   8.220   1.284   4.622
40743W        W13003  27.080  27.205   4.463
40744W        W13004  25.140  37.729   0.817
40745W        W13005   6.219  26.542  14.096
40746W        W13006   1.173  36.265  14.358
40747W        W13007  37.114  40.126   0.749
40748W        W13008  22.200   8.745   3.222
40749W        W13009  23.027  17.021   1.130
40750W        W13010  36.381   0.239  12.159
40751W        W13011  25.373   8.168  13.131
40752W        W13012  32.627  39.931   4.092
40753W        W13013  25.971  16.129   1.127
40754W        W13014  37.515  25.514   4.136
40755W        W13015  33.860  29.031  11.078
40756W        W13016  41.903  40.427  13.075
40757W        W13017  24.230  22.954   2.001
40758W        W13018  23.293  34.868   3.783
40759W        W13019  44.828  41.528  13.329
40760W        W13020  32.007  33.559   0.265
40761W        W13021  44.945  26.995   3.717
40762W        W13022   5.298  23.448  13.785
40763W        W13023  39.376  31.458  12.798
40764W        W13024  27.710  20.722  10.938
40765W        W13025  28.219  39.393   4.180
40766W        W13026  37.122   5.714   2.661
40767W        W13027   5.231  32.635   3.274
40768W        W13028  10.674  21.718  10.707
40769W        W13029  26.001  16.256   1.725
40770W        W13030   8.684  10.327   1.222
40771W        W13031  26.255   9.189  13.661
40772W        W13032  10.658   4.456   4.743
40773W        W13033   2.243  11.910   0.536
40774W        W13034  40.291  40.478   5.086
40775W        W13035  38.729  32.356  13.972
40776W        W13036  25.674   9.720  11.869
40777W        W13037  10.995  24.087   4.758
40778W        W13038  30.483  28.050  13.974
40779W        W13039  30.558  44.918   1.332
40780W        W13040  29.453  11.567   2.503
40781W        W13041  38.527  19.103  12.349
40782W        W13042  36.288  30.543  13.505
40783W        W13043  31.439  40.285  14.910
40784W        W13044  13.941  38.846  12.450
40785W        W13045  24.417  13.012   2.226
40786W        W13046  31.368  29.118  14.533
40787W        W13047  28.645   2.008  11.600
40788W        W13048  21.603  26.251  14.480
40789W        W13049  29.129  36.580   3.812
40790W        W13050   8.195   1.036  12.009
40791W        W13051  19.703  32.827  12.172
40792W        W13052  44.146  41.625   4.202
40793W        W13053  23.411  26.713  13.015
40794W        W13054  11.350  24.531  14.144
40795W        W13055  11.663  36.423  14.579
40796W        W13056  10.371  36.353   4.718
40797W        W13057  41.757  42.392   3.599
40798W        W13058   9.863   9.631  12.386
40799W        W13059  10.286   9.409   1.972
40800W        W13060  18.196   7.616   4.130
40801W        W13061  42.527  29.231  13.392
40802W        W13062  20.134   9.424   0.396
40803W        W13063  39.333   3.949  11.444
40804W        W13064  44.072   6.792  14.441
40805W        W13065  26.187  18.076   3.034
40806W        W13066  34.632   4.736  13.514
40807W        W13067   0.102  34.955  11.590
40808W        W13068   8.714  29.504  14.055
40809W        W13069  40.911  14.960  12.796
40810W        W13070  28.939  32.580   1.290
40811W        W13071  29.146   8.792   4.577
40812W        W13072  42.887   7.929   2.575
40813W        W13073  28.913  25.703  13.598
40814W        W13074  39.774  11.327  12.878
40815W        W13075  43.183  30.682  14.960
40816W        W13076   3.337  40.288  11.124
40817W        W13077  43.378  25.638  11.344
40818W        W13078  36.499  13.885   2.771
40819W        W13079   7.427  22.132   3.319
40820W        W13080  19.607  36.387   2.218
40821W        W13081  37.433  42.421   4.884
40822W        W13082  10.409  10.826   3.115
40823W        W13083  38.852  34.846  14.915
40824W        W13084  13.381  39.304   1.861
40825W        W13085  22.710  25.485  10.957
40826W        W13086   8.534  36.752   2.806
40827W        W13087  10.773  23.024   1.144
40828W        W13088  24.671  14.984   1.851
40829W        W13089  36.796  26.593   3.468
40830W        W13090  11.729   5.726   1.146
40831W        W13091  27.980  31.053   0.347
40832W        W13092  42.712   1.944   1.384
40833W        W13093  26.270  31.369   3.322
40834W        W13094  15.627  24.554  10.786
40835W        W13095  10.739  25.248  14.016
40836W        W13096   4.834   3.892   0.491
40837W        W13097   0.269  14.336   4.093
40838W        W13098   2.940  44.444  14.477
40839W        W13099  35.473  26.262  13.534
40840W        W13100  42.307  41.312  12.132
40841W        W13101  43.481  12.433   3.591
40842W        W13102   6.501  18.507   4.933
40843W        W13103  26.256   8.565  10.213
40844W        W13104   7.757  14.113   2.602
40845W        W13105  23.968  20.414   5.129
40846W        W13106   5.750  31.990  11.122
40847W        W13107  42.938   7.860   4.995
40848W        W13108  17.817  19.798   4.582
40849W        W13109   7.191  30.481  12.096
40850W        W13110   1.080   3.342   3.674
40851W        W13111  21.741  36.644   2.325
40852W        W13112  22.341  28.510   4.971
40853W        W13113  30.170  29.624   5.052
40854W        W13114  25.913  31.540  11.642
40855W        W13115  10.667   6.382  13.964
40856W        W13116  34.463   4.863  11.720
40857W        W13117  16.616   4.047  14.446
40858W        W13118  36.426  41.893   4.439
40859W        W13119  30.393  19.546  12.410
40860W        W13120  39.174  33.480  11.459
40861W        W13121  26.894  23.431  13.810
40862W        W13122   8.877  42.880  13.621
40863W        W13123  21.040  28.777  11.965
40864W        W13124   5.432  26.143   4.708
40865W        W13125  26.500  26.484  14.104
40866W        W13126  41.456  18.569   2.343
40867W        W13127  17.339   1.158  11.132
40868W        W13128   0.310  40.538  12.529
40869W        W13129  12.162  35.576   3.864
40870W        W13130  40.225   7.380  11.752
40871W        W13131  40.058  17.083   3.256
40872W        W13132  18.638  29.852  12.779
40873W        W13133  44.694   3.108   2.108
40874W        W13134  15.576  27.634   2.666
40875W        W13135  22.028   0.411   0.306
40876W        W13136  18.375   1.352   2.335
40877W        W13137   4.951   8.388   4.674
40878W        W13138  14.828  43.328  12.004
40879W        W13139  41.908   6.425   0.228
40880W        W13140  13.940   9.550   4.085
40881W        W13141  10.919  43.806  11.729
40882W        W13142  19.575  21.218   0.343
40883W        W13143  23.930  19.075   9.861
40884W        W13144  40.000  25.093   2.398
40885W        W13145  11.787  28.454   3.178
40886W        W13146   4.945   2.288   4.570
40887W        W13147  42.887  44.338   4.551
40888W        W13148  34.621  26.577   4.243
40889W        W13149  22.332   6.263  12.596
40890W        W13150   1.201  34.855   2.928
40891W        W13151  14.354   5.782  11.192
40892W        W13152  11.813  25.169  11.318
40893W        W13153  27.124  27.559  10.946
40894W        W13154   8.140  31.915  12.010
40895W        W13155  33.930  28.022   4.617
40896W        W13156  10.461  17.917   2.876
40897W        W13157  38.374  41.446   0.068
40898W        W13158  31.847  27.287   3.257
40899W        W13159  23.516  26.094   3.764
40900W        W13160  10.478  38.432   3.783
40901W        W13161  33.147  11.108   3.726
40902W        W13162  42.099   6.084  11.109
40903W        W13163   2.878  23.787  13.029
40904W        W13164  14.850   2.954   0.806
40905W        W13165   4.978  27.115   1.607
40906W        W13166  18.109  35.496   1.403
40907W        W13167  40.117  10.222  10.466
40908W        W13168   9.192  21.165  13.964
40909W        W13169   7.668  43.711  10.579
40910W        W13170   9.294   3.397  12.635
40911W        W13171  13.619  42.840  12.817
40912W        W13172  40.022  33.515   2.887
40913W        W13173  10.972  38.352   3.905
40914W        W13174  12.150  29.493  13.029
40915W        W13175   0.426  38.367  11.193
40916W        W13176  23.053  33.528  10.586
40917W        W13177  32.581   4.691   1.675
40918W        W13178  15.152  40.183   0.700
40919W        W13179  17.068  11.175  13.399
40920W        W13180  40.074  30.562  10.748
40921W        W13181  20.559   0.459   1.369
40922W        W13182  17.610  29.385  14.049
40923W        W13183  10.107  25.583   0.331
40924W        W13184  22.295  39.197  13.393
40925W        W13185   1.056  37.798   2.421
40926W        W13186  44.786  20.217   5.044
40927W        W13187  17.500  36.368   2.297
40928W        W13188  39.920  11.864   0.149
40929W        W13189  24.511   1.752   0.274
40930W        W13190  19.736   2.872  13.797
40931W        W13191   6.194  41.506   1.836
40932W        W13192  31.586  41.406   4.627
40933W        W13193   2.849  42.297   0.352
40934W        W13194  42.738  10.709  13.031
40935W        W13195   9.133  35.941  11.995
40936W        W13196   8.757  43.932   4.173
40937W        W13197  23.315  40.755   1.702
40938W        W13198  38.576  41.568   1.359
40939W        W13199  28.356  32.906  13.949
40940W        W13200  21.272  16.244  11.991
40941W        W13201  39.917   5.886  10.767
40942W        W13202  22.412  42.641  13.415
40943W        W13203  34.987  32.372  11.314
40944W        W13204  33.840  19.956   3.800
40945W        W13205  27.204  36.077   3.101
40946W        W13206   2.963  20.197  11.529
40947W        W13207  29.455   0.407   2.779
40948W        W13208   7.433   5.748   2.842
40949W        W13209   1.979  42.571   0.287
40950W        W13210  22.542   1.929   4.649
40951W        W13211   4.767  40.357   2.835
40952W        W13212   0.288   3.815   0.885
40953W        W13213  38.975  34.889  10.836
40954W        W13214  37.382   3.068  13.505
40955W        W13215  17.861  16.814  14.245
40956W        W13216  17.775  23.280   3.862
40957W        W13217  22.192  39.032   3.778
40958W        W13218   9.414  34.970  12.958
40959W        W13219   8.758   8.413  10.750
40960W        W13220  27.027   9.907   3.353
40961W        W13221  17.550  21.945  11.983
40962W        W13222   8.370   4.386  12.465
40963W        W13223   2.294   8.923  14.752
40964W        W13224   6.180   5.858  11.353
40965W        W13225  14.625  36.380   4.098
40966W        W13226  35.597  35.809   2.716
40967W        W13227   7.799  20.750  13.698
40968W        W13228   3.433   3.712   4.594
40969W        W13229  32.530   5.729  10.582
40970W        W13230  19.738  36.332   1.307
40971W        W13231   3.927  17.289   2.231
40972W        W13232  12.074   3.382  13.634
40973W        W13233  35.402  22.659   1.940
40974W        W13234  32.030  19.700  13.804
40975W        W13235  30.621  36.579  11.548
40976W        W13236  14.325  23.646  12.085
40977W        W13237  36.905  34.982   3.215
40978W        W13238   2.236  16.766  10.978
40979W        W13239  14.640  17.709  11.669
40980W        W13240   5.704  44.046  10.500
40981W        W13241  25.448  33.199   3.106
40982W        W13242  26.770  27.335  12.925
40983W        W13243  29.872   1.494  11.739
40984W        W13244  41.742  13.506  11.290
40985W        W13245  11.285  20.786   3.202
40986W        W13246  18.536   9.264   1.856
40987W        W13247  37.089   1.819  12.899
40988W        W13248  18.734  13.207   4.097
40989W        W13249  23.044  28.055   4.593
40990W        W13250  10.341   1.496   2.254
40991W        W13251   2.819  27.147   4.088
40992W        W13252  21.464  26.750  14.489
40993W        W13253   1.448  10.957  12.443
40994W        W13254  31.051   8.197   0.407
40995W        W13255  35.654  16.663  12.581
40996W        W13256  40.963  24.431   3.699
40997W        W13257  19.081   9.084   5.126
40998W        W13258  20.167  31.660  11.229
40999W        W13259  11.475  27.240   2.258
41000W        W13260  23.637   2.445  13.339
41001W        W13261  19.012   9.878   4.162
41002W        W13262   4.216  34.950  10.662
41003W        W13263  34.938  15.260  14.787
41004W        W13264  19.177  36.971  12.696
41005W        W13265  30.111  30.673   2.165
41006W        W13266  20.848  31.528  10.618
41007W        W13267   5.083  11.687   5.081
41008W        W13268  12.779  34.257  12.133
41009W        W13269  42.310  37.161   2.777
41010W        W13270  30.961  42.780   2.600
41011W        W13271  44.279  21.190   3.670
41012W        W13272  36.939  33.591   4.834
41013W        W13273   6.144  26.227  13.257
41014W        W13274  13.885   4.652  11.464
41015W        W13275  26.871  26.561  13.232
41016W        W13276  29.358  22.575  13.018
41017W        W13277  37.038  31.589  13.890
41018W        W13278  25.015  27.310  12.375
41019W        W13279  24.160  29.667  12.827
41020W        W13280  16.644  26.937   2.220
41021W        W13281  10.174   9.737  11.116
41022W        W13282  34.469  17.098   4.019
41023W        W13283   9.827  29.263  11.613
41024W        W13284  38.860  17.671  10.376
41025W        W13285  44.337  22.189  11.209
41026W        W13286  16.748  15.598   0.777
41027W        W13287  40.716  34.023   3.964
41028W        W13288   3.452  30.553   2.500
41029W        W13289  14.774   3.197   1.316
41030W        W13290  29.714   0.543  11.516
41031W        W13291  40.250  20.078   0.404
41032W        W13292  13.746  30.788  14.025
41033W        W13293  37.006  33.487  10.706
41034W        W13294  42.754   4.211  12.972
41035W        W13295   9.174  29.961   3.232
41036W        W13296  28.433   0.537   0.445
41037W        W13297  42.979  23.224   0.886
41038W        W13298  22.656  23.500   0.215
41039W        W13299  25.884  41.759  14.052
41040W        W13300   6.300   4.726  10.645
41041W        W13301  18.606  30.704   4.641
41042W        W13302  25.959   9.314  14.593
41043W        W13303  21.382   2.331   3.577
41044W        W13304  32.346  34.292  14.392
41045W        W13305   8.361   6.095   4.160
41046W        W13306  11.304   6.888  12.848
41047W        W13307   0.584  23.261  12.332
41048W        W13308  14.183  15.168   0.531
41049W        W13309  12.525  27.696   0.351
41050W        W13310  44.207  30.932  14.890
41051W        W13311  13.331   1.108   1.792
41052W        W13312   1.476  28.470  11.163
41053W        W13313  33.787  34.967   3.235
41054W        W13314  32.388  18.701  13.609
41055W        W13315  37.366  10.664   3.387
41056W        W13316  33.141  39.017  13.330
41057W        W13317  27.061  29.969  14.299
41058W        W13318  37.707  13.000   1.430
41059W        W13319   5.458  30.888   3.910
41060W        W13320  33.958  24.304   2.314
41061W        W13321  39.739  31.174   0.584
41062W        W13322  20.353  10.762  11.885
41063W        W13323   4.959  38.326  12.456
41064W        W13324  36.837   5.211   0.489
41065W        W13325  40.849  18.664   3.147
41066W        W13326  11.932   4.087   2.656
41067W        W13327  22.478  43.956  14.292
41068W        W13328   5.722   2.216  11.585
41069W        W13329  22.304  22.170  10.378
41070W        W13330  20.841   3.921   2.676
41071W        W13331   9.135  17.506  13.992
41072W        W13332  44.200  39.949  10.022
41073W        W13333  14.304  19.752  10.176
41074W        W13334  42.523  17.177  11.546
41075W        W13335   2.462  11.164  12.870
41076W        W13336  27.144  43.307  13.922
41077W        W13337  19.743  24.924  14.638
41078W        W13338  17.247  21.731  13.929
41079W        W13339  23.497  11.789   2.616
41080W        W13340  19.756  29.164   0.818
41081W        W13341  13.944  19.801   0.804
41082W        W13342  34.940  38.920  13.526
41083W        W13343  44.743  40.575   0.948
41084W        W13344  25.692  44.402   1.288
41085W        W13345  13.438  15.349  12.050
41086W        W13346  24.084  18.822   3.747
41087W        W13347  10.622   2.936  12.951
41088W        W13348  32.565  12.578   2.624
41089W        W13349  21.502  10.753  12.575
41090W        W13350  39.973   8.529   0.400
41091W        W13351  22.583  24.029  12.404
41092W        W13352  26.019   5.377  10.647
41093W        W13353  12.430  19.521  14.901
41094W        W13354  33.527  33.402   1.353
41095W        W13355  21.741  43.269   2.703
41096W        W13356  12.147  26.458  13.784
41097W        W13357  29.040  11.254   2.697
41098W        W13358   1.513   3.606   3.732
41099W        W13359  17.080  12.154   4.864
41100W        W13360  40.755  11.948  11.132
41101W        W13361  16.108  39.751   3.521
41102W        W13362  18.014   8.263   2.416
41103W        W13363  37.907   1.855   4.612
41104W        W13364   9.430  42.846   2.638
41105W        W13365  27.005  14.319  10.942
41106W        W13366  41.464  17.996   1.434
41107W        W13367  36.282  27.082  13.232
41108W        W13368   6.778  26.426  14.462
41109W        W13369  41.196   2.460   2.344
41110W        W13370  22.064  18.193   4.535
41111W        W13371  37.501  38.626  13.568
41112W        W13372  19.668  36.246  12.031
41113W        W13373  40.019   7.026   1.000
41114W        W13374  25.829   6.013  12.987
41115W        W13375   1.905   7.659  14.990
41116W        W13376  13.689  30.497   5.466
41117W        W13377  33.606  18.470  14.373
41118W        W13378  38.495  22.981   3.232
41119W        W13379   9.755  34.119   0.894
41120W        W13380  31.815  15.369  12.797
41121W        W13381  26.260  17.394  11.172
41122W        W13382  18.147  27.024  10.947
41123W        W13383  42.509  42.432  14.443
41124W        W13384  21.943   0.754   2.893
41125W        W13385   8.489   8.724   2.127
41126W        W13386  20.984   1.019   1.873
41127W        W13387  24.953   6.406  13.041
41128W        W13388  10.716  22.966   0.115
41129W        W13389   6.447  10.735   1.346
41130W        W13390  44.887  32.651   3.193
41131W        W13391  40.927   6.800  13.888
41132W        W13392  15.624  42.340   0.283
41133W        W13393  39.176  19.729  10.598
41134W        W13394   5.440  17.709   0.804
41135W        W13395  27.161   3.807  11.153
41136W        W13396   8.858  14.143   2.157
41137W        W13397  37.888  24.317   2.218
41138W        W13398  34.039   2.904  10.677
41139W        W13399  35.332  20.619  12.169
41140W        W13400  26.335  25.727  12.354
41141W        W13401  31.433  19.144   3.405
41142W        W13402  32.657  21.128   1.087
41143W        W13403  17.089  11.177   1.959
41144W        W13404  39.358  44.633  13.898
41145W        W13405  43.478   5.035  14.419
41146W        W13406  40.044  35.413   0.163
41147W        W13407  26.711  39.503   0.016
41148W        W13408  14.412  19.515  10.633
41149W        W13409   5.392  32.204  13.474
41150W        W13410   4.203  35.112  14.846
41151W        W13411  21.322  10.758   0.520
41152W        W13412  34.965  22.155  14.066
41153W        W13413  10.308  16.221   4.593
41154W        W13414  31.596   5.300   4.891
41155W        W13415  12.736  35.539  12.764
41156W        W13416   5.192  25.657   0.468
41157W        W13417  17.737  12.354   0.713
41158W        W13418   3.012   3.191  12.534
41159W        W13419   2.768  35.819   2.841
41160W        W13420  17.937   7.885   2.085
41161W        W13421   9.358   2.959   1.339
41162W        W13422  43.703  15.067  14.918
41163W        W13423  33.562   5.279  14.329
41164W        W13424   5.967  12.800   1.426
41165W        W13425  10.898  44.970  11.467
41166W        W13426  12.145  34.657   0.275
41167W        W13427   7.730  10.581  13.330
41168W        W13428  28.464  38.984  11.061
41169W        W13429   2.752  39.681   0.922
41170W        W13430   9.406   8.080  13.431
41171W        W13431  30.618  25.191  11.204
41172W        W13432  10.862  27.016  10.611
41173W        W13433  34.556  28.633  12.088
41174W        W13434  28.981  24.652  10.746
41175W        W13435  12.410  18.532   2.202
41176W        W13436  40.030  32.039   1.819
41177W        W13437  24.675  14.538  11.597
41178W        W13438   2.463  43.756  14.805
41179W        W13439   5.106  10.163   3.663
41180W        W13440  36.206  27.935   1.558
41181W        W13441  38.982  28.539   3.917
41182W        W13442   9.147  24.703  10.764
41183W        W13443  21.301  25.830   5.392
41184W        W13444  33.601  33.102   3.076
41185W        W13445   1.869  30.092   0.027
41186W        W13446  32.407  41.988   1.725
41187W        W13447  41.633  26.803   1.069
41188W        W13448  32.415  21.069   0.607
41189W        W13449  39.006   4.520  10.744
41190W        W13450   9.778   4.421   2.830
41191W        W13451  42.654   0.309  12.833
41192W        W13452  32.639   2.791   3.559
41193W        W13453   7.831  13.249   0.488
41194W        W13454  15.051  32.274  13.403
41195W        W13455  14.110   8.270   0.337
41196W        W13456  39.979   1.422   0.878
41197W        W13457  10.870  44.466  13.342
41198W        W13458  16.774   9.589   1.896
41199W        W13459   8.704  17.492   4.554
41200W        W13460  27.464   2.033   3.344
41201W        W13461  10.298   9.899   1.760
41202W        W13462  10.229  27.181  13.272
41203W        W13463  14.904  27.057   2.710
41204W        W13464  27.394  11.000  13.317
41205W        W13465  18.255  25.526   4.757
41206W        W13466  31.186  31.208   4.190
41207W        W13467  19.031  41.882   2.818
41208W        W13468  42.857   4.198   1.542
41209W        W13469   5.525  28.588  14.486
41210W        W13470  15.716   8.645  14.850
41211W        W13471  38.316   1.493  14.976
41212W        W13472  44.871  34.596   2.306
41213W        W13473  35.114  23.063  14.358
41214W        W13474   1.836  20.063  12.422
41215W        W13475  17.732  34.669   3.776
41216W        W13476  11.605  34.599  14.352
41217W        W13477  32.112   7.144  12.705
41218W        W13478  43.224  15.896  11.456
41219W        W13479  11.006   8.874   4.541
41220W        W13480  30.075  13.345  14.924
41221W        W13481  41.801  18.621  10.547
41222W        W13482  31.404  37.501   3.793
41223W        W13483  44.056  26.596  13.881
41224W        W13484   2.060  27.149   3.159
41225W        W13485  11.649   3.806  12.038
41226W        W13486  41.574  41.338  12.945
41227W        W13487  34.006  11.398  13.377
41228W        W13488  12.559  21.078  11.652
41229W        W13489  35.025  38.076   1.327
41230W        W13490  13.669  28.732   0.116
41231W        W13491  22.986  20.777  12.504
41232W        W13492  15.048  15.261   3.836
41233W        W13493  28.052  38.153  14.344
41234W        W13494  27.971  27.083   3.378
41235W        W13495   7.473  14.282   3.393
41236W        W13496  23.127   4.482  12.980
41237W        W13497  38.988  31.513   2.768
41238W        W13498  35.913   9.927  11.035
41239W        W13499   4.077  22.663  14.646
41240W        W13500  15.278  40.276  13.660
41241W        W13501   1.314  31.382  13.893
41242W        W13502  12.787  17.658   3.698
41243W        W13503  23.622  29.816  10.603
41244W        W13504  10.263  35.611   5.049
41245W        W13505  25.171  15.717   3.429
41246W        W13506  13.388  33.493  14.773
41247W        W13507   3.979  42.072  12.078
41248W        W13508  43.223  33.701  10.837
41249W        W13509  15.809  26.027  13.760
41250W        W13510  32.929  15.546  12.104
41251W        W13511  38.116  33.917  12.152
41252W        W13512   8.060   2.149   0.743
41253W        W13513   8.389  34.404   3.804
41254W        W13514  21.111   8.753  10.266
41255W        W13515   3.940  39.494   0.535
41256W        W13516  39.141  30.132  11.137
41257W        W13517  43.888   9.608  14.075
41258W        W13518  42.931  43.253   1.955
41259W        W13519  30.467  33.119   2.747
41260W        W13520  16.291   6.237  11.566
41261W        W13521  21.259  32.392   1.218
41262W        W13522   9.096  21.654  14.113
41263W        W13523   3.320   2.482   0.011
41264W        W13524  37.428  43.090   4.550
41265W        W13525  37.632  13.265   4.564
41266W        W13526   7.105  43.364  14.459
41267W        W13527  24.543  16.633  10.665
41268W        W13528  39.978  16.806   4.651
41269W        W13529  35.297  26.879  14.498
41270W        W13530  12.312  34.592   2.232
41271W        W13531   4.171  13.361  13.135
41272W        W13532   4.399  39.188  10.633
41273W        W13533  32.473   1.964   1.263
41274W        W13534  43.229  20.754  10.198
41275W        W13535  26.051  10.169   3.766
41276W        W13536  14.385  19.085  11.973
41277W        W13537  29.134  28.394  14.975
41278W        W13538  32.332   6.834  11.122
41279W        W13539  16.736  40.527  11.110
41280W        W13540   8.964  32.159   1.968
41281W        W13541  31.905   0.785   4.736
41282W        W13542  26.596  24.744   2.379
41283W        W13543  29.472   1.266  11.980
41284W        W13544  21.633  11.482  11.080
41285W        W13545   3.235  14.802   1.611
41286W        W13546  40.729  43.044  14.287
41287W        W13547   3.837  44.711  12.886
41288W        W13548  20.190  23.082   1.920
41289W        W13549   1.861  23.461  11.956
41290W        W13550  14.002  12.691   4.538
41291W        W13551  35.129  34.620  12.434
41292W        W13552  14.093  29.653   1.730
41293W        W13553   8.839  12.814  12.031
41294W        W13554  15.821  39.842  10.733
41295W        W13555  41.753  32.951  13.065
41296W        W13556   6.781  38.880  10.617
41297W        W13557  13.267  37.077   3.213
41298W        W13558  38.172  37.540   4.548
41299W        W13559  35.055  24.275   4.496
41300W        W13560   8.217  30.920   4.888
41301W        W13561   9.389  31.675  13.446
41302W        W13562  28.144  44.601   0.439
41303W        W13563  21.179  17.110   1.223
41304W        W13564  27.691  33.394   0.060
41305W        W13565  44.004  16.659  12.515
41306W        W13566   7.387   4.216  11.532
41307W        W13567  27.908  34.123  14.390
41308W        W13568  23.812  40.613   1.796
41309W        W13569  28.482  14.945   2.608
41310W        W13570  13.364  21.222  13.513
41311W        W13571   8.219  39.764   1.134
41312W        W13572  24.508  26.218  11.076
41313W        W13573  37.592  17.827  11.114
41314W        W13574  19.650   4.667  14.033
41315W        W13575  36.856   3.289   2.823
41316W        W13576  35.162  37.130  12.518
41317W        W13577   7.351  11.075   2.799
41318W        W13578  21.014   1.199   4.085
41319W        W13579  16.608  44.840   1.324
41320W        W13580  12.335  23.272   0.721
41321W        W13581  30.925  26.391  11.503
41322W        W13582  17.830  31.889   4.747
41323W        W13583  24.232  11.695   3.252
41324W        W13584  40.315   5.322  12.588
41325W        W13585   6.595  37.577  10.998
41326W        W13586  36.087   5.253   1.876
41327W        W13587  13.073  31.897   4.587
41328W        W13588  12.325  44.387   2.319
41329W        W13589   5.913  29.546  13.976
41330W        W13590  39.559  29.418  12.633
41331W        W13591  35.288  34.392   0.813
41332W        W13592  28.937  43.266  14.947
41333W        W13593   6.621   7.680   2.758
41334W        W13594   4.675  39.417   2.022
41335W        W13595   0.770  31.643  13.029
41336W        W13596  31.617   3.442   2.742
41337W        W13597  34.880  11.847  12.748
41338W        W13598  32.067  23.242   4.592
41339W        W13599  38.557   1.712  14.452
41340W        W13600  35.017  27.998  12.546
41341W        W13601  36.588  36.207  11.534
41342W        W13602  38.023  32.636  11.075
41343W        W13603  34.969  16.764  11.078
41344W        W13604  10.889   8.065   4.575
41345W        W13605  40.527  35.171   4.139
41346W        W13606  33.753  34.861   0.082
41347W        W13607  44.011  32.129  13.489
41348W        W13608  23.801   8.051   2.803
41349W        W13609  10.080   9.384  11.459
41350W        W13610  43.569  11.098   3.604
41351W        W13611  15.711  22.264  10.587
41352W        W13612  21.434  40.040   1.207
41353W        W13613  22.500  17.746   3.757
41354W        W13614  44.242  15.689   2.829
41355W        W13615   6.727  24.957  12.488
41356W        W13616  28.429  28.493   3.106
41357W        W13617  33.116  27.233  11.576
41358W        W13618  15.684  32.574   2.722
41359W        W13619   8.108  31.315  12.578
41360W        W13620  24.211   6.443  13.425
41361W        W13621  32.623   1.541  12.894
41362W        W13622  18.261  19.129   2.192
41363W        W13623  23.068   7.297  10.969
41364W        W13624  17.001  10.228  14.793
41365W        W13625  23.558  29.072   4.078
41366W        W13626  27.422  25.962  13.250
41367W        W13627  43.000  42.532  14.324
41368W        W13628  27.914  10.378   0.354
41369W        W13629   7.934  35.387  13.025
41370W        W13630  36.006  11.103  12.923
41371W        W13631   8.686  15.848   1.381
41372W        W13632  15.676  34.707  14.922
41373W        W13633  37.079   5.237  14.030
41374W        W13634  33.608  11.151  10.082
41375W        W13635  38.474  21.790   2.433
41376W        W13636  17.794  10.115   3.645
41377W        W13637  32.087  19.098   2.014
41378W        W13638  36.464   2.433  12.022
41379W        W13639  20.597  31.323  12.014
41380W        W13640  39.911   9.089  12.999
41381W        W13641  27.395   7.030   3.580
41382W        W13642  26.656   3.518   1.264
41383W        W13643  24.008  44.932   2.002
41384W        W13644   6.343  38.338  11.250
41385W        W13645  37.335  40.056   4.294
41386W        W13646  19.745  43.415  10.471
41387W        W13647  32.003   0.740  12.914
41388W        W13648   3.777  14.835   1.908
41389W        W13649  13.329   8.741   0.241
41390W        W13650  36.852  23.259  12.511
41391W        W13651  31.477  29.647   3.745
41392W        W13652   6.444  33.264   2.667
41393W        W13653  16.628   8.373   2.284
41394W        W13654   6.617  23.529   1.424
41395W        W13655  12.705  22.302  14.826
41396W        W13656  31.529  37.143  13.983
41397W        W13657  29.214  32.399   9.883
41398W        W13658   0.664  40.067   0.844
41399W        W13659  18.821  36.564  11.049
41400W        W13660  30.079  38.409   0.081
41401W        W13661  26.957  19.209   4.394
41402W        W13662  21.833   6.424   0.910
41403W        W13663  19.909   6.350   9.944
41404W        W13664   3.817  12.841   3.601
41405W        W13665   8.145  18.000   2.397
41406W        W13666  23.262  20.174   3.259
41407W        W13667  37.433  28.474  11.230
41408W        W13668   6.311  34.118   5.140
41409W        W13669  31.317   9.732   0.434
41410W        W13670  14.128  26.946  13.935
41411W        W13671  17.139  25.958   2.231
41412W        W13672  28.211  31.553  11.884
41413W        W13673  27.730  14.097   2.314
41414W        W13674  25.478  14.116   4.073
41415W        W13675  38.525  10.303  14.846
41416W        W13676  18.349  27.447   4.063
41417W        W13677  24.639  44.529   1.486
41418W        W13678   9.752  14.666   3.292
41419W        W13679  24.585   8.580   2.808
41420W        W13680   0.444  18.665  14.710
41421W        W13681   3.051  28.588  12.905
41422W        W13682  21.178  20.124  12.544
41423W        W13683   5.424  30.900   0.820
41424W        W13684  36.481   6.498  12.090
41425W        W13685  17.497  21.672  11.396
41426W        W13686  35.116   8.880   4.741
41427W        W13687   2.366   0.368  10.590
41428W        W13688  36.558  16.555   3.649
41429W        W13689  20.603   2.627   1.639
41430W        W13690  44.202  34.589  14.856
41431W        W13691  44.554  40.474   3.133
41432W        W13692  16.212  39.718   1.464
41433W        W13693  12.292  44.461  11.942
41434W        W13694  29.435  31.686   9.829
41435W        W13695  28.418  40.422   0.388
41436W        W13696   3.712  25.713   4.328
41437W        W13697  14.179  20.535   3.831
41438W        W13698  32.134  27.517  13.271
41439W        W13699   4.365  24.029   0.497
41440W        W13700  11.114   0.939   4.392
41441W        W13701   4.741  22.482   2.248
41442W        W13702   4.887  36.148   4.089
41443W        W13703  42.467  20.394  13.323
41444W        W13704  20.850  43.333  11.914
41445W        W13705  33.147  35.346  14.623
41446W        W13706  13.101  15.610   0.512
41447W        W13707  39.128  40.680  12.041
41448W        W13708  16.362  34.849   2.241
41449W        W13709  27.163   3.385   3.709
41450W        W13710   2.433  39.106  12.904
41451W        W13711  25.589  17.037   1.413
41452W        W13712  43.563  16.649  14.413
41453W        W13713  42.118  10.129   0.468
41454W        W13714  21.762  27.828   4.304
41455W        W13715  22.266  31.472   2.205
41456W        W13716  33.899  13.675  10.684
41457W        W13717  36.474  37.689   5.044
41458W        W13718  44.226  31.446  11.967
41459W        W13719   2.248  42.995   0.428
41460W        W13720  30.874   0.231   2.853
41461W        W13721   1.335  11.605   3.428
41462W        W13722  12.790  42.795  10.869
41463W        W13723  39.997  29.537   1.341
41464W        W13724   9.966  42.675   2.774
41465W        W13725  42.827   3.825   2.257
41466W        W13726   1.860   1.231  13.536
41467W        W13727  36.369   5.819   3.580
41468W        W13728  16.579   3.439   3.308
41469W        W13729  30.743  27.000  12.418
41470W        W13730  24.157  14.745   0.028
41471W        W13731   9.202  14.107   1.293
41472W        W13732   3.536  39.357   0.829
41473W        W13733   0.211  31.901   1.765
41474W        W13734  26.287  32.428  11.604
41475W        W13735  31.227  17.706   4.833
41476W        W13736   8.286  17.525  14.253
41477W        W13737  15.268  11.553  13.391
41478W        W13738  19.094  26.502  12.104
41479W        W13739  12.695  17.019   5.017
41480W        W13740  28.874  43.014  13.437
41481W        W13741  30.974  32.869   2.109
41482W        W13742   8.800  40.438   4.156
41483W        W13743  36.534  36.168   0.397
41484W        W13744   1.833  36.261  13.805
41485W        W13745  15.659   5.861  10.667
41486W        W13746   1.906  14.351   2.166
41487W        W13747  13.177  28.101   3.594
41488W        W13748   9.825  26.116   2.303
41489W        W13749  20.785  41.862   2.228
41490W        W13750   1.893  42.759   0.802
41491W        W13751  26.081   7.338   3.482
41492W        W13752  36.980  28.647   0.749
41493W        W13753  26.371  24.025   1.773
41494W        W13754  43.817  13.529  12.032
41495W        W13755  22.337  19.089  12.695
41496W        W13756  40.157   7.352  13.042
41497W        W13757  16.384  38.295   3.767
41498W        W13758   3.883  28.056  11.757
41499W        W13759  26.169  13.608  11.199
41500W        W13760  39.130  21.273   2.780
41501W        W13761  42.270  19.460   2.945
41502W        W13762  18.608  26.536  13.387
41503W        W13763  43.943  28.121  11.528
41504W        W13764   4.728  40.791  13.527
41505W        W13765  43.444  27.716   1.693
41506W        W13766   5.235   7.802  14.731
41507W        W13767  15.455   3.247   5.049
41508W        W13768   5.714  38.533   3.272
41509W        W13769   6.463  25.699   3.273
41510W        W13770  16.333  31.569  12.992
41511W        W13771  39.291   6.386  10.541
41512W        W13772  27.518  22.432  12.997
41513W        W13773  21.467   2.703   2.301
41514W        W13774  10.941  27.654   0.633
41515W        W13775  20.355   3.895  11.162
41516W        W13776  40.077  12.553  10.615
41517W        W13777   7.414  44.225   4.228
41518W        W13778  31.508  44.100   1.422
41519W        W13779  16.674  22.689  14.613
41520W        W13780  41.392  18.333   0.514
41521W        W13781  28.920   7.689   2.266
41522W        W13782  21.529  27.494  10.571
41523W        W13783  19.135  16.111  13.407
41524W        W13784   7.618   8.441   1.327
41525W        W13785  26.419   8.131   1.257
41526W        W13786  20.507   4.289  14.973
41527W        W13787  40.842  26.632   4.524
41528W        W13788  21.233  37.247   0.821
41529W        W13789  20.953   3.484   4.580
41530W        W13790  24.872  34.534  13.999
41531W        W13791  10.684  16.671  14.307
41532W        W13792   6.201  32.071   0.840
41533W        W13793  21.934   8.286  14.836
41534W        W13794  38.020  41.350   4.059
41535W        W13795  41.822  42.099   2.819
41536W        W13796  38.510  10.967  11.179
41537W        W13797  13.815  27.221  10.728
41538W        W13798   4.251  18.525   0.650
41539W        W13799  26.541   5.812   1.396
41540W        W13800  18.961  12.665   0.913
41541W        W13801   2.678  14.418   3.794
41542W        W13802  39.794   3.399  10.432
41543W        W13803  34.923  40.174   3.261
41544W        W13804  42.262  28.016  14.210
41545W        W13805  34.709  44.407  14.426
41546W        W13806  15.194  10.700  13.900
41547W        W13807  26.755   6.758  14.943
41548W        W13808  15.282  24.538  12.893
41549W        W13809  25.121  22.708   0.902
41550W        W13810  35.116  14.552   4.474
41551W        W13811  27.028  30.180   2.227
41552W        W13812  30.962  35.965  10.393
41553W        W13813  13.834  22.606   4.815
41554W        W13814  43.948  11.310   1.776
41555W        W13815  40.877  33.521  11.882
41556W        W13816  43.038  23.724   1.043
41557W        W13817  18.357  35.936   3.625
41558W        W13818  36.756  22.666  12.102
41559W        W13819   5.017  35.518   2.801
41560W        W13820   4.779  44.389  11.971
41561W        W13821   6.986  41.393  13.267
41562W        W13822  38.981  14.829  12.546
41563W        W13823  24.889  17.684   1.707
41564W        W13824  29.238   8.489   2.042
41565W        W13825   4.929   9.642  14.825
41566W        W13826   1.754  30.628   1.697
41567W        W13827  30.499  30.006  13.808
41568W        W13828  13.164  43.424  10.623
41569W        W13829   3.319  44.698  13.338
41570W        W13830  16.634  23.271  13.617
41571W        W13831   3.240  39.676   3.229
41572W        W13832   9.826  40.903  11.774
41573W        W13833  32.380  27.685  14.995
41574W        W13834  31.834  13.635   2.502
41575W        W13835  19.447   7.668  14.690
41576W        W13836  25.111  41.941  12.134
41577W        W13837  28.017  40.425   5.078
41578W        W13838  10.412  21.977   2.871
41579W        W13839   8.557  13.292   4.986
41580W        W13840  44.412  43.230  12.463
41581W        W13841   3.741  39.150   4.633
41582W        W13842  17.840  38.597   2.795
41583W        W13843  29.017  23.828  12.459
41584W        W13844  10.616  12.083  11.190
41585W        W13845  30.736  28.389  11.672
41586W        W13846  22.031   5.315  13.736
41587W        W13847  17.620  37.511  14.692
41588W        W13848  12.627  30.919   2.702
41589W        W13849   1.954  24.447   4.845
41590W        W13850   5.532  38.057   1.444
41591W        W13851  28.236  18.870   4.079
41592W        W13852  21.221  15.149   4.478
41593W        W13853  18.687  22.992  14.416
41594W        W13854  35.595  37.237   4.330
41595W        W13855  10.511  16.544  11.944
41596W        W13856  29.685  36.135  11.543
41597W        W13857  38.977  41.411  14.535
41598W        W13858  34.104  24.641   4.216
41599W        W13859  41.261  19.219   1.705
41600W        W13860  37.354   4.698   9.967
41601W        W13861  18.382  33.113   3.336
41602W        W13862  36.256  39.021   3.226
41603W        W13863  36.571   7.344   2.292
41604W        W13864  20.829  41.476   4.760
41605W        W13865   2.305   5.124  14.566
41606W        W13866   0.286  24.541   1.954
41607W        W13867  34.639  24.197  11.592
41608W        W13868  20.164  19.020   0.279
41609W        W13869  30.071  28.675   3.276
41610W        W13870  29.178  34.033  10.917
41611W        W13871  41.925  19.881   3.134
41612W        W13872  29.732  32.306  13.237
41613W        W13873  22.134  30.464   1.335
41614W        W13874   6.747  26.545   4.714
41615W        W13875   9.117  35.894   1.277
41616W        W13876  38.100  18.071  14.207
41617W        W13877  12.224   5.817   2.892
41618W        W13878  19.494   7.204   2.737
41619W        W13879  42.435   0.439  10.785
41620W        W13880  22.552  29.479   4.950
41621W        W13881  23.453  38.479  13.324
41622W        W13882  29.407  34.926   2.403
41623W        W13883  30.058  15.160  10.670
41624W        W13884  22.795  37.433   1.818
41625W        W13885   8.364  25.990   5.353
41626W        W13886   6.329  12.664   4.571
41627W        W13887  30.970  36.074   5.038
41628W        W13888   4.553  26.480   2.295
41629W        W13889  29.699  34.464  12.465
41630W        W13890  26.570  44.965  10.448
41631W        W13891  23.193  26.238  12.956
41632W        W13892  13.063  27.666  14.136
41633W        W13893  25.509   0.303  12.911
41634W        W13894   6.719  29.717   4.174
41635W        W13895   8.979  37.577  13.365
41636W        W13896  23.673   6.878  13.500
41637W        W13897   8.378   2.504   3.293
41638W        W13898  33.443  39.070   4.699
41639W        W13899  39.400  41.293   4.473
41640W        W13900   5.608  14.184  12.228
41641W        W13901  25.544  31.558   4.104
41642W        W13902  36.871   5.312  14.983
41643W        W13903  44.154  36.387  10.121
41644W        W13904  17.555  42.946  11.527
41645W        W13905   0.156   8.530   5.016
41646W        W13906  22.699  31.649   0.412
41647W        W13907  14.645  25.011   0.275
41648W        W13908  28.206  37.705   2.923
41649W        W13909  15.534  16.842  11.009
41650W        W13910  30.030  15.328  14.351
41651W        W13911  10.768  12.083   1.669
41652W        W13912  31.930  29.026  11.560
41653W        W13913  40.496  34.736   4.422
41654W        W13914   4.740  31.442  14.437
41655W        W13915  26.675  31.698   1.854
41656W        W13916  15.766  40.015   3.820
41657W        W13917  25.038  21.984   3.214
41658W        W13918  19.071  22.992  13.461
41659W        W13919   7.828  36.322  11.157
41660W        W13920  13.778   7.712   2.486
41661W        W13921  11.132  26.873   0.875
41662W        W13922  19.190  29.568  14.968
41663W        W13923   2.036  41.082   1.438
41664W        W13924  13.116  22.066  13.338
41665W        W13925  28.661  44.431  13.487
41666W        W13926  27.595  35.804   0.532
41667W        W13927   3.259  31.841   4.610
41668W        W13928   0.987   6.673   3.702
41669W        W13929  33.745   3.396  13.234
41670W        W13930  33.892  13.108   4.347
41671W        W13931  23.632  11.844   0.408
41672W        W13932  36.953  40.661  12.594
41673W        W13933   2.097  29.880   0.989
41674W        W13934   4.732  24.476   0.956
41675W        W13935  37.445  26.618   4.261
41676W        W13936  13.297  43.865   0.662
41677W        W13937  34.501  20.098   1.144
41678W        W13938  34.130  23.428  12.002
41679W        W13939  16.397  23.673  14.880
41680W        W13940  16.291  18.617   4.598
41681W        W13941  12.163  17.084  14.018
41682W        W13942  30.236  20.964  13.997
41683W        W13943   3.776   7.671   4.533
41684W        W13944  40.901  26.367   0.790
41685W        W13945  35.966  16.219  12.426
41686W        W13946  22.107  16.821   0.423
41687W        W13947   6.438  16.854  12.977
41688W        W13948   5.995  18.148  12.824
41689W        W13949  34.499  16.648  11.988
41690W        W13950  23.720  30.392  13.031
41691W        W13951  16.117   2.049   0.108
41692W        W13952  16.404  20.139   1.926
41693W        W13953   1.702   1.921  12.297
41694W        W13954  40.486  36.103   2.830
41695W        W13955  35.463   9.307  10.706
41696W        W13956  33.530  25.077  10.546
41697W        W13957  14.744  23.163  13.774
41698W        W13958  24.512  35.760  12.502
41699W        W13959  15.550  25.045   0.223
41700W        W13960  33.511  14.694   4.670
41701W        W13961  24.083  44.254   4.229
41702W        W13962  15.882  10.670  13.555
41703W        W13963  27.690   9.728   1.786
41704W        W13964   7.782   3.004   1.244
41705W        W13965   8.194  44.955   2.661
41706W        W13966  41.821  34.178   4.097
41707W        W13967  13.221  41.594   2.441
41708W        W13968  13.779  19.328   0.946
41709W        W13969  35.518  31.193   4.237
41710W        W13970  24.806  43.983   2.357
41711W        W13971  44.167  44.459   5.044
41712W        W13972   6.788  42.062   0.759
41713W        W13973  13.737  39.692  12.966
41714W        W13974  19.695  44.383  10.811
41715W        W13975  18.536  19.183   2.675
41716W        W13976  13.972  12.733  14.216
41717W        W13977  17.755  31.382   2.084
41718W        W13978  30.057  25.305  14.561
41719W        W13979   8.881  12.155   4.239
41720W        W13980  32.595  18.066   4.188
41721W        W13981   3.411  26.215   3.133
41722W        W13982  25.334   5.167   2.429
41723W        W13983  16.655  32.613   2.913
41724W        W13984  36.161  27.214   2.270
41725W        W13985  34.844   0.270  14.465
41726W        W13986   8.597   1.519  13.536
41727W        W13987   4.794  10.810  11.189
41728W        W13988  43.202  15.696   3.736
41729W        W13989  39.349  39.325  14.533
41730W        W13990  41.058  38.579  14.933
41731W        W13991  16.124   4.918   0.580
41732W        W13992   6.613   8.710   2.623
41733W        W13993  16.763  20.793  11.556
41734W        W13994  23.225  25.892  11.033
41735W        W13995  34.431  27.118  13.080
41736W        W13996  16.003   1.542   1.686
41737W        W13997  33.128  26.179  11.214
41738W        W13998   1.661   3.654  12.118
41739W        W13999   9.745  11.060  13.716
41740W        W14000  16.730   0.437   4.591
41741W        W14001  42.921  13.840  10.543
41742W        W14002  31.643  24.987  14.936
41743W        W14003  12.538  33.302   4.870
41744W        W14004  33.035  19.118   4.673
41745W        W14005   9.868  28.750  11.555
41746W        W14006  19.539  19.322   4.777
41747W        W14007  35.178   7.831  14.110
41748W        W14008  19.293  40.911  11.791
41749W        W14009  20.070  25.227   3.736
41750W        W14010  34.905  14.828  11.258
41751W        W14011   1.023  28.870  14.360
41752W        W14012   8.705  18.253   4.109
41753W        W14013   5.770  39.620   3.315
41754W        W14014  36.912  16.871   0.823
41755W        W14015   4.645  32.066  13.079
41756W        W14016  44.062   8.698   1.485
41757W        W14017  13.235  38.133  13.260
41758W        W14018  20.227  17.080  13.929
41759W        W14019   8.466  16.765   2.334
41760W        W14020  14.908  41.476  11.602
41761W        W14021  10.315  36.588  14.398
41762W        W14022  34.480  39.501   0.241
41763W        W14023  33.327  17.827   1.005
41764W        W14024  40.581  14.745  10.669
41765W        W14025  23.127  33.391   4.204
41766W        W14026  13.568  34.304  12.205
41767W        W14027  25.900  21.629  12.977
41768W        W14028  21.706  25.691  11.932
41769W        W14029  16.149  27.446  12.109
41770W        W14030  44.327  22.755  11.076
41771W        W14031  14.324  34.924  14.943
41772W        W14032  25.987  40.749  11.532
41773W        W14033  19.569  22.476   4.704
41774W        W14034  36.297  25.261  12.886
41775W        W14035  20.725  13.190  10.920
41776W        W14036  23.728   2.543   4.680
41777W        W14037  15.559   6.884  13.511
41778W        W14038  10.733  15.217  12.715
41779W        W14039  27.077   2.199   1.326
41780W        W14040  44.632  17.197   1.588
41781W        W14041  13.268  23.649  14.892
41782W        W14042  11.328  17.145  11.024
41783W        W14043  12.277  20.425  13.890
41784W        W14044  33.114  21.828   3.858
41785W        W14045  39.949   6.415   4.558
41786W        W14046  37.316  19.709   3.630
41787W        W14047  23.581  24.206  14.483
41788W        W14048  10.876  13.187  12.153
41789W        W14049  16.747  35.459   0.298
41790W        W14050  31.282   4.258  13.027
41791W        W14051   8.339  13.370   2.286
41792W        W14052   7.230  31.830   3.667
41793W        W14053  26.510  42.014  13.312
41794W        W14054   7.542  21.118  11.505
41795W        W14055   3.755   4.198  12.678
41796W        W14056  31.971   5.899  13.984
41797W        W14057  31.610   2.428   1.420
41798W        W14058  21.278   5.448  14.263
41799W        W14059  36.571   3.393   1.376
41800W        W14060  26.137   4.023  12.049
41801W        W14061  18.374  38.456  11.420
41802W        W14062   8.082  40.806  13.911
41803W        W14063  39.346  33.663   1.365
41804W        W14064  26.022  17.053  11.558
41805W        W14065   1.727   9.658   1.915
41806W        W14066  11.913  37.629   4.958
41807W        W14067  19.051   4.535  11.528
41808W        W14068  22.186   7.508  11.486
41809W        W14069  16.763   3.451  12.067
41810W        W14070   6.416  28.423   5.155
41811W        W14071  23.783   0.487  14.396
41812W        W14072  26.176  38.107   3.108
41813W        W14073  13.513  35.980  14.549
41814W        W14074  28.123  14.095  12.771
41815W        W14075   3.000   0.734   0.933
41816W        W14076  28.681  31.802   2.370
41817W        W14077  29.713   0.322  11.973
41818W        W14078  34.092  44.495  11.115
41819W        W14079  30.240  24.553   0.591
41820W        W14080  15.745   0.389   3.322
41821W        W14081  21.304  12.310   1.706
41822W        W14082   4.499  26.248   3.883
41823W        W14083  42.655   5.229  12.756
41824W        W14084  27.352  43.578  13.488
41825W        W14085   2.831  28.585  13.361
41826W        W14086  16.904   7.194  13.420
41827W        W14087  13.230  39.500  14.481
41828W        W14088  27.862  33.652   1.799
41829W        W14089  20.943  44.281   4.969
41830W        W14090  14.033  33.618   4.635
41831W        W14091  37.562  17.625   4.563
41832W        W14092  24.888  26.814  12.374
41833W        W14093  30.593   7.308   0.724
41834W        W14094   4.333  15.597   4.735
41835W        W14095  28.940  31.196  12.925
41836W        W14096  18.232  21.833   1.766
41837W        W14097  35.634  42.941  11.114
41838W        W14098   8.377  13.884   2.363
41839W        W14099  44.972  43.296   0.459
41840W        W14100  32.528  27.070  14.182
41841W        W14101  19.414   5.194  10.232
41842W        W14102  27.139  17.001   3.798
41843W        W14103  28.498  32.191  13.548
41844W        W14104  26.985   2.896   3.740
41845W        W14105  17.112  32.561  13.989
41846W        W14106  28.210  36.605  11.528
41847W        W14107  15.848  40.353   0.034
41848W        W14108  13.295  30.672   5.166
41849W        W14109  33.669   1.961  11.615
41850W        W14110   5.767  16.119  11.615
41851W        W14111   4.283  20.539   3.169
41852W        W14112  25.132   8.726   0.241
41853W        W14113  19.058  34.534   1.210
41854W        W14114  16.321   3.014   3.773
41855W        W14115  34.586  40.867   0.197
41856W        W14116  40.495  14.183  12.058
41857W        W14117  23.139  10.348   3.572
41858W        W14118  24.496  37.290   3.149
41859W        W14119  36.049  22.048   1.591
41860W        W14120  11.343   9.584  14.440
41861W        W14121  31.892  43.481  11.558
41862W        W14122   9.652   2.982   1.784
41863W        W14123  16.296  24.623   1.292
41864W        W14124  39.421  18.604   2.671
41865W        W14125  26.271   4.326  12.477
41866W        W14126  26.613  34.153   1.845
41867W        W14127  13.179  43.029  13.035
41868W        W14128  19.162  42.060  14.819
41869W        W14129   5.933  20.410   3.479
41870W        W14130  19.660   7.466   0.738
41871W        W14131  31.258  23.281  14.881
41872W        W14132  33.197  41.072   3.621
41873W        W14133   4.854  24.774   0.102
41874W        W14134   6.291  34.524   4.693
41875W        W14135  43.310   1.514  11.467
41876W        W14136  26.746  36.440  11.665
41877W        W14137  43.822   0.245   4.065
41878W        W14138  14.405   1.030  14.972
41879W        W14139  41.275  25.921   1.372
41880W        W14140  44.225  32.525  12.687
41881W        W14141  32.588   7.705   1.384
41882W        W14142  26.490  24.268   2.226
41883W        W14143  43.593  27.202  14.526
41884W        W14144  29.719  43.901   4.525
41885W        W14145  13.887  35.053   3.906
41886W        W14146  24.748  19.449   3.523
41887W        W14147  19.475  44.828   2.135
41888W        W14148  34.162  12.247  14.825
41889W        W14149  21.500  38.981   4.970
41890W        W14150   2.690  17.160  10.747
41891W        W14151   0.510   7.606  11.235
41892W        W14152  16.569  10.170   0.069
41893W        W14153  12.742  30.664   4.989
41894W        W14154  27.514  30.143   5.144
41895W        W14155  19.997  11.394  10.627
41896W        W14156  23.899   3.204   0.884
41897W        W14157  42.951  12.067   4.648
41898W        W14158  41.011  34.267   1.238
41899W        W14159   7.668  23.118   4.345
41900W        W14160  10.940  11.183  14.199
41901W        W14161  25.467   6.417  13.034
41902W        W14162   8.350  34.840   5.066
41903W        W14163   9.069  27.644   1.658
41904W        W14164  21.107  25.476  14.524
41905W        W14165  19.863  14.393   3.170
41906W        W14166   9.412  33.927   3.342
41907W        W14167  30.178  27.118   2.350
41908W        W14168  10.234  24.089  11.569
41909W        W14169   3.257   9.645  13.872
41910W        W14170  37.108   8.432   3.893
41911W        W14171  37.334  41.921  11.194
41912W        W14172  19.514  32.925  14.140
41913W        W14173  39.908   7.523  12.320
41914W        W14174  17.266  33.206   0.970
41915W        W14175  33.612  12.708   4.569
41916W        W14176  11.162  30.482   0.784
41917W        W14177  38.360  29.967   2.431
41918W        W14178   6.464  13.872  14.412
41919W        W14179  17.184  29.954   3.285
41920W        W14180  25.937   2.777  13.459
41921W        W14181  42.882   1.194   0.927
41922W        W14182  20.583   1.264   0.242
41923W        W14183  41.580  12.158  14.749
41924W        W14184  35.245  14.171   3.697
41925W        W14185   4.856  28.363   0.253
41926W        W14186  21.898  34.269   3.131
41927W        W14187  42.502  34.035   3.079
41928W        W14188   4.667  15.055   0.897
41929W        W14189  10.623  27.671  14.404
41930W        W14190  28.649   9.823   1.728
41931W        W14191  16.879  22.591  13.785
41932W        W14192  29.157   4.837  11.633
41933W        W14193   6.133  14.436  12.363
41934W        W14194  39.285  12.092   3.071
41935W        W14195  34.033  31.092  12.398
41936W        W14196  37.955  18.011   4.729
41937W        W14197  31.770   3.058   5.110
41938W        W14198  38.446  39.377   2.887
41939W        W14199  20.162  43.799   3.224
41940W        W14200  35.518  18.971  14.979
41941W        W14201   5.708   3.494   1.808
41942W        W14202   7.285  39.812  14.827
41943W        W14203  14.929  23.301   4.132
41944W        W14204   0.408  17.154   1.339
41945W        W14205  39.467  19.292  10.543
41946W        W14206   6.145  16.718   1.330
41947W        W14207  14.647  38.397  11.421
41948W        W14208  16.036  17.462   1.896
41949W        W14209  21.717  35.477   0.263
41950W        W14210  17.621  30.284  12.968
41951W        W14211  13.296  27.972   4.936
41952W        W14212  29.009  21.484  14.105
41953W        W14213  38.788  40.002  14.409
41954W        W14214  43.054  37.966  14.035
41955W        W14215  20.283  17.188   2.857
41956W        W14216  13.769  32.569   1.798
41957W        W14217   6.845  25.966  12.928
41958W        W14218  44.131  16.133   3.145
41959W        W14219  16.717  35.108   4.598
41960W        W14220  32.621  31.510   4.169
41961W        W14221  34.053  21.471  14.708
41962W        W14222  29.643   9.649   0.290
41963W        W14223  37.599   3.446  11.177
41964W        W14224   1.328  16.416   0.370
41965W        W14225   2.161  42.267  11.134
41966W        W14226   3.202  31.070   0.464
41967W        W14227  39.582  36.665  12.599
41968W        W14228   7.854  18.638  12.712
41969W        W14229  41.786  22.253  13.780
41970W        W14230   1.873  28.482  13.980
41971W        W14231  25.014  18.174   4.647
41972W        W14232  43.420  39.803   2.229
41973W        W14233  10.903  22.088   2.815
41974W        W14234  12.833  22.249  11.923
41975W        W14235  29.534  35.957   4.988
41976W        W14236  16.123  41.823   1.487
41977W        W14237  36.175  36.515  11.411
41978W        W14238  40.953  11.238   2.771
41979W        W14239  18.943  16.880  11.520
41980W        W14240  10.374  14.966  11.101
41981W        W14241  41.582   2.293  11.599
41982W        W14242  26.666   0.479   1.455
41983W        W14243  41.203   0.348  13.198
41984W        W14244  28.703   4.494   3.930
41985W        W14245   4.031  20.978   1.249
41986W        W14246  20.525  20.979  10.976
41987W        W14247  32.105  13.788   0.506
41988W        W14248  33.134  21.254  13.357
41989W        W14249  39.596  13.894   3.148
41990W        W14250  40.557  41.494   3.139
41991W        W14251  42.984   9.378   1.383
41992W        W14252  35.316  26.028   3.362
41993W        W14253  11.957   0.497   1.487
41994W        W14254  36.166  23.001  12.960
41995W        W14255   0.883  35.621   2.840
41996W        W14256  24.092  38.868   0.467
41997W        W14257   8.888   7.385   3.648
41998W        W14258  29.109  22.732   1.966
41999W        W14259  32.723  17.765   4.579
42000W        W14260  44.235   1.685   4.993
42001W        W14261   2.335  18.271  12.983
42002W        W14262  41.359  22.836   2.865
42003W        W14263  32.231   6.145  10.685
42004W        W14264  37.068  18.514  13.548
42005W        W14265  42.631  12.122  12.111
42006W        W14266  44.894  11.138   2.196
42007W        W14267  23.718   8.617  11.512
42008W        W14268  25.535  28.682   2.717
42009W        W14269   9.387  28.952  11.529
42010W        W14270  42.070  20.128   3.562
42011W        W14271   6.690  33.598  11.432
42012W        W14272  40.492  18.087  12.048
42013W        W14273  27.089  31.363   3.460
42014W        W14274  19.612  44.840  10.457
42015W        W14275  27.964  39.078   2.477
42016W        W14276  31.169  27.373   0.852
42017W        W14277   4.002  27.508  10.112
42018W        W14278  23.479  42.449   4.494
42019W        W14279  33.600  19.842   4.968
42020W        W14280  28.330  17.294   4.476
42021W        W14281  18.241  26.896   3.074
42022W        W14282  25.179  12.309   4.753
42023W        W14283  19.141  17.908   4.641
42024W        W14284  26.685   4.243   3.687
42025W        W14285  35.141  12.054  11.658
42026W        W14286  15.962  16.601   0.867
42027W        W14287  27.004  11.186   4.545
42028W        W14288  16.523  16.257  12.001
42029W        W14289   4.946   1.711  12.386
42030W        W14290  37.298   3.512   5.132
42031W        W14291  25.746  38.514  14.455
42032W        W14292   9.881  42.331  14.390
42033W        W14293   9.716   7.706   2.809
42034W        W14294   3.114  14.145   3.770
42035W        W14295  22.714  32.965   0.243
42036W        W14296  25.216  26.955  10.406
42037W        W14297   3.438  12.279  10.563
42038W        W14298  16.816  39.627  10.840
42039W        W14299  33.979  14.261   0.372
42040W        W14300  26.697  23.299  11.662
42041W        W14301  10.100  44.862   4.327
42042W        W14302   4.190  17.690  14.443
42043W        W14303  21.417  39.849   2.874
42044W        W14304   3.238  39.747  12.052
42045W        W14305  16.372  44.521  14.318
42046W        W14306  21.661  30.417  10.875
42047W        W14307  24.533   5.298   4.087
42048W        W14308  35.899  24.655  11.014
42049W        W14309   3.300  32.627  13.247
42050W        W14310  40.425  19.938   4.952
42051W        W14311  16.268  27.440  12.623
42052W        W14312  10.645  44.142  10.236
42053W        W14313  14.780   7.604   2.251
42054W        W14314   6.263  34.519  11.063
42055W        W14315  43.332   7.932  12.526
42056W        W14316  20.380  43.749  11.160
42057W        W14317   1.278  44.523  10.784
42058W        W14318   8.654   0.383  11.856
42059W        W14319  37.682  28.123  13.539
42060W        W14320  43.996  20.334   3.343
42061W        W14321  21.033  30.873  11.129
42062W        W14322  17.367   2.265   4.916
42063W        W14323   6.369  25.555  14.339
42064W        W14324  27.219  17.048  13.083
42065W        W14325  17.734  26.915  11.261
42066W        W14326  26.109  26.583  12.690
42067W        W14327  33.615  33.907   1.546
42068W        W14328   7.444  19.735  13.840
42069W        W14329  38.362  40.733  11.585
42070W        W14330   7.774  39.364  13.562
42071W        W14331   9.334  14.599   1.443
42072W        W14332  18.787  41.360   4.630
42073W        W14333   7.817  36.297   4.457
42074W        W14334  29.634  36.789  10.662
42075W        W14335  31.883  35.060   4.628
42076W        W14336  21.483   7.897   4.182
42077W        W14337  13.719   2.260   1.332
42078W        W14338  20.265  42.586  10.837
42079W        W14339  22.899   7.084   4.628
42080W        W14340  26.028   8.234  13.455
42081W        W14341  14.058  15.624   2.289
42082W        W14342  33.606  36.167  10.892
42083W        W14343  28.927  16.115   2.731
42084W        W14344  32.981  15.065  11.140
42085W        W14345  30.984  38.465   0.034
42086W        W14346   7.291  11.677   4.566
42087W        W14347  12.637   1.724   1.162
42088W        W14348   3.685   7.634  13.359
42089W        W14349   1.795  34.580   0.900
42090W        W14350  19.328  21.564  14.110
42091W        W14351  41.733  23.543   1.101
42092W        W14352  16.036  26.579  13.967
42093W        W14353  27.659   9.556   3.814
42094W        W14354   5.268   3.395  14.430
42095W        W14355  18.830   5.612   1.120
42096W        W14356   0.454  30.895  14.970
42097W        W14357   9.741   3.486  14.489
42098W        W14358   8.651  13.169  12.893
42099W        W14359  25.686  27.211   4.504
42100W        W14360  40.360   1.391  11.160
42101W        W14361   5.887   0.853  13.148
42102W        W14362  15.252  43.290  10.646
42103W        W14363  17.706  30.491  11.692
42104W        W14364  31.076  27.822   1.723
42105W        W14365   5.923  33.587   2.217
42106W        W14366  36.515  33.918   4.717
42107W        W14367  32.006  33.031   0.223
42108W        W14368  22.050   7.355  14.994
42109W        W14369  38.801   8.448  13.007
42110W        W14370   5.908   9.764   4.539
42111W        W14371  33.509  13.909  12.574
42112W        W14372   9.040  28.721  12.610
42113W        W14373  15.587  27.479   4.732
42114W        W14374  31.342  33.417   1.800
42115W        W14375   7.446  25.985  14.723
42116W        W14376  44.757  41.243   3.573
42117W        W14377  20.978  22.529  12.176
42118W        W14378  13.604  17.335  11.080
42119W        W14379  10.141   1.946   3.474
42120W        W14380  27.721  39.420  14.295
42121W        W14381  29.443   4.745  10.664
42122W        W14382  17.104  33.553  12.029
42123W        W14383  27.049  43.942  13.008
42124W        W14384   7.874  31.110   2.193
42125W        W14385  24.737  42.748   1.653
42126W        W14386  43.936  31.541   0.914
42127W        W14387  30.356  23.104   2.180
42128W        W14388  28.052   7.459  14.298
42129W        W14389   0.466  35.770   3.682
42130W        W14390  36.433  29.078   3.760
42131W        W14391  37.951   0.683  13.538
42132W        W14392   5.367  19.835  10.694
42133W        W14393  26.689  10.901   3.960
42134W        W14394  37.342  43.509  13.386
42135W        W14395   5.832  40.986   0.163
42136W        W14396  10.783  39.262   2.367
42137W        W14397   6.653   6.196  11.540
42138W        W14398   1.508  35.051  10.580
42139W        W14399  42.271   3.065  10.663
42140W        W14400  34.026   1.047  12.039
42141W        W14401   2.459  21.911   1.918
42142W        W14402  35.516  42.430  11.082
42143W        W14403   3.185   7.798  12.670
42144W        W14404  27.670  26.692  12.573
42145W        W14405  20.036  35.884   4.068
42146W        W14406   5.434  13.171  13.879
42147W        W14407  36.932  29.237  14.918
42148W        W14408  13.729   5.909   0.956
42149W        W14409   1.215   6.648   3.244
42150W        W14410  17.800  36.573   3.249
42151W        W14411  10.670  12.787   1.170
42152W        W14412  39.607  15.658   4.107
42153W        W14413  44.303   9.873  13.908
42154W        W14414  13.316  23.697  13.004
42155W        W14415  15.845   1.918  11.440
42156W        W14416  26.687  44.979   1.431
42157W        W14417  29.994   2.447   4.127
42158W        W14418   7.310  38.051   4.534
42159W        W14419  28.651  15.527  11.574
42160W        W14420  11.725   6.249  13.821
42161W        W14421  23.172   6.534   1.752
42162W        W14422  27.563   0.467  13.488
42163W        W14423  17.179  17.293  14.359
42164W        W14424   2.276  34.618  10.764
42165W        W14425   4.406  22.628  11.431
42166W        W14426  34.828   6.186   2.349
42167W        W14427  18.313  38.067  13.802
42168W        W14428  33.013  12.716  10.531
42169W        W14429  33.313   2.061  14.778
42170W        W14430   0.434  14.171   4.648
42171W        W14431   0.418  24.633  11.198
42172W        W14432  28.621  35.041  14.472
42173W        W14433  26.439  38.197   3.883
42174W        W14434  12.081   2.960   2.319
42175W        W14435   9.886  40.921   1.281
42176W        W14436  36.189  18.141   3.132
42177W        W14437  32.034   6.911  13.943
42178W        W14438   1.391  11.879  12.129
42179W        W14439  41.936  12.792   2.840
42180W        W14440  25.050  38.806   0.322
42181W        W14441  26.610  36.607   2.521
42182W        W14442  16.997  16.037  10.156
42183W        W14443  14.741  29.763  10.940
42184W        W14444  44.868   4.490   0.568
42185W        W14445   6.846   0.006   1.773
42186W        W14446  38.355  40.066  12.351
42187W        W14447  44.914  22.889  11.907
42188W        W14448  29.269  29.508  11.041
42189W        W14449   7.938  11.185   0.340
42190W        W14450  28.588  23.239  13.913
42191W        W14451  37.072  26.247   4.607
42192W        W14452  13.991  35.226  14.047
42193W        W14453  40.920  11.818   3.538
42194W        W14454  36.906   3.267   0.431
42195W        W14455  33.182   8.628  10.786
42196W        W14456  23.720  31.966  13.594
42197W        W14457  29.611  13.133   3.519
42198W        W14458  22.149  23.746  10.432
42199W        W14459  21.808  13.840  13.583
42200W        W14460  41.898   3.198  11.970
42201W        W14461  24.481  14.449   1.431
42202W        W14462  11.849   9.160   1.363
42203W        W14463  20.209  25.137   3.248
42204W        W14464  17.373  10.198  14.349
42205W        W14465  40.366  26.198  13.894
42206W        W14466   5.816  10.637   0.732
42207W        W14467   5.687  31.936  14.994
42208W        W14468  13.264   1.921  11.360
42209W        W14469   6.960  36.448  13.833
42210W        W14470  18.137  42.317  13.088
42211W        W14471  16.703  24.160  14.039
42212W        W14472  21.697  13.339  13.525
42213W        W14473  30.062  12.290   4.662
42214W        W14474  40.872  41.076  12.547
42215W        W14475  17.597   0.900  12.328
42216W        W14476  37.472   6.232  12.498
42217W        W14477  43.395  34.654   0.956
42218W        W14478   1.003  28.546   1.321
42219W        W14479  32.632  10.962   0.955
42220W        W14480   8.714  37.508  14.646
42221W        W14481  41.593  36.547   2.907
42222W        W14482   8.315   9.377  11.445
42223W        W14483  15.281  44.478   0.941
42224W        W14484  14.319  33.307   4.263
42225W        W14485  34.457  31.910   4.097
42226W        W14486  16.428  24.988  11.659
42227W        W14487  21.251  29.246  14.530
42228W        W14488  43.510  22.436   3.365
42229W        W14489   9.399  25.920  13.854
42230W        W14490   7.427  33.426  12.877
42231W        W14491  22.508  17.242   0.170
42232W        W14492  30.499  31.349   2.228
42233W        W14493  37.959  44.272  10.838
42234W        W14494   0.930  42.201   2.289
42235W        W14495  41.240  12.838  14.682
42236W        W14496  21.445  11.414  14.449
42237W        W14497  20.199  10.213   2.802
42238W        W14498  35.936  18.034   5.451
42239W        W14499  21.991  34.308   2.264
42240W        W14500  27.955  23.542   2.349
42241W        W14501  15.928  13.890  11.146
42242W        W14502  35.314  22.662   4.183
42243W        W14503  14.853  39.774   0.762
42244W        W14504  37.624  19.307  14.572
42245W        W14505  42.372  25.060   3.624
42246W        W14506   5.912  39.201  12.058
42247W        W14507  12.508  34.932  11.949
42248W        W14508  25.009  44.173   0.007
42249W        W14509  25.281  15.056  12.502
42250W        W14510  18.284   4.949  10.620
42251W        W14511  24.730  14.840   3.615
42252W        W14512  39.938  18.588   2.465
42253W        W14513  19.813  24.601   4.375
42254W        W14514  23.134   7.690  10.522
42255W        W14515   2.014  40.524   2.555
42256W        W14516  16.850   5.436  14.992
42257W        W14517  10.176  25.939  13.727
42258W        W14518  31.534  38.983   0.526
42259W        W14519   0.789   4.954  13.469
42260W        W14520  16.227  36.989  14.373
42261W        W14521  22.589  15.767   1.871
42262W        W14522  10.906  29.075  14.328
42263W        W14523  37.472  27.017  10.581
42264W        W14524  12.653   7.608  11.102
42265W        W14525  40.706  37.007  11.168
42266W        W14526  12.405  38.494   2.372
42267W        W14527   6.000  36.584  13.394
42268W        W14528  37.054  35.542   4.771
42269W        W14529  41.030  17.079  13.456
42270W        W14530  40.022  29.525  13.398
42271W        W14531  17.351  24.564  14.218
42272W        W14532  22.677  35.388  10.540
42273W        W14533  20.759  20.950  10.252
42274W        W14534  32.955  16.388   1.980
42275W        W14535  28.794   4.534   1.888
42276W        W14536  38.961   9.204   2.633
42277W        W14537  17.184  38.490   3.911
42278W        W14538  29.568   7.893   1.441
42279W        W14539  23.119  26.587   3.344
42280W        W14540  14.854  23.262  14.722
42281W        W14541  10.173  19.235  10.370
42282W        W14542  39.401  42.118   4.655
42283W        W14543   0.599  33.708   1.843
42284W        W14544   0.851  30.401  13.460
42285W        W14545  29.795  13.364  12.935
42286W        W14546  24.744   3.759   1.375
42287W        W14547  20.838  29.160   4.183
42288W        W14548  15.767  32.434  11.189
42289W        W14549   8.706   5.359  12.107
42290W        W14550   9.744   1.736  12.270
42291W        W14551  14.644  25.243  11.152
42292W        W14552  30.941   3.901  13.900
42293W        W14553  15.749  29.949   5.266
42294W        W14554  17.169  35.485  13.335
42295W        W14555  11.493  39.928  14.564
42296W        W14556  25.402  25.681  12.449
42297W        W14557  22.693  24.348   1.686
42298W        W14558  18.220  32.521   1.838
42299W        W14559  35.257   8.296   3.887
42300W        W14560  11.890  10.848  12.487
42301W        W14561   5.920  12.767   3.637
42302W        W14562   7.233  30.809   3.731
42303W        W14563  24.070  12.240   3.231
42304W        W14564  20.117  15.064  11.103
42305W        W14565  32.593  19.056  11.240
42306W        W14566  31.221   1.587  11.307
42307W        W14567   5.255  24.330  11.507
42308W        W14568  41.753  27.462  11.901
42309W        W14569   7.736   2.901  12.981
42310W        W14570   1.217  19.015  12.887
42311W        W14571   4.724   4.134   4.106
42312W        W14572   8.912  34.577  14.005
42313W        W14573   2.336   4.550  14.816
42314W        W14574  20.283  12.553   5.024
42315W        W14575  37.719  41.819  12.976
42316W        W14576  38.802  10.262   2.071
42317W        W14577  31.948  29.973   2.493
42318W        W14578  23.428  20.839  10.646
42319W        W14579  10.870  40.552  12.135
42320W        W14580  12.418  13.689  12.044
42321W        W14581  30.188  13.715   1.913
42322W        W14582   2.835  35.996  10.395
42323W        W14583   0.525   0.841   0.560
42324W        W14584   5.244   6.817  11.276
42325W        W14585   9.317  13.575   1.300
42326W        W14586  19.319  32.328   0.922
42327W        W14587   8.182  27.659  12.006
42328W        W14588  17.513  38.270  10.525
42329W        W14589  14.140  10.737   1.423
42330W        W14590  13.836  16.383   1.991
42331W        W14591  14.059   1.766   0.375
42332W        W14592  23.247  11.836  11.716
42333W        W14593  34.006  40.364   2.686
42334W        W14594  40.857   1.318   0.860
42335W        W14595  28.936  13.336   3.921
42336W        W14596  10.631   0.262  10.973
42337W        W14597   5.296  33.590  10.796
42338W        W14598   3.221  17.538   3.492
42339W        W14599  12.077  24.013   1.358
42340W        W14600  16.666  15.380  11.971
42341W        W14601  43.858   7.952   2.605
42342W        W14602   1.751  17.202   2.741
42343W        W14603   6.359  26.533  12.402
42344W        W14604  14.651  14.599  13.436
42345W        W14605  36.349  19.131   2.369
42346W        W14606   4.817  36.447  12.379
42347W        W14607   0.895  19.049   1.168
42348W        W14608  26.206  26.957   1.753
42349W        W14609  18.830  15.741  14.325
42350W        W14610  20.733  30.474   1.135
42351W        W14611   9.884  13.290  10.743
42352W        W14612  23.601  43.471   4.233
42353W        W14613  31.957  23.275   0.414
42354W        W14614  11.880  15.855   0.128
42355W        W14615  33.887  35.761   1.377
42356W        W14616  35.954  44.859  11.698
42357W        W14617  40.533  41.049  11.960
42358W        W14618  43.767  44.515  13.344
42359W        W14619  14.388  20.597   0.932
42360W        W14620  26.607   3.455  13.505
42361W        W14621   4.916  11.451  12.007
42362W        W14622  40.557   8.300   0.928
42363W        W14623  41.621  36.581  12.113
42364W        W14624  29.954   9.700   3.930
42365W        W14625  43.546   4.532   5.041
42366W        W14626  30.749  17.606   1.895
42367W        W14627  24.936  34.141   3.240
42368W        W14628  19.174  38.394  10.680
42369W        W14629  11.786  32.022   3.240
42370W        W14630  28.933  27.717   2.405
42371W        W14631  36.504   8.215   9.753
42372W        W14632  25.319  36.989  11.166
42373W        W14633   4.388  25.498  13.129
42374W        W14634   3.750  30.871   3.262
42375W        W14635  31.281  19.414  11.095
42376W        W14636  26.078  24.590  11.620
42377W        W14637   9.600  28.736   2.788
42378W        W14638  40.840  34.076   0.368
42379W        W14639  34.883   7.764  11.339
42380W        W14640  19.174  42.199   3.236
42381W        W14641  43.444   6.683  13.017
42382W        W14642   5.715   0.451   1.166
42383W        W14643  27.045  14.073   4.926
42384W        W14644  40.564  33.151   4.171
42385W        W14645  16.217   5.674   3.403
42386W        W14646  12.077  12.741   3.275
42387W        W14647  12.975  25.700   2.669
42388W        W14648  20.767  33.521  14.439
42389W        W14649   0.875  41.387  10.817
42390W        W14650  34.161  24.549  12.919
42391W        W14651  43.570  14.366   3.914
42392W        W14652  28.406  33.832  13.919
42393W        W14653  22.674  44.379   0.405
42394W        W14654  39.555  11.911   1.263
42395W        W14655   6.747  19.943  11.162
42396W        W14656  24.257  25.457   4.175
42397W        W14657  42.211  36.908  13.051
42398W        W14658  34.035  29.319  13.038
42399W        W14659  31.972  30.119  12.439
42400W        W14660  34.143  34.331  11.573
42401W        W14661   8.234  18.792   1.799
42402W        W14662   5.251   1.289  10.670
42403W        W14663  39.585   9.316  13.558
42404W        W14664  30.181  26.228  10.693
42405W        W14665   5.872  44.548  13.130
42406W        W14666  17.219  20.289  12.372
42407W        W14667  21.770   8.236  10.680
42408W        W14668   0.715  33.189   1.880
42409W        W14669  13.550  39.713  11.970
42410W        W14670  38.393  15.769  11.995
42411W        W14671  30.645  13.189   5.187
42412W        W14672   6.197  23.018  11.600
42413W        W14673   3.216  17.869  14.303
42414W        W14674  33.645  26.991  14.993
42415W        W14675  10.344  16.764   0.953
42416W        W14676  13.545  30.344  13.844
42417W        W14677  39.102  22.331  13.793
42418W        W14678  27.771  33.333   0.558
42419W        W14679  33.671  26.058   0.922
42420W        W14680  21.700  24.485  14.021
42421W        W14681  32.875  16.186   2.801
42422W        W14682  25.075  11.140   0.896
42423W        W14683  40.517  21.759  11.140
42424W        W14684   0.467  11.968   3.788
42425W        W14685  29.619  10.108   2.329
42426W        W14686   5.824  36.129   2.202
42427W        W14687  31.634  41.431   1.360
42428W        W14688  22.845  26.642   0.840
42429W        W14689  31.560   1.139  11.183
42430W        W14690   6.776  36.509  12.858
42431W        W14691   5.380  31.123  14.021
42432W        W14692  26.444  26.790  11.541
42433W        W14693   0.899  26.744   0.827
42434W        W14694  41.439  10.223   4.586
42435W        W14695  22.277   0.532   0.736
42436W        W14696  21.157  26.818  10.677
42437W        W14697  28.709   2.020  14.277
42438W        W14698  12.578   6.483   4.099
42439W        W14699  15.620  13.087   1.744
42440W        W14700  13.446  41.684  10.307
42441W        W14701  40.030   9.486   3.587
42442W        W14702  37.901  41.061  13.423
42443W        W14703  16.065  44.155  13.458
42444W        W14704  30.019  11.166   1.545
42445W        W14705  17.551   0.057   1.171
42446W        W14706  17.622   7.522   0.668
42447W        W14707  14.620  39.802   4.283
42448W        W14708  40.403  12.387   2.323
42449W        W14709   5.948  26.411   0.836
42450W        W14710  35.152   7.389   3.700
42451W        W14711  44.618  12.209   3.862
42452W        W14712   3.680  13.770   0.439
42453W        W14713  23.477  42.089   2.935
42454W        W14714  17.504  21.551   1.274
42455W        W14715  32.564  26.336  13.930
42456W        W14716   3.746  14.758   0.398
42457W        W14717   0.506  40.533  14.343
42458W        W14718  23.664   0.436  12.018
42459W        W14719  32.527  43.519   0.906
42460W        W14720  16.519  16.649   4.722
42461W        W14721   9.941  37.137   4.571
42462W        W14722   4.327   9.906   3.245
42463W        W14723  34.483  39.463  11.491
42464W        W14724  20.608  34.494  13.531
42465W        W14725   4.215  12.409   4.136
42466W        W14726   2.804  20.178   3.231
42467W        W14727  34.779  14.437   5.385
42468W        W14728   4.014   3.493   1.246
42469W        W14729   9.572  32.502  10.585
42470W        W14730  13.129  30.545   4.673
42471W        W14731  22.135  11.868   3.705
42472W        W14732   3.742   2.478  13.372
42473W        W14733  27.097  43.402   1.537
42474W        W14734  25.675   3.313   4.289
42475W        W14735  44.988  13.096  14.997
42476W        W14736  40.579  10.275   0.534
42477W        W14737  21.278  21.213   3.707
42478W        W14738  40.080  24.225  12.429
42479W        W14739  28.031  17.744  13.437
42480W        W14740  37.820  12.105   0.943
42481W        W14741   8.231   8.967   3.742
42482W        W14742   1.850  42.308  14.841
42483W        W14743  21.035   1.249   2.850
42484W        W14744  15.850  40.346  10.617
42485W        W14745  10.772  43.268  14.754
42486W        W14746  11.258  31.921   3.227
42487W        W14747  31.144   3.480   4.903
42488W        W14748  20.444  20.719  12.073
42489W        W14749   6.555  24.241   4.731
42490W        W14750  18.129  22.343   4.057
42491W        W14751  32.351   7.931  11.839
42492W        W14752  39.438   5.736   2.888
42493W        W14753   0.799  40.997  14.097
42494W        W14754  24.658  19.776  13.824
42495W        W14755  27.164  35.840  10.922
42496W        W14756  26.960   6.359   4.598
42497W        W14757  22.160  23.507   0.387
42498W        W14758  14.861  12.137   1.755
42499W        W14759  30.601  44.276   2.822
42500W        W14760   9.976  19.599  13.317
42501W        W14761  41.898  25.625   4.867
42502W        W14762  20.567  35.960  12.404
42503W        W14763  15.787   1.780  14.409
42504W        W14764  39.031   9.705   5.393
42505W        W14765  37.897   8.729  12.986
42506W        W14766  17.137  26.907   2.365
42507W        W14767  12.273  21.739  13.146
42508W        W14768  34.911  11.910  13.248
42509W        W14769  15.889  20.104   1.857
42510W        W14770  18.923  30.125   2.233
42511W        W14771  32.110  29.615  12.449
42512W        W14772  11.539  28.884   4.959
42513W        W14773   6.341   4.502  11.186
42514W        W14774  28.911   3.432   2.687
42515W        W14775   6.919  36.845   1.870
42516W        W14776  25.084   0.196   1.006
42517W        W14777  44.969  16.557   4.190
42518W        W14778   5.868  42.303   3.895
42519W        W14779  20.837   0.288   4.142
42520W        W14780  31.590  14.449   1.139
42521W        W14781  10.507  10.233   3.649
42522W        W14782  34.619   2.403  11.808
42523W        W14783  24.996   9.161   0.461
42524W        W14784  23.193  25.718  12.215
42525W        W14785  35.437   4.042   1.203
42526W        W14786  17.174  20.748   4.406
42527W        W14787  40.428  21.857  13.785
42528W        W14788  23.648  15.287   2.237
42529W        W14789  24.597  43.276   3.494
42530W        W14790  19.838  35.874   3.144
42531W        W14791  22.528  12.854  13.921
42532W        W14792   5.635  38.469  14.396
42533W        W14793   9.300   3.507   2.215
42534W        W14794  12.435  33.522  10.555
42535W        W14795  22.127   7.833   4.652
42536W        W14796  40.439   8.355   2.386
42537W        W14797  35.269  22.267   0.568
42538W        W14798  40.786  43.030   2.442
42539W        W14799  30.668  41.396   1.963
42540W        W14800  42.857  25.001   1.298
42541W        W14801  25.125  30.863  10.753
42542W        W14802   1.811  39.370   2.463
42543W        W14803  36.447  37.144   4.949
42544W        W14804   7.778  12.342   1.846
42545W        W14805  37.832  31.515   4.904
42546W        W14806  16.631  28.729   2.742
42547W        W14807  17.392  27.082  12.042
42548W        W14808  11.890  17.421  13.346
42549W        W14809  15.787  15.704   3.565
42550W        W14810   0.458  23.143   2.381
42551W        W14811  23.213  11.085  12.058
42552W        W14812   0.681  28.441   1.819
42553W        W14813  14.426  40.300   2.368
42554W        W14814  32.139   2.412  13.376
42555W        W14815   1.357  23.784   0.479
42556W        W14816  33.111  23.402  11.028
42557W        W14817  41.579  34.562   1.846
42558W        W14818  16.114   5.910   0.209
42559W        W14819  24.574  42.300   3.296
42560W        W14820  17.217  12.483  14.467
42561W        W14821  18.774  27.259   1.632
42562W        W14822   1.466  25.785   0.312
42563W        W14823  42.451  36.240   1.821
42564W        W14824  40.853   6.379   0.497
42565W        W14825   9.766  18.129   1.294
42566W        W14826  11.250  36.133   4.860
42567W        W14827   1.227   0.083   1.314
42568W        W14828   5.742   0.724   4.178
42569W        W14829  27.589   8.481   2.424
42570W        W14830  22.620  41.562   4.176
42571W        W14831  13.424  21.299  12.499
42572W        W14832   9.807   3.738   1.300
42573W        W14833   6.861   8.921   1.347
42574W        W14834   8.932  11.751   2.729
42575W        W14835  39.665  11.293   3.317
42576W        W14836   0.465  18.092   4.889
42577W        W14837  16.503  38.997  14.834
42578W        W14838  41.007  21.597   4.716
42579W        W14839  26.497  31.478   2.305
42580W        W14840  15.021  12.285   4.466
42581W        W14841  23.181  35.264   2.896
42582W        W14842  16.605  33.158   2.766
42583W        W14843  25.936   5.253  11.135
42584W        W14844  39.337  20.630  13.836
42585W        W14845   3.314  19.906  14.080
42586W        W14846   2.789   2.572   3.215
42587W        W14847   8.744  30.656   2.982
42588W        W14848  18.223  36.475   0.434
42589W        W14849   4.945  20.188   2.365
42590W        W14850  23.100  16.626   1.933
42591W        W14851  16.148  16.690  12.687
42592W        W14852  28.268  15.342  13.406
42593W        W14853  20.788  12.410  12.323
42594W        W14854  17.203  19.819   0.863
42595W        W14855  22.163  22.682   5.086
42596W        W14856  39.926  39.516   0.558
42597W        W14857  44.962  24.885   4.749
42598W        W14858  33.114  24.984  12.532
42599W        W14859  12.676  25.978   0.222
42600W        W14860  41.301  33.570  14.383
42601W        W14861  41.529  22.695   3.392
42602W        W14862  40.800  22.552   4.560
42603W        W14863  21.332   7.059   2.970
42604W        W14864  39.319  38.470  11.922
42605W        W14865  39.638  35.193   0.411
42606W        W14866  16.304  10.789   1.571
42607W        W14867   4.979  42.468  11.539
42608W        W14868  40.857  29.665   0.690
42609W        W14869   8.329  43.834  12.530
42610W        W14870   7.569  44.001  13.445
42611W        W14871  27.027  31.855  12.890
42612W        W14872  36.866  18.692  12.575
42613W        W14873   9.199  34.314   3.064
42614W        W14874  31.923   5.579   4.075
42615W        W14875  19.631  37.647   2.699
42616W        W14876   9.444  18.325  13.506
42617W        W14877  21.770  42.729  13.861
42618W        W14878  26.559  23.288   3.199
42619W        W14879  21.682  34.050  13.834
42620W        W14880  36.991  40.115  10.710
42621W        W14881  43.130  35.901  11.596
42622W        W14882  10.669  10.258  14.520
42623W        W14883  22.183  43.383  10.712
42624W        W14884  44.188  26.974   4.888
42625W        W14885  37.881  27.595   2.221
42626W        W14886  25.762  11.843   4.099
42627W        W14887  22.601  16.812  14.830
42628W        W14888   9.306  24.948   4.126
42629W        W14889  30.492   5.959  13.303
42630W        W14890  17.593  27.255  14.402
42631W        W14891  41.093   8.410  12.889
42632W        W14892  35.452  41.270   1.892
42633W        W14893  40.287  44.073  12.046
42634W        W14894  12.508  31.462  14.224
42635W        W14895  42.398  18.354   1.435
42636W        W14896  40.945  18.577   1.254
42637W        W14897  25.556  43.219   0.794
42638W        W14898  44.449  12.696   3.816
42639W        W14899   5.131  11.288   0.355
42640W        W14900  28.094  11.303  14.330
42641W        W14901  27.960  44.891  10.634
42642W        W14902  30.565  40.872   0.869
42643W        W14903  40.111  24.642  11.080
42644W        W14904  44.811  32.822  13.379
42645W        W14905  20.943  24.992  14.381
42646W        W14906  30.481  38.371  13.403
42647W        W14907   9.441  20.802   0.453
42648W        W14908   4.262  30.251  11.182
42649W        W14909  21.616  37.424  12.170
42650W        W14910   7.225   3.645   2.665
42651W        W14911  21.008  33.136  11.289
42652W        W14912  37.579  44.724   2.281
42653W        W14913  15.146  19.494  11.647
42654W        W14914   3.826  35.655  10.669
42655W        W14915  31.517  28.231  14.918
42656W        W14916  21.346  39.865  11.553
42657W        W14917  20.111  43.166  12.495
42658W        W14918  14.832   1.486   3.735
42659W        W14919   2.950  39.815   2.682
42660W        W14920  39.949  30.148  12.490
42661W        W14921  13.990   0.089  13.915
42662W        W14922  40.511  27.522  13.912
42663W        W14923  16.291  15.095   5.372
42664W        W14924   6.296  28.741  13.427
42665W        W14925  29.866  30.750  14.724
42666W        W14926  42.308  18.533  10.670
42667W        W14927  27.927  25.630   4.560
42668W        W14928   7.115  32.734  10.718
42669W        W14929  12.309  34.451  11.983
42670W        W14930  11.102  38.000  13.849
42671W        W14931  41.685  33.984   2.679
42672W        W14932  29.419  32.598  14.763
42673W        W14933   5.976  25.609  14.020
42674W        W14934  36.193   9.203   2.643
42675W        W14935  13.434  13.688  11.859
42676W        W14936  34.924  27.158  13.839
42677W        W14937  23.703  12.221  11.214
42678W        W14938  26.201   9.814  14.061
42679W        W14939  28.518  17.938  14.733
42680W        W14940  26.214  35.990   3.171
42681W        W14941  18.241  32.233   3.509
42682W        W14942   6.887  32.368  14.265
42683W        W14943   9.823  38.532  10.686
42684W        W14944   2.126  10.891  13.886
42685W        W14945  38.875   6.788   4.316
42686W        W14946  44.029  24.769  12.477
42687W        W14947   8.420  37.985  11.237
42688W        W14948  13.189  23.205  12.982
42689W        W14949   1.033   2.805   3.599
42690W        W14950  26.211   8.783  12.374
42691W        W14951   1.170  33.030  11.577
42692W        W14952   4.007  37.587   0.237
42693W        W14953  25.197   8.850   2.151
42694W        W14954  19.100  12.315   1.365
42695W        W14955  25.777  15.963  12.179
42696W        W14956  43.908   7.906  12.063
42697W        W14957  37.832   0.374  14.544
42698W        W14958  30.712  15.758  11.116
42699W        W14959  22.270  28.329   1.965
42700W        W14960  41.478   8.594  13.292
42701W        W14961  22.576  31.193  12.575
42702W        W14962  10.467  33.190   3.998
42703W        W14963  16.540   1.574   2.732
42704W        W14964  28.514  14.778  12.165
42705W        W14965   6.649  20.241  13.895
42706W        W14966  10.342   1.411  11.474
42707W        W14967  36.036  43.943  11.212
42708W        W14968  12.591  38.726  11.790
42709W        W14969  27.049  28.463  14.293
42710W        W14970  15.276   7.880   4.081
42711W        W14971   6.578  17.432   4.263
42712W        W14972  27.892  20.847   4.965
42713W        W14973  39.582  44.844   1.845
42714W        W14974  40.504  32.071  13.062
42715W        W14975  26.354  17.952   0.022
42716W        W14976  14.106  24.072  13.301
42717W        W14977  15.764  40.371   2.896
42718W        W14978  16.743  23.699   1.181
42719W        W14979  40.512  13.714   1.464
42720W        W14980  11.760  39.039  11.608
42721W        W14981  10.182  42.032  10.716
42722W        W14982  32.628  12.521  14.952
42723W        W14983   9.057   8.314  11.157
42724W        W14984  27.803  26.895  14.941
42725W        W14985  10.726  44.212  11.980
42726W        W14986   3.823   7.921  13.773
42727W        W14987  30.925  21.625  11.474
42728W        W14988   6.244   9.952   0.978
42729W        W14989   7.816  28.227   4.151
42730W        W14990  22.375  40.939  11.382
42731W        W14991  24.461  31.977   0.909
42732W        W14992  15.266  23.257  10.728
42733W        W14993  21.526  40.483  13.814
42734W        W14994  29.165   1.796  12.903
42735W        W14995  32.630   3.211   1.752
42736W        W14996  43.218   2.681  12.923
42737W        W14997   9.761  28.913   2.286
42738W        W14998  18.646   2.961   3.369
42739W        W14999  43.368  10.161  11.184
42740W        W15000  19.653  41.953  14.939
42741W        W15001   5.472  18.705  12.509
42742W        W15002  20.638  24.083  12.536
42743W        W15003  35.401  14.315  12.452
42744W        W15004  33.583  15.322  10.163
42745W        W15005  23.597  14.727  13.531
42746W        W15006  28.257  18.764   1.743
42747W        W15007  32.543   0.241   4.329
42748W        W15008  41.413  10.670  12.312
42749W        W15009  18.810  30.515  12.107
42750W        W15010  16.821  19.521   4.168
42751W        W15011  43.633  18.426   5.189
42752W        W15012  10.226  27.289  14.464
42753W        W15013  20.481   2.221   0.362
42754W        W15014  12.537  10.873   0.435
42755W        W15015   6.854  31.252   2.037
42756W        W15016  41.879  20.250  12.511
42757W        W15017  37.806  33.356  14.711
42758W        W15018   3.916  12.002   4.264
42759W        W15019  18.188  13.820   1.433
42760W        W15020  33.658  14.785   0.068
42761W        W15021  44.488  10.164   4.548
42762W        W15022  14.466   4.270  13.064
42763W        W15023  17.742  12.827  11.418
42764W        W15024  32.482  15.293  13.397
42765W        W15025  15.534   1.570  12.879
42766W        W15026  25.933  19.501   4.186
42767W        W15027   6.842  14.332  12.784
42768W        W15028  29.039  10.870  13.120
42769W        W15029  24.414  27.507   0.811
42770W        W15030  35.680  27.987  13.467
42771W        W15031  33.471  20.636   0.694
42772W        W15032  41.952  31.354   1.882
42773W        W15033  25.114  13.307   4.396
42774W        W15034   0.477  10.582   4.038
42775W        W15035   4.739  40.938   2.127
42776W        W15036   6.657  30.957  10.781
42777W        W15037  24.750  36.128   3.771
42778W        W15038  24.762  27.487  11.418
42779W        W15039   0.726  43.361   1.249
42780W        W15040  32.417  33.469   1.734
42781W        W15041  32.584  29.704  14.396
42782W        W15042  39.860  36.258  14.039
42783W        W15043  26.428  23.156   5.040
42784W        W15044  33.980   6.975  11.179
42785W        W15045  12.704   1.211   0.288
42786W        W15046   5.400  37.055  14.364
42787W        W15047  10.259  10.856   2.185
42788W        W15048  30.543  15.140  13.287
42789W        W15049   4.950   5.699  12.506
42790W        W15050  42.497  15.189   2.588
42791W        W15051   4.021  13.850   4.795
42792W        W15052  13.187  19.730  12.584
42793W        W15053  32.698  42.693   2.222
42794W        W15054   1.875  15.382   0.446
42795W        W15055  20.716   2.412  11.062
42796W        W15056   9.894  21.392  13.558
42797W        W15057  33.073  42.486  13.487
42798W        W15058  25.636  14.131  11.560
42799W        W15059  26.890  31.596  12.467
42800W        W15060  44.910   5.584   3.856
42801W        W15061  15.956  43.290  13.981
42802W        W15062  20.588  31.513   4.055
42803W        W15063  29.127   0.069   1.849
42804W        W15064  44.522   8.861  11.593
42805W        W15065  15.353  27.114   1.413
42806W        W15066   1.753  20.344  13.022
42807W        W15067  27.441  12.281  11.214
42808W        W15068  22.517  28.383   2.411
42809W        W15069  44.462  25.116  10.574
42810W        W15070  42.642   4.440  10.439
42811W        W15071  44.207  21.770  11.490
42812W        W15072   1.774   8.234  10.612
42813W        W15073  22.051  29.357   5.124
42814W        W15074  36.438  42.736   3.137
42815W        W15075  43.009  11.108  14.337
42816W        W15076   2.950  27.033   2.387
42817W        W15077  37.316  33.703   0.818
42818W        W15078   8.943  12.574  14.112
42819W        W15079  44.450  27.483   2.881
42820W        W15080   2.750   4.924  13.315
42821W        W15081  12.810  38.384  14.518
42822W        W15082  23.662  33.012  11.180
42823W        W15083  18.061   2.346   0.015
42824W        W15084  27.950  32.443   4.228
42825W        W15085   5.779  28.518   3.761
42826W        W15086   2.602  16.115   3.740
42827W        W15087  44.256  10.987   0.731
42828W        W15088  36.626  27.486  14.061
42829W        W15089  23.159   5.892   3.316
42830W        W15090  40.494   8.431   0.414
42831W        W15091   6.236  27.987   4.217
42832W        W15092  43.883   4.687  12.790
42833W        W15093  21.040   5.102   1.278
42834W        W15094  24.415  31.600  14.937
42835W        W15095  15.119  23.093  12.652
42836W        W15096  24.465  29.346   3.613
42837W        W15097  17.760   8.496   4.739
42838W        W15098  14.144   9.940   2.433
42839W        W15099  31.626   8.707  11.028
42840W        W15100  14.936  16.802   9.626
42841W        W15101  16.962  14.673   3.192
42842W        W15102   1.374   3.819   3.248
42843W        W15103   4.709   8.738  10.822
42844W        W15104  44.461   6.517  12.883
42845W        W15105   7.220  14.886   4.174
42846W        W15106   5.554   3.644  11.549
42847W        W15107  34.656  29.224   0.280
42848W        W15108  31.768  23.246  14.925
42849W        W15109   8.957   3.388  13.769
42850W        W15110  19.698  32.647  14.584
42851W        W15111  29.726  34.583   1.299
42852W        W15112  24.543  23.551   0.794
42853W        W15113   9.251  36.289   3.239
42854W        W15114   3.011  27.507  14.941
42855W        W15115  29.156  35.387  12.366
42856W        W15116  41.076  10.265   0.333
42857W        W15117  35.478  10.712   4.048
42858W        W15118   6.441  18.102   2.674
42859W        W15119  34.569   5.447  14.508
42860W        W15120  36.743  37.148   3.330
42861W        W15121  35.024  39.313   2.731
42862W        W15122   5.304  21.744  13.372
42863W        W15123   0.587  29.627   1.353
42864W        W15124  13.810  29.680  12.449
42865W        W15125  21.642  34.284   2.669
42866W        W15126  41.008   5.356   1.628
42867W        W15127   6.264  31.726  14.319
42868W        W15128  11.354  26.579   2.270
42869W        W15129  44.858  26.845   2.725
42870W        W15130   1.415  16.850   1.130
42871W        W15131  26.352  19.010  13.311
42872W        W15132  41.423  13.718   1.025
42873W        W15133   3.208  33.026  14.094
42874W        W15134  15.326   9.231   4.067
42875W        W15135  34.040  17.841  12.337
42876W        W15136  34.353  33.510  12.001
42877W        W15137  36.991  24.016   1.906
42878W        W15138  25.171  44.473  13.028
42879W        W15139  30.827   2.175  10.666
42880W        W15140  28.896  22.797  14.771
42881W        W15141  22.187  24.164   2.322
42882W        W15142  36.387   3.121   1.894
42883W        W15143  13.236  42.010  13.016
42884W        W15144  31.678  44.288   2.126
42885W        W15145  43.037  37.295  14.463
42886W        W15146  23.070   8.419  13.763
42887W        W15147  38.297  42.865   2.443
42888W        W15148  10.265  22.430  13.789
42889W        W15149  33.825  15.520   3.383
42890W        W15150  28.705   4.731  13.990
42891W        W15151  16.511  38.491   1.590
42892W        W15152  32.871   9.636   1.683
42893W        W15153  36.252  30.459  11.004
42894W        W15154  16.664  15.222   2.771
42895W        W15155  31.409  43.394  11.671
42896W        W15156  41.799   6.915  12.147
42897W        W15157  42.563  12.123   3.178
42898W        W15158  24.501  37.408  11.154
42899W        W15159  13.378  19.883  13.599
42900W        W15160   8.363  35.402  12.092
42901W        W15161  42.871  40.549  13.004
42902W        W15162  13.561   6.841   2.289
42903W        W15163  17.126  37.451   4.845
42904W        W15164   4.028  17.097   3.277
42905W        W15165  15.820  16.716  14.480
42906W        W15166   5.884  28.019   3.824
42907W        W15167  14.002  11.184  10.811
42908W        W15168  37.131  19.541  11.593
42909W        W15169   8.903   7.780  11.812
42910W        W15170  20.189  39.593  14.791
42911W        W15171  17.776  20.813  14.742
42912W        W15172  33.637  40.412   0.211
42913W        W15173   5.401  17.027   3.617
42914W        W15174  37.594  27.193   3.174
42915W        W15175  16.127  44.186   1.258
42916W        W15176   9.178  23.001   0.033
42917W        W15177  24.237   8.298  12.057
42918W        W15178  26.992   4.172   0.411
42919W        W15179  23.766  14.617   3.674
42920W        W15180  18.458  10.788   2.751
42921W        W15181  30.086  32.873  12.414
42922W        W15182  16.786  17.364  12.513
42923W        W15183  36.182   1.252   1.638
42924W        W15184  38.642  18.193   2.443
42925W        W15185  17.571  10.303   3.150
42926W        W15186  14.915   0.193   4.022
42927W        W15187  39.570   7.404  14.053
42928W        W15188  12.949   1.031  14.006
42929W        W15189  16.370  23.969   4.382
42930W        W15190   5.235  10.386   0.240
42931W        W15191  20.585  19.124   1.793
42932W        W15192   1.845  18.904   3.224
42933W        W15193  26.606  22.825  12.424
42934W        W15194  38.975   5.979   2.934
42935W        W15195   3.683  36.417   0.790
42936W        W15196  13.333  38.092   0.642
42937W        W15197   5.195  43.279  12.370
42938W        W15198  21.969  21.099  11.458
42939W        W15199  18.920  31.181   3.972
42940W        W15200  17.362  26.174   2.989
42941W        W15201   4.724   9.156  14.827
42942W        W15202  44.867  40.304  11.523
42943W        W15203  33.950  22.469  10.742
42944W        W15204  20.348  41.612   2.815
42945W        W15205  24.763  32.115   1.310
42946W        W15206  44.006  13.995  14.144
42947W        W15207  42.239  12.187   1.180
42948W        W15208  35.875  21.144   1.957
42949W        W15209  38.960  17.985  13.088
42950W        W15210   4.668  17.004   4.091
42951W        W15211  33.968  28.065   0.977
42952W        W15212   4.763  35.154  11.496
42953W        W15213  15.125  42.841   1.286
42954W        W15214  38.450  32.693   2.341
42955W        W15215  20.123  38.653  11.659
42956W        W15216  27.899  28.852  13.501
42957W        W15217   9.152   7.275   4.076
42958W        W15218   0.010   6.780   0.842
42959W        W15219  12.761  38.840  14.753
42960W        W15220  16.199  30.357   1.017
42961W        W15221  36.402  40.543   4.149
42962W        W15222  33.158  11.944   4.155
42963W        W15223  28.601  18.019  12.402
42964W        W15224  28.395  36.004   0.980
42965W        W15225  35.432  27.286   1.007
42966W        W15226  31.052   4.938   3.280
42967W        W15227   8.117  11.127  11.567
42968W        W15228  15.423  20.862  12.559
42969W        W15229   0.960  14.717  14.706
42970W        W15230  29.715   2.928  12.375
42971W        W15231   2.467  44.276  14.838
42972W        W15232  21.383  24.234  11.978
42973W        W15233   6.306  32.191  12.344
42974W        W15234  19.605  32.003   3.356
42975W        W15235   1.545  24.010  13.978
42976W        W15236  28.818  43.239   1.309
42977W        W15237  21.570  29.970   2.459
42978W        W15238  23.292  11.577  12.174
42979W        W15239   4.778  14.293   4.533
42980W        W15240   7.595   7.791  11.066
42981W        W15241  27.305  18.122  10.702
42982W        W15242  23.496  40.214  12.147
42983W        W15243  24.083  18.528   1.142
42984W        W15244  31.343  23.070   1.242
42985W        W15245  36.310  20.884  10.499
42986W        W15246  28.542  42.008   4.835
42987W        W15247   1.962  33.580  14.962
42988W        W15248  13.435  38.466   2.263
42989W        W15249  12.269   2.487   2.248
42990W        W15250   7.855  37.611  10.632
42991W        W15251   2.424  30.550   2.936
42992W        W15252  37.007  35.549  11.490
42993W        W15253  39.549  23.724   3.666
42994W        W15254  39.037  44.269   2.906
42995W        W15255  10.633   5.705  10.804
42996W        W15256  36.438  18.175   0.157
42997W        W15257   1.196  29.050  13.614
42998W        W15258  17.728  29.974  11.699
42999W        W15259  42.330   2.086  13.165
43000W        W15260  34.899   7.871   4.606
43001W        W15261  27.465   7.257   0.460
43002W        W15262   4.670  18.935   4.727
43003W        W15263  31.090  25.073   3.669
43004W        W15264  12.331  29.104   2.235
43005W        W15265   8.808  40.606  12.955
43006W        W15266  32.590  37.547   3.467
43007W        W15267  25.651   3.850  11.362
43008W        W15268  30.613  22.290  10.339
43009W        W15269  42.898   7.365  10.471
43010W        W15270   6.670  33.551  12.463
43011W        W15271  29.584  39.610  12.924
43012W        W15272  14.875  15.115  11.084
43013W        W15273  28.098  25.997   1.242
43014W        W15274  18.990  22.708   2.790
43015W        W15275   2.141   4.644   0.951
43016W        W15276  31.881  31.133   3.169
43017W        W15277  30.019  30.181  14.548
43018W        W15278  43.808   8.320   3.373
43019W        W15279  31.186  11.756  10.605
43020W        W15280  21.765  13.759  11.582
43021W        W15281  34.511  12.134   2.932
43022W        W15282  38.582  26.481  13.541
43023W        W15283  14.830   8.600   3.349
43024W        W15284   0.595  35.012   1.684
43025W        W15285  38.887  18.303   0.469
43026W        W15286  36.268  27.389  11.916
43027W        W15287   3.290  23.470   4.812
43028W        W15288  25.578  35.526  13.272
43029W        W15289   5.571  27.870  13.416
43030W        W15290  29.913  37.039   0.848
43031W        W15291  44.913  41.050   0.013
43032W        W15292  19.200  19.324   1.711
43033W        W15293  29.640  36.988   2.895
43034W        W15294  18.644  32.900   4.707
43035W        W15295  14.065  28.398  12.207
43036W        W15296  24.762  19.938   3.288
43037W        W15297  41.030  13.645  14.428
43038W        W15298  30.015   8.446  14.351
43039W        W15299  44.486  28.812  11.531
43040W        W15300   6.869  42.169  13.880
43041W        W15301  11.284  14.259  14.467
43042W        W15302  34.665  19.763   0.392
43043W        W15303   6.244  27.144   3.609
43044W        W15304   4.823  33.067  14.698
43045W        W15305   3.711  19.184   1.826
43046W        W15306  24.567  30.104   2.834
43047W        W15307  19.708  33.962  13.948
43048W        W15308  23.509  19.549   2.159
43049W        W15309  23.479  37.118  14.804
43050W        W15310  44.840  18.861  12.134
43051W        W15311  11.757  21.217  11.064
43052W        W15312  38.981   9.661  13.508
43053W        W15313  28.924  44.984   4.075
43054W        W15314  30.030  41.550   3.732
43055W        W15315  32.209  26.564  13.323
43056W        W15316  40.072  42.126  13.547
43057W        W15317  11.750  43.991   2.724
43058W        W15318  41.281  16.503   3.010
43059W        W15319  25.177  12.298   0.391
43060W        W15320  32.845  18.149   1.273
43061W        W15321  44.446  36.341   0.970
43062W        W15322  39.338  42.273   3.817
43063W        W15323   0.673  20.654   0.051
43064W        W15324  40.551  18.791   2.414
43065W        W15325  44.477  20.313   1.211
43066W        W15326   4.545  40.312   4.369
43067W        W15327   3.798  13.254  11.485
43068W        W15328   6.400  43.496  12.459
43069W        W15329  25.942  13.908  14.559
43070W        W15330   0.342  40.259  10.568
43071W        W15331  40.799   2.082   0.507
43072W        W15332   4.382  44.101   3.933
43073W        W15333  22.436   0.289  13.757
43074W        W15334  32.891   3.117  13.423
43075W        W15335  26.187  19.092   2.353
43076W        W15336  36.525  10.662  12.474
43077W        W15337  19.295   5.663  13.036
43078W        W15338   6.308  31.999   1.358
43079W        W15339  24.676  23.153   4.211
43080W        W15340   7.334  31.088   1.280
43081W        W15341  14.149  14.291   0.899
43082W        W15342   5.862  13.918   2.722
43083W        W15343  20.421  19.759  14.874
43084W        W15344  39.298  25.586  10.653
43085W        W15345  35.965  21.020   4.349
43086W        W15346  24.078   9.386   1.228
43087W        W15347  10.330  34.295   1.964
43088W        W15348  36.401  40.874   4.586
43089W        W15349  33.355  16.237  13.334
43090W        W15350  31.842  22.486  13.428
43091W        W15351  23.468   8.793  11.046
43092W        W15352  29.433  18.148   1.350
43093W        W15353  26.707   6.272  14.751
43094W        W15354   3.748   6.860   0.986
43095W        W15355   9.673  38.759   1.851
43096W        W15356  25.457   4.576  11.168
43097W        W15357   8.718  35.325   0.459
43098W        W15358  22.379   9.384  10.855
43099W        W15359  28.914  41.336   0.338
43100W        W15360  17.215  39.296  10.692
43101W        W15361  16.162  16.293  14.951
43102W        W15362  33.235  12.271  14.345
43103W        W15363  44.252  43.575   2.633
43104W        W15364  25.460  10.184  13.017
43105W        W15365  19.456  18.733   0.383
43106W        W15366  42.322  18.744  13.737
43107W        W15367  40.015  27.900   0.838
43108W        W15368  10.307  14.093   4.198
43109W        W15369  41.394  40.064   0.858
43110W        W15370  13.604  39.963  13.406
43111W        W15371  42.564  23.939   0.929
43112W        W15372  22.743  13.242  12.419
43113W        W15373  18.277  28.480   0.899
43114W        W15374  32.549  32.382   2.984
43115W        W15375  41.280  25.000  14.923
43116W        W15376  29.094  34.807   4.083
43117W        W15377  17.150  42.974   1.262
43118W        W15378   6.430  44.983  11.124
43119W        W15379  36.468  37.443   1.192
43120W        W15380   2.335  29.005  12.780
43121W        W15381  29.954  25.796  12.929
43122W        W15382  15.029  38.417  12.560
43123W        W15383  28.708  24.494   3.140
43124W        W15384  33.065  29.173   4.001
43125W        W15385  24.760  12.743   1.368
43126W        W15386  12.300   7.414   4.630
43127W        W15387  39.779  39.632   2.862
43128W        W15388  17.703   4.045   4.716
43129W        W15389  27.341   4.385   4.456
43130W        W15390  33.963  38.118  14.961
43131W        W15391  40.919  25.403   2.801
43132W        W15392  40.556   7.809   0.055
43133W        W15393  29.559  15.661   0.661
43134W        W15394  17.356   7.265   5.463
43135W        W15395  39.978  17.877   4.447
43136W        W15396  38.426  26.327  14.913
43137W        W15397  42.875  44.196  10.797
43138W        W15398  38.422   2.188  13.080
43139W        W15399   3.495   1.789   4.688
43140W        W15400  22.184  44.324   3.618
43141W        W15401  17.259  41.271   3.778
43142W        W15402  27.705  23.783  10.333
43143W        W15403   1.460   8.649  14.293
43144W        W15404  36.347  22.513   3.343
43145W        W15405  33.637  39.956   2.789
43146W        W15406   5.203  37.934   0.441
43147W        W15407  20.040  37.167   4.153
43148W        W15408   3.327   2.691   4.292
43149W        W15409  34.007   5.528  11.595
43150W        W15410  44.573  30.543   0.712
43151W        W15411  19.904  21.067   5.035
43152W        W15412  15.237  34.163  14.533
43153W        W15413  21.771  41.364   3.664
43154W        W15414   7.878  28.169   1.477
43155W        W15415  32.716   7.803  14.760
43156W        W15416   4.341  27.535  14.293
43157W        W15417  28.438  41.514   2.780
43158W        W15418  24.670   3.704  12.025
43159W        W15419   3.713   2.410  12.502
43160W        W15420  15.298  14.793   3.812
43161W        W15421   9.926   8.219   2.916
43162W        W15422  34.108  24.183  11.506
43163W        W15423  40.304  25.441   2.174
43164W        W15424   6.200  26.651   1.336
43165W        W15425  42.063  37.276   2.219
43166W        W15426  27.449  44.273   2.867
43167W        W15427  33.903  43.416   1.285
43168W        W15428  11.075  25.669  13.995
43169W        W15429  26.348   4.740  10.028
43170W        W15430  23.504  17.220   1.201
43171W        W15431  42.623   9.025   1.281
43172W        W15432  33.056  43.831   3.939
43173W        W15433  20.318  18.559   2.699
43174W        W15434  39.409  15.192  14.953
43175W        W15435  39.885  31.943   4.090
43176W        W15436  38.141  14.138  12.876
43177W        W15437  45.000   8.847  12.582
43178W        W15438  34.485  10.649   4.186
43179W        W15439  34.937   3.808  14.960
43180W        W15440  14.155  39.166  14.852
43181W        W15441   4.776   5.070   1.859
43182W        W15442   0.104  25.107   3.180
43183W        W15443  21.614  40.900   4.552
43184W        W15444   3.586  21.964  14.745
43185W        W15445  43.374  37.572   4.619
43186W        W15446  11.111  23.711   4.071
43187W        W15447  12.571  16.177  11.561
43188W        W15448  23.055  32.045   0.517
43189W        W15449  40.321   0.115  12.055
43190W        W15450  35.379  18.152   1.854
43191W        W15451   0.999  12.690  13.092
43192W        W15452   9.756  15.035  11.542
43193W        W15453  39.250  30.966   4.109
43194W        W15454  32.498   5.593  13.036
43195W        W15455   7.929  26.433   4.543
43196W        W15456  28.643   1.659  12.844
43197W        W15457  43.533  11.316   0.204
43198W        W15458   6.960   8.716   0.213
43199W        W15459  43.344  16.631   0.413
43200W        W15460  10.896   6.329   4.600
43201W        W15461   0.827  28.260  11.183
43202W        W15462  12.199  43.203   4.062
43203W        W15463  26.795  14.262   3.152
43204W        W15464   5.735  13.668   4.149
43205W        W15465   3.508   9.892  14.280
43206W        W15466   3.767  37.340   0.660
43207W        W15467  35.834  20.226   3.153
43208W        W15468  20.140  44.142  10.954
43209W        W15469   5.313  26.133   9.790
43210W        W15470  41.479  39.527   3.283
43211W        W15471  13.103  20.231   1.457
43212W        W15472  26.927  41.127   3.660
43213W        W15473  27.429   3.835   0.357
43214W        W15474   6.645  19.877   4.062
43215W        W15475   5.747  43.289   4.117
43216W        W15476  41.462  36.511  11.266
43217W        W15477  35.065  33.391   4.617
43218W        W15478   2.310  34.687   0.310
43219W        W15479  21.238   6.720   0.414
43220W        W15480   9.414  15.552   1.515
43221W        W15481   9.203   5.155  11.960
43222W        W15482  39.909  13.225   3.861
43223W        W15483  40.446  18.328   2.230
43224W        W15484  37.008  27.393   2.760
43225W        W15485  23.671  43.340  12.512
43226W        W15486  39.825  44.463  14.059
43227W        W15487  20.964   4.571  11.642
43228W        W15488  13.316  32.616  11.058
43229W        W15489  27.388  37.367  13.782
43230W        W15490  38.773  37.039   2.139
43231W        W15491   9.656   2.479   1.878
43232W        W15492  22.224  16.135  13.853
43233W        W15493  24.153  27.951  14.864
43234W        W15494  10.572  44.368  12.917
43235W        W15495   4.654   6.454   2.855
43236W        W15496  44.267   3.222  10.643
43237W        W15497  15.255  30.394   0.860
43238W        W15498  42.059  33.312   4.192
43239W        W15499  40.419  11.355  11.557
43240W        W15500   3.973  41.307   2.483
43241W        W15501  22.192   8.329   2.428
43242W        W15502   0.921   7.899   2.784
43243W        W15503  23.151  28.056  13.598
43244W        W15504  34.568  25.616   2.419
43245W        W15505  15.359   3.667  12.602
43246W        W15506  44.469  34.118  10.721
43247W        W15507  24.115  24.713  13.920
43248W        W15508  38.231   5.751  14.193
43249W        W15509  12.651  43.213  10.577
43250W        W15510   2.861  24.718  11.593
43251W        W15511  17.746  17.851   3.172
43252W        W15512  41.549   9.698   0.802
43253W        W15513  24.135   5.811  10.564
43254W        W15514   4.705  13.609   2.263
43255W        W15515  30.915  22.776   5.015
43256W        W15516  23.572  44.545  14.496
43257W        W15517  20.658  29.621   4.883
43258W        W15518  15.852  32.135  13.573
43259W        W15519  27.149  36.919  12.098
43260W        W15520  19.713  40.604   3.402
43261W        W15521  22.082  41.139   3.221
43262W        W15522  20.767  10.293  10.126
43263W        W15523  31.775  36.994  11.260
43264W        W15524   4.042   2.506   1.711
43265W        W15525  44.942  33.976   3.648
43266W        W15526  27.599  35.114  14.538
43267W        W15527  26.705  40.471  14.837
43268W        W15528  35.996  23.140  14.877
43269W        W15529  35.139  14.217  12.880
43270W        W15530   7.791  19.830   2.286
43271W        W15531  44.855  34.502   4.548
43272W        W15532  16.476  23.698   3.084
43273W        W15533  24.407  30.785   1.065
43274W        W15534  29.050  13.859   5.009
43275W        W15535   2.012  30.708  13.638
43276W        W15536  26.442  19.612  13.425
43277W        W15537  19.891   1.787   3.862
43278W        W15538  43.461  29.997  11.289
43279W        W15539  25.467  13.909   1.418
43280W        W15540   7.416  42.338   0.901
43281W        W15541  15.354  35.143   1.315
43282W        W15542  15.219  44.227  11.603
43283W        W15543  13.556   7.432  10.647
43284W        W15544  42.575  17.678  14.803
43285W        W15545  34.134  32.638  11.085
43286W        W15546   4.741   2.206  13.540
43287W        W15547  17.101  41.475   2.066
43288W        W15548  19.327  43.947  13.835
43289W        W15549  30.467   2.635   1.256
43290W        W15550  26.012  11.156   1.672
43291W        W15551  17.546  26.597  11.621
43292W        W15552  38.540  29.886   3.732
43293W        W15553  27.382  13.672   4.891
43294W        W15554  14.375  36.949   2.173
43295W        W15555   1.222  17.151  12.515
43296W        W15556  43.565  11.208  12.189
43297W        W15557  42.973  31.508  10.791
43298W        W15558  42.749  31.698  14.818
43299W        W15559  31.556  28.654  11.572
43300W        W15560   3.187   4.751   0.464
43301W        W15561   9.934  18.755   0.395
43302W        W15562  15.733   7.941   2.344
43303W        W15563  14.997  38.896  12.061
43304W        W15564  34.082  36.032  10.743
43305W        W15565  25.716   3.874  14.924
43306W        W15566  40.367  27.913   2.095
43307W        W15567   0.831  16.290   3.429
43308W        W15568   2.316  19.603   2.810
43309W        W15569  15.898  25.100   4.206
43310W        W15570  34.349   0.372  14.409
43311W        W15571  28.988  22.738   3.459
43312W        W15572  41.409  32.633  13.927
43313W        W15573   0.428   2.788  11.331
43314W        W15574   9.163  17.705   0.117
43315W        W15575  17.841  27.979   0.384
43316W        W15576  40.742   5.350  12.912
43317W        W15577  19.155  35.456   3.684
43318W        W15578  40.078  40.440  13.399
43319W        W15579   3.492  14.713  13.409
43320W        W15580  19.159  35.041   2.512
43321W        W15581  30.438  43.554  11.954
43322W        W15582  21.580  15.731  13.810
43323W        W15583   6.946  17.706   2.374
43324W        W15584  25.783  20.127  11.925
43325W        W15585  30.827   7.624  13.119
43326W        W15586   3.316  36.067  13.551
43327W        W15587  31.657  26.976   1.777
43328W        W15588  38.131  27.976   9.964
43329W        W15589  40.340  30.233  14.239
43330W        W15590  28.716  24.154   0.756
43331W        W15591  10.092  16.453  10.015
43332W        W15592  16.086  43.842   4.549
43333W        W15593  42.269   3.469   4.169
43334W        W15594  34.615   9.278   2.463
43335W        W15595  40.782  37.821  13.488
43336W        W15596  30.113  16.964   2.773
43337W        W15597  44.076   1.290   3.652
43338W        W15598  37.981  34.511  13.400
43339W        W15599  21.501   1.546   1.509
43340W        W15600   3.838  15.345   4.593
43341W        W15601   1.705  17.895  13.474
43342W        W15602  35.106  36.480   2.163
43343W        W15603  19.777  11.398  11.093
43344W        W15604   1.027  33.374  13.992
43345W        W15605  38.090  26.875   1.448
43346W        W15606  30.408  39.555  13.783
43347W        W15607  37.460  27.565  12.837
43348W        W15608   3.353   5.759   0.453
43349W        W15609   1.728  34.863   3.581
43350W        W15610  12.591  12.696   4.086
43351W        W15611  19.264  29.687  10.802
43352W        W15612   4.918  27.670   3.307
43353W        W15613  30.603  11.714   3.261
43354W        W15614  40.333  25.498   3.594
43355W        W15615  11.880   0.024  11.303
43356W        W15616  33.574   6.801   2.884
43357W        W15617  40.468   0.903  12.624
43358W        W15618  12.232  10.374   2.434
43359W        W15619  16.302  17.595   3.293
43360W        W15620  42.081  41.565  14.045
43361W        W15621  41.392  33.110  14.127
43362W        W15622   6.365  28.006  10.983
43363W        W15623   0.508  22.382   1.216
43364W        W15624  44.365   9.258  11.173
43365W        W15625  21.081  35.493   3.206
43366W        W15626  29.975  19.092  12.037
43367W        W15627  25.172   8.430   3.914
43368W        W15628  33.488  27.908   1.119
43369W        W15629  28.419  31.451   2.742
43370W        W15630  18.271  28.527  12.956
43371W        W15631  43.311  16.539   2.623
43372W        W15632   5.280   1.140   0.327
43373W        W15633  26.139  19.955  12.471
43374W        W15634  23.922  38.255  14.191
43375W        W15635   9.381  34.430  11.599
43376W        W15636  39.947  22.773   3.548
43377W        W15637  33.635  15.272   4.833
43378W        W15638  35.004  41.563   0.276
43379W        W15639  23.555  27.732   4.551
43380W        W15640  39.999  24.508  12.963
43381W        W15641   4.914  15.299   3.597
43382W        W15642   5.470   2.345   1.890
43383W        W15643  39.815  27.982   1.716
43384W        W15644   3.452  42.277  10.889
43385W        W15645  23.002  21.032   0.640
43386W        W15646  13.624  26.444   2.713
43387W        W15647  18.678  12.244  12.005
43388W        W15648   4.955  43.695  10.026
43389W        W15649  26.514   1.933  13.224
43390W        W15650  41.342   9.339  11.261
43391W        W15651   6.967  43.198   2.711
43392W        W15652  11.099  15.144   2.191
43393W        W15653  10.190  20.091   1.834
43394W        W15654   1.133  37.897  11.936
43395W        W15655  23.394  19.719   4.098
43396W        W15656  29.434  29.208   4.164
43397W        W15657  17.192  16.320  14.328
43398W        W15658  23.718   4.697   2.243
43399W        W15659  38.746  12.573   1.917
43400W        W15660   3.179  40.593   0.673
43401W        W15661  42.297  24.690  10.524
43402W        W15662  37.381  19.268  14.098
43403W        W15663  22.410  14.547   2.170
43404W        W15664  27.092  22.068  13.347
43405W        W15665  12.609   1.415   3.235
43406W        W15666  29.716  37.985   2.725
43407W        W15667  10.567  26.019  10.676
43408W        W15668  11.381   1.269  14.260
43409W        W15669   2.828  17.530  14.296
43410W        W15670  25.749   6.978  13.842
43411W        W15671  32.509  33.168  10.491
43412W        W15672   4.332  32.572  12.776
43413W        W15673  32.122  14.908   2.212
43414W        W15674  15.244   0.066   0.087
43415W        W15675   1.317  25.496  14.906
43416W        W15676  19.637  41.038   3.693
43417W        W15677  26.796  35.679   1.696
43418W        W15678  39.071   9.414  13.979
43419W        W15679  37.094  41.784  14.976
43420W        W15680   3.239   0.350   1.301
43421W        W15681   0.721   1.178   0.918
43422W        W15682  19.036  40.369  12.106
43423W        W15683   8.440  29.834  12.955
43424W        W15684   4.290  38.816  14.953
43425W        W15685   2.756   8.704  11.619
43426W        W15686   6.174  33.712   2.720
43427W        W15687  35.600  24.726   1.789
43428W        W15688  34.083  32.492  13.492
43429W        W15689  10.132   7.583  10.769
43430W        W15690   5.341  31.997   1.764
43431W        W15691  37.532   7.733  10.572
43432W        W15692  34.835   5.934  11.098
43433W        W15693  10.922  33.999  11.074
43434W        W15694  26.461  40.067   4.979
43435W        W15695   8.879   4.212   0.271
43436W        W15696  39.910  35.578  14.686
43437W        W15697  33.716   3.866   0.374
43438W        W15698   2.042  16.689  12.145
43439W        W15699  37.431  10.795  13.575
43440W        W15700  19.332   4.449   4.542
43441W        W15701  18.662   1.411   0.849
43442W        W15702   3.862  30.554  11.062
43443W        W15703  41.368  13.461  14.060
43444W        W15704  41.342   2.925   4.100
43445W        W15705  36.741   2.908   1.234
43446W        W15706  13.765  11.564  14.509
43447W        W15707  26.459   3.556  11.497
43448W        W15708  10.344  26.685   3.690
43449W        W15709  19.349  13.717   4.141
43450W        W15710  28.960  32.645  11.234
43451W        W15711  18.798  19.641  11.005
43452W        W15712  39.767  30.959   2.661
43453W        W15713  41.819  44.006   0.341
43454W        W15714  40.630  30.583  14.512
43455W        W15715   7.681  39.549   3.520
43456W        W15716  33.542  15.175   2.001
43457W        W15717  21.776  38.111   3.693
43458W        W15718  20.133   9.133  14.379
43459W        W15719   9.141  13.034   4.839
43460W        W15720  24.577  28.399  11.595
43461W        W15721  41.774  24.500   1.770
43462W        W15722  30.873  15.822   3.323
43463W        W15723   1.285  34.781  12.798
43464W        W15724  24.638   4.897   4.886
43465W        W15725   1.194  33.425  12.040
43466W        W15726  39.315   7.959  13.878
43467W        W15727  24.713  24.651  13.040
43468W        W15728  18.128  16.291  11.991
43469W        W15729  44.680  22.884   0.342
43470W        W15730  43.605   4.496   0.414
43471W        W15731   2.034  20.131   4.654
43472W        W15732  13.829  17.393  10.045
43473W        W15733  16.749  12.983  12.529
43474W        W15734  39.518  14.746   4.479
43475W        W15735   4.669  11.053   1.735
43476W        W15736  19.618  29.262   1.339
43477W        W15737  23.977  29.338  11.197
43478W        W15738  41.892   8.244   1.341
43479W        W15739  44.781   5.143   4.102
43480W        W15740  23.563  23.708   1.699
43481W        W15741  34.446   2.847  12.049
43482W        W15742  31.579  34.919   2.213
43483W        W15743   6.951  26.060   3.680
43484W        W15744  42.407  32.050   1.254
43485W        W15745   6.256  26.696   3.344
43486W        W15746   1.029  22.295   0.559
43487W        W15747   6.817  31.929  12.434
43488W        W15748  17.722  26.686  12.103
43489W        W15749   6.433  36.553   4.597
43490W        W15750   5.134  10.336  13.727
43491W        W15751  34.052   7.837  13.045
43492W        W15752  20.901   1.250   3.352
43493W        W15753  42.882  20.873  11.890
43494W        W15754  15.409  24.755  12.451
43495W        W15755  22.598  37.974  10.562
43496W        W15756  17.344  18.200   1.422
43497W        W15757   9.279  41.418  10.329
43498W        W15758   4.940  37.858   2.851
43499W        W15759  32.912   1.255   0.247
43500W        W15760  12.767  17.628  13.101
43501W        W15761  21.067  23.242   3.703
43502W        W15762  44.491  44.018  13.432
43503W        W15763  12.652   0.886   3.278
43504W        W15764   8.611   1.305  12.666
43505W        W15765  21.302  38.131   3.899
43506W        W15766   7.897  20.862  11.885
43507W        W15767   2.650  22.796  11.514
43508W        W15768  25.613  19.103   0.980
43509W        W15769  25.101  26.919  11.910
43510W        W15770  38.383   6.620   5.140
43511W        W15771  26.657  11.333   2.400
43512W        W15772  13.543   0.156   0.392
43513W        W15773  40.832  30.874  13.950
43514W        W15774  24.367   8.064   2.775
43515W        W15775  17.395  23.027  14.569
43516W        W15776   9.656  30.514  14.706
43517W        W15777  41.290  25.969  11.681
43518W        W15778  23.627  17.645   3.863
43519W        W15779  25.608   5.202   3.840
43520W        W15780  38.579   2.696  11.654
43521W        W15781  37.926  43.280  11.066
43522W        W15782  29.049  31.004  11.379
43523W        W15783   3.801  33.068   0.714
43524W        W15784   8.390  14.357   3.258
43525W        W15785  38.911  23.551   1.289
43526W        W15786  11.434  31.880  11.020
43527W        W15787  14.611   0.973   0.460
43528W        W15788  18.444  40.163  10.971
43529W        W15789  35.460  16.514  14.813
43530W        W15790  39.744  29.045  14.525
43531W        W15791  23.054   2.784  14.397
43532W        W15792   3.715  22.258   4.528
43533W        W15793  23.809  42.059   4.185
43534W        W15794  19.077  24.860  11.117
43535W        W15795  28.705  19.567   1.286
43536W        W15796  35.145  15.788  10.281
43537W        W15797   8.148  12.281  11.989
43538W        W15798  21.095  39.732  14.235
43539W        W15799   3.796  21.050   2.620
43540W        W15800  12.778  29.657  10.580
43541W        W15801  42.838  21.555  14.311
43542W        W15802  13.220  16.316   5.007
43543W        W15803  20.825  38.898  10.751
43544W        W15804  31.468  29.974   1.763
43545W        W15805  23.546  13.625   4.383
43546W        W15806  15.853  10.876   0.978
43547W        W15807  13.529  18.832   3.676
43548W        W15808   6.286  10.466  11.111
43549W        W15809   9.408   8.895  11.112
43550W        W15810  10.572  42.705  14.023
43551W        W15811  26.266   1.478  11.478
43552W        W15812  20.518  21.880   3.829
43553W        W15813  23.046  37.959  11.688
43554W        W15814  11.021  18.667  11.889
43555W        W15815  28.241   6.429   4.635
43556W        W15816  33.244  10.358  11.096
43557W        W15817   2.782  33.213   4.763
43558W        W15818  19.091  18.572   0.013
43559W        W15819  31.246   0.901   0.701
43560W        W15820   7.871  21.051   0.742
43561W        W15821  16.137  34.441  10.595
43562W        W15822  12.698  18.088  13.372
43563W        W15823   6.357  17.396  11.308
43564W        W15824  26.660  26.310  10.109
43565W        W15825  28.073  24.315   2.876
43566W        W15826  14.817   6.747   0.347
43567W        W15827  29.783  19.406  11.164
43568W        W15828   7.848  24.916  10.961
43569W        W15829  22.818   7.359  10.228
43570W        W15830  34.525  18.067  10.915
43571W        W15831  27.965  44.268   2.302
43572W        W15832  30.116  29.159   2.328
43573W        W15833  24.348  29.378  11.550
43574W        W15834  34.814   4.649  13.999
43575W        W15835  40.002   7.165  14.193
43576W        W15836  20.210  32.901  14.843
43577W        W15837  16.753  38.331  11.073
43578W        W15838  25.834  33.143  13.478
43579W        W15839  14.613  27.904   4.063
43580W        W15840  18.677  40.392   4.647
43581W        W15841   5.318  18.484  12.041
43582W        W15842   1.440  27.116  14.589
43583W        W15843  26.682  38.042   3.165
43584W        W15844  18.487  41.972   0.788
43585W        W15845  26.988  44.267   3.168
43586W        W15846  11.694  33.594   1.284
43587W        W15847  27.198  14.598  13.531
43588W        W15848  43.465   7.446   1.444
43589W        W15849  20.638   2.939  10.903
43590W        W15850   4.703  19.065   0.059
43591W        W15851  16.969  28.040  13.353
43592W        W15852  34.659  42.493  11.182
43593W        W15853   1.378  20.740  12.232
43594W        W15854  24.816  31.638   3.371
43595W        W15855  26.232  10.617  14.275
43596W        W15856  38.390  26.933  10.615
43597W        W15857  10.943  16.464  14.720
43598W        W15858  13.633  18.374   3.854
43599W        W15859  23.149   7.416  13.999
43600W        W15860   0.172  32.024  12.582
43601W        W15861  39.959  39.061  13.371
43602W        W15862  17.816  24.222   3.925
43603W        W15863  18.315  15.091  12.779
43604W        W15864  24.545  27.062   4.908
43605W        W15865  31.758  16.515  11.584
43606W        W15866   3.146  38.049   3.866
43607W        W15867  20.511  20.280   1.315
43608W        W15868   6.800  19.740   2.293
43609W        W15869  10.251  32.746   3.333
43610W        W15870   1.818  13.619   1.864
43611W        W15871   4.729   6.597  10.724
43612W        W15872  19.817  14.053   2.770
43613W        W15873  43.330   4.858  11.084
43614W        W15874   0.438  38.334   1.434
43615W        W15875  12.294  12.251  10.631
43616W        W15876  34.025  14.173   2.941
43617W        W15877   5.250  18.961  13.401
43618W        W15878   2.969   8.419   3.602
43619W        W15879  10.632  43.439  13.484
43620W        W15880  11.613  39.422   0.365
43621W        W15881  13.526   7.473  14.836
43622W        W15882  41.573  12.507   1.597
43623W        W15883   8.782  28.089  14.233
43624W        W15884  40.254  25.670   0.865
43625W        W15885  19.513   5.761  14.260
43626W        W15886  30.139   2.416   0.350
43627W        W15887  44.821   8.427   0.347
43628W        W15888  31.642  40.086  12.623
43629W        W15889  24.545  40.591   4.575
43630W        W15890  12.491  36.873   1.718
43631W        W15891   2.762  13.326  14.260
43632W        W15892  12.140  15.164  10.861
43633W        W15893  25.471  20.343   1.758
43634W        W15894  26.488  33.781  13.297
43635W        W15895  28.057   3.161   1.297
43636W        W15896  33.375  15.650   2.232
43637W        W15897  28.136  28.555  12.446
43638W        W15898  28.708  13.213  14.342
43639W        W15899   6.105  17.159  14.030
43640W        W15900   9.746  23.041  11.435
43641W        W15901  25.713  41.461  11.053
43642W        W15902  29.897   4.874  12.912
43643W        W15903  42.299   1.355   2.614
43644W        W15904  44.831  10.852  14.939
43645W        W15905  17.741   5.871   2.134
43646W        W15906  17.003  41.695   3.509
43647W        W15907  22.929  11.078  11.252
43648W        W15908  42.876  32.192  14.926
43649W        W15909  34.841  16.001  10.649
43650W        W15910  39.499  37.030   0.694
43651W        W15911  31.133  36.468  12.434
43652W        W15912  40.840  16.191  10.720
43653W        W15913   5.250  34.077  11.529
43654W        W15914  17.676  15.341  12.068
43655W        W15915  32.947  43.289   3.223
43656W        W15916   1.019  17.301  10.670
43657W        W15917   1.354  40.092   4.553
43658W        W15918  20.545   4.845  14.264
43659W        W15919  36.067  26.229   1.275
43660W        W15920  32.848   7.486   0.351
43661W        W15921  16.346  12.185  10.815
43662W        W15922  19.563   6.137   0.433
43663W        W15923  34.196  11.082   4.317
43664W        W15924   0.812   0.234   3.206
43665W        W15925  33.823  43.591   2.836
43666W        W15926   7.990  11.326   3.587
43667W        W15927  20.495  15.065   2.808
43668W        W15928  41.597  19.159   2.132
43669W        W15929  23.889  10.298  13.988
43670W        W15930  11.919  40.449   1.381
43671W        W15931  12.609  21.327  14.639
43672W        W15932  40.209  20.458   3.075
43673W        W15933  20.885  44.205  12.433
43674W        W15934  18.242  43.498  13.818
43675W        W15935   8.834   6.775   0.613
43676W        W15936   4.252  34.640   3.269
43677W        W15937  43.981  38.928  13.380
43678W        W15938  42.075   6.864   0.464
43679W        W15939   3.901   7.950   4.105
43680W        W15940  25.165  34.904  14.833
43681W        W15941  27.466  17.630  14.795
43682W        W15942  42.855  33.949  14.455
43683W        W15943  42.795   8.293   0.330
43684W        W15944  27.017  23.518   2.102
43685W        W15945  32.588  34.609   2.224
43686W        W15946  27.483  22.951  11.986
43687W        W15947  26.017   6.245   4.375
43688W        W15948   5.787  21.226  12.565
43689W        W15949  42.424  34.415   0.285
43690W        W15950  37.609  43.705   1.386
43691W        W15951  30.413  34.841   3.840
43692W        W15952  21.110  19.149  13.782
43693W        W15953  35.931  30.432   3.806
43694W        W15954  43.473  30.117  13.069
43695W        W15955  29.236   6.520  14.454
43696W        W15956  24.160   9.717   4.701
43697W        W15957   5.384   4.905  13.427
43698W        W15958  15.277  29.616   3.400
43699W        W15959  13.771  25.568  13.998
43700W        W15960   3.240  44.426   0.348
43701W        W15961  35.188   0.065   0.414
43702W        W15962  34.592  33.029   2.298
43703W        W15963  35.162  19.291   2.753
43704W        W15964  25.418  24.007   3.327
43705W        W15965  14.055  25.983   0.108
43706W        W15966  28.124   7.466  13.748
43707W        W15967   0.502  40.420  11.059
43708W        W15968  16.063  18.835   5.026
43709W        W15969  11.817  36.035   4.992
43710W        W15970  29.021  19.773   3.258
43711W        W15971  44.776  31.628  13.780
43712W        W15972  14.570  38.533  12.361
43713W        W15973  30.860  32.761  13.042
43714W        W15974  32.075  14.186   1.259
43715W        W15975  33.685  22.392  11.188
43716W        W15976  36.343  37.394   1.684
43717W        W15977  10.787  35.017  12.152
43718W        W15978  14.162  26.591  12.942
43719W        W15979  35.600  41.289   3.691
43720W        W15980  24.260  34.631   1.705
43721W        W15981  17.650   1.755  13.994
43722W        W15982  28.756  11.082   3.156
43723W        W15983  31.580   4.407   0.264
43724W        W15984   6.662  18.606   3.916
43725W        W15985  43.258  37.837   0.551
43726W        W15986  25.752  29.589  12.526
43727W        W15987  37.062  23.066  12.952
43728W        W15988   2.384  20.792   3.463
43729W        W15989  39.150   9.585   4.190
43730W        W15990  44.957   6.240   4.213
43731W        W15991  12.155   8.753  13.765
43732W        W15992   2.554  15.372  11.083
43733W        W15993  29.097  35.912  12.108
43734W        W15994  11.570   2.579   0.291
43735W        W15995  27.592  38.815  13.806
43736W        W15996   2.476  19.604  12.966
43737W        W15997   6.372  29.023   1.421
43738W        W15998  11.472  40.536   2.719
43739W        W15999  26.722   1.257   1.553
43740W        W16000   8.241  29.029  10.350
43741W        W16001  15.050  10.898  12.453
43742W        W16002   3.906  16.534  11.701
43743W        W16003   4.679  39.332   0.609
43744W        W16004   7.668  30.139   2.192
43745W        W16005  17.911   6.195   3.315
43746W        W16006  16.963  26.384   4.987
43747W        W16007  37.475  35.969  14.099
43748W        W16008  34.135  40.068  13.291
43749W        W16009  43.123  34.235   5.022
43750W        W16010  11.762  31.852   1.231
43751W        W16011   8.104  39.137   3.687
43752W        W16012   1.326  11.607   3.964
43753W        W16013  40.641  38.063   0.435
43754W        W16014  43.801  26.088   4.677
43755W        W16015  43.181  20.041  12.078
43756W        W16016  12.247  33.871   4.223
43757W        W16017  33.621  44.474   2.930
43758W        W16018  27.062  18.562  10.520
43759W        W16019   1.778   1.221   4.655
43760W        W16020   4.044  13.787   1.680
43761W        W16021  10.252  43.518  12.492
43762W        W16022  15.581  31.968   4.485
43763W        W16023  15.245  39.990   1.720
43764W        W16024  30.915  21.746   0.186
43765W        W16025  37.594  41.091   1.173
43766W        W16026  30.466  37.845  13.411
43767W        W16027  24.216  25.395   0.896
43768W        W16028  31.895  38.276   2.371
43769W        W16029   7.196  19.309  11.657
43770W        W16030  20.789  42.951  13.787
43771W        W16031  20.676  40.913  13.399
43772W        W16032   4.111  32.433   1.206
43773W        W16033   7.418  32.629   4.193
43774W        W16034  31.257  38.317   5.088
43775W        W16035  40.806  43.035  11.636
43776W        W16036  20.700  34.107  10.687
43777W        W16037  24.366   8.371   0.265
43778W        W16038   2.905   3.812   3.620
43779W        W16039  40.282  29.941  12.875
43780W        W16040   2.682   7.765   1.261
43781W        W16041  22.779  21.772   4.146
43782W        W16042  13.215  27.555   1.865
43783W        W16043  23.547   7.227   1.765
43784W        W16044  16.312  39.381  14.320
43785W        W16045  37.526  32.476   3.826
43786W        W16046  44.317  21.109  11.894
43787W        W16047  17.297   0.633  12.006
43788W        W16048  29.932  29.709  11.623
43789W        W16049   2.019   1.816  11.912
43790W        W16050   5.257  16.287   4.194
43791W        W16051  29.630  10.335  12.055
43792W        W16052  43.994  33.092  13.438
43793W        W16053   0.387  31.169   1.329
43794W        W16054  28.727   0.952   0.269
43795W        W16055   6.842  32.459   0.692
43796W        W16056  16.086  26.221   4.739
43797W        W16057  17.140  42.457   3.192
43798W        W16058  11.194  32.505  14.732
43799W        W16059  27.493  16.240  11.423
43800W        W16060  40.346  35.565  14.078
43801W        W16061  28.371  38.643  11.648
43802W        W16062  24.772   9.312  12.103
43803W        W16063  38.983  33.397   4.505
43804W        W16064  34.956  21.551   3.727
43805W        W16065  20.593  30.476  13.332
43806W        W16066   2.251  24.300  11.082
43807W        W16067  28.387  34.468   3.653
43808W        W16068  35.543   6.820   2.227
43809W        W16069  24.253  36.007   4.688
43810W        W16070  35.470  37.859   1.935
43811W        W16071  36.147  19.621  13.120
43812W        W16072   6.524  18.770  14.776
43813W        W16073  13.284  12.778  12.240
43814W        W16074  17.264  42.536  11.935
43815W        W16075  22.499  20.935  12.554
43816W        W16076  19.526   1.406  11.600
43817W        W16077   0.680  13.402  14.380
43818W        W16078  35.963  13.897   2.105
43819W        W16079  10.494  44.428  10.657
43820W        W16080   5.129  27.028   2.768
43821W        W16081   6.122  15.821   0.856
43822W        W16082   5.761  35.342   4.582
43823W        W16083   2.871   2.664  12.047
43824W        W16084  31.741  41.949  12.544
43825W        W16085  24.415   5.570   2.267
43826W        W16086  24.522   8.341  12.499
43827W        W16087  28.408  28.560   3.631
43828W        W16088  16.373   3.258   1.502
43829W        W16089  44.971  42.909  14.828
43830W        W16090  14.381  17.581   9.998
43831W        W16091  42.733  10.444  13.509
43832W        W16092  27.977  41.691  14.648
43833W        W16093  39.048   2.892   4.689
43834W        W16094  33.551  30.145  13.491
43835W        W16095  19.484  13.808  12.542
43836W        W16096  26.348  37.832   3.513
43837W        W16097  22.579   5.045  14.772
43838W        W16098  32.580  44.377   3.785
43839W        W16099  21.934  28.845   5.120
43840W        W16100  36.329  18.553  14.239
43841W        W16101  37.459  43.390   4.045
43842W        W16102   7.948  27.663   3.250
43843W        W16103  28.380  13.610   3.071
43844W        W16104  27.620  28.080   4.607
43845W        W16105   9.781  19.333   4.612
43846W        W16106  43.324  36.081  13.974
43847W        W16107  21.157  10.503  14.101
43848W        W16108  11.690  17.254   3.314
43849W        W16109  13.243  38.285   4.177
43850W        W16110  32.142  41.294   2.224
43851W        W16111  15.299   7.962  11.104
43852W        W16112  37.466  26.989  14.873
43853W        W16113   4.367  34.956  12.647
43854W        W16114  33.874   8.403   2.320
43855W        W16115   6.301  29.909  10.863
43856W        W16116  25.343   3.456   4.628
43857W        W16117  11.697  22.607   3.618
43858W        W16118  22.129  17.128   1.170
43859W        W16119  44.116   7.021  11.680
43860W        W16120   3.379   0.520  10.750
43861W        W16121  24.947   7.392  14.500
43862W        W16122   7.352  19.518  10.710
43863W        W16123  30.112   1.274  10.796
43864W        W16124  32.377  38.939  11.198
43865W        W16125   1.367  27.389  12.944
43866W        W16126  20.546  33.677   3.757
43867W        W16127  33.506   3.900   3.679
43868W        W16128  13.201  31.085   2.388
43869W        W16129  19.977  34.090  11.226
43870W        W16130  25.318  13.124   0.788
43871W        W16131   6.775  33.917   2.231
43872W        W16132   8.342   0.731   0.085
43873W        W16133   2.539  33.171   2.111
43874W        W16134  27.895  18.232  13.594
43875W        W16135  10.424  14.837   0.360
43876W        W16136  12.527  43.776  14.916
43877W        W16137  41.291  17.104   1.713
43878W        W16138  22.242  12.075   4.175
43879W        W16139  39.089   0.620   0.238
43880W        W16140   7.916   0.839  14.806
43881W        W16141   6.921   6.737  14.483
43882W        W16142  44.401  37.547  12.486
43883W        W16143   6.336  30.391   3.815
43884W        W16144   8.280  21.742  13.356
43885W        W16145  25.758  12.193   1.886
43886W        W16146   7.663  18.669  10.438
43887W        W16147  30.721  10.562  12.372
43888W        W16148   6.139  16.393  14.475
43889W        W16149  30.849  10.851   2.685
43890W        W16150   7.676  12.193  12.881
43891W        W16151  14.874   0.322  12.523
43892W        W16152  41.224  25.364  12.560
43893W        W16153  18.153  19.235   3.529
43894W        W16154  21.571  39.641  14.005
43895W        W16155  26.476  31.322  12.404
43896W        W16156  27.452  32.922   2.324
43897W        W16157   0.772   7.974   0.458
43898W        W16158  21.078   1.789   1.202
43899W        W16159   3.016  40.004  13.332
43900W        W16160  35.324  40.526   3.207
43901W        W16161  33.331  35.948  13.863
43902W        W16162  32.726   6.269  10.686
43903W        W16163  43.902  21.068   4.546
43904W        W16164  10.269   7.891   2.529
43905W        W16165  29.567  21.485   4.755
43906W        W16166  28.710  22.192  13.991
43907W        W16167  24.982  20.750  14.520
43908W        W16168  34.399  19.521   2.292
43909W        W16169   3.355   0.370   0.228
43910W        W16170  10.543  19.096  13.993
43911W        W16171  41.225   1.011  10.985
43912W        W16172  14.092  28.050   3.208
43913W        W16173  14.165  33.042   2.358
43914W        W16174  28.092  10.106   0.738
43915W        W16175  31.926  11.853  13.507
43916W        W16176  41.972  22.406   3.304
43917W        W16177  26.108  24.246   0.656
43918W        W16178  25.232  23.208  11.486
43919W        W16179   8.799   6.489   3.246
43920W        W16180  29.635  35.951   1.538
43921W        W16181   7.715  41.579  14.034
43922W        W16182   7.396  41.261  14.926
43923W        W16183  18.757  44.860   1.411
43924W        W16184  40.002  24.044   3.429
43925W        W16185   0.931  22.620   2.294
43926W        W16186   5.799  33.885  13.903
43927W        W16187  16.543  19.588  11.686
43928W        W16188  43.703   7.852  14.301
43929W        W16189  30.046  36.375  13.959
43930W        W16190  38.552  29.548  11.113
43931W        W16191   9.399  41.453   2.232
43932W        W16192   1.252  44.772   1.717
43933W        W16193  10.115  11.273   3.249
43934W        W16194  30.690  27.575  12.663
43935W        W16195  16.116  42.057  12.404
43936W        W16196  40.066   6.011  12.501
43937W        W16197  29.740  40.965   0.253
43938W        W16198  39.504  31.802  14.727
43939W        W16199  33.030  36.130  10.474
43940W        W16200  23.222  37.476   0.393
43941W        W16201  16.582  19.956  12.117
43942W        W16202  13.439   7.119  10.258
43943W        W16203  40.523  40.381  14.931
43944W        W16204  35.802   2.326  11.135
43945W        W16205  27.484  23.378   4.544
43946W        W16206  11.198  25.020   4.042
43947W        W16207  38.132  10.737   4.681
43948W        W16208  21.521  22.035  10.988
43949W        W16209  25.393  19.963   0.362
43950W        W16210  14.310   0.147  13.036
43951W        W16211  12.848  37.898  14.787
43952W        W16212  14.911  20.967  12.612
43953W        W16213  37.310   9.926   2.409
43954W        W16214  10.145   1.913  11.531
43955W        W16215  12.170  14.151  12.094
43956W        W16216   0.815  23.335  10.687
43957W        W16217  38.086  15.304   2.838
43958W        W16218  19.122  36.521   3.289
43959W        W16219  31.548  28.551   3.660
43960W        W16220  32.172  35.547  12.507
43961W        W16221  33.810  20.158  14.136
43962W        W16222  44.192   5.832   3.227
43963W        W16223  23.201  10.148  11.235
43964W        W16224  43.318   2.006   3.172
43965W        W16225   8.090  41.817   4.261
43966W        W16226  23.306  38.342   1.339
43967W        W16227   4.930  29.518  13.795
43968W        W16228  43.665  44.838  11.407
43969W        W16229  40.866  41.735   4.456
43970W        W16230  28.220   5.349   4.244
43971W        W16231  28.708  37.783   0.962
43972W        W16232  13.727   8.684  14.887
43973W        W16233  29.237  14.572   4.163
43974W        W16234   6.857  19.460   0.924
43975W        W16235  44.958  25.090  10.723
43976W        W16236   5.710  32.854  11.232
43977W        W16237   7.291  18.770  13.429
43978W        W16238   2.463  39.583   2.786
43979W        W16239  24.121  27.041  13.393
43980W        W16240  29.101  44.401  13.799
43981W        W16241  30.987  30.834   2.196
43982W        W16242  38.812  23.866  11.122
43983W        W16243  44.462  40.618   5.171
43984W        W16244   8.442  39.115  12.034
43985W        W16245   9.678  41.553   0.393
43986W        W16246  31.577  38.379   0.232
43987W        W16247   0.010  14.853  13.122
43988W        W16248   8.887  21.400  13.189
43989W        W16249  32.914  32.623  10.532
43990W        W16250  30.107  26.014  12.474
43991W        W16251  19.041   9.315  13.324
43992W        W16252  35.053  10.058  13.809
43993W        W16253   1.374  44.179  14.740
43994W        W16254  12.386  17.254  13.587
43995W        W16255  37.865   2.201  13.133
43996W        W16256  32.600  44.418   4.886
43997W        W16257  42.729  40.839  11.202
43998W        W16258   7.399  37.882  10.658
43999W        W16259   3.476   1.883  12.351
44000W        W16260   1.987  42.700  12.909
44001W        W16261  27.050  25.286   1.838
44002W        W16262  27.664  31.519   2.232
44003W        W16263  27.640   6.436   0.182
44004W        W16264  14.568   8.685  10.069
44005W        W16265  40.760   3.767   0.742
44006W        W16266  42.064   6.233   3.611
44007W        W16267  12.177  14.119   0.553
44008W        W16268  25.896   9.649   3.911
44009W        W16269  13.386  19.363  11.260
44010W        W16270  34.092  40.274   1.669
44011W        W16271  33.909   1.580   1.215
44012W        W16272  13.287  16.910  14.320
44013W        W16273  38.622   1.504   1.468
44014W        W16274  14.779   0.815  12.610
44015W        W16275  29.973   1.721   1.162
44016W        W16276   4.082  35.480   3.060
44017W        W16277   5.689  26.197   5.138
44018W        W16278  26.189  16.778  10.561
44019W        W16279   1.237   4.613   1.044
44020W        W16280  26.315  27.960   4.147
44021W        W16281  38.841   4.663  13.453
44022W        W16282  24.038   9.779   1.592
44023W        W16283   8.593  14.155  14.053
44024W        W16284  19.526  33.986   1.206
44025W        W16285   6.403  24.670   3.924
44026W        W16286  44.858  40.286   0.470
44027W        W16287  27.308  26.589   3.743
44028W        W16288  23.243  22.769  14.687
44029W        W16289  17.831  23.700  13.979
44030W        W16290  36.292  19.701   3.731
44031W        W16291  22.100  43.122   2.393
44032W        W16292  36.016  18.852   1.898
44033W        W16293  42.909  11.572   1.920
44034W        W16294  36.736  30.728  11.000
44035W        W16295  19.335  42.304   0.238
44036W        W16296  16.319  10.869  10.947
44037W        W16297  43.292  30.599  13.137
44038W        W16298   1.881  16.669   2.750
44039W        W16299  21.219  35.581  13.945
44040W        W16300  24.391  25.163   0.359
44041W        W16301  41.838  13.293   3.729
44042W        W16302  12.164   6.274  13.534
44043W        W16303  18.036  39.576  12.723
44044W        W16304  41.815  43.531  12.330
44045W        W16305  31.164  23.968   3.199
44046W        W16306  32.380  31.469   4.621
44047W        W16307   3.358  27.202  12.951
44048W        W16308   7.427  27.598   3.265
44049W        W16309  17.486   0.710   4.364
44050W        W16310  17.672  36.623   1.881
44051W        W16311  40.292  26.947   3.580
44052W        W16312  27.760  37.472   2.830
44053W        W16313  38.942  23.094  12.636
44054W        W16314   4.915  21.575   4.814
44055W        W16315  41.772  10.584  14.056
44056W        W16316  38.253  38.794   4.209
44057W        W16317  28.618  18.756  13.031
44058W        W16318  25.219  25.515  13.122
44059W        W16319  21.653  28.624   4.545
44060W        W16320   1.288  26.877  12.764
44061W        W16321   4.401  35.651   1.018
44062W        W16322   9.335   5.889   3.934
44063W        W16323  33.594  14.639  12.901
44064W        W16324  24.155  19.539  14.528
44065W        W16325  25.001  34.940   2.387
44066W        W16326  12.165  36.617  13.859
44067W        W16327  44.780  24.421   0.235
44068W        W16328  23.228  20.536  12.931
44069W        W16329  41.432  29.525   1.353
44070W        W16330  36.821  32.800   4.274
44071W        W16331  36.814   9.946  14.351
44072W        W16332  31.640   9.392   4.755
44073W        W16333  23.839   6.778  12.066
44074W        W16334  33.473  37.483   1.786
44075W        W16335  38.390   2.982   4.016
44076W        W16336  33.711  21.581  10.688
44077W        W16337  44.956   8.659  13.991
44078W        W16338   3.782  29.892   2.329
44079W        W16339  15.616  24.660  13.801
44080W        W16340  37.923  13.437   2.846
44081W        W16341  41.421   0.730  11.361
44082W        W16342  30.240  38.387   1.477
44083W        W16343  16.289  25.645  13.629
44084W        W16344   1.961  39.423   1.001
44085W        W16345  27.459  38.921   0.251
44086W        W16346  13.756  10.248   1.294
44087W        W16347  20.365  18.564  11.854
44088W        W16348  14.212  30.938   4.514
44089W        W16349  17.139  44.097   0.360
44090W        W16350  23.539  29.594  11.059
44091W        W16351   5.191  19.229  11.619
44092W        W16352  23.620  36.259  13.043
44093W        W16353  16.998  36.139  13.004
44094W        W16354  14.821  25.051  13.368
44095W        W16355  27.813  33.999   1.314
44096W        W16356   5.248  24.513  12.439
44097W        W16357  18.572  18.254   2.749
44098W        W16358  11.847  31.592   0.800
44099W        W16359  26.993  18.676   4.671
44100W        W16360  12.399  14.199  13.491
44101W        W16361  17.545  36.941  13.978
44102W        W16362   6.994  40.270  14.771
44103W        W16363  36.125   5.436  14.608
44104W        W16364  32.294  21.663   0.930
44105W        W16365  35.512  40.767   1.765
44106W        W16366  42.349  26.479  14.845
44107W        W16367  17.298  14.437   2.828
44108W        W16368  10.274  25.397  13.805
44109W        W16369   1.803  13.659  13.409
44110W        W16370   8.436   4.232  10.751
44111W        W16371  19.279  34.084   3.660
44112W        W16372  39.934  14.668   1.353
44113W        W16373   0.374   2.808   2.926
44114W        W16374  36.085  40.463   4.594
44115W        W16375  30.926  21.706  10.933
44116W        W16376  14.213   7.076   2.711
44117W        W16377  16.801   6.964   0.913
44118W        W16378  32.028   3.220   0.677
44119W        W16379  41.315   8.738   0.747
44120W        W16380  13.792   7.401  11.493
44121W        W16381  35.183  19.159  12.874
44122W        W16382   1.504  13.640   0.579
44123W        W16383  29.206  43.005  14.118
44124W        W16384  17.186   3.436  11.173
44125W        W16385  12.383  13.873   3.896
44126W        W16386  43.446  41.322   2.089
44127W        W16387  29.126  11.095  12.255
44128W        W16388  25.595  11.974   1.446
44129W        W16389  31.514   7.918   4.088
44130W        W16390  35.016   3.391   4.794
44131W        W16391  29.896  33.169  13.869
44132W        W16392  24.752  41.286   3.259
44133W        W16393  28.537  20.257   3.881
44134W        W16394  28.110  29.290  14.025
44135W        W16395  42.115  30.488  11.947
44136W        W16396  31.532  21.288   1.851
44137W        W16397  41.246   7.134  10.763
44138W        W16398   6.001  13.652  12.898
44139W        W16399  16.523  17.085   0.557
44140W        W16400  22.283  13.819  11.619
44141W        W16401  13.297  34.141   3.222
44142W        W16402   9.840  23.878  10.885
44143W        W16403  20.055  20.781   0.875
44144W        W16404  30.339  37.916  11.165
44145W        W16405  14.983  20.188  14.979
44146W        W16406  12.721  16.501   5.189
44147W        W16407   3.510  10.659  11.086
44148W        W16408  38.804  39.654   4.489
44149W        W16409  36.938  43.283   2.770
44150W        W16410  42.800  23.208  14.797
44151W        W16411   4.370  24.594   0.039
44152W        W16412  15.850  40.868   1.721
44153W        W16413  30.180  36.127  11.069
44154W        W16414  38.634  36.361   2.395
44155W        W16415  25.962  30.488  12.459
44156W        W16416  35.673  19.863   0.640
44157W        W16417  28.997  23.156  11.253
44158W        W16418   0.732   2.844   2.577
44159W        W16419   1.461  34.578  12.374
44160W        W16420  40.416   5.603  11.639
44161W        W16421  34.057  19.608   4.093
44162W        W16422  21.503  13.805  11.144
44163W        W16423  29.053  26.607   1.026
44164W        W16424   3.320  23.772   1.165
44165W        W16425  31.690   2.006  14.224
44166W        W16426  29.580  42.209   1.827
44167W        W16427  24.931  12.157   3.754
44168W        W16428  18.154  40.567  12.093
44169W        W16429   8.699  11.277  10.723
44170W        W16430  32.935  11.630   3.806
44171W        W16431  28.142   3.233  11.929
44172W        W16432  38.854   6.019   1.225
44173W        W16433  23.980   6.227  13.007
44174W        W16434   2.530  23.582  14.517
44175W        W16435  22.677  27.558  13.910
44176W        W16436  16.157  18.976  10.693
44177W        W16437  26.637  11.830   3.553
44178W        W16438  24.461  40.543  11.925
44179W        W16439  26.521  25.660  10.689
44180W        W16440  14.823  27.708   2.464
44181W        W16441  44.212  39.139  14.038
44182W        W16442  41.278  39.819   2.869
44183W        W16443   8.944  20.812   3.294
44184W        W16444   5.773   7.721   1.202
44185W        W16445   2.248  40.800   0.702
44186W        W16446  29.409  42.882  13.105
44187W        W16447  20.801  21.890  14.382
44188W        W16448  39.374  29.008   0.500
44189W        W16449  43.967  30.950  12.806
44190W        W16450  27.386  14.631   3.643
44191W        W16451  21.237  42.783  14.891
44192W        W16452  21.944  41.457   1.336
44193W        W16453  34.933   2.089  10.068
44194W        W16454  20.014   5.870  14.480
44195W        W16455  33.503  34.942   4.628
44196W        W16456  37.713   7.887   3.649
44197W        W16457  12.964  26.719   5.280
44198W        W16458  16.533  20.210  13.991
44199W        W16459  42.028  24.029   1.867
44200W        W16460  42.107  21.339  13.535
44201W        W16461  37.967  22.252   0.975
44202W        W16462  16.866  13.582   1.890
44203W        W16463  26.078  16.275  13.577
44204W        W16464   9.417  27.269  14.945
44205W        W16465  38.878  36.827  11.109
44206W        W16466  42.049   1.440  12.570
44207W        W16467  25.076   8.362   0.975
44208W        W16468  24.760  16.771   4.121
44209W        W16469  16.619  14.000  11.398
44210W        W16470   8.501   2.142  11.628
44211W        W16471  29.150  34.626   3.239
44212W        W16472   9.858  42.785  13.367
44213W        W16473  25.136  30.546   4.587
44214W        W16474  13.658  27.936   1.867
44215W        W16475  31.084   8.220   4.188
44216W        W16476  20.438  42.970   4.672
44217W        W16477   3.470  17.380   0.010
44218W        W16478   3.186  35.045   2.778
44219W        W16479  33.192  42.976  11.234
44220W        W16480  23.433   9.839  14.839
44221W        W16481  44.389  26.485  14.909
44222W        W16482  44.524  20.459  12.969
44223W        W16483  43.194  28.839   5.122
44224W        W16484  15.631  37.159  11.035
44225W        W16485  34.914   1.351   3.117
44226W        W16486   0.242  26.989   0.952
44227W        W16487  12.193  18.580   3.779
44228W        W16488  42.382  14.364  14.975
44229W        W16489  15.324  30.864  11.467
44230W        W16490  40.057  24.488  13.998
44231W        W16491  37.012   3.452  12.630
44232W        W16492  20.028  11.805  12.883
44233W        W16493  34.659  21.101   3.794
44234W        W16494  43.361  17.062   3.842
44235W        W16495  12.859  23.083  13.966
44236W        W16496   5.658  20.625  12.494
44237W        W16497  24.806  20.275  14.521
44238W        W16498  30.105   3.261  13.046
44239W        W16499   4.933   4.143   3.616
44240W        W16500  23.905  22.923   0.267
44241W        W16501  29.341  42.315  12.605
44242W        W16502  36.959  14.246  13.981
44243W        W16503  19.107  26.027   1.838
44244W        W16504  16.508  14.067   0.789
44245W        W16505  33.606  19.092  12.482
44246W        W16506  43.863  40.006   1.292
44247W        W16507  20.737  14.096   4.155
44248W        W16508   5.970  11.519  11.180
44249W        W16509  27.646  43.760   3.740
44250W        W16510  27.838  41.482  10.239
44251W        W16511   5.328  11.252  12.317
44252W        W16512   6.363   4.439  12.581
44253W        W16513  20.352  44.383   0.945
44254W        W16514   7.362   0.562  13.530
44255W        W16515   3.408  44.179  14.359
44256W        W16516   8.508  23.128  11.161
44257W        W16517  30.372   4.843   4.471
44258W        W16518   4.489   6.175   4.812
44259W        W16519  11.669  26.719  14.304
44260W        W16520  33.511  10.089  13.515
44261W        W16521   6.692  25.068   4.192
44262W        W16522   4.815  23.999  14.807
44263W        W16523  42.037   0.939   2.465
44264W        W16524  24.601   6.765  14.341
44265W        W16525  31.134  29.136   1.391
44266W        W16526  14.212   2.026   2.256
44267W        W16527  23.783  10.857   1.351
44268W        W16528  13.580  16.831  10.873
44269W        W16529  17.519  22.197  14.887
44270W        W16530  23.419  18.139   2.194
44271W        W16531  43.827  34.707  12.740
44272W        W16532  10.501   1.677   3.211
44273W        W16533  32.011  40.057  10.663
44274W        W16534  10.685  18.645   1.747
44275W        W16535  26.118  32.532  12.492
44276W        W16536  23.626  25.205   4.971
44277W        W16537  32.071  30.885   4.982
44278W        W16538  27.618  30.341  13.363
44279W        W16539  31.843   5.671  13.537
44280W        W16540  38.737  34.580  13.930
44281W        W16541  16.741  33.969  10.987
44282W        W16542  31.111  35.078   2.359
44283W        W16543  14.638  32.115  10.835
44284W        W16544  43.384   7.372  14.281
44285W        W16545   4.333   0.741   0.479
44286W        W16546  37.082  31.112   0.808
44287W        W16547  33.096   5.473   2.104
44288W        W16548  26.587  39.869   4.514
44289W        W16549  13.101  11.328  12.454
44290W        W16550  17.202  15.846   0.040
44291W        W16551  27.144  27.531  11.466
44292W        W16552  33.088  10.807   3.255
44293W        W16553  44.589  18.732   2.474
44294W        W16554   2.753  22.914  13.620
44295W        W16555   3.508  32.469  14.803
44296W        W16556  20.547  10.719  14.077
44297W        W16557  16.632  20.770   0.302
44298W        W16558  18.966   5.386   3.450
44299W        W16559  40.297  14.720   2.777
44300W        W16560  11.608   0.730   3.589
44301W        W16561  11.886  32.439   2.328
44302W        W16562  20.984  17.925   1.516
44303W        W16563   4.366  36.331   3.257
44304W        W16564  24.252  33.722   3.561
44305W        W16565  43.047   1.423   3.741
44306W        W16566  26.229  13.144  11.006
44307W        W16567  43.427  12.247   3.118
44308W        W16568  26.598  36.891  13.613
44309W        W16569   6.756  15.316   2.950
44310W        W16570  43.971  12.647   3.629
44311W        W16571  24.063  35.536   4.825
44312W        W16572  10.707  35.395  12.962
44313W        W16573  32.161  10.919  12.659
44314W        W16574  13.932  24.094   0.297
44315W        W16575  36.831  33.674  13.134
44316W        W16576  19.544  15.639   4.399
44317W        W16577  12.341  39.527  14.607
44318W        W16578   5.637  37.043   0.097
44319W        W16579  44.218  13.167   3.818
44320W        W16580   4.417  32.538  14.239
44321W        W16581  27.141  39.119  11.538
44322W        W16582  37.831  41.585  13.463
44323W        W16583   3.279  44.065   3.222
44324W        W16584  44.727  33.015  14.365
44325W        W16585  34.820   8.236  13.272
44326W        W16586  12.242  37.330   1.762
44327W        W16587  15.744  34.842  12.021
44328W        W16588  42.866  24.309  14.836
44329W        W16589  21.927  34.864  11.616
44330W        W16590  39.049  25.484  12.998
44331W        W16591  20.964  35.672  14.402
44332W        W16592  19.795  31.458   2.215
44333W        W16593  29.963  23.519   3.929
44334W        W16594  19.185  29.391  11.234
44335W        W16595  36.430   2.918  10.796
44336W        W16596  16.822  15.063   0.752
44337W        W16597  38.880  25.579  14.558
44338W        W16598  13.275  19.843  13.087
44339W        W16599  43.826   6.326   4.390
44340W        W16600  10.971   6.905   1.280
44341W        W16601  44.472  40.528  11.783
44342W        W16602   5.805   8.332   2.809
44343W        W16603  35.374  32.516  13.991
44344W        W16604  44.576  38.168  13.955
44345W        W16605  44.989  37.373   1.995
44346W        W16606   8.807   0.227   0.370
44347W        W16607  25.300  27.612  13.395
44348W        W16608  29.429  19.191  12.560
44349W        W16609  44.515  22.341  14.443
44350W        W16610  35.884  27.752  11.612
44351W        W16611  21.015   6.079   2.766
44352W        W16612  29.400   0.954   1.440
44353W        W16613  22.958  10.117  13.470
44354W        W16614  20.622  15.148  11.152
44355W        W16615  33.873  27.222   2.345
44356W        W16616   8.734  30.063  14.865
44357W        W16617   0.837  34.150   3.670
44358W        W16618   9.583  12.690   2.669
44359W        W16619  26.644   9.978   2.201
44360W        W16620  37.853  19.921   1.394
44361W        W16621  11.081  22.318   4.101
44362W        W16622  40.499  30.167   2.448
44363W        W16623  29.175  24.037  14.403
44364W        W16624   3.901  36.901   1.033
44365W        W16625  26.505   2.886   3.440
44366W        W16626  36.501  38.785   3.598
44367W        W16627  24.321   4.689   1.281
44368W        W16628   6.197  42.814  13.340
44369W        W16629  42.468  22.051  13.529
44370W        W16630  39.019  29.995   3.268
44371W        W16631  29.948   8.492  14.872
44372W        W16632   7.283  33.306   1.011
44373W        W16633  23.996   0.802   2.571
44374W        W16634  16.610  11.394   1.285
44375W        W16635  34.422  38.740  13.116
44376W        W16636  29.896  14.716   1.861
44377W        W16637  39.980  39.402   3.276
44378W        W16638  16.062  33.825   2.492
44379W        W16639  36.794   7.398  12.173
44380W        W16640  27.638   3.049   4.562
44381W        W16641  20.113  28.000  12.641
44382W        W16642  20.655   0.395  11.570
44383W        W16643   3.624  37.062  14.029
44384W        W16644  20.558  19.504   3.513
44385W        W16645   7.649  16.695   0.245
44386W        W16646  29.093  43.524  11.471
44387W        W16647  42.778  11.255   3.219
44388W        W16648  30.974  24.231  14.917
44389W        W16649  16.804  17.148   2.325
44390W        W16650  16.249  23.251   3.654
44391W        W16651  36.442  41.440   1.933
44392W        W16652  44.650  29.890  11.916
44393W        W16653  37.542  22.594   3.376
44394W        W16654  28.996   1.785   1.941
44395W        W16655   6.231  10.692   3.644
44396W        W16656  34.861  30.538   1.721
44397W        W16657  42.601   8.395   4.071
44398W        W16658  19.937  13.687  13.574
44399W        W16659  40.887  41.056  13.522
44400W        W16660   5.170  24.556   2.290
44401W        W16661  29.426   0.749  11.956
44402W        W16662  35.605  13.702   0.573
44403W        W16663  38.418  10.757   0.050
44404W        W16664  32.929  36.123  11.614
44405W        W16665   3.660  28.435   2.278
44406W        W16666   0.439  29.906   4.878
44407W        W16667   2.436  34.746  13.492
44408W        W16668  16.770  12.532  14.842
44409W        W16669  44.096  12.421  12.627
44410W        W16670  20.226  35.529  12.154
44411W        W16671  12.837  15.689   0.937
44412W        W16672  40.093  16.190   4.643
44413W        W16673  35.807  15.112  12.931
44414W        W16674  31.921  33.546  14.726
44415W        W16675   1.374  13.673  13.089
44416W        W16676  42.405   5.915   1.448
44417W        W16677  29.738  32.586  10.239
44418W        W16678  43.750  43.714  13.911
44419W        W16679  30.639  11.520  13.161
44420W        W16680  13.703  35.578   1.292
44421W        W16681  24.581  14.310  13.347
44422W        W16682  29.335   2.893  12.913
44423W        W16683   4.922   7.529   4.614
44424W        W16684  18.995  33.850  11.422
44425W        W16685  28.191  37.768  13.344
44426W        W16686  22.624  27.990  11.164
44427W        W16687  41.990  29.906   0.162
44428W        W16688   0.890  38.978  12.701
44429W        W16689  28.996  24.105  10.656
44430W        W16690  39.304   5.678   0.029
44431W        W16691  34.927  23.667   4.317
44432W        W16692   3.506  21.239   1.845
44433W        W16693  24.600  26.617   4.614
44434W        W16694  32.961  43.385  13.081
44435W        W16695   1.836   4.106  13.847
44436W        W16696  20.826   3.856   3.530
44437W        W16697   9.794  10.360   0.925
44438W        W16698  26.918   9.319   1.381
44439W        W16699  32.977  25.433  13.903
44440W        W16700  41.637   5.011  14.623
44441W        W16701  28.418  19.364   0.879
44442W        W16702  15.227   9.878   1.269
44443W        W16703  26.575   4.548  11.366
44444W        W16704  30.680   3.955  13.415
44445W        W16705   5.720  23.854  12.000
44446W        W16706   4.286  22.545  10.913
44447W        W16707  35.066  40.402  10.192
44448W        W16708  36.650  12.864  12.158
44449W        W16709  44.762   3.699   0.922
44450W        W16710   9.620  17.668  10.916
44451W        W16711  31.852   8.854  13.821
44452W        W16712  36.461   2.416   4.158
44453W        W16713  43.013  28.650  12.913
44454W        W16714  25.354  13.341  14.877
44455W        W16715  36.577  18.740   5.120
44456W        W16716  27.732  25.604  12.972
44457W        W16717  22.256  31.458  10.611
44458W        W16718  16.332   4.160   4.474
44459W        W16719   6.460  20.611  12.064
44460W        W16720   2.269  44.488   0.294
44461W        W16721   0.733  20.410  11.140
44462W        W16722   1.045  16.149   1.834
44463W        W16723   0.523   2.660  13.920
44464W        W16724  11.863  39.904  14.192
44465W        W16725  25.673  18.021  14.359
44466W        W16726   0.796  14.791  11.940
44467W        W16727  40.088  22.926   4.023
44468W        W16728  26.433  43.485  13.477
44469W        W16729  35.990  16.365   4.922
44470W        W16730  29.643   2.818   4.124
44471W        W16731   6.921  39.751   1.949
44472W        W16732  15.526  34.949  11.406
44473W        W16733  25.317   6.207   3.242
44474W        W16734  43.074   9.930   2.754
44475W        W16735  19.936   8.420   5.819
44476W        W16736  24.430  21.172  11.606
44477W        W16737  29.647   2.235  14.464
44478W        W16738  25.480  40.009  11.552
44479W        W16739  16.446  42.270   2.157
44480W        W16740  37.416  23.783   3.086
44481W        W16741   9.722  22.046   3.520
44482W        W16742  12.827  36.047  13.492
44483W        W16743  30.550  27.972  10.623
44484W        W16744  21.477  43.788  12.137
44485W        W16745  13.139  21.231   9.881
44486W        W16746   6.503  11.329  11.110
44487W        W16747  21.734  40.294  10.690
44488W        W16748  29.005  31.919   4.133
44489W        W16749  30.574   7.459   2.647
44490W        W16750  15.796  11.393   0.977
44491W        W16751   6.583   6.832  11.066
44492W        W16752  17.266  10.909   1.007
44493W        W16753   5.707  22.594  13.327
44494W        W16754  40.289   2.717   1.671
44495W        W16755  31.008  41.428  11.707
44496W        W16756  24.310  26.135  10.248
44497W        W16757  19.280  11.859  14.949
44498W        W16758   3.678  38.199  12.485
44499W        W16759  32.424  12.065   1.685
44500W        W16760  42.253  40.780  12.963
44501W        W16761   0.446  19.833   4.472
44502W        W16762   9.284  14.460  14.571
44503W        W16763  20.269  44.014  14.117
44504W        W16764  18.657  21.039   0.855
44505W        W16765  11.898  39.307   3.750
44506W        W16766  30.672   3.497   0.771
44507W        W16767   1.359  40.823  14.483
44508W        W16768  41.310  40.907  13.086
44509W        W16769  26.705  41.123   0.867
44510W        W16770  40.280  26.699  14.064
44511W        W16771   4.375   4.688   2.742
44512W        W16772   8.760  21.086  11.267
44513W        W16773  39.663  33.052  13.430
44514W        W16774  40.399  27.791   1.202
44515W        W16775  11.179  36.556  12.615
44516W        W16776   8.232  24.760   4.518
44517W        W16777  17.760  13.974  11.140
44518W        W16778  21.365  17.563  12.086
44519W        W16779   1.164  16.287  11.524
44520W        W16780  16.210  36.944  10.830
44521W        W16781  41.518  33.481  13.810
44522W        W16782   2.427  44.316  12.759
44523W        W16783  24.455   1.261   0.456
44524W        W16784  27.082  26.005  11.724
44525W        W16785  35.306  21.954  13.704
44526W        W16786  30.347  24.698   4.142
44527W        W16787  37.558  32.510  14.120
44528W        W16788   4.002  14.576  12.582
44529W        W16789  22.775  30.689  14.327
44530W        W16790  24.148  34.519   3.008
44531W        W16791  14.540  20.194   1.279
44532W        W16792   0.457   9.457   3.712
44533W        W16793   8.378   9.236  14.099
44534W        W16794  34.150  34.388  10.707
44535W        W16795  41.519  36.286   3.339
44536W        W16796  17.222   0.897   0.491
44537W        W16797  25.166  15.542   0.375
44538W        W16798  43.055  23.252  13.283
44539W        W16799  29.654  34.499  14.904
44540W        W16800  42.244  24.483  13.066
44541W        W16801   4.734  32.170  12.578
44542W        W16802  21.230   0.242  14.944
44543W        W16803  19.628  36.350   3.146
44544W        W16804  37.139   7.766   1.219
44545W        W16805  32.704  21.174   3.328
44546W        W16806  41.571  21.228  11.977
44547W        W16807   0.273  13.683  14.445
44548W        W16808  28.240   7.156  13.325
44549W        W16809  36.992  44.465  13.739
44550W        W16810  43.464  42.765   4.221
44551W        W16811  31.895  20.289   0.417
44552W        W16812  25.478  44.457   3.368
44553W        W16813  32.045  10.371   5.140
44554W        W16814  34.842  44.825   2.331
44555W        W16815  10.274  11.914   3.757
44556W        W16816  28.970  41.398   2.678
44557W        W16817  38.963  32.941   2.960
44558W        W16818  39.754   5.621   3.285
44559W        W16819  39.324  30.607   4.633
44560W        W16820  12.153  16.188  12.994
44561W        W16821  11.868  29.892   1.161
44562W        W16822  14.243  38.251  13.113
44563W        W16823  43.179   9.746   3.259
44564W        W16824  21.022  24.231   2.499
44565W        W16825  21.704  22.294  14.544
44566W        W16826  21.744   8.349   4.112
44567W        W16827   3.436  24.052   2.071
44568W        W16828  20.761   6.181  12.966
44569W        W16829   2.025  33.038   3.033
44570W        W16830   9.877  35.666   1.650
44571W        W16831  38.438  40.398   2.657
44572W        W16832  39.785  15.933   1.167
44573W        W16833   8.476   3.593  13.925
44574W        W16834  28.361   1.417   4.287
44575W        W16835  27.926  24.043   4.222
44576W        W16836   8.828  31.563  10.570
44577W        W16837   2.423   0.844  13.478
44578W        W16838  17.520  31.040  14.391
44579W        W16839  17.401  14.355  11.160
44580W        W16840  29.993  29.526   0.977
44581W        W16841  41.090  34.517  10.504
44582W        W16842   7.208  31.358   0.847
44583W        W16843   7.849  22.664  10.708
44584W        W16844  25.714   7.918   4.162
44585W        W16845   4.513   8.920  12.135
44586W        W16846  25.585  36.692  12.887
44587W        W16847  29.726  32.900  11.942
44588W        W16848  23.078   2.602   2.115
44589W        W16849   8.092   2.877  10.739
44590W        W16850  19.594  18.292   2.933
44591W        W16851   9.654  16.579   0.412
44592W        W16852  16.012   8.259   1.468
44593W        W16853   8.482  19.798  10.727
44594W        W16854  38.342  44.500  13.130
44595W        W16855  38.336  30.574  11.323
44596W        W16856  15.250  25.675   0.714
44597W        W16857  14.389  11.760   4.287
44598W        W16858  31.151  34.080   0.870
44599W        W16859  42.365  33.385   0.420
44600W        W16860   1.192  21.749  13.379
44601W        W16861   8.255  13.254   4.568
44602W        W16862  11.861   0.759  14.815
44603W        W16863   0.413  21.756  11.177
44604W        W16864  28.150  36.942   4.607
44605W        W16865  30.609  30.330   5.098
44606W        W16866  28.394  13.624   0.373
44607W        W16867  22.784  19.054  12.948
44608W        W16868  26.272  12.211  14.873
44609W        W16869  40.571  28.408  14.873
44610W        W16870  44.529  17.531  14.968
44611W        W16871   9.932  17.261  13.769
44612W        W16872   8.731   5.136  10.744
44613W        W16873   5.020  34.861   0.713
44614W        W16874   8.773  34.031  14.864
44615W        W16875   5.306  41.413  13.950
44616W        W16876  43.996  37.009  11.605
44617W        W16877   8.876   3.189   4.334
44618W        W16878   6.431   6.300   1.362
44619W        W16879  23.405  43.027   2.125
44620W        W16880  33.118  31.493   4.199
44621W        W16881  35.413  29.015  12.025
44622W        W16882   6.876  29.250   9.915
44623W        W16883  41.005  33.161  11.514
44624W        W16884  13.673  21.025  12.102
44625W        W16885  40.896  21.735  12.945
44626W        W16886   9.264  17.260   1.478
44627W        W16887  30.536  38.607  11.722
44628W        W16888  39.912  17.820   3.679
44629W        W16889  14.871  43.513  13.428
44630W        W16890  23.053   9.894   3.814
44631W        W16891   9.156  15.243   0.334
44632W        W16892  38.253   5.656   0.288
44633W        W16893   7.363   7.806  13.912
44634W        W16894   0.249  39.736  10.451
44635W        W16895   4.331  29.575  10.634
44636W        W16896  31.512   4.848   0.538
44637W        W16897   9.668   8.487   4.755
44638W        W16898  21.235  31.895   1.415
44639W        W16899   6.555  43.425  14.263
44640W        W16900  29.553  31.379  10.793
44641W        W16901  10.226   6.297  10.687
44642W        W16902  10.740  25.427   0.942
44643W        W16903  41.774  40.380   1.053
44644W        W16904  11.375  16.038   2.274
44645W        W16905  24.690  26.078  10.577
44646W        W16906  12.325  33.361  11.032
44647W        W16907  38.937  19.349  10.329
44648W        W16908  36.057  34.054  13.296
44649W        W16909  12.273   9.598  13.474
44650W        W16910  28.130  20.746  13.301
44651W        W16911  26.280  40.199  11.095
44652W        W16912  36.462   2.522   3.643
44653W        W16913  34.119  40.888  12.847
44654W        W16914  37.325  23.412   0.821
44655W        W16915   2.940  16.344   4.627
44656W        W16916   6.826  17.238   3.830
44657W        W16917   0.471  43.934  11.714
44658W        W16918  37.586  26.252   4.602
44659W        W16919  23.796  44.921   2.473
44660W        W16920  24.569  13.811   2.397
44661W        W16921  43.162  36.504   0.184
44662W        W16922  20.116  34.766  13.794
44663W        W16923  20.069  19.384  14.755
44664W        W16924   2.119  37.852  11.722
44665W        W16925  17.752  16.973  13.718
44666W        W16926  12.671  41.304  13.109
44667W        W16927  42.798   6.425   4.821
44668W        W16928   5.030  34.482   3.754
44669W        W16929  35.442   4.458   1.964
44670W        W16930   7.496  42.423   3.062
44671W        W16931  11.701  28.739   2.757
44672W        W16932   2.353  13.618  11.085
44673W        W16933  28.227  18.494  13.906
44674W        W16934  24.074  25.574  14.544
44675W        W16935   1.758   9.632   2.841
44676W        W16936  30.016  31.868  13.382
44677W        W16937  26.675  14.062   0.229
44678W        W16938  42.977   4.747  11.928
44679W        W16939  26.679  17.180   1.014
44680W        W16940  10.408  28.791   4.261
44681W        W16941  44.326   8.649   1.959
44682W        W16942  44.156  11.143  13.388
44683W        W16943  35.621  35.480  13.867
44684W        W16944  35.438  20.028   2.910
44685W        W16945  25.811  36.304   3.197
44686W        W16946  17.162  43.641   3.834
44687W        W16947  17.620  30.559   4.117
44688W        W16948  41.803  30.423  12.859
44689W        W16949  12.678   0.887  12.216
44690W        W16950  43.283   8.863   3.539
44691W        W16951  36.555  20.138   3.829
44692W        W16952  33.936  29.942  10.631
44693W        W16953   9.702   4.899  12.074
44694W        W16954  19.147  37.956  10.962
44695W        W16955  19.066  21.167  13.922
44696W        W16956   4.040   1.011  11.583
44697W        W16957  12.890  11.349  14.729
44698W        W16958  34.976  31.563   2.813
44699W        W16959  29.741  33.096  14.496
44700W        W16960  27.054  42.993   3.728
44701W        W16961  27.541  42.474  10.718
44702W        W16962   2.835   3.429  14.267
44703W        W16963  31.544  10.658   2.441
44704W        W16964  35.784  13.338   5.038
44705W        W16965  32.983  22.107  14.420
44706W        W16966  21.956  42.441  10.764
44707W        W16967  10.922   8.377   2.866
44708W        W16968  14.580  20.773   3.302
44709W        W16969  27.807  35.455  13.362
44710W        W16970  36.681   0.350  11.229
44711W        W16971  31.034   1.660  13.882
44712W        W16972   5.348  44.895   1.668
44713W        W16973  11.387  43.821   1.739
44714W        W16974  29.851  39.099  11.203
44715W        W16975  37.127  15.468   1.804
44716W        W16976  18.667   8.700  10.481
44717W        W16977   1.543  22.493   2.597
44718W        W16978   9.943   2.155   0.626
44719W        W16979   9.390  43.896  12.540
44720W        W16980  17.412  42.989   0.356
44721W        W16981  34.560  10.297  12.913
44722W        W16982   4.331   1.956  14.308
44723W        W16983  16.599   3.881  10.659
44724W        W16984  13.416  26.898  14.419
44725W        W16985  19.129  21.224   2.185
44726W        W16986  24.933  15.316   2.780
44727W        W16987  35.528  41.040  12.687
44728W        W16988  29.451  37.947  11.084
44729W        W16989   9.265   6.162  14.995
44730W        W16990  34.047  27.022  12.329
44731W        W16991  29.691   5.449   0.336
44732W        W16992  39.003  39.514  11.572
44733W        W16993  19.191  40.882  11.287
44734W        W16994  40.519  38.907  11.270
44735W        W16995  19.192  30.933   1.705
44736W        W16996  38.136  28.357   3.349
44737W        W16997   3.789   6.221  12.545
44738W        W16998  19.055  39.382  10.682
44739W        W16999  42.721  11.028  12.544
44740W        W17000  22.432  22.274  13.022
44741W        W17001  23.233  39.419   0.012
44742W        W17002  18.199  35.360   3.367
44743W        W17003  42.900  25.348   1.683
44744W        W17004   9.235  44.239  10.136
44745W        W17005  19.669  29.441  11.125
44746W        W17006  27.475  10.226  13.870
44747W        W17007  41.963  33.896  14.572
44748W        W17008  42.924  43.848  14.641
44749W        W17009  15.126  40.752   1.246
44750W        W17010   1.007  27.533   0.118
44751W        W17011   6.368   8.180  10.911
44752W        W17012  38.624  41.857   0.876
44753W        W17013  18.560   7.134  14.580
44754W        W17014   3.104  37.834  10.772
44755W        W17015   4.924  35.089   0.244
44756W        W17016   1.761   9.085  12.559
44757W        W17017  13.227  11.759  11.684
44758W        W17018  23.924  21.250   4.591
44759W        W17019  12.724  21.261   5.148
44760W        W17020  43.447  24.844  13.876
44761W        W17021   0.814  17.600  11.877
44762W        W17022  34.582  10.039  14.689
44763W        W17023  40.900  44.673   1.764
44764W        W17024  43.050  25.095   3.443
44765W        W17025  16.406  37.978  11.786
44766W        W17026  42.896  31.085   2.852
44767W        W17027  18.743  11.933   5.094
44768W        W17028  20.612  20.800   1.354
44769W        W17029  12.515   6.333  11.525
44770W        W17030  13.627  14.932  10.651
44771W        W17031   9.793  24.687  12.227
44772W        W17032   9.829  16.814  11.362
44773W        W17033   2.459  25.873   4.359
44774W        W17034  19.796  26.474   4.611
44775W        W17035  14.713  27.167  14.836
44776W        W17036   0.695  14.257   5.069
44777W        W17037  23.603  32.197  10.542
44778W        W17038   9.403  33.142   0.899
44779W        W17039  31.011  34.369  10.979
44780W        W17040  22.173  20.876  12.965
44781W        W17041  19.149  41.488   0.738
44782W        W17042   7.140  29.396   2.264
44783W        W17043  31.837  33.908  11.311
44784W        W17044  17.477  29.593   2.362
44785W        W17045  35.808  37.503  14.882
44786W        W17046  16.846  15.635  11.057
44787W        W17047  12.599  21.789   0.045
44788W        W17048  15.634  12.875  11.611
44789W        W17049  22.706  34.962   2.214
44790W        W17050  42.588  10.072   1.374
44791W        W17051  44.914  17.179   3.047
44792W        W17052  20.142  26.601   1.157
44793W        W17053   2.931  44.516  11.446
44794W        W17054  24.713  28.802  10.674
44795W        W17055  26.601  21.193  14.296
44796W        W17056  39.932  38.982  12.404
44797W        W17057  39.874  11.680  14.208
44798W        W17058  35.568  28.485  13.425
44799W        W17059  38.826   0.466   4.338
44800W        W17060   1.275  44.552   1.234
44801W        W17061  19.385  44.025   0.182
44802W        W17062  26.313  29.435   1.616
44803W        W17063  19.451  26.407   0.581
44804W        W17064  18.124  20.024  13.437
44805W        W17065  11.774  41.071  11.580
44806W        W17066   2.312  18.793   0.432
44807W        W17067  43.767  14.273   1.347
44808W        W17068  15.340   6.261   3.371
44809W        W17069  43.838   3.467   3.132
44810W        W17070  30.442   6.763  10.757
44811W        W17071  40.577   8.767  13.361
44812W        W17072  14.696  43.461  10.588
44813W        W17073  16.169  15.077   2.809
44814W        W17074  16.399  42.022  14.781
44815W        W17075   3.912  36.831   1.934
44816W        W17076  14.093  16.165  10.677
44817W        W17077  25.398  21.377  11.703
44818W        W17078  21.043  16.316   2.321
44819W        W17079   6.635  41.478   4.154
44820W        W17080  32.174  22.173   2.308
44821W        W17081  41.907  17.127  11.184
44822W        W17082  10.699  39.565   2.800
44823W        W17083  38.700  11.138  13.033
44824W        W17084  27.435  15.064  14.654
44825W        W17085  16.700   0.873   0.486
44826W        W17086  41.427  12.793   4.710
44827W        W17087  13.201  19.263   1.717
44828W        W17088   9.433  30.739  11.996
44829W        W17089  34.479   9.197   0.844
44830W        W17090  27.905  32.540   4.755
44831W        W17091  23.097  12.285   0.766
44832W        W17092  11.577  21.862  13.933
44833W        W17093  13.990  18.567   0.743
44834W        W17094   3.778  32.840  11.600
44835W        W17095  37.568   0.225  11.042
44836W        W17096  33.573  28.585   2.671
44837W        W17097  16.758  37.104  11.624
44838W        W17098   2.937  14.771   2.353
44839W        W17099  37.487   9.864   1.574
44840W        W17100  12.733   2.836  10.644
44841W        W17101  24.252  29.020  14.025
44842W        W17102  38.017   7.048  10.573
44843W        W17103  10.754   3.751  13.802
44844W        W17104  12.354  31.632  14.689
44845W        W17105  34.148  10.231  10.774
44846W        W17106  30.308   4.138  10.664
44847W        W17107  13.862   7.707  12.882
44848W        W17108  11.686  36.387   0.970
44849W        W17109   5.866   5.368   0.121
44850W        W17110   1.180  36.559   1.069
44851W        W17111  38.919   2.260  14.966
44852W        W17112  27.662  20.705  14.850
44853W        W17113  15.202  25.339   2.659
44854W        W17114   8.617  13.780  10.682
44855W        W17115   7.392   6.174  12.016
44856W        W17116  28.472  27.439  13.346
44857W        W17117  29.325  15.188  11.976
44858W        W17118  15.091   7.437  11.965
44859W        W17119   2.877  21.092  10.476
44860W        W17120  30.932  30.472   1.819
44861W        W17121  22.377  39.365   1.548
44862W        W17122  23.630  41.968   1.061
44863W        W17123  29.597  30.877  10.652
44864W        W17124  34.664   7.780  13.917
44865W        W17125  15.997  12.561  14.314
44866W        W17126  24.117   4.451   2.548
44867W        W17127  15.462  28.906  13.997
44868W        W17128  26.007  34.692  13.499
44869W        W17129  17.170  21.527  12.395
44870W        W17130  15.707  11.954   0.123
44871W        W17131   3.858  35.574  14.707
44872W        W17132  32.856  28.087   0.129
44873W        W17133   8.593   5.875  13.646
44874W        W17134   7.669  19.318   2.265
44875W        W17135  12.619  32.023   1.694
44876W        W17136  28.623  12.686   2.917
44877W        W17137   0.747  26.522  11.495
44878W        W17138  28.830  26.579  13.478
44879W        W17139   5.197  15.853   0.824
44880W        W17140  10.950   0.844   0.693
44881W        W17141  43.336  20.541   4.091
44882W        W17142  36.377   3.931   3.332
44883W        W17143  43.363  36.957   0.414
44884W        W17144  19.935  14.397   2.196
44885W        W17145  29.726  27.946   1.414
44886W        W17146  35.125  36.930  11.691
44887W        W17147  16.770  20.476   0.703
44888W        W17148  43.884  22.096   0.890
44889W        W17149  20.025  43.723  13.388
44890W        W17150  36.838  24.772   1.137
44891W        W17151  42.375  29.471   4.178
44892W        W17152   8.666  27.985  13.313
44893W        W17153   7.276   0.883   4.646
44894W        W17154  28.942  30.074   4.486
44895W        W17155  24.032  34.966   2.676
44896W        W17156   1.804  36.600  11.913
44897W        W17157  34.574  30.134   1.600
44898W        W17158  43.160   1.134  12.895
44899W        W17159  42.431   8.898   3.294
44900W        W17160  16.839  32.950  14.310
44901W        W17161  25.750  17.288   0.916
44902W        W17162  40.790   8.202  12.473
44903W        W17163   3.758   4.903  10.637
44904W        W17164   5.357  30.226  13.056
44905W        W17165   7.346  24.616   3.911
44906W        W17166   1.902   4.787   0.036
44907W        W17167   9.065  12.823  12.946
44908W        W17168  37.403  30.572   4.058
44909W        W17169  19.080  44.261   3.307
44910W        W17170  26.963  37.815  11.933
44911W        W17171  33.796  12.882  14.328
44912W        W17172  31.632  24.704   0.447
44913W        W17173  20.270  11.250  12.042
44914W        W17174  37.154   9.129  11.968
44915W        W17175  30.176  24.199   2.678
44916W        W17176   0.196  24.551   4.403
44917W        W17177  27.841  41.917  13.880
44918W        W17178  35.550  22.674  12.577
44919W        W17179  21.216  12.713   0.761
44920W        W17180   2.267  14.202   4.057
44921W        W17181  39.459  20.961  12.869
44922W        W17182  27.720  21.053   1.673
44923W        W17183  32.499  21.301   2.873
44924W        W17184   2.294  24.178   2.911
44925W        W17185  35.543  34.500   3.184
44926W        W17186  35.886   0.268   3.670
44927W        W17187   6.489   1.997   5.076
44928W        W17188   2.061  43.285   3.611
44929W        W17189  32.960  28.547   1.342
44930W        W17190  38.082  17.615   4.410
44931W        W17191  13.219   2.251   4.852
44932W        W17192  13.146  30.201  13.502
44933W        W17193  44.758  42.299  12.675
44934W        W17194   4.289  23.786  12.233
44935W        W17195  42.226  28.962  14.298
44936W        W17196  37.378  35.136   3.311
44937W        W17197  34.899  13.010  11.836
44938W        W17198  11.244  11.620  13.337
44939W        W17199   8.860  32.555   3.649
44940W        W17200  22.238   2.959   1.895
44941W        W17201  33.045  20.460  10.773
44942W        W17202  21.339  15.156  11.613
44943W        W17203  25.958  20.552   1.739
44944W        W17204   9.924   4.430   0.033
44945W        W17205   5.922   6.682   4.669
44946W        W17206  14.193  28.358  14.771
44947W        W17207  14.796   1.829  10.859
44948W        W17208  27.465  30.595  12.506
44949W        W17209   3.647   4.721   4.521
44950W        W17210  33.326  23.064  11.670
44951W        W17211   3.506  37.151   3.172
44952W        W17212   8.865   7.286   0.766
44953W        W17213   0.431  24.042   0.391
44954W        W17214  34.476  12.233   0.280
44955W        W17215  22.649  40.546  13.511
44956W        W17216  35.291  13.332  12.957
44957W        W17217   0.846  31.140  12.896
44958W        W17218   5.814  41.468   3.750
44959W        W17219  38.015   7.856   2.185
44960W        W17220  31.086   9.119  12.544
44961W        W17221  38.734  14.276  11.989
44962W        W17222  17.953  37.885   4.468
44963W        W17223   0.898   7.217  12.438
44964W        W17224  34.178  21.566  12.040
44965W        W17225  22.597  41.297   3.138
44966W        W17226  12.330  36.283  12.571
44967W        W17227  32.871   8.248  12.853
44968W        W17228  36.999   2.788   3.573
44969W        W17229  38.360   3.492   0.904
44970W        W17230  40.448  27.253  13.446
44971W        W17231  26.065  32.995  13.016
44972W        W17232   4.402   6.817  14.771
44973W        W17233  15.719   5.221  11.395
44974W        W17234  13.099  28.951   1.523
44975W        W17235   8.262  15.820   4.087
44976W        W17236  11.690  44.870   0.721
44977W        W17237  25.622  30.079  12.434
44978W        W17238  36.935  10.448   4.635
44979W        W17239   5.845   2.612  11.924
44980W        W17240  23.293  17.183  14.063
44981W        W17241  42.629  12.773   2.379
44982W        W17242  14.159  33.211  11.049
44983W        W17243  39.577  44.987  12.709
44984W        W17244  32.609  32.854   3.214
44985W        W17245  41.117  14.113   1.751
44986W        W17246   1.806  23.277   1.939
44987W        W17247  44.267  14.339  12.151
44988W        W17248  16.488  39.581  12.520
44989W        W17249  42.578  34.174  13.360
44990W        W17250  21.247  44.151   2.736
44991W        W17251   1.162  23.289   0.423
44992W        W17252  23.771  43.299   9.983
44993W        W17253  21.681  29.128   2.396
44994W        W17254  29.851   8.593   0.908
44995W        W17255  18.331  34.472  14.040
44996W        W17256  30.238  42.476   1.213
44997W        W17257  38.208  17.636  14.866
44998W        W17258   1.743  14.888   0.400
44999W        W17259   9.873  43.962  11.629
45000W        W17260  20.507  38.750   0.385
45001W        W17261  41.487   2.341   3.579
45002W        W17262  10.787   3.923   4.705
45003W        W17263  10.572   5.806   4.879
45004W        W17264  16.057  41.354   1.820
45005W        W17265  34.008  12.629   1.554
45006W        W17266  16.602   1.898  14.989
45007W        W17267  22.654  39.559  10.395
45008W        W17268  22.642  32.921   4.086
45009W        W17269   7.458  40.618  13.642
45010W        W17270  24.060  44.420   0.757
45011W        W17271   4.738   6.884  11.185
45012W        W17272  27.154  33.299  14.470
45013W        W17273   3.278   1.416  10.776
45014W        W17274   9.565   5.904  12.141
45015W        W17275   2.148  18.074   3.709
45016W        W17276  17.817  17.287  10.628
45017W        W17277  39.642  22.704   2.555
45018W        W17278  23.471  41.052   1.290
45019W        W17279  30.541   2.525   3.376
45020W        W17280  10.047  26.225  11.078
45021W        W17281   5.247  35.947   3.785
45022W        W17282  33.824   1.793   4.410
45023W        W17283  38.443  39.569   3.784
45024W        W17284  18.024   4.378  14.815
45025W        W17285  33.683   4.992  14.770
45026W        W17286   3.522  15.408  10.968
45027W        W17287  13.089   8.676  14.244
45028W        W17288  33.722   9.991   0.859
45029W        W17289  25.127  27.610   1.713
45030W        W17290  14.050  31.595   0.450
45031W        W17291   5.182  16.113  10.736
45032W        W17292  30.670  26.577  13.499
45033W        W17293  19.865   7.696   4.534
45034W        W17294  30.004   4.854   2.550
45035W        W17295  13.457   6.207  10.729
45036W        W17296  22.676  12.858   1.682
45037W        W17297  24.496  28.570  14.004
45038W        W17298   3.848   3.261   0.811
45039W        W17299   1.895  30.021  10.859
45040W        W17300  20.047   4.716  14.413
45041W        W17301  25.425  42.352   4.181
45042W        W17302  35.989  29.196   3.538
45043W        W17303  20.089  18.109   3.755
45044W        W17304  12.656  22.502   4.488
45045W        W17305  23.841   0.714  10.815
45046W        W17306  17.561  13.228  14.840
45047W        W17307   6.955  24.243   0.217
45048W        W17308  36.853  44.943  13.480
45049W        W17309   6.274   8.060  14.780
45050W        W17310   5.872  18.837   2.822
45051W        W17311   0.775  22.732   1.819
45052W        W17312  25.650  19.263   2.184
45053W        W17313  24.923  34.506   1.213
45054W        W17314   2.902  22.491  11.113
45055W        W17315  30.478  30.497   4.343
45056W        W17316  41.211   9.259   1.920
45057W        W17317  15.884  26.099   1.660
45058W        W17318  41.839  16.622   2.268
45059W        W17319   4.794  38.829   2.652
45060W        W17320  34.625  19.279   0.555
45061W        W17321  43.459  29.058  10.729
45062W        W17322  15.620   6.243   0.295
45063W        W17323  31.013  19.480  14.762
45064W        W17324   8.718   4.732   2.399
45065W        W17325  22.303  26.039  10.580
45066W        W17326   9.556  17.986  11.618
45067W        W17327  22.782  28.442  14.525
45068W        W17328  10.056  11.312   0.571
45069W        W17329  25.676   1.895  14.275
45070W        W17330  21.098  22.692  12.937
45071W        W17331  40.019  31.108  13.487
45072W        W17332  29.462  40.989   3.604
45073W        W17333  26.630  34.977  11.490
45074W        W17334   3.502  32.137   0.274
45075W        W17335   8.679  20.146  11.636
45076W        W17336  25.642  25.350   2.855
45077W        W17337  15.127  35.589   1.331
45078W        W17338   0.276  41.830   4.436
45079W        W17339   7.174   5.275  12.840
45080W        W17340  24.498  39.802  12.630
45081W        W17341  44.328  35.806  14.972
45082W        W17342   0.728  29.920  12.183
45083W        W17343  18.775  13.066  10.862
45084W        W17344  15.837   8.736  13.399
45085W        W17345  38.553   7.093  10.688
45086W        W17346   0.900  27.581   1.950
45087W        W17347  19.733  19.986  12.934
45088W        W17348  42.438   0.670   1.783
45089W        W17349  32.325  20.547  13.426
45090W        W17350   3.233  15.086  13.075
45091W        W17351  12.567   8.942   1.868
45092W        W17352  17.729   0.479  13.362
45093W        W17353   4.519  22.621   4.685
45094W        W17354  44.741   7.243   0.813
45095W        W17355  44.834  10.743   3.775
45096W        W17356   2.037  21.586  13.782
45097W        W17357  24.249  31.680   1.370
45098W        W17358  41.986  37.197  11.197
45099W        W17359  21.829  33.981   4.300
45100W        W17360   8.468  16.235   3.872
45101W        W17361  40.813  24.963  13.177
45102W        W17362  28.191  41.785   1.917
45103W        W17363  29.853  23.017   3.184
45104W        W17364  32.860  37.286   3.810
45105W        W17365   7.404  44.434   0.451
45106W        W17366  42.272  34.426   4.326
45107W        W17367  40.542  42.579   2.190
45108W        W17368  34.590  16.680   1.866
45109W        W17369  37.814  22.076   1.859
45110W        W17370  32.283  25.992  12.970
45111W        W17371  41.566  25.043   2.753
45112W        W17372  35.048  37.584   0.906
45113W        W17373  34.325  33.422  14.061
45114W        W17374  10.356  27.462   1.190
45115W        W17375  35.147  37.378  13.372
45116W        W17376  41.348   3.259  11.171
45117W        W17377  32.069  19.297  11.928
45118W        W17378  17.661  10.958  11.059
45119W        W17379  38.921  16.962   0.265
45120W        W17380  13.346   2.214   0.972
45121W        W17381  41.038  36.822   4.500
45122W        W17382   2.388   4.240   0.744
45123W        W17383   5.121  12.704   1.110
45124W        W17384  40.858  30.970   2.416
45125W        W17385  12.641  31.319  11.394
45126W        W17386  27.384  41.306   4.223
45127W        W17387  34.305   9.256   4.471
45128W        W17388   4.261   2.768   0.279
45129W        W17389  21.365  20.142  10.498
45130W        W17390  33.473  20.130   0.839
45131W        W17391   1.054   2.427   1.405
45132W        W17392  28.210  43.554  14.504
45133W        W17393  11.659  15.043   2.754
45134W        W17394  18.166   9.207   2.760
45135W        W17395   9.755  16.634   1.817
45136W        W17396  23.451  24.460  13.953
45137W        W17397  25.453  33.402   1.424
45138W        W17398  21.517   1.887   3.774
45139W        W17399  41.443  31.958   1.192
45140W        W17400  30.454   5.744  14.026
45141W        W17401  22.649  15.258   0.793
45142W        W17402  35.144  16.835  13.516
45143W        W17403  40.796   6.103   5.165
45144W        W17404  26.209   4.278   2.824
45145W        W17405  19.135  11.803   1.499
45146W        W17406  23.356   4.868   3.638
45147W        W17407   3.757  34.485   0.390
45148W        W17408  32.445  26.383  11.987
45149W        W17409  27.695  11.622  10.547
45150W        W17410  34.985  44.230  11.642
45151W        W17411   3.471  23.816  14.843
45152W        W17412   1.852   5.717   3.651
45153W        W17413  31.731   7.407  12.068
45154W        W17414  44.464  28.413  14.947
45155W        W17415  28.797  17.284   1.554
45156W        W17416  23.014  34.570   2.323
45157W        W17417  43.375   2.282  10.698
45158W        W17418  37.005  33.341  11.608
45159W        W17419   6.742  27.192   2.918
45160W        W17420  15.214   4.935   0.365
45161W        W17421  19.660  40.737  14.798
45162W        W17422  30.128   5.264   0.545
45163W        W17423  27.014  33.549   2.164
45164W        W17424  35.113  43.813  12.487
45165W        W17425  34.401  42.691  12.078
45166W        W17426   9.597  42.267  11.588
45167W        W17427   3.685  33.479  10.757
45168W        W17428  20.218  13.257  12.543
45169W        W17429  26.319  15.122  12.453
45170W        W17430   2.603   9.463  12.119
45171W        W17431  15.708  41.532   0.820
45172W        W17432  42.757  26.030   4.560
45173W        W17433  32.120  30.427  10.262
45174W        W17434  31.888  40.322   2.140
45175W        W17435   4.685  19.123  12.848
45176W        W17436   7.425   1.949  11.153
45177W        W17437  12.291   2.322  13.605
45178W        W17438  21.321   6.693  11.982
45179W        W17439  29.174  21.522  12.618
45180W        W17440  14.425  38.898  11.418
45181W        W17441  11.325   8.969  11.130
45182W        W17442  29.531  21.664  10.917
45183W        W17443  20.969  33.106   0.794
45184W        W17444   0.972  16.743   1.765
45185W        W17445  14.373  36.098  12.946
45186W        W17446  23.757  43.277   3.639
45187W        W17447  28.324  24.757   2.887
45188W        W17448  41.939   0.323   4.637
45189W        W17449   2.970  16.548  13.959
45190W        W17450   7.230  13.598  13.950
45191W        W17451  29.539  28.607  10.736
45192W        W17452  15.918  38.815   3.323
45193W        W17453  36.952   3.253   4.372
45194W        W17454  29.510  37.481   0.088
45195W        W17455   1.695  28.647  10.734
45196W        W17456  29.847   1.735  14.840
45197W        W17457  12.451  39.803   1.900
45198W        W17458  19.035  34.173   0.452
45199W        W17459  44.207  43.348   2.150
45200W        W17460  13.463  34.802  12.276
45201W        W17461   6.162   4.641   1.462
45202W        W17462  42.399  19.307  14.459
45203W        W17463   6.117  26.767  10.314
45204W        W17464  17.210  26.533   4.103
45205W        W17465  23.183  28.895  12.429
45206W        W17466  32.796  10.588   0.200
45207W        W17467   2.710   9.547  11.220
45208W        W17468  16.722  24.669   2.594
45209W        W17469  14.934   3.384  11.133
45210W        W17470   8.255  10.277  11.542
45211W        W17471  19.308  41.616  10.845
45212W        W17472  28.738  37.039   2.947
45213W        W17473   5.756  21.864   2.210
45214W        W17474   3.181  11.315   0.704
45215W        W17475  12.134  11.212  13.109
45216W        W17476  16.694   7.504  14.483
45217W        W17477  30.219   1.282   1.340
45218W        W17478  16.554  17.597   3.779
45219W        W17479  17.700   8.907   4.417
45220W        W17480   0.884  40.897   0.430
45221W        W17481  18.968  11.433   2.412
45222W        W17482  13.797  38.397  10.995
45223W        W17483  14.106   2.247  13.120
45224W        W17484   0.957  39.561  14.073
45225W        W17485   9.883  11.603   3.625
45226W        W17486  34.994  26.151  11.083
45227W        W17487  10.129   6.927  13.716
45228W        W17488  32.587  43.481   1.794
45229W        W17489   0.002  40.461  14.495
45230W        W17490  20.964  30.602   1.808
45231W        W17491   7.444  11.322   2.335
45232W        W17492   7.598   4.558  12.134
45233W        W17493  22.567   7.783   4.373
45234W        W17494  22.451  15.344   1.288
45235W        W17495  11.330   4.643  12.935
45236W        W17496  12.598  40.295   1.921
45237W        W17497  15.764   1.561   3.678
45238W        W17498  17.662  39.917  12.086
45239W        W17499  14.852  16.146   2.344
45240W        W17500   2.920  33.054  11.677
45241W        W17501  19.331  25.987   3.765
45242W        W17502   2.769   9.402   0.702
45243W        W17503   7.423  34.302   3.488
45244W        W17504  39.577   6.245   0.697
45245W        W17505  17.835  18.236   1.206
45246W        W17506   5.448  39.170  12.857
45247W        W17507  17.612  31.658   1.630
45248W        W17508  17.671  25.710  11.867
45249W        W17509  15.228  13.863  13.721
45250W        W17510  14.703  22.260   3.170
45251W        W17511  16.439  41.884   3.545
45252W        W17512  23.770  24.654  14.316
45253W        W17513  24.001  21.807   1.225
45254W        W17514  31.022  10.843  13.930
45255W        W17515  44.545  15.142   1.944
45256W        W17516  20.089  26.295  14.006
45257W        W17517  33.612  29.962  11.552
45258W        W17518  41.736  33.429   2.231
45259W        W17519  43.784  15.866   3.822
45260W        W17520  20.502  30.851  11.110
45261W        W17521  12.518   4.178   4.686
45262W        W17522  17.667   7.842  12.520
45263W        W17523  25.453  44.259   0.827
45264W        W17524  19.425   7.019   0.814
45265W        W17525   6.793   3.240   0.074
45266W        W17526   7.554  13.634   2.628
45267W        W17527   7.247  25.616   3.687
45268W        W17528  34.509  25.708   4.303
45269W        W17529  21.152   7.645   1.358
45270W        W17530  19.538  22.685   4.204
45271W        W17531   9.218  37.638  10.638
45272W        W17532  39.312  43.335   1.740
45273W        W17533  34.305  38.977  10.860
45274W        W17534  18.424  37.574   1.713
45275W        W17535  17.185  26.602  11.976
45276W        W17536   6.955  35.488  14.071
45277W        W17537  31.936   7.408   1.740
45278W        W17538  15.701  41.987   1.794
45279W        W17539  41.067  11.652  10.829
45280W        W17540  43.147  40.717  13.823
45281W        W17541  44.789   7.172  14.876
45282W        W17542  24.957  27.927   4.583
45283W        W17543   8.756  10.239   4.905
45284W        W17544  11.842  44.441  13.495
45285W        W17545  35.850   6.551   1.239
45286W        W17546  16.846  43.898   0.878
45287W        W17547  13.668  39.577  14.229
45288W        W17548  11.198  31.761  12.029
45289W        W17549  29.450  22.510   3.394
45290W        W17550  19.398  15.593   3.161
45291W        W17551  35.491  41.764   3.981
45292W        W17552  17.711  24.779   4.696
45293W        W17553   3.525  31.059   2.839
45294W        W17554  42.108  39.351   0.831
45295W        W17555  10.278  37.497   1.488
45296W        W17556  10.849  42.754   3.672
45297W        W17557  39.256  18.173   0.834
45298W        W17558   2.211  32.641   3.294
45299W        W17559  20.133  15.110  12.700
45300W        W17560  22.562   3.438  11.618
45301W        W17561  16.804  35.620   4.497
45302W        W17562  23.183   4.228  14.300
45303W        W17563   7.815  32.516   2.136
45304W        W17564  24.066  36.253  12.752
45305W        W17565  12.655   0.697   0.252
45306W        W17566   4.148  38.327  12.898
45307W        W17567  27.588  18.986   2.211
45308W        W17568  18.591  29.433   2.327
45309W        W17569   3.356  14.040   1.905
45310W        W17570   8.776   5.911  14.134
45311W        W17571  14.751  34.393  10.973
45312W        W17572   4.967  11.773  13.863
45313W        W17573   5.051  39.871   4.261
45314W        W17574  33.334  22.027  11.364
45315W        W17575  38.427  34.398  14.321
45316W        W17576  12.750  33.725  12.192
45317W        W17577  43.377  10.455   1.863
45318W        W17578  34.014  23.308  11.064
45319W        W17579  32.541   6.972  11.971
45320W        W17580   2.300  33.172   5.102
45321W        W17581  26.686  17.452  14.194
45322W        W17582  44.977   5.025   2.822
45323W        W17583   1.111  18.123   3.939
45324W        W17584  13.673  25.810  10.638
45325W        W17585  33.920   1.684  10.398
45326W        W17586  37.739  33.264   4.202
45327W        W17587  12.000  35.610  11.565
45328W        W17588  40.388  27.995  14.028
45329W        W17589   5.251  22.130   4.156
45330W        W17590  38.614  37.411   1.422
45331W        W17591  30.462  39.094  13.957
45332W        W17592  37.473  24.635  13.847
45333W        W17593  20.438  11.384  14.583
45334W        W17594  37.575  40.611  10.878
45335W        W17595  37.027  29.877   4.518
45336W        W17596  19.315  26.046   0.243
45337W        W17597  15.541   0.496  13.060
45338W        W17598  23.694  13.703   3.846
45339W        W17599   9.177  44.806  12.312
45340W        W17600  43.213   5.581  12.138
45341W        W17601  38.843  34.464  12.932
45342W        W17602  27.102  14.748  14.014
45343W        W17603  37.678  22.692  10.248
45344W        W17604   5.513   0.860  10.838
45345W        W17605  41.506  16.595  10.699
45346W        W17606  19.504  11.719   2.732
45347W        W17607  27.123  14.720  12.245
45348W        W17608  30.551   1.253  11.143
45349W        W17609  16.704  30.342   0.287
45350W        W17610  35.052  37.586  14.266
45351W        W17611  26.526  26.573   0.067
45352W        W17612  42.386   3.892  13.129
45353W        W17613  23.174  44.253  14.652
45354W        W17614  12.055  33.923  13.942
45355W        W17615  39.874   0.992   2.345
45356W        W17616   6.699   5.341   1.396
45357W        W17617  26.093  43.001   1.751
45358W        W17618  25.319  22.496  12.969
45359W        W17619  26.205  40.865   2.640
45360W        W17620   1.023   1.265  14.397
45361W        W17621   4.463  38.369  11.562
45362W        W17622  31.614  40.095  11.642
45363W        W17623   0.646  36.754  12.443
45364W        W17624  21.250  33.153   3.129
45365W        W17625  43.950  22.688   2.786
45366W        W17626   0.716  36.034   4.088
45367W        W17627  36.415  24.739   2.786
45368W        W17628  16.809  23.477  14.066
45369W        W17629   1.459  27.127  10.612
45370W        W17630  38.652  23.988  13.483
45371W        W17631   0.846   5.209  14.208
45372W        W17632   6.872   5.442   3.149
45373W        W17633  42.626   2.820  10.945
45374W        W17634  32.675  34.163   0.334
45375W        W17635  23.203  16.677  12.351
45376W        W17636  20.231  37.771   1.880
45377W        W17637   0.647  16.128  11.621
45378W        W17638  40.948  20.827  12.427
45379W        W17639  14.279  20.290   2.567
45380W        W17640  10.841   8.426  11.871
45381W        W17641  25.654  41.927  14.915
45382W        W17642   7.137  25.881  12.481
45383W        W17643  32.498  17.030   1.632
45384W        W17644  44.384   7.801   4.491
45385W        W17645   5.310   4.473   2.795
45386W        W17646  20.719  24.687   0.877
45387W        W17647   4.040  23.023   3.088
45388W        W17648  35.381  36.113  11.748
45389W        W17649   6.205  14.987   2.332
45390W        W17650   7.411  21.300   0.760
45391W        W17651  15.485  38.045  12.241
45392W        W17652  35.801   8.757  13.967
45393W        W17653   5.300   4.374   4.858
45394W        W17654  14.802   0.232  14.887
45395W        W17655  36.088  37.355   4.604
45396W        W17656  38.692   9.378  13.193
45397W        W17657  14.747   7.428  11.483
45398W        W17658   1.831  19.097  13.866
45399W        W17659   5.201   9.652  12.041
45400W        W17660  35.567  12.583   0.934
45401W        W17661  15.173  37.105   0.554
45402W        W17662  34.831  43.222  11.700
45403W        W17663  17.381  30.271   3.644
45404W        W17664  38.685  27.915  13.434
45405W        W17665  12.785   1.294   2.420
45406W        W17666  10.704  25.810  14.882
45407W        W17667  27.175   6.929  12.216
45408W        W17668  29.297  33.900  14.378
45409W        W17669  28.920  38.759  11.062
45410W        W17670  13.115  18.745   3.397
45411W        W17671   0.313  29.930  12.508
45412W        W17672   9.677   1.090  14.411
45413W        W17673   3.837  44.201   0.934
45414W        W17674  23.076  27.748   0.993
45415W        W17675  20.674  19.338  12.042
45416W        W17676  23.546  40.466  10.149
45417W        W17677   5.814  39.721  12.033
45418W        W17678  29.275  17.649  11.699
45419W        W17679   1.773  43.505  14.300
45420W        W17680  43.705  41.044  12.054
45421W        W17681   2.438  15.515  10.562
45422W        W17682  19.624   7.355   5.289
45423W        W17683  30.138  29.338  14.192
45424W        W17684  33.952   0.025  11.977
45425W        W17685   2.339  39.603   4.152
45426W        W17686  21.092   1.059  11.597
45427W        W17687  39.012   9.734  10.992
45428W        W17688  29.002  15.594   1.829
45429W        W17689  31.036  26.812   1.689
45430W        W17690   5.683  27.492  11.563
45431W        W17691  32.557  24.087   2.872
45432W        W17692  14.666  27.624   1.981
45433W        W17693  34.156  42.210   2.873
45434W        W17694  24.487  44.056   3.256
45435W        W17695  34.600   4.399   2.792
45436W        W17696  29.552   6.648   4.939
45437W        W17697  17.195  40.399  13.366
45438W        W17698  22.938   9.692  11.153
45439W        W17699  42.899  18.251   1.406
45440W        W17700  27.254  21.669   2.170
45441W        W17701  43.697  10.043   2.002
45442W        W17702  12.227   2.989   4.695
45443W        W17703  13.361  36.642  14.499
45444W        W17704  42.684  28.345   3.626
45445W        W17705  37.841  25.682  14.736
45446W        W17706   8.733   8.278   2.206
45447W        W17707  31.387   8.297  10.780
45448W        W17708  35.872  16.386  13.861
45449W        W17709  20.744   6.692  14.906
45450W        W17710   8.415  38.680   3.724
45451W        W17711  18.915  32.008   2.908
45452W        W17712  30.937  17.903  11.100
45453W        W17713  30.659   9.701   1.717
45454W        W17714   1.364  32.889   4.575
45455W        W17715  25.987  22.489   4.623
45456W        W17716   3.469  40.491   4.645
45457W        W17717   4.839  26.040  12.028
45458W        W17718  15.553  17.687  10.658
45459W        W17719   1.477  29.459   0.769
45460W        W17720  15.184   8.752   0.831
45461W        W17721  38.012  11.669   1.204
45462W        W17722   8.097  31.530   2.677
45463W        W17723  41.969  22.552  14.647
45464W        W17724  33.902   2.348   4.237
45465W        W17725  39.302  23.479   3.240
45466W        W17726  37.719  38.892   4.646
45467W        W17727  38.437  32.566   1.826
45468W        W17728  12.924   0.388   1.625
45469W        W17729  18.262   7.087   0.004
45470W        W17730  10.822  36.870   4.461
45471W        W17731  40.727  43.414   2.111
45472W        W17732  23.236  44.936   3.299
45473W        W17733   9.415   2.492  11.402
45474W        W17734  19.206  30.047  14.751
45475W        W17735   1.735  19.091  12.825
45476W        W17736  28.649  28.668  12.816
45477W        W17737   6.260  11.366  13.035
45478W        W17738  34.479   3.003   2.691
45479W        W17739  15.771   5.040  14.469
45480W        W17740  14.314  34.960   5.155
45481W        W17741  42.970  27.245   4.145
45482W        W17742  15.974  20.583  14.390
45483W        W17743   7.658  43.214  12.010
45484W        W17744  32.939  43.986  12.932
45485W        W17745  37.370   2.285  12.919
45486W        W17746  12.948   9.407   4.247
45487W        W17747  30.713  33.410   5.073
45488W        W17748  41.971  21.335   4.975
45489W        W17749  28.747   5.090   1.634
45490W        W17750  38.987   7.139   2.909
45491W        W17751  27.164  40.765   2.803
45492W        W17752  24.410  25.934   3.486
45493W        W17753  22.542  44.734  12.470
45494W        W17754   7.947  24.157  12.025
45495W        W17755  27.691  24.575   0.192
45496W        W17756  34.505  32.821   1.790
45497W        W17757  30.681  23.208  13.083
45498W        W17758  20.316  17.010  12.540
45499W        W17759  30.887  43.609  14.846
45500W        W17760   2.768  29.614  10.699
45501W        W17761  35.519  22.644  14.420
45502W        W17762   6.672   2.715   4.119
45503W        W17763  16.807  12.641   2.778
45504W        W17764  38.374  32.628  13.763
45505W        W17765  30.245  18.347  11.060
45506W        W17766  43.704   8.657   3.795
45507W        W17767  11.458   0.767  13.007
45508W        W17768  31.070   6.939  11.604
45509W        W17769  20.576  13.707   3.865
45510W        W17770  44.036  39.674  14.015
45511W        W17771  43.666  38.957  11.098
45512W        W17772   4.213   8.678  13.986
45513W        W17773  36.872  12.451  11.934
45514W        W17774  13.630  44.749   1.930
45515W        W17775  15.717  30.172   4.042
45516W        W17776   2.971  25.488  12.358
45517W        W17777  22.169   8.773   2.706
45518W        W17778  33.408   9.679  12.617
45519W        W17779  20.834  39.956  11.546
45520W        W17780  15.733  10.211   5.290
45521W        W17781  19.718  31.943  10.669
45522W        W17782  10.759  19.284   2.648
45523W        W17783   5.244   2.974   4.248
45524W        W17784  27.441   3.476   2.732
45525W        W17785  13.763  37.422  13.448
45526W        W17786  43.245   5.236  13.969
45527W        W17787   3.695  11.577  14.895
45528W        W17788   6.815   8.812   3.735
45529W        W17789  26.901   3.376   0.820
45530W        W17790   8.260  28.082  10.801
45531W        W17791  41.791  43.183  10.576
45532W        W17792  16.852  26.651  11.020
45533W        W17793  10.113   7.304  11.991
45534W        W17794  19.041   7.215   1.777
45535W        W17795   0.972  28.025   1.718
45536W        W17796   3.767  16.681   4.131
45537W        W17797  16.362   4.481   1.811
45538W        W17798  44.405  32.669   1.317
45539W        W17799  33.501  16.542   1.888
45540W        W17800  39.635  41.948   1.957
45541W        W17801  29.316  16.068   2.269
45542W        W17802  38.906   7.838   2.242
45543W        W17803  21.128  32.849   2.715
45544W        W17804  26.050  34.139   0.842
45545W        W17805  32.656  38.923   3.716
45546W        W17806  23.919  19.548   4.161
45547W        W17807  16.101  25.242   3.165
45548W        W17808  15.033  12.390  12.614
45549W        W17809  14.423  39.622  14.944
45550W        W17810  43.800  30.643   3.710
45551W        W17811  17.602  34.901  13.383
45552W        W17812  24.707  34.155  11.599
45553W        W17813   6.877  24.693   4.701
45554W        W17814   5.659  12.738   0.521
45555W        W17815  38.252  11.871   2.738
45556W        W17816  33.787   1.288  12.465
45557W        W17817  31.645  11.125   2.731
45558W        W17818  43.565   4.454   4.486
45559W        W17819  22.209  33.035   0.334
45560W        W17820  36.083  15.856   4.898
45561W        W17821  22.702   1.441   4.486
45562W        W17822  33.369  25.037   2.661
45563W        W17823  23.563   9.745   0.901
45564W        W17824  32.234  35.451   4.681
45565W        W17825  27.560  27.696  12.332
45566W        W17826  15.631  20.046  11.965
45567W        W17827  16.743   7.627  10.709
45568W        W17828  12.293  30.390  11.532
45569W        W17829  23.311  18.626   0.514
45570W        W17830  10.940  20.686   1.559
45571W        W17831  41.577  17.716  13.997
45572W        W17832  39.284  12.352   1.281
45573W        W17833   6.953  18.030  10.659
45574W        W17834  39.347  30.601  11.231
45575W        W17835  39.750   7.259  11.928
45576W        W17836  32.933  25.389  14.689
45577W        W17837   5.456   6.990  14.350
45578W        W17838  27.175  19.626  12.440
45579W        W17839  23.913  34.371   1.215
45580W        W17840   9.451  32.415   2.790
45581W        W17841   0.050   0.262   1.816
45582W        W17842  25.697   9.257  11.120
45583W        W17843  12.836  17.110  14.065
45584W        W17844  24.119  31.138  14.993
45585W        W17845  35.190  13.361  11.589
45586W        W17846   5.536  27.264  14.280
45587W        W17847  40.939   1.873  14.176
45588W        W17848  37.548  26.743   0.350
45589W        W17849  34.282  26.164   4.149
45590W        W17850   3.578  32.287  10.795
45591W        W17851  15.372  19.497  12.801
45592W        W17852   1.977  18.134   1.228
45593W        W17853  14.108  32.301   4.133
45594W        W17854  14.091   6.816  10.974
45595W        W17855  18.644   9.413   5.021
45596W        W17856  39.384   2.965   4.219
45597W        W17857  32.063  20.574  14.810
45598W        W17858  42.475  19.734   0.106
45599W        W17859   6.473  32.043   3.169
45600W        W17860   5.757  30.480  14.354
45601W        W17861  31.253  18.713   3.180
45602W        W17862  29.528  44.976  13.182
45603W        W17863  13.386  19.266   2.753
45604W        W17864  43.156   3.410  12.064
45605W        W17865   3.313   7.953  11.661
45606W        W17866   6.621  21.155  10.539
45607W        W17867  21.944   8.362  11.678
45608W        W17868  17.196  37.439  13.466
45609W        W17869  37.000   0.035   3.042
45610W        W17870   0.306  27.178   1.471
45611W        W17871  13.288   8.197  14.023
45612W        W17872  27.583  15.729   1.330
45613W        W17873  29.458  33.993  12.498
45614W        W17874  28.619  26.176   4.649
45615W        W17875  17.035   2.239  12.025
45616W        W17876  11.717  29.989   4.694
45617W        W17877  12.702   7.942   4.169
45618W        W17878  25.685  21.828  10.647
45619W        W17879   5.833  18.675   1.326
45620W        W17880  40.059  35.315   0.700
45621W        W17881  36.853  19.245   1.146
45622W        W17882  26.539  34.007   0.679
45623W        W17883  16.827  36.212  11.982
45624W        W17884  20.702  29.690  14.929
45625W        W17885  24.912  31.006  14.441
45626W        W17886  37.403  11.374  11.937
45627W        W17887  32.538   9.710   2.359
45628W        W17888   9.612  22.371   2.552
45629W        W17889  24.488   3.309   1.479
45630W        W17890  43.977  30.023   4.477
45631W        W17891  20.709  34.028   1.833
45632W        W17892  14.208  24.272  12.854
45633W        W17893  42.353  12.577   0.308
45634W        W17894  44.298  34.370   3.705
45635W        W17895  19.589  34.709   4.169
45636W        W17896  12.293  14.079   5.004
45637W        W17897  23.495   2.081   4.771
45638W        W17898  41.120  30.906   4.945
45639W        W17899  22.285  16.784  13.375
45640W        W17900   3.933  17.274   3.764
45641W        W17901  44.076  16.345   1.550
45642W        W17902  14.770  22.370  10.244
45643W        W17903  33.440  34.463   0.234
45644W        W17904  18.063  10.138   3.199
45645W        W17905  39.558  18.046  11.930
45646W        W17906  22.599  29.481  11.852
45647W        W17907  15.818  26.676   0.314
45648W        W17908  26.295  43.540   0.374
45649W        W17909  32.028  32.877  10.647
45650W        W17910   1.768   2.021  11.471
45651W        W17911  30.408   3.057   4.591
45652W        W17912  40.867  34.618  13.351
45653W        W17913   9.838  11.925  13.465
45654W        W17914   8.361  21.490   4.184
45655W        W17915  17.828  33.676   1.606
45656W        W17916  21.739  36.934  13.821
45657W        W17917  34.279  37.429  10.709
45658W        W17918  27.901   0.645  12.468
45659W        W17919  29.973  39.310  14.645
45660W        W17920  33.616  24.067  11.367
45661W        W17921   6.468   0.411   0.773
45662W        W17922  32.712  12.295  11.139
45663W        W17923   6.323  10.169   3.643
45664W        W17924  23.958  10.341   1.291
45665W        W17925  39.971  35.145  12.908
45666W        W17926  14.406   0.383  13.945
45667W        W17927  43.386  41.543  10.764
45668W        W17928  35.608   9.312   0.520
45669W        W17929  39.993  31.105  10.708
45670W        W17930  28.002  32.904   0.727
45671W        W17931   2.195  35.335   4.310
45672W        W17932  22.592  20.456  13.460
45673W        W17933  33.380   2.290   5.028
45674W        W17934   8.453  43.209   3.706
45675W        W17935  39.829  21.525  10.730
45676W        W17936  40.043   6.371   2.798
45677W        W17937  13.133  13.041   1.356
45678W        W17938   2.049  15.627  14.981
45679W        W17939  44.011   5.633  12.686
45680W        W17940  18.487  41.794  10.703
45681W        W17941  14.176  26.923  14.886
45682W        W17942  13.919  28.742  12.617
45683W        W17943   5.634  23.197   0.412
45684W        W17944  10.131  24.055  12.981
45685W        W17945  43.372  13.450   3.655
45686W        W17946  39.823  43.435   4.433
45687W        W17947  15.465   6.662  14.382
45688W        W17948  20.005   4.398  14.855
45689W        W17949  40.412  24.024   4.565
45690W        W17950  26.468  14.722   1.429
45691W        W17951  39.629  40.314  12.575
45692W        W17952   3.890   9.693   4.542
45693W        W17953  26.266  39.224   3.789
45694W        W17954  37.001   9.294   3.876
45695W        W17955  27.151   5.367   2.450
45696W        W17956  15.464  13.258  11.923
45697W        W17957  28.004  39.502  14.702
45698W        W17958  16.246  16.105   0.877
45699W        W17959  40.216  23.601   0.856
45700W        W17960  29.195  33.396  10.682
45701W        W17961  14.771  20.475   2.447
45702W        W17962   3.587  42.489   4.777
45703W        W17963  25.456  39.864   1.735
45704W        W17964   5.753  31.434  14.330
45705W        W17965  21.235  41.060   0.360
45706W        W17966   1.432  37.441   4.637
45707W        W17967  21.097  10.676  12.242
45708W        W17968  40.296  38.017  10.759
45709W        W17969  21.076   0.538   4.539
45710W        W17970  26.057   4.168   0.240
45711W        W17971  14.755  14.586  12.894
45712W        W17972  15.048   6.873  13.409
45713W        W17973  32.588   1.332  10.894
45714W        W17974   8.666  19.384   3.587
45715W        W17975  16.114   2.516   0.350
45716W        W17976  22.659  18.026   3.148
45717W        W17977  11.685   0.010  13.614
45718W        W17978  35.143   0.548   3.026
45719W        W17979  18.156  27.872   1.843
45720W        W17980  42.746   8.165   3.082
45721W        W17981  32.810  20.289   2.702
45722W        W17982   1.721  35.195   4.142
45723W        W17983   1.048  17.118  13.832
45724W        W17984  31.111  23.501  13.024
45725W        W17985   2.219  21.185  11.102
45726W        W17986  15.160  31.211   3.312
45727W        W17987   2.441  11.328   4.194
45728W        W17988  30.183  31.930   1.376
45729W        W17989  15.813  43.892   2.173
45730W        W17990  25.449  12.459   2.792
45731W        W17991   7.582  19.973   5.011
45732W        W17992  43.095  43.377  13.429
45733W        W17993  39.115  36.800  10.642
45734W        W17994  17.312  31.265  11.414
45735W        W17995  12.676  32.021   3.710
45736W        W17996  17.093  13.360  10.999
45737W        W17997  23.998  11.348  11.622
45738W        W17998  41.843  42.674  10.616
45739W        W17999   0.253  24.244  12.510
45740W        W18000  37.091  13.341  14.025
45741W        W18001  34.510  23.440   2.615
45742W        W18002   0.172   2.502  14.469
45743W        W18003   8.499  10.652   4.575
45744W        W18004  24.691  33.329  11.965
45745W        W18005   0.824  11.199   2.470
45746W        W18006  25.228  23.128   4.881
45747W        W18007  34.874  23.714   1.254
45748W        W18008   9.105  25.556   1.309
45749W        W18009  42.856   9.741   2.334
45750W        W18010  30.665  13.629   4.089
45751W        W18011   2.724  19.075   2.184
45752W        W18012  13.609  29.439   0.587
45753W        W18013  19.806   1.902   2.080
45754W        W18014   7.346  21.947   0.055
45755W        W18015  16.619  28.581   3.628
45756W        W18016  41.720  16.857  11.606
45757W        W18017  35.272   1.385   0.403
45758W        W18018  10.131  22.213   0.397
45759W        W18019  13.363  40.259   4.114
45760W        W18020   0.800  33.544   5.018
45761W        W18021  35.229  32.102   3.658
45762W        W18022  44.076  40.162   1.886
45763W        W18023  23.460  30.245  10.333
45764W        W18024  30.580   6.450  11.158
45765W        W18025  33.971  25.615  11.955
45766W        W18026  19.081  22.620  11.996
45767W        W18027   9.135  28.077  13.532
45768W        W18028   2.176  36.824  11.638
45769W        W18029  35.568  16.075  13.518
45770W        W18030  12.697  28.962  12.152
45771W        W18031  27.631  40.973  13.460
45772W        W18032  16.277  37.852   3.154
45773W        W18033   3.245   7.118   3.631
45774W        W18034   1.618  39.528   4.582
45775W        W18035   0.049  30.824  11.114
45776W        W18036  13.033   0.478  10.677
45777W        W18037  23.046  14.711  14.210
45778W        W18038   6.481  16.249   4.666
45779W        W18039  36.386  10.935  11.059
45780W        W18040   1.894  37.114  11.984
45781W        W18041  40.767  18.292  12.438
45782W        W18042   4.760  21.073   1.845
45783W        W18043   4.472  23.230   2.210
45784W        W18044  39.264   3.147  11.979
45785W        W18045  23.659   5.258   4.925
45786W        W18046  33.035  19.507   5.014
45787W        W18047  39.513  43.507   3.122
45788W        W18048  11.847  42.064   1.359
45789W        W18049  21.966  25.797   5.436
45790W        W18050  28.671  43.299  11.650
45791W        W18051   1.482  38.471  12.952
45792W        W18052  25.975   9.315  14.064
45793W        W18053  33.840  30.417   2.037
45794W        W18054  11.027   6.847  13.766
45795W        W18055   6.996  17.037   0.341
45796W        W18056   4.942  12.435  11.889
45797W        W18057  36.878  20.394  11.203
45798W        W18058  44.197  17.048   1.872
45799W        W18059   6.253  10.454   0.927
45800W        W18060  32.598  40.706   2.158
45801W        W18061   3.438  24.944  13.139
45802W        W18062  38.505  16.034   1.279
45803W        W18063   0.533   3.702   2.653
45804W        W18064  35.662   3.941   2.815
45805W        W18065  28.597  11.234  12.903
45806W        W18066   7.367   7.256  11.089
45807W        W18067  32.443   6.252   4.542
45808W        W18068  27.283  42.493   2.473
45809W        W18069  23.141  32.554  13.737
45810W        W18070  35.844   8.691  11.422
45811W        W18071  40.554  32.897  11.400
45812W        W18072  34.580   1.970  12.607
45813W        W18073  44.339  24.906  14.049
45814W        W18074  35.994  39.654  11.107
45815W        W18075  11.353  18.614   4.160
45816W        W18076  35.561   5.451  11.236
45817W        W18077  23.748  21.222   1.240
45818W        W18078  40.880  28.911  12.985
45819W        W18079  13.654  25.095  14.934
45820W        W18080  22.246  42.995  11.983
45821W        W18081  30.077   8.134  12.190
45822W        W18082  27.407  22.502   0.318
45823W        W18083   9.517  30.198   4.992
45824W        W18084  40.363  21.069   4.183
45825W        W18085  22.100  17.158  14.351
45826W        W18086  20.650  13.056  12.870
45827W        W18087  33.633  44.374  13.366
45828W        W18088  41.879  31.645  13.532
45829W        W18089  44.559  15.293   2.966
45830W        W18090  16.086  11.073  14.247
45831W        W18091   1.151  32.642   0.389
45832W        W18092  42.511  27.670   4.154
45833W        W18093  43.041  11.190   0.238
45834W        W18094   1.634  20.147   0.873
45835W        W18095   2.677  27.913   1.426
45836W        W18096  30.846  44.008  14.454
45837W        W18097  31.538  36.083  13.982
45838W        W18098  18.475  40.331  14.564
45839W        W18099  42.284   7.461   3.671
45840W        W18100  33.355  44.452   4.238
45841W        W18101  35.937  40.957   3.254
45842W        W18102  34.554  21.219  13.960
45843W        W18103   9.788  39.413  13.231
45844W        W18104  34.291  19.230  11.664
45845W        W18105  20.724  35.630  12.034
45846W        W18106  22.545  44.218   4.583
45847W        W18107   9.963   5.336  14.403
45848W        W18108  44.737  18.473  14.318
45849W        W18109  35.498  20.145  11.416
45850W        W18110  42.834  14.288  10.787
45851W        W18111  14.822  22.578   3.603
45852W        W18112  24.066  36.298   1.912
45853W        W18113  34.340  37.503   0.784
45854W        W18114  38.832  33.588   0.673
45855W        W18115  40.310  27.371   4.416
45856W        W18116  21.763  36.039  13.355
45857W        W18117   0.253  11.703   1.909
45858W        W18118  15.683  28.442   1.716
45859W        W18119  33.050  31.112   2.024
45860W        W18120   7.299  11.898   4.108
45861W        W18121  38.157  18.715  11.074
45862W        W18122  18.203  21.315   1.746
45863W        W18123  20.240   6.083  12.429
45864W        W18124  40.218  14.470   5.023
45865W        W18125   2.314  26.691  11.196
45866W        W18126  33.497   1.395   0.901
45867W        W18127  41.221  35.160  12.505
45868W        W18128  21.254  33.441   2.279
45869W        W18129  28.405  28.882   4.261
45870W        W18130  38.607  41.056   3.440
45871W        W18131  18.994  10.543   0.371
45872W        W18132  18.570  15.674   4.311
45873W        W18133  42.637  24.739   2.169
45874W        W18134  21.335  21.122   9.780
45875W        W18135  25.971  36.481   1.823
45876W        W18136  37.737  16.731   2.825
45877W        W18137  10.184  41.393  10.922
45878W        W18138  34.218  36.548   1.134
45879W        W18139  18.201  16.751  13.851
45880W        W18140  39.776  20.637  10.765
45881W        W18141  17.580  30.583  12.523
45882W        W18142  19.864   8.865  12.349
45883W        W18143  37.682  23.528   2.039
45884W        W18144  17.660  35.580   3.447
45885W        W18145  24.045  24.178  11.371
45886W        W18146  32.116   4.222  14.106
45887W        W18147  39.017   0.473  13.831
45888W        W18148  12.624  19.024   3.202
45889W        W18149  25.485  20.020   4.757
45890W        W18150  31.553   5.182   3.379
45891W        W18151  40.623  21.550  13.383
45892W        W18152  24.778   1.284   0.969
45893W        W18153  21.840   8.710   1.519
45894W        W18154   7.313  28.809  14.825
45895W        W18155   4.611  23.723   2.167
45896W        W18156  10.276  31.038   3.644
45897W        W18157  17.246   3.139   4.654
45898W        W18158  41.156  21.738  12.488
45899W        W18159  22.248  17.293   4.378
45900W        W18160  15.077  13.751  10.676
45901W        W18161  29.921  23.859  13.325
45902W        W18162  35.028  31.392  11.458
45903W        W18163  15.692  37.557   3.724
45904W        W18164  39.585  22.549  13.869
45905W        W18165  12.141  30.373   1.120
45906W        W18166   1.141   3.353   3.169
45907W        W18167  28.139   4.852  13.370
45908W        W18168   3.862   0.521   0.309
45909W        W18169   3.958  42.383  11.664
45910W        W18170  35.580  33.978  12.111
45911W        W18171  33.992  30.435  10.825
45912W        W18172  31.422   7.819  11.417
45913W        W18173  36.091  42.529  14.440
45914W        W18174  28.134  14.689  13.565
45915W        W18175  29.695   0.506   1.383
45916W        W18176  37.475  27.133  13.089
45917W        W18177  10.352  25.094  14.353
45918W        W18178   5.300  36.391   3.184
45919W        W18179  22.663  43.660   4.616
45920W        W18180  44.114  23.243  14.007
45921W        W18181   5.819   1.526  12.437
45922W        W18182  31.950  32.576  12.380
45923W        W18183  40.981   7.348  11.162
45924W        W18184  34.381  38.072   4.142
45925W        W18185  40.433   3.371   0.014
45926W        W18186  21.266  31.970   3.597
45927W        W18187   3.942  23.928  12.556
45928W        W18188   1.684  11.771   0.752
45929W        W18189  30.501  20.066   3.714
45930W        W18190  31.713  29.695   3.252
45931W        W18191  39.490  13.637   1.291
45932W        W18192  19.264  12.268  11.172
45933W        W18193  25.668   5.017   2.071
45934W        W18194  17.775  18.384   0.304
45935W        W18195  39.737  17.348  14.113
45936W        W18196  36.668  10.670   3.549
45937W        W18197  35.478   9.746  12.905
45938W        W18198  22.995  26.142  11.944
45939W        W18199   6.446   9.797  12.755
45940W        W18200   3.019   3.205   1.247
45941W        W18201   7.985  41.957  14.320
45942W        W18202  18.198  24.255  11.614
45943W        W18203   2.885  39.784   2.163
45944W        W18204  41.306  27.768  13.563
45945W        W18205  29.099  29.520   2.891
45946W        W18206  44.075  43.977  12.028
45947W        W18207  34.961  29.822  13.381
45948W        W18208   6.320   2.559   2.269
45949W        W18209  34.027  22.985  10.673
45950W        W18210   4.327   9.190  14.029
45951W        W18211  39.538  38.485   2.550
45952W        W18212   1.999  16.037   3.811
45953W        W18213  14.406  20.977  10.815
45954W        W18214  35.554  22.399  12.105
45955W        W18215   1.845  42.342  10.731
45956W        W18216   2.168   1.946  14.970
45957W        W18217  38.310   7.406   1.716
45958W        W18218  28.457  24.900   3.366
45959W        W18219  12.322  16.071   2.293
45960W        W18220  21.210  36.890  11.226
45961W        W18221  30.877  10.202  11.555
45962W        W18222   9.239  40.550   4.718
45963W        W18223   0.997   3.163  10.252
45964W        W18224  11.440  13.861   1.512
45965W        W18225  13.277  13.639  12.332
45966W        W18226  32.352  36.571  13.777
45967W        W18227   7.796  24.695   1.699
45968W        W18228   4.861  14.039  14.950
45969W        W18229  18.785  30.080   0.738
45970W        W18230   8.392  33.940  11.257
45971W        W18231   3.843  42.397  14.048
45972W        W18232  40.796  43.539  12.483
45973W        W18233  39.788   6.112  11.413
45974W        W18234  31.914  34.342   1.674
45975W        W18235  13.277  12.619  13.984
45976W        W18236  15.972  12.144   4.856
45977W        W18237   0.808  41.455   3.646
45978W        W18238  44.004  17.674  13.883
45979W        W18239  38.366  43.840   3.881
45980W        W18240  19.569  26.417   3.239
45981W        W18241  17.560   0.021   3.776
45982W        W18242   6.717  27.315  14.688
45983W        W18243  22.415   4.603   1.211
45984W        W18244  40.644   8.197   3.715
45985W        W18245  22.444   8.147  14.859
45986W        W18246  23.994  39.833  10.595
45987W        W18247   8.888  41.250  11.161
45988W        W18248  29.563  38.749   3.157
45989W        W18249  36.815   0.146   2.414
45990W        W18250  13.738  38.476   4.110
45991W        W18251  33.501  38.297  13.581
45992W        W18252   4.585  29.084   3.828
45993W        W18253  10.399  38.744  11.881
45994W        W18254  40.381  35.641   4.899
45995W        W18255  25.978   2.306  14.332
45996W        W18256  44.896  38.947  13.002
45997W        W18257  42.035  16.639  14.271
45998W        W18258   8.699   0.214   1.325
45999W        W18259  19.784  11.642   0.933
46000W        W18260   9.449  24.181  13.813
46001W        W18261  32.191  43.006   3.840
46002W        W18262  28.103   6.657  13.110
46003W        W18263  31.194   2.792   3.388
46004W        W18264  30.369   1.884   3.792
46005W        W18265   9.137   4.409   1.609
46006W        W18266  30.545   9.716  14.498
46007W        W18267  44.679  34.294   0.351
46008W        W18268  14.054  24.712  11.566
46009W        W18269  37.967  43.720   0.112
46010W        W18270  36.658  20.663   0.911
46011W        W18271  15.629  30.061  13.296
46012W        W18272  20.495  13.752  12.452
46013W        W18273  39.283  20.018   0.923
46014W        W18274  18.841  40.168   0.948
46015W        W18275  10.285  15.627   2.567
46016W        W18276  34.482  14.249   4.804
46017W        W18277  34.835  24.726   1.505
46018W        W18278  40.698  20.156   1.384
46019W        W18279  25.567   7.321   0.795
46020W        W18280   0.779   8.284  13.019
46021W        W18281  16.625  33.216   4.654
46022W        W18282  41.878   9.820  10.659
46023W        W18283  34.453  23.073  13.267
46024W        W18284  41.690  43.087   4.123
46025W        W18285  39.622  18.839   1.243
46026W        W18286  13.839  40.601  14.368
46027W        W18287  27.593  34.228  10.648
46028W        W18288  43.367   1.478  10.957
46029W        W18289  39.922  32.426  12.091
46030W        W18290  18.759  42.720   1.675
46031W        W18291   8.829   3.248   3.832
46032W        W18292  20.248  41.242  12.637
46033W        W18293  25.576   4.220   1.990
46034W        W18294  26.539  28.204  12.456
46035W        W18295  31.484  42.472  10.829
46036W        W18296  16.744  43.007  14.970
46037W        W18297   9.705   9.830  13.348
46038W        W18298  44.088  27.347  11.132
46039W        W18299  27.481  36.641  13.089
46040W        W18300  43.853  28.748  13.397
46041W        W18301  12.062  24.934  10.947
46042W        W18302  32.152  24.796  12.440
46043W        W18303  28.378  42.004  11.065
46044W        W18304  31.373  24.795  11.170
46045W        W18305  38.262   3.390  11.964
46046W        W18306  19.333  23.166   4.234
46047W        W18307  41.012  13.822   1.332
46048W        W18308  31.695  44.303  14.340
46049W        W18309  31.047  18.850  14.586
46050W        W18310  41.956  33.556   2.848
46051W        W18311  41.474  27.686   1.736
46052W        W18312  43.906  38.827  14.318
46053W        W18313  10.845  13.363  14.699
46054W        W18314  27.555  16.811  12.172
46055W        W18315   8.115   3.886  10.966
46056W        W18316  36.568  24.202   3.561
46057W        W18317   5.657   8.567   4.190
46058W        W18318  43.803  25.631   3.891
46059W        W18319  24.585   0.859  14.896
46060W        W18320  43.718  41.692  11.155
46061W        W18321  35.916  14.683   3.402
46062W        W18322  31.398  13.770   2.752
46063W        W18323  42.347  20.552   3.158
46064W        W18324   5.966  40.072   2.531
46065W        W18325  29.110  11.366  14.300
46066W        W18326  14.665  28.206   0.296
46067W        W18327   4.713  44.916  13.100
46068W        W18328  25.548  18.627   0.769
46069W        W18329  12.931  42.858  14.973
46070W        W18330   0.926  25.655   1.871
46071W        W18331  31.181  36.790  11.578
46072W        W18332  25.242  44.243   1.630
46073W        W18333   0.057  21.760   2.861
46074W        W18334  26.493   6.307  14.281
46075W        W18335  31.781  44.839  14.980
46076W        W18336  17.476  22.932  12.553
46077W        W18337  10.919  37.032  13.912
46078W        W18338  43.951   8.841   3.369
46079W        W18339  25.210  27.990   3.220
46080W        W18340  44.975  28.170   4.530
46081W        W18341  38.997  10.383  11.424
46082W        W18342  25.013   8.909   2.712
46083W        W18343  36.760  16.133  13.959
46084W        W18344  40.553  37.004   3.956
46085W        W18345  44.863  43.457  10.495
46086W        W18346  42.484  40.590  12.540
46087W        W18347  31.581  10.815   3.320
46088W        W18348  14.647  38.809   1.914
46089W        W18349   4.222  22.169   4.594
46090W        W18350  35.320   1.823  11.925
46091W        W18351  29.693  20.113  13.941
46092W        W18352  38.756  37.337   3.789
46093W        W18353  31.982  15.377   1.681
46094W        W18354  12.323   3.195   4.171
46095W        W18355  20.444   2.251  11.906
46096W        W18356   9.821  16.831   0.928
46097W        W18357  33.530  20.600   0.188
46098W        W18358  30.794  10.338   0.866
46099W        W18359  17.092   4.887  11.938
46100W        W18360  34.632   7.084   4.140
46101W        W18361   0.676   2.788  11.787
46102W        W18362  10.923  24.174   4.239
46103W        W18363   2.715   9.839   4.765
46104W        W18364  18.153  32.923  12.587
46105W        W18365  44.046   0.419   1.904
46106W        W18366   1.187  44.951  14.516
46107W        W18367  22.210  24.491   2.744
46108W        W18368  41.088  17.488  11.927
46109W        W18369   0.488  11.699   0.048
46110W        W18370  12.140  18.799   4.256
46111W        W18371  25.165   9.731  14.301
46112W        W18372   5.106  12.527   4.147
46113W        W18373   3.857  40.893  12.474
46114W        W18374  14.102  25.910  12.291
46115W        W18375   6.867  11.640  14.213
46116W        W18376  16.221   7.644   2.907
46117W        W18377   7.484   9.177  14.246
46118W        W18378  12.181   5.886  13.874
46119W        W18379  12.171  24.764  13.611
46120W        W18380   3.042  37.036   3.771
46121W        W18381  25.639  15.667   1.676
46122W        W18382   4.886  33.093   1.584
46123W        W18383  35.111  16.327  13.490
46124W        W18384  19.252  43.520   2.818
46125W        W18385  34.442   9.720   4.682
46126W        W18386  35.564  14.312   4.673
46127W        W18387  17.690  33.663   0.726
46128W        W18388  12.643  39.006   1.799
46129W        W18389  11.759  41.612   1.621
46130W        W18390  42.810  24.942   3.882
46131W        W18391  30.628  39.091  11.615
46132W        W18392  44.862  10.861   1.745
46133W        W18393  37.365   5.827  14.318
46134W        W18394  30.516  44.276   3.610
46135W        W18395  19.722  37.383  14.973
46136W        W18396  18.827  29.735  14.562
46137W        W18397  22.531  34.382  11.415
46138W        W18398  15.535  31.982   0.978
46139W        W18399  21.654  12.763   2.544
46140W        W18400  30.458  41.446  11.601
46141W        W18401   8.815  24.663   0.876
46142W        W18402   5.160  37.063   2.565
46143W        W18403  36.708  28.700  14.836
46144W        W18404  19.371   3.101   2.365
46145W        W18405  37.568  19.335   4.379
46146W        W18406   3.758  44.344   3.715
46147W        W18407  21.078  35.936  12.468
46148W        W18408   9.405  17.494   1.953
46149W        W18409  33.810   1.788   0.411
46150W        W18410  28.425  23.009  12.022
46151W        W18411   2.766  16.222   0.301
46152W        W18412  39.629  42.408   2.253
46153W        W18413  33.659  12.897  13.168
46154W        W18414  31.339  15.603   4.142
46155W        W18415   1.329   5.043  10.933
46156W        W18416  16.136  37.440   3.459
46157W        W18417  19.793  24.730  10.629
46158W        W18418  29.162   8.885  14.445
46159W        W18419  10.359  43.339   0.329
46160W        W18420  43.753   5.476   3.289
46161W        W18421   7.129  29.980  13.514
46162W        W18422  43.951  23.585   0.836
46163W        W18423  26.446  26.626  14.579
46164W        W18424   0.572  39.577  13.400
46165W        W18425  12.245  20.666   4.613
46166W        W18426  38.346  17.527   2.716
46167W        W18427  32.016  14.215  13.678
46168W        W18428  37.547  30.766   4.538
46169W        W18429  40.146  42.027  14.830
46170W        W18430  30.297  24.659  11.954
46171W        W18431   3.143  16.091  11.447
46172W        W18432  14.839   8.286  14.787
46173W        W18433   1.722  39.547  11.034
46174W        W18434  37.645  33.448  13.306
46175W        W18435  37.927   2.211   0.490
46176W        W18436  35.502  41.818  14.548
46177W        W18437  10.154  22.944  13.883
46178W        W18438  22.113  22.024  11.658
46179W        W18439   0.947   2.443   4.618
46180W        W18440  33.801  14.183  13.441
46181W        W18441   9.857   3.571  12.713
46182W        W18442   5.615  23.041   3.615
46183W        W18443  20.645  14.699  11.738
46184W        W18444   4.300   2.127   2.592
46185W        W18445   8.498  11.556   5.020
46186W        W18446   2.388   3.186  11.501
46187W        W18447  30.973  14.061  13.606
46188W        W18448  24.302  34.430  12.539
46189W        W18449  13.301  22.464  14.526
46190W        W18450   3.435  11.738   4.145
46191W        W18451  26.934  35.461   3.734
46192W        W18452  28.620  33.399   0.008
46193W        W18453  11.303  39.280  10.823
46194W        W18454  21.515  32.996   2.150
46195W        W18455  19.833  19.957  10.775
46196W        W18456  22.160  33.873  13.028
46197W        W18457   6.373  11.905   4.148
46198W        W18458  22.447  18.726  14.991
46199W        W18459  26.472  34.465   0.948
46200W        W18460  33.651  41.741   5.345
46201W        W18461  30.664  15.356   0.868
46202W        W18462  22.381  29.207   0.484
46203W        W18463  34.918   7.199   3.282
46204W        W18464  18.002   3.437  14.803
46205W        W18465  20.231  40.596   2.694
46206W        W18466  25.241  10.080   0.078
46207W        W18467  27.942  33.658  12.131
46208W        W18468  27.806  26.525   4.596
46209W        W18469   8.008  41.975  13.363
46210W        W18470   3.311  44.868   1.490
46211W        W18471   5.016  28.373   3.224
46212W        W18472  24.743  34.104  12.417
46213W        W18473  42.018   2.843  13.593
46214W        W18474  12.739  11.101   2.707
46215W        W18475  23.085  18.818   1.772
46216W        W18476  31.489   6.832  14.801
46217W        W18477   3.286  31.405  11.225
46218W        W18478  32.446  37.497  11.551
46219W        W18479  12.635   4.728  13.674
46220W        W18480  32.001   7.955   4.470
46221W        W18481  13.268  34.204  14.309
46222W        W18482  13.491  12.795   4.430
46223W        W18483  20.223  37.839  12.905
46224W        W18484   3.451  36.145   3.367
46225W        W18485  20.790  44.971  12.862
46226W        W18486  32.027  13.729   1.514
46227W        W18487   2.442  11.201  14.810
46228W        W18488  38.534   5.591   3.240
46229W        W18489  27.436  38.801  14.740
46230W        W18490  22.177  16.048   2.325
46231W        W18491  14.951  18.685   4.901
46232W        W18492   4.019   1.169  12.975
46233W        W18493   2.896  41.793   1.310
46234W        W18494  32.005   1.645   3.419
46235W        W18495  29.652   9.655   4.585
46236W        W18496   2.693  17.512  12.014
46237W        W18497  23.522  16.257  12.721
46238W        W18498  16.357   4.973   1.502
46239W        W18499  26.236  28.067  14.383
46240W        W18500  10.958  33.133  11.104
46241W        W18501  25.456   6.358   2.180
46242W        W18502   8.965  17.291   0.371
46243W        W18503   4.321   2.699  13.750
46244W        W18504  36.480  32.530  12.514
46245W        W18505  39.499   0.223   2.745
46246W        W18506   3.689   5.717  12.554
46247W        W18507   6.817  37.926   1.503
46248W        W18508  38.772  11.411   4.581
46249W        W18509  39.073   8.673   1.245
46250W        W18510  23.678  43.560  12.034
46251W        W18511  13.647   1.690   3.701
46252W        W18512  38.619  29.542  12.615
46253W        W18513  33.648  17.793  12.030
46254W        W18514  31.902  33.974   2.390
46255W        W18515  38.470  28.346  13.182
46256W        W18516  12.072  15.807  12.444
46257W        W18517  34.120  25.283  10.643
46258W        W18518  25.710  13.426  14.480
46259W        W18519  32.469  41.703   2.206
46260W        W18520  19.031  21.776   3.265
46261W        W18521   2.254  25.022   1.243
46262W        W18522  37.275  21.510  11.383
46263W        W18523  12.734  40.917   3.426
46264W        W18524  11.321  15.668  11.475
46265W        W18525  25.040  26.980   0.421
46266W        W18526  44.548  21.697   2.929
46267W        W18527  13.235  43.416  14.330
46268W        W18528  26.602  27.228  14.404
46269W        W18529   1.520  14.635   2.336
46270W        W18530  39.391  26.673  11.361
46271W        W18531  31.957  11.286   1.719
46272W        W18532   2.755  39.377  14.012
46273W        W18533  25.744   0.456  11.546
46274W        W18534  20.060  22.722  14.387
46275W        W18535  37.757  12.908   3.575
46276W        W18536   0.848   9.108   2.198
46277W        W18537  13.863  10.753  12.789
46278W        W18538  19.299  18.743   0.880
46279W        W18539  23.621   6.344   3.905
46280W        W18540   7.704   2.001   0.387
46281W        W18541  31.551  25.725   0.419
46282W        W18542   3.472  33.924  11.988
46283W        W18543  40.640  23.830   9.775
46284W        W18544   2.241  39.707  14.884
46285W        W18545  17.788  30.582   3.624
46286W        W18546   3.237  44.977   3.120
46287W        W18547  15.344   8.836   3.178
46288W        W18548  33.944  12.334   2.971
46289W        W18549  37.248  18.576  14.696
46290W        W18550  12.141  33.517   4.612
46291W        W18551   6.648  22.139   3.836
46292W        W18552   2.864  29.467   0.551
46293W        W18553  17.586  40.746   1.815
46294W        W18554  23.156  34.861  12.962
46295W        W18555  22.489  38.589   2.330
46296W        W18556   3.646  32.136   1.170
46297W        W18557  35.529  19.223   4.512
46298W        W18558  20.098  39.504   1.248
46299W        W18559  22.548  39.527  13.794
46300W        W18560   6.184  29.875   2.470
46301W        W18561  30.990  22.493  13.073
46302W        W18562  35.597   1.354   4.575
46303W        W18563  28.210  12.162   1.843
46304W        W18564  42.322  36.843   2.363
46305W        W18565  38.921  14.070  11.048
46306W        W18566   2.352  25.642  11.375
46307W        W18567   7.412   3.671   3.784
46308W        W18568  41.805  42.035  13.964
46309W        W18569   6.472  29.449  10.203
46310W        W18570  23.470  44.306   4.632
46311W        W18571  20.756  18.363   2.427
46312W        W18572  19.090  32.140  13.061
46313W        W18573   3.818  31.699   1.882
46314W        W18574   1.798  16.369   0.609
46315W        W18575  10.294  14.056  13.523
46316W        W18576  15.089  12.149   2.795
46317W        W18577  18.555  16.041  11.752
46318W        W18578  38.380   9.683  10.680
46319W        W18579  20.961  14.622  10.909
46320W        W18580   2.400  36.122  13.688
46321W        W18581  36.320  12.503  13.426
46322W        W18582  15.793  44.568   3.859
46323W        W18583  12.920   5.420   3.554
46324W        W18584  10.266  39.569  12.502
46325W        W18585  23.188  41.697   4.885
46326W        W18586  38.486   7.480   2.332
46327W        W18587  33.015  14.008  12.529
46328W        W18588  23.657   2.721  12.874
46329W        W18589  21.081   7.507   2.890
46330W        W18590  35.504  13.639  13.301
46331W        W18591  31.328   1.240  14.048
46332W        W18592   9.433  25.956   1.136
46333W        W18593  35.098  17.430  12.906
46334W        W18594  18.574  26.456  13.901
46335W        W18595  24.037   1.075   3.028
46336W        W18596   6.679  20.514  14.327
46337W        W18597   4.130   5.926   3.997
46338W        W18598  24.686  26.198  11.784
46339W        W18599  34.982   6.274   9.961
46340W        W18600  27.237   6.444  14.785
46341W        W18601  40.422  15.178  14.991
46342W        W18602  18.018  21.184  12.403
46343W        W18603  38.044  18.617   3.447
46344W        W18604  16.981   9.838  11.879
46345W        W18605  41.668  16.848   2.900
46346W        W18606  31.089  43.569  14.330
46347W        W18607   9.195   2.203   1.723
46348W        W18608   7.233  30.472  13.476
46349W        W18609   4.791  10.885   3.836
46350W        W18610  40.231   0.196  10.638
46351W        W18611  38.885   4.009  12.126
46352W        W18612  23.694  22.222   4.196
46353W        W18613   8.153  24.470  11.668
46354W        W18614   7.855  19.056   4.666
46355W        W18615  21.808   2.211  12.934
46356W        W18616   5.236  44.922   1.167
46357W        W18617  26.107  31.192   1.195
46358W        W18618  38.036  23.725  11.509
46359W        W18619   0.756   1.930   4.523
46360W        W18620   5.893  31.487   1.749
46361W        W18621  21.197  14.817   2.632
46362W        W18622  30.146  31.951  11.165
46363W        W18623  30.106  33.364   1.291
46364W        W18624  15.322  38.300  14.123
46365W        W18625  35.022   8.201  11.599
46366W        W18626   0.894  33.528   0.976
46367W        W18627  26.078   2.782   3.128
46368W        W18628  27.304  28.036   4.191
46369W        W18629   4.930  15.261   1.313
46370W        W18630   8.306   7.546  14.874
46371W        W18631   2.763  13.608  10.736
46372W        W18632  43.227  41.426  12.017
46373W        W18633   9.236  32.908  13.889
46374W        W18634  40.522  39.408  10.660
46375W        W18635  23.196  16.076   1.818
46376W        W18636  39.931  21.639  12.050
46377W        W18637  40.557  13.817   2.354
46378W        W18638  37.073  42.783   1.682
46379W        W18639  16.854  41.123  14.437
46380W        W18640  19.555  29.341   4.152
46381W        W18641  31.790  26.222  10.050
46382W        W18642   2.432   2.942  11.017
46383W        W18643   3.426  19.640  14.540
46384W        W18644  21.763   8.579   4.850
46385W        W18645   1.950  17.739   0.881
46386W        W18646  23.312  34.384   3.589
46387W        W18647  39.366  43.516  10.905
46388W        W18648  18.039  13.359   1.233
46389W        W18649  10.864  39.935   3.309
46390W        W18650  40.565  24.657  14.099
46391W        W18651  13.265  10.871  11.266
46392W        W18652  13.502  16.458   9.631
46393W        W18653  30.676  12.649   1.839
46394W        W18654  15.121  18.727   2.624
46395W        W18655  25.208  12.363  13.926
46396W        W18656  36.076  34.432  14.556
46397W        W18657  21.355  30.970   0.032
46398W        W18658  22.111  19.020   2.300
46399W        W18659  10.160  42.563  14.788
46400W        W18660  43.188  27.604   1.226
46401W        W18661   4.881  39.885   1.212
46402W        W18662  14.304  30.399  13.409
46403W        W18663  35.650  31.521   2.011
46404W        W18664   7.168  10.258   4.644
46405W        W18665  42.437  15.873  14.086
46406W        W18666  35.882  21.563  10.307
46407W        W18667  34.396  20.321   4.590
46408W        W18668  26.033  42.679   5.167
46409W        W18669  30.371   0.282  12.994
46410W        W18670  13.354  42.486  14.351
46411W        W18671  13.016   5.159  12.392
46412W        W18672   9.721  41.349  11.127
46413W        W18673  29.684  31.449  11.821
46414W        W18674   0.638  16.612  14.283
46415W        W18675  36.662  28.434   2.871
46416W        W18676  27.676  19.091  11.503
46417W        W18677  40.981  35.598   3.329
46418W        W18678   5.318  42.375  12.877
46419W        W18679  18.253  17.072   2.670
46420W        W18680   7.291  26.908  14.994
46421W        W18681   7.897  36.420   3.945
46422W        W18682  36.846   6.256   2.122
46423W        W18683  25.586  28.476   4.614
46424W        W18684  30.180  19.163   2.831
46425W        W18685  37.436  14.293   1.291
46426W        W18686   4.295  42.771   1.207
46427W        W18687  29.554  14.668   1.447
46428W        W18688  17.511  36.862  13.117
46429W        W18689  32.616  42.419  10.647
46430W        W18690  23.783  22.341   2.697
46431W        W18691  33.321  16.356   3.711
46432W        W18692   3.871  24.049   4.276
46433W        W18693   7.873  37.346   3.034
46434W        W18694  31.938   1.893  13.462
46435W        W18695  27.613  25.436   0.624
46436W        W18696  36.389   7.695  13.343
46437W        W18697  44.790  26.987   0.699
46438W        W18698  28.021   9.636   3.452
46439W        W18699   8.602  12.113   3.397
46440W        W18700  32.089  24.233   1.789
46441W        W18701  34.974  14.708  12.757
46442W        W18702  27.770  26.280  13.516
46443W        W18703  11.770  23.096   3.878
46444W        W18704  18.682  23.216  13.956
46445W        W18705  29.562  41.229   1.888
46446W        W18706  12.626   3.498   3.868
46447W        W18707  41.452  40.120   4.165
46448W        W18708  26.944  31.043   0.319
46449W        W18709  36.365  24.766   1.343
46450W        W18710  44.880  17.397   0.350
46451W        W18711   6.649  25.167  13.521
46452W        W18712  40.044   0.386   0.289
46453W        W18713  44.978  37.904  13.006
46454W        W18714  37.234   8.043   3.594
46455W        W18715  41.931  27.113  13.756
46456W        W18716  10.150  20.033  13.043
46457W        W18717  35.992   2.510   0.550
46458W        W18718  12.819  41.339   4.318
46459W        W18719  15.704  27.996   3.039
46460W        W18720  31.921  42.390  11.116
46461W        W18721  29.436  40.040   2.292
46462W        W18722  34.847  13.425   2.692
46463W        W18723  44.035  13.213  13.837
46464W        W18724   8.294  30.733   2.100
46465W        W18725  28.548  41.316  14.086
46466W        W18726  43.610  17.317  13.842
46467W        W18727  33.683  38.623  11.825
46468W        W18728  38.735   9.765   2.395
46469W        W18729  36.574   5.023  10.017
46470W        W18730  27.840  31.839  10.962
46471W        W18731  41.280   8.580   3.758
46472W        W18732  44.021   2.784  10.820
46473W        W18733  41.874   5.616   4.785
46474W        W18734  23.950  26.234  12.343
46475W        W18735  14.073  30.890  11.899
46476W        W18736  25.142   6.184  13.947
46477W        W18737  38.818  17.026  12.161
46478W        W18738  26.008  27.927   3.227
46479W        W18739  14.604  17.549  10.488
46480W        W18740   4.848  27.123   2.365
46481W        W18741   1.701  15.358  10.857
46482W        W18742  11.229  30.262   1.251
46483W        W18743   5.010   4.300  10.271
46484W        W18744  43.980  40.954   2.334
46485W        W18745  36.929  25.112   3.091
46486W        W18746  22.125  18.110   1.909
46487W        W18747  43.987  40.282   0.322
46488W        W18748  33.325  33.492   3.287
46489W        W18749  30.216  20.715  11.970
46490W        W18750  39.449  23.250  13.468
46491W        W18751   9.857  36.469  11.155
46492W        W18752  39.101  43.354  12.856
46493W        W18753  40.379   3.430   1.460
46494W        W18754  36.581  13.230  12.551
46495W        W18755  28.483  43.520  14.024
46496W        W18756  43.510  41.945  14.941
46497W        W18757   0.068  40.109   1.314
46498W        W18758  19.766   1.968  14.890
46499W        W18759  31.299  36.752   0.653
46500W        W18760  36.663  18.730   3.744
46501W        W18761   0.901  38.573   1.403
46502W        W18762  38.796  10.924   4.100
46503W        W18763  22.073  41.694   2.643
46504W        W18764  35.466   9.895  14.064
46505W        W18765  24.170  23.172   2.472
46506W        W18766   4.225  18.295  11.658
46507W        W18767  16.310  10.057   0.900
46508W        W18768  21.627  14.133  14.872
46509W        W18769  34.473   6.726   0.968
46510W        W18770  30.485  25.988  14.991
46511W        W18771  29.557  36.344   3.641
46512W        W18772  34.798  16.519  10.650
46513W        W18773  20.195  19.235   0.760
46514W        W18774  14.860  29.987   0.141
46515W        W18775  18.493  36.966  10.972
46516W        W18776   8.715  41.039   0.711
46517W        W18777  31.869  40.797  11.037
46518W        W18778  14.295   9.253   3.185
46519W        W18779  41.310  31.604  13.929
46520W        W18780  26.888  16.280  12.966
46521W        W18781  16.691  44.528  14.693
46522W        W18782  12.706  40.777  13.074
46523W        W18783  32.398  29.750  11.987
46524W        W18784  12.918  44.792   2.255
46525W        W18785   2.491  44.985   1.818
46526W        W18786  14.160  16.363  13.407
46527W        W18787  44.992  17.073  11.630
46528W        W18788  12.634  31.112   1.819
46529W        W18789  27.091   5.804   2.147
46530W        W18790   6.349  10.432  12.087
46531W        W18791  40.746  27.611   4.567
46532W        W18792  28.479  25.993  13.896
46533W        W18793  28.694  23.241   2.267
46534W        W18794   0.773   0.283   2.312
46535W        W18795  24.636  33.094  11.495
46536W        W18796  27.526   2.952   1.256
46537W        W18797  22.168  36.952  11.141
46538W        W18798  32.286   0.964   1.632
46539W        W18799  33.554   3.989  10.053
46540W        W18800  28.231  43.287  10.226
46541W        W18801  10.116   9.178  12.345
46542W        W18802  14.748  44.372   1.000
46543W        W18803  41.498  21.343  14.371
46544W        W18804   6.208  29.979   1.441
46545W        W18805  38.834  33.126   9.927
46546W        W18806  16.031  15.011  14.400
46547W        W18807  25.214  33.990  11.573
46548W        W18808  29.444  42.304  10.685
46549W        W18809  21.025   5.999   4.617
46550W        W18810  25.695  31.438   1.623
46551W        W18811   7.988  19.778  13.347
46552W        W18812   6.373  12.564  10.650
46553W        W18813  27.822  41.975  10.063
46554W        W18814  39.305   3.676  13.900
46555W        W18815  34.434  10.575  12.489
46556W        W18816   7.958  42.773   5.014
46557W        W18817  33.052  34.911   4.388
46558W        W18818  11.829  12.253   1.430
46559W        W18819  41.840  31.776  12.009
46560W        W18820  27.948   2.630   2.968
46561W        W18821  38.409  28.223  12.159
46562W        W18822  39.735  41.209   1.787
46563W        W18823   8.546  33.098   2.820
46564W        W18824   5.917   8.390  14.935
46565W        W18825   9.987  17.318  11.007
46566W        W18826  25.523  40.268  12.880
46567W        W18827   4.778   0.882   2.300
46568W        W18828  36.412  12.160   0.029
46569W        W18829  30.648  17.029   4.620
46570W        W18830   5.419  14.648   1.151
46571W        W18831  21.271   9.527   4.057
46572W        W18832  41.685  10.769   2.187
46573W        W18833  28.504  30.900  13.416
46574W        W18834  10.132  24.118   2.187
46575W        W18835  37.093   1.956   2.333
46576W        W18836  33.070  30.099   4.080
46577W        W18837  38.131   0.339   0.802
46578W        W18838  25.713   8.410   3.869
46579W        W18839  29.575   8.878   3.255
46580W        W18840  41.322  31.866  11.975
46581W        W18841  10.130  11.294  11.624
46582W        W18842  30.791  41.874  11.661
46583W        W18843  26.652  38.022  12.988
46584W        W18844  41.448  26.577  10.666
46585W        W18845  23.073  19.591   1.285
46586W        W18846   8.169  13.899   3.246
46587W        W18847  23.958  15.527  13.585
46588W        W18848   6.724  32.662  11.212
46589W        W18849   6.311  11.829  12.065
46590W        W18850  39.035  30.251  13.368
46591W        W18851  25.149  44.498   2.668
46592W        W18852  40.070   5.225  11.580
46593W        W18853  37.369   9.817  12.506
46594W        W18854  33.189  22.421  11.081
46595W        W18855  39.965  32.493   4.131
46596W        W18856  41.351   7.342   0.794
46597W        W18857   6.702  37.097   3.778
46598W        W18858   6.473  21.363  10.059
46599W        W18859  26.178  32.957   2.053
46600W        W18860  12.233   7.673   4.197
46601W        W18861   7.721  36.397  12.031
46602W        W18862  34.518   6.315  12.643
46603W        W18863  34.610  30.901   2.339
46604W        W18864  17.992  43.685  11.802
46605W        W18865  18.333   8.869   0.269
46606W        W18866   3.397  32.148  13.384
46607W        W18867  30.019   1.057   1.779
46608W        W18868  26.461  27.506   2.362
46609W        W18869   6.058  24.789  11.999
46610W        W18870  15.265  35.382  13.705
46611W        W18871  20.896   2.826  14.800
46612W        W18872  14.711  28.433   5.145
46613W        W18873  19.232  33.940  12.322
46614W        W18874  24.942  29.032   4.291
46615W        W18875  34.480  18.034  11.909
46616W        W18876   5.269  19.276   2.843
46617W        W18877  12.331  22.191  13.756
46618W        W18878  24.966  19.215   3.004
46619W        W18879   4.376  36.524   0.014
46620W        W18880   9.319   7.966   0.391
46621W        W18881  20.904  31.587   3.676
46622W        W18882  42.174  32.661  14.687
46623W        W18883  15.222   0.472  10.950
46624W        W18884  34.406  28.975  11.009
46625W        W18885  16.656  30.850  11.141
46626W        W18886  26.120  41.809  13.598
46627W        W18887   5.770   9.572   4.092
46628W        W18888  32.335   8.621   4.253
46629W        W18889   0.917  22.633   3.252
46630W        W18890  27.394  35.989   4.969
46631W        W18891   8.883  25.764   1.797
46632W        W18892  18.764  31.388   0.804
46633W        W18893  44.398   6.960   1.586
46634W        W18894  37.143  20.636   5.300
46635W        W18895   7.202   4.657   2.864
46636W        W18896   6.737  16.246  10.929
46637W        W18897   3.489  20.234   0.030
46638W        W18898   5.257  35.126  14.093
46639W        W18899  13.496  14.676  10.218
46640W        W18900  43.396  20.295   4.897
46641W        W18901  19.961  16.345   0.393
46642W        W18902   2.325  23.734   3.764
46643W        W18903  42.046  12.064  10.755
46644W        W18904  22.791  18.750   4.673
46645W        W18905  31.998  32.032  12.111
46646W        W18906  36.062  15.198   2.677
46647W        W18907  16.088  16.317   2.781
46648W        W18908  15.124  21.475  13.892
46649W        W18909   0.479  30.901   3.889
46650W        W18910  40.139  31.993   4.527
46651W        W18911   2.886  14.214   2.180
46652W        W18912  20.826  16.624   3.181
46653W        W18913  12.947  16.603  14.042
46654W        W18914  30.899  17.578  11.511
46655W        W18915  37.398  36.635  13.371
46656W        W18916  14.234   3.258   2.244
46657W        W18917  17.881  33.128  13.548
46658W        W18918  24.227   8.759  11.498
46659W        W18919   3.342  38.545   3.953
46660W        W18920  43.903  38.658  12.083
46661W        W18921  22.418  27.023   1.852
46662W        W18922  14.422  19.846   5.064
46663W        W18923  13.189  30.656   2.665
46664W        W18924  24.548  39.042   0.226
46665W        W18925  37.764  43.867   2.805
46666W        W18926   6.308   6.326   4.864
46667W        W18927  16.814  28.737  12.990
46668W        W18928  12.393   6.337  13.076
46669W        W18929  23.011  19.664  11.216
46670W        W18930   3.439  25.725  14.778
46671W        W18931   0.408  40.504   2.877
46672W        W18932  20.087  37.927   2.768
46673W        W18933  27.676  31.071  12.482
46674W        W18934  32.331  35.181   3.141
46675W        W18935   0.782  41.462   1.439
46676W        W18936   2.867  26.049  14.054
46677W        W18937   4.669  44.756   5.063
46678W        W18938  30.456  18.867   0.128
46679W        W18939  42.057   8.714  12.486
46680W        W18940  31.031  12.177   3.864
46681W        W18941  16.638  24.122  11.089
46682W        W18942   3.888  15.855   4.633
46683W        W18943  11.306  28.690   1.377
46684W        W18944  26.882  15.282   5.103
46685W        W18945  44.399  28.998   3.702
46686W        W18946  13.107  25.697   0.347
46687W        W18947   1.365  26.138  12.363
46688W        W18948  43.835  33.323   0.882
46689W        W18949  30.408  42.921  12.950
46690W        W18950  27.751  15.861  12.593
46691W        W18951   5.214  39.276   0.442
46692W        W18952  35.576   3.163  13.406
46693W        W18953  32.454  35.503  14.924
46694W        W18954   8.321  41.483  10.451
46695W        W18955   7.330  34.041  11.159
46696W        W18956  37.637  31.971   0.396
46697W        W18957   9.222  20.556  14.063
46698W        W18958   0.882  36.089   3.605
46699W        W18959  23.197  31.673  11.104
46700W        W18960   9.674  44.218  13.799
46701W        W18961  22.107  22.354  12.043
46702W        W18962  22.662  44.513   4.118
46703W        W18963  34.947  42.049  11.839
46704W        W18964  19.616  13.834   0.849
46705W        W18965  45.000  36.405   4.082
46706W        W18966  12.717  21.739   1.578
46707W        W18967  15.821  14.778   4.050
46708W        W18968   0.166  28.381   1.779
46709W        W18969  14.318   2.949   0.936
46710W        W18970  13.325  17.709   2.459
46711W        W18971   3.646   8.781   3.752
46712W        W18972  30.571  18.703   2.383
46713W        W18973  41.548  25.757  12.465
46714W        W18974  36.017  16.286   0.669
46715W        W18975  39.402  29.641   0.750
46716W        W18976  24.526   5.873  12.532
46717W        W18977  14.093  32.317   2.809
46718W        W18978  39.681  32.992  12.550
46719W        W18979  12.291  29.398  10.590
46720W        W18980  18.654  34.451  10.938
46721W        W18981  36.817  20.268   2.103
46722W        W18982  10.338  23.248  13.475
46723W        W18983  14.584  32.517  13.321
46724W        W18984  30.032   5.166  11.188
46725W        W18985  11.082  21.658   0.982
46726W        W18986  35.592  18.146   0.144
46727W        W18987  14.803  12.603   1.972
46728W        W18988  42.563  13.754  10.911
46729W        W18989   6.556  35.824   4.854
46730W        W18990  42.949  13.076   1.912
46731W        W18991  31.796  16.121  12.465
46732W        W18992  21.129   9.873   0.347
46733W        W18993  31.598  43.582  14.225
46734W        W18994  15.812   5.334  14.037
46735W        W18995  43.004  36.236  10.907
46736W        W18996  22.203  31.011   0.844
46737W        W18997  21.381  10.583   1.513
46738W        W18998  21.159  31.973  12.050
46739W        W18999  25.924   7.231  14.243
46740W        W19000  11.563  11.099  14.879
46741W        W19001  41.258  14.237   0.355
46742W        W19002  40.740  26.686   3.527
46743W        W19003   9.401  19.746   0.363
46744W        W19004  36.519  41.623   2.429
46745W        W19005  31.930   9.146  11.562
46746W        W19006  38.219  24.714  11.381
46747W        W19007  34.106   8.586  11.905
46748W        W19008  12.647  34.790  13.891
46749W        W19009  13.085  26.194   0.494
46750W        W19010  19.807  22.085   0.384
46751W        W19011   3.536  18.904   3.642
46752W        W19012  43.105  30.610  13.611
46753W        W19013  17.748  33.051   2.141
46754W        W19014  12.158  43.365   3.152
46755W        W19015  32.488  23.135   0.516
46756W        W19016  11.348  39.033  11.294
46757W        W19017   5.654  27.556  13.868
46758W        W19018  32.629  38.601  13.945
46759W        W19019  15.735   3.308   2.920
46760W        W19020  42.239  27.435  11.260
46761W        W19021  31.682  21.683  12.464
46762W        W19022  43.657  29.633   3.712
46763W        W19023   7.453  21.721   3.693
46764W        W19024   3.305  41.764  10.713
46765W        W19025  38.247   9.331  13.437
46766W        W19026  44.707   5.301  10.929
46767W        W19027  25.769  15.236  11.498
46768W        W19028  42.358  43.954  10.666
46769W        W19029  14.243  32.477   1.986
46770W        W19030  40.357  34.049   1.839
46771W        W19031  44.734  13.392  12.941
46772W        W19032  20.162  27.050   0.890
46773W        W19033  43.811  44.432  12.258
46774W        W19034  33.608   5.511   2.177
46775W        W19035  21.309  30.498   3.167
46776W        W19036  11.389  31.462   3.933
46777W        W19037  19.633  33.459  10.514
46778W        W19038  35.400  11.802  12.998
46779W        W19039  11.118  42.896  11.047
46780W        W19040   1.911  21.099  14.634
46781W        W19041  16.828   1.795   4.307
46782W        W19042   3.366   1.343   4.479
46783W        W19043  11.616  30.391   0.454
46784W        W19044  38.455   8.274   4.596
46785W        W19045  40.862   5.137  13.884
46786W        W19046  23.576   3.454   2.157
46787W        W19047  10.240  10.433   0.416
46788W        W19048  10.545  20.979   2.744
46789W        W19049  41.879  34.865   2.203
46790W        W19050  10.121   2.054  12.027
46791W        W19051  22.999  29.126  11.959
46792W        W19052  18.654  25.790   1.805
46793W        W19053   4.734  34.034  11.567
46794W        W19054   9.002  16.825   1.272
46795W        W19055  18.144  14.180  14.336
46796W        W19056  14.636  16.695   0.928
46797W        W19057   7.629  25.610  11.785
46798W        W19058  17.372   2.892   0.712
46799W        W19059   5.664  41.368   0.468
46800W        W19060   1.360   5.661  13.436
46801W        W19061  32.565  20.428  14.864
46802W        W19062  12.825  39.488   2.486
46803W        W19063  35.442  40.705  14.027
46804W        W19064  20.311   7.297   2.367
46805W        W19065   0.664   5.954   3.091
46806W        W19066  33.860   9.128   1.436
46807W        W19067  34.875  38.107   0.812
46808W        W19068  44.809  17.487  14.543
46809W        W19069  34.068   0.219   3.351
46810W        W19070  41.528  23.643  13.261
46811W        W19071  31.524   2.705  10.590
46812W        W19072  44.927  16.245  10.400
46813W        W19073   9.765   2.188   2.308
46814W        W19074  44.216  40.018   3.157
46815W        W19075   6.289  35.940  12.529
46816W        W19076  18.829   6.897  14.972
46817W        W19077  39.268  20.022  13.129
46818W        W19078  16.715  24.959  11.139
46819W        W19079  42.437  16.778  14.948
46820W        W19080  39.453   8.896  10.662
46821W        W19081   9.599  21.246   3.087
46822W        W19082  14.647  32.996   2.598
46823W        W19083   5.822   6.132  14.561
46824W        W19084  42.507  13.072   2.952
46825W        W19085  28.626  20.159  11.317
46826W        W19086  28.361  20.654   0.407
46827W        W19087  16.290  42.908  14.756
46828W        W19088  25.116   4.817  13.602
46829W        W19089  13.811  22.407  12.182
46830W        W19090  13.306  39.592  13.252
46831W        W19091   4.826  37.564   0.402
46832W        W19092  34.798  12.050  12.042
46833W        W19093  31.045   0.248  13.948
46834W        W19094  30.212  18.544   0.511
46835W        W19095  19.799  13.904   2.274
46836W        W19096  10.504  33.498   0.622
46837W        W19097  31.073  30.304   3.269
46838W        W19098  33.791  36.267   1.251
46839W        W19099  39.410  31.868  14.200
46840W        W19100  23.691  41.130   1.763
46841W        W19101   6.595  28.101   3.280
46842W        W19102  41.990  15.762   1.910
46843W        W19103   9.391  27.596  13.431
46844W        W19104  15.834  39.396  12.028
46845W        W19105  24.414  36.002   2.873
46846W        W19106  27.081  17.001  12.203
46847W        W19107  22.798   6.861  12.025
46848W        W19108   5.915  34.472  13.085
46849W        W19109  27.947   5.805   1.751
46850W        W19110  17.405  29.459  14.528
46851W        W19111  40.082  39.134  10.607
46852W        W19112   9.036   1.097  12.509
46853W        W19113  34.892  32.011  13.409
46854W        W19114   0.411  19.713   2.698
46855W        W19115  30.566  26.142  11.170
46856W        W19116   5.268  14.596  10.979
46857W        W19117  44.145  19.431   2.193
46858W        W19118  16.653   7.293  13.913
46859W        W19119  40.412  34.381  13.122
46860W        W19120  20.957   0.384   3.090
46861W        W19121   3.807  39.658   4.612
46862W        W19122  23.409  38.874  11.904
46863W        W19123  13.508  41.179  13.049
46864W        W19124  25.634  25.757  12.904
46865W        W19125  37.967  26.183  14.744
46866W        W19126  12.508  33.435   3.189
46867W        W19127  18.624  18.959  11.979
46868W        W19128  16.689  33.688   0.940
46869W        W19129   2.847   3.025   2.895
46870W        W19130  41.091  16.444  10.344
46871W        W19131  28.184  24.250  11.047
46872W        W19132  34.653  23.066  13.745
46873W        W19133  21.090   9.125   3.775
46874W        W19134  17.413   9.268   4.707
46875W        W19135   9.922  19.530   1.195
46876W        W19136  35.038  17.131   1.018
46877W        W19137  36.479   1.677   0.868
46878W        W19138  28.916  35.099   2.303
46879W        W19139  27.500  37.831  12.549
46880W        W19140   2.910  39.876  12.440
46881W        W19141   8.886   3.441  11.655
46882W        W19142  17.046  15.014   4.673
46883W        W19143  26.202   4.421   1.832
46884W        W19144  43.498  16.633  13.407
46885W        W19145   6.802  34.984  11.562
46886W        W19146  28.433  37.755   1.405
46887W        W19147  13.222  17.539  12.882
46888W        W19148  21.560  40.068  12.847
46889W        W19149  17.196  28.442  10.987
46890W        W19150  32.237  15.324   0.773
46891W        W19151  28.579  12.082   0.359
46892W        W19152   3.164  17.392   4.178
46893W        W19153  20.057  16.050   3.647
46894W        W19154   2.359  37.958   3.222
46895W        W19155  43.278   2.154  13.627
46896W        W19156   4.163   7.872  12.829
46897W        W19157  10.793  24.545  11.782
46898W        W19158  11.486  15.670   4.148
46899W        W19159  36.032  31.733   0.374
46900W        W19160  31.922  24.654  11.965
46901W        W19161  19.426  14.740   4.398
46902W        W19162  16.235  27.106   0.526
46903W        W19163  19.354  20.731  13.994
46904W        W19164   5.802  23.991  13.287
46905W        W19165   2.186  28.140  13.048
46906W        W19166   8.871   0.883   3.680
46907W        W19167  43.510   8.163   4.259
46908W        W19168  12.850  29.655   3.796
46909W        W19169  29.535  41.876  14.853
46910W        W19170  33.713  21.087   0.824
46911W        W19171  31.649  37.343  12.582
46912W        W19172  32.649  31.519   1.805
46913W        W19173  11.676  40.883  14.835
46914W        W19174  25.607  36.419  10.752
46915W        W19175   0.028   8.230   1.973
46916W        W19176  11.186  42.308   4.585
46917W        W19177  10.694  41.920   1.963
46918W        W19178  33.105   3.024   3.421
46919W        W19179   2.811  23.291   4.712
46920W        W19180   0.345  11.720  12.624
46921W        W19181  32.321  26.585   3.569
46922W        W19182  13.668   5.484  14.167
46923W        W19183   2.431  40.331   0.907
46924W        W19184  18.054  39.492   2.585
46925W        W19185   0.801   4.394  12.944
46926W        W19186  14.632  24.228   2.339
46927W        W19187  16.620  41.603  14.513
46928W        W19188   9.427  34.948   2.328
46929W        W19189   3.428  23.077  11.841
46930W        W19190   4.832  15.991   4.121
46931W        W19191   4.398  44.775   4.466
46932W        W19192  36.940   8.758   4.229
46933W        W19193   3.535  44.983   1.047
46934W        W19194  15.013  21.020   4.796
46935W        W19195  11.388  35.377  11.996
46936W        W19196  20.144  31.321   3.915
46937W        W19197   6.868  17.203  10.719
46938W        W19198  11.831   3.333   3.373
46939W        W19199  17.575  11.226   4.172
46940W        W19200  24.276   9.074   0.543
46941W        W19201   4.770   6.450  13.941
46942W        W19202  15.848   3.384  14.116
46943W        W19203  14.365  35.645  12.063
46944W        W19204   2.916   3.478   0.795
46945W        W19205  12.230  21.447  13.958
46946W        W19206  29.531  38.425   3.624
46947W        W19207  22.044  16.683   1.838
46948W        W19208  25.453  25.142   2.385
46949W        W19209  38.139   4.459  14.569
46950W        W19210  40.216  19.319   2.978
46951W        W19211  29.725   4.714   0.802
46952W        W19212   4.000   6.684  11.953
46953W        W19213  33.868  23.852   0.352
46954W        W19214  18.714  43.079  10.967
46955W        W19215  21.137  22.031   1.367
46956W        W19216  24.557  40.729   2.828
46957W        W19217  13.060  31.033   9.779
46958W        W19218   3.449   3.159   4.484
46959W        W19219  37.797  39.435  11.636
46960W        W19220  34.030  37.800   4.419
46961W        W19221  14.031  43.753  11.945
46962W        W19222  11.117   0.888   1.177
46963W        W19223  23.139  11.223  12.546
46964W        W19224  11.271  28.885   3.152
46965W        W19225  39.936  38.056  13.147
46966W        W19226  35.052   5.421   0.211
46967W        W19227  33.924  16.961  12.345
46968W        W19228  39.403  30.906   2.284
46969W        W19229  44.958  19.860  11.143
46970W        W19230  18.640  24.748   1.922
46971W        W19231   6.409  21.992  11.604
46972W        W19232  22.136  23.069   3.155
46973W        W19233  17.832  30.093   2.420
46974W        W19234  21.131   4.805  10.832
46975W        W19235   8.091  32.053  14.664
46976W        W19236  37.471  30.366   0.535
46977W        W19237   8.318  41.951   0.153
46978W        W19238  36.622  22.463  11.649
46979W        W19239  16.840   7.330   5.529
46980W        W19240  18.069   5.125  11.529
46981W        W19241  22.042  43.520  14.068
46982W        W19242  34.634  39.920   0.985
46983W        W19243  16.382  22.607  13.706
46984W        W19244   3.950  24.646   2.911
46985W        W19245   7.963  28.541  11.537
46986W        W19246  15.021  17.741  12.770
46987W        W19247   5.030   7.154   3.812
46988W        W19248   6.418  38.580   0.338
46989W        W19249  24.808   5.812   1.967
46990W        W19250  36.608  12.249  13.084
46991W        W19251   2.852  11.834  12.389
46992W        W19252   7.880  23.614   3.558
46993W        W19253  11.877  36.418  12.913
46994W        W19254   6.863   7.234  11.207
46995W        W19255  26.645  13.916   1.820
46996W        W19256   5.683  30.676   1.447
46997W        W19257  44.278   9.169   2.605
46998W        W19258  34.176  13.889   2.148
46999W        W19259  37.609   4.938  13.017
47000W        W19260  41.075  12.357  14.828
47001W        W19261   3.712  38.450   0.584
47002W        W19262  24.608  20.727  11.828
47003W        W19263   7.585  29.962   3.698
47004W        W19264  23.802  19.252  13.924
47005W        W19265  23.479   3.248   1.176
47006W        W19266  44.744  38.443  13.566
47007W        W19267  37.492  37.817   0.776
47008W        W19268  23.554  25.690  10.434
47009W        W19269  34.578  17.571   2.993
47010W        W19270  27.598  36.991  10.751
47011W        W19271  42.436   7.809   2.268
47012W        W19272  13.111  10.300  13.395
47013W        W19273   6.789   6.942  12.079
47014W        W19274   2.737  37.566  14.839
47015W        W19275  24.951  39.070   4.584
47016W        W19276  18.673  20.687  10.608
47017W        W19277  24.721  40.085   3.765
47018W        W19278  35.856  18.411  14.020
47019W        W19279   7.775  29.544  14.542
47020W        W19280  22.065  43.081   3.464
47021W        W19281  29.350  44.834  13.643
47022W        W19282  19.479   6.477  10.713
47023W        W19283  40.910  28.945  11.975
47024W        W19284  10.355  36.679  12.537
47025W        W19285  24.698  38.632   1.551
47026W        W19286   3.949  10.268   3.011
47027W        W19287   0.626  39.987  14.516
47028W        W19288  26.000  38.237   3.572
47029W        W19289  20.998  34.384   1.367
47030W        W19290  34.738  27.694   4.895
47031W        W19291  21.231   9.751   3.190
47032W        W19292  32.167  27.960  11.521
47033W        W19293  26.015   0.767  10.801
47034W        W19294   9.297  25.990  12.962
47035W        W19295  37.578  38.783  11.716
47036W        W19296  25.901  27.706  14.103
47037W        W19297   8.302  37.433  14.247
47038W        W19298   5.016  18.802  13.951
47039W        W19299  43.927   6.555  13.859
47040W        W19300  40.905   2.455  13.283
47041W        W19301  35.477  42.450   4.553
47042W        W19302   7.093   0.291  10.675
47043W        W19303  28.197   5.837   0.756
47044W        W19304   4.221  42.871  12.874
47045W        W19305  33.542  35.133  13.082
47046W        W19306  28.919  19.880   4.597
47047W        W19307  11.100  18.731  12.383
47048W        W19308  12.768  30.648  10.675
47049W        W19309  44.729   7.364  13.032
47050W        W19310  16.078   3.215   3.324
47051W        W19311   0.308  18.490  12.952
47052W        W19312  11.780  43.870   0.795
47053W        W19313   6.823  13.960  13.160
47054W        W19314   1.681  31.673   1.128
47055W        W19315   1.682  28.495  12.492
47056W        W19316  33.430   6.208   3.665
47057W        W19317  13.298  32.478  11.544
47058W        W19318  15.665   8.888  13.892
47059W        W19319  16.668  19.872   0.706
47060W        W19320  27.004  29.947  12.082
47061W        W19321  27.897  19.309   0.930
47062W        W19322  22.042  26.038  13.496
47063W        W19323  37.533  37.919   1.701
47064W        W19324  13.693  39.302  14.684
47065W        W19325  14.364  20.856  11.727
47066W        W19326  25.438  39.383   4.868
47067W        W19327   5.877  40.934   0.689
47068W        W19328  10.868  24.538  13.251
47069W        W19329  24.497  36.274  12.455
47070W        W19330  19.982  39.603   0.280
47071W        W19331  22.009   7.499   0.927
47072W        W19332   3.913  15.699  14.335
47073W        W19333  26.483  24.477   3.883
47074W        W19334  16.265  31.106   3.104
47075W        W19335  42.108  24.172   0.976
47076W        W19336  17.699   5.386  14.859
47077W        W19337  27.413  13.650  11.478
47078W        W19338  17.489  31.845   3.818
47079W        W19339  38.612   5.374   0.540
47080W        W19340  35.327  30.744  14.804
47081W        W19341  14.632  32.869   4.093
47082W        W19342  21.422   0.815   4.797
47083W        W19343  31.782   4.313   3.762
47084W        W19344   7.001   4.686  14.279
47085W        W19345   5.715  13.785  13.953
47086W        W19346  11.306  37.518  13.701
47087W        W19347  18.300  32.076   2.105
47088W        W19348  44.392  27.159   1.989
47089W        W19349  16.530  18.165  11.333
47090W        W19350  42.313  24.542   3.684
47091W        W19351  17.318  26.138  12.202
47092W        W19352  42.012   6.789  11.167
47093W        W19353  13.560  27.787  10.183
47094W        W19354   5.367  19.645   0.923
47095W        W19355  30.926  37.635   1.316
47096W        W19356  25.735   1.202   0.999
47097W        W19357  44.885   1.582   2.720
47098W        W19358  15.585  19.190   1.493
47099W        W19359   8.000  14.244  11.906
47100W        W19360  25.667  12.720   4.194
47101W        W19361  41.374  24.069  11.990
47102W        W19362  16.903  28.882   2.333
47103W        W19363  12.179  16.576  10.863
47104W        W19364  22.196  10.164  12.042
47105W        W19365   6.353   8.983   4.570
47106W        W19366  39.578   1.147  14.875
47107W        W19367  28.763  44.883  14.302
47108W        W19368  12.038  20.578  14.320
47109W        W19369  41.948  40.822   2.218
47110W        W19370  18.846  31.249  14.027
47111W        W19371  20.926  41.911  11.141
47112W        W19372  34.436  15.831   1.424
47113W        W19373  44.690  27.418  13.879
47114W        W19374  24.681  30.393   0.385
47115W        W19375  21.668  37.076  14.320
47116W        W19376   8.741  14.666  14.029
47117W        W19377   3.011  27.865   0.937
47118W        W19378  22.470  40.291   0.406
47119W        W19379  35.777   7.143   1.280
47120W        W19380  16.609  36.393   4.063
47121W        W19381  40.817  14.324   1.278
47122W        W19382  30.061  10.929   2.194
47123W        W19383  14.522  12.412  12.585
47124W        W19384  22.931  21.012  11.687
47125W        W19385  34.984  20.069  13.388
47126W        W19386  37.332  19.134   0.908
47127W        W19387   4.929  20.464   0.467
47128W        W19388  15.071  38.983   4.110
47129W        W19389  34.642  14.365  14.835
47130W        W19390  19.285  40.044  11.500
47131W        W19391  32.989   1.758  14.477
47132W        W19392   6.359  25.649  12.627
47133W        W19393   4.025  38.625   2.199
47134W        W19394  17.742  11.980  14.240
47135W        W19395  26.995  21.987   2.732
47136W        W19396  34.973   1.888   3.780
47137W        W19397   0.791  41.381  13.316
47138W        W19398  28.463   6.423  12.514
47139W        W19399  26.967  26.701  11.514
47140W        W19400  25.995  35.890  14.927
47141W        W19401   4.888  30.134   4.633
47142W        W19402   2.464  32.392  13.837
47143W        W19403  28.567  19.740  11.605
47144W        W19404  22.365  32.564  14.428
47145W        W19405   9.684  26.425   1.853
47146W        W19406  21.311  15.259   1.754
47147W        W19407  14.166   7.575   2.776
47148W        W19408   9.011  32.163   3.975
47149W        W19409  13.134   6.310  14.320
47150W        W19410  36.774  28.175   0.897
47151W        W19411  37.563  44.040  11.632
47152W        W19412  23.235  14.484  11.223
47153W        W19413  21.106   3.564  11.746
47154W        W19414   8.331   3.334   0.354
47155W        W19415  24.022   7.191  10.659
47156W        W19416  28.174   4.463  12.606
47157W        W19417  36.573  26.536  13.306
47158W        W19418   4.229  34.945   2.819
47159W        W19419  25.593  41.112  13.300
47160W        W19420  18.726  25.158   0.392
47161W        W19421  28.626   1.416  11.431
47162W        W19422  44.750   8.213  13.574
47163W        W19423  41.742  26.084   0.479
47164W        W19424  40.613  35.356   0.059
47165W        W19425  44.942   4.805  11.673
47166W        W19426  35.558  17.634   2.777
47167W        W19427  28.086   9.050  12.796
47168W        W19428  37.444  31.649  12.212
47169W        W19429  42.332  44.399  13.278
47170W        W19430  40.001  44.929   4.929
47171W        W19431  39.689  11.378   1.980
47172W        W19432  17.557   9.591   0.929
47173W        W19433   0.722  35.336   0.620
47174W        W19434  26.451  16.194   3.683
47175W        W19435  17.299  36.110   2.801
47176W        W19436  24.247  36.434  13.542
47177W        W19437  18.424   4.999  11.174
47178W        W19438   2.780   3.847  14.967
47179W        W19439   2.820  38.463  14.028
47180W        W19440  40.394  21.660  12.913
47181W        W19441  20.548   1.033   2.783
47182W        W19442  35.674   8.032   4.085
47183W        W19443   7.603  22.966  11.494
47184W        W19444  20.011  42.329  11.191
47185W        W19445  11.377  20.792   1.856
47186W        W19446  17.547   2.154  11.958
47187W        W19447  28.676  39.060   0.326
47188W        W19448  43.369  33.940  14.561
47189W        W19449  25.515  42.537  14.229
47190W        W19450  21.488  22.690  11.301
47191W        W19451   8.716   5.889  11.000
47192W        W19452  33.899  31.334   2.144
47193W        W19453  24.574  37.731   2.119
47194W        W19454   8.638  32.660   1.316
47195W        W19455  20.425  21.275   1.424
47196W        W19456  11.873  23.102   2.840
47197W        W19457   8.531   2.213   0.541
47198W        W19458  39.548   6.731   0.870
47199W        W19459  41.956   3.696  11.919
47200W        W19460  18.598  21.274   0.362
47201W        W19461  44.898  21.270   1.486
47202W        W19462  32.412  20.357  12.625
47203W        W19463  24.034   2.236  13.100
47204W        W19464  33.564   0.406   4.194
47205W        W19465  39.299   0.831  10.960
47206W        W19466  13.515  18.160  14.998
47207W        W19467  19.940  26.008  11.661
47208W        W19468  31.001  34.278  10.480
47209W        W19469   8.703  31.949  12.121
47210W        W19470  24.061   5.959   2.315
47211W        W19471  14.607   4.146   1.950
47212W        W19472  21.439  14.612  11.109
47213W        W19473  42.453  30.852   2.705
47214W        W19474  26.744  29.585   3.664
47215W        W19475  40.425  21.172   5.056
47216W        W19476  15.173  20.032  14.089
47217W        W19477  40.451  30.274  13.674
47218W        W19478   4.036  34.188  11.050
47219W        W19479  15.308  39.461   2.860
47220W        W19480  14.164  16.417   5.079
47221W        W19481  42.480  39.779   2.357
47222W        W19482   7.206  18.105  12.014
47223W        W19483  43.720   0.578  11.131
47224W        W19484  14.124  39.832  10.537
47225W        W19485   6.800  19.608  10.691
47226W        W19486  32.120  25.707  11.643
47227W        W19487  42.255  16.184   3.604
47228W        W19488  34.947  10.857  13.294
47229W        W19489  38.832   4.274  13.105
47230W        W19490  31.580  18.803  13.767
47231W        W19491   0.903  39.359   3.123
47232W        W19492  25.186  23.180   0.684
47233W        W19493  43.416  31.558   4.531
47234W        W19494  31.808  21.537   0.997
47235W        W19495  11.107   7.113   4.298
47236W        W19496  38.694  37.313  11.124
47237W        W19497  38.999   7.240   0.734
47238W        W19498  22.439  23.990  13.819
47239W        W19499   5.519  32.988   0.362
47240W        W19500  39.625  29.904   1.340
47241W        W19501  15.534   8.933  11.413
47242W        W19502  44.988  43.043  12.582
47243W        W19503  19.760  43.866  10.757
47244W        W19504  39.978  44.519   1.921
47245W        W19505   7.732   1.264  10.654
47246W        W19506  13.934   9.226  12.092
47247W        W19507   3.836  24.947  11.691
47248W        W19508   1.398  29.115  10.748
47249W        W19509  26.627  24.485   4.864
47250W        W19510   1.267  14.775  10.733
47251W        W19511   9.822  40.185   4.108
47252W        W19512  28.158  35.792   3.152
47253W        W19513   6.089   7.473   0.420
47254W        W19514  35.529  14.859  14.035
47255W        W19515  44.866  11.605  13.435
47256W        W19516  42.801  38.772   4.842
47257W        W19517   9.647  29.108  14.842
47258W        W19518  16.720   4.526   1.436
47259W        W19519   0.989   0.380   4.569
47260W        W19520  31.243  29.539  12.818
47261W        W19521  40.474  22.911  12.152
47262W        W19522  29.149  25.603  13.152
47263W        W19523  12.687   6.295  13.528
47264W        W19524  13.025  33.371   4.667
47265W        W19525  18.340  10.844  11.469
47266W        W19526  38.429  32.047   4.723
47267W        W19527  24.603   3.382  14.243
47268W        W19528   3.213  38.346   0.932
47269W        W19529  28.876  42.990  14.506
47270W        W19530  39.420  13.426   4.003
47271W        W19531  32.961  15.029  13.437
47272W        W19532  32.244  19.397   1.040
47273W        W19533  29.510   3.268  14.636
47274W        W19534  14.649  18.146  13.368
47275W        W19535  23.102  13.329   0.355
47276W        W19536  24.112  38.927  10.084
47277W        W19537  29.330  17.809   3.642
47278W        W19538  15.640  16.764  12.799
47279W        W19539  42.357  30.054  14.789
47280W        W19540  24.181  38.492   0.141
47281W        W19541   9.838  25.178   1.238
47282W        W19542   5.440  14.243   4.042
47283W        W19543  12.583   0.939   1.576
47284W        W19544  18.854  31.021  14.823
47285W        W19545  43.885  12.310  10.423
47286W        W19546  42.500  23.232   3.160
47287W        W19547  30.471   0.783   1.849
47288W        W19548  27.642   5.428  14.406
47289W        W19549   4.897  28.585  13.357
47290W        W19550  39.383  40.190  14.030
47291W        W19551  32.319  31.614  12.297
47292W        W19552  30.429  13.153   4.155
47293W        W19553   4.172   9.864   2.767
47294W        W19554  23.498  38.867   4.148
47295W        W19555  14.230  35.106  11.307
47296W        W19556  23.518  27.486  12.370
47297W        W19557  19.779  10.172   4.546
47298W        W19558  22.996  39.483   2.283
47299W        W19559  27.558   9.107   4.465
47300W        W19560  12.053   4.326  13.631
47301W        W19561   8.372   2.509   2.386
47302W        W19562   6.870  22.007  13.508
47303W        W19563  37.920  37.274  12.881
47304W        W19564  16.253  39.265   1.211
47305W        W19565  10.779  41.386  13.742
47306W        W19566  19.564  30.973   3.259
47307W        W19567  14.530   2.653   4.221
47308W        W19568  10.691   7.356   1.259
47309W        W19569  44.524  15.595   0.803
47310W        W19570  25.301  43.503   3.397
47311W        W19571   4.320  31.156  13.464
47312W        W19572   6.214  30.335   2.876
47313W        W19573  44.721  13.799  10.949
47314W        W19574  12.882  39.466   1.961
47315W        W19575   2.853  40.543  11.903
47316W        W19576   7.202  41.039  10.636
47317W        W19577  40.303  41.222  11.532
47318W        W19578  20.923  34.535   0.321
47319W        W19579  23.203  41.295   0.193
47320W        W19580  12.226  42.363   3.672
47321W        W19581  34.556  24.940   4.510
47322W        W19582   4.674  19.955   4.613
47323W        W19583  19.782  16.028   1.705
47324W        W19584  20.292  32.361   4.053
47325W        W19585   4.730   4.295  10.720
47326W        W19586  25.220  22.087   2.762
47327W        W19587  38.835  33.120  11.675
47328W        W19588  24.086   6.579   4.655
47329W        W19589  18.241  10.629   2.295
47330W        W19590  39.921  28.126   2.819
47331W        W19591  39.615  33.925  14.964
47332W        W19592   3.668  30.589   4.543
47333W        W19593  24.620  44.974   1.203
47334W        W19594  10.096   2.826  12.945
47335W        W19595  40.143   0.920   0.266
47336W        W19596  25.723  19.271  14.745
47337W        W19597  23.756  26.977  14.366
47338W        W19598  22.796  44.172  10.978
47339W        W19599  13.720   4.370  12.396
47340W        W19600  18.144  14.139   4.611
47341W        W19601   3.212   6.227  11.366
47342W        W19602  42.701  15.368   3.835
47343W        W19603  28.401  43.464  12.102
47344W        W19604  34.837  41.366   2.087
47345W        W19605  32.015  43.332   2.815
47346W        W19606  23.118  38.572  11.554
47347W        W19607  35.909   5.683  12.824
47348W        W19608  27.476  12.728   4.124
47349W        W19609  29.483  14.733   0.860
47350W        W19610  28.546   7.263   4.779
47351W        W19611   0.968   6.224   3.404
47352W        W19612  16.488   3.406   1.011
47353W        W19613  40.329   3.132  12.431
47354W        W19614  19.075   6.798   2.218
47355W        W19615  43.983   4.853   0.248
47356W        W19616  32.366  26.400   4.049
47357W        W19617  40.266  25.079   4.727
47358W        W19618   1.450  21.937  12.982
47359W        W19619  36.703   7.870   2.295
47360W        W19620   5.016   2.303   2.791
47361W        W19621  15.868  14.355  10.134
47362W        W19622  37.258  28.365  12.753
47363W        W19623  16.677  13.387   1.420
47364W        W19624  36.695  35.054  14.522
47365W        W19625  15.228  20.309   4.767
47366W        W19626  13.322  10.271   3.666
47367W        W19627  34.821   8.136  14.289
47368W        W19628  43.825  44.350   3.172
47369W        W19629  30.355   6.678  11.591
47370W        W19630  35.852  19.222   2.333
47371W        W19631  20.763   5.333  14.268
47372W        W19632  14.765  16.551  10.407
47373W        W19633   7.135  13.814   2.400
47374W        W19634  12.492   0.282  10.644
47375W        W19635   4.269  26.159   2.014
47376W        W19636  38.294   6.650  10.837
47377W        W19637  31.818   2.444  12.918
47378W        W19638   5.498  17.878   4.558
47379W        W19639  26.705  19.276   3.111
47380W        W19640  26.302  25.447   3.064
47381W        W19641  18.197   1.240   1.010
47382W        W19642  23.691  41.033  11.595
47383W        W19643  20.794  36.067  12.892
47384W        W19644  31.416  21.528   1.362
47385W        W19645   8.722  14.672  10.795
47386W        W19646  40.341  41.740  11.631
47387W        W19647  30.713  24.108  14.453
47388W        W19648  29.097  10.124  10.715
47389W        W19649  40.813  35.388   0.613
47390W        W19650   7.426  18.059  12.900
47391W        W19651   0.909  26.217   0.820
47392W        W19652  32.150  39.024   1.340
47393W        W19653  40.756  27.725   3.708
47394W        W19654  17.132  34.011   2.720
47395W        W19655  12.493  30.208   5.060
47396W        W19656   4.962   8.731  11.859
47397W        W19657   9.261  23.165  13.545
47398W        W19658  28.964  28.534   1.813
47399W        W19659  17.738  42.789   2.216
47400W        W19660   6.697  25.958   4.134
47401W        W19661  44.480   0.435   3.641
47402W        W19662  17.716   4.577   4.679
47403W        W19663  20.663  31.307   3.295
47404W        W19664  40.897  37.599  12.024
47405W        W19665  24.082   3.367  14.977
47406W        W19666   9.753  31.155  12.920
47407W        W19667  31.133  40.187  14.376
47408W        W19668  35.589  23.651   0.532
47409W        W19669  29.684   5.990  10.971
47410W        W19670  32.611   3.825   3.639
47411W        W19671   6.800  44.542   4.999
47412W        W19672  41.469  26.453   0.240
47413W        W19673  28.948   2.485   2.757
47414W        W19674  28.524   1.909  12.408
47415W        W19675  32.874  13.524   1.703
47416W        W19676  25.616  37.171   4.154
47417W        W19677  27.690  13.897  13.922
47418W        W19678  11.282  21.330   0.380
47419W        W19679  25.345  13.268   3.507
47420W        W19680  28.944   6.916  14.244
47421W        W19681   0.060  18.296   0.506
47422W        W19682  44.388  32.411  11.149
47423W        W19683  15.031  25.144   1.406
47424W        W19684  19.619   0.352   1.346
47425W        W19685  30.409  42.869   4.738
47426W        W19686  21.050  33.563  13.997
47427W        W19687  36.627  30.528   2.291
47428W        W19688  40.165  32.286  10.265
47429W        W19689  35.111  36.451  13.869
47430W        W19690  14.375  10.854  11.932
47431W        W19691  41.264  31.147  11.176
47432W        W19692  35.817  41.695   2.827
47433W        W19693  18.633   6.119   0.388
47434W        W19694   6.805  42.066   3.433
47435W        W19695  24.145  29.887  12.357
47436W        W19696  21.251   9.783   2.245
47437W        W19697  31.375  31.654  10.500
47438W        W19698   0.440  39.328  10.717
47439W        W19699  39.912  20.474  14.097
47440W        W19700  10.247  33.389   2.104
47441W        W19701  36.818  41.807  14.539
47442W        W19702  38.823   7.425  14.409
47443W        W19703  19.740   7.268   1.215
47444W        W19704  39.450  41.076  13.441
47445W        W19705  36.845  21.329  14.987
47446W        W19706  33.987  28.908   2.782
47447W        W19707   2.840  32.426  13.421
47448W        W19708  41.976  35.489   1.901
47449W        W19709  34.088   0.300  11.445
47450W        W19710  18.577  16.197   3.537
47451W        W19711  10.360   9.207  11.025
47452W        W19712  43.934   3.887  12.078
47453W        W19713  18.483   4.603   4.586
47454W        W19714  18.818  42.491   0.403
47455W        W19715   4.634  42.092   0.422
47456W        W19716   0.237  17.314   2.634
47457W        W19717   2.411  23.086   2.268
47458W        W19718  22.792  25.918  13.113
47459W        W19719  10.003  29.510  14.931
47460W        W19720  19.360  16.128  14.806
47461W        W19721   8.867  18.032  14.841
47462W        W19722  27.230  41.828   4.253
47463W        W19723  20.160  17.278  14.547
47464W        W19724  23.518  20.717  13.347
47465W        W19725  34.517  44.373   1.391
47466W        W19726  33.476  34.151  12.521
47467W        W19727  44.504   7.738   0.816
47468W        W19728  20.073  42.626  11.606
47469W        W19729  18.065  32.120  12.966
47470W        W19730   6.424   7.678   0.080
47471W        W19731  33.503  29.064  13.022
47472W        W19732   9.843  12.335   3.149
47473W        W19733  41.391  32.899   1.245
47474W        W19734   6.139  12.354   3.167
47475W        W19735  12.244  38.169  13.423
47476W        W19736  23.614  13.852  12.570
47477W        W19737  21.683  25.030  13.897
47478W        W19738  29.449  20.984  14.353
47479W        W19739  10.350  42.929   3.001
47480W        W19740  28.925  38.222   0.807
47481W        W19741   2.215  35.663   4.723
47482W        W19742   1.399  37.844   0.938
47483W        W19743   1.223  44.536  12.080
47484W        W19744  40.493  19.513  12.520
47485W        W19745  18.660  36.346  11.700
47486W        W19746   3.975   8.132  14.629
47487W        W19747  32.908   1.410   4.081
47488W        W19748  32.072  27.455   2.369
47489W        W19749  23.791  19.174   4.518
47490W        W19750  30.000   6.812   3.682
47491W        W19751  21.846  43.397  13.578
47492W        W19752  21.539  40.771  10.705
47493W        W19753  35.658  34.757  11.834
47494W        W19754  30.201  25.246   0.936
47495W        W19755  25.996  24.060   2.327
47496W        W19756  38.025  16.646  10.553
47497W        W19757  25.685  43.523   4.592
47498W        W19758   7.949   1.312   0.032
47499W        W19759  33.580   7.447  11.176
47500W        W19760  18.281   4.053  10.786
47501W        W19761  40.483  30.027   0.760
47502W        W19762  40.805  31.187  12.617
47503W        W19763  30.163  24.243  11.142
47504W        W19764  16.213  37.733   1.456
47505W        W19765  39.623  28.826   4.539
47506W        W19766  40.270  15.956  14.260
47507W        W19767  12.613  21.410  11.269
47508W        W19768  38.865  38.289   2.301
47509W        W19769   6.592   0.898   4.408
47510W        W19770  38.150   1.317  11.613
47511W        W19771   2.866  18.224  14.394
47512W        W19772  15.563  22.717  11.546
47513W        W19773  34.585  12.334  10.770
47514W        W19774  38.969  39.535  12.508
47515W        W19775  34.835  27.947   1.295
47516W        W19776  11.390  22.288   1.923
47517W        W19777  42.617  22.028  14.946
47518W        W19778  14.757  26.672  12.562
47519W        W19779  21.584   8.289   1.724
47520W        W19780  40.433   7.389  14.347
47521W        W19781  23.787   8.215   0.365
47522W        W19782   2.780  15.745   2.043
47523W        W19783   0.924   2.288   3.765
47524W        W19784  15.662  34.102   3.213
47525W        W19785   4.402  42.324   2.622
47526W        W19786  23.814  32.959   4.485
47527W        W19787  19.273  13.837   2.252
47528W        W19788  26.162  40.074  14.032
47529W        W19789  40.190  19.248  13.276
47530W        W19790   9.290  28.502   0.450
47531W        W19791  25.170  37.621   0.280
47532W        W19792  38.921  30.311  10.702
47533W        W19793   5.858   9.652   1.177
47534W        W19794  31.547  18.753  11.165
47535W        W19795  37.357  39.931  14.002
47536W        W19796   0.071  17.577  12.618
47537W        W19797  10.687  11.630  14.239
47538W        W19798   9.272  33.454  14.789
47539W        W19799   1.674  14.155  13.432
47540W        W19800  24.945  15.545  14.455
47541W        W19801   2.912  22.533  13.925
47542W        W19802  11.709  24.886  14.103
47543W        W19803  29.689   6.472   0.457
47544W        W19804  12.754   1.210   1.167
47545W        W19805  20.038  44.713  12.575
47546W        W19806   7.921   0.465   2.770
47547W        W19807  11.767  26.681  13.410
47548W        W19808  30.493  18.518   1.478
47549W        W19809   4.328  20.769   4.620
47550W        W19810  10.109  25.923  12.964
47551W        W19811  29.254  14.742   0.388
47552W        W19812  37.434  44.351   5.039
47553W        W19813  26.704  34.091   2.682
47554W        W19814   2.184  28.899   3.456
47555W        W19815  14.665   5.226   0.282
47556W        W19816   7.544   2.246   0.844
47557W        W19817  16.119  13.406  11.111
47558W        W19818  35.256  10.194   1.806
47559W        W19819  27.896   4.047   0.411
47560W        W19820  29.971  34.394   2.139
47561W        W19821  30.354  21.948  14.960
47562W        W19822  24.134  23.685   0.518
47563W        W19823  15.214  43.428   1.876
47564W        W19824   8.403  10.769   1.716
47565W        W19825  36.313  11.877  11.055
47566W        W19826   3.272  29.532   2.769
47567W        W19827   1.501   5.685  12.939
47568W        W19828  33.730  19.452  10.067
47569W        W19829   0.551  42.401   0.391
47570W        W19830  27.956  15.727   0.056
47571W        W19831  31.242  35.922   3.174
47572W        W19832   0.460  24.887   3.519
47573W        W19833  30.666  31.702  13.909
47574W        W19834  42.493  16.577  13.319
47575W        W19835  11.623   8.756   3.426
47576W        W19836  33.205  20.453   1.477
47577W        W19837  32.145  17.960   0.543
47578W        W19838   5.034  13.502  10.596
47579W        W19839  30.751  19.786  11.085
47580W        W19840  26.407  24.674  12.486
47581W        W19841  24.738  40.492   1.705
47582W        W19842  14.210  25.480  14.290
47583W        W19843  19.195  38.499   2.191
47584W        W19844   2.210  34.986  12.727
47585W        W19845   8.220  40.361   1.404
47586W        W19846  43.702  28.896  11.990
47587W        W19847  28.770  41.387   3.157
47588W        W19848  27.965   3.224  14.912
47589W        W19849  15.848  29.828  13.849
47590W        W19850   3.308  15.094  13.961
47591W        W19851   8.724  10.270   3.840
47592W        W19852  35.112  17.787   9.833
47593W        W19853   2.780  35.015   4.623
47594W        W19854  16.528  37.532   1.056
47595W        W19855  14.550   7.592  10.583
47596W        W19856  33.643  38.566  11.322
47597W        W19857  38.431  27.640   3.913
47598W        W19858   5.490  29.965   3.655
47599W        W19859  20.910  21.587   3.240
47600W        W19860  12.286  43.897   0.871
47601W        W19861  41.497  13.099   1.929
47602W        W19862   5.388  29.086  14.324
47603W        W19863  33.429  18.523  13.878
47604W        W19864  30.199  44.307   3.178
47605W        W19865  13.869  24.442   3.788
47606W        W19866  15.752  29.851  11.092
47607W        W19867  24.009  17.868  14.863
47608W        W19868  33.474  40.602   3.421
47609W        W19869  31.311   5.846   2.311
47610W        W19870  16.286  11.749  11.367
47611W        W19871   7.637  38.637  11.708
47612W        W19872  32.459  22.631   0.711
47613W        W19873   0.823  25.704   4.573
47614W        W19874  35.829  19.605  10.605
47615W        W19875   3.951   9.884   1.460
47616W        W19876  10.156   8.297   4.723
47617W        W19877   5.310  15.764  11.937
47618W        W19878  11.590  42.308   1.776
47619W        W19879  10.292  24.029  10.697
47620W        W19880  14.185  21.268  10.434
47621W        W19881   0.498  35.760  11.949
47622W        W19882  25.200  32.546   4.828
47623W        W19883  36.647  21.332  12.916
47624W        W19884  37.898   6.647  12.999
47625W        W19885  18.733  18.269   4.552
47626W        W19886  42.979  10.245  13.004
47627W        W19887  33.279  25.505   2.429
47628W        W19888   4.555  37.882  13.836
47629W        W19889  41.864  32.646  10.645
47630W        W19890  10.408  14.252   2.925
47631W        W19891  43.671  14.671   2.145
47632W        W19892   7.079  14.651  14.760
47633W        W19893  39.973  20.685   1.971
47634W        W19894  11.549  13.037  14.389
47635W        W19895   8.595  13.650   0.753
47636W        W19896  14.810   7.162  14.968
47637W        W19897   5.379  44.198  14.431
47638W        W19898  24.434  26.519  11.481
47639W        W19899  39.102  37.432   1.286
47640W        W19900  28.108  11.717  11.407
47641W        W19901  13.036  42.312  11.815
47642W        W19902  15.798  41.043  13.173
47643W        W19903   7.852  11.535  13.271
47644W        W19904   1.508  38.101   4.209
47645W        W19905  31.410  26.236   1.304
47646W        W19906  35.613  36.811  10.811
47647W        W19907   9.545  44.466  11.569
47648W        W19908   9.725  18.044   2.258
47649W        W19909  25.312  37.107   2.843
47650W        W19910  18.552   8.651   5.475
47651W        W19911  23.212  10.864  11.600
47652W        W19912  16.388  32.752  14.429
47653W        W19913  14.300  34.093  12.493
47654W        W19914  38.989  38.481  11.532
47655W        W19915  18.772  25.452   0.839
47656W        W19916  18.721  42.889  14.659
47657W        W19917  34.539  13.165  13.590
47658W        W19918  43.512  36.526  14.801
47659W        W19919  42.243  12.314  14.021
47660W        W19920   9.089  15.147   4.361
47661W        W19921  29.050  22.553   4.307
47662W        W19922   3.862  30.950  10.705
47663W        W19923  39.014   2.427  11.559
47664W        W19924  43.101  10.306   1.293
47665W        W19925   4.899  22.501   0.274
47666W        W19926  10.116  25.000   1.646
47667W        W19927  13.211  24.531   2.240
47668W        W19928  37.827   4.752   3.415
47669W        W19929  42.467  34.690  14.865
47670W        W19930  24.250  36.948  11.969
47671W        W19931  40.543  26.526  13.092
47672W        W19932  29.971   6.652  11.943
47673W        W19933   9.002  22.966  11.073
47674W        W19934  35.841   6.809   3.471
47675W        W19935  12.547  11.327   0.185
47676W        W19936  24.174  12.608  11.136
47677W        W19937  29.126  21.498   3.792
47678W        W19938  39.385  24.309  14.317
47679W        W19939  11.884  25.584  12.930
47680W        W19940  43.179  36.642  13.210
47681W        W19941  23.575  27.247  11.108
47682W        W19942  28.467  12.779  11.538
47683W        W19943  31.142  15.686  13.314
47684W        W19944   4.239   8.830  10.623
47685W        W19945  17.159  30.556   2.264
47686W        W19946  42.020  42.708  11.126
47687W        W19947  15.259  17.687   3.154
47688W        W19948  32.012  21.684   0.479
47689W        W19949  29.359  23.269  14.901
47690W        W19950  14.777  16.680  11.469
47691W        W19951  25.244  44.461  14.357
47692W        W19952   8.665  26.122  11.472
47693W        W19953  42.258  30.719  13.502
47694W        W19954  35.116  11.116  10.749
47695W        W19955  13.702  32.926   1.011
47696W        W19956  39.383  19.023   3.684
47697W        W19957  32.167  24.831   0.976
47698W        W19958  36.584  25.390   5.255
47699W        W19959   9.829  26.396   4.144
47700W        W19960   9.167  33.041  11.629
47701W        W19961   1.201  40.095   2.570
47702W        W19962   7.646  15.780   1.357
47703W        W19963  40.447  37.838  13.098
47704W        W19964  10.407  22.135   3.814
47705W        W19965  33.576   9.374   3.351
47706W        W19966  33.941  29.628   3.996
47707W        W19967  15.625   7.504  13.981
47708W        W19968  29.381  22.057  12.998
47709W        W19969  14.086  43.882  13.560
47710W        W19970   7.427  16.853   2.273
47711W        W19971  28.869   8.787  12.011
47712W        W19972  39.584  36.611   0.382
47713W        W19973  12.011   8.813  11.898
47714W        W19974  21.391  12.801   5.083
47715W        W19975  19.192  32.356   1.732
47716W        W19976  18.636  43.519  10.696
47717W        W19977  22.958  25.621  11.376
47718W        W19978  13.850   0.374   4.168
47719W        W19979  28.512  27.690  10.397
47720W        W19980  11.039   2.867   2.312
47721W        W19981  16.555  26.045   1.266
47722W        W19982  23.449  14.854   0.517
47723W        W19983  21.555  12.310   4.426
47724W        W19984  37.967  18.599   2.918
47725W        W19985  33.936  42.973  12.037
47726W        W19986  41.261  31.384   4.833
47727W        W19987   1.658  13.087  14.302
47728W        W19988  23.400   5.732   1.342
47729W        W19989  22.732  42.184   1.399
47730W        W19990  40.277  19.922   3.664
47731W        W19991  13.733   8.981   2.750
47732W        W19992  43.752  18.812  10.654
47733W        W19993  12.830   1.762   2.180
47734W        W19994  42.826  40.864  11.715
47735W        W19995  40.692  25.020  13.665
47736W        W19996  31.720  17.963   0.249
47737W        W19997  36.354   6.459  14.383
47738W        W19998  16.121   1.913   2.103
47739W        W19999  26.089  32.984   3.843
47740W        W20000  12.378  38.545  13.765
47741W        W20001   8.889  18.069   2.585
47742W        W20002  26.685  26.515   2.417
47743W        W20003  29.976  25.172   5.156
47744W        W20004  13.383   7.258   3.146
47745W        W20005   4.367  38.317   4.571
47746W        W20006  12.231   9.645  14.453
47747W        W20007   5.090  40.505  14.780
47748W        W20008  35.422  18.257  13.433
47749W        W20009  26.813  25.651   0.464
47750W        W20010  19.443  37.516   3.616
47751W        W20011  30.854  22.123  14.850
47752W        W20012  27.905  43.850  10.682
47753W        W20013  25.101  23.237   2.247
47754W        W20014  27.509  29.987   2.414
47755W        W20015  15.054  14.427   9.788
47756W        W20016  33.839   4.491   4.218
47757W        W20017  12.705  36.386  12.236
47758W        W20018  18.093  18.817   1.188
47759W        W20019  41.046  11.246   0.410
47760W        W20020  35.374  35.967  12.254
47761W        W20021  13.886  33.570  11.799
47762W        W20022  10.870  32.997   3.343
47763W        W20023  44.016  21.039   2.830
47764W        W20024  33.437  36.760  14.453
47765W        W20025   5.954  15.792  13.133
47766W        W20026  39.718  25.635   4.209
47767W        W20027  17.201   4.757   4.640
47768W        W20028   7.142   8.380   2.199
47769W        W20029  16.743   1.358  12.606
47770W        W20030   0.453   9.860   2.337
47771W        W20031  22.426  27.249   0.351
47772W        W20032  30.671  19.148   2.697
47773W        W20033   3.428   2.809  10.782
47774W        W20034  15.570  40.672  12.492
47775W        W20035  14.758  38.014   0.063
47776W        W20036  20.144  36.631  13.450
47777W        W20037  23.251   4.013  14.769
47778W        W20038  28.996  21.549   1.292
47779W        W20039  24.603  44.849   0.132
47780W        W20040   9.345  31.668  10.731
47781W        W20041  12.344   7.206  13.578
47782W        W20042  44.649  39.812   2.712
47783W        W20043  30.911  25.191   2.666
47784W        W20044  28.115  40.785   2.671
47785W        W20045  14.631  24.495   0.416
47786W        W20046   6.442  17.640  13.557
47787W        W20047  26.495  44.578   4.119
47788W        W20048  30.703   2.956   3.146
47789W        W20049  37.277  43.435  14.671
47790W        W20050  42.586  40.392   0.547
47791W        W20051  24.612  23.797   3.351
47792W        W20052  44.778  17.081  14.948
47793W        W20053  32.116  43.917   3.397
47794W        W20054  31.518  26.225   2.241
47795W        W20055  31.426  25.918   1.703
47796W        W20056  23.987  43.200   0.701
47797W        W20057  43.670  31.400   1.343
47798W        W20058   0.176   8.520   3.760
47799W        W20059  10.235  30.143  12.131
47800W        W20060  33.931  40.197  14.835
47801W        W20061  14.730   3.362   4.579
47802W        W20062  38.447  20.008   3.424
47803W        W20063  23.641  25.673   1.316
47804W        W20064  17.148   5.387   4.764
47805W        W20065   5.243   5.679  13.900
47806W        W20066  26.480  31.404   0.916
47807W        W20067  21.610   3.955   4.922
47808W        W20068  23.039   7.691   3.275
47809W        W20069  10.501  27.036   2.400
47810W        W20070  10.057  23.593   2.273
47811W        W20071   7.796   0.555  11.189
47812W        W20072  19.581  18.243   3.749
47813W        W20073   0.181  43.384  14.929
47814W        W20074  16.574   6.664  11.561
47815W        W20075  21.198  26.538   2.375
47816W        W20076  22.049  31.829   3.363
47817W        W20077  43.406  28.535   0.010
47818W        W20078  44.840  23.759  14.333
47819W        W20079  27.595  34.991  11.194
47820W        W20080  40.036  31.062   3.083
47821W        W20081   4.475  16.224  14.972
47822W        W20082  33.270  16.276   1.093
47823W        W20083  37.068   1.291  13.573
47824W        W20084   1.525  39.996   2.155
47825W        W20085   8.269  21.487  13.844
47826W        W20086  38.308  21.112  14.603
47827W        W20087   4.789   5.495   2.804
47828W        W20088  21.309  11.601  13.378
47829W        W20089  20.868  38.883   0.772
47830W        W20090  17.438  24.230   1.737
47831W        W20091  14.762  22.121   0.813
47832W        W20092  15.375   3.915  13.061
47833W        W20093  12.328   1.984   2.286
47834W        W20094  30.208   4.625   1.750
47835W        W20095  27.075  44.243   2.215
47836W        W20096  20.419  22.115  12.922
47837W        W20097  21.527  39.829  14.506
47838W        W20098  29.774  30.063  13.804
47839W        W20099   0.798  30.197   3.305
47840W        W20100  22.137   7.441  12.981
47841W        W20101   4.640   5.455   4.109
47842W        W20102  39.239  44.521  11.919
47843W        W20103   2.542   4.333   3.071
47844W        W20104  41.919  30.295  14.840
47845W        W20105   6.221  44.002  10.693
47846W        W20106  28.273  29.526   0.860
47847W        W20107   2.776  39.337   2.442
47848W        W20108  29.662   7.302  12.233
47849W        W20109  29.662  12.670  10.688
47850W        W20110  24.223   5.731  12.119
47851W        W20111   1.457  39.211   2.095
47852W        W20112  29.528  35.864   3.861
47853W        W20113  41.917  39.641  13.449
47854W        W20114  25.933   7.400  13.614
47855W        W20115   5.679  39.757   2.817
47856W        W20116  33.621  29.603  12.921
47857W        W20117  21.649  42.503   1.708
47858W        W20118  36.413  25.664  12.056
47859W        W20119   3.773  28.545  11.675
47860W        W20120  14.743  40.461   1.413
47861W        W20121  23.545   7.171   2.286
47862W        W20122  35.691  29.803   2.384
47863W        W20123  33.318   0.030   4.464
47864W        W20124   7.053  25.468   5.049
47865W        W20125   0.233  28.526  10.903
47866W        W20126  23.170  14.557   2.760
47867W        W20127  28.929   0.314   4.482
47868W        W20128  28.045   5.838  12.491
47869W        W20129  25.504   3.754  14.448
47870W        W20130  21.732  11.421   4.383
47871W        W20131  15.135  31.787   4.155
47872W        W20132   6.440  34.155  13.367
47873W        W20133  40.707   4.897  14.335
47874W        W20134   6.549  41.569  14.985
47875W        W20135  19.241  35.750  13.215
47876W        W20136  34.027   6.728   4.025
47877W        W20137  26.015  35.983  10.734
47878W        W20138  38.325  29.117  10.901
47879W        W20139   1.905  27.082   3.667
47880W        W20140  34.072  10.092  12.943
47881W        W20141  30.697  41.940   4.062
47882W        W20142  26.676  39.068   1.676
47883W        W20143  33.580  35.773   5.034
47884W        W20144  24.456  10.131   1.305
47885W        W20145  18.286   4.470  10.426
47886W        W20146  26.001  30.425  13.356
47887W        W20147   7.743  33.031   2.304
47888W        W20148  29.573  43.384   3.761
47889W        W20149  40.217  11.313   1.810
47890W        W20150  31.023  10.903   1.635
47891W        W20151   6.117  16.640   0.387
47892W        W20152   4.674   7.346   4.200
47893W        W20153  12.107  20.755   3.631
47894W        W20154  17.750   0.872   0.371
47895W        W20155   9.596  29.572  14.611
47896W        W20156  26.961  27.624   4.179
47897W        W20157  18.074  14.540   0.685
47898W        W20158  40.741  23.553   0.883
47899W        W20159  29.347  19.562   4.530
47900W        W20160  14.241  41.709  14.992
47901W        W20161  13.325  32.637   2.305
47902W        W20162  30.266   1.802  13.516
47903W        W20163  44.919  25.018   3.681
47904W        W20164  39.791  22.010   1.479
47905W        W20165  21.154  27.736  12.878
47906W        W20166  24.257   4.568   3.574
47907W        W20167  34.586  26.283  10.804
47908W        W20168  32.972   3.254  14.336
47909W        W20169  24.686   9.613   3.292
47910W        W20170   9.169  40.509  14.397
47911W        W20171   6.674   6.752   1.214
47912W        W20172  18.574  32.502   2.209
47913W        W20173   5.377   8.462  14.511
47914W        W20174  24.986  10.463  13.038
47915W        W20175  26.560   2.943   2.933
47916W        W20176  28.705  13.191   3.018
47917W        W20177  35.914  20.559  10.690
47918W        W20178  18.682  39.220  11.597
47919W        W20179  12.772  28.202   1.519
47920W        W20180  44.324   8.326  13.909
47921W        W20181  19.743  34.835  12.402
47922W        W20182  42.823  36.092  13.915
47923W        W20183  43.996  10.840   2.074
47924W        W20184  22.313  19.296   4.174
47925W        W20185  27.896  13.634   4.716
47926W        W20186   1.545  10.466  12.418
47927W        W20187  14.368  30.791   5.070
47928W        W20188   4.282  40.516   2.943
47929W        W20189  12.672   8.446   1.757
47930W        W20190   1.317  10.761   0.297
47931W        W20191   6.307  19.624  12.530
47932W        W20192   4.801  13.668   3.245
47933W        W20193  21.154  44.240  11.080
47934W        W20194  40.195  21.211  11.637
47935W        W20195  33.980  19.825   1.390
47936W        W20196  33.459   3.775   4.189
47937W        W20197  32.499  30.533   1.885
47938W        W20198   5.704   6.554  10.713
47939W        W20199  25.790   4.869  10.798
47940W        W20200  29.028  28.595  10.591
47941W        W20201  26.769  32.429   0.501
47942W        W20202  27.066  38.405  10.466
47943W        W20203  17.140  39.268   2.294
47944W        W20204  25.176  32.108  13.556
47945W        W20205   1.030  15.823  11.794
47946W        W20206  38.687  24.463   4.129
47947W        W20207   8.136  38.343  11.014
47948W        W20208  20.910  21.132   2.255
47949W        W20209  24.603   1.358  14.972
47950W        W20210   0.001   7.164   3.134
47951W        W20211  43.431   3.774  10.463
47952W        W20212  29.642  24.976   1.399
47953W        W20213   5.961  43.273  11.106
47954W        W20214  13.882  15.107  12.115
47955W        W20215  42.367  44.493   3.016
47956W        W20216   1.857  44.235  12.878
47957W        W20217  32.950  18.797   4.086
47958W        W20218  39.719  32.138   3.589
47959W        W20219  37.193  43.322   1.437
47960W        W20220  35.088  42.912   3.379
47961W        W20221  39.916  44.972   3.922
47962W        W20222   5.473   2.007   2.260
47963W        W20223  37.331  27.673  11.332
47964W        W20224  32.088  10.793   1.587
47965W        W20225  38.435  12.236  12.402
47966W        W20226  29.627  44.950   2.573
47967W        W20227  33.413  14.783  12.024
47968W        W20228  23.706  16.324  10.727
47969W        W20229  21.594  13.550   0.915
47970W        W20230  15.770  35.089  13.743
47971W        W20231  10.852  29.494   4.509
47972W        W20232  19.084  24.763   1.206
47973W        W20233  29.134  12.875   2.921
47974W        W20234  26.160  43.706  10.468
47975W        W20235   9.675  15.237   2.211
47976W        W20236   9.719  16.317  10.375
47977W        W20237  15.084  24.677   3.167
47978W        W20238  26.111  27.591   4.468
47979W        W20239  42.611  31.533  11.171
47980W        W20240   1.027   4.220  13.396
47981W        W20241  43.327  12.613  14.844
47982W        W20242  27.997   0.089   0.569
47983W        W20243  32.690  30.960  13.818
47984W        W20244  15.295   5.762  12.775
47985W        W20245   2.281  21.533   4.157
47986W        W20246   4.468   3.204  14.796
47987W        W20247  29.664  35.518  13.154
47988W        W20248  18.116  23.226  10.736
47989W        W20249  30.429  43.871  14.192
47990W        W20250  23.979  24.176   0.477
47991W        W20251  33.763  25.506   4.585
47992W        W20252   4.891   8.647  14.431
47993W        W20253  23.013   8.243  12.335
47994W        W20254  41.884  15.863   2.742
47995W        W20255  10.929   8.210  13.246
47996W        W20256  14.750   7.803   4.057
47997W        W20257  24.686  21.164  14.435
47998W        W20258   6.446  18.171  11.624
47999W        W20259   9.703  27.603   0.407
48000W        W20260  27.322   2.227   4.245
48001W        W20261   8.464   2.418   4.905
48002W        W20262  27.469  25.373  13.345
48003W        W20263  28.749  29.110   1.396
48004W        W20264  33.388  38.711  14.502
48005W        W20265  32.121  38.129   0.278
48006W        W20266  31.243  25.367   1.811
48007W        W20267  21.694   1.779   3.305
48008W        W20268   8.303  29.917  11.439
48009W        W20269  42.311  29.979  11.133
48010W        W20270   8.234  23.753  12.164
48011W        W20271  25.503   9.108   0.389
48012W        W20272  32.795  24.111   4.163
48013W        W20273  19.698   8.337  14.822
48014W        W20274  30.859  42.909   3.108
48015W        W20275  39.430  41.058  12.514
48016W        W20276  31.440  16.752   3.181
48017W        W20277  42.884  10.791  13.935
48018W        W20278  37.518  15.610  11.909
48019W        W20279   9.951  11.214  12.456
48020W        W20280   7.925  22.726  14.266
48021W        W20281  36.815  38.760  12.564
48022W        W20282   7.732  40.018   3.721
48023W        W20283  36.482   3.270  10.420
48024W        W20284   4.676  37.193   5.140
48025W        W20285   1.183  21.087  11.084
48026W        W20286  33.821  18.111   2.888
48027W        W20287  24.177  18.278   4.664
48028W        W20288  26.196  30.569   3.762
48029W        W20289   9.185   7.090  11.410
48030W        W20290  30.654  34.854  13.321
48031W        W20291  24.400  26.870   1.888
48032W        W20292  10.869  35.818   4.605
48033W        W20293  11.744  17.153   1.812
48034W        W20294  18.619   4.222   2.423
48035W        W20295  10.531  14.621  13.378
48036W        W20296  12.197  29.416   1.805
48037W        W20297  39.231   4.791   3.255
48038W        W20298  16.222  18.176  13.809
48039W        W20299  12.624  31.992  11.670
48040W        W20300  17.182   3.280  14.321
48041W        W20301  43.310   8.193   0.365
48042W        W20302   4.317  11.656   2.239
48043W        W20303  17.437  21.752   4.620
48044W        W20304   9.753  41.811  10.896
48045W        W20305   1.765   1.966  12.807
48046W        W20306   0.755  23.511  13.126
48047W        W20307  17.524  12.876   3.681
48048W        W20308  25.060  34.588  13.046
48049W        W20309  36.606  39.328  10.426
48050W        W20310  29.000   1.639   1.017
48051W        W20311  26.129  40.157   3.069
48052W        W20312   0.901  12.572   4.020
48053W        W20313  38.830  19.393   2.006
48054W        W20314  19.722  19.351  13.852
48055W        W20315  36.824  38.341  14.992
48056W        W20316  20.281  11.835  10.541
48057W        W20317  40.017  34.140   2.229
48058W        W20318  33.133  15.761  12.557
48059W        W20319  34.891   1.517   0.039
48060W        W20320  17.876  43.064   4.578
48061W        W20321   1.449  30.989  11.115
48062W        W20322  23.260   2.202  11.119
48063W        W20323  44.211  43.067   3.677
48064W        W20324  37.193   7.878  13.489
48065W        W20325   6.492  21.193  11.504
48066W        W20326  12.164  30.640   4.737
48067W        W20327  42.440  37.525  12.414
48068W        W20328  19.725   8.664   4.817
48069W        W20329  39.712   4.842  11.461
48070W        W20330  41.911  18.298  11.021
48071W        W20331   7.806  19.102   1.772
48072W        W20332   6.820  24.644   3.629
48073W        W20333   2.784  44.882   1.381
48074W        W20334  12.565  27.146  12.468
48075W        W20335  43.230  30.446   0.428
48076W        W20336  28.310  43.723  13.411
48077W        W20337  39.386  19.417  11.844
48078W        W20338  15.813  11.396   0.079
48079W        W20339  12.373  28.450  11.463
48080W        W20340   0.837  39.384  11.962
48081W        W20341  11.840  11.229   4.698
48082W        W20342  21.743  21.493   2.264
48083W        W20343  27.496  18.359  13.956
48084W        W20344  23.191  23.584   0.291
48085W        W20345  11.902  30.173   2.785
48086W        W20346   1.699  36.397   0.878
48087W        W20347  24.049  43.747   4.145
48088W        W20348   7.990  31.923  11.153
48089W        W20349  33.615  43.510   0.302
48090W        W20350   1.425   5.992  14.971
48091W        W20351  17.721  38.380  13.437
48092W        W20352   4.174   7.810  10.566
48093W        W20353  11.654  34.914  10.790
48094W        W20354   6.780  13.820   0.498
48095W        W20355   8.681  20.349   3.272
48096W        W20356  33.371  37.724  10.845
48097W        W20357   4.684  35.458  10.246
48098W        W20358  40.463  33.878  11.163
48099W        W20359  32.803  33.559  14.867
48100W        W20360  42.283  40.518   0.993
48101W        W20361  23.533  34.635   4.186
48102W        W20362  33.553  11.425   1.707
48103W        W20363  30.807   0.355  14.400
48104W        W20364   2.714  19.026   3.687
48105W        W20365  16.164  40.953   1.205
48106W        W20366  27.666  20.772   2.578
48107W        W20367  32.465  26.600   2.171
48108W        W20368   8.237  39.520  14.276
48109W        W20369   0.902  27.610  11.136
48110W        W20370  29.862   9.108  13.999
48111W        W20371  11.732  30.102  10.604
48112W        W20372  13.642  39.378   4.577
48113W        W20373  36.791   3.752  12.990
48114W        W20374  44.368   9.716  14.422
48115W        W20375  30.228  28.559   4.090
48116W        W20376   2.861  25.767  11.501
48117W        W20377  39.832  10.885  11.164
48118W        W20378  33.421   1.873  13.741
48119W        W20379  41.308  36.625   0.558
48120W        W20380  10.337  31.955   4.597
48121W        W20381  39.777  24.760   3.586
48122W        W20382  25.485  33.481  13.281
48123W        W20383  40.416  42.995   4.628
48124W        W20384  42.946  32.029   3.313
48125W        W20385  34.484  12.633   1.833
48126W        W20386  31.607  17.367  12.934
48127W        W20387  40.004  31.622  10.650
48128W        W20388   2.910  11.423   3.171
48129W        W20389  33.192  25.166   3.140
48130W        W20390  31.349   7.379  10.591
48131W        W20391  39.402  23.160  11.574
48132W        W20392  44.330  39.385   1.391
48133W        W20393  28.908  22.221   3.375
48134W        W20394  28.908  16.677   0.324
48135W        W20395   4.990  27.111   4.608
48136W        W20396  35.358  24.422   4.921
48137W        W20397  30.959  38.927  13.918
48138W        W20398  38.833  22.299  12.909
48139W        W20399  18.965  38.696  10.293
48140W        W20400  24.741  42.076   0.243
48141W        W20401  19.956  44.410  14.010
48142W        W20402  16.644  18.290   2.149
48143W        W20403  42.920  10.933  13.450
48144W        W20404   5.211  14.120  10.746
48145W        W20405  32.395  44.506   2.728
48146W        W20406  17.018  43.370   4.936
48147W        W20407   7.625  42.186  12.106
48148W        W20408   5.577  41.525   3.280
48149W        W20409  13.319  19.776  11.611
48150W        W20410  10.917  31.607  13.611
48151W        W20411  19.753  18.920   5.099
48152W        W20412  24.085  11.189   0.692
48153W        W20413  33.061  20.479   0.432
48154W        W20414  12.646  23.272   3.866
48155W        W20415  44.799  24.037   1.197
48156W        W20416  22.238  29.287   1.833
48157W        W20417  32.415   4.530  11.992
48158W        W20418  30.989  39.012  11.967
48159W        W20419  36.855   2.314  13.055
48160W        W20420  24.993  38.294  10.928
48161W        W20421  17.548  10.431   2.640
48162W        W20422   4.901  27.640   5.657
48163W        W20423  25.511  39.573   4.028
48164W        W20424  32.746  38.374   0.372
48165W        W20425  15.705  37.031   3.703
48166W        W20426  11.657   1.273   1.810
48167W        W20427   3.851  22.180  12.967
48168W        W20428  10.807  22.448   1.470
48169W        W20429  16.997  33.528  10.204
48170W        W20430  22.914  34.353  13.865
48171W        W20431   1.377  30.508  10.880
48172W        W20432  33.708  27.907   3.251
48173W        W20433   8.181   9.825  13.402
48174W        W20434  32.444  12.890  12.534
48175W        W20435   8.849  32.454  14.366
48176W        W20436   7.273  25.533  14.438
48177W        W20437  37.361  20.268  11.087
48178W        W20438  28.007   8.697  12.424
48179W        W20439  36.763   0.159   0.771
48180W        W20440  10.113  41.418  11.446
48181W        W20441  44.447  29.205  10.692
48182W        W20442   4.389  25.701   2.250
48183W        W20443   6.731  37.591   0.398
48184W        W20444  31.924  30.492   2.426
48185W        W20445  11.553   0.383  11.028
48186W        W20446  30.640   5.452  13.258
48187W        W20447  33.067  42.777  14.033
48188W        W20448  18.084   7.205  11.943
48189W        W20449  28.512  36.399  14.738
48190W        W20450  30.544  24.598  13.690
48191W        W20451  17.209  33.612   1.285
48192W        W20452  26.078  22.956   1.158
48193W        W20453  28.195  15.636  12.460
48194W        W20454  23.120  12.265   4.217
48195W        W20455   4.086  40.329   4.069
48196W        W20456  27.716  30.278  14.555
48197W        W20457  42.887  35.163  13.531
48198W        W20458  29.055   5.513  14.125
48199W        W20459  14.630  19.194  12.460
48200W        W20460   4.852   6.307   2.333
48201W        W20461   6.142  16.697   4.021
48202W        W20462  11.621  32.150  11.417
48203W        W20463   0.763   0.264  10.048
48204W        W20464  20.503  43.316  14.014
48205W        W20465   8.387  14.241  11.500
48206W        W20466  26.674  32.406   3.909
48207W        W20467  27.648  40.039  11.062
48208W        W20468  42.863  22.455   1.331
48209W        W20469  32.486  12.673   4.036
48210W        W20470  24.547  13.388  14.401
48211W        W20471  10.197  13.861  12.814
48212W        W20472  36.868  14.754  14.273
48213W        W20473  15.723  27.455  11.813
48214W        W20474  19.330   3.777   2.670
48215W        W20475  30.463  41.523  12.496
48216W        W20476  42.698  28.694   0.446
48217W        W20477  44.214  31.443   2.211
48218W        W20478   4.744  39.427   4.217
48219W        W20479   1.153  27.559   4.416
48220W        W20480  37.467  31.705  10.790
48221W        W20481  10.799  31.517  13.109
48222W        W20482   1.908  27.076  14.042
48223W        W20483   0.830  11.697   4.636
48224W        W20484  36.394  30.721  14.508
48225W        W20485  43.829  25.557   4.660
48226W        W20486  35.698  28.514   2.944
48227W        W20487  40.524  33.532   9.888
48228W        W20488  12.190  39.043  11.097
48229W        W20489  22.501  32.902   0.755
48230W        W20490  42.322  13.886   1.767
48231W        W20491  39.235  23.255   4.569
48232W        W20492  12.500  24.872   1.746
48233W        W20493  36.946  11.130   1.746
48234W        W20494  41.304  30.044  10.499
48235W        W20495  13.519  31.990  14.666
48236W        W20496  15.464   9.671  11.862
48237W        W20497  20.083  27.219  12.074
48238W        W20498  28.875  23.767   2.745
48239W        W20499  25.031  35.340   2.784
48240W        W20500  18.823  21.226  13.458
48241W        W20501   4.833  21.674  11.121
48242W        W20502  39.713   7.962   3.701
48243W        W20503  25.760  14.566  13.613
48244W        W20504  25.604   2.946   3.946
48245W        W20505  40.705  16.693   1.277
48246W        W20506   1.424  10.743   3.437
48247W        W20507  21.104  32.124   3.122
48248W        W20508  40.602  10.202  10.594
48249W        W20509  11.674   0.247  12.228
48250W        W20510   0.116  31.065   2.290
48251W        W20511   1.308  11.225   1.235
48252W        W20512  25.432  24.437  12.155
48253W        W20513  27.039  15.225   0.907
48254W        W20514  16.557  18.596   4.153
48255W        W20515   5.687  27.225  14.778
48256W        W20516   0.437  38.293  13.089
48257W        W20517  34.966  22.805  13.438
48258W        W20518   6.617  16.735   2.757
48259W        W20519  39.560   1.301   3.783
48260W        W20520   1.803  37.634  12.102
48261W        W20521  12.663  35.088  14.803
48262W        W20522  11.242  28.744  10.013
48263W        W20523  20.066   0.554  14.642
48264W        W20524  30.041  31.960   0.866
48265W        W20525  23.061  36.386  11.412
48266W        W20526  17.240  29.248  11.548
48267W        W20527  10.913  40.952  12.498
48268W        W20528  15.637  22.768   4.233
48269W        W20529  15.376   6.312  10.624
48270W        W20530  23.568   1.845   2.518
48271W        W20531  36.967  18.760   9.834
48272W        W20532  29.119   8.352  10.663
48273W        W20533  42.821  11.094   1.788
48274W        W20534  24.603   9.456   0.364
48275W        W20535  36.965  18.507  12.115
48276W        W20536   4.216  39.877  14.871
48277W        W20537  25.788  18.768   2.269
48278W        W20538  26.590  28.240   2.893
48279W        W20539  20.151  40.456  13.931
48280W        W20540   8.489  26.011   1.607
48281W        W20541  36.303  31.358   2.865
48282W        W20542  38.378  44.976   3.431
48283W        W20543   0.371  36.492  14.090
48284W        W20544  20.093  10.737   4.601
48285W        W20545   8.299   1.821   1.157
48286W        W20546  40.012   9.547   4.503
48287W        W20547  17.003   6.356   0.762
48288W        W20548  16.240  17.714  13.591
48289W        W20549  33.641  40.703  12.905
48290W        W20550  35.008  26.747  14.915
48291W        W20551  39.057  15.350  12.469
48292W        W20552  43.415  20.130   1.230
48293W        W20553  11.089  37.833  10.408
48294W        W20554  43.239  18.476   1.838
48295W        W20555  36.407  27.077   4.510
48296W        W20556  12.193   2.374  12.598
48297W        W20557   3.247  33.871  14.818
48298W        W20558  38.444  19.668   0.702
48299W        W20559  44.959  34.049  10.906
48300W        W20560  30.947  13.895  13.122
48301W        W20561  40.522   8.401   3.263
48302W        W20562  26.929  30.643  14.957
48303W        W20563  20.682  40.359   2.163
48304W        W20564  25.637   7.866  13.504
48305W        W20565  13.526  24.736  11.564
48306W        W20566  26.174  32.609   2.679
48307W        W20567  27.014  27.556  13.331
48308W        W20568  35.516   5.036   4.801
48309W        W20569   5.104  44.568  11.075
48310W        W20570  20.426  44.315   2.403
48311W        W20571  21.094  22.660  14.283
48312W        W20572  19.863  16.122   9.980
48313W        W20573  37.005  33.824   4.379
48314W        W20574  29.673  24.698  14.771
48315W        W20575  42.712  33.638  11.164
48316W        W20576  21.131  16.316  14.506
48317W        W20577  30.559  38.602  13.852
48318W        W20578  31.985  28.899   4.765
48319W        W20579  12.431  14.625  14.339
48320W        W20580  26.706  22.703   5.046
48321W        W20581  27.239  17.215   3.352
48322W        W20582  40.091  39.944  10.631
48323W        W20583   1.944   4.769  14.521
48324W        W20584  13.438  12.953   0.756
48325W        W20585  41.331   5.475   2.663
48326W        W20586  43.058   3.109   3.521
48327W        W20587   6.461  31.151   3.240
48328W        W20588  41.541  19.648   4.188
48329W        W20589  43.634  19.953   3.306
48330W        W20590  17.003  38.272  10.641
48331W        W20591  11.061  34.245  12.500
48332W        W20592  16.682  39.112   3.763
48333W        W20593  38.813  33.943   2.008
48334W        W20594  14.989   7.748  12.370
48335W        W20595  27.608   3.910  11.382
48336W        W20596  24.352  16.763  14.442
48337W        W20597  35.918  28.025   2.600
48338W        W20598  33.127  38.742   1.348
48339W        W20599  26.789  15.572   2.612
48340W        W20600  26.505  25.625   0.911
48341W        W20601   4.778  23.648  11.051
48342W        W20602  43.430  42.403  10.795
48343W        W20603  38.864  14.766   1.391
48344W        W20604  25.555  17.130   2.767
48345W        W20605  42.886  15.779   0.742
48346W        W20606   8.698  39.115  13.084
48347W        W20607  36.900   6.198  12.918
48348W        W20608  35.847  12.921  12.542
48349W        W20609  15.817   1.001  12.452
48350W        W20610   1.309  37.011  14.949
48351W        W20611   5.164  31.063  14.860
48352W        W20612  33.514  34.672   4.141
48353W        W20613   8.944  28.630  13.505
48354W        W20614  37.530   8.264  13.726
48355W        W20615   1.285  44.455  13.852
48356W        W20616  26.416  11.852  13.545
48357W        W20617  12.995  33.606   3.200
48358W        W20618  39.043  38.011  12.804
48359W        W20619   8.189  11.346   3.119
48360W        W20620  19.253  13.340  12.505
48361W        W20621  40.887  15.257  13.634
48362W        W20622  33.066  26.213  14.059
48363W        W20623   3.364  26.001   4.630
48364W        W20624  36.000  25.975  11.961
48365W        W20625  17.550  26.097  10.972
48366W        W20626  24.025  39.660   3.769
48367W        W20627  43.209  40.903  12.070
48368W        W20628  19.107  23.338   0.352
48369W        W20629   5.955   7.275   2.260
48370W        W20630  13.231  18.261   1.658
48371W        W20631  30.897   3.034   4.729
48372W        W20632  16.665  30.645   2.203
48373W        W20633  28.463   8.750   0.983
48374W        W20634  33.434   3.266  12.854
48375W        W20635  31.654   7.852  14.796
48376W        W20636  21.339  12.749  11.535
48377W        W20637  15.577  23.234  14.147
48378W        W20638   7.188  22.778  12.029
48379W        W20639  21.647  28.707   3.691
48380W        W20640  38.558  22.136   2.859
48381W        W20641  26.546  43.989  10.839
48382W        W20642  15.613  10.174   1.112
48383W        W20643  21.130  44.044   3.404
48384W        W20644  35.111   8.937   0.978
48385W        W20645   4.706  10.316  14.001
48386W        W20646   8.631  25.277  13.058
48387W        W20647   5.309   7.764  11.802
48388W        W20648  24.246  13.731   3.802
48389W        W20649  22.062   9.759   4.573
48390W        W20650  44.853   9.286   4.618
48391W        W20651  35.687  39.245   3.761
48392W        W20652  29.681   5.347  12.900
48393W        W20653  36.160  14.237  11.920
48394W        W20654  38.352  12.250   2.380
48395W        W20655  41.555  26.980  11.877
48396W        W20656  33.101   4.841   0.836
48397W        W20657  14.811  42.355  14.289
48398W        W20658  19.864  18.130  13.023
48399W        W20659  38.971  43.907   4.829
48400W        W20660  21.636  30.242  12.936
48401W        W20661  30.977  44.726  12.735
48402W        W20662   5.659  35.308  11.235
48403W        W20663  30.058  35.608  11.061
48404W        W20664  25.877  31.348  12.123
48405W        W20665  39.354   5.699   0.558
48406W        W20666  36.889   7.468   4.052
48407W        W20667  36.005   6.325  13.550
48408W        W20668  21.187  42.242   3.671
48409W        W20669  15.667   5.270   4.637
48410W        W20670  31.752  26.103  13.017
48411W        W20671  33.013  33.548   2.883
48412W        W20672   8.771  10.202   0.729
48413W        W20673  35.634   3.181  11.658
48414W        W20674   6.657  13.165  13.281
48415W        W20675  23.772   1.339   2.661
48416W        W20676  39.616  35.097   3.781
48417W        W20677  19.710  37.416   3.192
48418W        W20678  40.329  41.281  12.524
48419W        W20679  39.916  36.293   0.973
48420W        W20680  15.460  23.713   0.371
48421W        W20681  28.003  14.232  11.435
48422W        W20682   6.234  25.170   1.207
48423W        W20683  33.130  24.175  11.530
48424W        W20684  22.407  19.862   2.291
48425W        W20685   7.673  16.631  14.447
48426W        W20686  42.057  41.372  10.964
48427W        W20687  23.239   1.419  12.316
48428W        W20688  27.485  24.787  12.454
48429W        W20689   3.223  10.248  14.579
48430W        W20690  27.532   6.226  10.654
48431W        W20691  33.028  43.515  12.076
48432W        W20692  43.715  10.966  10.685
48433W        W20693  41.214   4.688   2.699
48434W        W20694  28.619  38.302  10.705
48435W        W20695  14.801   9.606   1.916
48436W        W20696  14.571  40.426   3.661
48437W        W20697  21.729  33.193   0.347
48438W        W20698  26.110  43.255  10.714
48439W        W20699  44.935  36.827  13.848
48440W        W20700  16.592  21.283   4.076
48441W        W20701  32.962   1.999   3.373
48442W        W20702   5.127   1.289   1.217
48443W        W20703  40.379   8.319   4.131
48444W        W20704   5.831  26.616  13.324
48445W        W20705   0.743  29.460   5.003
48446W        W20706  32.525  39.353  13.382
48447W        W20707  44.115  36.277   3.244
48448W        W20708  34.675  10.147  10.811
48449W        W20709  34.294  40.977  14.430
48450W        W20710  27.987  39.026   1.968
48451W        W20711  24.715   2.704  12.930
48452W        W20712  14.636  30.114   9.635
48453W        W20713   7.888  32.921  11.980
48454W        W20714  39.563   8.603   2.903
48455W        W20715  35.896  33.532   0.556
48456W        W20716  11.208  39.395  12.575
48457W        W20717  27.470   0.428  13.989
48458W        W20718  43.040   2.788  11.309
48459W        W20719   9.589  22.714   4.621
48460W        W20720  44.841  40.811   0.469
48461W        W20721  22.408   5.961   3.711
48462W        W20722   3.509  18.528  10.791
48463W        W20723  30.349  13.198   2.248
48464W        W20724  24.823  33.606  11.537
48465W        W20725  19.917  21.924  12.834
48466W        W20726   4.969   9.866  12.479
48467W        W20727  35.039  22.656   4.624
48468W        W20728  36.464  10.225  14.785
48469W        W20729  34.970  33.177   4.149
48470W        W20730  19.714  16.713   1.242
48471W        W20731  19.712  16.648   2.298
48472W        W20732  32.168  22.635   4.111
48473W        W20733  27.721  15.364  12.432
48474W        W20734  11.799  10.820  11.145
48475W        W20735   6.268  22.272  11.150
48476W        W20736  41.388  35.880  14.816
48477W        W20737   5.665  23.688   2.360
48478W        W20738  25.080  18.237  12.118
48479W        W20739  36.849  25.738   1.291
48480W        W20740  41.369  44.320   3.260
48481W        W20741  30.197  25.635   1.336
48482W        W20742  15.519  34.823   4.416
48483W        W20743   8.390  22.072  12.000
48484W        W20744  37.411  14.896   3.756
48485W        W20745  33.497   6.116  11.179
48486W        W20746   1.452  24.481  12.744
48487W        W20747   2.351   6.351   4.654
48488W        W20748   2.363   5.241   4.610
48489W        W20749  10.653  30.489  14.075
48490W        W20750  43.876  25.146   1.811
48491W        W20751  41.921  15.095  12.910
48492W        W20752  18.154   6.676   3.984
48493W        W20753  20.796  11.192   3.664
48494W        W20754  43.830  24.158   1.230
48495W        W20755  11.536  30.223   1.956
48496W        W20756  30.171  36.475  10.681
48497W        W20757  32.507  39.002  12.977
48498W        W20758  19.544  10.416   4.108
48499W        W20759  43.260  38.631   3.355
48500W        W20760  43.487  11.285   4.519
48501W        W20761  43.774  27.567  13.513
48502W        W20762  44.991  22.463  14.023
48503W        W20763  17.699  16.367  14.435
48504W        W20764  21.140  22.287   1.877
48505W        W20765  30.866  33.427   3.514
48506W        W20766  15.027  28.472   1.270
48507W        W20767  34.674  20.781  10.186
48508W        W20768  22.824  38.191   1.451
48509W        W20769  20.085  10.436   0.308
48510W        W20770   2.081  18.595   0.987
48511W        W20771   8.846   9.710   2.417
48512W        W20772   8.350  36.551   1.370
48513W        W20773  44.960   5.296   0.187
48514W        W20774  20.322  24.615  13.619
48515W        W20775  33.778  18.089   9.997
48516W        W20776  34.034  28.157   1.816
48517W        W20777  35.976   2.700  13.992
48518W        W20778  16.835  22.226  11.564
48519W        W20779  17.265  12.915  13.417
48520W        W20780  10.623   9.714   3.639
48521W        W20781  10.330  23.040   0.874
48522W        W20782  18.572  22.497   0.649
48523W        W20783   3.742  31.405   2.351
48524W        W20784  24.849  26.777  13.719
48525W        W20785   1.750  12.503  11.559
48526W        W20786  41.820  18.160   2.300
48527W        W20787  36.803   5.426   1.432
48528W        W20788   1.023  25.893   1.247
48529W        W20789   2.358  14.878   2.689
48530W        W20790  43.737   8.354   2.282
48531W        W20791  33.261  24.708   4.879
48532W        W20792   9.398  33.092   4.293
48533W        W20793  12.098   3.306  10.984
48534W        W20794  12.499   4.123  11.459
48535W        W20795  15.535  16.075   4.228
48536W        W20796  26.043   2.005   4.840
48537W        W20797  33.037  20.649  11.618
48538W        W20798   9.175  41.306   0.450
48539W        W20799  18.680  32.876  14.781
48540W        W20800   3.206  41.618  12.399
48541W        W20801  12.861  38.964  10.440
48542W        W20802  30.219   6.114  14.492
48543W        W20803  10.197  15.333   1.579
48544W        W20804  35.854  30.955  14.354
48545W        W20805  25.178  31.915  11.960
48546W        W20806  23.236  13.637  13.903
48547W        W20807  31.571   2.416   1.956
48548W        W20808  12.674  29.957  14.336
48549W        W20809  37.827  12.517  12.490
48550W        W20810   5.451  41.845  12.738
48551W        W20811  43.563   7.633  12.964
48552W        W20812  22.533  31.007  12.074
48553W        W20813  29.015  39.797  13.001
48554W        W20814  41.843  41.083   3.601
48555W        W20815  11.846   2.221  11.850
48556W        W20816  10.745  39.349  11.505
48557W        W20817  14.093  38.831   3.937
48558W        W20818  41.800  30.480   2.151
48559W        W20819  35.634  10.653  11.443
48560W        W20820  41.357  37.427  12.158
48561W        W20821  38.595   5.367  11.920
48562W        W20822  18.238  24.508   1.720
48563W        W20823  36.426  21.207  10.078
48564W        W20824  15.585  17.564   9.802
48565W        W20825   8.525   5.053   4.651
48566W        W20826  40.563  11.620  10.766
48567W        W20827  36.699  38.981   4.809
48568W        W20828  41.095  37.104   3.231
48569W        W20829  35.001  13.131   3.662
48570W        W20830  37.645  16.346   1.425
48571W        W20831  39.831  34.393  10.748
48572W        W20832  26.037  24.487   2.068
48573W        W20833  21.224  19.011   1.267
48574W        W20834  40.852  21.719  10.733
48575W        W20835  39.125  29.026  11.943
48576W        W20836  18.038  27.199  13.467
48577W        W20837  14.390  12.380   1.748
48578W        W20838   5.467  29.461   0.770
48579W        W20839   4.601  28.063   3.233
48580W        W20840  40.290  20.311  14.480
48581W        W20841  36.298  15.057   0.037
48582W        W20842   4.485   0.046   1.811
48583W        W20843  14.823  31.418   2.301
48584W        W20844  37.389   8.457  12.408
48585W        W20845  22.264  25.522   1.353
48586W        W20846  42.357  17.909  14.384
48587W        W20847  32.017  26.996   4.124
48588W        W20848  15.941  17.996   3.279
48589W        W20849  23.084   3.275   2.904
48590W        W20850  17.526  18.621   1.895
48591W        W20851  31.916  26.121   4.107
48592W        W20852  17.664  17.712  11.731
48593W        W20853  14.409   9.771  10.053
48594W        W20854  27.247  13.108  11.547
48595W        W20855  14.869  34.129   0.447
48596W        W20856  14.124  21.338   3.267
48597W        W20857  28.824   0.604   3.270
48598W        W20858   1.303  42.792  13.060
48599W        W20859  27.509  43.094  14.870
48600W        W20860  40.871  20.164   4.198
48601W        W20861  23.507  22.454  12.446
48602W        W20862   0.534  22.811   4.591
48603W        W20863   6.834  41.782  10.687
48604W        W20864  11.610  16.592  12.213
48605W        W20865  10.610  44.753  11.093
48606W        W20866   7.396  44.399  10.740
48607W        W20867  44.958  42.151   0.772
48608W        W20868   3.039  18.309   4.122
48609W        W20869   7.553  19.243  13.455
48610W        W20870  14.812  33.013   3.090
48611W        W20871  11.744  32.986   4.139
48612W        W20872  27.717  11.321   2.274
48613W        W20873  39.857  43.420  11.080
48614W        W20874  37.639  30.433   2.119
48615W        W20875  24.031  36.507  13.997
48616W        W20876  29.949   4.851  10.783
48617W        W20877  14.787  31.205   3.664
48618W        W20878  25.194   6.324  14.859
48619W        W20879  26.025   2.651   4.075
48620W        W20880  26.725  21.657  14.783
48621W        W20881  44.430  43.263  10.746
48622W        W20882  38.939  18.699   3.318
48623W        W20883  22.129  43.245   1.902
48624W        W20884   5.714  17.838  14.437
48625W        W20885  29.026  17.141   1.085
48626W        W20886  11.854  26.227   4.588
48627W        W20887  29.480   2.524   2.814
48628W        W20888  14.239  12.642  11.497
48629W        W20889   8.350  23.677   2.178
48630W        W20890  29.106  19.546  12.830
48631W        W20891   3.605   5.111  13.390
48632W        W20892  14.248   3.683   3.506
48633W        W20893   0.907  29.123  12.573
48634W        W20894   1.041  32.018   4.245
48635W        W20895  43.904  34.476  12.074
48636W        W20896  20.056  31.759   1.479
48637W        W20897  22.542  18.527   5.087
48638W        W20898  39.826  37.136  10.945
48639W        W20899   5.220  31.166   4.950
48640W        W20900   1.322  15.833  14.456
48641W        W20901  23.763  23.129  13.416
48642W        W20902  11.354  38.999   4.130
48643W        W20903  43.231  17.858  12.570
48644W        W20904  22.445  34.777  11.736
48645W        W20905  26.559  15.620   1.369
48646W        W20906   3.409  11.269   4.426
48647W        W20907  43.891  30.099  10.650
48648W        W20908  32.665  41.713   0.188
48649W        W20909  33.088  20.789   4.199
48650W        W20910  12.755   0.389   3.405
48651W        W20911  43.383  30.042  10.784
48652W        W20912   8.389  29.047   1.193
48653W        W20913  41.437   5.640  13.411
48654W        W20914  10.364  29.236  10.642
48655W        W20915  32.999   0.491   2.302
48656W        W20916  15.080   6.670  11.539
48657W        W20917  25.689   4.793   0.408
48658W        W20918  20.970  11.555  10.830
48659W        W20919  13.594  40.512   1.807
48660W        W20920  33.046   5.426   4.380
48661W        W20921  38.561  28.012  10.774
48662W        W20922   0.039  25.448   1.338
48663W        W20923  44.151  19.183   4.239
48664W        W20924  36.611  44.818   2.785
48665W        W20925  22.606  32.113   0.254
48666W        W20926  38.867  26.177  11.898
48667W        W20927  37.414  42.981   3.683
48668W        W20928  20.561   5.682  11.539
48669W        W20929  18.848  36.270  13.035
48670W        W20930  43.943  24.179   1.789
48671W        W20931  44.924  25.972   0.553
48672W        W20932  29.069  35.729  14.696
48673W        W20933  11.892  24.030   4.619
48674W        W20934  32.805  39.970   1.346
48675W        W20935  33.008  13.965  14.901
48676W        W20936  12.905   7.462   0.985
48677W        W20937   7.280  24.537   3.414
48678W        W20938  21.330   2.311   1.801
48679W        W20939  38.321   9.228   1.964
48680W        W20940  22.261  30.492   0.837
48681W        W20941  38.360  43.916  10.698
48682W        W20942   4.739  25.191  13.359
48683W        W20943  40.038  36.815  14.818
48684W        W20944  40.269  33.898   1.354
48685W        W20945  11.261  18.640  13.565
48686W        W20946   9.112  10.639   2.887
48687W        W20947   2.234  23.053   1.261
48688W        W20948  15.084  32.175   3.173
48689W        W20949  20.954   9.854  13.336
48690W        W20950   7.788  40.283   2.268
48691W        W20951  13.672  28.845   4.658
48692W        W20952   9.132  43.083   4.160
48693W        W20953  41.017  26.267   4.211
48694W        W20954  38.418  15.604  14.520
48695W        W20955  21.552  33.387   3.676
48696W        W20956  34.475  35.127   2.385
48697W        W20957  35.338  35.386  10.666
48698W        W20958  23.387  41.369  12.872
48699W        W20959  18.775  38.322   2.909
48700W        W20960   6.730  10.146   4.264
48701W        W20961   8.696  34.848  13.620
48702W        W20962   4.118  16.545  10.770
48703W        W20963  19.696  35.376  11.666
48704W        W20964   4.199  43.314   1.199
48705W        W20965  26.959  31.862   3.605
48706W        W20966   4.696  30.531  14.339
48707W        W20967  12.224   5.184   0.857
48708W        W20968   7.288  44.941  12.394
48709W        W20969  20.668  24.750   2.081
48710W        W20970  11.673  33.060  10.571
48711W        W20971  15.363   3.972   3.511
48712W        W20972  23.410  17.201   3.545
48713W        W20973  42.451  38.505  14.879
48714W        W20974  25.490   0.776   2.800
48715W        W20975   8.105  15.252   0.735
48716W        W20976  15.434   4.374   4.628
48717W        W20977  40.861  36.532  14.883
48718W        W20978  17.204   7.857   3.348
48719W        W20979  31.899  26.583   3.833
48720W        W20980   6.428  44.084   9.983
48721W        W20981   0.946  24.841   0.689
48722W        W20982  27.390  10.637  11.679
48723W        W20983  36.433   0.886  13.318
48724W        W20984  21.387  22.050   9.826
48725W        W20985  22.204   1.285   4.517
48726W        W20986  32.822  26.150  12.661
48727W        W20987  26.999  34.554   2.339
48728W        W20988  43.843  29.245   0.965
48729W        W20989  21.276  20.051  14.784
48730W        W20990  34.596   2.396  12.311
48731W        W20991  36.623  26.309   1.376
48732W        W20992  10.136  29.131  13.459
48733W        W20993  43.296  36.154   3.234
48734W        W20994   1.007  23.083  10.267
48735W        W20995  29.042   2.479  12.064
48736W        W20996   0.334  38.965  12.503
48737W        W20997  27.774   5.323  13.533
48738W        W20998  18.729  10.902   3.268
48739W        W20999  21.081  24.027   3.243
48740W        W21000   8.084   5.637   4.139
48741W        W21001  15.795   5.950   2.651
48742W        W21002   7.954  23.208   0.461
48743W        W21003  37.592  27.052   0.789
48744W        W21004  12.687   2.703   4.945
48745W        W21005  26.585  41.858  13.818
48746W        W21006  39.879  26.158   3.490
48747W        W21007   7.710  38.355  13.482
48748W        W21008  11.805  23.886   0.006
48749W        W21009  25.159  19.277   4.415
48750W        W21010  19.034  35.064  13.238
48751W        W21011   0.385   1.249   0.203
48752W        W21012  40.523  34.494   2.100
48753W        W21013  24.439  15.238  13.836
48754W        W21014  40.000  19.608   4.222
48755W        W21015  18.018  14.673   4.270
48756W        W21016  36.380  18.207   2.635
48757W        W21017  36.422  24.969  13.286
48758W        W21018  20.488   9.253  13.989
48759W        W21019   3.786  19.090   0.110
48760W        W21020   2.427   1.644  11.008
48761W        W21021  34.875   9.713  13.333
48762W        W21022  31.642  37.502   4.849
48763W        W21023  11.897   2.008  13.213
48764W        W21024   6.471   3.947   0.542
48765W        W21025  43.511  16.962   1.859
48766W        W21026   1.253   9.148  11.511
48767W        W21027  32.682  38.537   1.672
48768W        W21028   6.922  14.672  11.995
48769W        W21029  21.266  29.598  11.627
48770W        W21030   9.996   5.997   3.356
48771W        W21031   2.566  40.684  14.888
48772W        W21032   4.119  41.733  12.438
48773W        W21033  37.472  18.174   4.500
48774W        W21034  15.139  33.175  14.256
48775W        W21035   1.864   5.418   4.525
48776W        W21036   9.790  43.707   4.855
48777W        W21037  13.559  11.347  13.636
48778W        W21038  32.659  38.397   3.019
48779W        W21039  18.786  39.957   3.819
48780W        W21040   2.660  33.436  10.437
48781W        W21041  15.044  11.684  12.920
48782W        W21042  18.475  34.880  10.587
48783W        W21043  24.642  24.954  13.451
48784W        W21044  34.120  32.715  14.388
48785W        W21045  10.598   3.477  11.098
48786W        W21046  12.519  33.173  12.144
48787W        W21047  21.671   8.157  12.159
48788W        W21048  35.452  26.444   3.651
48789W        W21049  12.001   5.198   3.752
48790W        W21050   2.079  25.027  11.601
48791W        W21051  34.642  34.312  14.075
48792W        W21052   5.004   6.591   0.366
48793W        W21053  29.792   2.231  12.902
48794W        W21054  36.490  29.117  11.559
48795W        W21055  25.563  13.282  12.671
48796W        W21056   1.480  24.231   4.796
48797W        W21057  29.140  29.005   4.600
48798W        W21058  42.734  35.674   0.537
48799W        W21059  18.174   5.011  13.694
48800W        W21060  42.564  33.006  11.083
48801W        W21061  16.679  22.199  11.079
48802W        W21062  22.160  11.326  14.959
48803W        W21063   3.035   1.880  10.583
48804W        W21064  22.718   6.745   1.839
48805W        W21065   8.420  41.362  10.940
48806W        W21066  30.393   0.954   3.051
48807W        W21067  27.544  10.394   2.578
48808W        W21068   4.253  32.440   1.684
48809W        W21069  40.753  39.371   9.885
48810W        W21070  37.385  40.468  14.840
48811W        W21071  14.229  37.952  14.351
48812W        W21072  26.337  13.099   0.037
48813W        W21073  15.819  21.086   3.643
48814W        W21074  11.359  29.598  12.583
48815W        W21075  27.146  39.896   9.854
48816W        W21076  18.175   1.157  14.346
48817W        W21077  29.570   5.419   2.423
48818W        W21078  35.425  14.141  13.324
48819W        W21079   4.341  44.399  11.634
48820W        W21080  34.009  28.156  14.796
48821W        W21081  35.096  38.350   3.297
48822W        W21082   3.338  30.726  11.924
48823W        W21083  27.417  20.714  10.504
48824W        W21084  23.197  30.588   2.869
48825W        W21085  22.987  18.078  14.051
48826W        W21086   9.445   2.289  12.906
48827W        W21087   1.736  31.460   1.588
48828W        W21088  19.562  43.274   1.261
48829W        W21089  24.578  18.964   0.425
48830W        W21090   4.382  18.243   2.757
48831W        W21091   8.681  19.125   3.145
48832W        W21092  28.386  17.626   1.537
48833W        W21093  36.864  11.406   3.882
48834W        W21094  43.400  44.247  12.522
48835W        W21095   1.292   1.482   3.804
48836W        W21096  23.508  35.124  11.939
48837W        W21097  29.550  44.900  14.612
48838W        W21098  21.746  10.894   1.322
48839W        W21099  30.350  15.252  14.814
48840W        W21100  41.941  34.896   4.682
48841W        W21101   9.989  29.658   4.931
48842W        W21102  16.627  42.168  14.348
48843W        W21103   7.793   1.871  13.820
48844W        W21104  36.857  27.254   1.224
48845W        W21105  37.432  23.704  10.804
48846W        W21106  20.515   7.158  11.143
48847W        W21107  41.293  35.302  13.788
48848W        W21108  21.109  33.641  11.339
48849W        W21109   7.136  43.389  13.569
48850W        W21110  39.448   0.269   0.120
48851W        W21111  37.828  13.575  13.910
48852W        W21112  26.235  37.840  14.690
48853W        W21113  24.694   1.825   3.535
48854W        W21114  37.959  12.086   1.516
48855W        W21115  17.660   3.790   1.632
48856W        W21116   3.187  37.160  14.308
48857W        W21117  25.070  21.425   3.181
48858W        W21118  35.074  34.599  11.585
48859W        W21119   1.528  21.308   4.537
48860W        W21120  22.071  17.238  11.570
48861W        W21121  14.765  35.915   3.830
48862W        W21122  32.435  22.537  14.812
48863W        W21123  30.302   7.714   2.236
48864W        W21124  30.423  24.406  12.375
48865W        W21125  10.341  38.951   2.270
48866W        W21126  23.196  40.249   2.863
48867W        W21127  34.648  43.436  10.945
48868W        W21128   8.582  16.114   2.849
48869W        W21129  15.102   3.822   1.922
48870W        W21130   2.938  20.253  13.379
48871W        W21131   9.719   0.999  10.627
48872W        W21132  20.781  34.920  13.275
48873W        W21133  19.196   2.866  14.731
48874W        W21134  31.991  27.389  12.279
48875W        W21135  10.458   0.872  12.779
48876W        W21136  22.309  34.933  11.278
48877W        W21137  10.419  28.923   1.165
48878W        W21138   6.335  31.211  13.415
48879W        W21139   4.238  34.029  12.423
48880W        W21140   8.908  43.631   2.890
48881W        W21141  41.026  22.746  12.909
48882W        W21142  23.593  16.209   3.140
48883W        W21143   2.505  21.637  12.824
48884W        W21144  41.382  15.011   3.091
48885W        W21145  21.234  38.546   1.311
48886W        W21146  29.028  20.570   1.729
48887W        W21147   6.873  24.330  14.214
48888W        W21148   2.930  31.487  14.454
48889W        W21149  19.743  23.762   2.370
48890W        W21150  44.719   2.310  11.756
48891W        W21151   7.684  23.144   1.733
48892W        W21152  38.574  35.914   0.748
48893W        W21153  14.629   4.623   4.106
48894W        W21154  19.834   4.828   2.865
48895W        W21155  33.913  34.864  12.858
48896W        W21156  33.501  33.969   3.116
48897W        W21157  27.610  33.061  11.464
48898W        W21158  37.579  30.008   0.977
48899W        W21159  21.449  19.799   4.024
48900W        W21160   1.978  28.521  11.167
48901W        W21161  43.304  24.059  13.481
48902W        W21162   0.640  42.871  11.170
48903W        W21163  39.004   2.618   4.224
48904W        W21164   0.032  22.237  10.693
48905W        W21165  11.318   2.948   0.006
48906W        W21166  17.837  36.762  11.658
48907W        W21167  36.881  15.811   3.665
48908W        W21168  24.536  34.395  12.038
48909W        W21169  37.993  23.594   5.096
48910W        W21170  28.778  21.436  14.972
48911W        W21171   0.647  24.195   0.849
48912W        W21172  19.961   5.336   3.724
48913W        W21173  37.347   9.154   5.066
48914W        W21174  23.011   3.728  13.446
48915W        W21175  24.138   6.354   1.775
48916W        W21176   8.418   9.157   2.883
48917W        W21177  38.297  20.659  13.910
48918W        W21178  31.215  11.415   0.480
48919W        W21179  31.448  42.118  12.159
48920W        W21180  28.596  26.493  12.065
48921W        W21181  16.221   6.877   3.679
48922W        W21182  30.849  33.998  12.460
48923W        W21183  38.282   2.759  12.577
48924W        W21184  14.133  34.094  14.769
48925W        W21185  22.664  40.002  13.578
48926W        W21186   9.121  25.507  12.083
48927W        W21187  44.466   0.126  12.859
48928W        W21188  27.427  26.584   1.886
48929W        W21189  25.202  31.915  14.396
48930W        W21190  17.731  23.486   0.379
48931W        W21191  13.509  30.890   4.671
48932W        W21192   1.945  26.710   0.800
48933W        W21193  28.569  36.407  13.766
48934W        W21194   1.169  31.358  14.744
48935W        W21195  36.888  35.885   4.415
48936W        W21196   8.331  31.860  10.745
48937W        W21197  30.006  42.461   1.719
48938W        W21198  19.745  37.859   0.230
48939W        W21199  39.949   5.335   0.280
48940W        W21200  16.816  35.468  14.569
48941W        W21201  25.205  44.294   3.879
48942W        W21202   4.430  10.879  14.774
48943W        W21203  42.747  21.993  13.982
48944W        W21204  27.336  24.442   1.906
48945W        W21205   8.678  11.207   1.912
48946W        W21206  36.870  40.298   4.171
48947W        W21207  22.215  38.534  11.128
48948W        W21208  27.978  21.213  10.623
48949W        W21209  38.251  38.264   4.133
48950W        W21210  41.277  17.111   4.764
48951W        W21211  23.162  40.494  12.435
48952W        W21212  36.522   6.970  13.018
48953W        W21213  20.088  25.076  11.215
48954W        W21214  20.478  44.206  13.528
48955W        W21215  28.582  32.125   0.797
48956W        W21216  39.065  17.360   2.718
48957W        W21217  12.846  14.072  11.091
48958W        W21218  21.719  28.145   2.743
48959W        W21219  43.982  38.635  12.957
48960W        W21220  10.188  36.974   3.472
48961W        W21221  36.059   1.760   2.359
48962W        W21222  15.530  11.389  11.649
48963W        W21223  13.171  32.000  11.637
48964W        W21224  28.650  38.983  14.402
48965W        W21225  26.960  26.721  10.693
48966W        W21226   3.174  31.976  12.941
48967W        W21227  24.573   5.631   0.195
48968W        W21228   6.808  28.216   2.828
48969W        W21229  31.213  41.139  10.386
48970W        W21230  19.282   5.293   5.131
48971W        W21231  18.588  42.841  11.922
48972W        W21232  33.989   4.385  14.340
48973W        W21233  23.143  24.679  11.880
48974W        W21234  28.137   0.385  10.717
48975W        W21235  21.515  23.054   0.859
48976W        W21236  39.139  22.555  11.091
48977W        W21237   5.282   7.210  12.095
48978W        W21238  11.104  34.547   2.956
48979W        W21239   4.673  22.018  14.084
48980W        W21240   0.304  22.925  14.486
48981W        W21241  29.160   9.804   1.685
48982W        W21242   1.528  21.516  13.877
48983W        W21243  34.404  37.619   2.844
48984W        W21244  28.632   7.872  14.436
48985W        W21245  33.198  33.230  13.575
48986W        W21246  31.374  11.124  13.676
48987W        W21247   0.222  22.194   3.784
48988W        W21248  12.656  33.412   2.271
48989W        W21249  43.728  15.381   2.975
48990W        W21250  39.568  37.086  11.479
48991W        W21251  26.723  16.033  14.299
48992W        W21252  28.141  40.420   4.168
48993W        W21253   4.282  27.781  10.844
48994W        W21254  17.226   9.233  14.698
48995W        W21255  32.997  13.943  11.917
48996W        W21256   9.197   1.970   1.241
48997W        W21257  14.296  15.610  10.986
48998W        W21258  19.147  17.391   4.717
48999W        W21259  30.170   5.479   3.243
49000W        W21260  12.149  31.624  13.820
49001W        W21261   0.564   1.893  10.843
49002W        W21262  26.157  38.531   0.869
49003W        W21263  34.119  26.774  14.901
49004W        W21264  26.690   9.659   9.958
49005W        W21265  34.537  44.220   2.306
49006W        W21266  11.618  44.847   2.908
49007W        W21267  32.134  31.514   1.766
49008W        W21268   6.193  25.642   4.603
49009W        W21269  37.925  19.186  11.164
49010W        W21270   8.734  18.243  13.931
49011W        W21271  41.319  10.478  14.415
49012W        W21272  10.684  34.936  10.718
49013W        W21273  10.065  16.209   1.763
49014W        W21274  10.835  34.960  14.450
49015W        W21275  39.052  12.821   1.014
49016W        W21276  21.735   7.568  13.752
49017W        W21277  30.529  37.941   0.694
49018W        W21278  41.568  22.970   1.774
49019W        W21279  18.177  43.529  10.418
49020W        W21280  13.610  32.915  14.962
49021W        W21281  22.165  17.755  11.277
49022W        W21282   3.756  26.999  13.885
49023W        W21283   6.858   0.829  13.087
49024W        W21284  42.515  43.199   3.208
49025W        W21285  40.749   3.938   2.160
49026W        W21286  29.622  29.398   0.657
49027W        W21287   6.316  40.195  13.574
49028W        W21288  21.065  42.391  11.021
49029W        W21289  14.684  25.651   1.363
49030W        W21290  16.790   0.254   0.939
49031W        W21291  30.479   0.848   0.014
49032W        W21292  11.713   9.956   1.692
49033W        W21293  14.616   3.099  11.647
49034W        W21294  38.911  35.533  11.608
49035W        W21295  29.892  25.012  12.539
49036W        W21296   4.853   4.812  13.469
49037W        W21297  10.368  18.023  12.574
49038W        W21298   7.446  39.055   3.165
49039W        W21299  38.847   9.604  14.870
49040W        W21300  30.390  21.208  12.010
49041W        W21301  30.392  36.785   0.828
49042W        W21302   8.695  30.645  11.505
49043W        W21303  39.776  16.474   4.312
49044W        W21304  10.959  35.716  11.135
49045W        W21305  29.750   2.367   1.261
49046W        W21306  23.663  29.005  13.881
49047W        W21307  43.324  17.924  14.426
49048W        W21308  10.246  16.724   4.694
49049W        W21309  42.508  41.270  13.887
49050W        W21310   9.642  11.201   1.408
49051W        W21311  28.752  23.644  10.651
49052W        W21312   7.534  15.013  12.989
49053W        W21313  13.720  14.140  11.888
49054W        W21314   4.116   9.555  11.585
49055W        W21315  34.934  13.128   2.269
49056W        W21316  44.806  44.969   2.799
49057W        W21317  39.563  24.112  14.765
49058W        W21318  41.797  38.034  10.950
49059W        W21319  14.323  29.479   1.290
49060W        W21320   8.478   7.390   2.185
49061W        W21321  37.011  11.877   1.387
49062W        W21322   1.439  40.126  12.103
49063W        W21323   5.359  36.554  11.630
49064W        W21324  12.218  33.651   0.567
49065W        W21325   1.713  17.714   1.391
49066W        W21326   7.759  10.194   1.667
49067W        W21327  26.077  25.472  14.996
49068W        W21328  20.691  22.814  10.725
49069W        W21329  12.639  33.495  11.734
49070W        W21330  17.542  16.809   3.079
49071W        W21331  12.194   8.170   0.012
49072W        W21332   1.760  14.941  11.177
49073W        W21333  40.529  14.602  14.961
49074W        W21334   9.368  10.782   1.546
49075W        W21335  35.040   5.953   3.709
49076W        W21336  10.914  14.121  11.394
49077W        W21337  36.329  28.176   4.221
49078W        W21338  12.758  28.904   3.111
49079W        W21339   5.576  29.741  12.939
49080W        W21340  20.594  37.163  13.529
49081W        W21341  34.543   1.584  11.321
49082W        W21342   6.243  33.635  11.155
49083W        W21343  28.696  26.923   1.973
49084W        W21344  16.110  24.242   1.789
49085W        W21345  38.873  27.700  13.941
49086W        W21346   3.282  12.702  13.876
49087W        W21347  25.910  40.845   3.520
49088W        W21348  39.393  22.797  12.510
49089W        W21349  27.522  39.589  13.417
49090W        W21350  19.617  42.529   3.902
49091W        W21351  40.464  16.766  14.886
49092W        W21352  19.959  10.345  10.715
49093W        W21353  15.579  24.266  12.538
49094W        W21354  11.099   9.233  11.521
49095W        W21355  33.782  37.347   4.593
49096W        W21356  36.324  42.804   1.280
49097W        W21357  13.488   3.491   3.283
49098W        W21358   0.321  20.714   4.478
49099W        W21359  22.079  44.735   4.379
49100W        W21360  14.709  24.595   4.622
49101W        W21361  27.734  36.621   4.527
49102W        W21362  18.465  18.835  13.867
49103W        W21363  19.187  29.288  14.530
49104W        W21364  29.366   7.177  14.409
49105W        W21365  12.525   2.801  12.954
49106W        W21366  43.517  23.895  13.930
49107W        W21367  15.720  33.687   2.864
49108W        W21368  19.774  16.435  13.059
49109W        W21369  35.579  16.962   3.582
49110W        W21370  22.659  16.621   2.906
49111W        W21371   6.222  41.234  14.328
49112W        W21372  24.288  39.229   3.819
49113W        W21373  44.455   3.690  10.700
49114W        W21374   3.478  18.156  11.169
49115W        W21375   0.214   2.165  11.639
49116W        W21376   1.435  28.526  14.470
49117W        W21377  24.536   1.292  13.891
49118W        W21378  36.598  29.585  12.467
49119W        W21379  44.848   6.305   1.588
49120W        W21380  29.691  24.162   3.493
49121W        W21381  43.288   1.467   3.281
49122W        W21382  10.394  33.486   2.642
49123W        W21383  19.301  43.658  11.541
49124W        W21384  16.276   7.816   1.290
49125W        W21385  40.618  19.584  13.438
49126W        W21386  38.961  28.092  11.969
49127W        W21387  35.465  42.576  13.476
49128W        W21388  17.716   5.322  13.680
49129W        W21389  10.801   0.414  14.490
49130W        W21390   0.896  33.940  11.172
49131W        W21391  18.146  14.823   3.761
49132W        W21392   8.597   0.331  14.864
49133W        W21393  35.461   0.475  11.346
49134W        W21394  18.814  11.677  13.516
49135W        W21395  31.141   1.046  12.822
49136W        W21396  10.952  18.886   0.862
49137W        W21397  32.292  16.503   3.778
49138W        W21398  39.533  10.232  14.905
49139W        W21399  38.756   3.348   3.797
49140W        W21400  40.512  41.012   2.881
49141W        W21401  32.943  28.786  11.532
49142W        W21402  26.172  19.636  13.898
49143W        W21403  44.873  33.577   1.264
49144W        W21404  42.417  26.739  12.099
49145W        W21405  28.951  29.740   3.852
49146W        W21406  34.580  24.579   2.887
49147W        W21407  19.007  14.751   0.303
49148W        W21408  42.083  29.486  13.259
49149W        W21409  35.574  18.929  10.136
49150W        W21410  42.187   5.439  12.870
49151W        W21411  12.781  15.218   3.583
49152W        W21412  29.056  21.901  14.910
49153W        W21413  33.843  25.997  13.019
49154W        W21414  15.393   1.292  12.466
49155W        W21415  24.022   5.922   3.160
49156W        W21416  10.579  18.665  12.173
49157W        W21417  36.460  20.856  12.852
49158W        W21418  42.290  10.088   2.273
49159W        W21419  27.512  42.547  14.901
49160W        W21420  20.553  11.182   2.399
49161W        W21421   4.405  25.949   4.738
49162W        W21422  33.968  35.466   4.898
49163W        W21423  25.587  22.733   1.738
49164W        W21424   5.466  39.774  11.606
49165W        W21425  25.999  11.637  12.417
49166W        W21426   3.803   1.416  12.522
49167W        W21427  13.391  40.733  11.156
49168W        W21428   3.546  20.710  11.069
49169W        W21429  43.715  36.593  13.073
49170W        W21430   9.712   5.645  11.221
49171W        W21431   0.667   6.988  10.044
49172W        W21432  11.587  39.377  12.941
49173W        W21433  23.422  30.057  12.394
49174W        W21434   4.800  21.968   0.504
49175W        W21435   4.387  43.747   4.297
49176W        W21436  41.338  37.272  14.741
49177W        W21437   0.718  24.389  10.789
49178W        W21438  15.460  17.675   0.272
49179W        W21439   4.814  23.443   2.535
49180W        W21440   4.408   7.429  12.963
49181W        W21441  21.031   4.764  14.954
49182W        W21442   3.207  16.867   4.170
49183W        W21443  13.612  43.488  14.727
49184W        W21444  15.334   2.771   4.856
49185W        W21445  10.151  41.190  13.003
49186W        W21446  32.666  31.666  14.594
49187W        W21447  14.499  16.898  12.465
49188W        W21448  41.804  41.277  12.495
49189W        W21449  18.516  31.754   5.114
49190W        W21450  32.636  13.650   4.449
49191W        W21451  18.249  23.181   3.638
49192W        W21452  11.766  37.449  13.958
49193W        W21453   6.308  40.335  13.065
49194W        W21454  23.265  38.375  14.311
49195W        W21455   8.147  33.119  11.570
49196W        W21456  24.918  38.578   2.001
49197W        W21457  39.314  41.483   3.381
49198W        W21458  16.732  14.592   3.642
49199W        W21459   4.051   5.721  14.365
49200W        W21460   5.908  29.147   4.170
49201W        W21461  24.103  24.190   2.120
49202W        W21462  24.232  44.703   5.213
49203W        W21463   0.046  24.657   0.617
49204W        W21464  25.586  29.346  12.971
49205W        W21465   6.332  22.947   4.421
49206W        W21466  17.084  31.739  11.442
49207W        W21467  15.703  36.493   0.459
49208W        W21468  15.964  41.096  13.648
49209W        W21469   9.536  14.344   4.969
49210W        W21470  33.042  16.397  12.952
49211W        W21471  12.333  22.573   1.294
49212W        W21472   7.026   4.830   4.173
49213W        W21473  44.420  15.562   1.664
49214W        W21474  21.786  37.053  11.877
49215W        W21475   3.941  44.376   2.701
49216W        W21476  17.267  22.052  10.243
49217W        W21477  26.134  21.029  12.300
49218W        W21478  12.085  10.191   4.212
49219W        W21479  39.960  30.852  11.169
49220W        W21480  26.163  30.523   4.725
49221W        W21481  29.690  33.423   0.388
49222W        W21482   7.687  24.899   1.235
49223W        W21483  18.449   2.754  10.859
49224W        W21484   7.497  17.209   0.290
49225W        W21485   6.818  14.224   1.000
49226W        W21486  18.805  39.331  11.118
49227W        W21487  34.150   9.406  11.111
49228W        W21488   1.358   9.115   4.112
49229W        W21489   9.895  34.922   3.112
49230W        W21490  43.571   9.205   1.996
49231W        W21491  32.125   3.838  10.370
49232W        W21492  43.239  16.857  12.920
49233W        W21493   4.316  10.863   3.131
49234W        W21494  35.732  32.035   3.756
49235W        W21495  18.924  10.204  13.873
49236W        W21496   3.727  33.916  12.445
49237W        W21497   4.755  41.812   2.381
49238W        W21498  14.953  10.322   3.759
49239W        W21499  36.962  38.841   3.816
49240W        W21500  32.347  11.288  10.739
49241W        W21501   7.716  12.893   1.864
49242W        W21502  34.494  27.144   0.637
49243W        W21503  20.928  22.187  11.310
49244W        W21504   2.979   1.393  12.953
49245W        W21505  33.928  41.748   0.955
49246W        W21506  17.782  33.620   2.155
49247W        W21507  44.323  29.697   1.051
49248W        W21508  18.120  32.791   0.584
49249W        W21509  32.023  42.326  13.466
49250W        W21510  13.074   9.296   3.750
49251W        W21511   8.962  28.699  11.673
49252W        W21512  25.710   5.370  14.727
49253W        W21513  20.180  15.864   3.181
49254W        W21514  38.779  23.036   1.411
49255W        W21515  42.571   3.277   3.809
49256W        W21516   3.846  16.362   4.703
49257W        W21517  15.794  23.438  13.165
49258W        W21518  29.533  35.392   3.639
49259W        W21519   9.972  17.821  14.461
49260W        W21520  13.498  16.263  10.131
49261W        W21521  28.767  21.984   2.909
49262W        W21522   9.176  39.891   2.161
49263W        W21523  33.554  38.286   3.167
49264W        W21524  15.513  33.590  10.559
49265W        W21525  18.621  21.769  12.523
49266W        W21526   6.441  23.662   1.897
49267W        W21527  24.539   2.658   0.362
49268W        W21528   9.681  14.213  13.451
49269W        W21529   1.686  32.104  12.326
49270W        W21530  42.514  11.141  14.467
49271W        W21531   6.768  23.751   4.660
49272W        W21532  13.294  15.199   2.360
49273W        W21533  17.223  23.708  10.566
49274W        W21534  26.884  35.920  10.506
49275W        W21535   7.003  29.464  13.042
49276W        W21536  27.913  17.560   1.338
49277W        W21537  30.480  22.146  11.520
49278W        W21538   9.689  19.795  12.951
49279W        W21539  35.871  10.185   4.648
49280W        W21540  36.152   0.437  11.109
49281W        W21541  25.127  23.594   4.131
49282W        W21542  29.670  33.599   3.665
49283W        W21543  27.102   0.581   1.769
49284W        W21544  15.291  13.056  13.287
49285W        W21545  28.214  19.023   1.273
49286W        W21546  41.132  32.245   2.702
49287W        W21547   7.850  34.356  12.107
49288W        W21548  37.596   5.904   2.845
49289W        W21549   2.737  13.084  11.624
49290W        W21550  20.715  28.418  11.147
49291W        W21551  20.321  12.139  11.985
49292W        W21552  29.242  35.759  11.180
49293W        W21553   8.751  27.295   1.874
49294W        W21554   1.661  29.864   0.447
49295W        W21555  41.438  36.811   1.938
49296W        W21556  40.063  18.726   4.251
49297W        W21557  19.734  38.168  11.233
49298W        W21558  43.686  42.447   3.799
49299W        W21559  32.625  28.200   2.225
49300W        W21560   0.728  41.598  14.851
49301W        W21561  12.075  12.670  13.787
49302W        W21562  13.371  20.224  12.727
49303W        W21563  29.556  40.734   1.754
49304W        W21564  33.980  36.453   2.486
49305W        W21565  16.983  20.676   1.125
49306W        W21566  27.523  27.169  11.377
49307W        W21567  20.226  37.263   1.944
49308W        W21568   4.742  10.320   0.413
49309W        W21569  30.523   4.093  11.517
49310W        W21570  37.747  14.222  11.883
49311W        W21571  25.330  39.637  10.263
49312W        W21572  40.060  11.909   3.604
49313W        W21573  34.058  11.744  11.588
49314W        W21574  43.502  10.788   2.260
49315W        W21575  24.578  11.975  11.754
49316W        W21576  37.916  25.987  12.781
49317W        W21577  34.460  33.877   1.858
49318W        W21578  31.091  20.196   2.168
49319W        W21579  26.730  13.105  11.071
49320W        W21580   5.371  37.523   2.107
49321W        W21581  35.121  34.487   0.330
49322W        W21582  30.139   7.657   3.570
49323W        W21583  20.470  27.236   2.281
49324W        W21584  36.692  14.040  10.449
49325W        W21585  19.599  11.338  10.250
49326W        W21586  32.811  26.700  14.432
49327W        W21587  40.865  43.956   2.971
49328W        W21588  31.191  31.967   4.615
49329W        W21589   6.243  13.349   0.672
49330W        W21590  42.902  20.052  11.570
49331W        W21591  14.677  16.547  10.906
49332W        W21592  38.847   6.132  12.926
49333W        W21593   7.769  12.944   0.950
49334W        W21594   4.335  14.165   3.380
49335W        W21595   7.548   4.239  12.876
49336W        W21596   3.516  12.828   2.806
49337W        W21597  43.537   9.068   4.992
49338W        W21598  19.049  19.333  14.389
49339W        W21599   4.883  21.535   3.666
49340W        W21600  37.818  22.695  14.872
49341W        W21601  13.828  23.721  12.131
49342W        W21602  19.267  10.596  12.939
49343W        W21603  39.615  18.993   2.356
49344W        W21604  16.319  33.214  12.768
49345W        W21605  42.715   4.383  13.626
49346W        W21606  34.104  42.773  12.500
49347W        W21607  25.795  23.303   1.890
49348W        W21608   8.699  39.332  14.037
49349W        W21609  41.327  16.976  11.990
49350W        W21610   6.138  20.069   0.019
49351W        W21611  16.858  26.937  10.573
49352W        W21612  36.231   2.617   1.847
49353W        W21613   8.186  26.762  12.861
49354W        W21614   4.897  35.405  13.805
49355W        W21615  28.421  37.061   3.353
49356W        W21616  30.431  22.746   4.231
49357W        W21617  23.290   8.138   0.237
49358W        W21618  19.513  25.106   1.920
49359W        W21619  12.834   0.503   4.346
49360W        W21620  14.238  39.081  10.985
49361W        W21621  21.177  14.895   3.670
49362W        W21622  29.224  31.510  12.054
49363W        W21623  19.308  18.582  12.130
49364W        W21624  38.534  27.751  12.551
49365W        W21625  23.577  15.735   1.950
49366W        W21626  23.033   4.154   2.759
49367W        W21627  24.065  23.530   0.997
49368W        W21628   5.195  27.075  14.756
49369W        W21629   2.247  22.509  13.310
49370W        W21630  36.664  20.653   4.652
49371W        W21631  44.301  12.590   1.910
49372W        W21632  24.950  44.256   0.635
49373W        W21633  20.753  31.049  12.954
49374W        W21634   2.828  42.934  14.020
49375W        W21635  20.445  33.981  13.462
49376W        W21636   2.573   8.964   2.771
49377W        W21637  11.731  41.871   4.822
49378W        W21638  10.766  28.863  11.773
49379W        W21639  30.751   3.848   3.323
49380W        W21640  35.157  36.553   1.293
49381W        W21641  31.600  36.150  13.182
49382W        W21642  38.458  39.286  13.569
49383W        W21643  39.071  18.260   2.150
49384W        W21644  41.711  25.583   3.096
49385W        W21645   7.645  21.710   0.936
49386W        W21646  43.912  10.474  10.457
49387W        W21647  43.062   9.532   4.583
49388W        W21648  12.604  22.705  12.924
49389W        W21649  16.078  18.770   1.453
49390W        W21650  22.031   3.475   3.697
49391W        W21651   1.954  42.433   4.747
49392W        W21652  23.064  40.546   3.288
49393W        W21653   6.820  31.572   4.351
49394W        W21654  36.362  23.738   1.439
49395W        W21655  28.877  29.135  12.915
49396W        W21656  30.049  29.634   0.455
49397W        W21657  39.818  43.474  13.362
49398W        W21658  30.705  40.518  12.992
49399W        W21659  30.898  39.500  11.987
49400W        W21660  30.101  21.440   2.755
49401W        W21661   9.612  44.348   0.997
49402W        W21662  26.146  14.717  14.045
49403W        W21663   6.950  32.513   4.342
49404W        W21664  24.769  44.927  13.244
49405W        W21665  44.195  35.933   4.123
49406W        W21666   2.804  29.081  14.949
49407W        W21667   1.893  34.317  12.438
49408W        W21668   9.110  23.269   3.200
49409W        W21669  15.940  34.934  10.609
49410W        W21670   6.045  28.077  13.367
49411W        W21671  24.006  17.663   1.168
49412W        W21672  44.372  30.128   2.787
49413W        W21673  41.803   7.250   0.219
49414W        W21674  27.119  21.514   3.608
49415W        W21675  13.122  34.270  10.327
49416W        W21676  26.685  27.219   2.818
49417W        W21677  39.496  13.321   4.543
49418W        W21678   6.230  12.860   3.167
49419W        W21679  43.565  16.435   1.630
49420W        W21680  15.352   2.366  13.785
49421W        W21681  43.336   6.498   3.584
49422W        W21682  35.420  34.105   2.178
49423W        W21683  25.921  28.203  13.996
49424W        W21684   6.056   7.298  11.686
49425W        W21685  24.621  43.941   0.282
49426W        W21686  32.016  12.840   1.635
49427W        W21687  41.121  26.881  14.035
49428W        W21688  32.288  13.467  11.577
49429W        W21689  43.246  29.629   3.298
49430W        W21690  40.822  15.631   4.561
49431W        W21691  23.473  20.513   5.313
49432W        W21692  10.506  12.249  13.976
49433W        W21693  37.977  14.271   4.277
49434W        W21694  29.176   4.910   1.926
49435W        W21695  15.904  21.403   5.037
49436W        W21696  19.321   3.662  10.341
49437W        W21697  29.183  23.915  11.962
49438W        W21698  31.844  13.313  13.284
49439W        W21699  18.014  42.046  14.393
49440W        W21700  16.283   2.264   1.140
49441W        W21701  28.815  26.618   3.729
49442W        W21702  18.239  12.201   1.929
49443W        W21703  11.530  14.060   3.696
49444W        W21704  35.475  31.077   2.705
49445W        W21705  27.326  23.812   4.833
49446W        W21706  35.643  44.517  13.550
49447W        W21707  33.554  25.101  14.738
49448W        W21708  42.244  39.278  12.066
49449W        W21709  19.192  23.726   1.222
49450W        W21710   1.981  40.646   3.626
49451W        W21711   7.342   9.296   3.258
49452W        W21712  16.624   9.124   2.837
49453W        W21713  33.924  20.541   4.648
49454W        W21714   3.607  28.166   3.289
49455W        W21715   4.658  26.444  13.956
49456W        W21716   5.448  30.043  14.450
49457W        W21717  12.100  33.070  13.637
49458W        W21718  41.398  44.279   0.175
49459W        W21719   1.436  29.168  12.071
49460W        W21720  30.344   5.770   4.663
49461W        W21721  15.480  20.033   0.088
49462W        W21722  21.945  29.123   2.871
49463W        W21723  35.886  42.579  10.756
49464W        W21724  17.873  33.890  12.858
49465W        W21725   4.883  30.849   3.104
49466W        W21726  37.513  35.673   4.119
49467W        W21727  15.096  29.555   2.293
49468W        W21728  41.339  34.773   3.627
49469W        W21729  18.514  43.906   3.715
49470W        W21730  24.243  27.966  11.919
49471W        W21731  21.740  23.133  11.166
49472W        W21732   5.047  32.613  14.154
49473W        W21733  40.448   0.599   0.545
49474W        W21734  32.643  18.699  14.621
49475W        W21735  18.030  18.951  13.471
49476W        W21736  20.348  15.069   4.022
49477W        W21737  16.130   7.874  13.402
49478W        W21738  24.697  19.737  11.498
49479W        W21739   5.210  44.797   0.671
49480W        W21740  33.564  13.137   2.690
49481W        W21741  38.355  17.644  11.557
49482W        W21742   2.709  39.914  14.305
49483W        W21743  16.211  33.051  10.656
49484W        W21744   0.449   1.434   4.040
49485W        W21745  13.797  43.742   0.546
49486W        W21746  42.069  40.332   0.059
49487W        W21747  15.837  13.610  12.025
49488W        W21748  13.058  16.399   1.682
49489W        W21749   9.372   7.905  11.108
49490W        W21750   5.260  16.482  12.500
49491W        W21751  36.047  11.096  13.994
49492W        W21752  33.101   6.186   1.916
49493W        W21753  38.992  21.004  13.474
49494W        W21754   2.429   1.018   3.094
49495W        W21755   0.729   3.121   3.974
49496W        W21756  41.834  33.159  10.625
49497W        W21757  17.717  42.528  12.931
49498W        W21758  27.136  24.108   0.408
49499W        W21759  43.725  26.499  13.471
49500W        W21760  16.559   2.767   0.294
49501W        W21761   4.116  24.052  14.277
49502W        W21762  40.836  15.731   5.066
49503W        W21763   2.845  36.543   0.062
49504W        W21764  40.508  20.524   0.313
49505W        W21765  21.643  27.549   5.297
49506W        W21766  23.102   2.973   2.479
49507W        W21767  20.147   5.820   3.107
49508W        W21768  31.800   9.746   0.258
49509W        W21769  18.825  18.690   2.797
49510W        W21770  16.201   2.849   4.541
49511W        W21771  34.812  40.345  11.918
49512W        W21772  27.572  25.449  10.720
49513W        W21773  25.601  10.594   1.692
49514W        W21774  12.240  18.910   1.894
49515W        W21775  31.536   1.875  12.159
49516W        W21776  20.716  32.336  11.965
49517W        W21777  40.967  17.595  14.616
49518W        W21778  24.088   4.263  14.309
49519W        W21779  44.081  21.937  12.720
49520W        W21780  39.263   4.382   4.082
49521W        W21781   8.808  21.139  10.757
49522W        W21782  39.048  39.426   1.741
49523W        W21783  28.175   7.955  14.207
49524W        W21784  27.999  17.918   3.660
49525W        W21785   9.664  44.011   0.228
49526W        W21786  38.852  36.512   1.875
49527W        W21787  10.036  19.965  11.621
49528W        W21788  23.530  33.507  12.886
49529W        W21789   6.499  42.790   4.573
49530W        W21790  43.965  23.499   2.433
49531W        W21791   4.285  27.137   0.976
49532W        W21792   0.921  20.522   3.196
49533W        W21793  13.296   4.820  14.425
49534W        W21794  19.996   0.527   0.156
49535W        W21795   2.485  17.735   0.834
49536W        W21796   2.474   6.306  14.438
49537W        W21797   3.663  33.216  11.206
49538W        W21798  39.970  11.112  11.612
49539W        W21799  36.012  33.081  14.773
49540W        W21800  25.949  29.937  12.005
49541W        W21801  38.488  19.640  14.415
49542W        W21802  32.317  39.542  11.534
49543W        W21803  10.975  15.743  14.797
49544W        W21804  12.409   6.705  13.695
49545W        W21805   3.907   9.597   3.157
49546W        W21806  22.672   2.373   4.133
49547W        W21807  11.672  41.409  14.323
49548W        W21808   4.739  29.462  13.317
49549W        W21809  29.408   2.922  13.721
49550W        W21810  40.092  38.593  10.614
49551W        W21811   1.272  35.800  12.916
49552W        W21812  19.039  11.261  14.746
49553W        W21813  30.041  42.130  14.730
49554W        W21814  21.153  13.804   4.642
49555W        W21815  18.189  28.729   4.658
49556W        W21816  29.621  13.595   2.687
49557W        W21817   3.969  42.071   4.693
49558W        W21818   8.224  39.444  11.169
49559W        W21819  43.460   2.249   2.656
49560W        W21820  42.041  28.517  13.177
49561W        W21821  12.230   2.894  12.466
49562W        W21822  26.211   6.014  14.878
49563W        W21823  37.371  11.750  14.430
49564W        W21824  23.717  44.739  14.969
49565W        W21825  17.227  41.015  14.064
49566W        W21826  42.546  12.623   1.254
49567W        W21827   8.296  18.487  14.820
49568W        W21828  17.626  13.709  10.695
49569W        W21829  25.196  43.946  13.036
49570W        W21830  32.287  10.148  14.685
49571W        W21831  19.752  26.421   2.361
49572W        W21832  37.831  20.723   1.681
49573W        W21833   1.417   1.259  13.247
49574W        W21834   7.819  30.974  14.092
49575W        W21835  18.842  25.008  13.902
49576W        W21836  42.267   4.834  12.111
49577W        W21837   5.210  39.296  13.931
49578W        W21838   0.798  15.057  10.532
49579W        W21839   3.504  28.992   0.264
49580W        W21840  28.520  11.410   4.669
49581W        W21841   7.948   0.882  14.306
49582W        W21842  25.611  26.501   2.360
49583W        W21843  29.125   9.620  10.456
49584W        W21844   9.332  17.463   3.317
49585W        W21845   0.422  37.507   2.328
49586W        W21846  43.522  40.508   0.183
49587W        W21847  37.915  36.111   4.725
49588W        W21848  19.541  22.805  13.725
49589W        W21849  16.437  25.716  11.159
49590W        W21850  16.675  24.866   3.787
49591W        W21851  23.121  30.178  11.999
49592W        W21852   1.873  20.623  13.434
49593W        W21853   3.329  17.965   3.240
49594W        W21854  31.910  40.546  13.802
49595W        W21855  36.276  18.644   0.381
49596W        W21856  18.573  25.765  11.669
49597W        W21857   5.692   9.690  14.144
49598W        W21858  43.942  27.909  14.797
49599W        W21859  41.097  11.251   1.433
49600W        W21860   3.860   1.177  11.127
49601W        W21861  39.152   3.396   2.465
49602W        W21862  15.077  10.428   0.434
49603W        W21863  17.275  44.826   2.587
49604W        W21864  35.319  30.936  14.280
49605W        W21865  15.504  39.228   4.158
49606W        W21866   5.011   5.175  14.569
49607W        W21867  40.931  25.867   0.947
49608W        W21868  10.337   0.327   4.330
49609W        W21869  30.334   8.644   0.712
49610W        W21870  39.474  44.516  14.415
49611W        W21871  41.329  30.237   1.965
49612W        W21872   8.858  10.760  11.415
49613W        W21873  25.318  26.671   3.908
49614W        W21874  35.299  12.275   1.361
49615W        W21875  20.315   7.356  10.692
49616W        W21876   5.983   4.233  12.874
49617W        W21877   8.818   0.802  14.802
49618W        W21878   9.292  27.400  13.893
49619W        W21879  37.777  33.484  12.815
49620W        W21880  12.233  21.731   0.413
49621W        W21881  26.200   6.289   0.882
49622W        W21882  11.395  15.152   1.780
49623W        W21883  14.600   0.947  13.074
49624W        W21884  13.281  16.740  11.594
49625W        W21885   0.208  23.583   3.176
49626W        W21886   6.569   0.467   1.679
49627W        W21887  35.935   0.387  11.574
49628W        W21888  27.297  27.015  14.065
49629W        W21889  20.206  34.147  12.025
49630W        W21890  29.103  24.911   3.174
49631W        W21891  29.714   5.207  11.988
49632W        W21892   6.289  19.017   0.374
49633W        W21893   7.720  18.508  14.705
49634W        W21894  41.242  21.017  14.051
49635W        W21895  29.533  13.057  14.838
49636W        W21896  43.269  34.623   3.859
49637W        W21897   8.277   1.622  14.777
49638W        W21898   0.182  22.725   1.007
49639W        W21899  21.247   6.392  11.563
49640W        W21900   9.647  10.624  13.994
49641W        W21901  18.235  35.519   2.810
49642W        W21902  11.257  35.874   2.746
49643W        W21903  18.988  24.996  14.391
49644W        W21904  15.313  25.525   0.217
49645W        W21905   1.193   1.110  10.584
49646W        W21906   5.256  12.304   3.280
49647W        W21907  18.562  10.842   1.000
49648W        W21908  26.406  24.206  11.538
49649W        W21909  25.480  36.131   1.943
49650W        W21910   3.255   8.393  10.689
49651W        W21911  38.343  25.566   0.373
49652W        W21912  16.221  40.045   0.578
49653W        W21913  29.609  21.706  12.400
49654W        W21914  17.305  35.577  14.401
49655W        W21915   3.003  27.306  12.484
49656W        W21916  42.975  25.068  10.774
49657W        W21917  11.777   7.955  14.033
49658W        W21918  29.078  39.913   4.920
49659W        W21919  16.136  41.119   3.235
49660W        W21920  40.451   1.782  10.862
49661W        W21921  40.853   1.333  11.111
49662W        W21922  31.211  31.128   0.212
49663W        W21923   7.796  28.457   3.702
49664W        W21924  11.232   5.972  12.609
49665W        W21925  38.322  28.210  12.689
49666W        W21926  25.086  35.163   1.945
49667W        W21927  16.728  34.766  12.026
49668W        W21928  35.419   2.817   1.379
49669W        W21929  26.281  18.612   2.143
49670W        W21930   2.215  40.110   4.144
49671W        W21931  16.725   5.619   4.946
49672W        W21932  21.789  37.007   4.532
49673W        W21933  24.282   9.319   1.776
49674W        W21934   9.790   9.144   2.719
49675W        W21935   6.639  13.039   4.732
49676W        W21936  12.154  30.012  13.025
49677W        W21937  16.750  37.798   1.437
49678W        W21938  35.631  35.647   1.206
49679W        W21939  34.024  16.927  14.750
49680W        W21940  38.374  43.289   1.773
49681W        W21941  35.543   2.943  10.751
49682W        W21942  16.317  19.122   3.786
49683W        W21943   7.391  44.214   1.301
49684W        W21944  42.851  30.195  14.919
49685W        W21945  11.129  16.237   0.529
49686W        W21946  30.094  43.664  12.508
49687W        W21947  32.875  30.477   0.882
49688W        W21948  18.095  15.159  14.304
49689W        W21949  22.988  29.686  13.830
49690W        W21950  18.543  11.134   2.364
49691W        W21951   3.223  20.148  12.886
49692W        W21952  35.215  44.807  12.393
49693W        W21953   0.884  18.989  14.189
49694W        W21954  29.667  37.501  13.116
49695W        W21955  21.244  27.897   1.351
49696W        W21956  28.239  30.853   3.221
49697W        W21957  21.818   4.010  14.843
49698W        W21958  17.950  41.527  10.546
49699W        W21959  36.491  42.023  12.352
49700W        W21960  11.069   5.241   1.531
49701W        W21961  35.917  40.010  12.836
49702W        W21962  31.401   5.941   3.653
49703W        W21963  19.080  42.798   2.426
49704W        W21964   7.745  40.971  11.031
49705W        W21965   0.905  35.643  10.626
49706W        W21966  29.474  41.830   1.445
49707W        W21967  30.769  17.181   2.181
49708W        W21968   0.374  21.290  10.986
49709W        W21969  26.942  43.421  12.321
49710W        W21970  23.447  28.128   5.493
49711W        W21971  25.827  32.892   2.415
49712W        W21972   4.335  12.832   3.658
49713W        W21973  25.298  17.601   0.223
49714W        W21974  18.786  21.069  14.363
49715W        W21975  18.033  17.390  11.097
49716W        W21976   8.973   0.424   2.933
49717W        W21977  20.868  11.767   3.140
49718W        W21978   6.196   9.638   2.779
49719W        W21979  39.279   6.698  12.244
49720W        W21980   1.733  24.694  14.711
49721W        W21981  10.397   2.368   0.769
49722W        W21982   8.327  11.224  13.366
49723W        W21983  27.755  21.724   2.264
49724W        W21984   6.077  28.221  10.216
49725W        W21985  39.056  22.179   0.106
49726W        W21986   1.742  31.211  12.947
49727W        W21987  25.475  16.815   3.155
49728W        W21988  31.269  44.759   4.841
49729W        W21989  39.024   6.943   1.188
49730W        W21990   2.207  33.488   4.274
49731W        W21991  33.613  15.559  14.481
49732W        W21992  37.292  11.248  11.434
49733W        W21993  15.046  28.183  11.093
49734W        W21994  17.731   7.312  10.695
49735W        W21995  18.969  33.103   3.751
49736W        W21996  20.734   2.075  10.660
49737W        W21997  12.393  41.018  11.094
49738W        W21998  30.653   4.335   1.800
49739W        W21999  35.856  19.851  14.578
49740W        W22000  39.393  36.163   0.194
49741W        W22001  43.580   1.903  11.136
49742W        W22002  21.845  28.279  13.466
49743W        W22003  20.283  33.881  11.585
49744W        W22004  29.942  21.254   3.500
49745W        W22005  42.253  40.509   1.925
49746W        W22006  32.578  33.185  11.258
49747W        W22007  36.613  35.135  13.047
49748W        W22008   8.772  18.767  13.922
49749W        W22009  40.254  17.063  10.325
49750W        W22010  29.576  21.925  14.271
49751W        W22011   3.179  19.602   4.173
49752W        W22012  30.506   0.614  10.540
49753W        W22013  36.906  14.265   4.194
49754W        W22014  19.609  22.114  14.895
49755W        W22015  19.722  15.792   3.947
49756W        W22016  22.742  26.838  12.232
49757W        W22017  17.338  32.890  14.311
49758W        W22018   0.839  16.272  13.445
49759W        W22019  27.420   8.314  14.307
49760W        W22020  12.322   2.196  11.683
49761W        W22021  33.834  17.097  11.426
49762W        W22022  26.154  41.642   1.542
49763W        W22023  13.164  35.309  11.529
49764W        W22024   5.993  23.716   2.847
49765W        W22025  11.618   4.187   4.588
49766W        W22026  20.783  30.973  10.686
49767W        W22027  32.887  35.924   0.401
49768W        W22028  36.510  35.367   3.596
49769W        W22029  41.349  27.390  11.584
49770W        W22030  19.265  24.444   2.603
49771W        W22031  18.626   4.520  11.183
49772W        W22032  19.029   2.337  14.816
49773W        W22033  15.604  29.596   2.090
49774W        W22034  38.580  25.477   3.328
49775W        W22035  44.411  20.226  11.640
49776W        W22036   2.516  24.642   2.684
49777W        W22037  44.749  35.548  12.469
49778W        W22038  41.952   8.907  14.427
49779W        W22039  25.474  24.293  13.917
49780W        W22040   4.920  38.334   2.631
49781W        W22041  40.569   4.481   4.223
49782W        W22042  43.420  21.192   1.286
49783W        W22043  28.434  30.013  11.109
49784W        W22044   1.848  33.456   1.408
49785W        W22045  16.481  31.657  10.750
49786W        W22046  27.209   7.880   1.218
49787W        W22047   6.887  37.494   3.401
49788W        W22048  31.001  25.663   0.767
49789W        W22049  17.565  11.483  11.032
49790W        W22050  21.744  39.669   2.118
49791W        W22051   4.319  17.237   0.154
49792W        W22052   7.392  40.442   2.768
49793W        W22053  11.141   3.742  14.489
49794W        W22054  33.333  44.836   3.792
49795W        W22055  21.614  12.255  10.701
49796W        W22056   3.664  24.420  13.379
49797W        W22057   8.915  35.611  14.075
49798W        W22058   9.581   7.226   2.707
49799W        W22059  32.345  39.591   4.355
49800W        W22060  23.142   8.311   2.073
49801W        W22061  30.876  16.260  11.534
49802W        W22062  21.150  38.222   2.931
49803W        W22063  14.969   7.756  14.940
49804W        W22064   5.032   0.476   3.090
49805W        W22065  34.466  16.690  14.921
49806W        W22066  10.895  28.033  10.250
49807W        W22067  14.302  12.373  11.064
49808W        W22068  12.717   8.422  11.593
49809W        W22069   0.854  14.929   1.223
49810W        W22070  21.494   5.747   2.797
49811W        W22071  25.421  44.484   4.905
49812W        W22072  21.821  34.849  12.425
49813W        W22073  29.036  20.513  12.402
49814W        W22074  10.091   8.303  11.138
49815W        W22075  31.689  27.495   0.824
49816W        W22076  19.003  31.437   0.349
49817W        W22077  24.578  41.046  11.554
49818W        W22078  10.635  17.252  11.548
49819W        W22079  10.432  42.782   0.409
49820W        W22080  18.786  12.241   3.775
49821W        W22081  16.015  16.810  14.946
49822W        W22082   0.464  28.556   0.908
49823W        W22083  22.486  18.980  10.222
49824W        W22084  31.439  25.521  14.061
49825W        W22085   8.689  34.796  14.472
49826W        W22086  44.883  14.786   3.699
49827W        W22087  19.906  24.221  10.655
49828W        W22088  38.530  38.426  10.282
49829W        W22089  28.893  10.257   1.882
49830W        W22090  18.669  12.107   2.836
49831W        W22091  44.938   9.936  14.435
49832W        W22092  28.429   7.266   4.260
49833W        W22093  21.437   6.789   0.929
49834W        W22094  38.342  10.089   0.470
49835W        W22095   1.141  20.062  11.150
49836W        W22096  33.774   7.706  11.925
49837W        W22097  32.963  19.816  11.382
49838W        W22098  15.246  41.526   2.424
49839W        W22099  12.775  25.661  14.338
49840W        W22100   1.731  29.036   2.679
49841W        W22101  29.958  44.941   0.901
49842W        W22102  30.918  12.847  13.984
49843W        W22103  32.698   2.806   2.198
49844W        W22104   3.825  27.117   9.832
49845W        W22105  43.923  18.066   2.321
49846W        W22106  11.345  16.629   3.832
49847W        W22107  35.396  30.243   4.070
49848W        W22108   5.951  11.350   2.331
49849W        W22109  39.410   7.822   2.418
49850W        W22110  33.467  40.979   4.847
49851W        W22111  13.052   1.528  10.558
49852W        W22112  27.067  21.265  11.055
49853W        W22113  41.223   0.044  12.087
49854W        W22114  42.819  34.803   3.676
49855W        W22115   7.844  40.071   0.890
49856W        W22116  16.470   2.987  14.258
49857W        W22117  18.516  33.400   2.734
49858W        W22118   6.172   7.318   4.171
49859W        W22119  40.716  30.497  11.523
49860W        W22120   4.707  16.109  11.717
49861W        W22121   0.061   6.802   3.518
49862W        W22122  35.320  31.979   2.735
49863W        W22123  32.870  11.222   4.135
49864W        W22124   0.335   1.871   0.910
49865W        W22125   4.779   0.997   1.758
49866W        W22126  17.345  13.160  11.514
49867W        W22127  30.394  34.135   0.370
49868W        W22128   3.348  24.865  11.605
49869W        W22129  44.048   8.452   0.013
49870W        W22130   1.235  12.307  11.865
49871W        W22131  43.318  12.538  11.507
49872W        W22132  11.661   2.115  10.971
49873W        W22133  31.804  22.546  14.389
49874W        W22134  27.589  23.211  11.568
49875W        W22135  42.528  17.648  12.921
49876W        W22136   1.482  17.923   4.237
49877W        W22137   0.965  11.100   0.473
49878W        W22138  39.278  31.491   4.694
49879W        W22139  15.222  29.204  14.339
49880W        W22140   0.737  44.308   3.554
49881W        W22141  26.514  21.164   2.315
49882W        W22142  17.594   9.840   4.076
49883W        W22143  17.358   3.653   3.862
49884W        W22144  16.042  32.099  10.718
49885W        W22145  14.211  36.919  12.344
49886W        W22146   9.342  10.262  10.332
49887W        W22147  25.690   8.305   2.433
49888W        W22148   6.066  20.477  13.505
49889W        W22149  43.182  22.669  10.196
49890W        W22150  40.734  35.157  13.385
49891W        W22151  14.424   8.187   4.185
49892W        W22152  43.412  13.107   1.172
49893W        W22153  27.536   2.322  10.749
49894W        W22154   0.147  26.372   4.177
49895W        W22155  32.510  19.182   4.699
49896W        W22156  14.054  31.194   4.914
49897W        W22157   4.787   2.725   4.338
49898W        W22158  42.230  31.946   3.883
49899W        W22159  29.711   6.200   0.911
49900W        W22160  19.258  31.671  10.732
49901W        W22161  24.280  11.172  13.873
49902W        W22162  20.165  20.823   2.263
49903W        W22163  23.354  13.542  11.112
49904W        W22164  21.555  25.836   3.916
49905W        W22165  21.747  13.156  13.996
49906W        W22166  26.440  33.408  14.762
49907W        W22167  37.012  41.929  12.419
49908W        W22168  22.716  21.239   1.596
49909W        W22169   0.990  27.115   4.646
49910W        W22170  23.536   5.747  13.479
49911W        W22171   3.409  35.336  12.435
49912W        W22172  18.555  30.896   0.824
49913W        W22173  29.636  14.403  14.424
49914W        W22174   6.452   2.121  14.574
49915W        W22175  22.139  43.672   1.545
49916W        W22176   5.262  11.710   3.722
49917W        W22177  38.484  17.312  10.231
49918W        W22178  30.419  11.153   2.592
49919W        W22179  37.985  14.072   4.757
49920W        W22180   0.861  21.531  14.418
49921W        W22181  10.060  36.655   4.423
49922W        W22182   9.762   6.444   1.699
49923W        W22183  35.513  35.986   4.246
49924W        W22184   7.258   1.121  13.337
49925W        W22185  28.477  12.744   4.873
49926W        W22186  21.439  44.299  13.959
49927W        W22187  17.600  37.114  11.340
49928W        W22188   7.910   5.623  13.100
49929W        W22189  23.668  19.516  14.736
49930W        W22190  30.845  26.279  12.751
49931W        W22191   7.777  37.383  12.963
49932W        W22192   5.428  42.185  10.747
49933W        W22193  19.638   8.841  14.961
49934W        W22194   7.427   8.813   2.231
49935W        W22195  32.534  19.565  11.360
49936W        W22196  18.737  30.699   1.442
49937W        W22197  28.977  31.059  14.305
49938W        W22198  35.946  15.288   0.372
49939W        W22199  21.771  29.558   0.814
49940W        W22200  40.863  19.038   0.803
49941W        W22201   3.162  30.061   2.952
49942W        W22202  17.596  11.205  13.459
49943W        W22203   7.561   8.824   3.130
49944W        W22204   2.441  34.365  11.666
49945W        W22205   4.715  11.823   4.670
49946W        W22206  43.951   5.792   1.217
49947W        W22207  24.103  37.963   4.135
49948W        W22208  10.228  43.625   1.204
49949W        W22209  19.267  30.609   2.292
49950W        W22210  23.042  31.545   0.799
49951W        W22211  25.781   5.312   1.128
49952W        W22212  37.056  27.378   1.674
49953W        W22213  35.593  28.617   4.271
49954W        W22214   5.553  44.480  13.529
49955W        W22215  14.717  38.451   0.827
49956W        W22216  32.373  29.492   3.756
49957W        W22217  10.156   0.487  10.972
49958W        W22218  32.816  31.088   1.564
49959W        W22219  16.301  34.498   3.792
49960W        W22220   5.315   3.181  11.564
49961W        W22221  37.915  36.526  10.644
49962W        W22222  15.164   8.848   2.291
49963W        W22223  36.788  31.174  12.151
49964W        W22224   3.956  10.160  12.792
49965W        W22225  29.842  34.859  13.880
49966W        W22226  29.142   2.331   3.912
49967W        W22227  44.774   5.129   3.573
49968W        W22228  12.454  12.618   2.906
49969W        W22229  25.967  12.908   0.504
49970W        W22230   2.724   8.868   0.695
49971W        W22231  13.887  21.181   0.734
49972W        W22232  17.232   7.077   1.507
49973W        W22233   7.288  34.310  11.633
49974W        W22234  34.387  39.887   1.425
49975W        W22235  44.266  42.516  12.806
49976W        W22236  26.653  17.645   4.166
49977W        W22237   5.271  13.257  13.400
49978W        W22238   7.915  31.871  12.590
49979W        W22239  16.580   0.733   1.000
49980W        W22240   6.983   3.901  11.614
49981W        W22241  12.252  20.539   1.313
49982W        W22242  41.084  34.152  12.620
49983W        W22243   1.454   8.686  12.500
49984W        W22244   0.119  27.557  11.736
49985W        W22245  25.524  25.133   0.342
49986W        W22246  16.783  42.799  12.126
49987W        W22247   5.326  19.388   1.394
49988W        W22248  28.544   5.941  14.745
49989W        W22249  34.356  42.157  12.025
49990W        W22250  30.875  36.395  12.003
49991W        W22251  34.362  12.116  14.349
49992W        W22252  32.506  36.529  14.951
49993W        W22253   2.940   9.535   1.643
49994W        W22254  36.002  20.206  12.505
49995W        W22255  14.631  17.169  11.610
49996W        W22256  43.852  29.127  14.959
49997W        W22257  16.510  36.672   3.642
49998W        W22258  44.539   4.811   1.507
49999W        W22259  26.922   3.192   4.142
50000W        W22260  19.636  42.531   1.878
50001W        W22261  29.752  12.922  11.140
50002W        W22262  42.548  39.383  14.001
50003W        W22263  43.894  29.588   0.251
50004W        W22264  43.553  26.739  13.903
50005W        W22265  34.684  43.010   3.037
50006W        W22266  12.325   0.236   3.927
50007W        W22267  31.553   6.179   4.880
50008W        W22268   3.808  41.804   1.695
50009W        W22269  36.669  35.040   2.467
50010W        W22270  41.568  22.013   2.675
50011W        W22271  10.785  14.354  14.278
50012W        W22272  11.863   1.636  11.022
50013W        W22273   3.322   3.256   2.876
50014W        W22274  32.492  24.120   0.516
50015W        W22275  17.555  18.715   2.429
50016W        W22276  30.417  16.054   4.254
50017W        W22277  14.248  17.778   3.945
50018W        W22278  32.856  12.183  10.622
50019W        W22279  15.072   8.352   2.425
50020W        W22280  38.557  42.958  12.443
50021W        W22281  10.737  20.525  12.607
50022W        W22282   4.411   3.986  11.025
50023W        W22283  13.676  18.625  14.769
50024W        W22284   0.426  29.084   4.840
50025W        W22285  26.051  13.782  12.670
50026W        W22286  42.139  27.876  12.083
50027W        W22287  42.286  31.508  13.058
50028W        W22288  40.503  26.915   3.096
50029W        W22289  24.704  22.070   2.694
50030W        W22290  22.720  29.603   2.783
50031W        W22291   6.768  24.085  13.259
50032W        W22292  24.707  31.756   2.371
50033W        W22293  22.591  23.055  11.546
50034W        W22294  38.184  24.291   1.347
50035W        W22295   1.932  37.031   3.670
50036W        W22296   8.669  19.877   1.870
50037W        W22297  44.325   6.195  10.692
50038W        W22298  38.017  39.973  11.972
50039W        W22299  31.574   1.944   1.155
50040W        W22300   8.779  24.475   1.443
50041W        W22301  31.085  36.900  13.884
50042W        W22302  35.390   4.621  14.652
50043W        W22303  21.727  25.217   4.579
50044W        W22304  28.871  11.196  11.436
50045W        W22305  19.803  43.437  12.195
50046W        W22306  19.057   6.296  10.934
50047W        W22307  13.629  14.156   3.983
50048W        W22308  33.191  14.879  12.616
50049W        W22309  39.241   1.729  12.346
50050W        W22310  40.887  44.954   1.202
50051W        W22311  19.671  15.178   4.587
50052W        W22312  43.410   8.335  14.463
50053W        W22313   1.870  17.085  13.555
50054W        W22314  37.922  22.689  10.702
50055W        W22315  33.360  28.832  13.955
50056W        W22316  13.219  41.773  14.450
50057W        W22317  16.673  30.504   0.829
50058W        W22318   7.430  13.157  12.887
50059W        W22319  43.308  27.492  11.422
50060W        W22320  36.569  20.013  10.599
50061W        W22321  42.292  32.363  10.529
50062W        W22322  43.190   0.547  13.026
50063W        W22323  21.517  11.413   2.433
50064W        W22324  44.340  17.194   4.583
50065W        W22325  16.659  33.616   4.280
50066W        W22326  16.308   8.779   1.644
50067W        W22327  21.320   3.767  13.940
50068W        W22328  31.418  18.048  14.404
50069W        W22329   1.869  15.268  13.819
50070W        W22330  12.858  20.635  11.602
50071W        W22331   0.105  11.392   0.315
50072W        W22332  35.021  29.538   0.133
50073W        W22333   7.645   5.343   4.175
50074W        W22334  19.803  39.002   2.719
50075W        W22335   7.110  15.780   4.614
50076W        W22336   0.917  37.936   3.278
50077W        W22337  24.151  34.075   0.368
50078W        W22338  24.466   8.167   1.742
50079W        W22339   6.171  29.972   1.975
50080W        W22340  23.036  38.800   2.822
50081W        W22341  35.004  39.642  10.955
50082W        W22342  23.403  16.306   0.721
50083W        W22343   2.377  21.031   4.250
50084W        W22344  38.622   8.385  11.597
50085W        W22345  17.903  26.023  14.120
50086W        W22346  38.366  15.034   4.561
50087W        W22347  22.253  28.463  14.490
50088W        W22348   5.236  16.617   1.445
50089W        W22349  41.459  10.156  14.860
50090W        W22350  38.878  17.675  10.880
50091W        W22351  31.693  17.454   0.176
50092W        W22352  40.610  30.938   3.773
50093W        W22353   8.705  19.860  12.056
50094W        W22354  41.318  11.061  14.344
50095W        W22355  22.007  17.647   0.707
50096W        W22356  19.735  43.046   1.847
50097W        W22357   2.948  36.394  13.390
50098W        W22358  22.038  35.809   0.002
50099W        W22359  26.159  23.078  12.419
50100W        W22360   1.388  14.638  13.960
50101W        W22361  28.174  26.875  14.056
50102W        W22362   4.284   0.821  14.519
50103W        W22363   9.373   3.700  14.777
50104W        W22364  43.983  32.118  11.128
50105W        W22365  31.604  31.450   0.388
50106W        W22366   8.129  22.627   0.304
50107W        W22367   3.850  23.823   0.237
50108W        W22368  28.923  14.881   3.823
50109W        W22369   8.184  33.922  12.972
50110W        W22370  19.011  27.718   3.028
50111W        W22371   4.322  20.939  12.894
50112W        W22372  29.284  40.019   0.646
50113W        W22373  32.345   2.922  14.924
50114W        W22374  34.435  38.842  13.615
50115W        W22375  27.655  10.889  11.005
50116W        W22376  32.011   2.248   0.726
50117W        W22377  22.994   5.427  14.812
50118W        W22378  29.052  23.152   0.677
50119W        W22379  44.509  11.893   0.838
50120W        W22380  24.648  42.230  14.750
50121W        W22381  12.837   1.004  14.834
50122W        W22382  22.710  31.008   1.656
50123W        W22383   4.913   9.652   2.384
50124W        W22384  26.768  14.699   2.857
50125W        W22385   9.785   6.859  12.232
50126W        W22386  23.961  38.517  13.353
50127W        W22387  44.430  36.231   1.506
50128W        W22388   1.393   6.966  14.773
50129W        W22389  38.304  43.404  12.408
50130W        W22390  35.465  11.643   4.569
50131W        W22391  28.413  43.453   1.041
50132W        W22392  10.310  44.935  14.545
50133W        W22393  15.363  38.663   2.456
50134W        W22394   8.007  19.632  12.814
50135W        W22395  31.169  17.634   1.587
50136W        W22396  30.436   8.891   2.941
50137W        W22397  28.021   3.919  13.473
50138W        W22398   6.791   4.924   3.096
50139W        W22399  22.578  30.725   1.215
50140W        W22400  27.477  41.922  13.491
50141W        W22401  24.034  10.367  12.964
50142W        W22402  12.689  11.813   4.610
50143W        W22403  38.981   2.599   3.356
50144W        W22404  41.502  41.136  12.093
50145W        W22405  23.179  32.163   0.026
50146W        W22406   0.471  13.832  13.956
50147W        W22407  39.557  44.253   4.193
50148W        W22408  13.028   1.827   5.107
50149W        W22409   3.363  14.959   1.113
50150W        W22410  33.368  43.493   3.683
50151W        W22411  27.339  33.808   0.007
50152W        W22412  24.623  30.641  13.542
50153W        W22413  20.219  18.397   3.345
50154W        W22414  21.722  34.430   1.010
50155W        W22415  33.904  31.634   4.508
50156W        W22416  36.872  32.057  10.238
50157W        W22417  28.262  35.698  11.531
50158W        W22418  37.085  24.593  14.657
50159W        W22419  24.112  20.083   0.239
50160W        W22420  16.743  16.395   1.208
50161W        W22421   7.606  44.815   0.816
50162W        W22422  39.001  29.088  10.049
50163W        W22423  30.588  18.510   0.955
50164W        W22424  29.436  25.997  11.999
50165W        W22425  25.390  30.907   3.403
50166W        W22426   2.021  34.877   4.475
50167W        W22427  15.024   3.008  11.992
50168W        W22428  26.985  20.128   3.601
50169W        W22429  11.505  21.171  12.641
50170W        W22430  16.362  28.957  12.914
50171W        W22431   0.528  27.988   3.272
50172W        W22432  37.394  44.172  11.124
50173W        W22433  39.695  14.338  13.005
50174W        W22434  29.407   2.303   3.280
50175W        W22435  38.528  38.211   1.340
50176W        W22436  37.440  33.186   0.896
50177W        W22437  31.618   0.089  13.386
50178W        W22438  15.973  26.697   4.966
50179W        W22439  22.625  16.803   0.438
50180W        W22440  10.359  15.368   5.024
50181W        W22441  39.510  15.091  11.579
50182W        W22442  35.543  38.878  12.846
50183W        W22443  29.002  41.122   1.342
50184W        W22444  15.672  15.214   4.305
50185W        W22445  25.152  16.204   4.616
50186W        W22446  18.538  20.041  11.175
50187W        W22447  17.525   5.857   0.624
50188W        W22448   7.099  28.035   3.231
50189W        W22449  14.818  20.077  14.476
50190W        W22450  36.805   7.874  10.033
50191W        W22451  25.085   5.880  11.229
50192W        W22452  29.921  35.614  12.378
50193W        W22453  38.869  37.512  13.605
50194W        W22454  28.671  15.275   3.605
50195W        W22455  14.561  17.838   1.815
50196W        W22456  14.280  11.590  10.638
50197W        W22457  41.698  12.372  12.007
50198W        W22458   3.190  30.972  12.958
50199W        W22459  30.713  19.465   1.410
50200W        W22460  16.334  44.378  13.072
50201W        W22461  38.874  40.784   0.365
50202W        W22462  33.995  38.785  12.804
50203W        W22463  15.271  44.665   2.766
50204W        W22464  43.592  24.072  13.054
50205W        W22465  38.403  24.643   4.533
50206W        W22466  19.558   7.184   3.711
50207W        W22467  42.528  17.556   4.608
50208W        W22468  21.596   6.698  10.668
50209W        W22469   1.773  18.231   1.691
50210W        W22470  20.630  10.186  12.931
50211W        W22471  14.536  15.225  14.775
50212W        W22472  14.673  31.220  12.624
50213W        W22473  39.026  12.360   0.781
50214W        W22474  10.617   9.692   0.860
50215W        W22475  30.070  43.375  12.962
50216W        W22476   7.713  44.091   3.208
50217W        W22477  27.173  33.851   2.555
50218W        W22478  39.397  27.658   2.200
50219W        W22479   6.363  31.662   4.128
50220W        W22480  36.239  21.443   3.627
50221W        W22481  24.295  23.727  12.927
50222W        W22482  26.018  17.765   0.906
50223W        W22483  33.488  40.074  11.273
50224W        W22484  23.656  25.705   0.285
50225W        W22485  38.862  29.804  10.775
50226W        W22486   3.359  13.119  14.212
50227W        W22487  39.884   4.374  14.075
50228W        W22488  23.492  29.518  14.529
50229W        W22489  17.114  25.177   1.853
50230W        W22490  22.452  25.537  11.411
50231W        W22491   1.186  30.117   0.301
50232W        W22492   0.022  44.687   2.433
50233W        W22493  29.442  40.393   3.783
50234W        W22494  29.004  42.438  10.398
50235W        W22495  38.837   3.091   3.340
50236W        W22496  34.100   7.697   0.758
50237W        W22497   1.288  37.562  13.959
50238W        W22498   0.510  23.044  11.056
50239W        W22499   8.470  14.635   5.007
50240W        W22500   9.913  37.865   2.846
50241W        W22501  36.521  32.369   2.868
50242W        W22502   6.889  28.002   1.370
50243W        W22503  30.461  31.988  14.329
50244W        W22504  37.003   0.182   1.682
50245W        W22505  21.490  39.007  10.222
50246W        W22506  21.101  41.986  11.981
50247W        W22507   9.500   7.275   1.690
50248W        W22508  14.889  32.094   2.672
50249W        W22509   9.816  34.698  11.949
50250W        W22510  38.378  16.652   3.627
50251W        W22511  44.304  18.985  13.003
50252W        W22512  21.895  37.486   2.890
50253W        W22513  41.505  15.098  12.047
50254W        W22514  11.547   1.672  13.018
50255W        W22515  42.704  31.516  13.946
50256W        W22516  13.179  32.336  12.068
50257W        W22517  38.504   7.353  14.930
50258W        W22518  29.619   1.448   4.703
50259W        W22519   6.783  20.165  11.645
50260W        W22520  30.537  40.114  11.526
50261W        W22521  12.075   3.402  13.124
50262W        W22522  39.347  12.791  14.481
50263W        W22523  18.837  18.633  10.930
50264W        W22524  44.767  28.531  13.238
50265W        W22525  35.225  16.033  13.916
50266W        W22526   0.773  28.759  11.530
50267W        W22527  33.329  24.391  11.066
50268W        W22528  27.872  28.595   0.209
50269W        W22529  41.772  41.128  10.137
50270W        W22530  35.944  10.980   4.034
50271W        W22531  40.867   9.264   3.605
50272W        W22532  34.838  29.059  11.880
50273W        W22533  15.189   5.305  12.554
50274W        W22534  31.133  22.552  11.119
50275W        W22535   2.575  40.866  12.183
50276W        W22536  11.575  29.235   3.651
50277W        W22537  27.017  11.428  13.083
50278W        W22538  11.652  35.893   2.409
50279W        W22539  34.850  27.914  11.604
50280W        W22540  31.541  37.652   0.764
50281W        W22541   9.207   5.952   2.326
50282W        W22542  36.985   2.818   3.033
50283W        W22543  27.216  23.989  11.443
50284W        W22544  15.414  44.408  14.499
50285W        W22545  11.521   3.727   2.735
50286W        W22546  17.220   4.707   1.583
50287W        W22547  21.197  39.659  12.003
50288W        W22548  11.622   7.794   2.324
50289W        W22549  22.223  17.595   1.471
50290W        W22550  27.751   1.043   2.284
50291W        W22551   7.368  20.111  12.085
50292W        W22552   1.271   5.797  13.940
50293W        W22553  43.856  43.382   3.470
50294W        W22554  12.634  14.118   4.292
50295W        W22555  34.053  38.419  14.120
50296W        W22556  26.626  34.171   4.549
50297W        W22557  30.944  26.397  14.389
50298W        W22558  35.943  13.661  10.723
50299W        W22559  33.883  23.606  10.674
50300W        W22560  12.994  13.218   3.428
50301W        W22561  37.347  31.413  14.512
50302W        W22562  25.562  11.803  14.716
50303W        W22563  33.589   0.466  13.932
50304W        W22564  10.977  37.471  11.726
50305W        W22565  13.665  14.181   4.537
50306W        W22566  42.984  12.084   0.717
50307W        W22567  36.589   8.644  10.827
50308W        W22568  26.628   1.515  13.574
50309W        W22569  39.474  13.401   3.144
50310W        W22570  16.364  27.879  10.640
50311W        W22571  36.942  33.349  13.512
50312W        W22572  14.854   3.547   2.890
50313W        W22573  11.402   3.843  11.148
50314W        W22574  41.434   1.992  14.327
50315W        W22575  43.549  25.061   0.792
50316W        W22576   4.262   5.483  11.020
50317W        W22577  25.611  35.207  12.857
50318W        W22578  36.775  43.715   0.403
50319W        W22579  43.693  35.396  11.576
50320W        W22580  29.513  28.921  11.571
50321W        W22581  27.481   2.345   1.994
50322W        W22582  23.068  33.523  12.516
50323W        W22583  18.207  12.662   4.546
50324W        W22584  36.276  31.183  12.071
50325W        W22585  11.901  12.873  11.717
50326W        W22586   7.744  36.883   3.777
50327W        W22587  43.344  30.387   1.288
50328W        W22588   4.761  17.872  13.788
50329W        W22589  44.826  27.681   4.464
50330W        W22590  30.869   9.281   3.665
50331W        W22591   8.200  18.764  13.416
50332W        W22592  20.782  39.369   2.212
50333W        W22593  19.718  42.028   3.202
50334W        W22594   9.587  22.077  12.940
50335W        W22595  19.591   9.339   0.569
50336W        W22596   3.343  31.164  14.364
50337W        W22597   3.524  42.277  12.834
50338W        W22598  43.037   9.625   0.528
50339W        W22599  33.280  36.713   4.066
50340W        W22600  25.438  38.568   2.002
50341W        W22601   4.682  21.992  11.606
50342W        W22602  31.359  16.238   0.992
50343W        W22603  19.981   9.454   1.818
50344W        W22604  15.568  14.134   1.692
50345W        W22605  41.525  20.160   0.967
50346W        W22606  28.061  30.004   0.786
50347W        W22607  10.382   7.082   1.900
50348W        W22608  32.384  26.801   3.127
50349W        W22609  38.763  41.836   2.656
50350W        W22610  31.864  40.534   4.119
50351W        W22611  37.918  44.208   0.030
50352W        W22612  39.611   0.456   4.509
50353W        W22613  17.551  38.833  14.855
50354W        W22614  11.092  38.694   1.653
50355W        W22615   6.352  41.080  14.896
50356W        W22616   5.826  13.853  11.594
50357W        W22617  20.057  27.550   3.428
50358W        W22618   1.299   8.728   0.714
50359W        W22619  23.980   6.257   2.777
50360W        W22620  41.690  22.074   2.123
50361W        W22621  30.177  23.277   3.528
50362W        W22622  16.206  35.991  12.746
50363W        W22623  27.972  31.665   3.673
50364W        W22624  32.559   1.921  14.194
50365W        W22625  38.503  43.791  13.788
50366W        W22626   9.512  28.416   4.562
50367W        W22627  28.932  33.906   4.359
50368W        W22628  42.433  38.089  11.130
50369W        W22629  27.955  22.202  12.266
50370W        W22630   9.311  27.988   4.346
50371W        W22631  28.470   3.851  13.234
50372W        W22632  32.449  14.591  12.898
50373W        W22633  13.652  29.674   5.100
50374W        W22634   0.231  37.316   0.466
50375W        W22635   1.630  35.007  11.517
50376W        W22636  22.735   0.268   3.775
50377W        W22637   7.732  32.382   0.312
50378W        W22638  29.628  12.146   3.226
50379W        W22639  28.044  19.683  11.576
50380W        W22640  10.544  36.361   2.798
50381W        W22641  21.291   6.828  13.328
50382W        W22642  27.478   6.715   2.609
50383W        W22643  29.157  37.135  14.433
50384W        W22644  24.719  12.151   0.948
50385W        W22645  26.380  33.559  10.706
50386W        W22646   1.348  28.702   2.778
50387W        W22647  12.726   7.437   4.231
50388W        W22648  35.040   0.222   2.619
50389W        W22649  15.739  27.640  12.338
50390W        W22650  35.686  32.003  10.773
50391W        W22651  11.203   2.443  10.852
50392W        W22652   6.863   7.850   4.101
50393W        W22653  23.222   3.518   3.358
50394W        W22654  18.752  38.066   3.807
50395W        W22655  17.460  30.672  14.768
50396W        W22656   0.323  31.860   3.716
50397W        W22657  29.604  16.482  13.922
50398W        W22658  12.752  25.781  12.862
50399W        W22659  33.882  29.423  13.609
50400W        W22660   4.666   1.924  14.691
50401W        W22661  26.539   3.427   3.140
50402W        W22662  28.491   0.979   4.944
50403W        W22663  15.570   4.407  11.904
50404W        W22664  12.798  30.200  12.906
50405W        W22665   0.768  40.838   3.201
50406W        W22666  23.081  15.656   2.108
50407W        W22667  34.779  35.631   4.461
50408W        W22668  20.657  20.677   2.764
50409W        W22669   3.849  41.421  10.488
50410W        W22670   2.509   4.716   0.562
50411W        W22671  44.288  37.496  10.752
50412W        W22672   9.945   1.646  11.150
50413W        W22673  37.046   3.753   2.657
50414W        W22674  30.349   4.922   2.157
50415W        W22675  42.279  26.240  12.028
50416W        W22676  41.330   8.827   1.275
50417W        W22677  38.473  24.724   1.275
50418W        W22678  44.007   4.338   0.752
50419W        W22679  34.870   9.781   2.917
50420W        W22680  19.088  13.801   1.729
50421W        W22681  44.115  33.360   5.089
50422W        W22682  24.708  33.434   3.572
50423W        W22683  15.052  33.412  10.418
50424W        W22684  29.923  17.641   4.289
50425W        W22685  29.707  36.676  11.556
50426W        W22686  18.556  16.293   0.189
50427W        W22687  43.193  31.378   2.204
50428W        W22688  43.173  26.969  12.613
50429W        W22689  15.828  42.850   2.299
50430W        W22690   3.943  39.129   2.244
50431W        W22691   8.630   3.950  12.586
50432W        W22692   5.180  22.244   1.309
50433W        W22693  15.220  21.234   1.867
50434W        W22694  33.047  43.561   2.350
50435W        W22695   7.711   1.751   0.894
50436W        W22696   1.787  42.311   3.358
50437W        W22697  12.177  43.136   1.948
50438W        W22698  12.566  24.885  11.043
50439W        W22699  31.533  19.050   2.886
50440W        W22700  30.886  20.813   1.343
50441W        W22701   4.802  15.616  11.937
50442W        W22702   8.967  39.554  11.689
50443W        W22703  16.748  16.127   0.759
50444W        W22704  41.546  28.152  13.829
50445W        W22705  43.783   1.214  12.647
50446W        W22706  12.249  20.222  10.895
50447W        W22707   1.318  36.042  13.910
50448W        W22708  31.681  38.501  11.260
50449W        W22709  40.321  15.581   2.291
50450W        W22710   0.317   5.195   4.887
50451W        W22711  41.516  11.977  14.231
50452W        W22712  30.045  14.870   0.009
50453W        W22713  17.499  36.930  14.949
50454W        W22714  16.354  21.195   0.780
50455W        W22715   8.056  27.277  12.848
50456W        W22716   2.857  25.696   2.229
50457W        W22717   9.292  30.279  12.167
50458W        W22718  41.564  13.279  12.174
50459W        W22719  11.650  36.335   2.706
50460W        W22720  18.820  29.096   3.739
50461W        W22721  35.129   8.734  12.448
50462W        W22722  25.998   4.435   0.702
50463W        W22723  27.653  39.511   0.870
50464W        W22724  11.029  28.978   5.001
50465W        W22725  11.848  10.190   4.728
50466W        W22726  40.913  28.954  13.961
50467W        W22727  33.373  27.459   0.908
50468W        W22728  26.251  22.928  11.141
50469W        W22729  13.168   6.185  11.168
50470W        W22730  24.124  10.639   4.558
50471W        W22731  11.370  26.391  10.468
50472W        W22732  24.102  20.297  10.596
50473W        W22733  10.092  11.197   1.084
50474W        W22734  24.238  34.485  11.552
50475W        W22735   9.407  43.831  10.433
50476W        W22736   6.211  30.637  12.027
50477W        W22737  16.134   6.811  10.537
50478W        W22738  43.200   9.754  12.945
50479W        W22739  20.505  41.094  11.429
50480W        W22740  37.540  22.245  14.786
50481W        W22741  23.784  39.848  11.912
50482W        W22742   0.961  28.550   0.774
50483W        W22743  17.416  14.844   5.036
50484W        W22744  22.332   1.204  11.661
50485W        W22745  25.361  24.957   4.595
50486W        W22746   5.501  32.854   3.672
50487W        W22747   2.326  43.366   3.164
50488W        W22748  19.529  27.069   0.230
50489W        W22749  12.268  29.726   3.285
50490W        W22750  41.224  39.034   1.278
50491W        W22751  16.193  10.216  13.385
50492W        W22752  10.198  10.684  11.088
50493W        W22753  16.750  20.515  12.852
50494W        W22754  27.508  11.288   4.723
50495W        W22755  21.498  22.516  10.825
50496W        W22756   8.228   2.237   1.455
50497W        W22757  36.332  42.095   2.497
50498W        W22758  20.422  39.140   4.250
50499W        W22759  29.288  30.211  13.803
50500W        W22760  15.063  42.345   1.814
50501W        W22761  13.165  28.083   1.831
50502W        W22762  19.984  26.521   0.677
50503W        W22763  20.278  40.363  14.497
50504W        W22764  12.295  30.219   2.406
50505W        W22765  30.946  38.868   4.396
50506W        W22766   7.722   4.653  10.971
50507W        W22767   1.020  14.926  14.229
50508W        W22768  39.518   8.344  11.375
50509W        W22769  12.828  32.482  11.731
50510W        W22770  34.183   6.160  14.879
50511W        W22771  29.375   3.311  10.485
50512W        W22772   9.521   1.928   0.425
50513W        W22773  19.839   5.706   0.290
50514W        W22774  13.177   2.511   2.169
50515W        W22775  26.616  22.974   4.193
50516W        W22776  14.635  16.688   5.175
50517W        W22777  36.443  24.410   2.311
50518W        W22778  13.113  10.997  13.016
50519W        W22779  23.918  23.285  12.806
50520W        W22780  24.771  26.221   0.817
50521W        W22781  29.059  30.859   0.927
50522W        W22782  44.249  23.129   0.464
50523W        W22783  40.414  22.056   3.285
50524W        W22784  23.578  19.781   0.667
50525W        W22785   3.710  12.931   4.495
50526W        W22786  37.802  41.537   1.756
50527W        W22787  15.287  12.921  13.885
50528W        W22788  28.637  20.387   0.942
50529W        W22789  38.028  41.939   0.983
50530W        W22790  13.841  31.636  14.910
50531W        W22791  40.834  43.545  11.623
50532W        W22792  31.192   7.017   1.237
50533W        W22793  17.045  31.443   2.777
50534W        W22794  36.578  31.916   2.202
50535W        W22795   9.636  29.416   3.985
50536W        W22796   2.216  27.198  11.171
50537W        W22797  16.790  24.062  12.595
50538W        W22798  39.280  40.353   0.300
50539W        W22799  17.735  17.263  11.494
50540W        W22800  37.885  44.981   0.518
50541W        W22801  18.539  19.428   3.152
50542W        W22802  41.636  10.348   3.050
50543W        W22803  26.956  34.909   0.343
50544W        W22804  23.039  44.990   4.471
50545W        W22805  40.575  21.123  14.854
50546W        W22806  19.768  14.221   0.493
50547W        W22807  20.233  10.954  14.856
50548W        W22808  28.652  41.971  14.854
50549W        W22809  21.229  36.412  11.030
50550W        W22810  21.550  18.536  10.655
50551W        W22811  34.615  35.540   0.261
50552W        W22812  15.111   6.002   3.952
50553W        W22813  10.659   3.279   1.622
50554W        W22814  12.712  43.236   0.363
50555W        W22815  16.198  35.347   0.348
50556W        W22816  34.048  42.129   4.218
50557W        W22817  33.555  40.508   2.924
50558W        W22818   5.851  19.640  10.693
50559W        W22819   0.480  14.443  11.664
50560W        W22820  42.020  34.310  10.059
50561W        W22821  12.797  44.013   2.899
50562W        W22822   8.754  39.619   2.799
50563W        W22823  23.708  32.920   3.617
50564W        W22824   8.526  44.424   1.795
50565W        W22825  31.257  26.445  14.856
50566W        W22826  36.092  21.596  13.876
50567W        W22827  23.470   4.519   4.207
50568W        W22828  31.118  41.741  11.287
50569W        W22829  19.763  43.854   4.178
50570W        W22830  14.780  19.439  12.019
50571W        W22831  43.370  25.238   1.933
50572W        W22832  35.016  44.737  11.503
50573W        W22833   6.591  22.458   3.037
50574W        W22834  11.873  43.829  10.489
50575W        W22835  44.784  36.491  12.314
50576W        W22836  28.669  23.973  11.948
50577W        W22837   6.573   2.448   2.725
50578W        W22838  12.938  20.188   2.308
50579W        W22839   6.925   4.438  11.669
50580W        W22840   1.046  23.878  14.014
50581W        W22841   0.666  24.690  11.662
50582W        W22842  20.280  36.985  13.103
50583W        W22843  19.517  15.862   2.726
50584W        W22844  13.807  39.514   0.154
50585W        W22845  32.506  20.116   0.848
50586W        W22846  19.667   8.394  12.128
50587W        W22847  42.946   3.219  11.042
50588W        W22848  28.541  23.728  13.723
50589W        W22849   1.250   6.788   4.122
50590W        W22850  34.387   2.171   3.321
50591W        W22851   2.223  25.001   0.315
50592W        W22852  25.239  36.201  14.229
50593W        W22853  33.039  39.742   0.432
50594W        W22854  33.899   6.423   3.642
50595W        W22855   6.363   9.357   3.312
50596W        W22856   0.891  30.551   4.155
50597W        W22857  13.815  39.139   0.563
50598W        W22858  32.373   9.636   1.867
50599W        W22859  21.760  26.200  11.204
50600W        W22860  13.592  33.866   2.504
50601W        W22861  24.470  22.804  13.801
50602W        W22862  21.828  34.501  14.265
50603W        W22863  19.258  14.259   4.270
50604W        W22864  14.570  10.613  12.352
50605W        W22865  23.225  43.822  12.142
50606W        W22866  28.211  15.016   3.405
50607W        W22867  38.221  36.044   1.659
50608W        W22868  15.257  36.815   2.380
50609W        W22869  11.334  25.760  11.524
50610W        W22870   9.977  44.361   1.975
50611W        W22871  20.555  22.934   0.219
50612W        W22872  30.615  26.123   2.375
50613W        W22873   4.911   4.846   0.903
50614W        W22874  37.508  23.321  13.038
50615W        W22875  29.088  28.958   0.023
50616W        W22876  28.654  39.503  14.531
50617W        W22877   8.892   2.389  13.468
50618W        W22878   6.661   9.976  14.952
50619W        W22879  21.552   8.748   2.480
50620W        W22880  12.205   7.004  10.825
50621W        W22881  26.139   0.705  11.301
50622W        W22882  35.205   9.078   0.281
50623W        W22883  30.986  27.937  12.417
50624W        W22884  13.724  22.881  13.792
50625W        W22885  42.581   0.241   1.009
50626W        W22886  14.672  41.949  11.499
50627W        W22887  42.524  37.174  13.361
50628W        W22888  20.801  42.475  14.045
50629W        W22889  10.897   9.854  13.805
50630W        W22890  25.228  28.867  13.854
50631W        W22891   5.803  42.693  12.621
50632W        W22892  25.454  34.482   4.062
50633W        W22893  24.959  21.082  11.690
50634W        W22894  34.003  29.530  10.955
50635W        W22895  25.728  13.935   3.652
50636W        W22896   7.690   4.751  10.466
50637W        W22897  12.780   0.935   0.721
50638W        W22898  13.760  43.047  12.365
50639W        W22899  38.357  16.667   4.681
50640W        W22900  34.310  25.478   3.788
50641W        W22901   0.393  42.915   1.297
50642W        W22902  18.751   6.969   4.437
50643W        W22903  43.798  18.934   4.564
50644W        W22904  13.709  23.518  11.300
50645W        W22905  40.986  18.572  14.011
50646W        W22906   7.221  11.403  14.999
50647W        W22907  24.074  40.398  11.531
50648W        W22908  14.729  22.835   4.062
50649W        W22909  40.852  12.739   2.695
50650W        W22910  18.076   1.026  12.430
50651W        W22911  23.243   6.808  11.105
50652W        W22912  26.166  28.533  11.594
50653W        W22913  39.300  19.169   1.976
50654W        W22914  25.479   2.260   2.238
50655W        W22915  10.743  28.127   0.725
50656W        W22916  34.151   0.815  14.599
50657W        W22917  25.051  31.468  11.465
50658W        W22918  41.515  16.583   0.974
50659W        W22919  40.739  43.006  12.491
50660W        W22920  31.452   4.820  12.174
50661W        W22921  20.628  41.077  11.910
50662W        W22922  26.988  15.681  14.598
50663W        W22923  37.887   2.025  10.470
50664W        W22924  19.305  16.565  11.315
50665W        W22925  13.421  40.927  14.279
50666W        W22926  37.837   2.937  11.830
50667W        W22927  18.633   7.315  13.637
50668W        W22928   8.905  41.751  11.059
50669W        W22929  12.151  19.034   3.441
50670W        W22930  19.728  39.321   4.445
50671W        W22931  22.742  43.607  11.489
50672W        W22932  36.530   3.688  13.444
50673W        W22933  13.837  39.426   4.087
50674W        W22934  18.898  10.374  12.661
50675W        W22935   4.719   2.329   3.220
50676W        W22936  17.432  35.101   3.300
50677W        W22937  12.165  44.949   1.420
50678W        W22938  36.579  35.534   2.668
50679W        W22939  35.955   5.631  14.141
50680W        W22940  17.238  34.936  11.970
50681W        W22941  26.786  38.033  13.481
50682W        W22942   9.812   5.267  13.338
50683W        W22943  26.580  36.430   2.998
50684W        W22944  26.062  35.152  12.576
50685W        W22945   3.460  10.659   4.505
50686W        W22946  43.986  28.927   1.346
50687W        W22947  28.104  11.731   0.966
50688W        W22948  29.587  18.645   1.405
50689W        W22949  18.111  33.917  11.487
50690W        W22950  16.156  26.080  10.514
50691W        W22951  38.695  25.807  13.809
50692W        W22952  15.810  18.227  14.135
50693W        W22953   4.910  39.305  14.705
50694W        W22954  20.422  43.259  10.953
50695W        W22955   9.412  22.717   0.415
50696W        W22956  25.481  21.643  14.571
50697W        W22957  43.944  21.673   1.562
50698W        W22958   3.744  36.064  10.377
50699W        W22959   4.090  22.699   3.777
50700W        W22960   3.443  38.633   3.393
50701W        W22961  22.455  23.941   0.426
50702W        W22962   0.598   8.936   3.734
50703W        W22963  15.320   2.310  12.494
50704W        W22964  14.692   4.130  11.463
50705W        W22965  37.039  30.943   4.570
50706W        W22966   1.826  14.971  14.539
50707W        W22967  16.690  13.330   0.420
50708W        W22968  35.908   8.527  14.912
50709W        W22969   8.959  37.373  12.108
50710W        W22970  38.468   2.286   0.317
50711W        W22971  22.710  34.493  10.452
50712W        W22972  22.548  10.773   2.608
50713W        W22973  27.065  39.856  13.510
50714W        W22974  34.664  31.441   1.834
50715W        W22975  27.512   1.367   0.870
50716W        W22976   8.695  40.112  12.990
50717W        W22977   3.658   6.709   2.311
50718W        W22978   8.478   6.420  13.376
50719W        W22979  42.770  35.889  10.610
50720W        W22980  34.670  24.907  12.101
50721W        W22981  13.531  28.515  10.732
50722W        W22982   6.145  15.200  13.764
50723W        W22983  25.891   4.466  12.095
50724W        W22984  35.573   1.746   2.136
50725W        W22985  23.264   5.419   0.909
50726W        W22986  17.509  21.810   2.901
50727W        W22987  15.993  35.039  11.618
50728W        W22988  38.585   8.078  10.767
50729W        W22989  12.287  21.675  14.434
50730W        W22990  38.914  40.563  14.886
50731W        W22991  34.519  43.245   4.387
50732W        W22992  38.920  38.085  10.303
50733W        W22993   0.432  22.751  13.469
50734W        W22994   3.356  32.924  14.579
50735W        W22995  28.380  44.481  11.157
50736W        W22996  36.436   5.252   2.525
50737W        W22997  27.152  18.562   0.462
50738W        W22998  29.366   8.906  12.121
50739W        W22999  39.085  39.944   1.711
50740W        W23000  36.854   4.115   1.928
50741W        W23001  42.665  44.528   1.311
50742W        W23002  30.920  20.773   0.430
50743W        W23003  14.124  13.120   0.501
50744W        W23004   7.859   6.850  12.049
50745W        W23005  38.507  34.857  13.000
50746W        W23006   1.268   4.490  12.180
50747W        W23007  37.923  44.873   1.023
50748W        W23008   6.971   0.400   0.701
50749W        W23009   7.906   9.810   2.646
50750W        W23010  26.915  25.146   2.316
50751W        W23011  41.999  28.551   1.966
50752W        W23012  35.139  22.965  11.499
50753W        W23013  16.113  39.453  11.595
50754W        W23014  30.492  12.219   0.479
50755W        W23015   1.552  44.362   2.792
50756W        W23016  20.381  41.347  13.528
50757W        W23017  15.123   8.193  11.569
50758W        W23018  17.656   5.747   1.151
50759W        W23019  32.622  41.834  13.470
50760W        W23020  20.091  12.551   3.956
50761W        W23021  19.101   7.124   4.067
50762W        W23022  24.009   8.943  14.340
50763W        W23023  35.054  25.425  13.445
50764W        W23024   1.168   3.155   2.703
50765W        W23025  32.834  35.434  13.761
50766W        W23026  24.937  19.641  11.950
50767W        W23027  26.320  34.044   4.145
50768W        W23028  24.043  35.955  12.336
50769W        W23029   7.912  30.093   4.284
50770W        W23030  10.161  34.390  14.562
50771W        W23031  17.292   6.718  12.785
50772W        W23032  28.415  29.642  14.279
50773W        W23033  17.305   4.206  11.216
50774W        W23034  41.404   7.380   1.315
50775W        W23035  43.771  34.532  10.576
50776W        W23036  35.093   2.700  10.686
50777W        W23037  26.564   9.176  11.579
50778W        W23038  28.427  31.068   1.062
50779W        W23039  40.236   1.397   4.869
50780W        W23040  41.293  15.733   4.766
50781W        W23041  36.166  16.771  12.566
50782W        W23042  28.004   2.908   3.620
50783W        W23043  40.014   4.206  14.956
50784W        W23044   2.140  40.615   0.247
50785W        W23045  18.732  42.216  14.609
50786W        W23046  20.595   1.367  12.995
50787W        W23047  17.966  26.109  14.792
50788W        W23048  28.570  10.697  14.869
50789W        W23049   4.189  13.638  14.001
50790W        W23050  39.969   9.478  13.909
50791W        W23051  16.235  29.443  13.030
50792W        W23052   3.472  20.666   0.878
50793W        W23053  31.574  30.245   2.173
50794W        W23054   2.303  26.137  10.875
50795W        W23055  21.193   5.437  11.929
50796W        W23056   3.846   9.989   4.122
50797W        W23057  36.274  37.105  13.895
50798W        W23058  19.798  31.125  12.511
50799W        W23059  25.334  17.476   1.488
50800W        W23060  40.090  16.667  10.629
50801W        W23061  34.200  16.548  12.483
50802W        W23062   9.657  29.063   0.780
50803W        W23063  11.744  38.841   2.832
50804W        W23064  15.074  32.043   4.579
50805W        W23065  21.181  10.234   3.575
50806W        W23066  19.494  17.708   0.371
50807W        W23067   7.162   5.391  12.338
50808W        W23068   6.321  26.975   2.157
50809W        W23069  20.559  14.055  12.022
50810W        W23070   9.764  11.584  13.841
50811W        W23071  36.390  15.787   2.730
50812W        W23072  24.694  29.006  11.642
50813W        W23073  29.927  15.887   3.622
50814W        W23074  18.934   3.109   0.518
50815W        W23075  33.380  34.609  13.362
50816W        W23076  27.809   1.726  13.040
50817W        W23077  13.902  23.168   1.556
50818W        W23078   6.674  37.377   1.682
50819W        W23079  40.258  27.936   0.370
50820W        W23080  42.463  22.688   3.074
50821W        W23081  23.967  32.164   1.945
50822W        W23082  13.376  29.738  13.316
50823W        W23083  10.500  23.198  14.211
50824W        W23084  11.945  43.898   3.264
50825W        W23085   4.311  34.157   0.880
50826W        W23086   0.702  38.525  10.443
50827W        W23087   9.852   6.609  14.571
50828W        W23088  24.391   7.906   3.728
50829W        W23089  31.889  14.288   4.777
50830W        W23090  21.931  27.206   0.485
50831W        W23091  22.087  37.335  13.917
50832W        W23092   5.758  34.089   2.146
50833W        W23093  28.681  23.216   3.626
50834W        W23094  16.185  19.148  14.107
50835W        W23095   6.194   3.870   0.083
50836W        W23096  41.308   9.352  12.013
50837W        W23097  43.250   7.947  11.265
50838W        W23098  15.550  12.166   0.574
50839W        W23099  24.050  17.377   2.737
50840W        W23100  39.939  29.188  11.630
50841W        W23101  30.594  14.773   3.177
50842W        W23102  13.405  39.506   0.511
50843W        W23103  36.292  17.738  12.596
50844W        W23104  43.488  39.281   2.164
50845W        W23105  31.828  14.726   3.689
50846W        W23106   3.997  22.511   2.806
50847W        W23107  23.486   1.893  12.457
50848W        W23108   7.449   9.162   2.748
50849W        W23109  10.652  27.134   4.200
50850W        W23110   5.601  41.308  13.398
50851W        W23111   3.012   3.417   4.620
50852W        W23112  28.550  14.046   4.853
50853W        W23113  30.398  25.016  14.943
50854W        W23114   0.291  32.377   3.641
50855W        W23115   0.001   0.892  12.847
50856W        W23116   9.664  42.067   0.347
50857W        W23117  32.123   5.247  10.791
50858W        W23118  23.995  30.308   3.981
50859W        W23119  11.129  15.554   3.790
50860W        W23120  14.853   9.397   4.121
50861W        W23121  37.372   3.284   4.657
50862W        W23122  36.870  40.669   1.580
50863W        W23123  16.843   8.641   4.436
50864W        W23124   6.479  16.754  13.904
50865W        W23125  22.193  18.182  10.124
50866W        W23126   7.339  33.156  14.241
50867W        W23127  22.923  20.896   9.846
50868W        W23128   1.432  20.677   0.829
50869W        W23129  37.888  12.654   4.541
50870W        W23130   1.718  41.002   3.350
50871W        W23131  38.590  39.812   1.764
50872W        W23132   7.384  20.675   4.605
50873W        W23133  13.868  27.146   4.616
50874W        W23134  10.245  41.566  12.602
50875W        W23135  14.709   7.836   4.989
50876W        W23136   7.890   4.232   2.196
50877W        W23137  33.062  26.168  11.740
50878W        W23138  21.481  32.869  14.454
50879W        W23139  18.522  29.364  13.927
50880W        W23140  41.083  36.056  11.546
50881W        W23141  27.059  40.941  12.568
50882W        W23142  28.310  21.923  13.838
50883W        W23143  28.220  42.301  13.374
50884W        W23144   4.444  30.992   1.840
50885W        W23145   6.874  23.559  14.555
50886W        W23146  37.878  32.492  14.811
50887W        W23147  14.362  36.611   4.766
50888W        W23148  30.997  15.637  12.404
50889W        W23149  27.417  27.968  10.996
50890W        W23150  25.787  41.072   0.356
50891W        W23151  34.530  14.716  10.921
50892W        W23152   8.719  43.408   4.100
50893W        W23153  35.830  14.715  10.969
50894W        W23154  31.616  13.274  12.063
50895W        W23155  42.377   9.722   0.214
50896W        W23156   3.984  35.586  12.990
50897W        W23157  33.915  32.038   4.142
50898W        W23158   5.357  10.867  14.473
50899W        W23159  44.491   0.872  13.961
50900W        W23160  32.144   5.481  10.270
50901W        W23161  23.530   2.715  13.750
50902W        W23162   6.957  17.206  14.420
50903W        W23163  11.687  24.553   4.427
50904W        W23164  34.331  22.540   1.963
50905W        W23165  19.102  25.439   2.658
50906W        W23166   3.844   5.725  11.238
50907W        W23167  18.689   0.766  12.062
50908W        W23168  42.909  36.337  12.871
50909W        W23169  41.129  43.725  13.468
50910W        W23170  19.136  39.463   0.713
50911W        W23171  31.193  28.007  13.438
50912W        W23172   6.760   6.128   4.623
50913W        W23173   5.481   3.465   2.296
50914W        W23174  21.677  20.682  12.973
50915W        W23175  27.717  31.499   0.235
50916W        W23176  17.900  39.997   3.071
50917W        W23177  28.239  40.119  11.968
50918W        W23178  22.667   0.923   0.048
50919W        W23179  13.150   1.930   3.683
50920W        W23180  25.601   6.149  14.284
50921W        W23181  27.637  40.607   4.292
50922W        W23182  31.380  32.410   0.127
50923W        W23183   1.518   5.679  14.558
50924W        W23184  30.256  17.542   3.920
50925W        W23185  37.879  13.060   0.490
50926W        W23186  13.209  15.613  14.397
50927W        W23187  11.360  21.320   3.198
50928W        W23188   2.860  28.648  12.070
50929W        W23189  26.989  38.314  11.880
50930W        W23190  38.873   2.014   2.218
50931W        W23191  43.312  25.870  13.880
50932W        W23192  41.598  32.712   2.314
50933W        W23193  26.264  15.607   2.625
50934W        W23194   6.702  29.478  11.526
50935W        W23195   4.473  40.826  11.168
50936W        W23196  36.102  29.951   0.730
50937W        W23197  36.090  12.124  12.982
50938W        W23198  12.644  13.318  12.569
50939W        W23199  44.261  36.086  10.581
50940W        W23200   0.386  27.504   1.888
50941W        W23201  14.785  24.665   1.378
50942W        W23202  26.194  35.415   0.410
50943W        W23203  44.655   5.669  14.807
50944W        W23204   0.127  42.468   1.159
50945W        W23205  44.305   8.582  13.450
50946W        W23206  18.929  37.097   2.316
50947W        W23207  19.076  13.015  13.840
50948W        W23208  20.128  28.541   1.197
50949W        W23209  42.415  28.668   1.148
50950W        W23210  40.605  39.686  13.563
50951W        W23211  34.076  29.879  14.337
50952W        W23212  24.109  37.086   4.086
50953W        W23213  37.094  38.792  14.893
50954W        W23214  13.694  14.343   1.181
50955W        W23215  20.282  12.099   2.731
50956W        W23216  13.134  20.753   2.176
50957W        W23217  42.951  19.247   0.444
50958W        W23218   9.310  43.401   3.772
50959W        W23219  28.101  43.051  12.289
50960W        W23220  40.847   2.898   3.932
50961W        W23221  38.708  38.917   4.723
50962W        W23222  43.026   5.124   3.748
50963W        W23223  17.656   0.173  13.778
50964W        W23224  14.569  24.595  10.738
50965W        W23225  11.343  14.672  13.837
50966W        W23226  36.476  23.281   1.651
50967W        W23227  12.730  34.624  11.154
50968W        W23228  43.806  36.270  11.057
50969W        W23229  44.294  17.708   4.531
50970W        W23230  21.535  19.741   2.305
50971W        W23231  31.051  38.442   4.087
50972W        W23232  26.711  43.785  12.618
50973W        W23233  27.762  25.193   2.199
50974W        W23234  23.267  33.461   3.661
50975W        W23235  35.260  42.053   0.371
50976W        W23236  28.609   2.951   4.322
50977W        W23237  11.591  24.291  10.347
50978W        W23238  42.271  37.673   2.972
50979W        W23239  37.669  39.927   2.846
50980W        W23240  17.353  10.770  13.255
50981W        W23241  17.248  42.357  12.905
50982W        W23242   9.443  33.480   3.674
50983W        W23243  14.192  28.983   3.343
50984W        W23244   3.052  42.040   4.484
50985W        W23245  21.545  16.087  14.743
50986W        W23246  30.371  37.508   3.985
50987W        W23247  43.824  17.748  14.355
50988W        W23248  14.606  14.145   4.261
50989W        W23249  43.538   6.661   1.701
50990W        W23250  39.389   8.777  11.623
50991W        W23251  14.850  18.467  10.265
50992W        W23252  18.627   5.175   1.331
50993W        W23253   8.920  37.057   4.374
50994W        W23254  19.027  10.657   4.624
50995W        W23255  10.208  29.624  13.312
50996W        W23256  28.006   1.781   1.224
50997W        W23257  41.809  27.642   0.552
50998W        W23258  20.485  41.446   0.297
50999W        W23259  26.679   8.110   1.883
51000W        W23260   7.531  43.011   2.669
51001W        W23261  18.275  22.026  11.278
51002W        W23262  41.498  24.753  13.969
51003W        W23263  37.558  28.686   0.203
51004W        W23264  10.305  29.053  11.553
51005W        W23265  11.050   9.265  12.393
51006W        W23266  29.392  23.565  13.495
51007W        W23267  26.905  37.089  12.509
51008W        W23268   2.478  16.436  11.935
51009W        W23269  15.867  43.714   4.058
51010W        W23270   3.019   9.218   2.710
51011W        W23271   0.879  25.255  10.256
51012W        W23272  24.355  17.149   0.817
51013W        W23273   2.464   3.668  14.548
51014W        W23274  26.238  31.388  13.351
51015W        W23275  18.345  25.118  14.839
51016W        W23276  35.367  36.378  12.592
51017W        W23277  21.155  36.554  13.944
51018W        W23278   9.448   5.623   0.806
51019W        W23279  26.098  36.887  10.618
51020W        W23280  36.891  10.893   4.108
51021W        W23281  24.961  14.112   4.971
51022W        W23282  34.578  22.068   0.239
51023W        W23283  12.059   8.644   3.194
51024W        W23284  44.946  19.182  12.535
51025W        W23285  32.436  31.420   1.330
51026W        W23286  29.873  32.441   4.529
51027W        W23287   1.049  44.758   3.397
51028W        W23288   6.284  14.264  14.054
51029W        W23289  25.245  23.155   1.738
51030W        W23290  35.432   3.032   0.908
51031W        W23291  32.163  38.594   1.627
51032W        W23292  28.898  31.014   0.446
51033W        W23293   3.223  41.399  14.629
51034W        W23294   1.391  29.730  12.087
51035W        W23295  14.227  35.329   1.781
51036W        W23296   2.331  10.251  13.476
51037W        W23297  23.069   1.412  10.713
51038W        W23298  33.513  19.592   4.044
51039W        W23299  28.097  41.070   3.676
51040W        W23300  22.581   0.510  12.929
51041W        W23301  11.914  29.580  14.908
51042W        W23302  13.754  37.963   1.396
51043W        W23303  24.225   6.836   3.283
51044W        W23304  30.074  12.465   0.276
51045W        W23305  32.623  17.890  13.511
51046W        W23306  23.482  19.739  11.018
51047W        W23307  34.372  12.750  14.037
51048W        W23308  10.205  43.358   2.720
51049W        W23309   1.387   3.546  10.753
51050W        W23310  39.473  38.005   2.232
51051W        W23311  32.472  40.858   1.159
51052W        W23312   8.616  24.015  13.513
51053W        W23313  10.989  20.508  14.296
51054W        W23314  18.297  32.147  12.084
51055W        W23315  34.483  10.308  10.361
51056W        W23316  42.769   3.201  10.569
51057W        W23317  20.480  44.498   1.468
51058W        W23318  41.256  18.703   0.853
51059W        W23319  34.033  15.544  12.892
51060W        W23320  34.494  40.908   1.210
51061W        W23321  41.948  43.272  14.420
51062W        W23322  17.735   7.369   1.310
51063W        W23323  10.225   7.434  11.499
51064W        W23324   9.461   2.744  13.692
51065W        W23325  31.799  32.997  11.110
51066W        W23326  39.876  20.221   2.146
51067W        W23327   6.240  17.582   0.337
51068W        W23328  28.026   5.600   2.252
51069W        W23329   6.320  13.577   1.377
51070W        W23330  20.644  33.487  11.464
51071W        W23331   2.002  35.027  10.656
51072W        W23332  39.266   1.426   4.724
51073W        W23333  36.945  25.579  12.112
51074W        W23334  19.282  19.230   0.730
51075W        W23335   1.342  24.388  13.244
51076W        W23336   8.308   8.848  13.403
51077W        W23337  33.312  40.480   0.646
51078W        W23338  19.259  23.525  14.023
51079W        W23339  38.048  12.377   1.962
51080W        W23340  22.178  42.315  11.611
51081W        W23341  38.763   3.544  11.914
51082W        W23342  14.580   5.417   4.603
51083W        W23343  32.535  27.773  13.548
51084W        W23344  29.576  37.742  11.532
51085W        W23345  19.771   9.340  12.150
51086W        W23346  10.246  11.799  11.655
51087W        W23347  14.261  31.466  10.115
51088W        W23348   9.634  27.476  12.086
51089W        W23349  25.260  38.734  14.358
51090W        W23350  37.455  13.213  12.373
51091W        W23351  41.805  44.846   0.793
51092W        W23352  26.156  44.599   2.829
51093W        W23353  41.235   4.928   1.863
51094W        W23354  39.066  25.962   9.919
51095W        W23355  32.893  25.822   2.424
51096W        W23356   2.771  15.067  14.777
51097W        W23357   0.873  39.880   1.725
51098W        W23358  12.210  25.909   0.477
51099W        W23359  39.639  17.327  13.555
51100W        W23360  13.672  27.204   0.981
51101W        W23361  26.193  15.553  11.424
51102W        W23362  35.295  11.377   1.405
51103W        W23363  11.787  26.953  13.843
51104W        W23364  13.647  30.998  13.016
51105W        W23365  25.694  40.844  13.740
51106W        W23366   6.449   1.780   1.291
51107W        W23367  36.847  27.568  11.366
51108W        W23368  16.764  16.411   3.264
51109W        W23369   4.155  14.409   0.669
51110W        W23370  18.624  30.174   4.607
51111W        W23371   2.414  12.101   4.637
51112W        W23372  43.496  21.062   0.279
51113W        W23373  43.098  25.706   4.280
51114W        W23374  33.141  18.484  12.883
51115W        W23375  39.316   8.723   4.626
51116W        W23376  28.454  29.028   0.822
51117W        W23377  11.650  21.054   2.867
51118W        W23378  20.604  41.371   2.368
51119W        W23379  33.115  16.074   2.365
51120W        W23380  17.281   1.306   2.289
51121W        W23381   4.968  42.437  10.757
51122W        W23382   9.460  37.473  12.112
51123W        W23383  28.660  28.071   2.840
51124W        W23384   5.719   0.930  14.466
51125W        W23385  38.596  17.139   2.921
51126W        W23386  21.625  35.415   4.393
51127W        W23387  34.845  23.030  12.021
51128W        W23388  41.728   8.369  13.735
51129W        W23389  44.852  18.547   3.846
51130W        W23390  43.280  35.420  13.316
51131W        W23391   1.394   3.205  12.087
51132W        W23392  34.981  20.836  13.943
51133W        W23393  25.642   6.803   0.914
51134W        W23394   0.203  41.729  10.889
51135W        W23395  35.737   7.928  13.458
51136W        W23396  30.914  37.563   3.665
51137W        W23397  36.322  33.675  12.439
51138W        W23398  15.184  12.002   2.277
51139W        W23399  39.135   7.731  13.442
51140W        W23400  17.003  24.699   4.132
51141W        W23401  27.144   6.660  13.753
51142W        W23402  18.073  33.357  12.283
51143W        W23403  28.424  11.558  12.032
51144W        W23404  20.708  36.912   2.306
51145W        W23405   5.867   0.012   1.383
51146W        W23406  37.570   4.403   1.272
51147W        W23407  22.294   5.698  11.327
51148W        W23408  25.508  34.596  11.096
51149W        W23409  12.356  32.514   2.095
51150W        W23410  38.597  24.736  11.017
51151W        W23411  12.012  15.141   2.368
51152W        W23412  22.784   5.188  13.394
51153W        W23413  27.198  14.235  13.176
51154W        W23414  43.589  34.181  12.969
51155W        W23415   0.969   7.479  11.031
51156W        W23416  17.121  44.034  13.872
51157W        W23417  18.080  32.494  13.927
51158W        W23418   2.859   6.239  14.102
51159W        W23419  12.150  26.518   5.221
51160W        W23420  27.651  16.359  12.432
51161W        W23421   7.825  13.150   2.299
51162W        W23422  36.524  30.340   4.414
51163W        W23423  21.634  11.607   3.644
51164W        W23424  17.188  15.969   1.871
51165W        W23425  19.673   9.218  11.619
51166W        W23426  20.220  16.287  14.448
51167W        W23427   2.709  16.794  13.590
51168W        W23428  37.597  34.009   1.757
51169W        W23429  17.618  39.244   4.510
51170W        W23430  34.296  35.302  10.656
51171W        W23431  29.382  26.387  10.762
51172W        W23432  22.253  20.100  10.189
51173W        W23433  20.446  39.592  13.420
51174W        W23434  31.356  12.067   0.458
51175W        W23435  14.126   9.655   4.567
51176W        W23436  23.205  20.579  13.747
51177W        W23437  20.517  26.996  14.221
51178W        W23438  25.727   2.211  11.153
51179W        W23439  37.678  18.774   3.775
51180W        W23440  30.469  31.127  14.734
51181W        W23441  15.702  19.222  11.542
51182W        W23442  36.295  18.594   4.677
51183W        W23443  37.257  21.153   0.289
51184W        W23444   4.625  21.192   4.542
51185W        W23445  14.323  16.920   4.198
51186W        W23446  43.388  37.569  12.829
51187W        W23447   6.230  19.551   0.439
51188W        W23448  44.998  16.622  14.918
51189W        W23449  30.610   7.726   3.774
51190W        W23450  29.858  27.596   4.017
51191W        W23451  37.332  37.472   2.750
51192W        W23452  11.096   7.325  13.557
51193W        W23453  38.314  40.025  11.080
51194W        W23454   6.282   3.250   1.755
51195W        W23455  25.542   3.772  13.426
51196W        W23456  30.354  26.923   4.700
51197W        W23457  26.243  28.457   4.045
51198W        W23458  17.674  24.914   2.782
51199W        W23459  33.609  35.645   0.953
51200W        W23460   2.013  27.972  11.722
51201W        W23461   0.515  26.400   3.299
51202W        W23462  10.592  39.041   1.709
51203W        W23463   7.818  12.144  13.382
51204W        W23464  30.994  37.852  12.854
51205W        W23465  44.656  26.285  13.062
51206W        W23466  39.569   1.443  13.877
51207W        W23467  22.766   1.910  13.171
51208W        W23468   4.379   7.839  11.956
51209W        W23469   5.289  28.684  11.075
51210W        W23470  32.465  34.136  13.934
51211W        W23471  13.624  21.125   1.209
51212W        W23472  15.133   4.427  13.131
51213W        W23473  21.468   8.161  11.675
51214W        W23474  25.248  17.256   0.985
51215W        W23475   7.341  15.288  13.379
51216W        W23476  38.881  17.165   1.140
51217W        W23477  15.555  12.053  11.179
51218W        W23478   4.381   6.260  13.527
51219W        W23479  35.339  30.186  10.754
51220W        W23480  29.979  33.436  14.930
51221W        W23481  35.756  24.892  14.471
51222W        W23482  30.585  17.157  12.091
51223W        W23483  27.963  19.540  10.262
51224W        W23484  17.932  24.135   4.421
51225W        W23485   0.954  25.489  12.609
51226W        W23486  43.078  20.641  14.325
51227W        W23487  20.216   8.249  14.918
51228W        W23488  25.147  39.233  14.362
51229W        W23489  27.573  31.932  14.454
51230W        W23490  21.292  16.970  12.955
51231W        W23491  11.155  21.705   0.035
51232W        W23492  34.967  30.088   1.956
51233W        W23493  23.793  39.287   0.790
51234W        W23494  21.809   4.075  13.077
51235W        W23495  22.160  36.335  10.495
51236W        W23496  35.005  14.900   0.664
51237W        W23497  23.241  21.685  12.457
51238W        W23498   9.831  38.356   2.747
51239W        W23499  14.945   9.360   2.383
51240W        W23500   5.226  36.546   4.027
51241W        W23501   3.885  34.617   2.617
51242W        W23502  29.970  31.263  14.602
51243W        W23503  21.342  26.986  11.640
51244W        W23504  15.124  10.078  14.161
51245W        W23505  16.049  23.546   4.418
51246W        W23506   0.753  37.654  10.715
51247W        W23507   1.508  23.662   4.425
51248W        W23508  22.022  22.567   4.609
51249W        W23509  31.072  27.022   2.162
51250W        W23510   8.646  34.911   3.225
51251W        W23511   6.672  40.697   1.786
51252W        W23512   4.901  35.998   2.177
51253W        W23513  40.900  17.085  14.956
51254W        W23514   0.038  23.161   4.967
51255W        W23515  31.642  43.067   1.460
51256W        W23516  17.056  20.674   3.318
51257W        W23517  44.860  20.287   4.451
51258W        W23518  43.025  10.329   5.110
51259W        W23519  12.868  34.960   2.193
51260W        W23520  20.071   0.980   2.619
51261W        W23521   0.524   3.273   1.636
51262W        W23522  16.875   6.187   4.124
51263W        W23523  14.009   1.486  13.413
51264W        W23524  14.145   2.362   4.013
51265W        W23525   6.494  12.183   4.571
51266W        W23526   3.243  38.526  14.339
51267W        W23527  44.439  43.186  13.353
51268W        W23528  11.583  42.125   3.317
51269W        W23529  43.101  30.792  11.437
51270W        W23530  14.153  15.275   1.049
51271W        W23531  33.274   9.816  10.153
51272W        W23532  41.875  24.131   0.504
51273W        W23533  38.867  16.850  12.680
51274W        W23534  20.333  23.055  11.926
51275W        W23535  31.688  17.821  12.014
51276W        W23536  10.806   7.851   4.109
51277W        W23537  10.890  10.732  14.411
51278W        W23538  38.163  33.577  13.449
51279W        W23539  22.651  19.278   3.761
51280W        W23540  23.882  15.787   0.914
51281W        W23541   4.339  40.497  13.398
51282W        W23542  34.047  38.325  11.531
51283W        W23543  26.870  24.563   1.386
51284W        W23544  21.707   3.530  14.809
51285W        W23545  38.306  41.768  13.662
51286W        W23546  21.542  12.757   1.593
51287W        W23547   8.403  32.003   3.335
51288W        W23548  26.526  13.154   1.337
51289W        W23549  33.093  29.567  14.545
51290W        W23550  34.342  40.984   3.237
51291W        W23551  22.574  24.592   0.796
51292W        W23552  30.384  12.594  11.552
51293W        W23553  19.124  31.021  12.049
51294W        W23554  11.225   6.674  14.916
51295W        W23555   9.094  27.411  10.683
51296W        W23556  23.754  20.032   2.336
51297W        W23557   6.665  13.615   2.365
51298W        W23558  38.548  30.407   2.626
51299W        W23559   2.330   5.387   1.397
51300W        W23560  44.916  34.000  14.972
51301W        W23561   0.333   9.209  14.024
51302W        W23562  10.878  30.924  13.905
51303W        W23563  23.129   8.753  10.648
51304W        W23564  42.054  41.831  13.092
51305W        W23565  12.684   8.444  14.741
51306W        W23566  38.940  43.360  11.156
51307W        W23567  26.245  13.607   1.886
51308W        W23568  38.072  11.364   2.872
51309W        W23569  37.530  17.834   3.584
51310W        W23570  24.161  38.462  10.378
51311W        W23571  31.507   0.633  14.753
51312W        W23572  35.999  32.038  12.039
51313W        W23573  30.660   9.231   1.466
51314W        W23574  39.277  28.581  13.153
51315W        W23575  26.690  40.859   0.404
51316W        W23576  12.380  36.890  14.878
51317W        W23577   9.369  13.796   4.348
51318W        W23578  15.187  21.496   3.200
51319W        W23579  11.899   7.009  11.859
51320W        W23580  11.649  18.178   1.872
51321W        W23581  13.259  12.279  12.941
51322W        W23582  24.022   2.281   3.947
51323W        W23583  16.850   4.349  10.525
51324W        W23584  30.857   7.529   3.363
51325W        W23585  25.273  40.866  11.957
51326W        W23586  29.117  25.575  12.653
51327W        W23587  14.942  23.590  10.479
51328W        W23588   5.809  33.614   3.268
51329W        W23589  28.868  31.504   4.776
51330W        W23590  32.055  22.595   4.631
51331W        W23591  15.393  18.688  13.462
51332W        W23592   9.701   5.672   4.291
51333W        W23593  32.648  27.026  14.822
51334W        W23594  43.312  10.332   2.371
51335W        W23595   5.400  25.276  12.928
51336W        W23596  40.360  44.097   3.190
51337W        W23597  33.074  34.928  13.027
51338W        W23598  12.571  19.883  11.120
51339W        W23599  17.569  12.695  11.880
51340W        W23600   6.432  32.672  14.428
51341W        W23601  14.315  31.652   4.885
51342W        W23602  14.132  32.640   5.002
51343W        W23603  21.527   4.465   4.964
51344W        W23604  26.016  33.618   0.822
51345W        W23605  17.067  26.198   1.306
51346W        W23606  13.707  18.029   2.344
51347W        W23607  44.054  32.651   0.460
51348W        W23608  13.205   1.425   1.381
51349W        W23609  13.709  24.526   4.336
51350W        W23610  26.115   4.003  12.874
51351W        W23611  30.488  39.606  13.271
51352W        W23612  27.187  23.468   2.944
51353W        W23613   1.387  37.017   0.942
51354W        W23614  16.824  20.340   4.373
51355W        W23615  21.427  10.210   4.879
51356W        W23616   7.750  26.653   0.471
51357W        W23617  13.382   9.005   2.310
51358W        W23618  43.359  15.609   2.706
51359W        W23619  25.436  40.777   3.350
51360W        W23620  23.621   2.425  12.423
51361W        W23621   2.530  38.994  14.327
51362W        W23622  12.337  31.662   2.366
51363W        W23623  13.818   8.308   3.234
51364W        W23624  20.698  15.050  12.124
51365W        W23625  12.438  10.726  13.805
51366W        W23626   4.844  34.178   2.749
51367W        W23627   0.243  35.497  12.332
51368W        W23628   8.898  35.136   3.642
51369W        W23629  38.290  19.140   0.850
51370W        W23630  28.283  39.577   3.703
51371W        W23631  41.971  19.293  11.999
51372W        W23632   2.391  21.279  10.622
51373W        W23633   8.603  16.599   1.861
51374W        W23634  18.491  36.966  13.230
51375W        W23635  20.091  16.829  13.477
51376W        W23636  42.805  41.991   3.765
51377W        W23637  34.044  31.393   0.286
51378W        W23638  43.818  27.228   0.415
51379W        W23639  39.090  16.354   2.730
51380W        W23640  10.296  33.811   1.810
51381W        W23641  18.488   0.360   3.741
51382W        W23642  17.100  22.680  11.639
51383W        W23643  31.605   6.197  12.428
51384W        W23644  13.782  24.230  10.678
51385W        W23645   2.857  38.074  14.701
51386W        W23646  24.147  13.205   0.274
51387W        W23647  33.051  20.434   0.954
51388W        W23648   2.737  32.364  14.296
51389W        W23649  37.705  12.112  14.583
51390W        W23650  42.996  34.812   1.891
51391W        W23651  20.351  22.847   4.129
51392W        W23652   0.134   7.993   4.975
51393W        W23653  30.986  41.920   4.518
51394W        W23654  29.819  28.890   5.456
51395W        W23655  32.094   4.942   0.825
51396W        W23656   0.909  29.240   3.340
51397W        W23657  27.547   0.364   0.493
51398W        W23658  34.129  21.670  11.108
51399W        W23659  35.813  39.439  13.619
51400W        W23660  19.167  10.068  12.987
51401W        W23661  19.295  44.618   3.883
51402W        W23662  43.295   5.789   3.289
51403W        W23663  25.427  14.654   3.155
51404W        W23664   0.928   5.350  10.727
51405W        W23665   8.701   1.806   0.282
51406W        W23666  40.079  22.577  13.753
51407W        W23667  44.306  34.595   4.585
51408W        W23668  36.672   8.288  10.323
51409W        W23669  40.944  30.503   4.667
51410W        W23670  30.047  33.597   3.277
51411W        W23671   8.307  27.573  11.094
51412W        W23672  16.342  12.669   4.193
51413W        W23673  34.333  21.507   5.215
51414W        W23674   6.218  37.682   0.397
51415W        W23675  36.830  30.565  12.819
51416W        W23676   3.317  37.636  14.502
51417W        W23677   7.240  38.488  12.017
51418W        W23678   4.306   4.992  11.141
51419W        W23679  40.814  27.153   3.767
51420W        W23680  37.479  25.980   2.382
51421W        W23681  35.624   7.718   1.307
51422W        W23682  18.503  18.631  12.784
51423W        W23683  39.782  25.047  14.812
51424W        W23684  26.595   9.543  13.859
51425W        W23685  16.020  32.183   0.291
51426W        W23686  15.684   8.386  13.752
51427W        W23687  28.477  13.265  11.359
51428W        W23688  10.805  12.335   3.258
51429W        W23689   0.815  18.174  10.595
51430W        W23690   7.360   3.246   0.747
51431W        W23691  34.421  24.963   1.285
51432W        W23692  25.080   7.950  11.927
51433W        W23693  27.931   2.144   3.129
51434W        W23694   5.360   0.836   3.287
51435W        W23695  35.611   0.901  11.124
51436W        W23696  30.410  24.988  10.752
51437W        W23697  39.777  29.558   3.213
51438W        W23698  41.590   6.900  12.963
51439W        W23699  40.868  37.307   0.669
51440W        W23700  17.518  15.885  14.290
51441W        W23701   6.826  41.553   0.828
51442W        W23702  28.553  28.109   3.820
51443W        W23703  36.481   3.501   5.200
51444W        W23704  43.003  19.371  12.037
51445W        W23705  26.611   0.421   0.042
51446W        W23706  44.438  14.825   3.433
51447W        W23707  13.944   8.637  10.979
51448W        W23708  15.260   0.456   3.189
51449W        W23709  16.792  29.327  13.849
51450W        W23710  13.836  39.994   1.227
51451W        W23711  26.698  16.701  10.523
51452W        W23712  42.505  25.480  12.809
51453W        W23713  18.048  37.802  12.442
51454W        W23714  43.728  37.724   2.844
51455W        W23715  38.490  13.843   2.313
51456W        W23716  17.786  41.429   1.495
51457W        W23717  14.129  28.112   4.101
51458W        W23718  17.155  35.015   2.873
51459W        W23719  29.626   8.566   4.551
51460W        W23720  26.318  28.853  10.280
51461W        W23721  41.584  41.023  14.958
51462W        W23722   6.840  31.408  12.463
51463W        W23723  40.051  26.474   0.908
51464W        W23724  14.286  21.945  10.989
51465W        W23725  24.668  21.218   4.174
51466W        W23726  28.752  34.399   4.470
51467W        W23727  26.926  36.986   0.018
51468W        W23728  17.035  12.159   1.881
51469W        W23729  36.569   1.946   2.196
51470W        W23730  41.854  25.528   1.700
51471W        W23731  19.787  29.502  10.639
51472W        W23732  19.119  15.436  12.987
51473W        W23733  36.581  22.117   2.455
51474W        W23734  29.285  21.293  11.197
51475W        W23735  34.544   9.776   2.127
51476W        W23736  18.442  31.776   4.606
51477W        W23737  23.703  17.391  11.033
51478W        W23738  19.118  23.946  13.518
51479W        W23739  34.909  43.294   4.734
51480W        W23740  23.063  35.110  14.290
51481W        W23741  38.704  11.653  13.276
51482W        W23742  18.108  39.986  14.382
51483W        W23743  15.853  34.995   0.460
51484W        W23744  20.294   0.889   0.459
51485W        W23745   4.731  25.173   3.410
51486W        W23746   7.818  15.155  14.874
51487W        W23747  25.483  38.768  13.886
51488W        W23748   0.397  37.573  12.353
51489W        W23749   4.200   2.432   4.112
51490W        W23750  20.922  13.664   0.786
51491W        W23751  13.151  21.009   5.049
51492W        W23752  25.955  14.222  13.926
51493W        W23753  10.420  19.676   2.412
51494W        W23754  43.904   2.659  14.814
51495W        W23755  22.980  23.744   4.324
51496W        W23756  21.654  10.201   3.867
51497W        W23757  36.715  39.266   3.606
51498W        W23758  38.468  36.087  13.976
51499W        W23759   0.445  35.480  13.250
51500W        W23760  20.141  29.405   1.543
51501W        W23761  26.032   6.213   0.323
51502W        W23762  21.991  33.621   0.450
51503W        W23763   0.077  32.712   0.281
51504W        W23764  16.097  34.908   3.116
51505W        W23765  37.048  40.656  10.941
51506W        W23766  21.193   4.195  13.131
51507W        W23767  31.952  18.596  11.595
51508W        W23768  37.910  42.568   4.540
51509W        W23769  22.310  23.531   1.926
51510W        W23770  33.223   5.302   0.360
51511W        W23771  25.476   7.947   4.621
51512W        W23772  43.348   2.303   4.897
51513W        W23773  21.904  42.403   2.878
51514W        W23774  40.578  21.754   3.683
51515W        W23775   1.677  44.832   1.419
51516W        W23776  33.903   3.565  12.774
51517W        W23777  15.512   7.650   4.469
51518W        W23778  35.630  41.923   0.058
51519W        W23779  42.008   5.575   4.270
51520W        W23780  25.024  12.927  11.184
51521W        W23781  42.368  39.017   0.022
51522W        W23782   2.585  18.712   0.865
51523W        W23783  15.118   0.340  13.351
51524W        W23784  11.159  19.108   1.355
51525W        W23785  40.121  25.447  13.890
51526W        W23786  12.253  26.741  12.330
51527W        W23787  12.876  40.730   1.817
51528W        W23788  22.305  40.562  11.064
51529W        W23789  10.917  20.242   4.492
51530W        W23790   7.709  40.887  12.043
51531W        W23791  43.994  22.262  14.396
51532W        W23792  17.453  15.759  10.229
51533W        W23793  14.032  10.829  14.252
51534W        W23794  20.009   8.328   2.407
51535W        W23795  21.475   1.295  11.915
51536W        W23796  26.285  21.304   2.851
51537W        W23797   0.891  32.622  13.406
51538W        W23798   1.980  25.157  14.489
51539W        W23799  34.236  11.398   4.719
51540W        W23800  18.441   4.728  12.501
51541W        W23801  26.745  33.314   0.338
51542W        W23802  37.567   0.870  12.067
51543W        W23803  42.748  11.562   1.157
51544W        W23804  38.719  22.719   4.990
51545W        W23805  17.151  27.214  13.551
51546W        W23806  30.971  11.687   3.661
51547W        W23807   8.416  15.511  13.019
51548W        W23808  38.495  27.956  11.720
51549W        W23809  34.054  19.174   2.216
51550W        W23810  10.673  42.203  13.112
51551W        W23811   7.293  11.050   1.897
51552W        W23812  30.370  27.573   4.145
51553W        W23813  36.946   4.742   0.289
51554W        W23814  10.217  21.109   4.738
51555W        W23815  28.054  25.926   1.759
51556W        W23816  24.615  27.169  11.042
51557W        W23817   8.700   1.433   1.843
51558W        W23818  31.201  29.826   3.367
51559W        W23819  28.176  17.755   0.946
51560W        W23820  40.888  23.766  10.734
51561W        W23821  44.609  37.323  10.027
51562W        W23822  37.957  18.143   3.216
51563W        W23823  13.786  18.359  12.996
51564W        W23824  36.095   9.286  11.965
51565W        W23825  11.696  26.565  10.099
51566W        W23826  31.980  26.075   4.618
51567W        W23827   5.415  37.541   2.614
51568W        W23828  42.594   8.347  14.845
51569W        W23829   7.773   7.146  14.842
51570W        W23830  20.675  44.814   3.263
51571W        W23831  11.370  38.587   4.456
51572W        W23832  32.893   3.147   3.874
51573W        W23833  20.023  11.591  14.305
51574W        W23834  26.466  23.228  13.344
51575W        W23835  23.143  26.680  13.560
51576W        W23836  29.662  34.020  11.113
51577W        W23837  12.223  43.745  12.846
51578W        W23838   2.772  34.452  10.785
51579W        W23839  26.612  32.562   3.433
51580W        W23840   2.674  31.957  11.566
51581W        W23841   4.661  41.499   3.894
51582W        W23842   1.438  22.656  11.931
51583W        W23843   9.276  35.485   4.563
51584W        W23844   1.078   2.776  12.128
51585W        W23845  13.200  24.663   4.277
51586W        W23846   7.416  28.080   1.264
51587W        W23847  41.760  37.729   3.113
51588W        W23848   0.014  23.605   4.059
51589W        W23849  20.348  29.142   4.035
51590W        W23850  26.062   8.743  13.418
51591W        W23851  28.757   3.943  12.053
51592W        W23852  34.122  42.240  11.574
51593W        W23853  30.952  39.976   3.204
51594W        W23854  31.748  25.235   1.943
51595W        W23855  42.138  13.713   3.810
51596W        W23856  15.650  12.322  11.631
51597W        W23857  29.586  11.171   1.227
51598W        W23858  30.379  42.687   2.660
51599W        W23859  44.467  38.773  13.258
51600W        W23860   1.733  11.670  14.745
51601W        W23861  30.414  12.129   2.310
51602W        W23862  30.758   2.403   4.644
51603W        W23863  43.879  41.974   1.595
51604W        W23864  39.011  26.024  14.337
51605W        W23865  21.269  23.463   5.029
51606W        W23866  34.506  39.008   0.055
51607W        W23867  24.334  27.929  12.916
51608W        W23868  11.601  21.555  10.522
51609W        W23869  26.119  17.564  11.629
51610W        W23870  35.075   5.753   4.453
51611W        W23871   9.331  18.798   3.136
51612W        W23872  31.552  38.262   4.210
51613W        W23873   9.924  23.261   1.711
51614W        W23874  17.735  22.174  12.992
51615W        W23875  30.156  13.512   1.406
51616W        W23876  22.850   9.190  10.723
51617W        W23877  13.450  42.218   3.221
51618W        W23878  22.623  17.098  10.777
51619W        W23879  20.979   3.421  12.575
51620W        W23880  38.494  24.981  10.533
51621W        W23881   1.280  22.009  13.815
51622W        W23882  36.611  16.141  11.186
51623W        W23883   2.873  40.413  13.686
51624W        W23884  31.048  26.920   4.071
51625W        W23885  24.098  19.774   4.596
51626W        W23886  37.909  26.111   1.632
51627W        W23887  41.326  35.414   0.634
51628W        W23888  30.396  23.243   3.062
51629W        W23889   8.885  38.366   3.745
51630W        W23890  15.596  17.736  14.278
51631W        W23891  36.815  41.885   3.718
51632W        W23892  44.132  42.253  11.570
51633W        W23893   3.362   6.291  13.943
51634W        W23894  33.409  19.337  14.566
51635W        W23895  14.567  27.916  10.106
51636W        W23896  33.443   2.422   2.344
51637W        W23897  27.956  42.346   3.133
51638W        W23898  31.198  28.305  11.483
51639W        W23899  34.673  29.636  12.030
51640W        W23900  27.479  11.620   3.040
51641W        W23901   7.161  27.564   4.390
51642W        W23902  31.993  33.364  12.985
51643W        W23903  27.687  22.998  11.115
51644W        W23904  24.071  18.637   1.646
51645W        W23905  24.458  20.539   1.781
51646W        W23906   0.241  26.922   4.142
51647W        W23907   6.312   5.866   4.578
51648W        W23908  44.202   8.500   3.725
51649W        W23909   5.791  37.262   2.830
51650W        W23910   1.790   2.432   3.278
51651W        W23911  21.536  16.696   1.923
51652W        W23912  34.741   2.430   4.499
51653W        W23913   5.368  35.640  12.148
51654W        W23914  31.957  17.156   3.369
51655W        W23915   4.885  21.216   4.082
51656W        W23916  27.375   4.952   1.152
51657W        W23917  34.478  18.012   2.716
51658W        W23918   7.808  14.727   0.328
51659W        W23919  43.306  19.195  11.278
51660W        W23920  26.671  21.457   3.884
51661W        W23921  14.577  16.021  10.816
51662W        W23922   7.899  23.941   5.520
51663W        W23923  13.367  36.835   3.858
51664W        W23924  32.382   8.775  13.794
51665W        W23925  37.904  23.593  13.271
51666W        W23926  21.584   3.709   2.177
51667W        W23927  37.934   9.637  14.786
51668W        W23928   8.327   7.329  13.393
51669W        W23929  16.647  10.240   4.226
51670W        W23930  16.584  12.722  11.522
51671W        W23931   5.039  35.590  11.498
51672W        W23932  41.574  10.732  11.830
51673W        W23933   5.818  19.812  13.189
51674W        W23934   7.396  29.016   0.286
51675W        W23935  30.163  15.680   0.054
51676W        W23936  32.356   6.299   3.498
51677W        W23937  44.909  15.261   4.411
51678W        W23938  21.568   7.396   1.708
51679W        W23939   8.803   2.185   2.354
51680W        W23940   6.763  27.156   1.906
51681W        W23941  22.484  13.386   1.329
51682W        W23942  13.070  32.134   3.366
51683W        W23943  32.465  23.049  14.559
51684W        W23944   3.241   1.524   2.212
51685W        W23945  17.347  43.026   4.666
51686W        W23946  30.327  22.935  14.875
51687W        W23947  17.263  33.391  14.364
51688W        W23948  21.235   9.355  13.427
51689W        W23949   1.964  31.556   2.248
51690W        W23950   4.380  21.475  10.863
51691W        W23951  42.938  29.203   0.386
51692W        W23952  34.262  20.770   9.834
51693W        W23953  24.538  38.233  14.845
51694W        W23954  21.055  39.767  12.837
51695W        W23955  16.692  37.311  12.651
51696W        W23956  40.798  13.446   4.721
51697W        W23957  18.764  44.968  11.072
51698W        W23958  28.645  44.443  14.030
51699W        W23959  18.308   1.975  13.890
51700W        W23960  11.076  43.749   2.152
51701W        W23961  12.751  35.490   2.190
51702W        W23962   9.234  26.028   0.280
51703W        W23963  24.145  21.948   4.176
51704W        W23964  25.600   5.081  14.267
51705W        W23965   9.159  16.153   0.671
51706W        W23966  12.004  38.776  13.478
51707W        W23967  28.528  40.532   0.895
51708W        W23968  16.015  35.099  11.107
51709W        W23969  14.874  36.060  12.774
51710W        W23970   9.176  11.367  14.329
51711W        W23971  44.327  32.814  13.121
51712W        W23972  12.303  13.854   3.382
51713W        W23973  11.126  32.120  14.386
51714W        W23974  21.836  31.601   4.265
51715W        W23975  33.391   1.003  11.002
51716W        W23976  15.669  34.321  11.965
51717W        W23977   4.506  19.637   1.988
51718W        W23978   7.345  36.676   0.446
51719W        W23979  24.641  22.112  12.979
51720W        W23980  39.495  39.988   2.013
51721W        W23981  32.100   6.036   3.111
51722W        W23982  37.922  25.644   0.656
51723W        W23983  11.166  37.032  11.912
51724W        W23984  18.262  17.622  14.930
51725W        W23985  32.083  41.982   0.838
51726W        W23986  18.196  33.054   1.865
51727W        W23987  15.592  18.579   1.752
51728W        W23988   9.980  14.542   0.310
51729W        W23989  13.759  21.652  12.938
51730W        W23990  30.652   4.333  13.813
51731W        W23991  17.843  38.894  13.916
51732W        W23992   3.287  19.754  11.671
51733W        W23993  20.549   1.489  13.881
51734W        W23994  17.783   8.275   0.833
51735W        W23995  14.863  19.647  13.935
51736W        W23996  39.377  11.799  14.482
51737W        W23997  13.570  31.272   2.111
51738W        W23998   1.891  33.685  13.944
51739W        W23999  43.194  42.953  14.115
51740W        W24000  23.123  43.408  14.524
51741W        W24001  24.378  29.288  14.454
51742W        W24002   4.083  36.020   4.771
51743W        W24003   4.421  32.680   4.056
51744W        W24004  35.960  17.511  10.632
51745W        W24005  34.152  35.564  14.043
51746W        W24006  40.922   0.922  14.780
51747W        W24007  19.037  28.688  11.674
51748W        W24008  15.570  17.601   1.651
51749W        W24009  13.617   3.057   0.750
51750W        W24010   1.353   1.210   4.266
51751W        W24011   9.235  30.669  14.452
51752W        W24012  23.525  27.461  11.570
51753W        W24013   3.763   6.540  14.133
51754W        W24014   2.824  19.421   4.520
51755W        W24015  25.709  10.443  11.089
51756W        W24016  42.580  41.006  14.695
51757W        W24017  16.764  28.942   0.356
51758W        W24018  35.055  34.012  12.184
51759W        W24019   4.951  24.182  13.391
51760W        W24020   5.729   5.739  11.073
51761W        W24021   5.747  24.556  12.602
51762W        W24022  42.064  40.597   1.454
51763W        W24023  37.675  11.282   1.015
51764W        W24024  29.566  12.727   3.183
51765W        W24025   6.302  42.215   0.654
51766W        W24026  20.360  44.074   0.492
51767W        W24027  23.517  27.815  13.324
51768W        W24028  31.746  32.203   9.872
51769W        W24029   1.800  41.400  10.899
51770W        W24030  34.520  31.882   9.885
51771W        W24031  22.759  30.171   3.372
51772W        W24032   8.224  31.273  14.137
51773W        W24033  38.586  28.870  14.991
51774W        W24034  31.549  42.407  12.634
51775W        W24035  31.806  10.614   5.534
51776W        W24036  42.434  14.876   3.492
51777W        W24037  27.697  34.201  12.843
51778W        W24038   7.720  24.173   1.716
51779W        W24039  44.726  42.269  14.464
51780W        W24040  26.689  35.180   1.811
51781W        W24041  15.839   6.744   0.303
51782W        W24042  40.022  27.050  11.172
51783W        W24043  10.417  11.746   1.836
51784W        W24044  15.695  19.172  14.330
51785W        W24045  24.594  42.808   3.158
51786W        W24046  43.827  19.181  14.426
51787W        W24047  33.323  16.284  11.956
51788W        W24048   3.869  30.976  12.561
51789W        W24049   9.893  44.866   2.138
51790W        W24050   2.695  35.383   0.882
51791W        W24051  41.115  11.141  12.613
51792W        W24052   1.434   8.403  14.755
51793W        W24053   4.354  24.942  13.612
51794W        W24054  35.047  20.220  12.013
51795W        W24055  14.535  22.727   3.156
51796W        W24056  35.789  29.150   0.548
51797W        W24057  32.183   1.407  13.546
51798W        W24058  44.805  18.597  11.691
51799W        W24059  12.381   0.154  12.629
51800W        W24060  15.561  21.264  12.860
51801W        W24061  40.846  15.809  11.603
51802W        W24062  21.745   0.729  14.997
51803W        W24063   0.939  40.952  13.573
51804W        W24064  15.935  32.063   1.291
51805W        W24065  24.418  22.343   3.622
51806W        W24066   1.512  23.962  12.984
51807W        W24067  18.369  22.881   0.935
51808W        W24068  37.738  18.492   4.816
51809W        W24069   5.377  17.442  13.312
51810W        W24070  34.340  39.419  14.763
51811W        W24071  28.958  26.793  12.685
51812W        W24072   1.487  37.510  12.874
51813W        W24073  16.321  18.619   3.703
51814W        W24074   1.646  30.954  10.628
51815W        W24075   5.410  22.476  14.208
51816W        W24076  15.571   0.533  10.563
51817W        W24077  16.298  40.339  12.021
51818W        W24078  12.698  12.760   1.336
51819W        W24079  34.162  29.064   1.951
51820W        W24080   8.503  44.948  11.585
51821W        W24081   1.337  37.833   1.577
51822W        W24082   1.213   5.359   4.040
51823W        W24083  37.683  42.575  13.341
51824W        W24084   8.365  33.900  10.762
51825W        W24085   1.173  10.281   2.783
51826W        W24086  30.922  44.943  10.994
51827W        W24087  44.315  19.280  14.331
51828W        W24088  34.137  28.497  13.412
51829W        W24089  21.547  13.844  14.440
51830W        W24090  40.953  18.072  10.815
51831W        W24091   4.729  23.542   3.034
51832W        W24092  22.868  21.466   0.270
51833W        W24093  44.036  30.853  11.047
51834W        W24094  29.640  35.426   4.159
51835W        W24095  27.006   8.308   4.308
51836W        W24096  31.891  33.423   1.746
51837W        W24097  36.294  38.311  14.981
51838W        W24098   5.685  14.349  11.635
51839W        W24099   5.745   5.507  12.751
51840W        W24100  34.014   3.891   2.840
51841W        W24101  41.492   7.449  11.082
51842W        W24102  15.958   7.204   2.900
51843W        W24103  34.418  29.302  12.669
51844W        W24104  14.838  15.803  11.600
51845W        W24105  11.076  36.366   2.802
51846W        W24106  41.827  15.715   4.776
51847W        W24107   8.183  20.088  11.508
51848W        W24108   4.729   7.657   0.781
51849W        W24109  44.854  21.593  13.467
51850W        W24110  42.893  23.444  11.056
51851W        W24111  27.682  29.179  10.677
51852W        W24112  39.149  37.430   4.584
51853W        W24113   5.468  18.372  10.861
51854W        W24114  35.055  43.891   1.018
51855W        W24115  33.440  32.003   2.196
51856W        W24116  10.461   1.825   5.144
51857W        W24117   7.071  35.282   1.820
51858W        W24118  27.732   7.890   1.459
51859W        W24119  34.813   7.133  14.527
51860W        W24120   9.171  32.357  12.873
51861W        W24121  23.066  36.381  12.462
51862W        W24122  15.946  29.215  13.853
51863W        W24123  15.651  20.202  14.300
51864W        W24124  23.188   3.633   4.121
51865W        W24125  25.008  25.150  10.058
51866W        W24126  30.354  12.846  13.797
51867W        W24127  23.821  10.957   4.299
51868W        W24128  30.910  39.988  11.861
51869W        W24129  32.160   3.773  12.569
51870W        W24130  35.142  26.462   1.297
51871W        W24131  13.389  39.904   0.151
51872W        W24132  40.250   5.691   1.384
51873W        W24133  15.694   2.234   0.304
51874W        W24134  30.377   1.958   0.198
51875W        W24135  30.423  25.041   2.701
51876W        W24136  26.755  39.387   4.579
51877W        W24137  27.065   5.713   3.629
51878W        W24138  27.830  12.710  13.578
51879W        W24139  36.337  28.017   2.915
51880W        W24140  37.536   0.478  10.574
51881W        W24141  15.833  27.437  11.282
51882W        W24142  37.589   5.427   0.924
51883W        W24143   2.818   4.714   0.128
51884W        W24144  39.343   4.472  13.416
51885W        W24145  44.478  16.122  11.076
51886W        W24146  13.616   2.770   2.044
51887W        W24147  23.960  29.622   4.737
51888W        W24148   2.170  25.451   4.484
51889W        W24149  38.372  14.591   1.275
51890W        W24150   3.207   1.290   0.300
51891W        W24151  12.506  20.435   0.702
51892W        W24152   9.863  29.398   3.175
51893W        W24153  28.475  11.154   2.720
51894W        W24154   5.432  15.786  14.241
51895W        W24155  44.241  10.271   0.284
51896W        W24156   6.972  18.655   4.776
51897W        W24157  40.926   6.835   0.219
51898W        W24158  17.732  38.594  12.950
51899W        W24159  21.698  43.533   1.810
51900W        W24160  28.110  11.872   0.450
51901W        W24161  27.031   9.027  11.840
51902W        W24162  27.637  37.880  10.689
51903W        W24163  21.166  31.207   0.944
51904W        W24164  20.177  16.338   0.914
51905W        W24165  13.943  31.455   3.493
51906W        W24166  18.612  16.696   1.838
51907W        W24167   0.006   0.381  12.503
51908W        W24168  42.902  31.059   0.208
51909W        W24169  33.775  38.520  13.190
51910W        W24170  21.556  30.896  11.088
51911W        W24171  41.025  12.873  12.876
51912W        W24172  34.869  16.995  13.087
51913W        W24173  25.936   2.988  14.783
51914W        W24174  38.304  14.161  13.364
51915W        W24175  18.627  20.227  13.384
51916W        W24176  29.391  38.923   0.831
51917W        W24177  11.599  30.998   3.837
51918W        W24178  27.223  27.321   0.833
51919W        W24179  44.868  11.140   1.300
51920W        W24180  24.237   6.991   2.229
51921W        W24181  11.642  15.163  11.634
51922W        W24182  18.720  18.258   1.800
51923W        W24183  23.803  12.163   4.838
51924W        W24184  17.405  36.925   3.237
51925W        W24185  20.112   4.412  13.990
51926W        W24186  40.356  43.387  13.346
51927W        W24187  43.925  32.980  14.907
51928W        W24188  41.471  42.121   3.245
51929W        W24189  15.517   2.648   2.165
51930W        W24190   3.197   1.456  12.478
51931W        W24191  12.240   0.241   3.427
51932W        W24192  34.962   8.824   3.785
51933W        W24193  31.062   7.315  11.938
51934W        W24194  14.073   8.102   2.796
51935W        W24195  13.129  32.259   4.975
51936W        W24196  28.382  30.539   1.769
51937W        W24197  34.337  39.002   0.934
51938W        W24198  37.959  44.333  14.119
51939W        W24199  40.316   3.354   0.517
51940W        W24200  17.053  37.455   3.817
51941W        W24201   0.853  38.941   4.035
51942W        W24202  21.048   3.666   3.084
51943W        W24203  30.198  26.183   4.108
51944W        W24204  17.294  37.829  14.968
51945W        W24205   6.000  34.055  10.995
51946W        W24206  24.748  26.081   4.462
51947W        W24207  25.135  10.231   2.836
51948W        W24208  43.219  23.317   1.326
51949W        W24209   9.392  37.152   4.581
51950W        W24210  19.607  32.620   1.875
51951W        W24211  24.734  42.451   2.340
51952W        W24212  14.411  29.149   4.965
51953W        W24213  21.453  13.610  13.976
51954W        W24214  39.074   1.010  13.920
51955W        W24215  27.163  29.603  12.448
51956W        W24216  39.677  14.314  14.278
51957W        W24217  20.775  14.165   3.115
51958W        W24218   9.207  44.971   2.747
51959W        W24219   6.805   1.902   2.910
51960W        W24220  26.931  35.359   2.688
51961W        W24221  29.150  29.182   3.724
51962W        W24222   7.310  32.075  12.972
51963W        W24223  39.618  15.395  12.939
51964W        W24224  42.212  38.040   4.061
51965W        W24225  13.717   1.237  14.755
51966W        W24226  14.034  23.748  11.646
51967W        W24227  16.645  34.651   1.812
51968W        W24228  18.788   8.618   4.670
51969W        W24229  27.971   7.140   2.312
51970W        W24230   6.446   0.923  10.156
51971W        W24231  17.134  13.174   3.494
51972W        W24232  26.419  41.389   2.832
51973W        W24233  44.070  41.007  13.926
51974W        W24234   4.957  16.941  12.465
51975W        W24235  34.062   1.654   4.863
51976W        W24236  24.622   6.085  12.071
51977W        W24237   1.349  32.182  11.608
51978W        W24238  32.093   7.301   0.826
51979W        W24239  22.923  13.121   1.249
51980W        W24240  33.621  16.114   2.301
51981W        W24241  35.866  12.401   2.737
51982W        W24242  32.748   6.830  13.411
51983W        W24243  16.382  19.172   1.004
51984W        W24244  16.462  10.665   2.633
51985W        W24245   4.750   9.930  12.013
51986W        W24246  31.086   1.801   1.918
51987W        W24247  30.947  22.345  12.103
51988W        W24248   1.192  23.571  10.954
51989W        W24249  18.643  17.273  14.731
51990W        W24250  29.939  37.445   5.248
51991W        W24251  11.210  39.428   1.191
51992W        W24252  18.682  10.924  14.546
51993W        W24253  16.780  26.007   1.810
51994W        W24254  33.158   8.763  12.831
51995W        W24255  10.216  40.772  12.071
51996W        W24256  34.871  37.772   2.719
51997W        W24257  26.747  21.123   2.777
51998W        W24258  13.265   3.545   2.420
51999W        W24259  34.607  10.495   3.270
52000W        W24260  27.239  37.396   2.779
52001W        W24261   8.371  31.297  14.982
52002W        W24262  16.808  23.970   4.705
52003W        W24263  25.447   7.297  12.833
52004W        W24264  29.266  11.970   3.848
52005W        W24265  29.540   4.196  12.381
52006W        W24266  38.418  26.255  13.033
52007W        W24267  25.582   0.540  13.365
52008W        W24268  31.961  33.441   2.598
52009W        W24269  44.059   9.346  13.166
52010W        W24270  39.156  37.803   0.509
52011W        W24271  41.989  15.797  12.439
52012W        W24272  39.114  31.587  14.516
52013W        W24273  41.477  20.319  14.335
52014W        W24274  28.004  38.535  13.966
52015W        W24275  38.884  13.731   2.639
52016W        W24276   1.469  28.922  11.608
52017W        W24277  33.614  26.807  11.609
52018W        W24278  42.469  21.179  14.410
52019W        W24279  42.365   7.831   3.292
52020W        W24280   1.820  39.051  11.083
52021W        W24281  41.089   5.890   0.391
52022W        W24282  17.561   7.921  11.593
52023W        W24283  14.320  33.893   2.736
52024W        W24284  35.902  27.153   2.737
52025W        W24285  28.464  38.890   4.116
52026W        W24286  27.642  37.343   5.036
52027W        W24287  36.967  13.310  12.195
52028W        W24288  16.748  14.049  13.920
52029W        W24289  27.913  38.859   0.898
52030W        W24290  17.167  11.241   3.834
52031W        W24291  12.949  25.545   0.878
52032W        W24292  18.032  20.536  13.414
52033W        W24293  18.193  20.033  14.849
52034W        W24294  29.195   3.739  14.610
52035W        W24295  11.608  22.963  14.994
52036W        W24296   1.481  13.022  11.237
52037W        W24297  17.391  34.133   0.735
52038W        W24298  10.811  16.611   1.151
52039W        W24299  32.136  36.878   4.890
52040W        W24300  30.199   3.421   3.877
52041W        W24301  39.540   1.288  10.844
52042W        W24302  11.843  35.161   1.283
52043W        W24303   6.690  11.788  10.701
52044W        W24304  26.973  39.969  10.705
52045W        W24305   0.515  32.955   2.322
52046W        W24306   7.484  37.545   2.729
52047W        W24307   9.945  21.521   4.259
52048W        W24308  36.813  42.352  10.704
52049W        W24309  21.115  29.737  13.609
52050W        W24310  16.747   8.030  14.547
52051W        W24311  10.131   5.382   0.340
52052W        W24312  35.991  30.822   4.618
52053W        W24313  22.749   9.473   3.641
52054W        W24314   4.847  32.108   4.659
52055W        W24315   7.566   8.630   0.056
52056W        W24316   9.751   8.060  11.454
52057W        W24317  29.195  32.231   5.365
52058W        W24318  35.355   2.426   2.715
52059W        W24319  40.974  32.744   0.959
52060W        W24320   3.149   3.451   3.317
52061W        W24321   2.788  33.724  13.849
52062W        W24322  43.389   8.393  11.516
52063W        W24323   8.488  36.995   4.103
52064W        W24324  25.212  32.429  11.139
52065W        W24325   8.449   7.865   2.406
52066W        W24326   1.891  37.155   1.831
52067W        W24327  26.085  10.894  11.970
52068W        W24328  13.534  33.513   4.536
52069W        W24329  33.281  27.661   1.778
52070W        W24330  41.864   4.945  12.442
52071W        W24331  20.898  30.042   5.062
52072W        W24332  18.770  10.673  11.235
52073W        W24333  17.789  32.929   0.218
52074W        W24334  20.634   4.826  13.719
52075W        W24335  15.719  43.972   0.479
52076W        W24336   0.699  25.098  14.314
52077W        W24337  28.093  30.712   1.356
52078W        W24338  20.695  31.815   3.214
52079W        W24339  22.063  37.239   4.153
52080W        W24340  18.959  14.715   4.202
52081W        W24341  40.489   6.865  12.493
52082W        W24342  15.891   5.337   0.798
52083W        W24343  31.584  17.903   1.745
52084W        W24344  37.052   8.151  12.973
52085W        W24345  10.691  20.578   0.153
52086W        W24346  14.398   4.352   4.570
52087W        W24347  22.566  36.019   3.028
52088W        W24348  15.852  44.074   1.685
52089W        W24349  18.545  43.497   2.164
52090W        W24350  14.864  19.302   0.936
52091W        W24351   1.893  22.730  14.569
52092W        W24352   7.620  13.437   0.917
52093W        W24353  17.408  27.841   3.604
52094W        W24354  41.445   8.890   4.168
52095W        W24355  39.073  29.269  12.687
52096W        W24356  18.191  29.230   2.010
52097W        W24357  12.063  37.793  11.477
52098W        W24358   4.740  36.011   1.143
52099W        W24359   3.685  23.488  13.464
52100W        W24360  33.801  20.799   2.255
52101W        W24361  42.442  36.184  13.583
52102W        W24362  14.554  28.312   5.628
52103W        W24363  33.279  26.665  14.239
52104W        W24364   5.507  13.743   4.656
52105W        W24365  40.200   7.141   4.039
52106W        W24366  34.992   2.661   0.331
52107W        W24367  23.682  22.074   3.292
52108W        W24368  44.846  29.044  12.471
52109W        W24369  40.544  26.638  10.714
52110W        W24370  26.217   6.844   4.819
52111W        W24371  34.987  39.936  12.140
52112W        W24372  30.425   5.735  12.848
52113W        W24373  22.716  44.818  13.960
52114W        W24374   3.932  41.960  14.359
52115W        W24375  26.714  31.039  10.633
52116W        W24376  34.901  17.825   0.346
52117W        W24377   1.041  20.735  12.632
52118W        W24378   2.561  36.656  11.131
52119W        W24379   9.324   2.426   3.798
52120W        W24380   0.749  12.086   0.305
52121W        W24381  32.471  39.698   2.350
52122W        W24382  18.275  23.719  11.582
52123W        W24383  19.625  40.333  13.991
52124W        W24384   5.759  36.633   3.237
52125W        W24385  24.645  12.688  10.913
52126W        W24386  37.557  21.628  11.807
52127W        W24387  12.677  34.705   2.917
52128W        W24388   4.272  39.809  12.034
52129W        W24389  41.172  42.693  12.585
52130W        W24390  13.143  29.933  11.621
52131W        W24391  13.638   1.271   1.107
52132W        W24392   2.401  14.826  14.464
52133W        W24393  15.973  28.072  13.329
52134W        W24394  12.181  35.139   2.650
52135W        W24395  22.031   5.029   1.886
52136W        W24396  25.176  21.521   2.270
52137W        W24397  19.117  29.945   4.510
52138W        W24398  44.403  24.747  10.183
52139W        W24399  36.169   6.414  11.470
52140W        W24400  27.137   9.361   4.681
52141W        W24401   4.701   6.395  12.017
52142W        W24402  32.405  14.760  12.022
52143W        W24403   1.203  22.960   1.352
52144W        W24404  30.544  29.681   2.790
52145W        W24405  20.771  43.710  14.789
52146W        W24406  41.262  35.619   3.852
52147W        W24407  25.597  16.828  13.775
52148W        W24408  35.429  14.971   0.947
52149W        W24409  32.894  43.424   4.241
52150W        W24410  25.310   0.676  13.778
52151W        W24411  28.436  36.289   2.628
52152W        W24412  43.264  32.013  11.645
52153W        W24413  26.971  20.333  14.296
52154W        W24414  21.516  21.337   4.992
52155W        W24415  16.635  34.207   4.906
52156W        W24416   1.673  16.096   4.233
52157W        W24417  18.521  13.387  13.798
52158W        W24418  31.500  18.556  14.520
52159W        W24419   7.100  40.863  12.953
52160W        W24420   7.914  32.959  13.581
52161W        W24421   2.410  19.025  11.104
52162W        W24422  35.382  19.748  14.400
52163W        W24423  32.238  42.918   2.064
52164W        W24424  11.670   3.376  12.386
52165W        W24425   2.325  41.512   2.689
52166W        W24426   8.206  24.027   4.111
52167W        W24427  15.458  33.621  12.921
52168W        W24428   2.445   7.652  14.415
52169W        W24429   9.211   1.435   3.539
52170W        W24430  10.606  43.303   1.770
52171W        W24431  29.644  23.703  14.968
52172W        W24432  20.120  26.379   2.825
52173W        W24433  26.163  34.407  13.903
52174W        W24434  42.230   6.118  11.901
52175W        W24435   9.374  22.716   9.993
52176W        W24436  10.326   3.732  12.465
52177W        W24437   0.256   7.290  13.946
52178W        W24438  28.609  35.180   1.074
52179W        W24439  38.396   5.621   4.254
52180W        W24440  15.583  38.932  10.481
52181W        W24441  43.515  32.904  13.349
52182W        W24442  19.428  21.242   1.290
52183W        W24443  14.119   0.917  13.336
52184W        W24444  43.092  15.299   1.886
52185W        W24445   1.641  18.747  14.209
52186W        W24446  39.253  31.445   3.273
52187W        W24447  24.576  12.288  14.509
52188W        W24448   9.569  43.208  13.107
52189W        W24449  35.547   6.960   4.305
52190W        W24450  16.862  17.847  11.598
52191W        W24451  12.890  14.968   0.443
52192W        W24452  10.580  39.023   4.563
52193W        W24453  33.478  36.310  14.796
52194W        W24454  29.557  23.094   2.678
52195W        W24455  32.547   6.312   3.994
52196W        W24456   8.368  27.006  14.798
52197W        W24457  14.806  26.672  11.145
52198W        W24458  33.020  24.727   2.895
52199W        W24459  14.960   9.801  13.462
52200W        W24460  15.094  41.023   0.148
52201W        W24461   6.500   5.115  14.852
52202W        W24462  18.250  18.414  12.381
52203W        W24463  17.244  10.622  12.784
52204W        W24464  44.469  15.817  14.607
52205W        W24465  11.073  17.673  12.892
52206W        W24466  12.547   6.884   2.260
52207W        W24467  36.309  15.142   4.090
52208W        W24468  16.343  23.112  10.683
52209W        W24469   2.580   2.033   0.256
52210W        W24470  19.640   3.109  12.463
52211W        W24471  37.989  17.194   3.651
52212W        W24472  27.444  24.703  14.370
52213W        W24473  12.161  26.677   9.909
52214W        W24474  39.965  41.519  14.791
52215W        W24475   2.042   8.266   0.788
52216W        W24476  44.782  43.792  13.952
52217W        W24477  32.994  29.138  13.773
52218W        W24478  17.524  39.009  11.037
52219W        W24479  16.676  44.349   1.156
52220W        W24480  43.981  33.752   4.134
52221W        W24481  24.257  38.528  12.873
52222W        W24482  19.535  20.203   1.464
52223W        W24483  22.554  42.472  14.760
52224W        W24484  28.302  30.425   0.975
52225W        W24485  17.608   9.430   0.019
52226W        W24486  36.047   0.050   0.598
52227W        W24487  15.035   4.944   2.828
52228W        W24488  35.320  43.920  11.930
52229W        W24489  24.966  26.261   1.949
52230W        W24490  37.789  16.515   0.931
52231W        W24491  24.630  41.582  11.606
52232W        W24492  10.739  39.891   0.746
52233W        W24493  37.738  25.454  13.872
52234W        W24494   2.699  35.440   3.333
52235W        W24495   9.427   7.408   2.219
52236W        W24496  35.611  43.042  13.316
52237W        W24497  11.295  44.827  13.287
52238W        W24498  33.741  25.738   2.506
52239W        W24499  18.690  32.494  13.275
52240W        W24500  16.816   5.858  11.980
52241W        W24501  38.832  13.864  14.973
52242W        W24502   2.345  22.661  11.095
52243W        W24503  23.164   1.218   4.620
52244W        W24504   8.337  28.235   4.319
52245W        W24505  33.143  31.120   0.309
52246W        W24506  20.694  16.245   0.951
52247W        W24507  19.121  30.164   3.157
52248W        W24508  15.247   9.682   0.442
52249W        W24509  30.429  40.408  13.970
52250W        W24510  34.069  21.873  14.317
52251W        W24511  13.218  28.639  11.132
52252W        W24512   8.621  26.195  10.507
52253W        W24513  42.241   8.281   3.019
52254W        W24514  30.165  20.227   4.613
52255W        W24515  43.477  13.812   2.142
52256W        W24516  33.180  22.156  13.431
52257W        W24517  23.796  37.454   1.983
52258W        W24518  23.521  26.131   0.662
52259W        W24519  21.402  42.994  12.337
52260W        W24520  15.360  18.202   1.436
52261W        W24521  27.624  41.400   3.662
52262W        W24522  25.482   8.790   3.075
52263W        W24523   5.240  15.690   1.326
52264W        W24524   0.039   2.472  13.097
52265W        W24525  26.141  19.787   1.010
52266W        W24526   3.565   1.337   5.054
52267W        W24527  26.193   1.748  14.506
52268W        W24528  38.231  41.246   3.142
52269W        W24529  28.693  12.540  13.214
52270W        W24530  24.099   1.049  13.555
52271W        W24531   2.321  27.221  13.716
52272W        W24532  31.492   4.135   1.269
52273W        W24533   9.626  15.376  13.424
52274W        W24534  23.995  40.572   3.414
52275W        W24535  17.021  10.307  11.011
52276W        W24536  36.507  36.153   4.662
52277W        W24537  34.462  14.767   1.937
52278W        W24538  22.741   6.645   4.344
52279W        W24539  31.407  14.255   2.006
52280W        W24540  31.152  21.276   9.703
52281W        W24541  29.841  21.248  10.809
52282W        W24542  11.326   8.392  12.089
52283W        W24543  35.918  35.891  14.029
52284W        W24544  16.839  24.567  14.327
52285W        W24545   6.132  23.977   0.316
52286W        W24546  34.286  33.144   2.775
52287W        W24547  30.502  26.084   1.318
52288W        W24548  25.425  12.749   4.685
52289W        W24549  10.729  29.626   1.119
52290W        W24550  29.526   0.826   0.063
52291W        W24551  41.397  16.137   1.236
52292W        W24552  22.568   5.307   2.356
52293W        W24553  43.349   6.424  11.139
52294W        W24554   4.475  27.694  14.776
52295W        W24555   3.210  28.504   3.588
52296W        W24556  32.618  40.038   0.454
52297W        W24557  22.315  11.177  12.079
52298W        W24558   7.388   8.231   1.757
52299W        W24559  28.286  26.832  11.823
52300W        W24560   4.724  19.155   1.992
52301W        W24561  18.320  39.684   3.029
52302W        W24562  41.882  10.316   3.925
52303W        W24563  13.872  40.833  14.846
52304W        W24564  44.277   8.731  12.024
52305W        W24565  18.163   9.223   3.271
52306W        W24566   0.749  23.180  14.505
52307W        W24567  32.053  29.702  12.985
52308W        W24568  17.844  30.734   1.264
52309W        W24569  29.415  43.437   1.952
52310W        W24570  32.424  19.117   2.389
52311W        W24571  40.795   9.818  12.314
52312W        W24572  35.623  42.728   4.136
52313W        W24573   6.275   5.526   0.810
52314W        W24574  18.155  23.212   2.118
52315W        W24575   9.578  43.459  11.571
52316W        W24576  12.220  34.001  10.539
52317W        W24577   9.202  12.436   2.210
52318W        W24578  19.162  23.226   4.727
52319W        W24579  22.685  23.674   1.155
52320W        W24580   7.816  23.752  13.444
52321W        W24581  20.272   1.994   2.819
52322W        W24582  43.625  38.474  11.307
52323W        W24583  31.361  34.381   2.776
52324W        W24584  22.739  19.062  12.392
52325W        W24585  43.576  16.059   2.455
52326W        W24586  40.888   4.429   3.242
52327W        W24587  23.301  24.380   2.936
52328W        W24588  44.140   3.268  13.492
52329W        W24589  35.870  36.884  11.253
52330W        W24590   2.172  31.496   1.288
52331W        W24591  17.687  33.404   1.182
52332W        W24592  29.699  39.596   0.457
52333W        W24593  15.706  14.949   0.396
52334W        W24594  25.534  10.454   1.189
52335W        W24595   8.278  17.222   4.798
52336W        W24596  21.037  40.220   4.485
52337W        W24597  29.154  16.140   3.222
52338W        W24598  16.313  14.659  10.808
52339W        W24599  15.187  30.869   3.729
52340W        W24600  33.031  10.844  12.337
52341W        W24601  38.308  17.701  12.542
52342W        W24602  40.248  39.903  14.877
52343W        W24603  36.035   5.813  10.622
52344W        W24604  38.708   0.773  14.891
52345W        W24605  37.595  15.510   5.209
52346W        W24606   8.856  37.870   3.663
52347W        W24607  44.052  28.737   4.021
52348W        W24608   4.620  20.610   2.425
52349W        W24609   9.218  12.892   4.152
52350W        W24610   2.203  43.447  11.703
52351W        W24611   0.729   5.259  14.714
52352W        W24612  11.139   5.117  10.481
52353W        W24613   3.789  24.088   1.125
52354W        W24614  42.144  15.656  13.220
52355W        W24615   6.732  14.699   4.154
52356W        W24616  12.185  23.109  13.144
52357W        W24617  36.956   3.379  13.614
52358W        W24618  16.229  20.623  13.059
52359W        W24619  24.923  42.744   0.821
52360W        W24620  39.057  17.318  12.505
52361W        W24621  20.133  36.279  14.267
52362W        W24622  31.880  36.879  10.390
52363W        W24623  17.411  30.457   5.109
52364W        W24624  12.980  28.926   4.057
52365W        W24625   2.516   8.433   0.922
52366W        W24626  28.441   6.477   0.659
52367W        W24627  13.065  32.216   0.976
52368W        W24628  38.659   6.414   0.840
52369W        W24629  41.284  41.306  14.456
52370W        W24630  38.621  43.808   2.191
52371W        W24631  18.004  39.784   2.145
52372W        W24632  14.833  33.272   4.362
52373W        W24633  34.822  30.450   3.223
52374W        W24634   8.828  38.775   2.346
52375W        W24635  29.651  20.466  11.139
52376W        W24636  44.453  19.292  12.570
52377W        W24637  36.498  35.689  11.485
52378W        W24638   6.353  15.190   3.307
52379W        W24639  37.981  12.636   2.407
52380W        W24640  33.668  26.068  11.927
52381W        W24641  13.333   0.936  14.882
52382W        W24642  35.024  23.244  14.878
52383W        W24643  36.809   2.558   0.002
52384W        W24644   5.640   5.835   2.317
52385W        W24645   1.992   1.020   3.334
52386W        W24646  20.513  21.152   4.115
52387W        W24647  31.155  28.378   4.229
52388W        W24648   6.669  42.333   4.757
52389W        W24649  33.493   2.849  13.793
52390W        W24650  10.829  14.622  13.836
52391W        W24651  17.228  32.068   1.485
52392W        W24652  28.940  17.187   0.523
52393W        W24653  33.159  23.776   2.458
52394W        W24654  43.814  21.769  14.504
52395W        W24655  26.943  42.930  10.781
52396W        W24656  18.409   2.227   4.889
52397W        W24657   3.719  19.014  12.079
52398W        W24658  36.820   6.664   3.772
52399W        W24659   2.656   5.660   2.657
52400W        W24660  14.127  32.116   4.980
52401W        W24661  43.949  32.587   2.057
52402W        W24662  29.167  22.225  13.428
52403W        W24663  23.093  26.969   2.827
52404W        W24664  36.556  41.571  14.959
52405W        W24665  13.692  41.916  10.698
52406W        W24666  31.919  44.336   2.572
52407W        W24667   1.909  13.854   0.325
52408W        W24668   2.167  25.700  13.923
52409W        W24669   8.619  43.396  12.493
52410W        W24670  30.470  23.797   0.986
52411W        W24671  18.708  29.112   2.789
52412W        W24672  36.371  16.789   4.383
52413W        W24673  23.968  32.063   1.058
52414W        W24674   2.523  35.990  14.328
52415W        W24675  36.156  39.367  10.705
52416W        W24676  41.038  44.706  14.338
52417W        W24677  30.310  39.658   1.304
52418W        W24678  23.542  27.603   1.183
52419W        W24679   3.639   3.248  10.959
52420W        W24680   0.547  30.675   0.453
52421W        W24681  40.141  44.329   9.894
52422W        W24682  18.863  23.629  14.936
52423W        W24683  22.005  10.118  11.205
52424W        W24684  30.011   4.738  13.386
52425W        W24685  14.933  44.854  13.180
52426W        W24686  17.601  12.230  10.306
52427W        W24687  23.624  17.088   2.598
52428W        W24688  10.699  42.915  10.727
52429W        W24689   2.358  11.098   9.930
52430W        W24690  26.527  35.335  11.117
52431W        W24691  21.086  12.469  13.464
52432W        W24692   3.349  15.537  12.412
52433W        W24693  23.791   3.697   0.284
52434W        W24694  42.523  13.614  12.351
52435W        W24695  26.354  33.256  13.410
52436W        W24696  36.377   2.461  13.770
52437W        W24697  25.668  30.160   1.917
52438W        W24698  39.724  19.272   0.229
52439W        W24699  29.541  37.188  11.600
52440W        W24700  40.051  41.261   3.197
52441W        W24701   0.920  22.008   2.798
52442W        W24702  12.367  28.940   4.077
52443W        W24703  37.327  33.578  11.932
52444W        W24704   6.421  23.036   0.272
52445W        W24705  40.804  44.442   3.215
52446W        W24706  33.634  27.837   0.618
52447W        W24707  39.369  42.998   3.128
52448W        W24708  41.754  23.150   2.883
52449W        W24709   4.245   3.564  13.096
52450W        W24710  21.571  27.665  14.453
52451W        W24711  20.570  22.578  11.290
52452W        W24712  38.334  16.231   1.996
52453W        W24713  30.935  10.732   1.162
52454W        W24714  17.315  15.042   3.241
52455W        W24715  12.482   0.921   9.925
52456W        W24716  28.023   2.485  10.884
52457W        W24717   4.257  31.854   4.486
52458W        W24718  36.371   9.820   0.086
52459W        W24719  23.552  17.159   4.604
52460W        W24720  35.065  17.315  11.687
52461W        W24721  15.166  37.796   3.657
52462W        W24722  33.067  29.611   4.271
52463W        W24723  35.006  35.595   2.847
52464W        W24724  36.669  42.381   3.825
52465W        W24725  15.083   7.747  13.577
52466W        W24726  15.253  22.078   4.072
52467W        W24727   8.451  32.379  11.939
52468W        W24728  33.194  13.492  12.518
52469W        W24729  18.513  15.851   2.804
52470W        W24730  43.355  31.097   2.620
52471W        W24731  29.922  22.612  14.822
52472W        W24732  42.996  10.764   4.099
52473W        W24733  41.385   6.224   2.289
52474W        W24734  37.401  10.869  10.630
52475W        W24735   5.192   2.457   4.123
52476W        W24736   9.308   9.299   2.372
52477W        W24737  32.503   8.315   0.523
52478W        W24738  15.266  39.189   2.415
52479W        W24739  21.689  34.093   4.786
52480W        W24740  23.746  20.012   3.224
52481W        W24741  27.215  30.544   3.734
52482W        W24742  18.368  16.405  12.423
52483W        W24743  35.521  44.852  13.971
52484W        W24744  25.618  36.384  11.586
52485W        W24745  12.578  17.174   3.665
52486W        W24746  34.410  11.613   2.158
52487W        W24747  13.011   3.823   4.060
52488W        W24748  27.520   3.444  11.149
52489W        W24749  42.216   6.028   4.076
52490W        W24750  30.458  23.927  10.780
52491W        W24751  30.340  23.767  13.639
52492W        W24752  30.456   4.791  13.619
52493W        W24753  23.168  15.132  14.582
52494W        W24754  10.722  34.421   3.758
52495W        W24755  31.917  10.959   3.685
52496W        W24756  22.501  37.582  13.288
52497W        W24757  41.298   3.172  14.022
52498W        W24758  31.388  28.678   1.283
52499W        W24759  20.043  41.302  13.962
52500W        W24760   1.137  30.954  10.700
52501W        W24761  20.601  34.968  13.766
52502W        W24762  28.515  41.254  11.486
52503W        W24763  13.175  17.268   0.367
52504W        W24764  24.291  39.791  12.078
52505W        W24765  16.833  13.186  11.642
52506W        W24766  33.912  40.650  14.620
52507W        W24767  27.990  37.286  11.137
52508W        W24768  12.385   2.665   2.713
52509W        W24769   0.989  13.852  11.113
52510W        W24770  41.274  25.234   3.146
52511W        W24771   0.294  35.046   2.800
52512W        W24772  30.018   1.734   3.448
52513W        W24773  19.976  29.962   0.255
52514W        W24774  18.782  18.631   1.002
52515W        W24775   1.797  40.779  11.647
52516W        W24776   0.891   2.172  13.960
52517W        W24777  28.660   4.975   0.755
52518W        W24778   3.252  20.326   1.817
52519W        W24779  10.035  32.879  14.824
52520W        W24780   0.737  38.839   2.222
52521W        W24781  26.545  12.715   3.651
52522W        W24782   4.151  15.180   4.204
52523W        W24783  16.127  19.118   4.598
52524W        W24784  40.116  17.195  12.696
52525W        W24785  24.572  18.459  11.978
52526W        W24786  14.359  26.413  14.324
52527W        W24787  10.137  28.438  14.047
52528W        W24788  19.572  20.769   0.599
52529W        W24789  43.538  35.120   0.028
52530W        W24790   2.725  37.779  11.939
52531W        W24791  19.168   8.208  14.808
52532W        W24792  29.950   2.490  11.989
52533W        W24793   0.815   8.449  10.470
52534W        W24794  34.386   8.610  14.757
52535W        W24795  39.302  10.446   2.187
52536W        W24796  22.541  29.248   3.699
52537W        W24797  17.700  24.930   0.444
52538W        W24798   3.821  14.258   3.700
52539W        W24799  38.863  10.238  10.945
52540W        W24800   3.761  25.119  14.012
52541W        W24801  26.295  32.937   3.188
52542W        W24802   0.535   7.864   0.005
52543W        W24803  36.866  13.709   3.504
52544W        W24804  31.978  24.841   3.172
52545W        W24805  11.323  35.302  11.087
52546W        W24806  20.480  15.774   4.639
52547W        W24807  38.835  25.365   2.796
52548W        W24808   6.663  35.783  10.386
52549W        W24809  26.040  27.455   3.456
52550W        W24810  38.361  26.845  14.895
52551W        W24811  12.786  30.657   4.112
52552W        W24812  37.800  22.977   3.618
52553W        W24813  32.810   8.397   1.848
52554W        W24814  24.505  17.647   0.903
52555W        W24815   6.812  20.942  11.000
52556W        W24816  39.749  24.145   2.176
52557W        W24817   1.289  30.452  14.914
52558W        W24818  22.877  39.340   4.856
52559W        W24819  38.031   6.958   4.617
52560W        W24820  26.137  37.710  14.197
52561W        W24821  15.491   3.069  11.766
52562W        W24822  42.956  27.001   3.688
52563W        W24823  26.039  37.446   4.239
52564W        W24824  17.864  15.151   0.928
52565W        W24825   6.142  38.453  14.371
52566W        W24826  10.170   0.218   1.860
52567W        W24827   6.657  35.354   4.150
52568W        W24828   6.869  19.171   3.304
52569W        W24829  24.119  44.396   1.281
52570W        W24830  39.527  17.309   4.158
52571W        W24831  12.100  22.657  13.538
52572W        W24832  19.948  15.634   4.738
52573W        W24833  27.195  31.083  14.883
52574W        W24834   3.840   3.712   3.356
52575W        W24835  33.412  22.625  13.449
52576W        W24836  25.125  33.668  11.961
52577W        W24837   3.195  21.990  11.395
52578W        W24838  40.081  36.048   3.171
52579W        W24839  29.096  20.306   4.335
52580W        W24840  33.496   2.349  13.937
52581W        W24841  43.906  10.162  12.785
52582W        W24842  29.417  17.727   2.799
52583W        W24843  17.636  22.667   0.808
52584W        W24844  26.751  37.055   1.835
52585W        W24845  14.878   9.303  13.551
52586W        W24846  16.250  42.316  14.009
52587W        W24847  40.747   4.977   0.257
52588W        W24848   3.700  26.362   4.356
52589W        W24849  37.976  30.859   5.376
52590W        W24850  38.765  23.107   0.011
52591W        W24851  17.646  16.408  11.392
52592W        W24852  11.613   0.378   0.038
52593W        W24853  37.957  43.839   1.017
52594W        W24854  43.314   2.767   0.572
52595W        W24855  37.538  42.005  12.496
52596W        W24856  37.735   4.366  10.973
52597W        W24857   6.296  24.754  12.965
52598W        W24858   3.036   9.205  11.985
52599W        W24859   4.429  12.888  13.028
52600W        W24860   1.297   5.128  11.438
52601W        W24861  36.393  14.876  14.502
52602W        W24862  12.668  14.288   3.778
52603W        W24863  26.477  32.163   1.909
52604W        W24864   6.764  24.681   2.364
52605W        W24865  44.158  37.801  13.377
52606W        W24866  32.328   8.714  11.583
52607W        W24867  30.944  22.502   0.610
52608W        W24868  41.720  15.563  14.747
52609W        W24869   9.106   6.889   3.718
52610W        W24870  28.515  16.854   4.239
52611W        W24871  40.337  43.394   3.617
52612W        W24872   1.772  28.945   4.296
52613W        W24873  25.166  27.776  12.532
52614W        W24874  13.082  26.073   1.972
52615W        W24875  31.561  13.117   1.664
52616W        W24876  25.819  41.853   1.146
52617W        W24877  27.825  43.879  11.547
52618W        W24878  41.797   8.359   1.869
52619W        W24879   1.852  21.022   4.178
52620W        W24880  30.859  14.332   0.361
52621W        W24881  34.381  36.812  11.173
52622W        W24882  27.980  31.214   1.304
52623W        W24883  14.212  33.987  12.991
52624W        W24884  18.042  13.338   3.768
52625W        W24885  17.809  29.092   4.708
52626W        W24886  36.983   7.311   4.526
52627W        W24887  43.603  20.871   1.911
52628W        W24888  35.477  35.664   0.351
52629W        W24889  32.878  40.327  13.833
52630W        W24890  25.762  25.771   1.624
52631W        W24891   9.939  24.696   3.691
52632W        W24892  11.496  37.529  11.631
52633W        W24893   9.423  24.220  10.961
52634W        W24894   9.301  28.099  12.038
52635W        W24895  14.783   9.821   3.778
52636W        W24896  32.682  15.401   2.811
52637W        W24897  20.698   0.907   2.296
52638W        W24898   3.697   4.419  12.210
52639W        W24899  29.581  19.675   2.645
52640W        W24900  36.475  30.503  11.450
52641W        W24901  39.440  11.879  12.884
52642W        W24902  24.311   6.265  11.615
52643W        W24903  26.174  18.593   3.202
52644W        W24904  12.657  11.133   2.204
52645W        W24905  12.737  35.032  11.520
52646W        W24906  32.465   5.851  11.082
52647W        W24907  26.398   8.271  12.374
52648W        W24908  17.295  14.755  11.450
52649W        W24909  13.800   2.041  13.553
52650W        W24910   6.827  13.193   3.791
52651W        W24911   5.714  12.768  14.026
52652W        W24912  34.862  23.194   1.361
52653W        W24913  18.407   6.615  14.807
52654W        W24914   2.931  10.099   4.165
52655W        W24915  40.123  26.125  14.405
52656W        W24916  41.055  38.352   0.399
52657W        W24917  24.626  23.197  10.680
52658W        W24918  35.454  21.896   2.258
52659W        W24919   2.183  20.233  11.103
52660W        W24920  12.165   4.658   3.884
52661W        W24921  40.963  14.781   4.999
52662W        W24922  12.126  30.101  10.930
52663W        W24923  11.649  40.064   2.102
52664W        W24924   0.359   0.077   1.222
52665W        W24925   9.327  16.493  13.947
52666W        W24926  36.165  10.399  11.071
52667W        W24927  35.503   1.017  12.557
52668W        W24928   3.565  44.027   2.761
52669W        W24929   2.373  20.728  10.938
52670W        W24930   1.433  12.267  14.520
52671W        W24931  20.866  38.951  12.440
52672W        W24932  29.844  31.653  14.937
52673W        W24933  27.462   6.991   1.379
52674W        W24934  43.368  13.195   3.206
52675W        W24935  41.400  28.373   2.620
52676W        W24936  33.750   5.235  12.428
52677W        W24937  26.907  10.566   2.785
52678W        W24938  35.430  33.974  13.851
52679W        W24939  38.669  37.000  13.776
52680W        W24940   5.187  34.627   2.811
52681W        W24941   6.915  16.157   1.015
52682W        W24942  43.052  28.013   1.535
52683W        W24943   0.281  15.518   4.687
52684W        W24944   2.779  13.898  11.948
52685W        W24945  33.515   5.781   2.812
52686W        W24946  23.581  10.633   0.325
52687W        W24947  26.426   6.775  14.535
52688W        W24948   8.836  17.297  11.956
52689W        W24949   6.366  33.188  11.388
52690W        W24950   4.396  30.653   0.916
52691W        W24951  18.957  15.571  12.508
52692W        W24952  44.918  34.986   3.651
52693W        W24953  38.915  11.925   4.577
52694W        W24954  12.588  35.413   4.097
52695W        W24955  39.381  40.872   0.286
52696W        W24956  36.850  14.857   2.053
52697W        W24957   9.854   5.935   3.859
52698W        W24958  36.070   2.109  11.956
52699W        W24959  20.061   5.004   1.247
52700W        W24960   0.326   7.153   1.270
52701W        W24961   3.871  20.728  13.124
52702W        W24962  40.104  38.396   1.502
52703W        W24963   5.223  11.707   4.584
52704W        W24964  38.906   5.311  12.344
52705W        W24965   7.156  41.291  13.759
52706W        W24966  43.557  10.590   1.386
52707W        W24967   0.233  33.469   3.730
52708W        W24968  27.090  38.302  12.886
52709W        W24969  11.077  14.672  13.384
52710W        W24970  37.631  29.490   0.364
52711W        W24971  14.589  17.231  14.798
52712W        W24972  21.713   3.031  12.165
52713W        W24973   8.946  32.970   4.623
52714W        W24974   2.848  43.227  12.471
52715W        W24975  10.796  40.101  10.779
52716W        W24976   0.950  29.039   4.791
52717W        W24977   3.678   0.593  10.289
52718W        W24978   0.999  20.694  10.770
52719W        W24979  29.403  39.086   4.151
52720W        W24980  38.784  43.822  14.482
52721W        W24981  14.137  19.274   1.307
52722W        W24982   1.821  38.473   2.611
52723W        W24983   5.299  33.102   1.239
52724W        W24984  35.285  31.781  12.580
52725W        W24985  43.143   5.759  13.907
52726W        W24986  32.965  19.543   1.049
52727W        W24987  39.831   5.850   0.436
52728W        W24988   8.978  26.506  14.330
52729W        W24989  31.427  31.630   9.799
52730W        W24990  17.131  14.168   1.357
52731W        W24991  29.619  44.602  12.573
52732W        W24992  24.016  31.205  13.577
52733W        W24993  43.821  41.096   2.802
52734W        W24994  13.034  24.131  12.080
52735W        W24995  11.798  33.072   3.619
52736W        W24996  43.195  23.069   4.198
52737W        W24997  21.427  14.690  13.098
52738W        W24998  14.268  37.478  13.506
52739W        W24999  20.840  17.099  11.159
52740W        W25000  16.300   1.527  12.054
52741W        W25001   8.290  29.905  12.452
52742W        W25002  31.601  22.165  10.611
52743W        W25003  23.182  20.316  12.017
52744W        W25004  22.856  43.221   0.499
52745W        W25005  19.480  44.735  14.929
52746W        W25006  39.120  25.049   2.355
52747W        W25007   2.154  21.077  12.444
52748W        W25008  20.465  18.390  12.387
52749W        W25009  26.414  10.799  12.394
52750W        W25010  36.392   9.511  11.045
52751W        W25011  22.770  15.390  14.363
52752W        W25012   0.799   4.909   0.980
52753W        W25013  14.622  21.736   2.344
52754W        W25014   7.437  11.137   0.406
52755W        W25015  14.647  16.147   4.319
52756W        W25016   3.425   3.688   2.604
52757W        W25017   9.120  40.959  10.558
52758W        W25018  42.273  33.007   0.100
52759W        W25019  25.891   5.691   0.169
52760W        W25020  36.841   7.657  13.055
52761W        W25021  34.622  43.431   3.362
52762W        W25022  38.232  29.352  13.923
52763W        W25023  14.182  30.441   4.608
52764W        W25024  21.185  24.921  13.137
52765W        W25025  41.963  44.707  10.565
52766W        W25026  12.808  19.531   4.435
52767W        W25027  33.011  28.663   3.955
52768W        W25028  38.015   8.256   3.849
52769W        W25029  32.922  34.577   0.195
52770W        W25030  31.457  10.963  11.588
52771W        W25031  21.567  19.595   4.526
52772W        W25032   9.872  35.372   1.202
52773W        W25033  16.774  10.115  10.593
52774W        W25034   0.402  26.196  13.780
52775W        W25035  17.553  40.030   2.094
52776W        W25036  16.789  21.334  13.299
52777W        W25037  20.676  20.410  14.057
52778W        W25038  28.282  27.708   4.036
52779W        W25039  17.965  13.519  12.429
52780W        W25040  28.892  33.654  11.097
52781W        W25041  34.096  34.906   1.427
52782W        W25042  29.879  42.806  13.817
52783W        W25043  44.974  42.662   0.693
52784W        W25044   7.773  21.661  10.564
52785W        W25045  41.471  29.596   4.577
52786W        W25046  44.985   2.962  13.353
52787W        W25047  35.662  10.574  12.386
52788W        W25048   2.961  43.220  11.273
52789W        W25049  23.441  23.931  12.737
52790W        W25050  36.078   9.705   4.656
52791W        W25051  27.786  11.691  12.605
52792W        W25052  33.112  24.966  14.958
52793W        W25053   8.906  37.013  14.675
52794W        W25054  39.893  11.194  14.431
52795W        W25055  13.186   3.006   2.242
52796W        W25056  36.807  34.683  13.834
52797W        W25057  10.611  39.320  14.407
52798W        W25058  30.662  38.124   2.191
52799W        W25059  21.595  19.543  10.731
52800W        W25060  20.687   5.196   4.894
52801W        W25061  25.928   2.292   4.421
52802W        W25062  18.630  38.016   0.296
52803W        W25063  10.432  15.807   1.676
52804W        W25064  14.303   6.126  12.093
52805W        W25065  11.205  23.076  11.635
52806W        W25066  11.630   1.214  11.179
52807W        W25067  10.858  30.392  14.964
52808W        W25068  10.431  14.243  10.786
52809W        W25069  21.852  31.194   2.412
52810W        W25070  18.687  22.618  14.781
52811W        W25071   2.786   5.328   2.260
52812W        W25072  31.573  22.105   4.561
52813W        W25073  29.663  25.785  11.591
52814W        W25074  40.301  17.193   1.247
52815W        W25075  31.056  37.986   1.871
52816W        W25076  35.859  33.641  13.960
52817W        W25077  36.290  34.505  11.980
52818W        W25078  19.109  19.986  13.474
52819W        W25079  38.347   8.714  12.004
52820W        W25080   4.876  44.431  12.987
52821W        W25081   7.399  21.987   0.554
52822W        W25082  43.926  10.888   2.592
52823W        W25083  26.237  44.650   5.081
52824W        W25084  33.101  37.501   0.469
52825W        W25085  17.676   5.761   3.142
52826W        W25086  18.992  36.041   0.330
52827W        W25087  39.450   3.226   3.737
52828W        W25088  12.814   1.997  13.256
52829W        W25089  35.569  15.208   3.593
52830W        W25090  31.833   9.299  12.034
52831W        W25091  14.132  27.816   2.140
52832W        W25092  37.860   5.713   4.304
52833W        W25093  36.101  20.031   4.134
52834W        W25094  35.095   3.806   1.518
52835W        W25095  15.229  15.002   4.794
52836W        W25096  25.232  15.743  12.894
52837W        W25097  20.770   5.976  12.442
52838W        W25098  44.930  27.460   0.856
52839W        W25099  29.324  34.435  11.198
52840W        W25100  35.001  44.777   9.910
52841W        W25101   0.413  33.903  14.885
52842W        W25102   3.903   1.241   2.225
52843W        W25103  15.085  15.682   2.202
52844W        W25104  18.672   3.185   4.590
52845W        W25105  40.428  10.166   4.596
52846W        W25106  21.729  12.462   4.891
52847W        W25107  18.684  44.312  14.773
52848W        W25108  43.935  23.680  14.321
52849W        W25109   9.838  38.217   0.507
52850W        W25110  22.283  27.134  14.438
52851W        W25111  23.032  24.258  12.601
52852W        W25112  16.181  36.548  14.043
52853W        W25113   3.158  41.553   4.694
52854W        W25114  26.405   0.239   1.079
52855W        W25115  27.590  44.500   1.239
52856W        W25116  16.468   1.239   0.231
52857W        W25117  13.290   4.437   2.224
52858W        W25118  20.506  43.318   3.274
52859W        W25119   3.272   7.278  13.957
52860W        W25120  12.395  30.568   3.373
52861W        W25121  39.814  23.678  11.932
52862W        W25122  22.674  24.606  13.095
52863W        W25123  11.285  14.638   0.306
52864W        W25124  20.383   5.197  11.604
52865W        W25125  22.579  22.261  14.914
52866W        W25126  41.004  22.389   4.118
52867W        W25127  36.768  33.051   4.848
52868W        W25128  15.232  25.970  11.570
52869W        W25129  41.430  41.363   3.698
52870W        W25130   7.953  25.487  12.555
52871W        W25131  44.229   4.135  11.589
52872W        W25132   8.259  29.044  10.929
52873W        W25133  44.848  33.929  10.416
52874W        W25134  35.026  35.278  11.062
52875W        W25135   2.474   0.194  11.055
52876W        W25136  12.314   1.952  12.919
52877W        W25137  10.580  41.060  10.787
52878W        W25138  41.199  44.829   2.603
52879W        W25139   3.496  23.057  10.458
52880W        W25140   0.297   6.514   3.884
52881W        W25141  10.680  18.367   2.756
52882W        W25142   5.817   0.959   3.679
52883W        W25143  22.521  35.756   0.232
52884W        W25144  11.791  34.587  12.940
52885W        W25145  12.171  12.936   4.272
52886W        W25146  42.932  30.147  10.541
52887W        W25147   2.544   6.630   1.237
52888W        W25148  22.631  42.540  12.961
52889W        W25149  41.832   8.264  12.393
52890W        W25150  34.410  22.083  12.046
52891W        W25151  35.562  27.498  11.310
52892W        W25152  30.959  43.525   4.704
52893W        W25153  23.143  30.442  10.725
52894W        W25154  16.271   4.672   4.613
52895W        W25155  25.514   1.202   3.340
52896W        W25156  10.674  33.667   2.192
52897W        W25157   0.702  31.503   5.084
52898W        W25158  30.521  20.500  13.883
52899W        W25159  32.615  14.439  14.838
52900W        W25160  44.503  32.182  13.679
52901W        W25161  24.136  18.101   0.382
52902W        W25162  30.096  34.604   3.291
52903W        W25163   5.645  31.625   3.189
52904W        W25164  29.426  33.775  12.018
52905W        W25165  43.022  38.283   0.356
52906W        W25166  41.408  21.999   4.018
52907W        W25167  22.760  33.348   0.832
52908W        W25168  20.652  19.643  11.450
52909W        W25169   6.169  29.060   1.897
52910W        W25170  18.451  14.758   4.560
52911W        W25171  25.265  31.706   1.324
52912W        W25172  30.583   8.260   4.939
52913W        W25173  29.927  22.609  13.908
52914W        W25174  15.455  34.433  11.133
52915W        W25175  19.057  33.021  12.469
52916W        W25176  38.381  30.910  12.987
52917W        W25177  32.967  29.609  13.547
52918W        W25178   0.349   1.841   2.902
52919W        W25179  25.552  12.753   3.208
52920W        W25180  15.005   7.132   2.957
52921W        W25181  35.017  10.511  12.897
52922W        W25182   0.869  33.942   4.152
52923W        W25183  43.297  38.001   4.181
52924W        W25184  35.334  42.923   0.414
52925W        W25185  22.216   6.208   2.366
52926W        W25186  40.492  31.392  10.709
52927W        W25187  35.813   4.836   2.017
52928W        W25188  26.860   1.433  13.131
52929W        W25189  18.674   1.895   1.090
52930W        W25190  41.665  26.553   2.271
52931W        W25191  30.586  24.671  13.192
52932W        W25192  16.051  29.874   3.250
52933W        W25193  22.836  12.131   4.912
52934W        W25194   8.398  40.591   3.833
52935W        W25195  39.664  40.043  11.389
52936W        W25196  31.036  38.742  11.536
52937W        W25197   2.659  31.645  12.867
52938W        W25198  37.331  34.534  13.970
52939W        W25199  43.940  35.058   3.668
52940W        W25200  23.305  31.448   1.395
52941W        W25201  21.270  17.486  13.070
52942W        W25202  27.448   9.245   1.358
52943W        W25203  26.013   0.502   0.856
52944W        W25204  23.254  39.100   4.551
52945W        W25205  32.073  20.959  12.586
52946W        W25206  41.761  15.356  13.378
52947W        W25207  15.749  24.525   4.164
52948W        W25208  24.189   2.293   0.995
52949W        W25209  33.021  38.037   3.260
52950W        W25210  42.962  37.469  14.949
52951W        W25211   2.389  21.594  13.364
52952W        W25212  40.868  13.966  13.611
52953W        W25213  36.454  36.901  12.156
52954W        W25214   8.987  16.913   4.106
52955W        W25215  19.565  39.499  10.724
52956W        W25216  36.872  29.149   1.295
52957W        W25217  15.526   3.128   3.368
52958W        W25218  31.663   3.164  11.951
52959W        W25219  42.314  36.199  14.204
52960W        W25220  39.447  37.538   0.891
52961W        W25221   0.953  19.275   1.655
52962W        W25222  38.492  42.610  11.028
52963W        W25223  24.050  33.093  12.608
52964W        W25224  13.343  12.672  10.826
52965W        W25225  33.032  41.716  11.473
52966W        W25226  14.470  39.311   1.342
52967W        W25227   8.571  24.156  10.910
52968W        W25228  38.315   3.633  10.674
52969W        W25229   9.339   9.752  13.817
52970W        W25230  28.231  34.314   2.278
52971W        W25231  34.050  30.987  13.631
52972W        W25232   5.174  14.255  13.467
52973W        W25233  24.238  40.457   1.503
52974W        W25234  39.177  31.600  11.133
52975W        W25235  11.537   8.869  12.084
52976W        W25236  15.950  29.661  13.388
52977W        W25237   3.877  12.835  14.890
52978W        W25238  25.647  42.942  10.136
52979W        W25239  33.944  13.756  13.762
52980W        W25240   2.775  38.512  12.118
52981W        W25241   3.955   3.738  11.042
52982W        W25242  18.735  20.511  11.097
52983W        W25243   5.751   7.946  14.685
52984W        W25244  40.950  44.009   4.162
52985W        W25245  13.349  13.793   3.698
52986W        W25246  15.421  29.330   2.954
52987W        W25247  21.595  13.888   0.388
52988W        W25248  21.900  44.026  11.163
52989W        W25249  23.158  14.149   0.478
52990W        W25250  24.952  41.477  11.209
52991W        W25251  11.746  20.320  13.896
52992W        W25252  18.896  30.527   0.969
52993W        W25253  10.478  28.716  14.347
52994W        W25254  30.044  24.597   0.119
52995W        W25255   3.729   8.447  10.431
52996W        W25256  15.898  20.217  12.575
52997W        W25257   0.311   6.936   1.792
52998W        W25258  21.708  29.643  11.983
52999W        W25259  17.380   5.968  12.887
53000W        W25260  12.733  28.670   1.287
53001W        W25261  29.620   0.727   1.881
53002W        W25262  15.742  25.677  14.514
53003W        W25263  41.764  31.613   1.476
53004W        W25264  21.713  37.121  11.385
53005W        W25265   7.380  36.135   0.416
53006W        W25266  24.184  26.038  10.731
53007W        W25267  31.470  39.440   2.478
53008W        W25268  17.102  16.220   0.384
53009W        W25269  36.958  39.970  14.356
53010W        W25270   6.871   2.611  11.082
53011W        W25271  31.447   8.674   2.709
53012W        W25272  27.566   9.876   3.346
53013W        W25273   7.800  34.557  14.798
53014W        W25274  14.864  23.115   3.148
53015W        W25275  26.932  39.351  11.094
53016W        W25276  20.106  13.685   4.681
53017W        W25277  13.740  36.770   0.800
53018W        W25278   2.825   4.021  11.509
53019W        W25279  12.563  31.192  13.014
53020W        W25280  43.235  15.185   3.876
53021W        W25281  14.207  28.545   0.246
53022W        W25282  21.260  27.768  10.229
53023W        W25283  32.933  41.397   0.832
53024W        W25284   2.934  35.040   2.289
53025W        W25285  15.472  16.245   0.362
53026W        W25286   7.649  42.909   4.061
53027W        W25287  17.768   4.491   3.762
53028W        W25288  33.509  12.404  13.049
53029W        W25289  16.291  34.189  14.389
53030W        W25290  43.035  26.754  13.928
53031W        W25291  12.271  24.010  12.688
53032W        W25292  21.685  37.515  10.632
53033W        W25293  15.674  12.071   1.732
53034W        W25294  27.973  43.991   2.749
53035W        W25295  15.832  14.239  12.049
53036W        W25296  36.583  37.883   2.774
53037W        W25297  12.370  28.064  13.551
53038W        W25298  23.534  19.472  12.942
53039W        W25299  16.984  26.508   0.889
53040W        W25300  25.935   9.672   0.986
53041W        W25301  24.740  24.439  14.439
53042W        W25302  44.060  30.329   4.049
53043W        W25303  13.604  21.171  13.044
53044W        W25304  15.847  39.428  14.554
53045W        W25305   6.279  38.427   4.223
53046W        W25306  26.011  37.815   2.736
53047W        W25307  23.133  21.830  14.994
53048W        W25308  29.958  39.622  13.541
53049W        W25309  11.250   5.664   4.353
53050W        W25310  31.917  26.918  12.995
53051W        W25311  37.383  29.168  10.437
53052W        W25312  29.047  41.273  13.910
53053W        W25313  30.370  15.624   3.325
53054W        W25314  17.630  24.657   0.919
53055W        W25315  34.157  28.185   2.320
53056W        W25316  12.832  40.804   2.727
53057W        W25317  23.530  32.323  11.681
53058W        W25318  10.334  37.404  13.945
53059W        W25319   6.835   4.155   4.589
53060W        W25320  42.770  24.190  11.761
53061W        W25321  38.357  21.562   0.985
53062W        W25322  42.980  34.521  12.707
53063W        W25323  18.254  20.213   0.688
53064W        W25324  40.705  18.640  12.031
53065W        W25325   4.320   3.172   4.596
53066W        W25326   6.398  37.310  13.157
53067W        W25327  37.174   3.144  11.195
53068W        W25328  11.842  30.430   2.327
53069W        W25329  18.013  29.116   3.419
53070W        W25330   5.256  29.739  10.774
53071W        W25331  18.602   9.585  13.247
53072W        W25332  19.156  44.999  12.152
53073W        W25333  28.199  23.450   1.825
53074W        W25334   8.656  14.328   0.396
53075W        W25335  25.089   0.731  10.601
53076W        W25336  29.428  29.916  12.403
53077W        W25337  27.404  18.906   4.382
53078W        W25338  12.147   0.498   0.210
53079W        W25339  37.058  17.299   1.746
53080W        W25340  36.332  29.253   1.301
53081W        W25341  36.460  36.050   4.149
53082W        W25342   9.906  13.196  12.423
53083W        W25343   7.164  23.956  10.800
53084W        W25344  42.170  21.556  11.465
53085W        W25345  18.801  38.170   0.770
53086W        W25346   8.790  30.288   4.501
53087W        W25347  19.463  15.663   4.928
53088W        W25348  11.655  13.621   1.930
53089W        W25349  34.396  17.101  12.230
53090W        W25350  39.893  30.681   3.389
53091W        W25351  25.516  17.101   0.492
53092W        W25352  12.988  13.382  14.342
53093W        W25353  20.058  23.230  14.329
53094W        W25354  39.924  33.505   1.489
53095W        W25355  18.729   1.888  14.782
53096W        W25356   6.536  29.836  13.252
53097W        W25357  38.972   7.766  12.155
53098W        W25358  44.408  41.402  14.071
53099W        W25359  18.619   9.797   3.757
53100W        W25360  19.298  20.652  14.955
53101W        W25361  18.254  10.775  13.329
53102W        W25362  17.818  26.708  12.600
53103W        W25363  29.996  16.790   0.369
53104W        W25364  27.797  29.373  13.599
53105W        W25365   5.322  19.974   4.052
53106W        W25366  19.047   1.054  10.714
53107W        W25367   1.261  11.945   0.460
53108W        W25368  22.015  42.555   3.361
53109W        W25369   7.678  14.900   0.809
53110W        W25370   5.194   5.832  11.590
53111W        W25371   5.907  34.337   3.940
53112W        W25372  29.679  30.896  12.598
53113W        W25373   2.217  25.150   1.785
53114W        W25374  10.612  43.438  10.754
53115W        W25375  41.885  10.452  14.957
53116W        W25376  21.136  13.150  10.547
53117W        W25377  20.116  25.069  13.504
53118W        W25378  36.408   7.490  13.884
53119W        W25379   0.620  31.975  14.208
53120W        W25380  26.517  17.180  10.367
53121W        W25381   6.330  40.487  14.029
53122W        W25382  43.806   0.039  13.398
53123W        W25383  12.661  26.646  14.506
53124W        W25384  39.647  15.839  11.148
53125W        W25385  33.751  10.071   1.861
53126W        W25386  13.809  26.426   3.201
53127W        W25387  15.246  39.999   3.700
53128W        W25388  36.879  12.843  12.613
53129W        W25389  10.268  20.525  13.999
53130W        W25390  17.064  32.309  12.056
53131W        W25391   0.483  27.283   2.383
53132W        W25392  43.615  28.803   0.774
53133W        W25393   5.293  28.016  12.875
53134W        W25394  19.646  21.278  11.337
53135W        W25395  23.957  44.008  11.489
53136W        W25396  32.309   9.006   5.019
53137W        W25397  44.450   3.874  12.093
53138W        W25398  27.060  38.038   0.907
53139W        W25399  44.860  42.480  13.522
53140W        W25400  32.355  44.363   4.249
53141W        W25401  36.632  42.482  13.418
53142W        W25402  19.508  42.754   0.011
53143W        W25403  14.714  19.275   4.087
53144W        W25404  32.312  36.114   2.296
53145W        W25405  17.282   0.409   3.964
53146W        W25406  40.816  18.085   1.386
53147W        W25407  29.892  11.849  14.891
53148W        W25408  21.518  37.647  11.173
53149W        W25409  30.144  25.680  10.719
53150W        W25410  30.408  13.402  14.499
53151W        W25411  41.468  39.519  12.583
53152W        W25412   3.035   0.411   4.074
53153W        W25413  32.038  44.927  14.501
53154W        W25414  39.501  28.278   3.411
53155W        W25415  16.866  23.948   4.211
53156W        W25416  11.856  18.837  11.663
53157W        W25417   3.982  30.137   3.694
53158W        W25418   6.200  27.009  10.762
53159W        W25419  12.810  34.281   1.962
53160W        W25420  26.948  35.417  12.100
53161W        W25421  26.711  18.250   0.287
53162W        W25422   5.393  12.179  11.839
53163W        W25423  38.322  34.658   3.264
53164W        W25424  34.591  32.412  13.535
53165W        W25425  25.573   5.381  13.840
53166W        W25426  24.133   1.063   0.044
53167W        W25427   2.831  35.975   0.311
53168W        W25428  34.977  28.903   1.423
53169W        W25429   9.875  17.973  13.528
53170W        W25430  33.986  18.281  12.618
53171W        W25431  28.603  35.236   1.595
53172W        W25432  37.260  25.640  13.857
53173W        W25433  24.164  33.020  11.286
53174W        W25434   3.224  18.827  12.043
53175W        W25435  21.422  34.040  13.384
53176W        W25436  41.346  21.123  13.118
53177W        W25437   0.947  35.038   2.078
53178W        W25438  29.526  27.018  12.911
53179W        W25439  14.156  17.532   0.491
53180W        W25440  10.720  10.874   0.305
53181W        W25441  38.779  13.816  12.639
53182W        W25442  14.051  28.461  13.725
53183W        W25443  40.809  12.537  13.564
53184W        W25444   4.470  19.334   3.762
53185W        W25445  27.604  13.215   2.162
53186W        W25446  38.860  32.490   1.053
53187W        W25447   9.670  44.917  12.401
53188W        W25448  26.247  35.923  13.949
53189W        W25449  29.071  41.317   4.569
53190W        W25450  39.492   8.256   0.480
53191W        W25451  35.647  34.010  12.964
53192W        W25452  31.915  16.725  13.949
53193W        W25453  20.749  12.541  12.817
53194W        W25454  34.913  32.475   1.718
53195W        W25455  10.370  10.552  13.479
53196W        W25456  28.233   4.512  14.966
53197W        W25457   1.200   5.515  11.121
53198W        W25458  10.635  37.990  14.047
53199W        W25459   2.545  12.405  14.852
53200W        W25460  38.042  39.350  10.764
53201W        W25461  27.682  23.086  13.837
53202W        W25462  12.156  23.070  10.700
53203W        W25463  39.390  34.114  12.627
53204W        W25464  41.511   5.910  14.959
53205W        W25465  36.244   6.875   1.231
53206W        W25466   5.748  27.418   0.807
53207W        W25467  35.904   3.197  13.801
53208W        W25468  38.632   1.255  13.663
53209W        W25469  18.654  26.004   4.255
53210W        W25470  18.290  39.983   1.708
53211W        W25471  35.603   5.819  12.354
53212W        W25472  23.116  29.931  11.549
53213W        W25473   9.440   6.439  12.095
53214W        W25474  39.882  42.409   1.789
53215W        W25475  41.874   0.289   5.162
53216W        W25476   7.960  20.694   2.280
53217W        W25477  35.998  40.296   2.437
53218W        W25478  22.482  40.792   3.231
53219W        W25479  27.543  26.033   4.610
53220W        W25480  27.621  16.438   1.700
53221W        W25481  22.215   2.202   3.343
53222W        W25482  41.511  11.629  12.807
53223W        W25483  17.802   6.666   1.807
53224W        W25484  40.820  24.109   0.409
53225W        W25485  31.938   0.884  11.868
53226W        W25486   7.635   9.792  10.765
53227W        W25487  33.545   0.292  12.073
53228W        W25488   5.931  35.394  14.787
53229W        W25489  33.869  14.029   1.725
53230W        W25490  26.684   6.851   0.922
53231W        W25491   5.011  14.741  13.428
53232W        W25492  34.843   1.806   0.455
53233W        W25493  10.871  43.312   0.287
53234W        W25494  26.002  10.859   3.267
53235W        W25495  43.815  33.331  12.607
53236W        W25496  41.550  30.060  12.553
53237W        W25497  30.485  33.679   4.658
53238W        W25498  30.436  24.253  12.878
53239W        W25499  19.610  19.798  11.635
53240W        W25500   2.643  35.013  10.758
53241W        W25501  19.362  10.075  11.585
53242W        W25502   8.972  25.459  12.575
53243W        W25503   9.347   4.541  13.424
53244W        W25504   3.560  19.245   2.315
53245W        W25505  23.809  11.817  14.510
53246W        W25506  42.835  11.249  13.013
53247W        W25507  19.693   3.180   4.247
53248W        W25508  27.957  23.532  10.721
53249W        W25509   6.550  25.190   0.780
53250W        W25510  43.974   6.961  13.485
53251W        W25511  15.035  27.627  13.135
53252W        W25512  35.472  26.017   4.671
53253W        W25513  37.918  38.420  11.570
53254W        W25514  16.041  32.874  11.236
53255W        W25515  35.038  20.159  14.698
53256W        W25516  19.552  27.635  11.148
53257W        W25517  29.268  29.511   9.861
53258W        W25518  22.491   5.545  13.680
53259W        W25519  44.427  24.708  14.507
53260W        W25520  32.441  23.049  14.042
53261W        W25521  24.537   9.123   2.711
53262W        W25522  20.743  34.530  11.002
53263W        W25523  22.127  10.188   2.573
53264W        W25524   3.185   4.966   3.239
53265W        W25525  19.942  32.894  11.518
53266W        W25526  34.968  25.441   2.118
53267W        W25527  39.944  34.146  11.929
53268W        W25528  40.491  36.574   4.714
53269W        W25529  39.829  18.046   3.236
53270W        W25530  31.945  36.044  12.379
53271W        W25531  10.276  17.060   4.313
53272W        W25532  40.317  23.035  13.111
53273W        W25533   5.418   0.877  14.892
53274W        W25534  15.803  21.228  12.418
53275W        W25535  14.332   2.462  12.687
53276W        W25536  44.133  26.107  12.050
53277W        W25537  39.891  41.352   4.664
53278W        W25538   1.385   7.833  11.570
53279W        W25539  23.945   4.488   0.296
53280W        W25540  22.977  11.376  11.690
53281W        W25541  23.893  34.527  13.850
53282W        W25542  19.350  20.074  10.627
53283W        W25543   6.441  28.624  11.503
53284W        W25544  18.238   8.816  12.424
53285W        W25545  23.225  43.953  13.876
53286W        W25546   1.242   5.220  14.679
53287W        W25547  22.509  11.639  14.756
53288W        W25548  14.095  30.967  13.274
53289W        W25549  42.044  37.161  13.536
53290W        W25550   4.705  18.301   0.861
53291W        W25551  30.093  39.598   3.632
53292W        W25552  18.470  12.222  11.545
53293W        W25553  39.273   8.631  12.192
53294W        W25554  37.463  40.630   5.022
53295W        W25555  30.966  39.898  10.925
53296W        W25556  28.864   7.838  10.689
53297W        W25557  30.051   1.088   2.659
53298W        W25558  28.416  43.825  10.762
53299W        W25559   4.758  33.503  14.433
53300W        W25560   7.713  29.055   3.711
53301W        W25561  34.940  24.684  11.146
53302W        W25562  16.331   9.847  10.710
53303W        W25563  24.184  31.556   4.592
53304W        W25564  19.277  38.901  10.663
53305W        W25565  33.963   3.247   4.775
53306W        W25566  31.616  29.908  12.773
53307W        W25567  12.600  42.326  13.974
53308W        W25568  25.759  17.028  14.202
53309W        W25569  29.639  19.239   4.795
53310W        W25570  28.612  20.184   0.404
53311W        W25571  10.747   0.269   4.874
53312W        W25572  42.270  22.749   4.536
53313W        W25573  11.221   8.274  11.549
53314W        W25574   0.494   4.573  11.151
53315W        W25575  43.669  12.786  11.205
53316W        W25576  28.668  10.837  10.903
53317W        W25577  43.392  19.163  11.764
53318W        W25578  38.036   2.720   3.663
53319W        W25579  10.861  33.254   2.456
53320W        W25580  25.176  21.746  12.406
53321W        W25581   8.163  33.469  11.173
53322W        W25582  43.817  44.039   4.731
53323W        W25583   8.640  36.018  12.842
53324W        W25584  42.135  15.683   0.282
53325W        W25585   4.171  37.849  13.478
53326W        W25586  42.576  20.127   4.867
53327W        W25587  37.099  10.386   0.865
53328W        W25588  26.673  42.246  12.867
53329W        W25589   0.352  21.398   1.185
53330W        W25590  43.925  26.862  11.104
53331W        W25591  44.761  43.540   3.219
53332W        W25592  22.994  11.726   4.611
53333W        W25593   0.332   6.484  13.382
53334W        W25594  21.394  35.939  14.360
53335W        W25595  31.442   7.788  10.916
53336W        W25596   6.555  17.037   1.214
53337W        W25597  32.556  17.534   1.717
53338W        W25598  22.019   7.939   0.659
53339W        W25599  29.403   7.783  11.524
53340W        W25600  18.718  14.149   4.976
53341W        W25601  25.662  30.505   4.581
53342W        W25602   4.330   3.211  10.784
53343W        W25603  40.170  30.026   1.453
53344W        W25604   0.923  33.753  14.899
53345W        W25605  43.074  29.644  14.382
53346W        W25606  13.039   1.018  10.625
53347W        W25607   2.253  14.649   1.315
53348W        W25608  25.045  23.076   3.852
53349W        W25609   3.673  14.173  11.723
53350W        W25610  12.822  17.543   0.799
53351W        W25611  20.178  10.929  12.585
53352W        W25612   0.442   5.651   4.679
53353W        W25613   4.446  44.353   0.290
53354W        W25614  36.464   8.111  10.751
53355W        W25615   3.043  19.109   4.083
53356W        W25616  23.100   4.056  11.102
53357W        W25617  43.557  25.537  12.386
53358W        W25618  20.692   7.592  11.429
53359W        W25619  15.026  12.889   3.702
53360W        W25620  11.860   1.797   0.442
53361W        W25621  40.991  29.693   2.952
53362W        W25622   4.846  19.194  10.958
53363W        W25623  24.773  42.278   1.427
53364W        W25624  38.424  40.522  11.121
53365W        W25625  40.250  12.582  13.493
53366W        W25626   5.010  34.884   1.619
53367W        W25627  12.204   1.133   3.992
53368W        W25628   3.813  40.225  11.320
53369W        W25629  21.686  36.369   1.164
53370W        W25630  35.031   6.414  11.197
53371W        W25631  38.715  15.573   1.356
53372W        W25632  28.088  12.522  10.770
53373W        W25633  22.689   8.397  13.370
53374W        W25634   3.378  35.030   0.512
53375W        W25635  19.245   2.818  11.133
53376W        W25636  20.141  23.210   4.648
53377W        W25637  44.039   0.550   4.627
53378W        W25638  31.954  36.555  11.048
53379W        W25639   7.728  39.505   4.030
53380W        W25640   9.110  25.006   1.926
53381W        W25641  13.192  30.486   1.204
53382W        W25642   4.429   2.303   3.653
53383W        W25643  39.570  41.014   3.433
53384W        W25644  28.074  27.390  11.599
53385W        W25645  32.214   0.235   3.217
53386W        W25646  13.235  43.899  11.654
53387W        W25647   2.344   4.282  13.912
53388W        W25648  11.902  19.335   4.593
53389W        W25649   3.351   0.919   4.808
53390W        W25650  39.494  16.047   2.861
53391W        W25651   9.048  27.626   1.059
53392W        W25652  43.785   0.084   4.559
53393W        W25653  34.981   9.634   2.433
53394W        W25654  22.730  25.757   1.378
53395W        W25655  44.075  42.799  12.417
53396W        W25656   1.905  31.799   0.553
53397W        W25657  33.677  44.888   3.226
53398W        W25658  26.726   3.490  12.405
53399W        W25659   0.171  43.627  11.356
53400W        W25660  36.363  27.185   1.440
53401W        W25661  43.077  34.069  11.934
53402W        W25662  29.527  12.138  14.614
53403W        W25663  26.903  43.280  13.466
53404W        W25664  24.758  21.125  10.672
53405W        W25665  41.265  15.203   1.702
53406W        W25666  35.068  28.593   4.374
53407W        W25667  38.509   5.422  14.531
53408W        W25668   7.881  37.133  10.857
53409W        W25669  15.770  36.854   2.334
53410W        W25670  14.520  14.524  10.325
53411W        W25671   9.341  11.119  13.341
53412W        W25672  31.114  13.390   0.434
53413W        W25673  17.575  31.441   4.693
53414W        W25674  27.774  35.334   0.420
53415W        W25675   6.622  17.781  14.025
53416W        W25676  16.137  23.249   3.146
53417W        W25677  19.110   3.461   1.338
53418W        W25678  19.783  30.520   2.279
53419W        W25679  36.983  32.409  12.535
53420W        W25680  40.423  18.838  10.585
53421W        W25681  41.266  22.222  12.316
53422W        W25682  14.100  37.975  13.545
53423W        W25683  34.042  43.751  10.652
53424W        W25684  31.731   9.935  10.579
53425W        W25685  28.663  24.026  14.417
53426W        W25686  10.739   9.593   1.778
53427W        W25687   8.142  43.310   1.454
53428W        W25688  37.051   7.202   3.637
53429W        W25689   7.796   4.957   0.635
53430W        W25690   5.377  30.697  10.426
53431W        W25691   5.906   6.675  14.508
53432W        W25692  11.362  13.308   4.327
53433W        W25693   0.823  10.537  14.525
53434W        W25694  37.545  38.182  12.582
53435W        W25695  26.867  19.058  10.547
53436W        W25696  30.027  13.893   2.800
53437W        W25697  12.087  34.123  14.882
53438W        W25698   6.957   3.173   3.991
53439W        W25699   9.731   4.970  10.699
53440W        W25700   2.247   1.505   3.013
53441W        W25701  19.804  44.400   0.946
53442W        W25702  15.970  19.872   0.146
53443W        W25703   1.756  14.564   0.792
53444W        W25704  33.869   3.414   1.433
53445W        W25705   3.832   5.976   2.749
53446W        W25706  36.616  41.993   2.083
53447W        W25707  41.420  13.322  14.562
53448W        W25708  41.518   0.454   4.358
53449W        W25709  25.152  25.787   4.119
53450W        W25710  17.980  24.400  12.953
53451W        W25711  13.312  21.958  14.506
53452W        W25712  29.867  39.115   0.889
53453W        W25713  43.084  20.178   2.056
53454W        W25714   7.485  32.091   2.186
53455W        W25715  17.045  37.526  11.492
53456W        W25716  21.587  41.138   4.990
53457W        W25717   9.910   5.924   0.794
53458W        W25718  41.240   3.640  14.993
53459W        W25719  12.855  36.331   3.195
53460W        W25720  34.519   9.356  14.031
53461W        W25721  13.078  16.112  10.796
53462W        W25722  20.224  33.618  11.152
53463W        W25723  26.443  20.735   3.174
53464W        W25724  14.395  41.292  14.288
53465W        W25725  38.302  34.093  13.529
53466W        W25726  15.478  36.912   4.153
53467W        W25727  28.767  21.662  14.523
53468W        W25728  17.134  29.052  14.650
53469W        W25729   5.030  16.285   3.744
53470W        W25730  30.461  44.789   2.756
53471W        W25731   8.708   0.350  12.825
53472W        W25732  19.991  22.177   2.297
53473W        W25733  21.932  12.659  12.391
53474W        W25734  19.317  27.759  12.636
53475W        W25735  26.123  44.094   2.942
53476W        W25736  25.951  14.337   2.743
53477W        W25737  27.792  24.103   1.853
53478W        W25738  22.890  22.551  13.216
53479W        W25739  17.134  25.035  12.981
53480W        W25740  21.074   7.412   4.237
53481W        W25741   9.120  34.994  11.970
53482W        W25742  18.208  26.249  13.211
53483W        W25743  25.843  33.091   3.397
53484W        W25744  39.166  33.015  14.788
53485W        W25745  26.710  16.318   4.494
53486W        W25746  14.143  33.011   0.728
53487W        W25747  36.303  42.523  12.147
53488W        W25748  13.891  44.577  13.939
53489W        W25749   9.324  28.853  13.806
53490W        W25750   6.848   5.167  14.435
53491W        W25751   3.331  18.459   3.367
53492W        W25752  37.987  24.542  13.862
53493W        W25753  12.257   8.817  12.366
53494W        W25754  26.643   3.849   0.798
53495W        W25755  12.243  11.748   0.268
53496W        W25756   6.680   6.599   3.629
53497W        W25757  22.737   7.930  14.447
53498W        W25758  14.312   4.465   0.216
53499W        W25759  27.900   7.134  11.584
53500W        W25760  16.196   6.790   2.661
53501W        W25761  34.852   2.442  11.063
53502W        W25762  18.602   5.735  11.766
53503W        W25763  35.527  18.004   1.365
53504W        W25764  38.429  27.772   0.394
53505W        W25765   1.334   8.727   4.472
53506W        W25766  11.404  31.603  10.585
53507W        W25767  10.853   1.220   4.037
53508W        W25768  14.940   5.740  12.412
53509W        W25769  37.397   1.912  10.629
53510W        W25770  12.445   8.441   2.908
53511W        W25771  34.019   1.072   1.186
53512W        W25772  16.280  22.516  13.209
53513W        W25773  24.163  25.916   2.629
53514W        W25774  20.125  39.445   3.576
53515W        W25775   7.349  13.719  12.932
53516W        W25776  24.624  24.951  14.428
53517W        W25777   0.456  42.671  10.725
53518W        W25778  24.041  29.153  12.853
53519W        W25779  18.715  19.196   1.911
53520W        W25780   1.299   2.217   1.018
53521W        W25781  36.335  29.999   4.086
53522W        W25782  43.966  17.255  14.224
53523W        W25783  17.116  26.355  14.195
53524W        W25784  21.037  26.050   4.058
53525W        W25785  18.290  44.400  10.526
53526W        W25786   5.938  16.225   4.690
53527W        W25787  41.039  40.316   2.252
53528W        W25788  25.432  13.657   2.284
53529W        W25789  35.143   6.973   4.643
53530W        W25790  39.585  15.056   1.371
53531W        W25791  18.490  13.823  13.066
53532W        W25792  34.841  10.238  12.461
53533W        W25793  18.843   4.388   4.190
53534W        W25794  25.798  28.214   5.025
53535W        W25795  21.834  29.599   2.214
53536W        W25796  36.068   9.648   1.764
53537W        W25797  35.679   8.804  12.399
53538W        W25798  37.829   5.718  14.526
53539W        W25799  24.505  30.141  12.035
53540W        W25800   5.971   8.209   3.828
53541W        W25801  12.277  44.922  11.624
53542W        W25802  35.878  15.603   3.439
53543W        W25803  15.897  26.996  12.002
53544W        W25804  22.303   4.830  13.619
53545W        W25805  28.043   6.761   0.818
53546W        W25806  36.528  31.885   0.383
53547W        W25807   9.192   9.224  10.572
53548W        W25808  21.851   0.440  11.417
53549W        W25809  12.397  35.511  14.976
53550W        W25810  38.449  15.890  11.178
53551W        W25811  39.896  33.977  13.305
53552W        W25812  32.629  41.479   3.267
53553W        W25813  43.447  11.116   3.095
53554W        W25814  11.280  19.181   2.772
53555W        W25815  11.155  33.578  11.354
53556W        W25816   6.348   3.279   3.339
53557W        W25817  14.745   0.413   3.087
53558W        W25818  31.953  19.381   4.108
53559W        W25819   3.853   5.299   0.466
53560W        W25820   2.268  14.177   9.841
53561W        W25821  10.587  25.678   1.369
53562W        W25822  11.739  18.536   5.139
53563W        W25823  12.160  32.107   4.906
53564W        W25824   5.581  27.349  13.373
53565W        W25825  42.922  29.268  11.557
53566W        W25826  35.538   5.083   3.615
53567W        W25827  25.425  23.124  10.027
53568W        W25828  11.907   0.827  13.909
53569W        W25829  19.595  20.693  14.526
53570W        W25830  16.213  22.706   3.694
53571W        W25831  17.223  26.286  13.655
53572W        W25832  41.929   3.217   1.443
53573W        W25833  42.909   6.324   2.309
53574W        W25834  44.697  28.234  14.244
53575W        W25835  10.392  43.999  11.643
53576W        W25836   8.020   2.918   0.246
53577W        W25837   4.304  23.227   4.553
53578W        W25838  23.831  34.646  14.380
53579W        W25839  21.624   5.645   0.474
53580W        W25840  22.698  40.320   2.650
53581W        W25841  26.263  37.335  11.496
53582W        W25842  29.184  12.420  13.307
53583W        W25843  34.343  34.608   0.549
53584W        W25844  29.134  31.691  12.895
53585W        W25845   9.822  28.468  11.980
53586W        W25846  42.080  43.491   3.249
53587W        W25847  44.837   5.538   2.681
53588W        W25848  21.563  10.685   3.726
53589W        W25849   3.907   3.889   4.526
53590W        W25850   7.181  37.099   1.498
53591W        W25851  13.880  17.077   1.933
53592W        W25852   9.512  20.203  14.345
53593W        W25853  20.271  22.246   2.750
53594W        W25854  18.450   3.517  14.149
53595W        W25855  39.349  21.589   0.926
53596W        W25856  21.287  31.874   4.988
53597W        W25857  10.678   0.183   1.857
53598W        W25858  19.335  34.456   1.654
53599W        W25859  37.011  22.152   3.610
53600W        W25860  33.118  27.475   3.617
53601W        W25861  10.174  25.718   4.401
53602W        W25862   1.096  41.447   0.204
53603W        W25863  44.721  26.582  11.516
53604W        W25864  30.736  12.729   4.241
53605W        W25865  37.273  33.817  13.402
53606W        W25866  20.672  25.570  11.646
53607W        W25867  25.541  44.868   0.177
53608W        W25868   9.412   1.533   3.044
53609W        W25869  38.622   2.430  12.105
53610W        W25870   8.800  27.739  13.807
53611W        W25871  22.801  15.945  10.295
53612W        W25872   4.352  24.298  13.883
53613W        W25873   7.840  11.084  10.598
53614W        W25874  23.959  19.073  14.837
53615W        W25875   0.700  37.898   4.259
53616W        W25876  25.349   9.281  10.696
53617W        W25877   8.413  11.253  13.871
53618W        W25878  29.596  26.491  13.278
53619W        W25879   2.790  44.996   3.849
53620W        W25880  35.350  23.638  12.631
53621W        W25881  37.395  37.449   5.034
53622W        W25882  16.230  42.347  12.859
53623W        W25883  33.467  19.650   1.303
53624W        W25884  44.459  20.772   0.954
53625W        W25885  39.362   7.901   1.529
53626W        W25886  35.037  30.345  14.945
53627W        W25887  25.423  31.431  11.855
53628W        W25888   1.882  15.891   0.398
53629W        W25889  42.248  20.113  12.873
53630W        W25890  24.621  11.796  13.671
53631W        W25891  15.565   6.446  13.934
53632W        W25892   2.286  13.178   3.261
53633W        W25893  14.475  40.319  14.906
53634W        W25894   0.247  14.736   2.437
53635W        W25895  18.471  39.036  13.512
53636W        W25896  18.103  22.732   2.333
53637W        W25897  14.558  10.453   0.326
53638W        W25898  10.362  34.101   3.335
53639W        W25899   2.273  26.985   1.836
53640W        W25900  16.659  35.668   1.867
53641W        W25901  31.468  10.737   0.363
53642W        W25902  21.717  41.532   1.826
53643W        W25903  15.782  23.214  11.464
53644W        W25904  15.023  31.900   2.159
53645W        W25905  15.744   4.266  11.428
53646W        W25906  31.191  28.899   4.306
53647W        W25907  25.947  37.368  10.499
53648W        W25908  42.802  27.578   3.230
53649W        W25909  41.874  44.377   3.117
53650W        W25910  34.462  30.436  13.309
53651W        W25911  33.357  28.633  14.427
53652W        W25912  28.429   0.447   1.485
53653W        W25913  16.793  27.920  14.709
53654W        W25914  33.117   0.206  10.725
53655W        W25915  10.125  27.560  11.906
53656W        W25916  38.262  13.848   1.827
53657W        W25917  23.571   4.748  12.842
53658W        W25918   4.333  21.575  10.332
53659W        W25919  36.999   2.792   4.094
53660W        W25920  35.346   4.738   3.917
53661W        W25921  43.897   4.412  11.917
53662W        W25922  24.431  28.052   9.503
53663W        W25923   6.697  30.816  13.426
53664W        W25924   3.334  11.459   4.935
53665W        W25925  19.599  22.207  13.565
53666W        W25926  43.772   3.981   1.897
53667W        W25927  38.109   8.356  11.688
53668W        W25928  34.559  16.559   3.957
53669W        W25929  38.544  40.251  10.676
53670W        W25930  25.236  40.368   1.889
53671W        W25931  33.853  38.865  14.310
53672W        W25932   2.919  12.858  14.400
53673W        W25933  30.025  20.841  12.447
53674W        W25934  40.831  40.780  14.847
53675W        W25935  38.935  42.857   1.951
53676W        W25936  23.444  30.860  14.382
53677W        W25937  26.592  37.528   2.485
53678W        W25938  20.636  26.489  14.101
53679W        W25939  32.401  13.352   0.401
53680W        W25940  20.024  44.263   5.129
53681W        W25941   3.713  29.092  12.857
53682W        W25942  27.250  39.558   4.612
53683W        W25943  39.852  38.672   3.741
53684W        W25944  29.507   8.628   3.719
53685W        W25945  28.136  19.582  14.002
53686W        W25946  32.192  19.897  11.126
53687W        W25947  16.807  33.494  11.186
53688W        W25948  25.185  28.956   3.534
53689W        W25949   4.348  40.977   2.697
53690W        W25950  16.006  17.615   4.626
53691W        W25951   6.459  35.660   3.499
53692W        W25952  19.189  27.058  12.174
53693W        W25953  31.177   1.225   1.129
53694W        W25954   8.739   5.149   0.030
53695W        W25955  35.985  42.466  11.247
53696W        W25956  20.509  43.346  14.527
53697W        W25957  21.198   3.077  11.618
53698W        W25958   9.906  35.975   4.907
53699W        W25959   9.954   0.281   3.357
53700W        W25960  35.155  31.323   1.945
53701W        W25961  13.730  27.966  12.911
53702W        W25962  21.671  39.415  10.871
53703W        W25963  15.563   6.672   4.628
53704W        W25964  20.648  37.398  14.032
53705W        W25965  22.927  27.351   0.465
53706W        W25966  24.508   2.824  12.443
53707W        W25967  25.178   3.291   3.496
53708W        W25968   3.376  33.942   1.892
53709W        W25969  34.474  10.210   0.192
53710W        W25970  32.825  22.234  14.949
53711W        W25971   8.614  41.366  11.934
53712W        W25972  38.896  22.095  11.500
53713W        W25973  19.038  16.053   0.227
53714W        W25974  31.446  21.925   3.219
53715W        W25975  37.063  26.544  13.082
53716W        W25976  38.933  10.170  10.073
53717W        W25977  18.020  28.380   1.803
53718W        W25978  31.526  17.067  11.703
53719W        W25979   6.266  15.434  13.319
53720W        W25980  41.818  17.568  13.546
53721W        W25981  10.778  19.681  11.707
53722W        W25982   9.028  14.503   5.011
53723W        W25983  19.344  20.758   2.351
53724W        W25984  40.098  16.565  14.320
53725W        W25985   4.764  44.808  10.318
53726W        W25986  26.607   0.804   1.859
53727W        W25987  18.515  21.264  12.542
53728W        W25988  16.180  29.453   0.793
53729W        W25989   9.177   0.494  13.047
53730W        W25990  24.292   8.725   4.340
53731W        W25991  33.931  15.372  12.423
53732W        W25992  23.181   5.833  14.448
53733W        W25993  12.053  32.946  14.130
53734W        W25994   1.324  18.853   4.499
53735W        W25995  24.787   2.214   2.776
53736W        W25996  17.674  41.267   1.964
53737W        W25997   6.911   5.229   4.532
53738W        W25998  33.126   3.934  11.056
53739W        W25999  43.389  40.963   4.408
53740W        W26000  26.762  34.416   0.260
53741W        W26001  35.437  11.607   1.857
53742W        W26002  20.084  30.312   1.289
53743W        W26003  41.294  35.007   5.029
53744W        W26004   0.733  40.749  11.854
53745W        W26005  17.308  17.736  10.916
53746W        W26006   1.228  20.313   1.726
53747W        W26007  43.803  40.570   2.647
53748W        W26008   0.538  15.207   1.962
53749W        W26009  30.527  37.081  11.484
53750W        W26010  26.491  39.919   1.152
53751W        W26011  25.137  12.090  13.377
53752W        W26012   9.761  33.933   4.650
53753W        W26013  36.399  15.530  12.981
53754W        W26014  39.755  11.669  13.275
53755W        W26015  36.870  28.067   2.242
53756W        W26016  38.745  29.255  14.649
53757W        W26017  37.302  23.517  12.609
53758W        W26018  17.177  34.795   0.468
53759W        W26019  20.860   4.535  13.338
53760W        W26020  20.256  28.711  10.998
53761W        W26021  13.370   0.316  14.444
53762W        W26022  41.449  32.429   0.268
53763W        W26023  15.736  44.068  12.341
53764W        W26024  17.099  24.995   2.356
53765W        W26025   3.103  33.086   4.113
53766W        W26026  12.159  16.690  12.290
53767W        W26027  26.989  26.472  11.990
53768W        W26028  40.557  12.148  13.316
53769W        W26029  23.778  30.176   3.292
53770W        W26030  40.144  29.495   4.629
53771W        W26031  34.088   5.734   2.220
53772W        W26032  42.946  44.708  10.647
53773W        W26033  27.436  13.079  13.769
53774W        W26034  43.498  15.616   4.164
53775W        W26035  33.310  19.139   3.352
53776W        W26036  27.607  26.078   2.486
53777W        W26037  28.027  10.379   2.291
53778W        W26038  22.565  19.677  11.567
53779W        W26039   7.306   5.224   0.687
53780W        W26040  12.246   2.904  14.066
53781W        W26041  14.209  34.896  13.197
53782W        W26042  31.741  30.499   5.050
53783W        W26043  16.832   9.677  13.389
53784W        W26044  35.847  14.769   1.820
53785W        W26045   9.556  34.546  10.199
53786W        W26046  37.846  36.171  12.012
53787W        W26047   6.852   7.472  12.036
53788W        W26048  23.248   5.760   2.776
53789W        W26049  21.497   8.696  10.726
53790W        W26050  11.197  42.196  12.566
53791W        W26051   8.212   4.927   2.461
53792W        W26052   2.282  30.779  12.389
53793W        W26053  16.249  17.699   4.180
53794W        W26054  41.841  35.748   2.675
53795W        W26055  16.765  32.567  11.678
53796W        W26056  13.938   8.223  14.804
53797W        W26057  44.683  28.538   1.689
53798W        W26058  11.725  42.542   0.377
53799W        W26059  27.550  43.781  11.072
53800W        W26060  44.254   8.186   2.215
53801W        W26061   4.010  28.082   2.394
53802W        W26062   8.771  33.859   4.164
53803W        W26063  37.313  41.625  13.268
53804W        W26064  36.447  27.161  11.482
53805W        W26065   5.735  40.333  14.286
53806W        W26066  21.064   1.082  10.698
53807W        W26067  35.083  30.113   1.463
53808W        W26068  39.823  16.147  14.457
53809W        W26069  36.354  15.788   1.348
53810W        W26070  20.167  28.492  12.829
53811W        W26071  21.480  38.156  11.158
53812W        W26072  25.727  29.575   3.719
53813W        W26073   9.870  27.473   3.274
53814W        W26074  26.055  39.021  12.657
53815W        W26075  23.783  44.290   3.797
53816W        W26076   7.711  40.027   2.760
53817W        W26077  35.926  43.524   0.887
53818W        W26078  21.668  24.660   0.808
53819W        W26079  10.193  26.765   4.179
53820W        W26080  12.185   3.888   2.248
53821W        W26081   5.304  36.422  12.584
53822W        W26082  25.474  34.991   1.274
53823W        W26083  14.889   2.239   0.208
53824W        W26084  41.675   0.337  13.025
53825W        W26085   0.314  30.478   3.465
53826W        W26086  21.657  19.638  11.225
53827W        W26087  25.515   3.253  14.246
53828W        W26088  29.402  27.532   4.694
53829W        W26089  22.176  24.761  12.886
53830W        W26090  35.098  32.922   3.164
53831W        W26091  11.333  24.121   3.874
53832W        W26092  24.028  33.885  10.755
53833W        W26093  12.077  30.139   1.934
53834W        W26094  23.042  44.934   1.825
53835W        W26095  12.549  34.584   4.186
53836W        W26096  28.034   1.463   2.244
53837W        W26097   4.924  12.897   1.545
53838W        W26098   0.829  34.633   2.405
53839W        W26099   2.917  17.971  11.887
53840W        W26100  27.194   6.906  10.555
53841W        W26101  15.114   2.639   0.419
53842W        W26102  44.958  38.627  11.063
53843W        W26103  42.885  33.167  12.412
53844W        W26104   9.391  39.910  11.650
53845W        W26105  15.212  26.268  13.478
53846W        W26106  27.998  29.867   5.056
53847W        W26107  11.814  13.563   2.652
53848W        W26108  22.188  22.851  12.422
53849W        W26109  24.019  40.076   3.161
53850W        W26110   2.473  14.536   4.413
53851W        W26111  22.185  20.758   4.642
53852W        W26112  37.812  44.454   1.815
53853W        W26113  36.031   9.929   0.985
53854W        W26114  41.406  38.468   2.715
53855W        W26115  36.472   4.430   3.676
53856W        W26116  22.100  18.486   2.362
53857W        W26117  44.694  43.806   4.673
53858W        W26118  28.458  37.929  12.883
53859W        W26119   0.425  32.507   3.170
53860W        W26120  41.456   7.783   3.137
53861W        W26121  16.309  23.756  12.059
53862W        W26122  28.986  30.988   4.711
53863W        W26123  30.467  30.859   3.751
53864W        W26124  26.892  39.442   1.379
53865W        W26125  20.342  28.625  13.305
53866W        W26126  39.426   9.919   4.491
53867W        W26127  14.286  43.517   2.741
53868W        W26128  17.728   4.290  11.501
53869W        W26129  31.344  41.017   1.459
53870W        W26130  37.631   1.737  11.508
53871W        W26131  28.476  36.834   2.526
53872W        W26132  29.914  30.639   2.632
53873W        W26133   2.459  20.247  11.534
53874W        W26134  31.323  44.391   4.066
53875W        W26135  33.134  26.294  14.569
53876W        W26136  37.284  37.287  11.618
53877W        W26137  23.330  11.633   2.110
53878W        W26138  36.606  14.680   4.182
53879W        W26139  30.163  42.456   3.827
53880W        W26140   7.033  25.862  10.259
53881W        W26141  16.132  12.089  13.405
53882W        W26142  11.309  10.953   1.220
53883W        W26143   7.813  14.611   1.251
53884W        W26144  30.211  40.933  10.760
53885W        W26145  31.142  24.409   1.768
53886W        W26146  21.261  23.172  11.413
53887W        W26147  12.316  13.578  13.852
53888W        W26148  21.563   6.600   0.031
53889W        W26149  22.378   1.720  11.712
53890W        W26150  23.975  31.182   3.644
53891W        W26151   9.745  30.452   4.571
53892W        W26152  37.629   4.360  10.470
53893W        W26153  37.007   1.718   2.781
53894W        W26154  25.499  39.039  14.717
53895W        W26155  10.073  34.176  13.622
53896W        W26156  12.471  12.672   4.624
53897W        W26157  14.763  29.410  12.052
53898W        W26158   1.194  43.417  11.555
53899W        W26159  43.062  12.014  14.376
53900W        W26160  28.931  11.681   4.136
53901W        W26161  37.439  30.899   2.682
53902W        W26162  39.101  28.688  10.686
53903W        W26163  42.060  14.299  11.650
53904W        W26164  40.468  22.076   1.998
53905W        W26165  14.410  36.742   1.659
53906W        W26166   5.989   3.293  12.923
53907W        W26167   1.511  11.420  12.623
53908W        W26168  23.183  16.309  11.478
53909W        W26169  10.107  25.258   0.778
53910W        W26170   3.664  31.803  13.079
53911W        W26171  28.541   5.735   2.762
53912W        W26172  18.567  39.519   0.385
53913W        W26173  19.102  40.825   2.207
53914W        W26174  13.879  21.000  10.741
53915W        W26175  27.513  25.247  12.284
53916W        W26176  29.532  35.978   2.731
53917W        W26177  36.294  18.153  13.845
53918W        W26178  11.206  44.988  13.878
53919W        W26179  30.152   8.302  11.714
53920W        W26180  22.743  42.850   0.109
53921W        W26181  25.028  26.380  12.606
53922W        W26182   7.485  42.365  14.900
53923W        W26183   2.035  24.212  14.029
53924W        W26184  30.492  37.220   2.229
53925W        W26185  20.720   9.812   3.212
53926W        W26186  31.824  15.351  13.970
53927W        W26187  20.360  12.166   3.712
53928W        W26188   9.433   2.117  14.323
53929W        W26189  25.978  29.417   3.293
53930W        W26190  38.060  34.536   4.588
53931W        W26191  13.752  33.370   0.756
53932W        W26192   2.248  17.263   1.821
53933W        W26193  22.637  25.216   4.905
53934W        W26194   0.727  10.229   3.351
53935W        W26195  35.726  11.655   0.722
53936W        W26196   9.135  44.960   1.367
53937W        W26197  42.873  40.792   3.172
53938W        W26198  31.556  32.948  12.425
53939W        W26199   6.325   4.099   1.407
53940W        W26200   0.478  19.022   4.566
53941W        W26201  11.774  38.423   1.450
53942W        W26202  15.113  14.083   4.181
53943W        W26203  31.550  13.718   0.765
53944W        W26204   3.922  11.462   4.255
53945W        W26205  42.681  11.268   2.265
53946W        W26206  28.573  19.547  13.488
53947W        W26207  22.535   9.739  13.419
53948W        W26208  14.583  27.534   4.644
53949W        W26209  30.032  41.046  14.778
53950W        W26210  29.855  22.401  11.898
53951W        W26211  42.841  35.396  10.700
53952W        W26212   8.985  27.887   2.170
53953W        W26213  24.932   0.196  11.235
53954W        W26214  20.056  26.483  13.514
53955W        W26215  36.393  19.923  10.132
53956W        W26216  18.272  35.568  12.216
53957W        W26217  33.065  24.451  12.509
53958W        W26218   6.652  11.739   3.168
53959W        W26219   8.984  39.919   4.129
53960W        W26220  31.063  11.841  11.211
53961W        W26221   0.972   6.698   0.026
53962W        W26222  28.492  22.320   0.728
53963W        W26223  12.454  39.491   0.123
53964W        W26224  14.880  13.709  12.599
53965W        W26225   1.712  44.036  14.275
53966W        W26226  37.905  28.941  14.413
53967W        W26227  27.706  31.957  12.540
53968W        W26228   0.180   6.128   4.696
53969W        W26229  22.477  10.368   1.339
53970W        W26230  10.791  14.642  10.754
53971W        W26231  25.474   1.736  12.771
53972W        W26232   6.512  23.734   2.721
53973W        W26233   7.217  25.501  12.057
53974W        W26234   8.697  11.152  14.326
53975W        W26235  15.329   4.806  12.795
53976W        W26236   3.401   0.960  11.080
53977W        W26237  19.111  22.081   3.683
53978W        W26238   4.913   6.119  12.975
53979W        W26239  38.585  31.455   1.357
53980W        W26240   5.805  32.552  12.940
53981W        W26241  34.086  21.268   9.854
53982W        W26242  27.533  38.315  13.858
53983W        W26243  10.792  10.239   0.368
53984W        W26244  10.843   1.291   0.489
53985W        W26245  19.235  15.660  12.092
53986W        W26246  35.597  16.525   3.849
53987W        W26247  34.928  11.355   1.768
53988W        W26248   9.720  13.095   0.289
53989W        W26249   4.482  23.464   1.707
53990W        W26250  17.265   8.404   1.817
53991W        W26251  32.080  14.370  12.368
53992W        W26252  32.982   3.949  13.079
53993W        W26253   6.173   3.762  13.028
53994W        W26254  18.076  43.320   4.136
53995W        W26255  38.617  44.996  14.757
53996W        W26256  14.172  26.718   4.109
53997W        W26257  43.567  30.840  13.522
53998W        W26258  39.545  36.097   0.660
53999W        W26259  26.046   0.777   3.516
54000W        W26260   3.237  32.514  14.260
54001W        W26261  14.498   3.350  10.290
54002W        W26262  29.172   8.850   2.895
54003W        W26263  16.846  44.590  10.699
54004W        W26264  42.857  22.680   2.661
54005W        W26265  33.940   6.025  11.458
54006W        W26266  44.858  30.146  14.946
54007W        W26267   6.706   5.341  12.600
54008W        W26268   0.359  31.680   0.348
54009W        W26269  27.011  19.002   3.420
54010W        W26270  18.485   1.230  13.927
54011W        W26271  34.062  26.477  12.556
54012W        W26272   8.284  12.460  11.119
54013W        W26273  26.060  42.855  12.616
54014W        W26274   8.484   1.866  10.796
54015W        W26275   5.730  28.532  10.760
54016W        W26276  18.777  10.468  14.313
54017W        W26277   9.143   8.713   3.182
54018W        W26278  23.120  21.305  14.841
54019W        W26279   7.922  39.564   2.692
54020W        W26280  16.101   2.344  11.609
54021W        W26281   2.729  36.013  14.814
54022W        W26282  10.118   5.850   0.110
54023W        W26283   7.505  21.223  14.328
54024W        W26284  43.884  35.782  12.534
54025W        W26285  16.090  37.297   1.203
54026W        W26286  13.944  11.686  12.228
54027W        W26287  42.723  19.826  12.054
54028W        W26288  40.982   4.593  12.561
54029W        W26289  12.381  21.467   3.121
54030W        W26290  27.106  25.093  14.543
54031W        W26291  19.295  17.589  14.649
54032W        W26292  11.058  43.797  10.931
54033W        W26293  12.363  26.754   3.342
54034W        W26294  10.755   1.243   2.741
54035W        W26295   3.823  42.790   1.448
54036W        W26296   7.096  30.097   0.241
54037W        W26297  19.076  39.471   0.221
54038W        W26298  17.531   5.464  12.261
54039W        W26299   3.322  15.813   0.814
54040W        W26300  42.821  18.502  11.403
54041W        W26301  12.123   9.388   3.855
54042W        W26302   0.844  13.626   0.954
54043W        W26303  36.562  33.645   0.301
54044W        W26304  18.232  20.275   1.179
54045W        W26305  23.452  15.616  13.474
54046W        W26306   9.241  39.490   2.892
54047W        W26307   1.966  24.188   4.160
54048W        W26308  32.226   7.403  13.939
54049W        W26309   4.438  39.298  12.053
54050W        W26310  11.014  32.129  11.223
54051W        W26311  38.359  22.291   2.359
54052W        W26312  11.263   3.456  12.065
54053W        W26313  19.706   8.224   3.760
54054W        W26314  25.051  28.866   0.481
54055W        W26315  15.234  27.503  11.639
54056W        W26316  27.075  34.499   1.207
54057W        W26317  35.461  21.467   5.044
54058W        W26318  35.927  42.397   2.350
54059W        W26319   2.692  28.653   3.569
54060W        W26320  26.016  35.303  14.930
54061W        W26321  15.912  29.918   0.873
54062W        W26322  28.228  31.381   3.255
54063W        W26323  23.738  40.016  13.857
54064W        W26324  27.101  12.035  14.480
54065W        W26325  30.353  28.605   0.415
54066W        W26326  42.117  15.263   3.614
54067W        W26327  10.690   5.235   1.911
54068W        W26328  19.899   8.406  12.578
54069W        W26329  18.067   6.189   1.338
54070W        W26330  40.805   5.782   1.844
54071W        W26331  10.584   8.633   3.182
54072W        W26332  22.675  30.203  10.450
54073W        W26333  25.259  27.515  11.306
54074W        W26334   4.609  19.794   2.465
54075W        W26335  16.016  11.788   3.629
54076W        W26336  29.480   2.726  11.974
54077W        W26337  28.917  37.876  12.044
54078W        W26338  14.111  43.981  13.057
54079W        W26339   9.718  18.486  12.365
54080W        W26340  43.393  10.727  13.876
54081W        W26341  29.532   9.424   4.117
54082W        W26342  24.002   4.195   1.180
54083W        W26343  15.181  41.510   4.416
54084W        W26344  36.148   1.208  13.004
54085W        W26345  21.046   2.908  14.279
54086W        W26346  11.861  44.890   2.102
54087W        W26347  42.020  19.198   1.818
54088W        W26348  32.591   6.896  13.902
54089W        W26349   7.654  14.787   3.342
54090W        W26350   6.009  42.954  13.966
54091W        W26351  20.219   4.717  12.078
54092W        W26352  14.158  16.560  11.046
54093W        W26353  17.000  16.853  10.620
54094W        W26354   6.647  39.127   2.716
54095W        W26355   6.386  11.332  12.112
54096W        W26356  11.196  17.881   3.454
54097W        W26357   7.152  30.407  11.564
54098W        W26358  36.057  16.396  14.820
54099W        W26359  14.596  11.132   0.741
54100W        W26360   7.274  12.391  14.781
54101W        W26361   1.480  37.781  14.418
54102W        W26362   4.925  20.980   1.367
54103W        W26363  14.796  17.340   4.608
54104W        W26364  37.969  24.792   0.122
54105W        W26365  32.182  27.136  11.293
54106W        W26366   4.551   7.213   3.723
54107W        W26367  35.705   8.920   0.210
54108W        W26368   9.723  18.256   0.366
54109W        W26369  19.123  26.696   4.873
54110W        W26370  29.893   1.948   0.347
54111W        W26371  24.278  26.035  13.206
54112W        W26372  22.744  44.368   9.930
54113W        W26373  35.094  26.108   3.817
54114W        W26374   6.947   4.490   3.320
54115W        W26375  24.165  21.743  10.655
54116W        W26376  14.739   1.531   2.844
54117W        W26377  24.135  30.573   2.137
54118W        W26378  25.694  35.080   0.330
54119W        W26379  27.423  36.938   4.793
54120W        W26380  33.835  22.001  11.509
54121W        W26381  41.062  39.806   3.401
54122W        W26382  38.769  15.240  11.952
54123W        W26383  23.773  11.750  10.426
54124W        W26384  10.245  19.189  13.155
54125W        W26385  26.107  25.208  14.530
54126W        W26386   1.916  39.862  12.387
54127W        W26387  13.559   5.815  12.411
54128W        W26388   6.292  14.699   0.424
54129W        W26389   4.044  41.708  11.203
54130W        W26390  16.671   4.213   2.350
54131W        W26391  44.275  32.077  10.671
54132W        W26392  32.735  30.386   3.511
54133W        W26393  39.675   6.328   1.706
54134W        W26394  18.681  23.941   5.040
54135W        W26395  30.965   7.922  11.667
54136W        W26396   8.907  40.713   3.680
54137W        W26397  33.031  18.511   2.759
54138W        W26398  42.835  41.694   1.477
54139W        W26399  23.992  18.087   4.195
54140W        W26400  32.661  18.306  11.567
54141W        W26401  10.707  40.764  13.925
54142W        W26402  15.753  10.935  11.757
54143W        W26403  44.566  23.593   1.397
54144W        W26404  41.884  11.540   4.194
54145W        W26405   2.602  20.229   2.627
54146W        W26406  13.311   3.810  11.276
54147W        W26407  35.612  10.246   3.051
54148W        W26408   6.687  11.086  13.104
54149W        W26409  27.735  19.433  11.995
54150W        W26410  28.649  42.215  13.753
54151W        W26411  11.589  26.402   1.408
54152W        W26412  27.976  25.113   0.275
54153W        W26413  37.876  31.624   2.943
54154W        W26414  16.018  14.391   1.764
54155W        W26415  24.943  39.503   4.906
54156W        W26416  42.759  17.941  13.342
54157W        W26417  42.697  25.646   2.247
54158W        W26418  37.850   8.898   0.788
54159W        W26419  34.865  30.486  12.631
54160W        W26420  22.592   3.796   1.783
54161W        W26421   9.870   6.141  14.329
54162W        W26422  21.621  26.327  10.235
54163W        W26423  13.736  38.952   4.293
54164W        W26424  43.103   2.753  10.775
54165W        W26425  13.833  34.350   0.530
54166W        W26426   5.352  39.683  10.682
54167W        W26427  22.706   1.935   3.305
54168W        W26428  15.745  40.357  14.531
54169W        W26429  24.698  43.417  11.600
54170W        W26430  30.425  31.074  12.016
54171W        W26431   2.177  14.428  11.565
54172W        W26432  21.445  22.552  11.871
54173W        W26433   5.489  16.158   1.439
54174W        W26434  30.034   4.657  11.257
54175W        W26435  21.101  42.579  14.449
54176W        W26436  40.101  39.135   3.703
54177W        W26437  13.175  16.748  13.387
54178W        W26438  20.236  13.008   4.143
54179W        W26439  29.257  32.478  10.386
54180W        W26440   9.988  42.921   4.352
54181W        W26441  37.381  39.189   4.395
54182W        W26442  24.536  34.844   1.318
54183W        W26443  11.592  28.699  14.812
54184W        W26444  37.401   2.633   5.269
54185W        W26445   0.704  28.097   0.742
54186W        W26446  20.024  39.051   3.245
54187W        W26447  37.122  41.408   1.377
54188W        W26448  15.841   1.402   2.159
54189W        W26449  32.839   4.742  14.684
54190W        W26450  39.519  12.945   4.113
54191W        W26451  23.517  12.622   0.778
54192W        W26452  39.105  25.562  14.067
54193W        W26453  16.721  31.572  13.366
54194W        W26454  31.953  22.943  12.354
54195W        W26455  43.113  42.416   0.872
54196W        W26456  10.434   5.713  11.447
54197W        W26457  41.776   8.743   2.461
54198W        W26458  10.313   9.324  11.906
54199W        W26459   8.907  15.612   4.516
54200W        W26460  37.323  20.159  10.216
54201W        W26461  16.260  32.503  10.981
54202W        W26462   4.747  13.109   2.367
54203W        W26463  35.031   8.175   3.248
54204W        W26464  33.821  39.021  11.061
54205W        W26465  36.049   0.910  14.541
54206W        W26466  12.961  13.829   1.130
54207W        W26467   8.450  27.705   3.183
54208W        W26468   3.952  28.440  14.428
54209W        W26469   6.263  25.025  11.574
54210W        W26470  15.651  19.989  13.449
54211W        W26471  11.488  12.802   1.716
54212W        W26472   8.579  12.389  13.772
54213W        W26473   4.471  27.022   3.203
54214W        W26474  43.445  36.846  11.776
54215W        W26475  32.907  34.990  14.020
54216W        W26476  44.023  38.344   4.315
54217W        W26477  33.676   7.411   3.781
54218W        W26478  19.670  11.362  12.017
54219W        W26479  18.487  13.388  11.151
54220W        W26480  30.441  18.109   4.757
54221W        W26481   1.379  24.408   1.417
54222W        W26482  14.511  41.971   1.340
54223W        W26483  30.466  11.440   4.547
54224W        W26484   2.921  24.926   2.387
54225W        W26485   6.467  29.375  14.914
54226W        W26486   2.347  39.084   4.159
54227W        W26487   4.865  28.904   0.371
54228W        W26488  41.863  40.477  13.584
54229W        W26489  37.809  36.839   2.285
54230W        W26490  35.817  27.017   4.703
54231W        W26491  35.452  35.028   4.301
54232W        W26492  40.876  35.611  14.661
54233W        W26493  38.402  42.537   0.458
54234W        W26494  18.914   6.290   2.966
54235W        W26495   6.334  34.034  14.686
54236W        W26496  24.704   0.488  11.634
54237W        W26497  27.446   6.228  12.473
54238W        W26498  13.103  20.328  13.244
54239W        W26499  11.817  20.955  13.021
54240W        W26500  32.636  11.683   3.383
54241W        W26501  24.768  18.084   1.096
54242W        W26502  43.369   0.970   1.817
54243W        W26503  35.119  30.685   2.587
54244W        W26504  37.889  17.177  13.812
54245W        W26505  35.934  35.981   3.941
54246W        W26506  27.969   0.377   3.269
54247W        W26507  21.662   0.870   2.221
54248W        W26508   0.725   6.386   1.210
54249W        W26509  41.013  30.079   1.592
54250W        W26510   7.132   3.136   4.512
54251W        W26511  13.085   3.308   3.706
54252W        W26512  15.793  31.090  12.334
54253W        W26513  10.819   5.668   1.672
54254W        W26514  15.249   0.784   3.713
54255W        W26515  24.138  17.874   2.695
54256W        W26516   0.741  15.670   1.805
54257W        W26517  23.156  31.132   2.853
54258W        W26518  10.134  30.161  10.757
54259W        W26519  32.475  40.946   1.672
54260W        W26520  15.000  18.680  10.726
54261W        W26521  32.471  29.257  12.563
54262W        W26522   9.771  21.946  12.435
54263W        W26523  21.912  35.026  10.364
54264W        W26524  14.338   6.937   0.014
54265W        W26525  28.480   0.666  14.252
54266W        W26526  44.191   0.019   3.729
54267W        W26527  37.021   2.973  12.499
54268W        W26528  32.554  22.977   2.055
54269W        W26529  13.998  16.070   0.121
54270W        W26530  31.408  29.128  12.448
54271W        W26531  31.803   7.456   3.344
54272W        W26532   8.137  23.126  14.990
54273W        W26533  38.435  44.817   2.454
54274W        W26534  41.045   2.567   1.441
54275W        W26535  39.328  14.342  11.186
54276W        W26536   4.410  16.056   2.444
54277W        W26537  13.221  29.772   1.768
54278W        W26538  10.123   5.236  12.053
54279W        W26539  38.450  19.983   3.963
54280W        W26540   9.700  14.280   1.210
54281W        W26541  20.781   3.331  14.387
54282W        W26542  44.325  14.089   4.070
54283W        W26543  15.738   3.920   2.221
54284W        W26544  35.322  18.677  12.623
54285W        W26545  42.769  28.108  14.264
54286W        W26546  42.323  36.473   1.377
54287W        W26547  14.025  18.726   3.889
54288W        W26548  33.428  17.963   1.488
54289W        W26549  14.629   7.078  12.807
54290W        W26550  18.006  35.543   2.340
54291W        W26551   6.425  19.711   4.550
54292W        W26552   0.663  39.543   0.867
54293W        W26553  24.995  35.954   4.238
54294W        W26554  30.462  42.266  13.367
54295W        W26555   8.278  32.119  12.885
54296W        W26556   7.457  36.467  13.997
54297W        W26557  23.766  11.893   4.357
54298W        W26558  13.357  32.591   1.293
54299W        W26559  19.096  13.561  11.118
54300W        W26560  25.735  27.163  14.587
54301W        W26561  12.156  29.112  13.466
54302W        W26562  20.793  36.072   4.705
54303W        W26563  11.184   4.313   1.926
54304W        W26564  34.008  40.067  11.132
54305W        W26565  31.383  32.628   4.264
54306W        W26566   0.860  39.803   4.635
54307W        W26567  14.951  34.599   1.758
54308W        W26568  31.462  38.000   4.716
54309W        W26569  38.478  35.569   2.330
54310W        W26570   4.447  22.786   1.420
54311W        W26571  21.791  17.576   1.174
54312W        W26572  26.101   5.251   2.345
54313W        W26573  24.828  17.321   0.687
54314W        W26574  32.332  24.275  13.168
54315W        W26575   9.716  16.211   2.156
54316W        W26576  20.549  25.370   1.420
54317W        W26577  14.621   6.642  10.857
54318W        W26578  32.994  35.137  11.512
54319W        W26579  28.127  16.250  12.625
54320W        W26580  37.562  38.899  13.118
54321W        W26581   6.890  29.248   1.423
54322W        W26582   4.616  27.798  10.304
54323W        W26583   4.361  17.619   1.515
54324W        W26584   9.335  13.135   1.668
54325W        W26585  32.516  15.981   3.717
54326W        W26586  29.438  13.212   1.505
54327W        W26587  11.624  36.001   3.559
54328W        W26588  18.536  23.660  10.263
54329W        W26589  42.070  16.550  11.874
54330W        W26590  39.061  41.736   1.199
54331W        W26591  17.443   2.618   0.273
54332W        W26592  21.247  24.578   1.336
54333W        W26593  19.185   7.148  10.565
54334W        W26594   7.815   4.918  11.823
54335W        W26595  10.370   5.460   4.525
54336W        W26596  40.504  16.105   0.146
54337W        W26597  16.714  40.949   4.076
54338W        W26598  27.162  43.241   4.233
54339W        W26599  16.757   3.201  11.379
54340W        W26600  35.880   3.393  14.746
54341W        W26601  36.488  21.259  10.883
54342W        W26602  36.344  31.081   1.614
54343W        W26603  27.060   8.690   2.142
54344W        W26604  32.792  27.541  11.019
54345W        W26605  39.516   5.214   0.004
54346W        W26606  37.673  12.844  12.095
54347W        W26607  31.565  14.006  13.843
54348W        W26608  35.124  18.111   3.200
54349W        W26609   3.639  16.265  13.474
54350W        W26610   1.613  40.343   0.799
54351W        W26611  32.381   7.435  13.050
54352W        W26612  13.388  34.628  11.120
54353W        W26613  18.046  22.772   1.788
54354W        W26614  13.383  44.323   0.866
54355W        W26615  39.874  14.039  13.417
54356W        W26616   1.468  27.932   2.332
54357W        W26617  13.328  38.986   2.316
54358W        W26618  10.399  31.532  13.482
54359W        W26619  16.121   7.735  14.862
54360W        W26620  41.065  41.085   2.839
54361W        W26621   8.312   5.132   3.550
54362W        W26622   0.223   0.225  14.784
54363W        W26623  12.997  21.299  11.583
54364W        W26624  16.120  35.366   2.191
54365W        W26625   8.339  11.046  10.413
54366W        W26626  13.775  27.245  14.534
54367W        W26627   5.847  31.845   4.623
54368W        W26628  36.051   5.504  12.359
54369W        W26629  33.064  10.665  11.474
54370W        W26630   2.445  23.191  11.851
54371W        W26631  11.673  19.186   3.584
54372W        W26632  34.869  42.987   5.338
54373W        W26633  13.391  23.246   1.763
54374W        W26634  41.736  27.601   1.084
54375W        W26635   4.678  29.416   2.206
54376W        W26636  32.779  44.800  10.741
54377W        W26637  31.956  26.020   0.316
54378W        W26638  23.802  31.877   4.482
54379W        W26639  36.885  29.867   1.752
54380W        W26640  39.121   3.381   1.424
54381W        W26641  44.205  41.294   0.888
54382W        W26642  32.350  43.423   3.497
54383W        W26643  40.332   5.180  13.992
54384W        W26644  23.126   8.277  14.272
54385W        W26645   9.318  33.044   2.361
54386W        W26646  25.327  12.773  11.993
54387W        W26647  26.096  39.309  14.491
54388W        W26648  11.806   9.308   4.632
54389W        W26649  43.976  28.056   3.589
54390W        W26650  28.194  40.868   0.413
54391W        W26651  25.038  18.306   4.144
54392W        W26652  17.068  19.872  11.464
54393W        W26653  14.667   6.747  12.214
54394W        W26654  15.726  13.893  12.439
54395W        W26655  22.630  27.511  11.428
54396W        W26656  12.160   1.221  11.109
54397W        W26657  34.406  20.838   3.272
54398W        W26658  32.776  35.020   0.426
54399W        W26659  10.274  22.715  11.453
54400W        W26660   3.370  25.167  11.176
54401W        W26661  12.039  44.282  13.030
54402W        W26662  36.935   8.776   1.142
54403W        W26663  36.939  34.609   2.230
54404W        W26664  42.933  21.883  11.771
54405W        W26665  27.139  43.697   1.109
54406W        W26666  23.419  34.328  12.388
54407W        W26667  37.964  42.827   0.484
54408W        W26668  37.103  28.615   3.129
54409W        W26669  20.495  27.534   2.698
54410W        W26670  42.315  21.779   2.546
54411W        W26671   2.198  12.001  12.160
54412W        W26672   0.729   7.149  14.907
54413W        W26673  17.642   7.168   1.811
54414W        W26674  35.728  33.725   2.294
54415W        W26675   0.801  22.977   2.756
54416W        W26676  26.658  39.551  13.306
54417W        W26677   5.968  25.936  12.869
54418W        W26678   6.651  24.110   0.838
54419W        W26679   0.028  24.133  13.379
54420W        W26680   1.871  41.321  13.532
54421W        W26681   2.565  40.602   3.135
54422W        W26682  44.490  34.852  14.496
54423W        W26683  22.012   7.211  14.346
54424W        W26684  20.107   9.960  12.951
54425W        W26685   3.400  40.038   2.876
54426W        W26686   3.603  23.916   1.581
54427W        W26687  18.545  22.801   0.243
54428W        W26688  13.382  13.747   4.209
54429W        W26689  30.513  36.810  14.380
54430W        W26690  33.006  28.366   1.908
54431W        W26691   8.577  12.611  11.583
54432W        W26692  28.637  19.438   2.614
54433W        W26693  19.505  25.149   2.817
54434W        W26694  36.844  31.984   0.776
54435W        W26695  17.122   3.249   3.650
54436W        W26696  25.755  27.950  12.100
54437W        W26697  44.216  28.581  11.942
54438W        W26698  19.641  11.452  12.825
54439W        W26699  42.966  34.958  11.936
54440W        W26700  21.870  22.212  10.645
54441W        W26701  17.301   6.248  14.400
54442W        W26702  25.054  43.904  10.740
54443W        W26703   7.783  44.565   1.296
54444W        W26704  40.934  17.218   3.001
54445W        W26705  15.500  33.608   3.322
54446W        W26706  33.649  44.429   3.826
54447W        W26707  40.696  18.452   3.767
54448W        W26708  23.175  18.300  14.496
54449W        W26709  33.291  44.499  13.716
54450W        W26710   5.831  44.276  14.900
54451W        W26711  31.960  21.110   4.609
54452W        W26712  39.288  38.915  10.188
54453W        W26713  19.932  31.467   4.856
54454W        W26714  35.115  36.190   0.806
54455W        W26715  28.808   0.381  14.526
54456W        W26716  12.341   5.205  14.484
54457W        W26717   2.449   6.393   3.525
54458W        W26718  33.509  16.187  12.836
54459W        W26719  20.511   2.547  10.591
54460W        W26720  28.006  21.199   4.579
54461W        W26721  28.526  10.766   3.605
54462W        W26722  15.831  12.809  13.116
54463W        W26723  27.007  15.214   1.845
54464W        W26724  20.681  36.343   4.229
54465W        W26725  17.647  28.011   1.800
54466W        W26726  12.663  16.839  11.071
54467W        W26727  15.558  35.919  14.299
54468W        W26728  20.138   9.321  10.653
54469W        W26729  30.341  32.871  11.487
54470W        W26730  21.639   0.989  10.675
54471W        W26731  16.367   4.467  13.380
54472W        W26732   3.055  43.319   3.886
54473W        W26733   5.145  20.219   3.245
54474W        W26734   1.722  12.260  12.976
54475W        W26735  16.232  32.270  14.430
54476W        W26736   5.959  14.104  11.160
54477W        W26737  27.201  35.799  11.426
54478W        W26738  15.148  31.294   4.005
54479W        W26739  35.765  20.733   3.060
54480W        W26740  21.004  10.236  14.945
54481W        W26741  12.119  36.441  14.803
54482W        W26742  15.285  42.492  11.070
54483W        W26743  14.290  22.709  12.130
54484W        W26744  42.037  13.756  14.362
54485W        W26745  18.099  38.136   3.184
54486W        W26746  22.716   9.218  11.231
54487W        W26747  20.496   8.812   1.072
54488W        W26748  34.893   6.749   1.669
54489W        W26749  43.283  19.704   3.681
54490W        W26750  42.303  23.125  14.615
54491W        W26751  14.062  18.280   2.638
54492W        W26752  10.224  25.431  12.027
54493W        W26753   8.861  34.615   0.942
54494W        W26754  23.622  13.904   4.922
54495W        W26755   2.278  17.811   2.251
54496W        W26756   7.733   2.510   0.448
54497W        W26757  20.413  37.758  12.404
54498W        W26758   5.232  26.194   2.595
54499W        W26759  10.887  33.961   0.334
54500W        W26760  37.265  41.532   4.913
54501W        W26761  10.831  14.800   0.032
54502W        W26762   4.147  16.283   0.421
54503W        W26763  16.983   8.553   2.811
54504W        W26764  32.592  14.777   4.388
54505W        W26765   7.617  13.610  10.638
54506W        W26766  22.051  34.866   0.392
54507W        W26767  32.074  24.971   0.257
54508W        W26768  33.086  10.279   3.971
54509W        W26769  12.843  35.324   3.096
54510W        W26770  12.152  22.787   0.729
54511W        W26771  14.632  37.906   2.309
54512W        W26772  16.156  43.795  12.456
54513W        W26773   8.910  15.496  11.043
54514W        W26774  38.036   9.298   2.832
54515W        W26775  41.485   8.303   0.962
54516W        W26776  10.599  14.787  12.464
54517W        W26777  17.058  30.958  12.035
54518W        W26778  21.571   5.856  13.527
54519W        W26779  12.070  40.405   3.308
54520W        W26780  40.074  18.416  13.999
54521W        W26781  39.228  19.682   2.194
54522W        W26782  22.502  12.885   4.555
54523W        W26783  15.114  26.006   0.316
54524W        W26784  42.559   8.762  12.402
54525W        W26785   5.609   6.665  13.048
54526W        W26786  44.955   3.269  14.962
54527W        W26787  43.925   4.621  14.785
54528W        W26788   8.852  11.363  13.432
54529W        W26789  43.701  28.407  11.862
54530W        W26790  39.071  26.464   4.344
54531W        W26791  22.762  12.162  11.627
54532W        W26792  15.680  36.861  10.614
54533W        W26793  36.088  19.026  12.272
54534W        W26794   7.904  11.070   2.322
54535W        W26795  22.463  19.574  13.071
54536W        W26796  11.258   1.399  10.732
54537W        W26797  43.488  41.418  14.191
54538W        W26798   6.156  30.855   2.887
54539W        W26799   7.684  25.940  12.470
54540W        W26800  32.449  32.416   4.509
54541W        W26801  29.021  43.151  12.004
54542W        W26802  11.928  38.909   5.070
54543W        W26803  23.708  21.201   4.126
54544W        W26804   3.796   1.993   0.473
54545W        W26805  11.754   3.226  14.820
54546W        W26806  41.119  11.744  13.907
54547W        W26807  44.117  33.036  13.961
54548W        W26808  34.951  12.402   4.516
54549W        W26809  32.370  35.642   3.591
54550W        W26810  11.557  15.860  12.501
54551W        W26811   6.640   7.706   1.831
54552W        W26812  44.966  28.625  11.726
54553W        W26813  16.348  13.395   4.650
54554W        W26814   1.786   0.018  13.192
54555W        W26815  13.584  27.570   4.777
54556W        W26816  36.315  19.222   4.055
54557W        W26817   3.754  33.106   0.213
54558W        W26818  36.448   5.752   4.645
54559W        W26819  23.196  16.364   2.848
54560W        W26820  44.952  20.747  11.515
54561W        W26821  14.849  41.582   1.360
54562W        W26822  16.108  36.233   4.111
54563W        W26823   2.296   0.411   0.870
54564W        W26824   7.438  17.252  13.275
54565W        W26825  38.349  32.071  12.537
54566W        W26826  37.340  40.611   1.132
54567W        W26827  19.534  34.173  10.796
54568W        W26828  42.956  40.960   0.861
54569W        W26829  31.305  13.624   3.373
54570W        W26830  40.882  37.966  14.444
54571W        W26831  13.797  28.150   1.414
54572W        W26832  22.848  17.096   1.650
54573W        W26833  31.187  25.942  14.388
54574W        W26834  42.871  21.221   3.285
54575W        W26835  24.981  10.081   3.714
54576W        W26836   6.099   2.906  13.558
54577W        W26837  15.551   3.650   1.228
54578W        W26838   8.760   0.227  10.878
54579W        W26839   4.886  10.335   1.370
54580W        W26840  36.876  19.917  14.872
54581W        W26841  39.902  32.163  10.721
54582W        W26842  17.285  23.803   3.317
54583W        W26843  27.158   2.749  14.569
54584W        W26844  14.666  25.399  12.403
54585W        W26845   5.949  13.114   0.309
54586W        W26846  18.710  35.219   3.225
54587W        W26847  39.793   7.240   4.321
54588W        W26848  31.432  34.418  13.399
54589W        W26849  22.671  42.066   4.277
54590W        W26850   6.127  41.144   2.650
54591W        W26851  44.587  31.122   2.356
54592W        W26852  22.081   7.892  12.501
54593W        W26853  18.166  44.307  14.587
54594W        W26854  34.430  25.542  14.904
54595W        W26855   9.764   2.975  14.405
54596W        W26856  39.340  14.678   0.464
54597W        W26857  31.609  43.915   3.201
54598W        W26858  13.327  37.141  14.633
54599W        W26859   8.373  33.946   3.374
54600W        W26860  36.542  27.570  12.350
54601W        W26861  28.265  21.184   4.135
54602W        W26862  41.773  22.492  10.238
54603W        W26863  15.494   3.773   2.668
54604W        W26864   8.941  22.025  11.954
54605W        W26865  35.551  31.856   1.322
54606W        W26866  18.299  40.568  11.466
54607W        W26867  17.446   5.009  11.178
54608W        W26868  19.336  42.551  13.050
54609W        W26869  15.070   7.215   0.418
54610W        W26870  27.905  28.487   3.688
54611W        W26871  12.218  14.282   2.583
54612W        W26872  18.089  13.245  14.783
54613W        W26873  29.235  16.185  11.164
54614W        W26874   4.720  37.334  12.409
54615W        W26875  40.722  41.755   3.572
54616W        W26876   5.003  21.574  14.727
54617W        W26877  30.110  28.902   3.741
54618W        W26878   6.178  14.790  14.898
54619W        W26879  20.198  15.703   2.275
54620W        W26880   2.387   2.881   3.077
54621W        W26881  19.623  40.566   3.944
54622W        W26882  24.388  22.198   1.330
54623W        W26883  20.110   6.887   4.090
54624W        W26884  31.009  18.234  10.700
54625W        W26885  19.175  27.187   0.777
54626W        W26886  13.230  18.111   2.146
54627W        W26887  28.027  32.423  14.869
54628W        W26888  14.748  34.986   2.922
54629W        W26889  12.286  36.408   1.953
54630W        W26890  35.896  44.314   4.569
54631W        W26891  21.542  31.495   0.707
54632W        W26892   4.608  26.793   1.852
54633W        W26893  25.605  29.214   2.669
54634W        W26894  10.123  26.966   0.451
54635W        W26895  20.164  18.701   5.385
54636W        W26896  27.461  26.445   0.397
54637W        W26897   2.715   4.903   4.178
54638W        W26898  24.535  18.429   5.036
54639W        W26899  14.386  43.280  11.132
54640W        W26900   9.744  40.419   3.197
54641W        W26901  17.714  15.778  10.760
54642W        W26902  38.228  10.233   4.206
54643W        W26903  29.718  37.935   0.780
54644W        W26904  14.254   0.952  12.499
54645W        W26905   5.527  24.079  12.432
54646W        W26906  22.989  37.845  13.986
54647W        W26907   6.890   6.204  14.495
54648W        W26908  31.489   9.223   3.846
54649W        W26909   5.103  13.719  12.736
54650W        W26910  28.440  23.634   3.441
54651W        W26911  13.832  21.995   1.713
54652W        W26912  11.112  12.166  11.124
54653W        W26913  13.856  34.864  10.966
54654W        W26914  33.083  42.029   0.184
54655W        W26915   6.854  34.506  11.906
54656W        W26916  14.668  18.865   1.841
54657W        W26917  36.419   5.854  12.096
54658W        W26918  11.821  20.216   2.399
54659W        W26919  29.281  21.124   2.807
54660W        W26920   5.744  41.036   3.001
54661W        W26921  12.693  14.278   2.358
54662W        W26922  34.938  26.506  12.485
54663W        W26923  26.123  29.156  12.939
54664W        W26924  40.943  31.663   1.171
54665W        W26925  18.575  10.227   0.338
54666W        W26926   7.702  36.628   0.077
54667W        W26927  38.909   2.821   2.903
54668W        W26928   0.815  22.581   4.980
54669W        W26929  35.377  36.437   4.042
54670W        W26930  35.475  31.386   1.513
54671W        W26931  24.517  43.531   4.550
54672W        W26932  37.072  17.021   4.199
54673W        W26933  23.202  31.965   1.506
54674W        W26934  38.273  42.294   1.698
54675W        W26935  44.518  34.000   3.354
54676W        W26936  41.441   0.670   3.554
54677W        W26937  44.939  44.784  13.903
54678W        W26938  13.848  20.762  11.614
54679W        W26939   6.909  11.944  14.655
54680W        W26940  24.083  37.424   4.883
54681W        W26941  28.663  19.575  10.664
54682W        W26942   8.456  40.424   1.870
54683W        W26943  34.019  19.290  12.228
54684W        W26944  19.136   2.124   0.855
54685W        W26945   9.956   0.206   1.359
54686W        W26946  20.620  28.038  10.220
54687W        W26947  39.631  32.009  11.440
54688W        W26948   7.676  35.591   3.292
54689W        W26949  17.318  29.949   4.594
54690W        W26950   2.430  34.963  14.251
54691W        W26951  17.562  37.415   1.202
54692W        W26952   8.940  27.643   4.412
54693W        W26953  24.157  40.995  12.743
54694W        W26954  15.036  11.390  11.673
54695W        W26955  28.687  43.823   3.777
54696W        W26956   2.829  26.756   3.734
54697W        W26957   6.900   8.711  13.507
54698W        W26958   5.452  36.994   0.581
54699W        W26959   9.931  12.827  12.065
54700W        W26960  26.146   4.125  14.080
54701W        W26961  33.198  35.538   1.647
54702W        W26962  18.715  15.108  13.126
54703W        W26963  20.887  22.030   3.489
54704W        W26964   5.333  35.624  13.931
54705W        W26965  34.151   2.861  11.560
54706W        W26966  17.852   4.261   1.751
54707W        W26967  33.459  25.259  13.822
54708W        W26968   5.691   6.262   4.027
54709W        W26969  18.091   4.645  11.430
54710W        W26970  11.310  17.462   1.943
54711W        W26971  21.993  21.239   0.199
54712W        W26972  11.261  28.165   1.404
54713W        W26973  18.538  33.826  14.803
54714W        W26974  40.735  30.294   3.933
54715W        W26975  11.774  17.708   2.087
54716W        W26976  18.002  12.092   3.382
54717W        W26977   8.200   4.978  11.071
54718W        W26978  27.164  28.550   0.343
54719W        W26979  37.023  28.244  14.829
54720W        W26980  41.443  27.375   0.345
54721W        W26981  33.152  10.761   4.157
54722W        W26982   1.912  25.235  12.195
54723W        W26983  21.137   5.952  13.269
54724W        W26984  36.976   9.959   3.697
54725W        W26985  12.944  19.564  14.064
54726W        W26986   9.670  15.745  12.096
54727W        W26987   5.734  39.321  10.746
54728W        W26988   6.978  18.779  13.841
54729W        W26989  10.114   7.165   0.405
54730W        W26990  22.227   2.341  12.653
54731W        W26991  13.554   7.894   0.992
54732W        W26992  25.182  29.897   0.175
54733W        W26993   5.472  37.021   4.732
54734W        W26994  38.106  39.763   3.069
54735W        W26995  36.890   5.357  13.561
54736W        W26996  44.427  43.055   1.226
54737W        W26997  17.715  35.586   0.309
54738W        W26998   3.378  21.476   0.500
54739W        W26999  21.066  39.055   1.242
54740W        W27000  35.392  27.347   3.622
54741W        W27001  41.988  18.144  10.543
54742W        W27002  28.466  20.066  13.420
54743W        W27003  18.836  41.421   3.624
54744W        W27004  19.749  13.373   4.029
54745W        W27005  33.542  38.033   2.675
54746W        W27006  24.264  11.893  14.282
54747W        W27007  17.644   7.746   5.465
54748W        W27008  20.025  22.672   4.498
54749W        W27009  42.843  16.748   0.309
54750W        W27010  15.637  35.189   4.793
54751W        W27011   2.947  24.604   0.907
54752W        W27012   2.840  33.586   3.905
54753W        W27013  18.112  42.819   3.599
54754W        W27014   6.898   7.971   3.118
54755W        W27015   5.895   1.814  12.857
54756W        W27016  24.697  41.792   4.146
54757W        W27017   4.346  35.646  14.883
54758W        W27018  31.491  37.301  12.090
54759W        W27019  43.314  44.007   4.508
54760W        W27020  12.484   6.414   0.020
54761W        W27021  29.210  39.333   0.304
54762W        W27022   8.253  16.075  11.636
54763W        W27023  28.772  24.125   4.492
54764W        W27024   0.898  13.229   4.632
54765W        W27025  18.261  14.136  11.100
54766W        W27026  29.392  30.564   2.626
54767W        W27027   7.970  36.818  11.256
54768W        W27028   0.291   4.321   3.829
54769W        W27029  11.423   3.306   4.780
54770W        W27030   1.289   5.692   4.477
54771W        W27031  36.620  36.038  10.619
54772W        W27032  18.501  40.860   3.969
54773W        W27033  10.332  30.435   3.881
54774W        W27034  20.980   0.745   2.709
54775W        W27035  12.721  26.068   1.275
54776W        W27036  40.573   5.937   0.461
54777W        W27037  14.475  33.542  13.043
54778W        W27038  37.838  24.664   1.228
54779W        W27039   7.275   8.538   3.632
54780W        W27040   0.349  24.984   1.352
54781W        W27041  34.491  42.096   1.646
54782W        W27042  40.067  16.569  13.503
54783W        W27043   0.516   9.210   4.170
54784W        W27044  34.436  35.296   4.710
54785W        W27045   6.504  31.683  13.369
54786W        W27046   3.298  24.417  14.189
54787W        W27047   2.021  12.373   0.459
54788W        W27048  16.643  28.845   4.078
54789W        W27049  16.252  23.676   1.329
54790W        W27050  12.670  25.767   2.267
54791W        W27051  38.394  16.677   3.096
54792W        W27052   1.520  30.392   2.141
54793W        W27053  44.476  36.836  14.988
54794W        W27054   2.424  16.264  12.808
54795W        W27055   9.384  42.056  12.050
54796W        W27056  32.826  11.917  14.064
54797W        W27057  25.972  18.950   4.133
54798W        W27058  11.853  40.054  11.558
54799W        W27059  38.586  13.238  14.306
54800W        W27060  38.932  24.279  13.915
54801W        W27061  33.550   6.801   1.538
54802W        W27062  24.618  24.184   4.337
54803W        W27063   7.344   0.744   3.214
54804W        W27064  40.375   7.394   3.508
54805W        W27065  20.685  37.357  12.147
54806W        W27066  17.929  37.092   3.315
54807W        W27067   1.568  36.441  11.480
54808W        W27068  25.435   4.245  13.602
54809W        W27069   5.171   0.508  11.020
54810W        W27070  41.614  12.362   3.744
54811W        W27071  24.127  21.269  13.736
54812W        W27072  22.191  11.392   4.641
54813W        W27073   2.833  11.372   2.182
54814W        W27074   3.752  14.662   3.372
54815W        W27075  32.494  13.796  11.911
54816W        W27076  16.762  23.230   1.405
54817W        W27077  25.842  39.293  13.067
54818W        W27078   4.612  21.225   0.020
54819W        W27079   3.459  29.880   1.045
54820W        W27080  31.589  15.265  11.950
54821W        W27081  28.200  28.959   0.376
54822W        W27082  22.493   8.850  10.931
54823W        W27083  11.548  17.706   3.144
54824W        W27084  27.398  12.262   3.885
54825W        W27085  36.634   2.451   4.662
54826W        W27086  11.228  19.316   1.876
54827W        W27087  16.766  39.332  14.008
54828W        W27088   9.455  25.598  13.427
54829W        W27089  30.862  39.904   0.763
54830W        W27090  23.526  22.570   3.097
54831W        W27091  15.244   6.937  11.079
54832W        W27092  28.001  24.424   3.872
54833W        W27093   4.268  36.082   3.885
54834W        W27094  12.899  35.564  11.134
54835W        W27095  30.664  32.909   0.104
54836W        W27096  17.129  10.242   1.706
54837W        W27097  20.501  41.992   3.795
54838W        W27098  34.429  41.370  14.904
54839W        W27099  42.014  25.571  12.594
54840W        W27100  42.704  30.319   2.327
54841W        W27101  40.816  36.782   0.764
54842W        W27102  13.808  27.134   2.400
54843W        W27103  29.730  37.767   1.789
54844W        W27104  15.154  35.978   0.075
54845W        W27105  31.930  30.119  14.830
54846W        W27106  14.600  31.231   4.740
54847W        W27107  41.754   7.701   1.531
54848W        W27108  18.534  23.574  11.162
54849W        W27109  29.678   3.708  14.431
54850W        W27110  42.433  39.319   1.253
54851W        W27111  11.844   8.002  12.208
54852W        W27112  21.163  38.383  11.583
54853W        W27113  36.338  41.306  13.466
54854W        W27114   2.533  21.574  13.893
54855W        W27115  39.935   7.733  12.783
54856W        W27116   5.488   7.504   4.632
54857W        W27117  34.631  26.738  13.959
54858W        W27118   1.944  31.723   3.234
54859W        W27119  37.785   1.027  12.588
54860W        W27120   6.127  22.395  10.253
54861W        W27121  32.113   9.625   3.368
54862W        W27122  38.003  10.284  10.922
54863W        W27123  12.654  36.108  14.457
54864W        W27124  35.980  43.790  12.546
54865W        W27125   3.718  27.944   2.806
54866W        W27126  31.199   0.416   3.214
54867W        W27127  21.527   0.287  13.882
54868W        W27128   5.198  15.275  11.713
54869W        W27129   5.767  36.051  11.451
54870W        W27130   2.887  19.852   4.811
54871W        W27131  42.429  38.387   1.756
54872W        W27132  34.007  36.345  13.067
54873W        W27133   6.380  26.475   2.390
54874W        W27134  31.544  11.281  14.166
54875W        W27135   2.901  18.176  12.348
54876W        W27136  42.456   9.358  12.877
54877W        W27137   8.808  21.043   0.705
54878W        W27138  18.702   7.406   0.021
54879W        W27139  36.850  39.246  14.809
54880W        W27140   6.958  19.002   3.790
54881W        W27141   3.261  35.388  11.947
54882W        W27142  38.823   0.146  13.462
54883W        W27143   2.703  37.147  11.139
54884W        W27144  40.490  34.524   3.948
54885W        W27145  30.250  11.801  12.953
54886W        W27146   1.702  12.260   0.918
54887W        W27147   9.619  41.928   2.452
54888W        W27148   2.453  34.889   4.201
54889W        W27149   3.766  36.172   1.243
54890W        W27150  29.578  39.000   1.320
54891W        W27151  35.927  18.818   0.860
54892W        W27152   3.253  36.164  11.632
54893W        W27153   0.535  19.610   1.738
54894W        W27154  33.829  28.290  13.062
54895W        W27155   2.013  17.532  13.849
54896W        W27156  43.004  37.563   4.224
54897W        W27157  14.139  40.067  11.044
54898W        W27158  37.576  21.697   4.182
54899W        W27159  14.285  41.721   2.368
54900W        W27160  33.026  42.953  12.792
54901W        W27161  28.919  11.693   3.582
54902W        W27162  27.504   5.415  13.064
54903W        W27163  39.910  41.422  14.284
54904W        W27164   7.275  29.603  11.670
54905W        W27165  33.635   8.250   9.800
54906W        W27166  39.766   9.817  12.546
54907W        W27167  35.359  18.531  14.068
54908W        W27168  22.424  39.407   0.254
54909W        W27169  32.968   5.682  12.821
54910W        W27170  42.448  44.994   1.453
54911W        W27171  44.990   0.757  13.995
54912W        W27172  37.901  11.715  14.289
54913W        W27173  26.122  15.695   0.247
54914W        W27174  13.651  10.686   2.456
54915W        W27175  30.338  33.102   1.923
54916W        W27176   8.757  19.674  14.377
54917W        W27177  24.449  26.511  10.639
54918W        W27178  22.389  30.555   2.235
54919W        W27179  39.856  11.379  12.039
54920W        W27180  34.575  33.014  12.920
54921W        W27181  44.239  43.262  11.593
54922W        W27182  31.473  33.290  14.706
54923W        W27183  20.332  30.397   3.128
54924W        W27184  33.914   5.931   1.737
54925W        W27185  11.375  37.467  12.110
54926W        W27186  43.523   2.988   3.280
54927W        W27187  23.335  10.807   4.251
54928W        W27188  36.144  26.716   0.460
54929W        W27189   9.126  29.759  14.726
54930W        W27190  44.328  40.504  12.307
54931W        W27191  37.132  41.922   1.265
54932W        W27192   7.632  31.464  12.455
54933W        W27193   2.233   8.741   1.245
54934W        W27194  24.561  21.221   1.710
54935W        W27195  41.373   5.263   3.532
54936W        W27196  31.406   5.991  11.557
54937W        W27197  10.273   7.532   4.917
54938W        W27198  24.276  11.580  13.382
54939W        W27199  41.299   4.793  10.640
54940W        W27200  15.416  17.303  13.935
54941W        W27201  25.514  21.683   3.187
54942W        W27202   3.061  33.826  14.307
54943W        W27203  39.904  18.378   4.626
54944W        W27204  36.506   2.154  11.605
54945W        W27205  31.233  25.581   1.309
54946W        W27206   5.061  43.507   2.297
54947W        W27207  14.717  15.327   1.780
54948W        W27208  28.353   1.238  12.843
54949W        W27209  34.856  29.532  12.491
54950W        W27210  40.619  34.695  10.705
54951W        W27211  37.861  35.625   3.743
54952W        W27212  12.289  35.813  14.162
54953W        W27213  31.969  16.260  11.975
54954W        W27214   0.293  27.230  12.122
54955W        W27215  41.592  13.376  10.756
54956W        W27216  25.475  11.946   2.718
54957W        W27217  35.297  43.942  11.348
54958W        W27218  37.143  37.964   3.749
54959W        W27219   5.940  15.687   0.363
54960W        W27220  13.820   0.716  11.699
54961W        W27221   3.969   9.163   3.613
54962W        W27222  27.841   5.773  12.945
54963W        W27223   8.256  34.102  11.718
54964W        W27224  36.900  40.261   0.287
54965W        W27225  40.847  28.983   1.776
54966W        W27226  40.771   2.635  12.817
54967W        W27227  35.919  36.473  12.655
54968W        W27228  31.593  14.186   2.990
54969W        W27229  16.354  32.373   4.719
54970W        W27230  38.288  29.743   1.754
54971W        W27231  31.302  13.400  12.488
54972W        W27232  30.530  28.685   2.711
54973W        W27233  23.174  41.040   0.860
54974W        W27234   5.947  35.871   2.818
54975W        W27235  22.085  36.273   3.231
54976W        W27236  15.464  16.764  12.317
54977W        W27237  42.304  17.231  13.975
54978W        W27238  44.575  37.007  14.348
54979W        W27239  21.042   1.990  13.314
54980W        W27240  15.461   9.720  13.481
54981W        W27241  29.462  39.194  12.193
54982W        W27242  32.549   7.190   2.288
54983W        W27243  43.303  11.548  14.323
54984W        W27244  30.930  44.584   0.160
54985W        W27245   3.957   0.266  11.985
54986W        W27246  41.493  32.471  11.575
54987W        W27247  15.583  25.632  12.541
54988W        W27248  30.532  35.502  13.076
54989W        W27249  16.150  14.124   4.215
54990W        W27250   4.827  26.956   3.749
54991W        W27251   8.099   1.134   3.620
54992W        W27252  32.791  14.199  12.991
54993W        W27253   6.713  10.173  11.070
54994W        W27254  15.768  19.774   2.237
54995W        W27255  37.478   9.124   2.598
54996W        W27256  19.208  35.674   4.935
54997W        W27257  37.482  21.195   3.207
54998W        W27258  11.604   8.723   0.481
54999W        W27259  22.822  24.093   4.701
55000W        W27260  33.141  42.527  12.519
55001W        W27261  17.292  38.634   0.303
55002W        W27262  33.590  12.334  13.966
55003W        W27263  23.538  22.054   4.665
55004W        W27264  31.436  25.982   0.857
55005W        W27265   2.774   8.614  13.921
55006W        W27266  33.453  36.627   0.433
55007W        W27267   3.483  17.663   0.670
55008W        W27268   6.136  11.282   0.232
55009W        W27269  21.840  43.373  12.233
55010W        W27270  26.992   1.833  11.931
55011W        W27271  44.374  41.765  13.291
55012W        W27272  19.242  25.992  12.995
55013W        W27273  25.553  43.909   4.188
55014W        W27274  16.829  18.218   4.557
55015W        W27275  13.332  42.962  14.075
55016W        W27276  19.227  22.173   1.671
55017W        W27277  11.673  41.969   2.391
55018W        W27278  26.714  41.148  12.014
55019W        W27279  36.813   2.313  13.566
55020W        W27280   3.895  37.377  12.080
55021W        W27281  22.976  26.631   2.464
55022W        W27282   9.874  42.526   0.265
55023W        W27283   9.880  36.422   0.413
55024W        W27284  42.935   9.819  14.809
55025W        W27285  18.803  39.501   4.079
55026W        W27286  11.701   7.214  10.162
55027W        W27287  43.561   6.329  10.037
55028W        W27288  11.959  19.234   4.021
55029W        W27289  33.838  14.694  10.281
55030W        W27290   8.712   5.491  14.626
55031W        W27291  41.888  42.620  11.833
55032W        W27292  15.145  17.775  10.987
55033W        W27293  33.045  24.669   0.862
55034W        W27294  42.951  23.319   1.805
55035W        W27295  34.429  21.734  12.464
55036W        W27296  30.553  38.336  14.310
55037W        W27297  27.657   5.438   3.323
55038W        W27298  26.662  40.468   1.856
55039W        W27299  25.641  29.826   3.290
55040W        W27300  19.340  42.754  12.570
55041W        W27301   9.076  34.392   0.301
55042W        W27302   5.857  40.990   4.012
55043W        W27303  27.733  26.566   2.295
55044W        W27304  14.187  44.560   2.848
55045W        W27305  11.339  39.227   4.594
55046W        W27306   1.912  36.778  13.861
55047W        W27307  43.214   4.925   4.190
55048W        W27308  13.701  11.360   4.215
55049W        W27309  31.842   8.622  11.498
55050W        W27310  38.908   5.764  12.579
55051W        W27311   1.940  33.959   1.682
55052W        W27312  37.140   5.654  10.142
55053W        W27313  18.597   1.026  13.443
55054W        W27314  30.158  18.325  14.104
55055W        W27315  27.315  23.927   1.925
55056W        W27316  36.406  40.049   3.295
55057W        W27317  18.472   7.808  12.872
55058W        W27318  30.415  39.098  14.812
55059W        W27319  16.357  33.203   3.232
55060W        W27320  36.623  44.929   1.968
55061W        W27321   0.928  32.507  12.509
55062W        W27322  35.041   7.035   0.310
55063W        W27323  19.670  39.331   1.476
55064W        W27324  23.521  25.729   2.309
55065W        W27325  17.109  18.502   2.286
55066W        W27326  33.017  34.422  12.965
55067W        W27327  32.901   4.748  14.164
55068W        W27328  41.488   3.745   2.766
55069W        W27329   2.428   6.162   3.040
55070W        W27330  16.725  21.016  14.348
55071W        W27331  38.494   8.376   4.103
55072W        W27332  40.536   4.736   3.701
55073W        W27333  43.252  40.090  14.546
55074W        W27334  43.492  15.314  12.862
55075W        W27335  37.574   8.183   5.122
55076W        W27336  14.306  24.573  12.018
55077W        W27337  41.077  10.167  12.601
55078W        W27338  43.425  14.819  11.984
55079W        W27339  14.277  27.114  12.875
55080W        W27340  18.494  10.725   3.707
55081W        W27341  20.433  26.035  11.543
55082W        W27342  23.036  22.800   4.694
55083W        W27343  41.511  17.362   0.326
55084W        W27344   7.684  37.871   1.270
55085W        W27345  41.220  10.446   4.158
55086W        W27346  22.695  21.961  10.644
55087W        W27347   6.016  42.010   2.708
55088W        W27348  20.937  40.635   0.389
55089W        W27349  34.288  17.036  11.237
55090W        W27350  22.729  23.182   2.087
55091W        W27351  28.933   0.584  13.980
55092W        W27352   5.743  22.246   3.366
55093W        W27353  40.721   9.116   1.758
55094W        W27354  39.296  22.953  13.912
55095W        W27355  35.458  37.244  12.963
55096W        W27356  21.824   1.404  10.956
55097W        W27357  34.329   4.945   3.134
55098W        W27358   1.345   4.864   3.326
55099W        W27359  14.171  34.532  11.495
55100W        W27360   0.916  14.471   3.897
55101W        W27361  44.537  44.855   2.294
55102W        W27362   6.316  27.958  14.193
55103W        W27363  19.039  29.196  10.778
55104W        W27364  35.877  17.168   2.757
55105W        W27365  30.554  33.836   2.347
55106W        W27366  31.558  26.495   0.718
55107W        W27367  21.540  37.266   1.527
55108W        W27368  44.927  32.941  14.837
55109W        W27369  32.903  38.428   0.931
55110W        W27370  28.403  26.553  14.383
55111W        W27371  13.754  44.766   3.755
55112W        W27372   8.492  35.156  13.240
55113W        W27373  12.785  23.145   0.501
55114W        W27374  29.443  23.708   3.617
55115W        W27375  20.961  31.332  13.723
55116W        W27376  43.388   2.776   2.636
55117W        W27377  37.388   5.970  10.569
55118W        W27378   4.149  11.116  12.501
55119W        W27379  34.581   8.607   4.091
55120W        W27380  32.759  19.736  13.249
55121W        W27381   7.879   4.256  14.540
55122W        W27382  22.889  23.653  10.724
55123W        W27383  27.996  18.810  10.541
55124W        W27384   1.700  38.395  13.430
55125W        W27385   8.705  43.344  13.476
55126W        W27386  42.475  10.977  10.967
55127W        W27387  28.049  13.057  10.491
55128W        W27388  37.005  22.245  14.846
55129W        W27389  41.817   4.190   1.090
55130W        W27390  30.371  15.751   2.407
55131W        W27391   4.226  12.066   3.772
55132W        W27392  41.852  11.641   3.214
55133W        W27393  28.216   3.032   3.169
55134W        W27394  10.753   2.665  13.801
55135W        W27395  21.705  34.586  13.778
55136W        W27396  20.057  24.801   0.305
55137W        W27397  31.912   3.276   4.611
55138W        W27398  30.159  25.634   4.179
55139W        W27399  12.313  11.675  11.453
55140W        W27400  12.191  28.910  13.972
55141W        W27401  37.417  25.271   3.154
55142W        W27402  39.243  13.172   1.375
55143W        W27403  12.709   7.728   2.636
55144W        W27404  16.091  34.985   1.808
55145W        W27405   4.765  22.934   0.976
55146W        W27406   7.780   0.230   2.333
55147W        W27407  18.715  32.581   1.703
55148W        W27408  28.144   8.920  13.281
55149W        W27409  33.252  29.772  12.581
55150W        W27410  15.179  12.434   1.444
55151W        W27411  37.484   7.242  11.062
55152W        W27412  31.478  34.397  10.719
55153W        W27413   6.276  42.276   3.270
55154W        W27414  10.813  11.818   3.228
55155W        W27415  17.664  35.426  13.432
55156W        W27416   9.540  34.374   4.186
55157W        W27417  11.350  31.902  12.544
55158W        W27418   6.424  32.137  13.566
55159W        W27419  21.342  23.715   1.690
55160W        W27420  24.936  20.170   0.380
55161W        W27421  11.794   9.008  12.519
55162W        W27422   5.934  12.724  12.982
55163W        W27423  42.302  34.126  12.910
55164W        W27424  24.001  25.950   4.260
55165W        W27425   5.488  30.921  14.488
55166W        W27426  13.865  40.360   4.178
55167W        W27427  30.239  27.118  11.186
55168W        W27428  27.212  31.768   3.151
55169W        W27429  38.529   0.270  13.875
55170W        W27430  14.056  44.174   4.524
55171W        W27431  12.796  21.836  14.565
55172W        W27432   6.310  28.530   1.872
55173W        W27433  38.819  12.902  12.556
55174W        W27434  18.015   3.778  14.311
55175W        W27435   7.098   8.469   1.349
55176W        W27436  20.012  39.382   0.754
55177W        W27437  40.009   3.519  12.554
55178W        W27438   3.466  27.382  10.319
55179W        W27439  30.446   0.576   0.650
55180W        W27440  13.654  28.116  11.099
55181W        W27441  17.642  25.244  12.091
55182W        W27442  22.232  19.003   1.400
55183W        W27443   4.000  14.414   4.161
55184W        W27444   0.581  14.996  13.088
55185W        W27445  36.498  18.684   2.815
55186W        W27446  38.589  35.617   0.270
55187W        W27447  15.140  30.477   4.605
55188W        W27448  13.468  22.009   1.199
55189W        W27449   5.934   9.166  11.972
55190W        W27450  33.120   6.744   4.382
55191W        W27451  19.108  37.498  12.619
55192W        W27452  33.042  20.579   4.686
55193W        W27453  25.612  42.420  14.713
55194W        W27454   7.202  44.836   2.746
55195W        W27455   8.076  12.172   4.484
55196W        W27456  25.684  40.758   4.268
55197W        W27457  27.707  30.448  11.149
55198W        W27458   4.303  40.771   4.211
55199W        W27459  20.092  19.667   4.226
55200W        W27460   9.309  37.378   1.992
55201W        W27461  31.445  18.319   1.187
55202W        W27462  41.905  32.670   0.152
55203W        W27463   6.475  37.179  11.889
55204W        W27464  14.242  32.685  11.061
55205W        W27465  40.296  42.538  14.774
55206W        W27466  15.546  22.485   1.736
55207W        W27467  15.537  31.008  13.286
55208W        W27468  22.445   0.346  11.982
55209W        W27469  10.109   2.447   3.270
55210W        W27470  27.961  30.903   5.030
55211W        W27471  20.259  24.518   0.695
55212W        W27472  17.793  43.082  12.452
55213W        W27473   6.820  40.825   3.098
55214W        W27474  36.430  13.598   0.332
55215W        W27475   0.280   9.257  12.428
55216W        W27476  33.420  33.673  12.869
55217W        W27477  29.145  23.756  14.832
55218W        W27478   4.802  34.391  13.965
55219W        W27479  33.211  36.461  10.822
55220W        W27480  11.158  30.153   0.382
55221W        W27481  43.086   2.446  14.046
55222W        W27482  28.971  21.128  14.511
55223W        W27483  14.376  20.254  11.044
55224W        W27484   4.408   7.169   4.605
55225W        W27485   3.683  24.743  11.217
55226W        W27486  39.704  44.017   3.742
55227W        W27487  22.099  22.298   5.439
55228W        W27488  18.919   2.958   2.569
55229W        W27489  13.084  11.376   2.455
55230W        W27490  33.637  31.409  10.823
55231W        W27491  18.978  37.033  11.169
55232W        W27492   8.749  29.530   0.045
55233W        W27493  26.828  34.945   1.280
55234W        W27494   0.472   8.692  13.999
55235W        W27495  32.622   9.292   1.375
55236W        W27496  26.024   5.709   4.213
55237W        W27497  15.401  29.896   0.841
55238W        W27498  41.744  10.593   1.207
55239W        W27499  13.080  12.162  11.994
55240W        W27500  42.844  21.672  10.898
55241W        W27501   8.616  44.989   4.555
55242W        W27502  20.291  32.013   0.301
55243W        W27503   8.211  35.457   0.500
55244W        W27504  24.253  19.112   2.277
55245W        W27505  29.434  38.850  10.938
55246W        W27506  27.156  11.787  14.004
55247W        W27507  44.049   7.483  10.559
55248W        W27508   2.669  44.726  11.854
55249W        W27509  26.636  20.110  10.345
55250W        W27510  28.897  30.582   0.114
55251W        W27511   8.162   0.429   1.948
55252W        W27512  10.881  15.451  11.180
55253W        W27513  15.723   4.535   3.149
55254W        W27514  42.522  16.755  10.634
55255W        W27515  38.458  38.212  10.883
55256W        W27516  31.881  13.801  11.554
55257W        W27517  40.043  28.952  14.966
55258W        W27518  38.987  42.379  14.195
55259W        W27519  29.831  24.662   4.301
55260W        W27520  18.293  39.329  11.225
55261W        W27521   2.868  30.120  14.861
55262W        W27522  31.523  13.673   3.828
55263W        W27523   9.711  13.156   4.812
55264W        W27524  37.607  38.415  10.726
55265W        W27525   1.937  38.778   0.495
55266W        W27526  44.345  27.836   3.272
55267W        W27527  34.972  24.059  12.558
55268W        W27528   3.643  17.172   4.228
55269W        W27529  20.258  30.858  13.145
55270W        W27530  16.928   9.470   3.121
55271W        W27531  25.935  16.134  14.028
55272W        W27532  30.740  13.350  14.073
55273W        W27533  41.966  27.999  13.208
55274W        W27534  10.122  37.483   3.264
55275W        W27535   9.901  25.137  14.072
55276W        W27536   8.966  19.162   3.964
55277W        W27537  15.580  13.207   4.422
55278W        W27538  28.208  24.426   3.383
55279W        W27539  32.140  15.962  14.529
55280W        W27540  36.056  34.784  11.521
55281W        W27541  11.274  10.270   1.815
55282W        W27542  32.015   9.605   0.723
55283W        W27543  10.404  36.095  11.643
55284W        W27544  16.182  31.500  13.903
55285W        W27545  15.983  24.906  14.336
55286W        W27546  10.459  24.175   0.351
55287W        W27547  11.621  26.716  11.660
55288W        W27548  43.596   6.977   0.271
55289W        W27549  41.542   3.264   3.682
55290W        W27550  18.237  19.613   3.880
55291W        W27551  32.398  39.994  12.117
55292W        W27552  16.192   9.248   1.872
55293W        W27553  35.770  38.276  14.928
55294W        W27554  39.006  41.919   1.679
55295W        W27555   7.653   3.857   3.331
55296W        W27556  29.855  17.486  11.611
55297W        W27557  33.000  24.088   0.202
55298W        W27558  39.070  42.698   1.489
55299W        W27559  28.116  43.122  11.389
55300W        W27560  40.114  21.761  14.234
55301W        W27561   0.688  20.166  14.847
55302W        W27562  28.914  38.341   2.788
55303W        W27563  18.827   8.697   0.325
55304W        W27564   0.850   5.217  12.395
55305W        W27565  11.444  19.437   2.337
55306W        W27566  21.793  17.568  14.344
55307W        W27567  20.742  29.492  13.353
55308W        W27568  27.816  15.313  11.551
55309W        W27569  21.175  36.872  14.358
55310W        W27570   0.903  11.182   4.569
55311W        W27571  33.454  16.096  11.510
55312W        W27572  31.549  17.565   2.704
55313W        W27573  12.239  41.376   3.689
55314W        W27574  40.212   4.825   4.132
55315W        W27575  19.873  30.477  14.346
55316W        W27576  29.480   6.029  12.393
55317W        W27577  19.639  12.675  13.518
55318W        W27578  32.291   1.176  13.040
55319W        W27579  40.757  33.195   0.721
55320W        W27580  16.374  26.121   3.339
55321W        W27581  19.108  30.962   2.697
55322W        W27582  24.967  36.081  13.685
55323W        W27583  13.599  42.817   2.327
55324W        W27584  12.930   2.945  14.988
55325W        W27585  13.692   6.398  11.150
55326W        W27586  30.096  33.658  12.966
55327W        W27587   2.196  15.360   0.828
55328W        W27588   0.458  38.294   2.769
55329W        W27589  11.594  37.967  13.937
55330W        W27590  33.508  16.688   0.311
55331W        W27591   6.908  35.584   4.568
55332W        W27592   4.314  40.123   2.604
55333W        W27593  32.916  12.067   0.388
55334W        W27594   9.306  14.286  11.599
55335W        W27595  38.184  43.010   3.344
55336W        W27596  29.663   3.977  11.745
55337W        W27597   8.256  10.081   0.933
55338W        W27598  19.862  35.211  13.564
55339W        W27599  16.052   1.869  13.122
55340W        W27600  22.174  43.875  12.945
55341W        W27601  24.544  19.998   1.854
55342W        W27602   7.342  12.405   3.149
55343W        W27603  40.572  31.423   0.237
55344W        W27604   0.690  28.994   0.693
55345W        W27605  18.207   3.316  11.955
55346W        W27606  16.756   8.193   3.119
55347W        W27607  35.194  39.945   1.004
55348W        W27608  12.198   9.397  12.993
55349W        W27609  34.617  36.978  10.741
55350W        W27610  12.617   4.782  12.007
55351W        W27611  42.201  29.027   2.886
55352W        W27612  31.088   2.469  13.476
55353W        W27613  31.076  22.715   9.802
55354W        W27614  30.586   5.271   2.457
55355W        W27615  31.988  26.276  10.547
55356W        W27616  30.883   4.385   2.334
55357W        W27617  25.625  22.608   2.655
55358W        W27618   0.480  15.986   4.746
55359W        W27619  24.004  26.286  11.170
55360W        W27620  34.846   6.971   1.223
55361W        W27621  28.636  34.023   4.892
55362W        W27622  16.958  34.144   3.175
55363W        W27623  31.372  39.034   3.697
55364W        W27624  10.641  22.280   0.444
55365W        W27625  39.913  35.541   1.662
55366W        W27626   0.562   5.126  11.010
55367W        W27627   8.399  36.161   1.699
55368W        W27628  14.118  18.154   1.007
55369W        W27629  26.556  41.493   3.840
55370W        W27630  39.959   0.163  12.404
55371W        W27631  34.919  21.572   0.239
55372W        W27632  29.890   6.696   2.174
55373W        W27633  34.432   4.919   0.792
55374W        W27634   2.112   6.685   0.276
55375W        W27635  44.357  14.833  11.995
55376W        W27636  40.106  14.235  13.849
55377W        W27637  15.187  36.090  11.860
55378W        W27638   6.985  11.131  14.066
55379W        W27639  24.424   3.341  11.715
55380W        W27640  24.061  10.352  14.486
55381W        W27641  35.635  12.350  13.023
55382W        W27642   2.780  33.733   1.081
55383W        W27643  39.788  21.564   3.730
55384W        W27644  33.958   8.327   3.338
55385W        W27645  28.378  18.184  13.381
55386W        W27646  41.042  30.196  12.627
55387W        W27647  44.399  14.412  11.669
55388W        W27648  31.121  25.251  11.116
55389W        W27649  41.824  24.749  13.162
55390W        W27650  25.501  20.952  10.228
55391W        W27651  42.248   8.855  12.947
55392W        W27652  22.218  26.939   1.343
55393W        W27653  12.440   2.231   1.832
55394W        W27654  31.460  30.149   2.665
55395W        W27655  44.821  44.310   4.573
55396W        W27656  12.966   9.827   1.517
55397W        W27657   7.714  20.173  13.933
55398W        W27658  24.282  44.727  13.229
55399W        W27659  23.230  35.380  12.979
55400W        W27660  34.953  10.715   3.608
55401W        W27661  16.601  13.367   2.341
55402W        W27662  28.582  42.494  14.776
55403W        W27663   0.357  11.121  12.632
55404W        W27664  15.964  39.660  12.462
55405W        W27665   3.063  30.496   0.243
55406W        W27666  10.803  38.161  13.130
55407W        W27667   3.797  40.413  14.520
55408W        W27668  36.908  27.051  13.921
55409W        W27669  37.947   9.772   0.337
55410W        W27670  22.063  13.281   1.002
55411W        W27671  21.650  38.471   4.083
55412W        W27672  42.113  13.287   2.676
55413W        W27673  37.369  31.582  11.719
55414W        W27674  18.795   7.002  10.233
55415W        W27675  43.332  14.718   3.627
55416W        W27676  21.741   4.799   3.665
55417W        W27677  18.201  26.584  14.584
55418W        W27678  35.480  25.020  12.880
55419W        W27679  30.711  43.954   4.844
55420W        W27680  15.556  37.066  13.654
55421W        W27681  37.920  17.572   1.634
55422W        W27682  20.313  37.047  11.965
55423W        W27683   9.710  36.291   3.537
55424W        W27684  17.443  36.621  11.955
55425W        W27685  36.499  28.245  14.382
55426W        W27686  40.521  20.041  12.465
55427W        W27687  18.692  30.353  12.594
55428W        W27688  34.549  44.526  11.544
55429W        W27689   3.333   6.922  13.019
55430W        W27690   1.176   6.643   1.432
55431W        W27691  34.489   3.390  13.862
55432W        W27692   8.278   7.628   3.245
55433W        W27693  23.063  23.927  11.129
55434W        W27694  19.538   6.691  14.438
55435W        W27695  19.345  18.291  11.136
55436W        W27696   9.747   2.579  12.610
55437W        W27697  14.246   4.334  12.207
55438W        W27698  31.238  26.994  14.856
55439W        W27699  26.648  21.208   3.293
55440W        W27700  15.205  24.186   3.178
55441W        W27701  18.602  27.538   4.749
55442W        W27702  26.830  24.026   5.083
55443W        W27703   6.757   1.542  12.211
55444W        W27704  11.590  18.103  11.234
55445W        W27705   3.469   8.198   0.993
55446W        W27706  25.782  40.355   3.413
55447W        W27707  20.726  10.981  11.097
55448W        W27708  30.440  14.632  13.081
55449W        W27709   8.181  24.403   0.862
55450W        W27710  29.417   1.451  12.555
55451W        W27711  23.000  14.233   3.569
55452W        W27712   9.125  27.404  12.078
55453W        W27713  33.116  16.884  10.336
55454W        W27714  36.516  31.479  11.080
55455W        W27715  40.499   6.629   2.835
55456W        W27716  33.496   1.480   2.727
55457W        W27717   5.969  26.669   4.235
55458W        W27718  25.434  20.524   3.152
55459W        W27719  30.563  26.958   1.951
55460W        W27720  21.509  41.356  11.523
55461W        W27721  33.416  40.465   4.418
55462W        W27722   0.563  33.408  14.985
55463W        W27723  24.243  14.788   3.719
55464W        W27724   6.649  23.124   0.772
55465W        W27725  22.503  38.138   0.848
55466W        W27726  27.973  27.019   4.867
55467W        W27727  33.157  31.090  11.494
55468W        W27728   1.412  10.188   0.067
55469W        W27729  10.304  35.288   0.378
55470W        W27730  38.937  36.123  13.025
55471W        W27731  36.305   4.830  14.463
55472W        W27732  37.048   9.429   4.676
55473W        W27733  39.775  21.085  11.335
55474W        W27734  40.544  28.503  11.014
55475W        W27735  34.104  17.727  10.755
55476W        W27736  18.951   0.397  13.976
55477W        W27737  36.051  16.278  13.402
55478W        W27738  37.318   3.715  12.955
55479W        W27739   8.457  35.438   3.684
55480W        W27740  15.652  37.146  12.451
55481W        W27741  13.483   0.057  13.980
55482W        W27742  42.297  28.175   2.711
55483W        W27743  22.084  25.243  14.169
55484W        W27744   7.880  30.476   1.276
55485W        W27745  21.543  29.002  10.839
55486W        W27746  38.553   4.504  11.936
55487W        W27747  10.833   1.920   1.290
55488W        W27748  16.830  13.747  14.827
55489W        W27749  44.929  29.103  11.529
55490W        W27750   9.263  44.282   0.599
55491W        W27751  26.301  36.994   4.130
55492W        W27752  16.843  18.002   3.668
55493W        W27753   0.848  34.889  14.369
55494W        W27754   2.358  15.408  13.549
55495W        W27755   3.192   8.472  14.490
55496W        W27756  28.954  44.999  10.794
55497W        W27757  10.702  36.945   1.607
55498W        W27758  14.148  40.081   0.816
55499W        W27759   8.394  41.450   0.808
55500W        W27760  26.187  30.376  11.115
55501W        W27761  12.158  17.988  14.825
55502W        W27762  10.380  16.756  11.502
55503W        W27763  26.641  30.644  14.151
55504W        W27764  20.012   6.252  10.984
55505W        W27765   1.573  44.131   1.329
55506W        W27766  16.002  10.480   1.291
55507W        W27767  38.372  19.526   2.207
55508W        W27768  37.160  10.600  14.908
55509W        W27769   5.208   9.845   4.686
55510W        W27770  38.948  16.250  12.056
55511W        W27771  44.708   5.230  11.917
55512W        W27772   2.814  21.592  10.628
55513W        W27773  12.578  40.393   3.428
55514W        W27774  21.559   5.994   4.055
55515W        W27775  31.133  16.782   2.199
55516W        W27776  42.802  14.006  13.846
55517W        W27777  16.064  14.205  14.925
55518W        W27778  14.036   8.231   1.753
55519W        W27779   1.495   3.057   3.712
55520W        W27780  15.721  17.979   2.378
55521W        W27781  38.605  31.583   4.259
55522W        W27782  36.584  27.728  13.233
55523W        W27783   3.803  42.397   3.254
55524W        W27784  41.997  11.213  14.507
55525W        W27785  32.299  21.777   2.799
55526W        W27786  19.607  39.924  12.777
55527W        W27787  41.908  17.313   1.798
55528W        W27788  31.401  38.528   3.695
55529W        W27789  12.418  18.049  12.079
55530W        W27790  33.163  21.719  13.026
55531W        W27791  31.474  10.598   3.785
55532W        W27792  16.051  42.241  11.531
55533W        W27793  10.177  20.967   1.773
55534W        W27794  28.636   7.729  11.940
55535W        W27795  25.696  10.924   3.877
55536W        W27796   0.889  19.276  14.644
55537W        W27797  43.375  12.656  12.865
55538W        W27798  10.878  14.027   2.911
55539W        W27799  39.533  12.802   0.468
55540W        W27800  21.271   5.900   2.345
55541W        W27801  33.380  26.510  11.999
55542W        W27802  31.387  43.218   4.599
55543W        W27803  36.985  35.253   3.769
55544W        W27804  23.141  19.292  12.125
55545W        W27805   4.885  27.359  10.248
55546W        W27806   1.976  40.553  10.740
55547W        W27807  37.165  26.088  12.094
55548W        W27808   6.076  23.009  13.523
55549W        W27809  43.347   2.151   0.407
55550W        W27810   3.074  16.282   3.754
55551W        W27811  32.363  13.990  11.442
55552W        W27812  33.459  35.397   2.527
55553W        W27813  14.704  17.373  12.561
55554W        W27814   9.934   4.789   1.822
55555W        W27815  23.802  25.714   0.784
55556W        W27816  19.890   1.026  11.717
55557W        W27817  40.809   4.323  11.168
55558W        W27818  30.586  24.295   4.411
55559W        W27819  27.167  36.232  13.320
55560W        W27820  22.342  39.368   3.424
55561W        W27821  17.150  12.886  14.793
55562W        W27822   7.353  21.283   2.806
55563W        W27823   4.886   6.271  13.470
55564W        W27824  32.569   4.829  11.115
55565W        W27825  24.634  21.154  12.094
55566W        W27826  34.952   0.721   1.403
55567W        W27827  34.423  23.852  13.986
55568W        W27828  20.678  39.591  13.949
55569W        W27829   9.168  10.964   2.490
55570W        W27830  43.708  34.837   3.270
55571W        W27831  20.481  16.271   3.393
55572W        W27832   1.018  18.613   3.001
55573W        W27833   5.950  14.905  12.494
55574W        W27834   8.323  35.562   4.727
55575W        W27835  22.426   6.032  13.575
55576W        W27836  27.465  35.608  12.990
55577W        W27837  39.898  22.093   4.296
55578W        W27838  43.429  16.187  11.078
55579W        W27839  24.579   6.971  14.832
55580W        W27840  33.640  41.495  11.263
55581W        W27841  26.625   2.927   1.958
55582W        W27842  26.726  29.482  12.123
55583W        W27843  15.532   0.758  14.335
55584W        W27844  26.236  13.360  13.359
55585W        W27845  34.784  14.333  10.077
55586W        W27846  32.409  26.365   4.564
55587W        W27847  31.590  31.731  11.795
55588W        W27848   4.297   2.342   1.266
55589W        W27849   1.212  14.629   1.470
55590W        W27850  26.793   7.568  10.828
55591W        W27851  30.663  39.466   0.958
55592W        W27852   8.842  23.723   1.933
55593W        W27853  17.706   8.945   5.001
55594W        W27854  33.220  40.278  10.450
55595W        W27855  35.429  12.117   3.639
55596W        W27856   8.847  14.735   4.576
55597W        W27857  24.248  21.505  12.357
55598W        W27858   4.754  35.589   0.205
55599W        W27859   4.356   9.450   3.438
55600W        W27860  11.106  43.327  10.740
55601W        W27861  38.790  18.207  12.194
55602W        W27862   2.230   5.617  13.907
55603W        W27863  28.184   1.929  12.020
55604W        W27864   7.196   3.181  10.603
55605W        W27865   7.376  16.204  12.026
55606W        W27866  40.831  36.154  14.500
55607W        W27867  11.948  27.631   0.994
55608W        W27868  14.182  20.529  10.653
55609W        W27869  34.138  23.213  11.532
55610W        W27870   0.466  39.549  11.207
55611W        W27871  20.553  39.672   4.321
55612W        W27872  29.485  41.538   3.657
55613W        W27873   9.272  27.024  11.741
55614W        W27874  44.353  31.159   2.819
55615W        W27875   2.187  39.908  14.391
55616W        W27876  20.564   6.152   0.306
55617W        W27877  42.309  22.883  13.804
55618W        W27878  10.205  16.800  12.776
55619W        W27879  21.041  25.513   1.434
55620W        W27880  25.534  13.595  13.523
55621W        W27881  30.135  41.234  14.282
55622W        W27882  15.626   4.176   1.331
55623W        W27883   8.772  43.153  14.520
55624W        W27884  17.842  24.009   0.305
55625W        W27885  17.867   9.925   1.876
55626W        W27886  24.751   2.501   4.089
55627W        W27887  19.738  29.626  14.909
55628W        W27888   8.619  14.901   4.089
55629W        W27889  14.338   9.362  14.434
55630W        W27890   6.961  38.058   4.034
55631W        W27891  30.153  41.308   0.242
55632W        W27892  32.047  36.690   3.708
55633W        W27893  33.102  41.363   4.637
55634W        W27894  43.507  41.498   5.090
55635W        W27895  12.873  44.318  13.329
55636W        W27896  25.025  30.065   0.638
55637W        W27897  14.177  23.988   2.174
55638W        W27898  21.504  22.067   5.406
55639W        W27899   1.538   1.004   2.399
55640W        W27900  18.047   6.332  12.182
55641W        W27901   6.301   0.644   4.937
55642W        W27902  26.780  13.636  10.443
55643W        W27903  29.856  20.044   1.487
55644W        W27904  19.531  12.020   1.230
55645W        W27905  37.882  23.494   3.722
55646W        W27906  18.216  32.656   3.170
55647W        W27907  38.859   8.924   3.119
55648W        W27908  22.524  17.785   0.738
55649W        W27909  17.881   7.710  12.037
55650W        W27910  38.395  34.593  14.805
55651W        W27911  44.748   2.811  11.493
55652W        W27912  25.264   9.751   2.639
55653W        W27913  10.910   6.728  11.945
55654W        W27914  41.954  33.387   0.787
55655W        W27915  23.516  36.717  13.288
55656W        W27916  40.996   9.190  12.440
55657W        W27917  20.955  27.702   1.731
55658W        W27918   0.199  18.720  14.264
55659W        W27919   3.410  34.838  14.549
55660W        W27920   5.409  44.647   4.579
55661W        W27921   3.214  28.930  11.055
55662W        W27922  42.307  28.186   1.736
55663W        W27923  31.152  26.850   0.732
55664W        W27924   4.495   4.396  11.977
55665W        W27925   6.932  44.057   0.803
55666W        W27926   1.252   0.795   2.781
55667W        W27927  41.198  36.739  14.549
55668W        W27928   8.451   9.107   0.821
55669W        W27929  25.136   7.379   0.500
55670W        W27930  23.811  32.134   3.151
55671W        W27931  10.807  21.353  14.392
55672W        W27932  29.226  35.283  14.495
55673W        W27933  17.597  33.452  12.083
55674W        W27934  18.975   9.681  14.769
55675W        W27935  37.907  13.875  11.008
55676W        W27936  35.047  15.793   3.805
55677W        W27937  30.001  44.274   3.654
55678W        W27938   9.555   6.845  13.057
55679W        W27939   0.230  39.596  14.503
55680W        W27940  13.300  17.523  14.932
55681W        W27941  14.299   7.982   1.365
55682W        W27942  22.048  25.247  11.573
55683W        W27943  26.628  10.859   0.950
55684W        W27944  34.295  36.471  14.433
55685W        W27945  37.896  37.964   4.371
55686W        W27946   6.755  25.503  11.838
55687W        W27947  28.553  27.693  10.906
55688W        W27948   5.761  11.189   4.185
55689W        W27949  39.272  13.230   2.351
55690W        W27950  30.523  22.708   1.284
55691W        W27951   6.183   6.328   1.857
55692W        W27952   9.219   9.763  10.674
55693W        W27953  27.902  34.570   3.589
55694W        W27954  10.319   3.969   0.385
55695W        W27955   6.859  14.189   4.105
55696W        W27956   4.541  12.877   1.898
55697W        W27957  35.459  36.114   2.324
55698W        W27958  17.953  24.087   2.607
55699W        W27959  42.492  37.871  10.682
55700W        W27960   5.804   2.748  14.399
55701W        W27961  28.030  23.810  13.733
55702W        W27962  15.284  11.755   1.701
55703W        W27963  16.045  20.367  13.909
55704W        W27964  30.325  27.434   4.635
55705W        W27965  38.720  44.357  12.739
55706W        W27966  17.185  15.876   4.589
55707W        W27967  30.838   6.488  11.595
55708W        W27968  27.882  36.766  12.529
55709W        W27969  35.189   4.354  14.245
55710W        W27970  37.860  31.463   1.985
55711W        W27971  42.996  41.677  14.068
55712W        W27972  40.316  13.851   2.803
55713W        W27973  37.911  35.290  13.971
55714W        W27974  10.692  19.511  14.580
55715W        W27975  22.812  34.602   1.789
55716W        W27976  19.791  17.662  11.936
55717W        W27977  25.678   5.914   1.978
55718W        W27978   5.435  31.183  12.810
55719W        W27979  29.559   2.838  10.656
55720W        W27980  33.406   1.315   3.232
55721W        W27981  25.090  27.922  10.505
55722W        W27982  39.044   2.676  11.052
55723W        W27983  12.174  39.558   4.443
55724W        W27984   4.885  35.889  14.037
55725W        W27985   3.464   6.112  13.424
55726W        W27986  25.057  41.135  13.246
55727W        W27987  19.067  31.862   1.006
55728W        W27988  23.539  34.573  14.964
55729W        W27989  13.783  41.448  10.894
55730W        W27990   0.502  34.322   3.146
55731W        W27991  24.952  25.664  10.713
55732W        W27992   4.410  24.133  11.861
55733W        W27993  22.844   4.926   3.618
55734W        W27994  18.086  37.755   2.353
55735W        W27995  44.248  21.107  10.946
55736W        W27996  40.974  15.809  12.498
55737W        W27997   2.104  33.456   1.868
55738W        W27998  32.983  30.129  10.825
55739W        W27999   2.046  10.653   4.230
55740W        W28000  14.741   4.230   3.283
55741W        W28001  32.661   0.541  13.609
55742W        W28002  32.886  23.286  13.964
55743W        W28003   0.158  29.045  12.046
55744W        W28004  40.563  44.430  13.848
55745W        W28005  38.876  34.930  13.579
55746W        W28006  43.046  33.399   5.050
55747W        W28007   7.255  26.624  14.304
55748W        W28008  39.458   0.823   2.064
55749W        W28009  36.044  32.558   4.636
55750W        W28010  28.417  33.024  11.868
55751W        W28011  39.564  34.365  13.044
55752W        W28012  34.458  18.567  10.708
55753W        W28013   2.163   9.421  11.483
55754W        W28014   1.289  16.365   4.481
55755W        W28015  40.115  34.608   3.557
55756W        W28016  40.298  29.840  13.875
55757W        W28017  22.788   8.179   3.203
55758W        W28018  38.328  38.370   1.816
55759W        W28019  41.750   0.975  11.066
55760W        W28020  12.693  19.680  12.455
55761W        W28021  40.930   7.644  11.581
55762W        W28022  14.724  41.396   3.662
55763W        W28023  18.259  22.170  11.787
55764W        W28024  42.344  40.631  14.262
55765W        W28025  40.810  36.837   3.552
55766W        W28026  33.047  27.098  11.059
55767W        W28027  15.274  34.503   4.951
55768W        W28028   6.803   3.112  11.166
55769W        W28029  24.496  40.131   1.973
55770W        W28030  32.152  23.052   3.791
55771W        W28031   9.748  17.462  13.343
55772W        W28032  14.239  23.822   1.649
55773W        W28033   2.303  18.305   2.394
55774W        W28034  21.290  15.542  10.667
55775W        W28035  25.677  34.343   2.788
55776W        W28036  28.079  37.528   2.421
55777W        W28037  16.108  33.947   1.995
55778W        W28038  17.532  35.025  12.397
55779W        W28039  32.042  14.158  14.715
55780W        W28040   6.958  38.058  12.827
55781W        W28041  41.062  15.288   0.657
55782W        W28042  29.209  12.907  12.367
55783W        W28043   1.012  16.751  12.795
55784W        W28044  21.812  27.757  13.494
55785W        W28045  38.015  28.873   3.301
55786W        W28046  26.183  37.461   1.668
55787W        W28047  26.431   2.839  14.818
55788W        W28048  44.785  40.511  12.577
55789W        W28049  30.010  18.329  12.657
55790W        W28050  10.652  27.390   2.066
55791W        W28051  40.889   1.262  13.470
55792W        W28052  16.652  23.559  12.657
55793W        W28053  21.409  28.179  12.780
55794W        W28054  15.873  28.082  10.605
55795W        W28055   6.735  29.401  10.679
55796W        W28056   8.916   4.767   1.907
55797W        W28057   8.210  25.583  13.976
55798W        W28058  21.037   5.184   3.142
55799W        W28059  24.726   3.404  13.241
55800W        W28060  15.776  21.089  13.309
55801W        W28061  32.461  24.490   4.288
55802W        W28062  34.423  34.958   3.072
55803W        W28063  39.022  31.536  14.012
55804W        W28064  44.749  20.650  14.711
55805W        W28065  27.728   2.747  10.522
55806W        W28066   0.521  18.143   1.957
55807W        W28067   1.296  38.299   3.767
55808W        W28068  27.098   9.870  13.978
55809W        W28069  34.433  34.856   4.410
55810W        W28070  30.299  17.208   1.231
55811W        W28071  16.679  25.369  11.425
55812W        W28072  22.583  19.655   2.760
55813W        W28073   6.660   4.769   0.228
55814W        W28074  26.967  35.064   2.259
55815W        W28075   3.231   6.451   3.105
55816W        W28076  36.359  29.438   0.792
55817W        W28077  17.648  32.839  13.913
55818W        W28078   4.893  39.154   3.387
55819W        W28079  24.176  34.283  14.512
55820W        W28080  27.049  43.721   2.272
55821W        W28081  25.631  29.472  12.032
55822W        W28082  11.239  19.593   3.741
55823W        W28083   2.764  25.984  11.052
55824W        W28084  14.586  38.994   0.070
55825W        W28085  38.392  36.143   0.334
55826W        W28086  25.591   1.080  10.059
55827W        W28087  44.431  27.730   0.818
55828W        W28088  10.893  30.502  12.087
55829W        W28089  21.377  18.355   4.206
55830W        W28090   5.845  42.531  10.669
55831W        W28091  30.746   3.864  10.696
55832W        W28092   0.752  43.775  14.057
55833W        W28093  35.379  17.811   2.293
55834W        W28094   0.515  26.584  12.731
55835W        W28095   7.469  11.661  12.076
55836W        W28096  25.325   8.612  14.750
55837W        W28097  26.780   1.449  11.552
55838W        W28098  20.821  17.696  12.890
55839W        W28099  13.147   9.370  13.488
55840W        W28100  41.853  39.570   3.709
55841W        W28101  31.987  18.166  13.786
55842W        W28102  38.013  28.219  14.844
55843W        W28103  16.040  27.032   3.670
55844W        W28104  43.812  44.096  10.814
55845W        W28105  11.119   0.289  13.039
55846W        W28106  41.216  17.636  11.451
55847W        W28107  43.848  19.496  14.859
55848W        W28108  38.549   7.363  13.965
55849W        W28109   2.276  29.688  13.431
55850W        W28110  14.639  43.399   0.229
55851W        W28111  41.408   3.410   1.361
55852W        W28112  32.226  18.365  12.037
55853W        W28113  28.132   3.053  10.646
55854W        W28114   4.884  41.467   4.372
55855W        W28115  20.649  19.355   4.958
55856W        W28116  14.781  17.409  10.974
55857W        W28117   2.014  27.785  10.857
55858W        W28118  19.786  39.517  11.197
55859W        W28119  37.130  19.580   9.722
55860W        W28120  24.697  13.037   4.259
55861W        W28121   3.445  35.644   1.391
55862W        W28122  43.060   8.818  11.496
55863W        W28123  39.115  35.520   0.395
55864W        W28124   3.753  40.276   3.690
55865W        W28125  13.021   9.911   0.987
55866W        W28126  35.051   8.585   1.404
55867W        W28127  43.911  14.773   4.752
55868W        W28128  21.108  37.509   1.393
55869W        W28129  30.537  23.773  11.257
55870W        W28130  34.440  17.069  13.370
55871W        W28131  10.171  36.535  14.955
55872W        W28132  25.500  34.862  13.448
55873W        W28133  21.674  30.127   1.986
55874W        W28134  19.575  39.450   2.881
55875W        W28135   8.383  44.017   2.760
55876W        W28136  28.224  40.308   2.800
55877W        W28137   1.226   2.916  14.393
55878W        W28138  19.042  12.086   0.343
55879W        W28139   5.728  17.513   4.260
55880W        W28140   2.288  34.136   0.344
55881W        W28141  29.921  18.077   0.522
55882W        W28142   2.806  36.854  10.715
55883W        W28143  13.611   4.282  10.582
55884W        W28144  18.486  10.234  11.120
55885W        W28145   4.402  22.126  13.099
55886W        W28146  19.657   4.476   3.206
55887W        W28147  40.321  33.591   2.458
55888W        W28148  24.664  38.845   0.688
55889W        W28149  12.928  34.758  13.434
55890W        W28150   1.475   1.338   2.790
55891W        W28151  35.548  27.563  13.126
55892W        W28152   4.993   3.441   1.264
55893W        W28153  35.318  24.936  11.508
55894W        W28154  32.921   7.900  14.281
55895W        W28155  18.298  18.517  10.522
55896W        W28156  22.646  36.452  11.719
55897W        W28157  31.091   7.436  11.459
55898W        W28158  34.498  20.475   5.067
55899W        W28159  35.340  41.037   4.586
55900W        W28160  25.260  35.027  11.213
55901W        W28161   0.993  34.780  12.368
55902W        W28162  27.125  37.831  14.325
55903W        W28163   2.826   6.744   2.574
55904W        W28164  15.550  35.896   3.322
55905W        W28165  27.942  24.855   3.591
55906W        W28166  41.401   0.085   1.375
55907W        W28167  26.571  29.098   1.919
55908W        W28168  44.918  29.373   1.655
55909W        W28169   3.261  10.795  14.460
55910W        W28170   3.840  14.078  12.656
55911W        W28171  44.009  17.478   4.079
55912W        W28172  42.033  15.692   4.300
55913W        W28173  29.882  17.827   0.032
55914W        W28174  42.037  22.135   1.728
55915W        W28175  37.382  36.390  10.659
55916W        W28176  35.154  42.392   3.302
55917W        W28177  38.453  24.472  10.596
55918W        W28178  44.967  29.701   4.195
55919W        W28179  13.047  43.574   4.638
55920W        W28180  23.658  41.766   3.331
55921W        W28181  32.844   7.615   2.231
55922W        W28182   6.486   8.372  14.431
55923W        W28183  13.172  21.768   3.385
55924W        W28184  26.419  31.011  14.467
55925W        W28185  25.058  27.938   2.243
55926W        W28186  23.777  34.965   3.599
55927W        W28187  12.203   4.336  14.123
55928W        W28188   4.948  16.109   0.084
55929W        W28189  38.906   8.752  11.840
55930W        W28190  20.616  28.160   3.700
55931W        W28191  43.016  31.609   3.640
55932W        W28192   6.438  10.270  13.021
55933W        W28193  13.346  15.176   0.397
55934W        W28194  10.896  21.744  11.185
55935W        W28195  15.269  28.721  12.117
55936W        W28196  21.130  25.695   1.909
55937W        W28197   2.457  39.852  10.796
55938W        W28198  29.074  19.539  13.332
55939W        W28199  41.950   0.750  12.952
55940W        W28200  37.793   9.473   5.059
55941W        W28201  31.600   0.622   5.147
55942W        W28202  42.538   6.769  12.571
55943W        W28203  28.061  34.148  10.854
55944W        W28204   0.831  16.823   3.643
55945W        W28205   6.452  21.315   1.902
55946W        W28206   5.384  17.316  14.596
55947W        W28207  29.418   1.887   0.186
55948W        W28208  11.909  44.473   2.659
55949W        W28209  43.570  42.694  10.395
55950W        W28210  38.069  41.321   1.324
55951W        W28211   3.417  13.292   2.599
55952W        W28212  14.889  20.989  14.412
55953W        W28213   6.909  41.935  14.334
55954W        W28214  22.100  10.823   2.322
55955W        W28215  26.043  44.053  13.119
55956W        W28216  14.404  37.557   4.568
55957W        W28217  21.032  15.783   0.926
55958W        W28218  28.402  31.845   9.824
55959W        W28219  43.842  32.951  12.948
55960W        W28220   6.675  25.005   3.286
55961W        W28221  29.061  13.841   2.678
55962W        W28222  39.754  16.988   1.449
55963W        W28223  33.029   0.337   4.127
55964W        W28224  19.664   2.628   5.037
55965W        W28225   0.213  13.422   2.311
55966W        W28226  44.467  40.758  10.365
55967W        W28227  12.299  29.949   1.467
55968W        W28228  31.169  13.249   1.329
55969W        W28229  27.703  27.882   2.409
55970W        W28230  18.256  21.547   4.986
55971W        W28231   4.695  16.889  12.921
55972W        W28232  23.687  20.233  14.816
55973W        W28233  30.223  14.184  14.000
55974W        W28234  19.415  13.821  14.802
55975W        W28235  44.549  23.759   4.218
55976W        W28236  27.216  41.421   1.876
55977W        W28237  27.507  24.218   2.331
55978W        W28238  33.132  38.612   3.256
55979W        W28239   3.578  42.872   3.296
55980W        W28240  13.139   4.647  12.920
55981W        W28241  35.511   5.174  13.024
55982W        W28242   6.905  27.993   0.842
55983W        W28243  10.289  35.800  11.163
55984W        W28244  11.404  25.411   3.798
55985W        W28245  32.489  28.077  12.235
55986W        W28246  19.613  38.022  10.746
55987W        W28247  33.902  43.232  11.568
55988W        W28248  18.757   7.291   2.209
55989W        W28249  32.112  24.520  14.540
55990W        W28250  21.236  30.402  11.153
55991W        W28251  30.712  24.789   4.506
55992W        W28252  34.690   8.667   1.043
55993W        W28253  33.633  38.297   1.333
55994W        W28254  35.434  43.518   1.048
55995W        W28255  19.794   7.740   1.631
55996W        W28256   7.896  40.907   3.090
55997W        W28257   9.193  30.388  10.703
55998W        W28258  25.557  35.500   1.146
55999W        W28259   2.811  33.691   1.597
56000W        W28260   0.043   9.707  14.907
56001W        W28261   0.399  12.909   0.492
56002W        W28262  21.844  21.741   0.329
56003W        W28263  14.146  21.030   1.198
56004W        W28264  41.283  25.124   0.431
56005W        W28265  18.637  32.634  11.366
56006W        W28266   2.429  22.998  13.236
56007W        W28267  13.895  20.088  14.897
56008W        W28268   6.786   0.752   3.384
56009W        W28269  21.595  11.248  12.399
56010W        W28270  31.348  43.406   3.269
56011W        W28271  44.689   8.866  12.998
56012W        W28272  30.536   7.191   1.579
56013W        W28273  19.999   9.220   0.873
56014W        W28274  19.157  12.485   2.289
56015W        W28275   1.263  33.423  10.961
56016W        W28276   4.996  12.239  10.196
56017W        W28277  20.059  22.078  10.869
56018W        W28278  29.100   3.477  11.742
56019W        W28279  20.634   2.141  12.453
56020W        W28280  36.824   3.704  12.054
56021W        W28281  22.067  14.252   3.937
56022W        W28282  31.040  13.062  14.451
56023W        W28283  30.729  18.549   4.641
56024W        W28284  20.467  19.677  12.375
56025W        W28285  34.500  21.575  14.397
56026W        W28286  39.400  25.695  14.519
56027W        W28287  28.609  26.511  13.922
56028W        W28288  29.848  36.461  12.002
56029W        W28289  30.381  43.238  12.491
56030W        W28290  11.977  42.256   4.120
56031W        W28291  27.832  19.238   3.372
56032W        W28292  23.725  24.623   4.565
56033W        W28293  15.276  12.584  13.491
56034W        W28294  22.296  31.550  11.624
56035W        W28295   5.931   9.772   0.160
56036W        W28296  39.317  38.776   0.475
56037W        W28297  19.062  30.199  14.276
56038W        W28298  36.886  42.856   0.397
56039W        W28299  39.854  33.982   1.704
56040W        W28300  42.936  25.124  13.012
56041W        W28301  19.232  16.550  12.334
56042W        W28302  37.025  32.198   2.115
56043W        W28303  41.901  14.199   2.182
56044W        W28304  31.531  28.610   4.568
56045W        W28305  43.402  13.277   0.681
56046W        W28306  28.069   3.573  10.586
56047W        W28307  42.521  38.397  10.468
56048W        W28308  18.031   8.664  11.969
56049W        W28309  25.023   5.373  12.884
56050W        W28310  22.920  37.578  12.029
56051W        W28311  19.327  16.189   1.879
56052W        W28312   7.215   9.867   4.130
56053W        W28313  17.857   6.056  13.059
56054W        W28314   0.761  34.896  10.196
56055W        W28315   6.177  18.693   3.743
56056W        W28316   5.801  36.404   0.346
56057W        W28317   0.845  30.959   1.282
56058W        W28318  32.404  16.636  12.169
56059W        W28319   0.986   2.876  13.477
56060W        W28320  39.847  13.275  11.586
56061W        W28321  15.020   6.906   0.844
56062W        W28322  15.805  25.569  13.507
56063W        W28323  13.053  21.213   4.112
56064W        W28324   6.415   5.226   3.315
56065W        W28325  18.010  27.537   2.735
56066W        W28326  34.286  31.422  13.530
56067W        W28327  44.808   6.320   2.135
56068W        W28328  33.160   7.865  10.722
56069W        W28329  44.732  42.450  14.949
56070W        W28330   1.691  39.043  14.079
56071W        W28331  34.076  30.677  11.519
56072W        W28332  30.081  41.581  14.696
56073W        W28333   7.595  29.661  10.956
56074W        W28334  12.098  40.205   1.824
56075W        W28335  17.626  42.029   0.317
56076W        W28336   3.516  42.843   1.890
56077W        W28337  29.266  29.060  10.593
56078W        W28338  16.622  14.852  13.060
56079W        W28339  43.301  23.763  11.084
56080W        W28340   1.804  25.571  11.482
56081W        W28341  30.600   6.314   0.735
56082W        W28342  34.897  38.322   4.723
56083W        W28343  10.323   1.677  14.980
56084W        W28344  26.497  41.070   5.154
56085W        W28345  29.540  15.609  12.127
56086W        W28346  21.375  44.399  14.788
56087W        W28347  14.794  24.060   2.855
56088W        W28348   3.013  14.837  13.476
56089W        W28349  10.222   1.771  13.575
56090W        W28350   2.300   5.767   3.342
56091W        W28351  40.780   1.406  12.071
56092W        W28352  24.073  43.193  10.965
56093W        W28353  20.896  44.495   2.333
56094W        W28354  33.469  25.995   0.306
56095W        W28355  42.576  15.175   1.453
56096W        W28356  29.993   4.160  11.095
56097W        W28357  40.220   0.953  10.969
56098W        W28358   5.853  22.273   0.381
56099W        W28359  31.961  13.106  12.812
56100W        W28360   6.771  29.186  12.050
56101W        W28361   6.162  33.395   4.147
56102W        W28362  20.786  21.242   9.830
56103W        W28363  13.422  25.480   2.598
56104W        W28364  15.572  29.559  10.675
56105W        W28365  38.537   8.626   2.661
56106W        W28366  41.741  30.994   2.287
56107W        W28367   7.733  15.190   3.032
56108W        W28368  39.750  29.818  13.955
56109W        W28369  43.550  34.696   4.269
56110W        W28370  35.533  36.975   1.916
56111W        W28371  29.187   4.246   4.200
56112W        W28372   4.706  43.489  13.429
56113W        W28373  17.958  42.433  14.867
56114W        W28374  32.081  34.154  11.690
56115W        W28375  26.202  16.717   1.562
56116W        W28376  40.811  12.165   4.281
56117W        W28377   5.241  39.021  13.316
56118W        W28378   6.847  25.493   1.067
56119W        W28379  25.802   1.482   1.725
56120W        W28380   7.913   8.757  11.429
56121W        W28381  44.750   9.870   3.224
56122W        W28382  30.034  23.756   4.391
56123W        W28383   2.402  44.166   4.094
56124W        W28384  28.961   3.216   3.655
56125W        W28385  35.901  42.228   3.717
56126W        W28386  37.050   0.476   3.338
56127W        W28387  19.668  18.818  14.509
56128W        W28388  14.000   9.879  11.005
56129W        W28389  26.694  43.441   1.199
56130W        W28390   2.986  21.182   1.782
56131W        W28391  42.042  19.184  14.020
56132W        W28392   0.103   8.812   4.584
56133W        W28393  24.439  30.620   4.235
56134W        W28394   7.143   1.391  13.844
56135W        W28395  15.966  34.688   4.179
56136W        W28396  43.909   4.967   3.269
56137W        W28397  40.857  31.457   4.552
56138W        W28398  12.447  20.032  14.890
56139W        W28399  25.900  39.575   3.700
56140W        W28400  30.352  25.668   2.218
56141W        W28401  32.480  32.840  10.901
56142W        W28402   6.184  10.296   2.331
56143W        W28403  22.577  15.978   2.997
56144W        W28404  26.894  31.465   0.626
56145W        W28405   1.316  38.376   4.619
56146W        W28406  31.235  10.321   1.239
56147W        W28407  31.504  41.752   1.843
56148W        W28408   5.420   9.723   2.366
56149W        W28409   4.521  10.563   1.633
56150W        W28410  23.501  26.031  14.683
56151W        W28411  43.328  38.870  11.541
56152W        W28412  15.047  36.716   2.838
56153W        W28413  39.889   5.375   2.835
56154W        W28414   4.092   6.257   0.341
56155W        W28415  15.704  28.893  11.331
56156W        W28416  37.569  16.854  12.026
56157W        W28417  38.863  11.509  12.207
56158W        W28418   7.212  33.647   0.569
56159W        W28419  26.482  42.537  13.255
56160W        W28420  28.677  15.864  13.895
56161W        W28421  35.939  14.595  14.259
56162W        W28422   7.338  11.813   1.404
56163W        W28423  42.993  10.712   2.102
56164W        W28424  25.452  26.728   4.466
56165W        W28425  14.202  20.739  12.958
56166W        W28426  22.710  43.689   0.281
56167W        W28427   2.564  38.898  12.422
56168W        W28428  31.998  27.922  12.399
56169W        W28429  43.230  39.562   1.802
56170W        W28430  21.212  30.210  14.973
56171W        W28431   0.186   5.383   1.869
56172W        W28432  41.985  33.595   1.786
56173W        W28433  30.580   4.236   2.750
56174W        W28434  17.905  32.368   2.254
56175W        W28435  11.930  43.430   3.611
56176W        W28436  35.239  27.662   0.694
56177W        W28437  44.042  34.050   4.566
56178W        W28438   6.504   4.959   1.848
56179W        W28439  44.649  13.542  12.010
56180W        W28440  23.605  20.296   1.434
56181W        W28441  29.935   6.701   2.685
56182W        W28442  40.978  40.215   3.105
56183W        W28443  26.147  25.763  14.023
56184W        W28444  15.366   6.042   0.946
56185W        W28445  23.176  25.907   4.644
56186W        W28446  25.083  24.061  10.533
56187W        W28447   8.752  24.176  11.538
56188W        W28448  34.441  19.382   4.637
56189W        W28449  38.129  11.869   4.136
56190W        W28450  10.268   6.703   4.343
56191W        W28451   8.143  12.866   0.308
56192W        W28452  19.186  36.551   5.052
56193W        W28453  37.992  29.715   1.334
56194W        W28454   7.963  16.205   3.837
56195W        W28455   6.657  34.633  13.484
56196W        W28456  34.948  16.302   0.655
56197W        W28457   6.470  39.149  13.474
56198W        W28458  43.028  43.890   3.114
56199W        W28459  21.459  10.160  11.449
56200W        W28460  14.653  35.937   4.358
56201W        W28461  21.737  19.780   1.354
56202W        W28462  31.841  36.942  12.232
56203W        W28463   2.687   3.984   1.607
56204W        W28464  21.566   2.910  14.254
56205W        W28465  29.445   1.927   3.665
56206W        W28466   6.169  36.923   1.391
56207W        W28467  22.006  31.512   1.732
56208W        W28468  26.202  24.070  13.382
56209W        W28469  34.792  10.889  14.656
56210W        W28470  31.920   3.364  13.350
56211W        W28471  24.737  15.781   0.990
56212W        W28472  14.422  22.553  13.586
56213W        W28473  33.970   3.612  13.931
56214W        W28474  20.266  15.788  10.138
56215W        W28475  11.530  19.333  10.782
56216W        W28476  19.557  34.943  11.410
56217W        W28477  17.331  42.924   3.103
56218W        W28478  43.450   6.260  14.808
56219W        W28479  15.184  36.535   1.949
56220W        W28480  16.626   6.817   2.380
56221W        W28481  40.138  23.454  12.858
56222W        W28482  19.982  20.106  10.299
56223W        W28483   0.814   3.635   0.190
56224W        W28484  21.201   1.979   4.189
56225W        W28485  40.565   4.797   1.197
56226W        W28486  19.275  17.984  14.981
56227W        W28487  10.616  21.499   2.757
56228W        W28488  42.158  13.781  11.556
56229W        W28489   8.897  38.112   4.551
56230W        W28490  26.356  13.232   0.538
56231W        W28491   9.752  18.952  11.652
56232W        W28492   8.266  44.716  12.451
56233W        W28493   9.092  24.245  12.887
56234W        W28494  28.852  12.331   0.736
56235W        W28495  10.935  19.522   2.244
56236W        W28496  41.004  38.407   3.621
56237W        W28497  35.136  15.797   2.105
56238W        W28498   9.317  21.568   4.085
56239W        W28499  15.641   8.133  12.287
56240W        W28500  44.195  42.013  12.875
56241W        W28501  42.740  38.317  11.465
56242W        W28502   9.230  42.429   1.466
56243W        W28503  35.415  24.537   2.247
56244W        W28504  20.550   1.914  11.110
56245W        W28505   1.498  36.814   1.791
56246W        W28506  24.318  10.718   2.045
56247W        W28507  39.687  41.048  14.915
56248W        W28508  16.069  21.208   2.255
56249W        W28509  32.939  39.876  14.077
56250W        W28510  22.529   7.785   3.413
56251W        W28511  18.177  20.791  10.560
56252W        W28512  18.289  33.901   1.501
56253W        W28513  27.462  11.068   1.453
56254W        W28514  33.025  18.611   4.555
56255W        W28515   4.778   9.986   0.975
56256W        W28516  29.189  36.639   2.233
56257W        W28517  36.213  20.824  10.998
56258W        W28518  38.415   4.517  10.211
56259W        W28519  30.927   9.092  13.861
56260W        W28520  33.454  13.221   4.582
56261W        W28521  10.691  10.957  12.955
56262W        W28522   6.173   4.493   4.529
56263W        W28523  39.999   8.529   2.225
56264W        W28524  33.635  11.212   2.165
56265W        W28525   9.651  18.121  13.081
56266W        W28526  30.985  34.214   4.927
56267W        W28527  30.121  19.185   3.692
56268W        W28528  36.505  13.190   3.745
56269W        W28529   2.914  15.233  10.736
56270W        W28530  42.918  29.499   5.157
56271W        W28531  41.641  13.901   0.206
56272W        W28532  42.043  36.001   0.156
56273W        W28533  22.516   5.800  12.703
56274W        W28534   5.607  20.987  14.891
56275W        W28535  42.090  20.581  13.033
56276W        W28536  36.381  14.132   2.315
56277W        W28537  26.208  11.737   3.884
56278W        W28538  28.573  17.076  14.243
56279W        W28539   8.438  34.397  13.942
56280W        W28540  18.011  36.986  13.065
56281W        W28541  17.122   1.757   3.318
56282W        W28542  23.418  34.122   3.147
56283W        W28543   0.998  27.713  12.125
56284W        W28544  24.751  21.289   1.220
56285W        W28545  19.602   5.111  11.088
56286W        W28546  34.123  21.677   4.763
56287W        W28547   1.211  22.977  12.885
56288W        W28548   2.450  41.759  14.242
56289W        W28549  10.707  26.982   2.861
56290W        W28550  41.406  30.148  13.062
56291W        W28551  17.284   2.212   4.366
56292W        W28552  39.821   0.929   4.343
56293W        W28553  26.536  42.279   0.734
56294W        W28554  35.330  37.894   3.402
56295W        W28555  28.232  38.731   3.255
56296W        W28556  17.012   7.972  11.651
56297W        W28557  41.923  34.833  14.168
56298W        W28558  16.842  39.856   2.789
56299W        W28559  16.690  22.950   4.625
56300W        W28560   1.329  34.454   1.636
56301W        W28561  37.228  12.879   1.263
56302W        W28562  43.417  38.611  14.376
56303W        W28563  26.575  25.240  12.483
56304W        W28564  42.323   8.154  13.349
56305W        W28565  13.732   6.526  14.921
56306W        W28566  26.527  19.286  14.558
56307W        W28567   7.745  26.789   2.272
56308W        W28568  38.448  19.375  11.883
56309W        W28569  40.118   3.949  13.889
56310W        W28570  21.476   0.566   2.768
56311W        W28571  24.741  24.496   2.767
56312W        W28572  20.484  25.500   0.079
56313W        W28573   6.992  21.797  14.018
56314W        W28574   4.367  44.397  14.783
56315W        W28575  20.568  18.230  10.586
56316W        W28576   1.028  14.881  13.313
56317W        W28577  15.253   1.836   4.582
56318W        W28578  38.082  37.474  11.986
56319W        W28579  11.614  21.090   0.050
56320W        W28580  29.459  33.367  10.232
56321W        W28581  13.515   4.393   4.862
56322W        W28582  16.697   1.395  14.774
56323W        W28583   9.114  23.578  12.416
56324W        W28584   1.863  39.915  11.885
56325W        W28585  26.984   4.803   2.572
56326W        W28586  36.412  15.617   3.537
56327W        W28587  24.058  38.063  13.142
56328W        W28588  16.456   1.173  13.014
56329W        W28589  25.737   1.101  12.576
56330W        W28590  36.618  36.074  13.474
56331W        W28591   5.957  44.720   2.361
56332W        W28592  31.643  10.185   2.739
56333W        W28593  29.509  13.089   2.511
56334W        W28594   0.550  16.736  12.461
56335W        W28595   0.169  15.595   2.470
56336W        W28596  14.603   8.258  11.531
56337W        W28597  20.724  15.793  13.767
56338W        W28598  22.505  41.948   1.817
56339W        W28599  25.871  22.677  13.862
56340W        W28600  27.436   3.227   4.125
56341W        W28601  16.141  29.615  14.805
56342W        W28602  21.653   0.864   1.635
56343W        W28603  42.342   3.782   3.769
56344W        W28604  31.860  10.204  14.994
56345W        W28605  15.094  22.602   3.165
56346W        W28606  23.287  22.428   0.863
56347W        W28607  17.383  36.098   1.357
56348W        W28608  21.655  34.077  10.677
56349W        W28609   5.432  15.018  12.137
56350W        W28610   1.510  23.394   1.457
56351W        W28611  36.493  16.140   4.740
56352W        W28612  30.543  40.786  14.805
56353W        W28613  30.617   4.963   3.604
56354W        W28614  21.048  18.083   1.018
56355W        W28615  14.397   3.338  11.181
56356W        W28616  35.930  17.685   4.563
56357W        W28617   8.068  27.144   3.283
56358W        W28618  26.206   9.097  14.994
56359W        W28619  43.601  12.328  12.503
56360W        W28620  28.092  25.912  12.409
56361W        W28621  30.430   6.172  11.581
56362W        W28622  28.892  28.594   1.291
56363W        W28623  40.040  10.813  12.035
56364W        W28624  37.134  14.396  11.100
56365W        W28625  22.636  10.479   3.636
56366W        W28626  10.723  29.357  11.634
56367W        W28627  11.691  31.395   4.776
56368W        W28628  23.530   5.658  14.793
56369W        W28629  38.067   1.693   0.739
56370W        W28630  19.515  41.632   0.298
56371W        W28631  10.286  22.271   1.514
56372W        W28632  15.347  11.587   4.225
56373W        W28633  13.367  31.460  14.768
56374W        W28634  22.502   7.626  14.820
56375W        W28635  38.693  24.688   1.864
56376W        W28636  30.492  16.499   3.918
56377W        W28637  25.369  36.816   0.782
56378W        W28638  44.934  31.430   4.608
56379W        W28639   1.317  24.639   1.889
56380W        W28640  32.934  44.834   0.327
56381W        W28641  11.910  12.566   2.818
56382W        W28642  20.296  23.730  12.929
56383W        W28643  30.514  18.210   2.198
56384W        W28644  17.138  39.901   2.369
56385W        W28645  28.691   0.828   2.184
56386W        W28646  14.388  11.107   4.898
56387W        W28647   4.748  14.700  12.981
56388W        W28648  44.670  25.220  12.327
56389W        W28649  37.302   2.507  11.203
56390W        W28650  43.449  11.660   1.921
56391W        W28651  28.225  20.561  11.029
56392W        W28652  35.902  14.363   2.316
56393W        W28653   6.289   3.389  13.765
56394W        W28654  36.118  16.074  11.060
56395W        W28655  20.978  32.785  11.676
56396W        W28656  28.216  27.146   1.923
56397W        W28657   8.452  37.254   2.690
56398W        W28658  20.241  25.959   0.098
56399W        W28659  11.821  18.564   2.913
56400W        W28660   9.430  17.261   9.699
56401W        W28661   2.236  36.964  14.610
56402W        W28662  42.962  35.368  12.266
56403W        W28663  10.911  11.304  12.504
56404W        W28664  26.920   2.949  12.222
56405W        W28665  21.157   4.324   2.641
56406W        W28666  14.118  14.359   1.461
56407W        W28667  28.244  21.194   0.810
56408W        W28668  13.328   0.274  12.561
56409W        W28669  35.463  22.656   0.914
56410W        W28670  44.087  43.641  10.729
56411W        W28671  42.866   4.847  13.978
56412W        W28672  27.696  25.382   3.376
56413W        W28673  19.219  27.421   2.679
56414W        W28674  42.449  19.006  10.997
56415W        W28675  20.747  24.765   4.163
56416W        W28676   4.380  29.186   2.556
56417W        W28677   1.005  15.454   4.047
56418W        W28678  20.342  28.786   4.834
56419W        W28679  11.824  17.911  13.489
56420W        W28680  39.586   5.732  11.138
56421W        W28681  26.025   5.959  12.510
56422W        W28682  39.279   2.256   3.554
56423W        W28683  25.131  12.618  13.454
56424W        W28684  29.304  14.834  11.612
56425W        W28685  23.474   6.690  13.951
56426W        W28686   5.323  36.683  13.020
56427W        W28687  29.242   2.365   1.335
56428W        W28688  21.258  26.825   5.563
56429W        W28689  29.533  11.514  11.607
56430W        W28690  28.593  17.705   4.281
56431W        W28691  31.449  18.249   3.281
56432W        W28692   1.000  35.266  12.574
56433W        W28693  21.541  38.990  13.558
56434W        W28694  40.390  39.548   0.802
56435W        W28695  14.679  19.753  11.601
56436W        W28696   3.288  40.694  10.792
56437W        W28697   5.118  33.091  13.969
56438W        W28698  11.634  17.281   2.337
56439W        W28699  13.024  27.208   2.734
56440W        W28700  28.997  38.479  13.252
56441W        W28701  25.494  27.397   1.355
56442W        W28702   6.433   1.546   2.920
56443W        W28703  30.689  10.146   1.333
56444W        W28704  13.264  15.818   4.779
56445W        W28705  29.509  24.961  14.304
56446W        W28706  24.286  40.192   0.912
56447W        W28707  38.617  37.398  11.953
56448W        W28708  40.229   5.751   0.114
56449W        W28709  24.399   1.748  11.841
56450W        W28710  14.041  35.808   1.862
56451W        W28711  10.115  21.926  13.653
56452W        W28712  36.508  34.702  13.370
56453W        W28713   8.720  16.384  14.509
56454W        W28714   4.199  14.597   0.176
56455W        W28715  27.871  44.759  12.473
56456W        W28716   3.837  20.706  12.614
56457W        W28717  29.372  43.240  12.364
56458W        W28718  32.618  33.593  10.939
56459W        W28719  43.740  16.812  12.948
56460W        W28720  31.918  13.114   4.537
56461W        W28721  18.518  43.702  12.524
56462W        W28722  29.611  41.508  12.005
56463W        W28723  14.245  43.003  14.047
56464W        W28724  28.434  33.901   3.078
56465W        W28725  42.114  21.384   1.517
56466W        W28726  37.069  12.971  13.112
56467W        W28727  29.914  41.108   1.105
56468W        W28728  29.638  41.896  12.475
56469W        W28729   6.483  18.903   3.097
56470W        W28730  20.068   1.825  10.187
56471W        W28731   2.228  12.757  11.600
56472W        W28732  15.285  18.071   4.314
56473W        W28733  23.001  40.317  13.843
56474W        W28734  39.683  33.082  14.849
56475W        W28735  28.939   7.752  13.592
56476W        W28736  42.910   7.590  14.386
56477W        W28737   9.463  17.836  14.302
56478W        W28738  40.969  28.929   4.920
56479W        W28739  13.159   7.919  13.331
56480W        W28740  31.439  16.839  13.806
56481W        W28741  18.610  12.096  10.620
56482W        W28742  24.266   0.330   2.633
56483W        W28743  28.631  34.348  11.677
56484W        W28744  10.458  37.390  11.922
56485W        W28745  15.105  25.713  13.373
56486W        W28746  16.423  43.498  14.112
56487W        W28747  20.504  12.617  11.949
56488W        W28748  39.587   7.145   3.870
56489W        W28749  37.870  29.139  10.640
56490W        W28750  26.603  33.866  12.466
56491W        W28751   7.347   0.001   3.921
56492W        W28752  41.411  43.931  10.801
56493W        W28753  10.028  42.182   2.630
56494W        W28754  14.507  18.338  14.734
56495W        W28755  16.348  25.023  12.537
56496W        W28756  28.594  13.865   0.794
56497W        W28757  39.873  23.730  10.980
56498W        W28758   8.153  20.339   1.894
56499W        W28759  12.735   6.310   3.147
56500W        W28760   4.316  27.754  13.778
56501W        W28761  12.814   3.285   2.446
56502W        W28762   4.915  33.964  14.227
56503W        W28763   3.788  33.122  13.356
56504W        W28764  14.713  14.410   0.332
56505W        W28765  15.799   4.808  12.144
56506W        W28766  22.455  22.554  11.681
56507W        W28767  13.096   4.328  14.441
56508W        W28768  30.119  31.489  12.092
56509W        W28769  12.320  29.725   2.238
56510W        W28770   5.604   8.079  12.083
56511W        W28771   7.211  20.003  13.031
56512W        W28772  21.135  17.021  11.587
56513W        W28773  17.326  42.485   2.295
56514W        W28774  27.619  22.048  10.788
56515W        W28775  35.936  32.575  11.124
56516W        W28776   6.421  36.319  11.587
56517W        W28777   1.329  38.564   2.815
56518W        W28778  28.766  22.154   0.327
56519W        W28779   4.295   3.097   2.727
56520W        W28780  25.770   2.829  13.938
56521W        W28781  27.636  29.038   3.146
56522W        W28782   3.688  10.870  12.616
56523W        W28783  23.249  20.733   1.001
56524W        W28784  13.635  15.786  14.931
56525W        W28785  37.542  13.647   2.381
56526W        W28786   7.713  21.255   1.177
56527W        W28787   2.292  44.457   0.838
56528W        W28788  41.950  14.791   4.842
56529W        W28789   2.351  31.221  12.641
56530W        W28790  15.246   0.342   1.901
56531W        W28791  34.387  44.280   3.445
56532W        W28792  30.612  34.635   1.494
56533W        W28793  24.922  34.064  12.891
56534W        W28794  26.607  42.901  10.000
56535W        W28795  42.075   3.334   0.890
56536W        W28796  15.218  35.032   3.625
56537W        W28797   8.719  23.634   0.019
56538W        W28798  33.446  32.295   4.175
56539W        W28799  38.575  34.616   4.221
56540W        W28800  11.228  11.822   3.578
56541W        W28801  35.441  17.827  11.102
56542W        W28802  26.951   0.292   4.032
56543W        W28803  27.614  14.916  10.947
56544W        W28804   9.996   6.850  11.760
56545W        W28805  28.911  29.861  11.047
56546W        W28806  33.474  14.840  11.058
56547W        W28807  42.995  28.075   3.293
56548W        W28808  40.223   4.907   1.609
56549W        W28809   6.716   2.231  12.927
56550W        W28810   0.769   6.112  11.725
56551W        W28811  32.376  26.052   1.746
56552W        W28812  33.835  16.208  13.449
56553W        W28813  15.152  41.039   3.695
56554W        W28814  41.893  28.913   4.705
56555W        W28815  12.855  39.816  13.143
56556W        W28816  37.931  43.226   0.189
56557W        W28817  39.557  33.935  12.174
56558W        W28818   7.676  23.488   1.349
56559W        W28819   1.932   0.724  13.445
56560W        W28820  33.107  20.010   1.222
56561W        W28821  32.490  21.280  13.872
56562W        W28822  21.171  36.532   1.471
56563W        W28823  43.177  21.462   4.635
56564W        W28824  33.702   6.736   2.093
56565W        W28825  11.094  40.587   4.508
56566W        W28826  34.742   1.469   2.639
56567W        W28827  36.040  27.670  13.956
56568W        W28828  17.929  41.888   1.666
56569W        W28829  22.049   7.954   1.171
56570W        W28830  15.164  31.937  10.569
56571W        W28831  18.878   9.903   0.699
56572W        W28832  32.899   7.717  11.552
56573W        W28833  44.522   9.169  12.032
56574W        W28834  11.138   0.070  10.951
56575W        W28835  27.936  12.618  11.765
56576W        W28836  40.849   5.846  12.948
56577W        W28837  42.496  34.788   1.145
56578W        W28838  38.641   8.907   5.104
56579W        W28839   4.646  29.143  14.960
56580W        W28840  39.909  37.105  12.125
56581W        W28841  42.356  26.124   3.625
56582W        W28842   5.317  24.577   0.498
56583W        W28843  14.154  13.605  10.057
56584W        W28844  16.483  21.836   2.721
56585W        W28845  11.029  22.775   3.228
56586W        W28846  31.540  20.749   4.538
56587W        W28847  43.025   3.256   4.014
56588W        W28848  39.807   4.733   1.248
56589W        W28849  13.778  22.199   3.336
56590W        W28850  37.856  12.862   1.943
56591W        W28851  25.481  28.059   1.039
56592W        W28852  30.548   4.842  12.059
56593W        W28853   3.740  21.158  12.371
56594W        W28854  38.721   6.025  12.113
56595W        W28855   9.948  37.871   1.296
56596W        W28856  39.411  34.882  11.118
56597W        W28857  38.737   6.296   4.457
56598W        W28858   5.008  26.626   2.477
56599W        W28859  13.178  41.312   2.928
56600W        W28860  26.530  16.885   2.949
56601W        W28861  12.170   9.585   0.476
56602W        W28862  20.682  12.707   4.469
56603W        W28863  15.857  35.491   3.193
56604W        W28864  27.193  30.448  11.147
56605W        W28865  17.817  43.026  12.998
56606W        W28866  24.127  26.238   3.825
56607W        W28867  30.605   0.364  12.547
56608W        W28868  39.596  13.897   0.858
56609W        W28869  41.796   0.021  12.631
56610W        W28870   1.464  17.184   3.313
56611W        W28871   5.375  42.772  10.668
56612W        W28872  13.497  23.409   1.262
56613W        W28873  22.767  12.907   0.303
56614W        W28874   3.313  31.080   2.372
56615W        W28875   9.209  19.407  11.062
56616W        W28876  44.569  29.775   1.492
56617W        W28877  43.508   7.308   3.174
56618W        W28878   6.649  21.575  13.686
56619W        W28879  40.114  32.952   4.350
56620W        W28880  27.165  16.055   1.717
56621W        W28881  42.365   5.619   0.996
56622W        W28882   5.044  44.336  13.473
56623W        W28883  30.585  34.274  11.208
56624W        W28884  12.350  29.813  13.955
56625W        W28885   7.329   0.768  10.686
56626W        W28886   6.264  40.604  10.437
56627W        W28887  10.886   7.702   0.310
56628W        W28888  32.571  43.883   4.216
56629W        W28889  17.755  13.097  13.524
56630W        W28890  39.946  23.127   2.362
56631W        W28891  41.994  12.464  14.884
56632W        W28892   7.761  14.629   2.218
56633W        W28893  13.333  14.087  14.360
56634W        W28894  26.796  40.662  11.843
56635W        W28895  11.831  38.035   2.379
56636W        W28896   0.411  18.067  10.911
56637W        W28897  16.326  27.495   3.973
56638W        W28898  23.733  10.234   0.802
56639W        W28899  11.911   9.731  12.437
56640W        W28900   1.894  41.751  14.535
56641W        W28901  42.511  34.409  12.484
56642W        W28902  14.223   7.912   2.339
56643W        W28903  44.953  30.175  13.989
56644W        W28904  12.590  27.307  10.165
56645W        W28905   0.021  39.829   1.772
56646W        W28906   3.352  41.908   1.970
56647W        W28907  10.820  24.682   3.846
56648W        W28908  29.662  33.605   4.651
56649W        W28909  14.520  44.498   1.976
56650W        W28910   1.721  20.517   4.205
56651W        W28911  27.965   8.857   4.185
56652W        W28912   6.686  35.136  14.697
56653W        W28913  19.536  26.414  13.014
56654W        W28914  11.039   8.220   3.821
56655W        W28915  19.308  42.009  12.905
56656W        W28916  23.159   1.941  10.666
56657W        W28917  44.384  13.599  11.564
56658W        W28918  20.297  26.566   0.253
56659W        W28919  23.459   1.396   1.282
56660W        W28920  23.565   0.901   0.866
56661W        W28921   7.817  17.785  13.075
56662W        W28922  21.228  21.706  10.700
56663W        W28923  10.781   7.666  11.198
56664W        W28924  34.614  36.550  14.896
56665W        W28925  11.360  20.457   1.314
56666W        W28926  18.186  31.465   1.397
56667W        W28927  37.890  24.831   2.285
56668W        W28928  21.962   3.881   0.724
56669W        W28929   1.808  15.138   4.054
56670W        W28930  44.678  25.742  11.287
56671W        W28931   3.855  21.247   3.115
56672W        W28932   3.011  25.041  13.558
56673W        W28933   3.555  21.189   1.325
56674W        W28934  22.320  15.121  11.478
56675W        W28935   8.147   1.740   2.177
56676W        W28936   1.015  31.464   2.662
56677W        W28937  29.749  32.942   3.403
56678W        W28938   6.217  39.001   0.599
56679W        W28939   5.914  28.012  13.861
56680W        W28940  39.055  31.807   0.293
56681W        W28941  17.196  26.873  14.452
56682W        W28942   4.807   2.906  10.784
56683W        W28943   5.950  21.601  14.266
56684W        W28944  11.736  28.095  12.395
56685W        W28945  36.815   1.357   1.751
56686W        W28946   6.011   3.707   0.550
56687W        W28947   2.185  30.052  13.091
56688W        W28948  17.358  15.503   2.053
56689W        W28949   6.847  12.289   0.028
56690W        W28950   5.526  28.748  12.918
56691W        W28951  36.589  41.838   1.230
56692W        W28952  39.989   7.217   3.190
56693W        W28953  40.071  36.435  10.743
56694W        W28954   7.322  19.078  12.987
56695W        W28955   8.475  15.572   0.987
56696W        W28956  41.777  12.871   4.181
56697W        W28957  27.006  16.891   2.045
56698W        W28958  41.908   2.167   2.925
56699W        W28959  23.731  39.294   1.669
56700W        W28960  34.395  16.275   2.805
56701W        W28961  26.126  27.591  11.034
56702W        W28962  23.907  41.873  10.806
56703W        W28963  18.165   4.886  14.188
56704W        W28964  12.574  21.109   2.794
56705W        W28965  44.187   5.888   2.707
56706W        W28966   0.486  36.846   0.490
56707W        W28967  24.470  13.193   3.812
56708W        W28968  31.067  30.908  11.614
56709W        W28969  14.693  10.808   2.817
56710W        W28970  33.897  40.500  13.762
56711W        W28971  26.393  16.217  12.788
56712W        W28972  20.599  28.651   1.890
56713W        W28973  10.872   5.160   0.655
56714W        W28974  32.185   7.854   1.680
56715W        W28975   9.258  42.942  10.679
56716W        W28976  38.656  27.102   2.348
56717W        W28977  12.266  42.714  12.857
56718W        W28978  10.757  36.051   4.129
56719W        W28979   5.878  27.005  11.600
56720W        W28980  39.391  16.282   3.303
56721W        W28981  39.464  24.554   2.336
56722W        W28982  37.282  32.345  14.507
56723W        W28983  15.823  43.196   3.156
56724W        W28984  17.635  12.723  14.735
56725W        W28985  25.685   2.779   4.440
56726W        W28986  25.024  37.402  10.941
56727W        W28987  24.085  33.542  12.003
56728W        W28988  23.147   8.653   0.191
56729W        W28989  38.377  13.646   0.038
56730W        W28990  40.130  13.543  13.422
56731W        W28991  18.073  37.578   3.211
56732W        W28992  17.468   2.661   4.592
56733W        W28993  14.115  25.551  10.656
56734W        W28994  10.288  34.378   1.446
56735W        W28995   9.802   0.907  14.932
56736W        W28996  11.938  32.514   4.242
56737W        W28997  19.504  12.176  10.716
56738W        W28998  23.064  10.257  12.576
56739W        W28999  38.603   6.879   3.204
56740W        W29000  28.539  23.230  11.551
56741W        W29001  30.147  29.668  13.009
56742W        W29002  26.000   1.189  11.133
56743W        W29003  32.057  39.451   0.639
56744W        W29004   9.209  43.330   0.252
56745W        W29005  21.151  12.601   2.658
56746W        W29006   5.336   9.352  10.804
56747W        W29007   7.913  29.151   0.325
56748W        W29008  38.235   3.478   4.049
56749W        W29009  39.370  42.645  14.553
56750W        W29010  28.083   2.253  14.848
56751W        W29011  16.665  36.517   0.259
56752W        W29012  29.005  15.614  11.947
56753W        W29013  39.177  19.366   5.041
56754W        W29014   4.547   4.780  12.338
56755W        W29015  17.875  21.744  11.048
56756W        W29016  26.551  18.261  11.594
56757W        W29017  36.813  11.216   0.364
56758W        W29018  41.439  29.722   2.327
56759W        W29019  10.704  22.051   4.629
56760W        W29020   4.786  41.613   0.362
56761W        W29021  44.880  33.246  11.603
56762W        W29022  22.701   3.635   1.288
56763W        W29023  27.435  20.548   4.795
56764W        W29024   3.369  27.235   1.731
56765W        W29025  19.501  43.557   1.698
56766W        W29026  17.765  44.621  13.818
56767W        W29027   2.945  30.095   1.347
56768W        W29028  32.541  20.165   5.127
56769W        W29029  39.855   2.489   1.855
56770W        W29030  10.036   4.306  11.180
56771W        W29031  29.024  16.279  11.647
56772W        W29032  18.636  25.451  13.770
56773W        W29033  17.075  15.143   1.835
56774W        W29034  43.761  44.439  14.880
56775W        W29035  38.458   1.329  11.169
56776W        W29036  26.876   1.790  10.699
56777W        W29037   3.163  30.623  12.546
56778W        W29038  43.620   1.744   0.257
56779W        W29039  38.459   7.011  13.592
56780W        W29040  41.935  13.077  11.056
56781W        W29041  21.103  15.831   4.098
56782W        W29042  12.261  21.560   1.345
56783W        W29043  10.198  37.843  11.954
56784W        W29044  39.624  15.094   2.797
56785W        W29045  42.293  42.244  11.217
56786W        W29046   9.249  26.718   3.500
56787W        W29047   2.329  23.592  12.170
56788W        W29048  25.494  11.356  14.991
56789W        W29049  37.946  35.580   2.390
56790W        W29050  28.632  14.036  14.076
56791W        W29051  31.363  25.525  12.067
56792W        W29052  29.661   8.875   4.970
56793W        W29053  15.864  31.587   0.898
56794W        W29054  21.496   1.965   4.614
56795W        W29055  21.073  37.334   2.430
56796W        W29056  24.080  22.602   2.361
56797W        W29057  32.089   9.284   1.412
56798W        W29058  10.729  14.304  12.328
56799W        W29059  36.805  38.549  14.039
56800W        W29060  10.864  36.770  14.454
56801W        W29061   6.123  17.566   1.961
56802W        W29062  25.458   0.061  12.462
56803W        W29063   2.884  19.744   0.889
56804W        W29064  39.919  16.230  11.911
56805W        W29065   6.195  31.098   2.405
56806W        W29066  18.044   3.739   4.300
56807W        W29067   5.641   8.284  11.616
56808W        W29068   4.272  37.776  10.832
56809W        W29069  21.932  32.339  11.018
56810W        W29070  40.294  31.917  13.503
56811W        W29071   5.658   7.885  13.342
56812W        W29072  31.969  28.733  11.966
56813W        W29073  10.306   9.081   2.918
56814W        W29074  21.355  12.530   0.294
56815W        W29075  43.452  26.337  10.450
56816W        W29076  29.806  25.883   3.531
56817W        W29077  27.670   2.983   3.215
56818W        W29078  40.837   1.287   4.597
56819W        W29079   8.929   5.627  10.616
56820W        W29080  14.713  34.150   4.519
56821W        W29081  36.595  35.435   4.514
56822W        W29082  11.871  12.074   0.928
56823W        W29083  27.873  42.411   1.129
56824W        W29084  32.591  31.801  13.971
56825W        W29085  23.643  40.060   0.349
56826W        W29086  12.102  29.923   5.429
56827W        W29087  42.911  20.245  13.529
56828W        W29088  29.956  15.033   1.409
56829W        W29089  13.623  38.595  10.550
56830W        W29090  42.497  30.594   0.775
56831W        W29091  30.047   8.951  14.446
56832W        W29092  11.029  32.694   2.731
56833W        W29093  22.137   7.863  10.554
56834W        W29094  21.503  34.597   3.086
56835W        W29095  31.568   9.665   1.745
56836W        W29096  28.416  10.262  13.552
56837W        W29097  11.887   0.500   2.172
56838W        W29098  11.068  34.761  12.529
56839W        W29099  30.108  37.886   1.473
56840W        W29100   6.317  29.462  11.146
56841W        W29101  10.606  22.709  14.097
56842W        W29102  28.978  17.283  14.464
56843W        W29103  14.329  31.369   2.409
56844W        W29104  27.931  43.342   0.795
56845W        W29105  36.499  12.190  12.574
56846W        W29106  19.640  38.025   1.764
56847W        W29107  11.719  18.404  13.505
56848W        W29108   6.617  41.255  13.621
56849W        W29109  35.645  34.479   0.441
56850W        W29110  38.588  18.553   4.182
56851W        W29111  22.728  17.753  12.473
56852W        W29112  17.245  27.118   4.664
56853W        W29113   7.723  18.296   2.424
56854W        W29114  18.657  28.862  13.016
56855W        W29115  25.443  30.081  11.450
56856W        W29116  40.831  23.568   3.107
56857W        W29117  20.125   5.167   1.735
56858W        W29118  21.854   5.524  14.184
56859W        W29119  22.615   2.830   2.237
56860W        W29120  22.505  40.497   4.054
56861W        W29121  11.879  14.129  14.391
56862W        W29122  43.356  26.024  14.767
56863W        W29123  40.548  16.269  13.385
56864W        W29124  36.157  33.293  11.575
56865W        W29125  29.359  11.918  10.162
56866W        W29126  39.065   5.664  11.999
56867W        W29127  34.162  25.266   4.946
56868W        W29128  25.278  16.809   4.063
56869W        W29129  17.597   9.710  11.220
56870W        W29130  14.732  31.634  10.629
56871W        W29131  27.887  14.814  14.507
56872W        W29132   5.311  10.404  14.213
56873W        W29133  19.337   2.648  13.058
56874W        W29134  18.156   7.690   1.242
56875W        W29135   5.411   8.550   3.118
56876W        W29136  21.297  38.997   2.550
56877W        W29137  17.751  31.628   0.720
56878W        W29138  18.727   1.314   4.858
56879W        W29139   8.284  16.094   0.212
56880W        W29140  34.919  14.580   3.152
56881W        W29141  16.932  26.045  13.039
56882W        W29142  40.946  33.542  14.778
56883W        W29143  17.795  36.221   4.602
56884W        W29144  39.830  44.468   2.412
56885W        W29145   5.971  31.587  13.407
56886W        W29146  36.827   3.451  14.552
56887W        W29147  36.136   9.217   0.293
56888W        W29148  39.513  13.031   2.775
56889W        W29149  40.517   0.104   0.395
56890W        W29150   8.574  43.015  12.829
56891W        W29151  28.656   8.997   4.635
56892W        W29152  36.584  24.650   4.091
56893W        W29153  42.772  23.901   2.369
56894W        W29154  33.589  27.755  10.288
56895W        W29155  19.997  41.577   0.442
56896W        W29156  14.877  43.349   3.100
56897W        W29157  16.785   6.782  12.002
56898W        W29158  16.272  23.727   2.240
56899W        W29159  36.542   0.911   1.811
56900W        W29160  25.727  36.375   4.556
56901W        W29161   8.810  20.528   4.923
56902W        W29162   6.682  29.726   3.210
56903W        W29163  36.337  42.007   3.929
56904W        W29164  31.417  40.481  11.926
56905W        W29165  34.954  33.920   2.016
56906W        W29166  20.969  42.497   3.304
56907W        W29167  26.934  21.641  13.069
56908W        W29168  13.195  36.679   0.003
56909W        W29169  27.768  36.160   2.257
56910W        W29170  23.205  20.594  10.196
56911W        W29171  34.223   3.437   2.691
56912W        W29172  36.833  38.484  11.903
56913W        W29173   1.908   1.210  14.576
56914W        W29174  37.618  10.430   0.018
56915W        W29175  21.454  15.230   2.852
56916W        W29176  35.887  33.949  12.510
56917W        W29177  19.521  34.978  10.379
56918W        W29178   0.502  43.788   0.861
56919W        W29179  18.797   3.761   3.584
56920W        W29180  15.599  24.142  13.966
56921W        W29181  23.528  41.386   2.387
56922W        W29182   0.450  41.177   4.001
56923W        W29183  14.235  27.604   4.219
56924W        W29184  30.407  11.948   4.504
56925W        W29185  24.489  31.633   2.857
56926W        W29186  27.724  16.660   0.819
56927W        W29187   5.943  37.533  12.954
56928W        W29188   1.525  43.451   2.756
56929W        W29189  11.064  30.696  13.473
56930W        W29190  11.123  32.102  12.979
56931W        W29191  41.073  14.848  11.847
56932W        W29192   1.138   1.024   1.187
56933W        W29193  13.667  37.082   4.376
56934W        W29194  20.652  20.671   2.240
56935W        W29195  41.379  29.399   4.101
56936W        W29196  13.056  10.193   1.877
56937W        W29197  32.397  20.001  13.501
56938W        W29198  17.521  20.534  14.380
56939W        W29199  12.732  42.288  10.771
56940W        W29200  11.645  34.850   0.323
56941W        W29201  21.046   9.083  10.712
56942W        W29202  19.789  35.894  14.954
56943W        W29203  36.419  10.753  11.946
56944W        W29204  28.326  26.141   2.935
56945W        W29205  24.685  27.723   1.965
56946W        W29206  37.545  38.910   1.836
56947W        W29207   6.123  18.597   0.693
56948W        W29208  38.336  26.782   5.039
56949W        W29209  41.471   8.330  11.123
56950W        W29210  25.785  36.634  12.041
56951W        W29211  25.176  42.839   4.127
56952W        W29212   1.371  32.405   4.351
56953W        W29213  17.332  38.431   5.019
56954W        W29214  29.076   4.849  14.951
56955W        W29215  27.432  21.074   3.749
56956W        W29216   4.781  18.083   1.900
56957W        W29217   4.957   4.332   0.201
56958W        W29218  27.271  28.758   2.343
56959W        W29219  44.010   3.360  11.987
56960W        W29220  15.570  27.410   1.833
56961W        W29221  34.929   8.199  13.776
56962W        W29222  33.553  38.562   2.685
56963W        W29223   2.734  24.998  14.966
56964W        W29224  37.652  38.378   2.364
56965W        W29225  37.436  33.953  11.619
56966W        W29226   7.253  19.873   3.674
56967W        W29227  16.754  10.880   3.206
56968W        W29228  32.094  35.806  11.106
56969W        W29229   6.729  34.984   2.561
56970W        W29230   8.902  25.544  11.143
56971W        W29231   1.544   4.848   1.419
56972W        W29232  27.067  37.565   0.689
56973W        W29233  25.928  18.237  14.792
56974W        W29234  35.532  37.094  14.304
56975W        W29235   3.823  10.732   3.858
56976W        W29236  25.635  42.375   0.221
56977W        W29237  18.229  35.143  13.918
56978W        W29238   8.672  22.494  12.012
56979W        W29239  19.601  39.906   3.168
56980W        W29240  23.123  36.852  13.893
56981W        W29241  33.855  35.494   0.505
56982W        W29242  22.230   8.791   5.134
56983W        W29243  29.889  41.020  12.947
56984W        W29244  30.888  40.538   2.128
56985W        W29245  43.962  29.093   3.460
56986W        W29246  15.622   1.674   4.917
56987W        W29247   1.753  19.849  13.280
56988W        W29248  33.681  28.494   4.681
56989W        W29249  42.392  16.089  13.203
56990W        W29250   3.895   2.345   3.689
56991W        W29251  21.607  35.467   3.353
56992W        W29252   5.395   3.849  12.351
56993W        W29253   9.094  41.039  13.821
56994W        W29254  12.285  15.295  12.496
56995W        W29255  42.945  26.543   1.933
56996W        W29256   2.735  24.872   5.128
56997W        W29257  19.367  28.970   3.775
56998W        W29258  12.192  43.314  11.561
56999W        W29259  15.062  17.290   2.826
57000W        W29260  29.484   0.345   4.476
57001W        W29261  40.763  15.129   3.776
57002W        W29262  12.047  10.634   4.539
57003W        W29263  14.840  43.217  12.906
57004W        W29264   2.833  15.768  10.778
57005W        W29265  17.818  35.317   3.017
57006W        W29266   1.272  40.542   4.321
57007W        W29267  37.477  18.149   1.727
57008W        W29268  29.297  30.192  11.941
57009W        W29269   0.721   8.396  11.482
57010W        W29270  33.638   4.118  12.674
57011W        W29271  30.189  43.862   1.976
57012W        W29272  39.274  13.264   0.372
57013W        W29273  36.905  43.743  12.588
57014W        W29274  35.872  23.519  12.517
57015W        W29275  28.506   3.474   1.351
57016W        W29276  41.537   2.430   4.083
57017W        W29277  35.956   6.623  14.009
57018W        W29278   5.190  12.349  11.019
57019W        W29279  33.984  27.715   2.328
57020W        W29280   1.120  32.877  13.834
57021W        W29281  15.338  36.495   4.669
57022W        W29282  25.983  15.648  14.216
57023W        W29283  10.676  30.418  10.641
57024W        W29284   8.775  29.878  11.197
57025W        W29285  18.523   9.696  11.055
57026W        W29286  31.371  16.178  13.355
57027W        W29287  31.435  43.687  12.072
57028W        W29288   8.172  22.549  12.043
57029W        W29289  24.786   4.631   0.466
57030W        W29290  13.580  33.928  13.998
57031W        W29291  26.510  22.517  12.829
57032W        W29292  10.844  33.751   2.677
57033W        W29293  30.665  13.349   1.237
57034W        W29294  31.123  17.187   1.827
57035W        W29295  15.640  28.136  11.067
57036W        W29296  28.526  30.899   4.475
57037W        W29297   9.997  43.649  12.057
57038W        W29298  32.895  38.361  13.530
57039W        W29299  30.435   6.797  13.996
57040W        W29300  15.380   1.317   4.566
57041W        W29301  22.713  19.215   0.954
57042W        W29302  40.791  14.798  13.841
57043W        W29303  28.148  36.515   2.242
57044W        W29304  44.448  14.641  10.775
57045W        W29305  37.010   3.264  13.112
57046W        W29306  27.812  24.140  10.694
57047W        W29307  32.742  13.613  12.316
57048W        W29308  20.621  10.152  11.400
57049W        W29309   5.706  24.130   2.678
57050W        W29310   0.951  37.960  13.946
57051W        W29311  16.716   6.358   5.482
57052W        W29312   6.148  23.100  10.712
57053W        W29313   7.784  25.932   5.336
57054W        W29314  39.238  28.472  14.467
57055W        W29315  44.362  23.499  13.470
57056W        W29316   4.878  17.650  13.336
57057W        W29317   1.292  41.219  11.572
57058W        W29318  18.132  23.625   3.389
57059W        W29319  37.961  27.187  14.826
57060W        W29320  31.396  19.714   1.939
57061W        W29321  10.337  10.230   4.776
57062W        W29322  23.755  28.133  10.707
57063W        W29323   5.256   9.411  12.594
57064W        W29324   6.691  33.629  11.945
57065W        W29325  42.779  28.174  12.909
57066W        W29326  31.919  23.723   4.467
57067W        W29327  11.330   6.485  13.504
57068W        W29328  20.768  16.122   4.377
57069W        W29329   8.617  22.843   1.898
57070W        W29330  13.294  41.415   3.446
57071W        W29331   9.142  37.649  12.513
57072W        W29332   4.777  30.131   2.630
57073W        W29333  22.338  41.262   4.497
57074W        W29334  38.512  44.983  11.277
57075W        W29335  17.267  17.293  10.590
57076W        W29336  43.690  11.415  12.639
57077W        W29337  36.685   9.282   2.552
57078W        W29338  24.119  25.549  12.147
57079W        W29339   7.136  35.612   1.415
57080W        W29340  40.086  13.456  14.261
57081W        W29341  30.340  14.334   2.862
57082W        W29342  15.543  21.226  13.748
57083W        W29343   6.534  31.966   5.087
57084W        W29344  41.125   0.020  10.854
57085W        W29345  10.156  23.207  12.535
57086W        W29346  34.527   1.844   2.346
57087W        W29347  27.197  10.725  12.901
57088W        W29348   8.855  38.552   0.560
57089W        W29349  20.753  28.297   4.205
57090W        W29350  16.627  13.351  10.741
57091W        W29351   3.852   8.436   5.046
57092W        W29352   1.477  30.919  14.784
57093W        W29353  30.626   1.731   2.163
57094W        W29354   3.375  23.393  11.406
57095W        W29355  29.507  20.329  13.495
57096W        W29356  38.800  32.169   1.814
57097W        W29357   0.355   7.458  11.718
57098W        W29358  35.897   6.693  12.928
57099W        W29359  43.325   9.899   4.360
57100W        W29360   0.725   2.833   4.900
57101W        W29361   5.309  20.052  11.148
57102W        W29362  29.351   6.526  12.564
57103W        W29363  33.333   2.034   0.323
57104W        W29364  41.273  30.119  14.093
57105W        W29365  37.484  23.462  12.134
57106W        W29366  25.887  36.953  14.377
57107W        W29367   2.105  10.828  14.945
57108W        W29368  31.779  37.864   3.808
57109W        W29369  39.968  20.044   2.622
57110W        W29370   5.988   9.664  11.580
57111W        W29371   4.022  34.310   1.298
57112W        W29372  14.328  32.652  12.393
57113W        W29373  35.471  38.342   2.421
57114W        W29374  15.121   6.437  13.083
57115W        W29375  30.894  32.980  11.445
57116W        W29376  40.910   7.890  12.055
57117W        W29377  25.312  26.567  13.564
57118W        W29378  29.891  34.072   0.546
57119W        W29379  32.560  25.280   1.284
57120W        W29380  26.584  44.586   3.319
57121W        W29381  26.982   5.744   1.144
57122W        W29382   0.418  24.242   2.835
57123W        W29383   9.319   0.726  10.378
57124W        W29384  27.163   2.641  12.567
57125W        W29385  33.140  13.182   1.960
57126W        W29386  22.628   2.442   4.649
57127W        W29387  28.435  15.330  12.081
57128W        W29388  39.347   0.698   2.583
57129W        W29389  22.971  19.736   3.176
57130W        W29390  21.051  27.300  10.670
57131W        W29391  31.606  30.497  10.087
57132W        W29392  18.699  34.940   4.144
57133W        W29393  18.685  39.861  13.746
57134W        W29394  40.924  41.828  13.850
57135W        W29395   5.505  21.513  12.904
57136W        W29396  19.007   9.882  12.513
57137W        W29397  19.094   0.556  10.756
57138W        W29398   6.688  15.478  14.361
57139W        W29399   3.864  23.475  11.510
57140W        W29400  43.593  20.581  14.390
57141W        W29401  42.984  25.573  12.550
57142W        W29402  36.637  12.752  10.101
57143W        W29403   8.189   4.598  13.904
57144W        W29404   7.235  26.002  11.061
57145W        W29405   9.387  39.686  12.504
57146W        W29406  39.024   0.256  11.403
57147W        W29407  37.881  25.334  10.132
57148W        W29408  22.153  32.515   1.780
57149W        W29409  13.107   8.225   2.042
57150W        W29410  33.340  41.041  10.526
57151W        W29411   9.683  43.470   0.399
57152W        W29412  19.685  36.893  13.444
57153W        W29413  43.584  17.801   2.674
57154W        W29414   0.699  38.289  12.489
57155W        W29415  16.285   1.032  14.793
57156W        W29416  27.217  43.237   0.336
57157W        W29417   9.123  43.925  12.117
57158W        W29418  13.382  27.643   0.044
57159W        W29419  19.992  15.043   2.728
57160W        W29420   9.105  27.528  14.361
57161W        W29421  29.181  39.493   4.623
57162W        W29422  35.823  43.028   0.330
57163W        W29423   9.925  31.921  12.271
57164W        W29424  23.923  41.474  12.899
57165W        W29425  29.572  40.375  11.341
57166W        W29426  35.502  42.758  12.876
57167W        W29427  32.755  12.816  11.001
57168W        W29428   1.952  21.045   3.284
57169W        W29429  14.052  29.125  13.063
57170W        W29430  24.506  17.081  12.887
57171W        W29431  39.591   5.797  12.086
57172W        W29432  22.188  28.328   2.810
57173W        W29433  24.467  42.959  11.570
57174W        W29434  10.128  42.532  10.722
57175W        W29435  16.191  38.753   1.266
57176W        W29436  38.172  32.834   3.282
57177W        W29437   5.294   7.492  14.274
57178W        W29438  16.130   0.705  13.855
57179W        W29439  23.233  10.445   2.706
57180W        W29440  29.561  35.389  10.961
57181W        W29441   0.719   4.492  10.160
57182W        W29442   8.781  44.963   0.846
57183W        W29443  38.084  37.032  10.673
57184W        W29444  24.512  33.161   2.385
57185W        W29445  18.290   9.816   0.091
57186W        W29446  16.044  35.901  11.244
57187W        W29447  24.686  36.659  10.764
57188W        W29448  31.276   2.388   2.383
57189W        W29449  20.572  12.276  13.488
57190W        W29450  16.732  25.861  11.568
57191W        W29451  22.651  19.496  12.102
57192W        W29452   2.179  38.870   3.703
57193W        W29453  14.000  18.524  10.562
57194W        W29454  18.086  10.139   0.464
57195W        W29455  27.748  17.007   2.231
57196W        W29456  29.034  15.225   3.244
57197W        W29457  22.164  14.142   0.045
57198W        W29458  27.973  33.894   0.828
57199W        W29459   6.416  42.866   1.770
57200W        W29460  18.205  29.469   2.636
57201W        W29461   6.457  24.816  11.125
57202W        W29462  23.421  30.293   1.468
57203W        W29463   4.306  14.239   2.872
57204W        W29464  36.700  34.159   2.338
57205W        W29465   2.225  31.679  11.892
57206W        W29466  33.352  24.138  12.867
57207W        W29467  13.107  34.479  12.431
57208W        W29468   3.350   4.482   4.142
57209W        W29469  23.453  19.216   1.764
57210W        W29470  16.128   5.403   0.342
57211W        W29471   4.175  15.259  13.409
57212W        W29472   7.187  32.048  11.915
57213W        W29473   2.924  10.041  11.151
57214W        W29474   3.653  25.416   2.857
57215W        W29475  44.806  34.813   2.825
57216W        W29476  19.781  18.087   0.176
57217W        W29477  42.981   7.952  14.996
57218W        W29478  11.319  44.418   4.177
57219W        W29479  17.014  30.568   1.251
57220W        W29480   5.956  41.146   2.147
57221W        W29481  19.212  28.634  13.970
57222W        W29482  37.951  12.607  10.682
57223W        W29483  14.680  10.169   4.157
57224W        W29484  37.409  13.586  12.999
57225W        W29485  42.141  11.017  12.513
57226W        W29486   5.690   2.773   3.521
57227W        W29487   3.889   8.703   3.315
57228W        W29488  32.502  17.801  11.508
57229W        W29489   1.839  41.433   4.602
57230W        W29490  21.555   6.260   0.473
57231W        W29491  26.012  25.290   0.500
57232W        W29492   0.502  43.381  11.052
57233W        W29493  42.243  27.504  11.754
57234W        W29494  30.093  17.281  12.023
57235W        W29495  43.334  27.196  14.050
57236W        W29496  40.884  21.100   2.656
57237W        W29497  27.693  26.509   0.856
57238W        W29498  29.084  18.130   2.719
57239W        W29499  24.541   0.388  13.976
57240W        W29500   3.393   2.273  10.636
57241W        W29501   7.742  22.499   4.661
57242W        W29502  33.131  18.293   0.268
57243W        W29503   3.775  21.112  11.378
57244W        W29504  10.034  30.606   1.567
57245W        W29505  24.170  22.991  10.408
57246W        W29506  33.290  14.809   2.278
57247W        W29507   7.819  39.786   2.246
57248W        W29508  36.528   4.469  14.040
57249W        W29509  36.414  37.541  11.426
57250W        W29510  30.723  39.832   2.775
57251W        W29511  23.397  13.739   0.271
57252W        W29512   5.717  22.037   4.403
57253W        W29513  22.006  31.103  13.440
57254W        W29514  31.196  30.518  14.877
57255W        W29515   2.822   1.616   0.442
57256W        W29516   3.523  25.541   0.243
57257W        W29517  33.823   1.316  14.275
57258W        W29518  42.363   3.493  10.376
57259W        W29519   0.317   5.245   4.330
57260W        W29520  37.555   1.044  13.392
57261W        W29521   2.171  40.556  12.471
57262W        W29522  39.440   5.318  10.723
57263W        W29523   7.980  23.261  13.514
57264W        W29524  36.582  26.049   0.922
57265W        W29525  16.914   0.768   2.297
57266W        W29526  38.128  39.835   0.747
57267W        W29527  43.058   0.228   4.091
57268W        W29528  39.589  40.147   4.396
57269W        W29529   3.256  11.562  14.586
57270W        W29530  21.001  42.088  14.379
57271W        W29531  20.106  30.879   1.652
57272W        W29532  19.058  21.302   1.665
57273W        W29533   9.171  10.585  11.052
57274W        W29534  11.251   8.762  11.655
57275W        W29535   9.413  27.435   3.041
57276W        W29536  25.435   6.342   2.707
57277W        W29537  24.148   2.061  14.713
57278W        W29538  39.995  34.788   0.897
57279W        W29539   5.537   9.433   0.405
57280W        W29540   1.624  37.959  11.765
57281W        W29541   8.697  10.190   4.369
57282W        W29542  40.026  17.953  14.801
57283W        W29543  21.022  21.195   4.164
57284W        W29544   9.748  36.589  11.992
57285W        W29545  36.036  23.502   2.962
57286W        W29546   3.179  32.498   1.337
57287W        W29547  23.532  18.755  10.536
57288W        W29548  17.542  10.258  13.854
57289W        W29549  22.751  32.403  14.846
57290W        W29550  10.924   0.238  12.515
57291W        W29551  23.735  27.157   5.442
57292W        W29552  33.028  31.047   3.990
57293W        W29553  13.354  12.425   0.712
57294W        W29554   3.469  29.286   4.601
57295W        W29555  23.069  20.270  12.506
57296W        W29556   8.205  12.657   0.807
57297W        W29557   5.679  44.861  10.603
57298W        W29558   6.335  40.727   0.881
57299W        W29559  29.601   9.180   2.048
57300W        W29560  31.478  24.173  12.425
57301W        W29561  21.491  15.610   4.364
57302W        W29562  34.659   8.862   2.780
57303W        W29563  34.511   7.645  14.939
57304W        W29564  13.357  15.866  13.942
57305W        W29565  21.806   6.223  12.559
57306W        W29566  35.716  15.888  13.980
57307W        W29567   2.239  36.363  12.475
57308W        W29568  36.825  17.876   0.928
57309W        W29569  25.532  12.791  13.811
57310W        W29570  13.435   0.944  13.894
57311W        W29571   5.961   4.807  11.025
57312W        W29572  22.276  23.249   4.041
57313W        W29573  37.177  42.726  14.987
57314W        W29574   8.109  35.544   2.360
57315W        W29575  33.853  20.522  13.745
57316W        W29576  10.415   0.433  12.447
57317W        W29577  15.319  22.808   3.565
57318W        W29578  20.483  35.923  13.286
57319W        W29579  39.451  40.573  14.845
57320W        W29580  27.182  14.248  10.478
57321W        W29581  40.413  29.045  12.777
57322W        W29582  31.954  43.670  12.053
57323W        W29583  32.550  18.572   4.318
57324W        W29584  36.160  41.503  13.914
57325W        W29585  22.236  22.109   0.349
57326W        W29586   0.779  12.893  14.450
57327W        W29587   3.535  20.323   4.767
57328W        W29588  33.162  31.963  12.378
57329W        W29589  14.482  23.381  11.205
57330W        W29590  29.396  36.378  11.168
57331W        W29591   0.152  12.314  13.351
57332W        W29592  42.383  12.854  12.808
57333W        W29593  13.532   7.989   2.827
57334W        W29594   6.854  19.121  11.324
57335W        W29595  13.531  28.940   1.893
57336W        W29596  31.090  35.386  11.663
57337W        W29597  28.902   8.458  14.679
57338W        W29598  41.254  27.441   4.576
57339W        W29599  15.613   5.825  14.024
57340W        W29600  39.365  39.396   2.635
57341W        W29601  37.061  19.852   0.388
57342W        W29602  40.897  44.462  13.429
57343W        W29603  44.581  14.554  14.729
57344W        W29604  29.900   2.958  13.873
57345W        W29605  28.681  27.351   0.677
57346W        W29606  15.267  40.495  11.263
57347W        W29607   7.185  23.746   4.983
57348W        W29608  37.120  29.432  11.647
57349W        W29609  30.583  44.562  12.244
57350W        W29610  28.485  20.882   3.782
57351W        W29611  41.923  22.628   1.543
57352W        W29612  42.329  35.506  11.442
57353W        W29613  29.752  22.231  13.311
57354W        W29614   5.866  42.544  11.585
57355W        W29615   9.421   7.729   1.411
57356W        W29616   5.302  16.154  13.878
57357W        W29617  19.122  10.450   1.811
57358W        W29618  35.005  33.066   0.408
57359W        W29619   6.794  41.994   1.296
57360W        W29620  11.238  42.821  11.539
57361W        W29621   6.388   5.406  13.329
57362W        W29622  17.140  26.707   1.371
57363W        W29623  26.185   7.663   1.293
57364W        W29624   2.887  22.602   3.214
57365W        W29625   7.227  38.836  14.902
57366W        W29626  23.600  16.116  12.232
57367W        W29627   8.209  40.650  12.137
57368W        W29628  30.693   1.267  12.036
57369W        W29629  28.711  39.961  12.318
57370W        W29630  36.004   2.030   0.291
57371W        W29631   5.998  15.295  12.872
57372W        W29632  18.268   4.335  13.435
57373W        W29633  17.091   4.939  13.767
57374W        W29634   0.859  36.083   2.618
57375W        W29635  16.217  11.654   3.146
57376W        W29636  12.348   0.432  14.333
57377W        W29637  37.460  15.350   1.407
57378W        W29638  30.518  33.463   3.131
57379W        W29639   9.098   8.354  12.004
57380W        W29640  21.085  21.017   1.371
57381W        W29641  36.148   8.339   2.682
57382W        W29642   6.251  44.829   4.318
57383W        W29643  41.081  20.299   3.217
57384W        W29644  22.804  38.338  11.233
57385W        W29645  25.554   2.634   3.081
57386W        W29646  12.272   6.300   0.985
57387W        W29647  12.091  19.752  14.589
57388W        W29648  44.857  41.280  11.540
57389W        W29649   0.698   2.932  14.345
57390W        W29650   9.897  14.015  11.337
57391W        W29651  35.039  27.117   2.686
57392W        W29652  32.799  19.160  10.243
57393W        W29653  17.788  25.049   1.306
57394W        W29654  36.283   9.845  12.553
57395W        W29655   7.535  39.130  11.598
57396W        W29656  28.781  27.497  13.799
57397W        W29657  40.776  35.264  14.245
57398W        W29658  16.616  15.521  11.493
57399W        W29659   9.394  35.546   3.687
57400W        W29660   5.673  23.087  11.466
57401W        W29661   7.701   0.521   4.568
57402W        W29662  39.071  10.285  12.267
57403W        W29663  19.182  38.790  12.521
57404W        W29664   3.324  30.004  12.160
57405W        W29665  38.468   0.976   3.697
57406W        W29666  23.282  20.066   5.054
57407W        W29667  35.166  21.883   5.099
57408W        W29668   8.643  13.719   3.357
57409W        W29669  42.955  27.378  12.329
57410W        W29670  44.184   8.876  12.941
57411W        W29671  11.869  39.270  13.360
57412W        W29672  41.046  14.715  10.889
57413W        W29673  13.616   2.384  10.649
57414W        W29674  28.549   5.377  11.337
57415W        W29675  21.744   3.450   3.249
57416W        W29676   0.636  29.881   0.799
57417W        W29677  33.490   8.772   1.329
57418W        W29678   7.906  26.959   2.808
57419W        W29679  44.587   1.827  11.071
57420W        W29680   1.826   4.886   3.135
57421W        W29681  10.697  20.607   3.546
57422W        W29682  20.064  17.344  13.479
57423W        W29683  20.761   8.793  11.128
57424W        W29684  19.718  23.506   3.369
57425W        W29685  16.027  30.993  13.118
57426W        W29686   6.343  16.269  12.971
57427W        W29687  15.167  25.550   3.686
57428W        W29688  17.991  27.246   2.154
57429W        W29689  38.881  12.180   2.196
57430W        W29690  11.468  30.192   4.275
57431W        W29691   3.508  24.259   0.155
57432W        W29692  40.916  17.520   4.208
57433W        W29693  25.724  15.196  14.319
57434W        W29694  31.919  13.392   3.321
57435W        W29695  44.650  16.781   4.518
57436W        W29696  35.491  30.587   2.955
57437W        W29697  19.996  23.957   2.837
57438W        W29698  16.073  11.255   3.767
57439W        W29699  40.472   7.755  13.618
57440W        W29700  28.714  31.506  14.202
57441W        W29701   7.499  27.620   4.773
57442W        W29702   1.403  22.070  11.176
57443W        W29703  42.272  39.364   2.715
57444W        W29704  34.501   9.621   4.174
57445W        W29705  41.572  11.933   4.270
57446W        W29706  34.004  18.468  10.269
57447W        W29707   3.017   5.808   1.086
57448W        W29708   9.149  20.798  12.637
57449W        W29709   5.430  24.978   2.311
57450W        W29710   4.959  42.776   3.721
57451W        W29711   6.691  36.262   0.867
57452W        W29712  26.974  10.323   4.282
57453W        W29713  17.130  34.584   1.469
57454W        W29714  35.935  27.147  13.895
57455W        W29715  11.082   6.600  10.600
57456W        W29716  13.863  32.600   2.323
57457W        W29717  11.237   5.522  14.014
57458W        W29718  24.741  38.074   0.692
57459W        W29719  26.683   8.688   0.373
57460W        W29720   5.265  28.597   5.619
57461W        W29721  40.923  38.074  14.971
57462W        W29722  21.041   3.313   3.799
57463W        W29723  33.466   3.427  14.213
57464W        W29724  23.010  44.559  12.316
57465W        W29725  30.553  17.114   3.153
57466W        W29726  29.686  37.041  14.871
57467W        W29727   0.786  23.669   0.323
57468W        W29728  11.315   7.335   3.457
57469W        W29729   9.920  13.734   1.300
57470W        W29730  20.723  21.811  10.611
57471W        W29731   7.010  30.665   1.314
57472W        W29732   5.018  22.499   4.694
57473W        W29733  32.029  31.109  12.489
57474W        W29734  16.700   2.498   3.112
57475W        W29735  11.797  39.857  12.021
57476W        W29736  33.678  42.956  13.371
57477W        W29737  17.562  31.963  14.398
57478W        W29738   4.361  16.846  11.128
57479W        W29739   2.646  15.596   0.972
57480W        W29740   5.249  42.511   3.225
57481W        W29741  42.098  15.207  12.046
57482W        W29742   0.831  37.491  13.002
57483W        W29743   1.426  22.021  14.856
57484W        W29744  18.181  38.219   4.136
57485W        W29745  38.507  16.231  14.866
57486W        W29746  38.436  35.174   3.280
57487W        W29747  17.791  38.416   0.400
57488W        W29748   4.566  29.536  11.959
57489W        W29749  15.283  18.760  11.157
57490W        W29750  36.671  37.482  13.362
57491W        W29751  18.428   8.294  12.514
57492W        W29752   8.617  17.709  13.887
57493W        W29753  36.888  14.705   4.627
57494W        W29754  27.150  39.338  12.021
57495W        W29755  21.220   2.022   2.194
57496W        W29756  39.021   3.846   3.851
57497W        W29757  13.175  33.897   2.796
57498W        W29758  37.322  23.056   0.134
57499W        W29759  37.884  33.390   1.133
57500W        W29760  33.037  14.948   0.934
57501W        W29761  30.391  24.912  12.423
57502W        W29762  10.586   6.676  13.530
57503W        W29763   2.772  32.060   0.787
57504W        W29764  32.863  14.531  13.576
57505W        W29765  23.570  33.421   4.520
57506W        W29766  20.718  39.811  12.039
57507W        W29767  18.697  30.422   3.300
57508W        W29768  25.445  22.197   1.262
57509W        W29769   0.849  42.372   3.194
57510W        W29770  21.588  40.030  11.121
57511W        W29771  15.238  20.306  13.364
57512W        W29772  10.746   4.288  13.956
57513W        W29773  14.408  14.810   5.459
57514W        W29774  11.735  41.480  12.426
57515W        W29775  30.511  31.236   2.769
57516W        W29776  21.821   6.737  13.430
57517W        W29777  25.897  25.689  14.491
57518W        W29778  24.088  17.120   0.368
57519W        W29779  43.556  23.515  10.706
57520W        W29780  29.069  10.115   0.297
57521W        W29781  35.077  35.978   9.818
57522W        W29782  23.247  25.303  12.526
57523W        W29783  31.529   5.480   2.773
57524W        W29784   0.501   9.921   0.081
57525W        W29785  29.378  15.096   4.227
57526W        W29786  39.750   6.812  14.480
57527W        W29787  28.582  27.159   1.524
57528W        W29788  25.490  42.362   1.863
57529W        W29789  36.413   8.250   1.289
57530W        W29790  31.413  22.310  14.762
57531W        W29791   9.609  15.644   0.797
57532W        W29792  38.240  11.889  13.323
57533W        W29793  18.016  33.926  14.635
57534W        W29794   8.957  11.880  11.957
57535W        W29795   7.093   3.850  14.429
57536W        W29796  25.967  31.744  11.166
57537W        W29797  30.407   0.043  12.215
57538W        W29798  20.588  13.655   0.397
57539W        W29799   0.763  23.877   2.668
57540W        W29800  22.871  15.734  12.585
57541W        W29801  21.150  18.823  10.473
57542W        W29802  44.452  26.723  12.797
57543W        W29803  30.930   0.031  12.305
57544W        W29804  31.967  18.079  12.386
57545W        W29805   6.940  12.125   2.961
57546W        W29806  10.659   1.751   2.708
57547W        W29807  40.229   7.699   1.938
57548W        W29808  33.491  43.454   1.634
57549W        W29809  22.508   6.635  12.957
57550W        W29810   2.265  44.752   1.403
57551W        W29811  24.544  35.664   0.909
57552W        W29812  38.303  28.952   3.782
57553W        W29813  41.574  30.134   3.363
57554W        W29814  26.632  44.515  14.964
57555W        W29815  36.535  18.983   1.905
57556W        W29816   3.265  33.346   3.682
57557W        W29817  31.756  10.734   4.621
57558W        W29818  12.525  33.334  13.529
57559W        W29819   0.219   6.635   1.328
57560W        W29820  24.289  23.324   4.568
57561W        W29821   0.477   8.457  13.405
57562W        W29822  13.981  36.442  12.912
57563W        W29823  27.247  34.591  11.014
57564W        W29824   5.635  40.080  12.936
57565W        W29825   4.197  32.970  14.053
57566W        W29826  17.814  31.867   2.268
57567W        W29827  13.362  23.220  13.901
57568W        W29828   1.722  20.395  12.031
57569W        W29829  37.534  24.669  14.381
57570W        W29830  29.945  41.046   1.614
57571W        W29831  40.605  20.686  11.109
57572W        W29832   2.470  21.335  11.526
57573W        W29833  16.641  19.111  10.897
57574W        W29834  10.014  22.910   3.273
57575W        W29835  12.165  28.476  12.871
57576W        W29836  15.171  36.363   0.422
57577W        W29837  16.169  15.844  13.950
57578W        W29838   9.827   1.503  13.403
57579W        W29839  33.689  35.424   3.464
57580W        W29840  39.646  43.127   0.852
57581W        W29841   8.175  16.600   0.296
57582W        W29842  22.506  41.514  12.864
57583W        W29843   4.029  42.440  13.577
57584W        W29844  12.674  28.042   4.298
57585W        W29845   0.449  23.272  14.929
57586W        W29846   0.941  23.135   0.899
57587W        W29847  38.027  21.338  10.273
57588W        W29848   4.484  39.333   1.158
57589W        W29849  20.882  34.943   1.342
57590W        W29850  23.105  24.007  14.509
57591W        W29851  41.240  39.594   0.451
57592W        W29852  32.341  41.548  12.093
57593W        W29853   9.250   0.803  14.492
57594W        W29854   7.724  22.973   4.849
57595W        W29855  28.043   0.247  13.368
57596W        W29856  11.681  37.498  14.990
57597W        W29857   3.719  34.082   4.598
57598W        W29858  21.285  22.803  12.469
57599W        W29859  15.938  27.226   2.745
57600W        W29860  31.120   5.477  11.670
57601W        W29861  20.344  16.013  11.843
57602W        W29862   1.259   7.851   2.223
57603W        W29863  36.644  15.591  11.620
57604W        W29864  28.459  18.702   3.273
57605W        W29865  20.090   7.214   3.683
57606W        W29866   7.476  33.229  13.742
57607W        W29867  30.396  15.773  10.700
57608W        W29868  35.941  25.923   4.187
57609W        W29869  25.673  18.173  10.712
57610W        W29870   3.034  26.013  14.569
57611W        W29871  38.957   5.445  13.751
57612W        W29872   9.696  25.859   4.181
57613W        W29873   1.786  19.077   4.567
57614W        W29874   7.421  29.999  11.332
57615W        W29875  26.646  14.059  10.689
57616W        W29876   2.571  36.344  11.525
57617W        W29877  28.557  42.971   1.692
57618W        W29878  44.358   5.333  14.362
57619W        W29879  37.120  39.313  11.090
57620W        W29880  24.464  18.549   0.772
57621W        W29881  10.753  24.645   0.482
57622W        W29882  11.598  33.566   1.788
57623W        W29883  38.814   4.099   4.265
57624W        W29884  20.031   6.143  11.969
57625W        W29885  24.958  39.179  12.275
57626W        W29886  11.626  24.254  12.970
57627W        W29887  20.211  40.696  12.646
57628W        W29888  38.498   6.684  14.669
57629W        W29889  43.197  12.634   4.537
57630W        W29890   3.841  44.365   4.582
57631W        W29891   5.790  21.741  12.448
57632W        W29892  14.193  17.590  12.414
57633W        W29893  43.693  41.014   3.287
57634W        W29894  35.968  34.570   1.043
57635W        W29895   4.721  37.069   2.237
57636W        W29896  15.540  32.658   3.862
57637W        W29897   8.170  38.817   0.491
57638W        W29898  24.014   6.636   3.728
57639W        W29899  21.471  15.705   2.671
57640W        W29900  31.503  26.157   4.418
57641W        W29901   3.890  24.113  14.754
57642W        W29902   7.953  15.522   4.346
57643W        W29903  22.469   1.030  12.896
57644W        W29904  19.040  11.903  10.375
57645W        W29905  38.585  43.880  12.434
57646W        W29906  17.795  19.476   4.172
57647W        W29907  39.058  29.363   1.911
57648W        W29908  29.448   7.692   3.412
57649W        W29909   1.431  32.945  12.021
57650W        W29910  19.059  14.486  14.801
57651W        W29911  31.384   2.823  12.214
57652W        W29912  36.468  24.041   4.461
57653W        W29913  38.475  30.488  12.416
57654W        W29914  33.994   0.396   3.876
57655W        W29915  33.040  26.200   2.845
57656W        W29916  35.612  41.730  10.667
57657W        W29917   8.223  11.388  14.473
57658W        W29918  44.450  33.012   4.175
57659W        W29919  17.127  21.948  11.143
57660W        W29920  25.036  22.659   4.686
57661W        W29921  40.861  40.351  11.036
57662W        W29922  31.967  27.117   0.513
57663W        W29923  22.190   3.137  10.677
57664W        W29924   6.238  11.877  13.013
57665W        W29925  11.069  26.513   4.670
57666W        W29926  29.259  24.416   3.183
57667W        W29927  30.124  10.676   1.708
57668W        W29928  28.701   2.646   0.902
57669W        W29929  23.943  36.565  11.073
57670W        W29930  36.590   0.626   0.661
57671W        W29931  25.907  35.211  13.491
57672W        W29932   9.356  29.464  11.562
57673W        W29933  26.741  27.952   3.297
57674W        W29934   4.855   0.958   3.256
57675W        W29935  39.482  11.160   0.812
57676W        W29936  26.109   4.498  14.824
57677W        W29937   7.181  31.652   2.165
57678W        W29938  13.056   7.392   0.268
57679W        W29939   2.787  27.976  14.925
57680W        W29940  31.367   9.935  12.491
57681W        W29941   3.418  41.880  14.277
57682W        W29942  30.624  44.412   0.947
57683W        W29943  26.197  41.804   3.592
57684W        W29944   6.842   5.215   0.451
57685W        W29945  38.942  37.704   4.129
57686W        W29946  13.185  11.314   4.342
57687W        W29947  23.599   1.327   4.122
57688W        W29948  13.235  40.633  12.952
57689W        W29949  14.725  31.501   0.332
57690W        W29950  34.473  18.887   2.899
57691W        W29951  44.254  21.278  13.435
57692W        W29952  27.117  19.241   2.225
57693W        W29953  24.925   0.476   2.011
57694W        W29954  28.483  36.564  11.962
57695W        W29955   1.702  18.108  14.863
57696W        W29956  29.499  30.496  14.473
57697W        W29957  40.902  41.783  12.054
57698W        W29958  20.078  37.154  13.662
57699W        W29959   8.864  18.540  14.871
57700W        W29960  35.023   6.681   2.157
57701W        W29961  33.964  16.432  12.968
57702W        W29962  19.621   5.100   2.077
57703W        W29963  13.781  22.348  13.755
57704W        W29964  17.683  28.585   4.824
57705W        W29965  29.845  27.198   4.767
57706W        W29966  30.777  41.501   1.217
57707W        W29967  22.207  11.321   1.378
57708W        W29968  19.746   4.222  12.610
57709W        W29969   2.597  24.633  13.510
57710W        W29970  31.989   7.024  14.839
57711W        W29971  25.528  22.459   2.176
57712W        W29972  18.076  27.048  14.383
57713W        W29973  31.422  22.474   3.326
57714W        W29974   3.491  15.068   3.580
57715W        W29975   5.993   1.840  10.432
57716W        W29976  15.155   1.961  12.858
57717W        W29977  23.064  33.400   5.197
57718W        W29978  24.526  10.594  13.227
57719W        W29979  43.402  43.206   1.627
57720W        W29980  42.293  19.098   3.583
57721W        W29981  35.921  22.548  13.533
57722W        W29982  43.752  27.474  11.918
57723W        W29983  39.636   5.340   2.100
57724W        W29984   9.678  16.777  12.647
57725W        W29985  27.890   8.559   4.600
57726W        W29986  16.491   0.896   3.290
57727W        W29987  20.528   3.790  14.416
57728W        W29988  43.747  14.369   2.904
57729W        W29989  29.385  31.151   1.943
57730W        W29990  16.618   9.770  14.193
57731W        W29991  24.506   9.623   1.410
57732W        W29992  37.485   0.071   4.251
57733W        W29993   0.127  19.612   1.352
57734W        W29994  39.808  29.687  11.628
57735W        W29995  40.443  23.146   0.710
57736W        W29996  37.639  28.434  10.766
57737W        W29997  19.256  35.574   0.329
57738W        W29998   5.813  39.583  12.881
57739W        W29999  10.379  33.333  12.928
57740W        W30000  44.235   3.233   2.358
57741W        W30001  20.793   7.441   3.796
57742W        W30002  28.723  12.700   4.365
57743W        W30003  41.810  32.460   3.215
57744W        W30004  34.482  38.288  12.192
57745W        W30005  36.516  18.619  11.015
57746W        W30006  30.521  10.218  13.263
57747W        W30007  40.614  23.066  14.402
57748W        W30008  35.153   8.406   0.837
57749W        W30009   8.029  15.165  11.777
57750W        W30010   3.824   4.366  14.579
57751W        W30011   2.730  16.799   1.490
57752W        W30012   6.648  14.886   1.763
57753W        W30013  22.216  22.845   3.672
57754W        W30014  34.888  10.757  11.996
57755W        W30015  14.303  22.658   4.540
57756W        W30016   1.395  31.434   0.189
57757W        W30017  31.172  39.820  13.980
57758W        W30018  26.590  37.520   1.982
57759W        W30019   3.179  22.720   4.106
57760W        W30020  25.637  24.819   2.767
57761W        W30021   4.319  23.701   3.666
57762W        W30022  18.080  19.416   2.691
57763W        W30023  33.645  18.229  11.028
57764W        W30024  25.663  12.794  11.574
57765W        W30025  44.341   5.664   0.437
57766W        W30026   5.738  41.514  11.482
57767W        W30027  10.324   1.979   3.976
57768W        W30028  39.755   7.627   1.703
57769W        W30029   7.935   6.688  11.541
57770W        W30030  24.647   9.272  14.844
57771W        W30031   7.979  15.826  12.913
57772W        W30032  18.537  24.521   4.226
57773W        W30033  19.217  18.011  12.463
57774W        W30034  37.442   4.884   3.742
57775W        W30035  43.399   0.040  12.964
57776W        W30036   4.276  42.469   0.439
57777W        W30037  33.974  11.851  11.109
57778W        W30038  43.324  42.402   4.575
57779W        W30039  39.253  24.260  11.207
57780W        W30040  41.902   8.271   0.679
57781W        W30041  38.453  43.776   4.907
57782W        W30042  28.624  38.131  12.414
57783W        W30043   1.736  34.589  10.676
57784W        W30044   5.907  26.030   0.484
57785W        W30045  10.686  19.181  10.579
57786W        W30046  30.911  30.439  11.451
57787W        W30047  31.427  20.210  13.292
57788W        W30048  28.432   3.351  13.986
57789W        W30049   4.421   9.456  14.476
57790W        W30050  44.088   0.958  13.360
57791W        W30051  30.225  13.168   3.667
57792W        W30052  27.031  23.962  12.850
57793W        W30053  40.875  25.587   1.430
57794W        W30054  16.292  17.146   4.674
57795W        W30055  17.356  27.216   1.425
57796W        W30056  31.990  36.506   4.500
57797W        W30057   0.347  14.130  13.313
57798W        W30058   3.381  36.796  12.327
57799W        W30059  22.071   5.261  11.492
57800W        W30060  14.168   1.573  12.497
57801W        W30061  15.029  15.647   3.151
57802W        W30062   0.880  24.794  11.078
57803W        W30063  38.755   9.006  13.896
57804W        W30064  22.781  36.032   1.744
57805W        W30065   2.288  19.311   3.730
57806W        W30066  17.104  13.639  11.421
57807W        W30067  37.048  10.709   1.293
57808W        W30068  44.547  33.621  14.979
57809W        W30069  29.531  34.852  14.471
57810W        W30070  22.570  21.101   2.705
57811W        W30071   8.107  23.204   4.597
57812W        W30072   3.841  11.253   4.744
57813W        W30073  36.646  14.326   1.914
57814W        W30074   7.278  37.722  11.885
57815W        W30075  22.749  21.745  14.017
57816W        W30076  14.748  44.453  10.069
57817W        W30077  17.711  39.556  14.501
57818W        W30078  18.277   1.043  11.967
57819W        W30079  43.416   1.088   4.102
57820W        W30080  28.973   1.121   1.167
57821W        W30081   9.223   5.274   2.736
57822W        W30082   2.974  32.947   2.310
57823W        W30083  40.969   3.823  13.405
57824W        W30084  12.841  17.035   2.681
57825W        W30085  16.023  26.409   2.444
57826W        W30086  29.578  27.661  12.615
57827W        W30087  32.762  26.419   5.137
57828W        W30088  43.724   5.892   2.970
57829W        W30089  12.028  22.640   3.097
57830W        W30090   2.537  21.227  10.121
57831W        W30091  22.216   8.152  14.378
57832W        W30092  30.956  32.975   4.912
57833W        W30093  28.996  23.483   3.179
57834W        W30094   5.294  15.474  12.361
57835W        W30095  29.069  38.556  10.618
57836W        W30096  36.904  31.515   0.500
57837W        W30097   0.896   9.590   2.386
57838W        W30098  22.120  29.366  12.054
57839W        W30099  13.272  42.442  12.775
57840W        W30100  32.501  12.127   3.612
57841W        W30101  22.231   4.746   0.079
57842W        W30102   5.496  36.326   1.378
57843W        W30103  21.001  32.991   2.195
57844W        W30104   3.396  30.255  11.717
57845W        W30105   4.545  29.239  10.973
57846W        W30106  18.620  26.242  10.885
57847W        W30107  44.973   0.907   3.323
57848W        W30108  14.240  12.511   1.251
57849W        W30109  25.525   6.410  12.288
57850W        W30110  11.192  42.405   2.358
57851W        W30111  39.491  23.602  14.862
57852W        W30112  38.602  37.132  12.398
57853W        W30113  44.545  31.933   0.017
57854W        W30114  44.291  12.641   9.945
57855W        W30115  14.760   6.210  12.298
57856W        W30116  34.951  43.809   0.532
57857W        W30117   6.056  26.050  11.542
57858W        W30118  37.111   7.833  14.836
57859W        W30119  14.025  17.326   3.931
57860W        W30120  15.052  20.441   3.372
57861W        W30121  12.280  38.615   4.198
57862W        W30122   4.765  18.764  13.501
57863W        W30123  27.470  42.994  10.643
57864W        W30124  21.178  26.983  14.850
57865W        W30125  15.050  16.213  10.709
57866W        W30126  34.813  41.330   4.000
57867W        W30127   5.833  32.141   2.557
57868W        W30128   3.733  10.229  14.668
57869W        W30129   9.254  37.384  12.973
57870W        W30130  16.597  21.298   0.318
57871W        W30131  41.244  37.811   1.765
57872W        W30132   8.831  37.500  11.625
57873W        W30133   5.853   6.789  12.555
57874W        W30134  18.135  16.120  10.929
57875W        W30135  24.599  42.962   2.338
57876W        W30136  35.409  20.466   3.337
57877W        W30137  35.596  44.869   3.466
57878W        W30138  14.597  27.467   3.786
57879W        W30139  30.049   5.411  14.025
57880W        W30140  15.686  22.037  11.928
57881W        W30141  26.560  30.704   1.808
57882W        W30142   3.362  10.868   4.049
57883W        W30143  37.680  44.215   2.293
57884W        W30144  19.662  23.585   0.332
57885W        W30145   8.278   2.037  12.950
57886W        W30146  44.971  29.038   3.878
57887W        W30147  12.070  36.376  10.727
57888W        W30148  20.323   3.472   0.762
57889W        W30149  20.996  14.918  12.934
57890W        W30150  43.564  36.529   1.452
57891W        W30151  14.656  15.782   2.753
57892W        W30152   6.842  44.835  13.389
57893W        W30153  21.504  13.860   1.976
57894W        W30154  26.139   8.631  14.796
57895W        W30155  27.048   8.809  12.400
57896W        W30156  21.652  34.616  10.691
57897W        W30157  27.179  25.023  13.619
57898W        W30158  35.598  35.323  14.845
57899W        W30159  27.684  38.313  12.606
57900W        W30160  36.825  42.962   1.270
57901W        W30161  36.258  24.221   4.913
57902W        W30162  26.033  12.806   1.490
57903W        W30163  26.975  42.848   2.227
57904W        W30164  18.679   1.299   2.746
57905W        W30165  37.942  11.199  13.394
57906W        W30166   6.214  26.163   4.229
57907W        W30167   0.889  15.674   4.538
57908W        W30168  16.119   9.854   2.624
57909W        W30169   2.747  25.583  14.790
57910W        W30170  13.734  41.784   2.418
57911W        W30171  23.537  33.132   4.051
57912W        W30172  36.396   1.728  11.899
57913W        W30173   3.660  12.746  10.742
57914W        W30174  36.637  28.198  13.507
57915W        W30175   3.946  17.002   1.691
57916W        W30176  12.433  14.103  14.412
57917W        W30177  42.831  37.374  10.051
57918W        W30178  43.063  26.397   2.897
57919W        W30179  11.676  21.555  14.821
57920W        W30180  20.496  41.617  11.649
57921W        W30181  31.020  29.517  12.367
57922W        W30182   0.904  32.185   0.546
57923W        W30183  32.969  23.176  13.037
57924W        W30184  26.023  32.487  10.692
57925W        W30185  42.453  10.739  11.854
57926W        W30186  16.860  12.740   4.190
57927W        W30187  31.508  24.965   3.373
57928W        W30188  32.109  40.397   0.196
57929W        W30189   6.371  38.827  14.025
57930W        W30190  27.541  38.570   0.651
57931W        W30191  40.374  10.751   1.173
57932W        W30192  12.888  21.466  12.510
57933W        W30193  38.202  16.661  11.477
57934W        W30194  23.295  43.047   2.683
57935W        W30195  22.500  42.914   4.109
57936W        W30196  18.154  30.966   4.546
57937W        W30197  23.747  24.496  11.110
57938W        W30198  13.172  19.702   0.388
57939W        W30199  43.861  13.280   1.403
57940W        W30200   7.431  19.051  12.039
57941W        W30201  38.197  19.361   0.356
57942W        W30202  18.829   1.849  13.928
57943W        W30203  44.838  16.065   3.348
57944W        W30204  37.028  40.297   2.319
57945W        W30205  40.696  35.901  10.079
57946W        W30206  31.121  23.761  14.949
57947W        W30207  32.503   6.435  13.178
57948W        W30208   9.256  44.066  13.488
57949W        W30209  19.075  30.431   2.720
57950W        W30210   8.186  41.300  12.673
57951W        W30211  16.304  17.271  13.324
57952W        W30212  17.765  20.541   0.855
57953W        W30213   1.378  37.443   1.248
57954W        W30214   6.396  12.276   2.297
57955W        W30215  44.086  38.114  13.792
57956W        W30216  12.873  29.954   2.874
57957W        W30217  27.652  15.041   3.429
57958W        W30218  32.158  12.898  13.477
57959W        W30219  44.884  16.140   1.054
57960W        W30220   2.757  17.748   3.615
57961W        W30221   3.961  23.756   2.811
57962W        W30222  15.242   2.871  13.845
57963W        W30223  10.033   0.424  13.842
57964W        W30224  21.997   5.676  14.670
57965W        W30225  31.192  39.212  12.390
57966W        W30226   4.186   8.615  11.537
57967W        W30227  39.951  15.553   2.668
57968W        W30228   9.645  23.344  14.456
57969W        W30229   2.837  30.962  14.426
57970W        W30230  28.130  32.462  12.787
57971W        W30231  11.602   8.352  14.366
57972W        W30232  39.036  22.825   1.871
57973W        W30233  40.928  10.895   0.019
57974W        W30234  40.430  40.133   0.747
57975W        W30235  19.000  17.316  13.955
57976W        W30236  37.487  35.270  11.609
57977W        W30237  15.647  26.164   0.319
57978W        W30238  13.572   4.852  11.016
57979W        W30239  41.610  39.560   0.813
57980W        W30240  18.511  25.773   3.667
57981W        W30241   1.211  22.182   2.366
57982W        W30242  14.662  37.000   0.411
57983W        W30243  33.984  41.526  13.108
57984W        W30244  25.367   6.622   1.333
57985W        W30245  38.636  42.012  10.720
57986W        W30246  12.849  36.418  11.333
57987W        W30247  35.654  15.430   0.801
57988W        W30248  31.385  17.152  13.372
57989W        W30249  43.092  17.740   3.739
57990W        W30250  17.980  39.628  13.230
57991W        W30251  28.057  16.617   4.183
57992W        W30252   5.533  38.992  11.698
57993W        W30253  34.576  20.669  14.215
57994W        W30254   2.361  30.890   4.827
57995W        W30255   4.185  36.908  10.834
57996W        W30256   1.079   5.353  13.762
57997W        W30257  36.898  10.877   2.216
57998W        W30258   6.797  12.828  10.842
57999W        W30259   0.656  25.122  12.454
58000W        W30260   0.929   3.760  14.713
58001W        W30261  42.648  24.084  14.446
58002W        W30262  39.069  34.019  12.028
58003W        W30263  12.133  43.906   1.378
58004W        W30264  11.456   4.248   2.719
58005W        W30265  36.545  19.711   1.980
58006W        W30266   7.291   2.660  14.447
58007W        W30267  17.757   4.577  11.930
58008W        W30268  44.177  19.222  10.752
58009W        W30269  30.941  16.109   2.749
58010W        W30270  11.685  44.037  13.820
58011W        W30271  12.328   3.159   2.734
58012W        W30272  14.586  39.569  10.703
58013W        W30273  12.158  39.002  11.972
58014W        W30274  13.193  42.031  10.671
58015W        W30275   8.287  12.873   2.413
58016W        W30276   3.502  29.800   4.606
58017W        W30277  12.241   7.190   1.922
58018W        W30278   9.798  23.198   3.719
58019W        W30279   8.766   6.770  14.704
58020W        W30280  29.072  43.305   2.326
58021W        W30281  17.537  20.308   0.430
58022W        W30282  19.259  32.092   4.654
58023W        W30283   2.323   6.340  12.951
58024W        W30284   3.229  32.086   2.100
58025W        W30285  25.283   8.943  13.877
58026W        W30286  42.429  30.692   3.607
58027W        W30287  21.096  20.224   4.223
58028W        W30288  10.225   6.760   3.830
58029W        W30289  37.546  22.088   0.712
58030W        W30290  26.428  14.779  14.572
58031W        W30291  27.879  23.512   4.178
58032W        W30292  29.779  19.759   2.170
58033W        W30293  31.425  43.916  14.585
58034W        W30294  20.617  12.502   2.641
58035W        W30295  10.995  42.022   2.778
58036W        W30296  24.266  30.762  11.413
58037W        W30297  26.994   0.838   1.315
58038W        W30298  36.819  38.326   1.886
58039W        W30299   0.357   1.388  12.024
58040W        W30300   5.770  15.373  14.936
58041W        W30301  16.710  22.668   0.725
58042W        W30302  17.337  36.452  11.148
58043W        W30303   7.645  19.650   0.478
58044W        W30304  36.422  41.456   0.479
58045W        W30305  37.131  38.396   2.377
58046W        W30306   8.943  42.827  11.923
58047W        W30307  44.097  32.748  14.485
58048W        W30308   4.683  43.449   3.325
58049W        W30309  15.025  13.275  12.271
58050W        W30310  36.312   8.175  14.847
58051W        W30311  35.515   5.790   1.463
58052W        W30312  12.836  16.249  14.410
58053W        W30313  25.712  36.639  13.400
58054W        W30314  41.523  26.012   3.377
58055W        W30315  18.564  33.261  12.483
58056W        W30316  18.575  36.579  10.604
58057W        W30317   4.757  23.639   1.245
58058W        W30318  36.563  27.354  12.868
58059W        W30319   3.011  36.831  11.972
58060W        W30320  24.118  24.193  10.875
58061W        W30321  12.374  10.217   4.645
58062W        W30322   2.309  12.280   4.137
58063W        W30323   5.203  15.069  10.765
58064W        W30324  40.051  29.045   1.873
58065W        W30325  33.926  30.012  11.137
58066W        W30326   1.864   4.210   0.764
58067W        W30327   8.195  14.894   2.357
58068W        W30328  18.157  12.222  14.439
58069W        W30329  23.206   8.914  12.860
58070W        W30330  13.662   3.251   2.251
58071W        W30331  38.353  17.399  13.916
58072W        W30332  31.399  34.964  12.517
58073W        W30333  16.228  27.914  14.791
58074W        W30334  25.122  22.738   2.018
58075W        W30335  41.762  26.592  10.251
58076W        W30336   9.018  26.968  12.406
58077W        W30337  28.934  34.611   2.768
58078W        W30338  39.345  21.621  13.304
58079W        W30339  24.172   7.560   4.565
58080W        W30340  17.767  26.608  10.863
58081W        W30341  44.816  24.158   4.051
58082W        W30342   9.131  44.373  10.640
58083W        W30343  14.576  16.308   2.738
58084W        W30344  27.401   7.223  13.046
58085W        W30345  36.601  20.895   9.663
58086W        W30346  35.646  30.111   4.542
58087W        W30347  32.222  13.033  11.293
58088W        W30348  34.854   1.274  14.580
58089W        W30349   2.233  13.960  14.507
58090W        W30350   8.079  18.683   0.854
58091W        W30351  34.605  27.826   0.404
58092W        W30352  42.636  21.850   3.827
58093W        W30353  36.007  42.549   0.351
58094W        W30354   7.813  10.582  11.454
58095W        W30355  13.041   4.085  14.943
58096W        W30356  43.444  20.154   4.380
58097W        W30357  29.459  25.949  12.898
58098W        W30358  40.439  10.548  14.005
58099W        W30359   1.957  29.037   1.692
58100W        W30360  40.483  17.266  14.718
58101W        W30361   4.365  44.464  11.133
58102W        W30362  27.006  15.865   2.232
58103W        W30363  11.488   8.087   0.920
58104W        W30364  30.690   1.525  13.457
58105W        W30365  33.177  26.597   1.396
58106W        W30366  23.733  17.098   3.106
58107W        W30367  22.585  29.011  14.978
58108W        W30368  23.147  43.478   2.957
58109W        W30369  10.158  30.208   3.326
58110W        W30370  21.490  17.556   0.719
58111W        W30371   6.928  12.232  12.538
58112W        W30372  39.021   8.568   4.155
58113W        W30373  14.952   1.741   3.267
58114W        W30374   9.145   0.228   1.798
58115W        W30375   6.384   6.012  12.082
58116W        W30376  21.737  30.732  12.088
58117W        W30377  25.248   4.543   9.940
58118W        W30378  24.628  43.910  14.741
58119W        W30379  29.105  12.309  13.872
58120W        W30380   3.649  19.518   3.601
58121W        W30381  38.491   6.180  10.941
58122W        W30382  39.266  40.795   1.778
58123W        W30383  10.761   5.167  13.450
58124W        W30384   0.173  38.852   4.059
58125W        W30385   8.857  18.828  12.119
58126W        W30386   9.536   9.342  13.532
58127W        W30387  38.591  25.983  11.515
58128W        W30388   8.173   8.808   3.184
58129W        W30389  42.035  20.545  14.310
58130W        W30390  24.884  21.011  12.545
58131W        W30391  26.706   8.156  11.944
58132W        W30392  19.951  33.428  14.820
58133W        W30393  16.265  37.411   1.899
58134W        W30394  34.881  20.501   4.574
58135W        W30395  25.284   2.348   2.692
58136W        W30396   4.806   8.274  12.709
58137W        W30397  16.517  28.545   2.254
58138W        W30398  12.753   1.704  12.812
58139W        W30399  24.048   9.621   3.794
58140W        W30400  30.175  26.958  14.730
58141W        W30401  26.681  36.717  12.119
58142W        W30402  11.259  13.267   1.902
58143W        W30403   9.458   9.396   0.058
58144W        W30404  43.066   7.864  11.741
58145W        W30405  29.935   2.174   2.144
58146W        W30406  35.420  38.867   1.228
58147W        W30407  41.336  34.599   4.098
58148W        W30408  44.268   5.334   3.344
58149W        W30409  44.893  42.989   1.470
58150W        W30410   4.933  30.565   0.812
58151W        W30411  25.450  23.630   0.738
58152W        W30412  31.192  30.260  12.778
58153W        W30413  13.767  40.085  14.303
58154W        W30414  16.607   6.871   5.440
58155W        W30415  35.479  36.552   0.638
58156W        W30416  43.992  41.788   0.654
58157W        W30417  42.406   2.185   4.654
58158W        W30418  27.879  26.569  14.335
58159W        W30419  25.145  35.211   3.729
58160W        W30420   9.806  20.535   3.326
58161W        W30421  19.530  29.204  11.955
58162W        W30422  39.686   7.264  12.851
58163W        W30423  34.012  42.813   5.017
58164W        W30424  44.360  39.446  14.455
58165W        W30425   1.894  13.866   3.756
58166W        W30426  38.214  22.611   0.215
58167W        W30427   5.598  33.467  14.816
58168W        W30428   6.432  34.696  14.487
58169W        W30429  22.768  23.604  13.907
58170W        W30430  10.501  18.660  14.271
58171W        W30431  36.795  11.827   4.353
58172W        W30432   8.160   3.311   4.682
58173W        W30433   9.431  29.005   4.195
58174W        W30434  36.975   2.932  11.621
58175W        W30435   1.492  39.574   3.838
58176W        W30436  36.346  21.273   2.770
58177W        W30437  15.276   4.161   2.271
58178W        W30438  25.710  20.262  13.277
58179W        W30439  36.889  26.893   2.689
58180W        W30440  24.600  39.227   4.223
58181W        W30441  32.357  26.095   4.990
58182W        W30442  23.051  29.861   4.191
58183W        W30443   4.865  33.685   0.294
58184W        W30444  41.012  40.748   3.233
58185W        W30445  20.560  17.971   4.651
58186W        W30446  35.928  22.310  11.513
58187W        W30447  38.527  35.254  13.368
58188W        W30448  23.272  18.108   9.983
58189W        W30449   0.282  26.483   1.995
58190W        W30450  14.382  14.417  11.017
58191W        W30451   8.252  43.028   4.650
58192W        W30452  11.720  27.459  12.881
58193W        W30453   7.627   7.943   1.238
58194W        W30454  28.421  14.254  11.836
58195W        W30455  21.665   7.228  12.849
58196W        W30456  17.145   8.835   1.495
58197W        W30457  40.557  18.328  13.853
58198W        W30458  10.162  17.760  12.166
58199W        W30459  10.596  40.574   2.829
58200W        W30460  11.128  29.990   5.177
58201W        W30461  14.709  41.476  12.572
58202W        W30462  13.133  27.177  11.347
58203W        W30463  38.521  29.292   1.774
58204W        W30464  28.287  15.022  13.933
58205W        W30465   0.841  33.663  10.734
58206W        W30466  27.578   8.915  14.980
58207W        W30467  22.858  15.623   3.254
58208W        W30468   3.348  38.918   4.865
58209W        W30469  31.800  10.320   4.245
58210W        W30470  37.466   2.912   4.303
58211W        W30471  17.391  36.455  14.778
58212W        W30472  11.824  38.757  14.669
58213W        W30473  19.111  40.436   3.827
58214W        W30474  37.554   9.924   0.034
58215W        W30475   5.196   8.900  14.034
58216W        W30476   1.975  21.180  11.560
58217W        W30477   2.438  39.339   3.714
58218W        W30478  22.015  32.096   4.305
58219W        W30479  43.211  12.710   3.210
58220W        W30480  30.671  14.859   2.194
58221W        W30481  39.377   1.916   3.193
58222W        W30482  14.397  10.201   4.616
58223W        W30483  13.584  21.181   5.232
58224W        W30484   8.182  16.110   3.185
58225W        W30485   6.956  10.075   5.113
58226W        W30486  38.056   2.761  10.983
58227W        W30487  15.318   3.542   3.116
58228W        W30488  24.595  43.720   1.906
58229W        W30489  28.412  12.076  12.007
58230W        W30490  13.061   4.189  13.930
58231W        W30491  13.856   7.745  14.548
58232W        W30492   7.602  28.680   1.611
58233W        W30493  19.511  18.430   5.076
58234W        W30494  11.690  35.619  13.559
58235W        W30495  28.032  43.795  14.948
58236W        W30496  44.467  38.176   3.927
58237W        W30497   2.926  39.709  11.631
58238W        W30498  11.417   9.985  11.294
58239W        W30499  10.342  15.725   3.882
58240W        W30500  36.056  44.217  13.762
58241W        W30501   8.042  17.583   2.694
58242W        W30502  12.387  44.605   2.804
58243W        W30503  22.348  25.607  13.338
58244W        W30504  30.381  11.731   0.340
58245W        W30505  37.366   1.510  13.226
58246W        W30506  26.677  41.468   4.702
58247W        W30507  41.888  28.105   0.325
58248W        W30508   2.271  40.942   2.798
58249W        W30509   6.456   3.605   1.443
58250W        W30510  23.606  11.275  14.477
58251W        W30511  23.591  28.139   0.206
58252W        W30512   6.659  41.008  13.171
58253W        W30513  21.839  33.484   4.124
58254W        W30514   5.956  31.070  12.161
58255W        W30515  20.576   9.168   0.263
58256W        W30516   6.693  26.656   3.068
58257W        W30517  30.609  43.908  11.593
58258W        W30518  44.193  16.549   2.822
58259W        W30519   1.952  17.050   2.273
58260W        W30520  27.491  27.327   4.957
58261W        W30521   0.393   3.861   0.379
58262W        W30522   5.122  40.942  13.814
58263W        W30523  35.621  43.468   1.518
58264W        W30524  37.449  40.336  13.032
58265W        W30525  30.413  21.482  14.495
58266W        W30526  22.872  21.306  12.540
58267W        W30527   8.105   8.691  14.991
58268W        W30528  25.461  10.442  13.863
58269W        W30529  34.997   5.061   9.868
58270W        W30530  20.674  10.366  12.400
58271W        W30531  32.582  14.563   1.779
58272W        W30532   8.031  42.733  10.314
58273W        W30533  18.502  39.535  12.522
58274W        W30534  44.069   8.691   0.943
58275W        W30535  24.939  31.076   1.770
58276W        W30536  31.610  11.869  14.731
58277W        W30537  29.478  20.990   5.021
58278W        W30538   2.887  44.217   4.774
58279W        W30539  11.063   2.006   1.848
58280W        W30540  10.522  35.321  14.665
58281W        W30541  24.143  43.392   2.668
58282W        W30542   1.779  22.017  13.930
58283W        W30543  17.133   8.503  10.607
58284W        W30544   4.164  39.051  13.479
58285W        W30545   0.939  41.902   1.799
58286W        W30546  36.441  22.247  12.359
58287W        W30547  24.961  25.901  12.311
58288W        W30548  11.366   8.675  12.533
58289W        W30549  41.714  42.413  14.899
58290W        W30550  30.085  37.335   0.011
58291W        W30551   3.325  16.452  14.926
58292W        W30552  30.930  19.079   0.079
58293W        W30553   0.441   1.917   1.428
58294W        W30554  36.982  44.328   1.228
58295W        W30555   2.697  19.596  13.890
58296W        W30556  21.057  23.050   0.584
58297W        W30557  37.467  23.979   2.175
58298W        W30558  27.645  11.708   0.648
58299W        W30559  31.623  24.487  10.839
58300W        W30560   7.363  31.492  10.691
58301W        W30561  15.845   6.468   3.374
58302W        W30562  16.502  19.631  14.385
58303W        W30563  12.134   4.465   1.539
58304W        W30564  36.386  39.991  11.094
58305W        W30565  42.863   0.665   0.946
58306W        W30566  37.372   6.472  10.696
58307W        W30567   3.689   5.991   3.697
58308W        W30568  25.423   8.174  12.593
58309W        W30569  26.527  35.367   2.351
58310W        W30570  35.701  28.499   4.912
58311W        W30571  33.635  29.986   3.692
58312W        W30572  18.159  16.199   0.804
58313W        W30573  29.123  32.702   2.711
58314W        W30574  44.974  34.546   1.322
58315W        W30575  32.645   8.192  12.401
58316W        W30576  20.021  25.581   4.115
58317W        W30577  11.871   5.491  14.422
58318W        W30578  23.564  26.705  14.787
58319W        W30579   3.846   3.938   2.865
58320W        W30580  34.090   4.837  12.463
58321W        W30581   5.000  42.053  13.983
58322W        W30582  13.455   0.374  11.584
58323W        W30583  40.269  13.576  10.781
58324W        W30584  15.624  21.956   0.881
58325W        W30585  19.011  14.234   2.014
58326W        W30586   2.538  40.032   2.441
58327W        W30587  30.861  34.215   2.209
58328W        W30588   2.396  12.661   0.695
58329W        W30589  18.763   1.044   3.815
58330W        W30590  38.078   7.955  12.494
58331W        W30591  27.127   8.223   2.413
58332W        W30592   4.227  17.634  11.992
58333W        W30593   4.152  33.340  10.548
58334W        W30594   8.306  23.527  14.717
58335W        W30595   4.723  40.023  14.259
58336W        W30596  18.753  44.775  10.556
58337W        W30597  26.454   9.158   0.443
58338W        W30598  32.108   0.451  11.622
58339W        W30599   3.014  14.645  12.344
58340W        W30600  44.941  16.326   4.669
58341W        W30601   5.630  20.612   2.587
58342W        W30602  38.070  42.425   2.642
58343W        W30603  26.274  22.101   1.584
58344W        W30604   3.777  23.219  13.987
58345W        W30605   2.140  33.632   0.454
58346W        W30606  19.584   3.482   3.189
58347W        W30607   6.897  42.660  13.982
58348W        W30608  39.031  43.406   5.030
58349W        W30609   0.262  27.174  13.484
58350W        W30610  26.606  37.343   3.416
58351W        W30611   8.260  10.161   4.057
58352W        W30612  23.584  25.061   3.913
58353W        W30613  14.636  40.911   3.766
58354W        W30614  39.768  38.441  11.006
58355W        W30615  18.090  33.692   1.067
58356W        W30616  14.165  19.064   1.792
58357W        W30617  23.651  38.604   0.547
58358W        W30618  43.027  23.688  10.632
58359W        W30619  18.812   7.636   4.674
58360W        W30620  11.562  40.852   1.521
58361W        W30621  13.148   0.153   4.572
58362W        W30622  14.557  44.969  12.337
58363W        W30623   8.860  16.994   0.780
58364W        W30624  35.077   2.278   0.696
58365W        W30625  12.614  10.484  14.802
58366W        W30626   1.355  30.893   3.701
58367W        W30627  20.931  36.690   5.100
58368W        W30628  14.090  17.758  13.030
58369W        W30629  38.485  12.854  12.951
58370W        W30630  13.833  18.637  13.447
58371W        W30631   9.030  16.026  11.107
58372W        W30632  28.711   1.414   3.880
58373W        W30633  13.110  44.224  11.199
58374W        W30634   9.912   2.216   1.157
58375W        W30635  25.219  24.557  11.285
58376W        W30636   5.889  30.951  11.162
58377W        W30637  37.983  24.782   0.752
58378W        W30638   6.360  15.174   0.220
58379W        W30639  23.960  25.913  14.922
58380W        W30640  24.455  30.466  10.760
58381W        W30641  17.656  27.480   4.649
58382W        W30642  37.152  25.357  11.688
58383W        W30643  44.168  22.088   2.840
58384W        W30644  24.697  30.130  13.521
58385W        W30645  34.358  36.836  12.063
58386W        W30646  18.908  37.508   0.248
58387W        W30647  38.967  23.100  13.559
58388W        W30648   1.910   3.711  14.907
58389W        W30649  33.030   1.244   1.769
58390W        W30650  38.631  43.194  12.001
58391W        W30651  24.887  31.776  12.397
58392W        W30652  16.301   1.688   0.413
58393W        W30653   6.924   4.573   1.032
58394W        W30654  37.753  11.838   3.729
58395W        W30655   0.783  44.817  10.855
58396W        W30656  40.034  31.411   2.664
58397W        W30657  30.342  27.054   1.471
58398W        W30658  12.101  30.850   2.596
58399W        W30659  36.076  24.456   1.674
58400W        W30660  12.517  25.197  13.692
58401W        W30661  30.183  28.816  10.644
58402W        W30662  40.553  11.296   0.306
58403W        W30663   4.171   4.823   3.205
58404W        W30664   9.395  40.480  10.725
58405W        W30665  18.808  30.566  11.194
58406W        W30666  33.967  43.384   1.874
58407W        W30667  31.736  21.509  11.021
58408W        W30668  26.581  12.564   2.246
58409W        W30669  34.527  37.712  14.151
58410W        W30670  38.729   7.322  11.991
58411W        W30671  15.502  42.603  12.349
58412W        W30672   8.121  41.471  14.460
58413W        W30673  15.929   8.630   1.939
58414W        W30674  37.577   7.209   3.654
58415W        W30675  33.891  33.061   3.724
58416W        W30676  18.689  44.052   4.200
58417W        W30677  27.218  20.584   3.800
58418W        W30678  34.414   2.454  11.352
58419W        W30679  43.273  33.772  13.079
58420W        W30680  20.122  17.284   0.060
58421W        W30681   4.341  20.005  14.351
58422W        W30682  10.499  33.340   4.505
58423W        W30683   6.987  31.314   2.520
58424W        W30684  12.205  28.085   0.091
58425W        W30685  16.975  28.699  10.092
58426W        W30686  42.353   5.373   2.377
58427W        W30687   2.811   2.514  13.906
58428W        W30688  15.253   3.969   0.390
58429W        W30689  32.357  16.231   4.212
58430W        W30690  31.416  33.017  11.487
58431W        W30691   2.355  22.611   2.471
58432W        W30692  34.654  25.250   4.101
58433W        W30693  38.679  40.521  12.430
58434W        W30694  35.363   1.873   0.510
58435W        W30695  31.498  42.260   3.543
58436W        W30696   9.351  40.968   3.530
58437W        W30697  23.542   3.345   2.649
58438W        W30698  38.839   1.457   0.612
58439W        W30699  31.446  33.847  14.596
58440W        W30700  33.307  12.439   4.144
58441W        W30701  30.951  44.954   2.402
58442W        W30702  38.114  36.940  14.959
58443W        W30703  43.728  16.030  11.479
58444W        W30704  36.716  15.802   1.710
58445W        W30705  35.881  18.170  11.872
58446W        W30706  24.768  23.535  12.702
58447W        W30707   1.781   7.155   3.708
58448W        W30708  18.053  23.585   1.662
58449W        W30709   1.485  21.710  12.038
58450W        W30710   5.980   8.348   0.907
58451W        W30711   7.905  13.693  12.495
58452W        W30712   8.493  27.078  12.516
58453W        W30713  39.472  32.537  13.420
58454W        W30714  22.288   6.565   4.128
58455W        W30715  11.185  31.924   4.077
58456W        W30716  22.015  11.744  13.833
58457W        W30717   4.144  38.142   3.730
58458W        W30718   2.774  28.077  12.947
58459W        W30719  16.212  30.606  12.832
58460W        W30720  19.615   7.606   3.067
58461W        W30721   3.889  11.226   2.079
58462W        W30722   6.690  25.035  14.908
58463W        W30723  13.396  34.966  10.738
58464W        W30724  25.431  30.899   4.335
58465W        W30725   0.669  10.317  10.096
58466W        W30726   9.562  10.940  11.943
58467W        W30727  16.216  27.095  13.024
58468W        W30728   1.382  17.209   4.876
58469W        W30729  12.536  30.061  11.214
58470W        W30730  19.477   2.188   2.372
58471W        W30731  31.423  40.558   0.403
58472W        W30732  11.080   6.823   3.268
58473W        W30733  26.001  13.724  13.689
58474W        W30734  19.775  32.103   1.198
58475W        W30735  14.597  15.325   0.269
58476W        W30736  30.950  27.072   0.309
58477W        W30737  39.038  24.132  12.545
58478W        W30738  38.890   7.390  10.034
58479W        W30739   4.811  12.787  13.751
58480W        W30740   9.615   9.134  12.090
58481W        W30741   3.905   9.420   2.640
58482W        W30742  35.234  10.875   2.272
58483W        W30743  38.726  33.694  11.283
58484W        W30744  31.954  34.085  13.964
58485W        W30745  43.826   4.786   2.772
58486W        W30746  35.601  32.883  12.969
58487W        W30747  16.915  16.662   9.843
58488W        W30748  44.324  24.072  13.658
58489W        W30749  16.730  37.725  12.359
58490W        W30750  20.088  34.366   1.276
58491W        W30751  30.135  29.620   1.947
58492W        W30752   6.333  19.343  10.681
58493W        W30753  19.463  38.456  12.183
58494W        W30754  26.853  24.935  11.178
58495W        W30755   8.607  20.400  12.107
58496W        W30756  37.826  36.495   3.900
58497W        W30757  39.933   2.738  11.614
58498W        W30758  24.197  32.432   3.303
58499W        W30759  41.878  11.451  11.910
58500W        W30760   0.231   1.964  14.486
58501W        W30761  17.595  29.968   0.267
58502W        W30762  33.545  11.444  14.588
58503W        W30763   8.397  22.696  14.877
58504W        W30764  12.945  41.472  11.209
58505W        W30765  41.322   9.240   0.956
58506W        W30766  31.468  15.430   1.467
58507W        W30767  23.603   6.616   0.095
58508W        W30768   8.464   2.399   1.027
58509W        W30769  10.046   1.318  12.360
58510W        W30770   7.343  21.214  11.037
58511W        W30771  30.568  33.968   5.070
58512W        W30772  16.645  37.187   3.647
58513W        W30773  27.426   6.263   4.831
58514W        W30774  14.733  29.215   3.707
58515W        W30775  39.092   1.919   2.679
58516W        W30776  44.316   5.142  11.569
58517W        W30777  15.336  29.980  13.965
58518W        W30778  25.544  34.069  11.971
58519W        W30779  23.934  12.584   1.770
58520W        W30780  24.643  24.039  13.478
58521W        W30781  38.640  39.288   2.037
58522W        W30782  39.063  19.834   0.002
58523W        W30783  15.774  38.548  11.826
58524W        W30784   4.211  36.921   4.581
58525W        W30785  28.517  22.367  13.459
58526W        W30786  24.035   9.877   1.079
58527W        W30787  24.921   3.489  11.644
58528W        W30788  30.597  15.595   4.678
58529W        W30789  29.968  27.806  12.968
58530W        W30790  25.580  37.332   0.135
58531W        W30791  42.595   6.790   0.519
58532W        W30792  41.444  42.167  12.077
58533W        W30793  37.645   8.835  14.413
58534W        W30794   9.658   4.556   0.763
58535W        W30795   7.270   2.957   1.288
58536W        W30796  18.243   0.420   4.173
58537W        W30797   2.321  31.017  14.533
58538W        W30798   3.828  27.158   0.725
58539W        W30799  11.143  43.872  14.463
58540W        W30800  16.126  13.056  14.370
58541W        W30801  13.655   3.395   5.011
58542W        W30802   7.187   0.037   1.021
58543W        W30803  34.959  13.436  11.155
58544W        W30804  22.592  13.391  11.197
58545W        W30805  23.658   5.461   0.259
58546W        W30806  44.753  15.713   2.041
58547W        W30807  18.818   8.622   2.173
58548W        W30808  37.298  20.428  12.462
58549W        W30809  17.219  34.445  11.804
58550W        W30810  37.984  42.206   3.533
58551W        W30811  37.937  27.459  14.399
58552W        W30812  12.338  29.875  14.870
58553W        W30813  22.643   3.730  12.046
58554W        W30814  19.126  30.701   3.154
58555W        W30815   6.858  12.705   1.504
58556W        W30816  32.753   5.163   1.817
58557W        W30817  34.482  15.699  13.397
58558W        W30818   5.260  29.481   1.256
58559W        W30819   1.562  31.278  11.798
58560W        W30820  33.862   7.398  12.905
58561W        W30821  35.831  43.814  12.060
58562W        W30822   3.195  18.575  11.245
58563W        W30823  26.014  39.657   3.217
58564W        W30824  22.897  13.615  10.843
58565W        W30825  10.412  30.220  14.430
58566W        W30826  32.120  19.488   2.685
58567W        W30827   8.199   6.197  12.739
58568W        W30828  28.708   3.721   2.306
58569W        W30829  19.221  44.952   4.842
58570W        W30830   3.049  34.082  12.887
58571W        W30831  35.408  14.536   2.419
58572W        W30832  16.220  14.644   3.598
58573W        W30833  21.670   3.109   3.618
58574W        W30834  33.694  22.151  13.382
58575W        W30835  11.235  36.099   0.210
58576W        W30836  23.171   9.162  13.303
58577W        W30837  32.671   3.868  12.509
58578W        W30838  33.493  27.473  12.951
58579W        W30839  31.690  43.188  12.121
58580W        W30840   3.914   7.617  11.830
58581W        W30841   7.688  20.042  11.417
58582W        W30842  31.513  26.415   3.252
58583W        W30843  13.158  14.172   0.359
58584W        W30844  16.373  38.707  12.383
58585W        W30845  22.093  40.098  11.081
58586W        W30846  37.448  40.316   3.109
58587W        W30847   8.109  24.025   2.619
58588W        W30848  11.666  43.056  14.252
58589W        W30849  22.492   7.627  12.659
58590W        W30850  28.550   8.794   1.865
58591W        W30851   9.272  31.178  14.701
58592W        W30852   2.451  37.582   0.437
58593W        W30853  24.212   3.568   3.196
58594W        W30854  26.955  24.562  10.704
58595W        W30855   6.677  12.108   3.765
58596W        W30856   5.402  31.875   3.855
58597W        W30857  40.428  31.900  14.351
58598W        W30858  16.741  24.126   0.557
58599W        W30859  32.651   4.362   2.779
58600W        W30860  34.696  43.323  14.883
58601W        W30861  28.484   3.443  12.912
58602W        W30862   3.818  32.000   4.190
58603W        W30863   2.322  14.049   2.194
58604W        W30864  26.133  14.230  13.430
58605W        W30865  33.890  42.312   3.770
58606W        W30866  11.124  27.378   1.837
58607W        W30867  22.149  23.216  12.815
58608W        W30868   2.351  28.765  13.274
58609W        W30869  44.435  30.072  10.525
58610W        W30870   8.437   8.835   1.271
58611W        W30871  33.349  39.564   4.909
58612W        W30872  42.822  30.915   4.355
58613W        W30873  19.730  11.230  13.998
58614W        W30874  14.273  19.775   2.188
58615W        W30875  25.750  18.740  14.837
58616W        W30876  14.475   9.716  13.301
58617W        W30877   5.868  34.038   3.005
58618W        W30878  38.002  44.887  11.425
58619W        W30879  15.059   3.829  11.843
58620W        W30880   7.942   3.222  13.533
58621W        W30881  18.362  37.950  11.596
58622W        W30882  37.104  27.887   1.724
58623W        W30883  40.437  13.892  11.143
58624W        W30884  10.346  23.131  11.129
58625W        W30885  37.023  13.162   0.874
58626W        W30886  26.425  39.259   9.654
58627W        W30887  24.138  24.168  12.345
58628W        W30888   3.949  13.520   1.234
58629W        W30889  20.022  32.927   2.454
58630W        W30890  28.716   3.013   2.913
58631W        W30891  44.351   0.732  12.118
58632W        W30892  44.958   2.765  11.030
58633W        W30893  23.028  29.810   5.090
58634W        W30894  38.514  22.156   0.177
58635W        W30895   9.201  23.197  11.469
58636W        W30896   3.384  22.241   4.124
58637W        W30897  31.161   8.514   0.893
58638W        W30898   7.254  20.076   1.289
58639W        W30899  20.752  34.592  10.474
58640W        W30900  32.869  36.735   1.187
58641W        W30901  11.240  44.376  12.053
58642W        W30902   0.245  16.657  13.908
58643W        W30903  37.356  19.252   0.398
58644W        W30904  15.760   2.701   1.732
58645W        W30905  27.981  11.410   2.733
58646W        W30906  29.700  13.137  12.465
58647W        W30907   1.755  41.763  13.171
58648W        W30908  34.866   7.221  12.518
58649W        W30909  37.292  25.097  10.629
58650W        W30910  44.497  40.427  14.337
58651W        W30911  26.932   2.596   2.796
58652W        W30912   2.640  30.387   3.611
58653W        W30913  10.566  19.978  14.784
58654W        W30914  29.647  30.588  12.032
58655W        W30915  22.698   5.429  11.090
58656W        W30916  21.275  14.627   1.296
58657W        W30917  16.288   1.197  12.487
58658W        W30918  38.126  22.684   3.889
58659W        W30919  43.721  16.830  12.107
58660W        W30920   1.905   7.202   0.925
58661W        W30921  19.521  41.976   5.094
58662W        W30922  17.568  41.214   3.309
58663W        W30923  35.925  30.886  11.143
58664W        W30924  22.827  28.609   0.881
58665W        W30925  40.235  39.523  13.899
58666W        W30926  16.690  21.308  11.583
58667W        W30927  16.660   4.823  10.673
58668W        W30928   7.413  23.041   1.294
58669W        W30929  11.218  39.901   1.385
58670W        W30930  37.014  16.844  14.915
58671W        W30931  20.849   1.205   0.812
58672W        W30932  38.269   0.975   0.053
58673W        W30933  22.185  20.220  14.975
58674W        W30934  20.417  17.239   1.417
58675W        W30935   5.687   3.841  14.935
58676W        W30936  22.452   0.495   1.968
58677W        W30937   6.679  42.256  13.080
58678W        W30938   1.895  18.539   3.595
58679W        W30939  35.320   7.791  11.598
58680W        W30940  16.293  23.127  11.537
58681W        W30941   9.754  16.064  14.485
58682W        W30942  37.116  38.597   0.936
58683W        W30943  36.072  42.988   1.725
58684W        W30944  12.166  39.244  12.436
58685W        W30945   4.179  19.306  13.890
58686W        W30946  11.452   9.189   2.630
58687W        W30947  16.129  34.048   2.945
58688W        W30948  33.217  42.378   1.541
58689W        W30949   5.781  15.466  13.519
58690W        W30950  25.596  32.093  11.111
58691W        W30951   7.929  35.500  11.445
58692W        W30952  32.496   0.102   0.407
58693W        W30953  12.135  24.371   3.688
58694W        W30954  18.304  36.788   0.039
58695W        W30955  12.222  33.645   3.742
58696W        W30956  22.206  36.048   4.725
58697W        W30957  23.211  41.766   2.577
58698W        W30958  10.497  40.246   2.401
58699W        W30959  27.074  34.305  13.793
58700W        W30960   5.308  30.554  12.648
58701W        W30961  44.950  15.162  11.933
58702W        W30962   1.766  25.548  10.194
58703W        W30963  10.797   7.174  12.644
58704W        W30964   2.195   9.881  12.972
58705W        W30965  11.457  25.368  14.189
58706W        W30966   3.066  41.000  12.007
58707W        W30967   3.287  43.049  12.711
58708W        W30968  24.615  20.191   2.751
58709W        W30969  22.106  43.725   1.002
58710W        W30970  26.476  12.752   3.133
58711W        W30971  12.924  29.399  13.457
58712W        W30972   1.478  13.573  11.186
58713W        W30973  21.284  32.628   1.679
58714W        W30974  44.457  25.904   1.311
58715W        W30975  42.521  12.921   3.707
58716W        W30976  16.566  24.462   1.733
58717W        W30977  21.100  19.884   2.690
58718W        W30978  29.767   2.062   2.638
58719W        W30979  13.724  38.333  13.370
58720W        W30980  42.267   3.996   4.230
58721W        W30981   7.984  43.093   2.454
58722W        W30982  34.207  30.362  14.448
58723W        W30983   0.036  43.811  12.186
58724W        W30984   0.043  26.158  13.390
58725W        W30985  35.617   3.994   1.707
58726W        W30986  41.956  30.363  13.875
58727W        W30987  23.389  12.582  12.760
58728W        W30988  25.354  28.712   4.231
58729W        W30989  14.057  16.714   5.503
58730W        W30990  37.155   1.075  11.129
58731W        W30991  16.290  23.405  13.975
58732W        W30992  11.321   0.580   3.132
58733W        W30993  14.754  13.803   4.650
58734W        W30994  22.218   3.324   0.392
58735W        W30995   9.750  27.686  11.187
58736W        W30996  37.792  24.506  11.163
58737W        W30997   4.797  44.217   3.031
58738W        W30998   9.965  11.714   2.788
58739W        W30999   9.664  32.525  12.907
58740W        W31000  43.545  32.575   2.689
58741W        W31001  12.246  25.955  11.194
58742W        W31002  15.843  15.809   0.682
58743W        W31003  42.711   3.336   4.432
58744W        W31004  15.049   0.940  11.168
58745W        W31005  36.445  25.791   4.084
58746W        W31006  14.149   2.432  13.610
58747W        W31007  39.405  27.755  13.882
58748W        W31008  27.489  10.719  12.454
58749W        W31009  26.152  23.243  14.346
58750W        W31010   1.205  28.097   0.858
58751W        W31011   1.989   2.701   0.733
58752W        W31012   9.325  19.850  12.509
58753W        W31013  12.122  38.792   1.749
58754W        W31014   6.934  14.127  11.042
58755W        W31015  38.581   9.512   2.848
58756W        W31016   0.901  30.444   1.341
58757W        W31017  14.384  28.464   3.274
58758W        W31018  12.365  34.961   1.273
58759W        W31019  15.304  26.437  14.389
58760W        W31020  15.123  43.506   4.013
58761W        W31021  10.448   7.574   1.692
58762W        W31022  38.097  25.068   1.449
58763W        W31023  26.390   5.625   0.328
58764W        W31024   1.248  14.868  11.647
58765W        W31025  23.227  21.076   3.188
58766W        W31026  29.852  37.781  14.836
58767W        W31027   0.327  21.013  10.555
58768W        W31028  35.801  27.001  13.396
58769W        W31029   7.905  11.835   2.717
58770W        W31030  25.080  44.980  12.834
58771W        W31031   7.910  36.333   1.616
58772W        W31032  33.125  35.848   3.191
58773W        W31033  31.113  31.940   0.920
58774W        W31034  44.016  42.807  14.311
58775W        W31035  25.832  28.776   4.022
58776W        W31036  25.016   1.496  11.180
58777W        W31037  17.735  29.476   2.793
58778W        W31038  18.034  15.073  11.823
58779W        W31039  25.199  44.600  12.000
58780W        W31040  21.594   7.924  11.033
58781W        W31041  22.659   6.895   3.394
58782W        W31042  32.126  19.118  13.457
58783W        W31043  35.075  30.490  11.698
58784W        W31044  38.307   5.807   1.944
58785W        W31045  41.074   0.798  13.388
58786W        W31046  36.577  39.791  10.668
58787W        W31047  29.109  44.774   1.361
58788W        W31048   4.578   7.507   0.245
58789W        W31049  29.048   7.598   3.073
58790W        W31050  10.092  28.744  12.339
58791W        W31051  10.792  10.098   1.799
58792W        W31052   4.896  21.472   1.209
58793W        W31053   1.355   8.926  11.034
58794W        W31054   7.153  40.376   3.212
58795W        W31055  39.000  36.311   0.805
58796W        W31056  44.331  40.782   1.229
58797W        W31057  12.338   0.673   4.224
58798W        W31058  18.291  36.999   2.384
58799W        W31059  35.130  41.890  14.882
58800W        W31060  17.693  40.562  13.427
58801W        W31061  18.145  42.103   4.588
58802W        W31062  30.369   1.295  11.632
58803W        W31063  17.169  15.556  11.517
58804W        W31064  21.142  19.006  12.882
58805W        W31065  35.821  23.901  10.576
58806W        W31066   2.701   0.413  12.917
58807W        W31067  38.597  10.516  10.261
58808W        W31068  37.835  41.581  12.518
58809W        W31069   3.526  21.644   3.955
58810W        W31070  11.421  18.002  10.734
58811W        W31071  39.890  22.468  11.379
58812W        W31072   2.842  28.310   1.160
58813W        W31073  37.505  29.685   4.489
58814W        W31074  20.757  18.639   2.936
58815W        W31075  43.434  10.683   2.763
58816W        W31076  38.016  19.963  12.234
58817W        W31077   6.113  36.518   1.761
58818W        W31078  23.587   8.367   1.848
58819W        W31079  11.836   5.193   0.395
58820W        W31080  10.831  16.998  13.873
58821W        W31081  20.988  21.472  13.476
58822W        W31082  19.177  28.134  14.792
58823W        W31083  37.458  13.854   4.710
58824W        W31084  16.167  19.686   1.713
58825W        W31085  31.202  18.823   0.505
58826W        W31086   6.701  32.562   1.190
58827W        W31087  27.675  32.085  13.954
58828W        W31088   4.287   9.078  11.689
58829W        W31089   4.086  38.140   0.270
58830W        W31090  15.081  39.880   2.637
58831W        W31091  43.473   1.318  14.924
58832W        W31092  26.627  37.929   1.271
58833W        W31093   7.419  18.218  10.553
58834W        W31094  27.457  31.686   3.652
58835W        W31095  36.029   6.749  12.041
58836W        W31096  21.682  27.647   0.338
58837W        W31097  23.231  30.684  12.001
58838W        W31098  44.485  29.622   4.034
58839W        W31099  22.232  37.953   1.271
58840W        W31100  32.420   0.905  11.604
58841W        W31101  10.690  22.187  12.036
58842W        W31102   3.484  35.481   0.262
58843W        W31103  35.562  38.109   4.706
58844W        W31104  25.019   5.758  11.726
58845W        W31105  26.186  41.039   3.141
58846W        W31106  24.996  13.718   1.297
58847W        W31107   5.951  24.107   2.220
58848W        W31108  14.764  40.688   2.341
58849W        W31109  14.297  29.504   3.586
58850W        W31110  22.167  42.734   1.107
58851W        W31111  19.806  40.011  10.593
58852W        W31112  40.330  41.995   3.829
58853W        W31113  36.717   4.863   2.244
58854W        W31114  26.724   4.030   1.314
58855W        W31115  43.190  16.621   3.620
58856W        W31116  37.014   6.697  12.894
58857W        W31117   9.179  24.071  13.379
58858W        W31118  37.028  27.660   4.292
58859W        W31119  32.467  10.531  12.060
58860W        W31120  38.392  40.920  12.578
58861W        W31121  22.629   6.663   4.830
58862W        W31122  38.201   3.228   2.667
58863W        W31123  39.805  34.200  14.535
58864W        W31124   3.937  35.957   4.280
58865W        W31125  32.196  34.035   0.275
58866W        W31126  32.955  15.889   0.838
58867W        W31127  41.749   8.842  12.921
58868W        W31128  44.412  25.452  14.903
58869W        W31129  24.477  38.348  13.316
58870W        W31130   9.761  27.176  13.610
58871W        W31131   1.149   3.638   0.934
58872W        W31132  12.506  30.734   1.224
58873W        W31133  44.300  31.038   1.924
58874W        W31134  34.513  15.304   4.568
58875W        W31135  35.693  13.423  11.489
58876W        W31136  16.518  42.079   0.284
58877W        W31137  12.612  17.222  10.220
58878W        W31138  13.573  24.730  12.463
58879W        W31139  11.355  44.243  11.057
58880W        W31140  27.716  15.919   1.786
58881W        W31141   7.672  20.299   2.109
58882W        W31142   6.347   1.411   3.900
58883W        W31143  36.165  19.974  13.582
58884W        W31144  31.227  38.460   1.871
58885W        W31145  40.700  37.470   3.152
58886W        W31146  12.915  10.774  13.543
58887W        W31147  22.245   4.227  11.432
58888W        W31148  23.663  37.742   0.528
58889W        W31149   8.377  37.471   4.283
58890W        W31150   1.327   9.424   3.122
58891W        W31151   2.123   9.339  11.986
58892W        W31152  18.585  15.190  14.118
58893W        W31153  18.168  35.095   0.716
58894W        W31154  44.517  18.892   2.980
58895W        W31155  18.847  23.464   0.938
58896W        W31156  12.435  25.567   3.709
58897W        W31157  42.910  30.338   3.668
58898W        W31158   7.364  12.050   0.894
58899W        W31159  36.335  28.666  12.431
58900W        W31160  30.000  26.681  11.318
58901W        W31161  29.187  39.306   3.649
58902W        W31162   7.420   1.007  11.129
58903W        W31163  24.718  26.957  10.594
58904W        W31164   1.288   9.905  11.153
58905W        W31165   5.920  17.194  10.796
58906W        W31166  31.448   9.216  13.836
58907W        W31167   4.481  37.634   2.795
58908W        W31168  25.279  42.561  12.550
58909W        W31169  16.238   6.758  11.983
58910W        W31170  30.452  26.274  12.125
58911W        W31171  40.352  44.514  11.182
58912W        W31172  16.862  19.196   1.865
58913W        W31173  32.941  40.674  10.677
58914W        W31174  39.235  37.546   3.733
58915W        W31175  34.578  32.926   3.198
58916W        W31176  41.348   1.894  10.502
58917W        W31177   5.942  25.120  14.326
58918W        W31178  21.247   8.884  12.520
58919W        W31179  38.326  22.659   2.808
58920W        W31180   7.882  14.340   3.108
58921W        W31181  29.554  31.904  12.006
58922W        W31182  36.496  23.685  12.293
58923W        W31183  15.641   9.106  10.822
58924W        W31184  40.220  38.634   1.985
58925W        W31185   6.239  44.914  10.631
58926W        W31186   3.326   1.756   3.099
58927W        W31187  41.345   1.363   0.393
58928W        W31188   6.276   3.058   4.744
58929W        W31189  36.843  10.435  14.524
58930W        W31190  35.662  26.567   1.314
58931W        W31191  21.268   0.498  13.444
58932W        W31192  11.411  39.404  14.076
58933W        W31193  25.706  26.154   0.704
58934W        W31194  19.656  44.807   2.614
58935W        W31195  28.114  18.164   4.346
58936W        W31196  23.064   9.654   0.810
58937W        W31197  32.615  22.237   0.418
58938W        W31198  16.537   7.232  12.019
58939W        W31199  31.410  42.700   4.675
58940W        W31200   7.357  28.244  13.514
58941W        W31201  34.891  32.280   0.958
58942W        W31202  27.214  38.451   4.112
58943W        W31203  20.694  10.293  13.446
58944W        W31204  21.972  43.922  12.074
58945W        W31205   4.388  38.841   1.909
58946W        W31206  38.590  17.599   4.155
58947W        W31207  33.173  23.899  11.105
58948W        W31208  35.120   7.855  14.620
58949W        W31209  31.536  44.796  14.528
58950W        W31210   5.127  38.484   2.153
58951W        W31211  19.072  11.888  10.876
58952W        W31212  11.784  19.810  10.684
58953W        W31213   8.207   3.679  12.538
58954W        W31214  24.621  18.338  10.930
58955W        W31215   9.190  39.440   4.411
58956W        W31216  29.529  31.473  13.685
58957W        W31217  28.951  44.250  12.888
58958W        W31218  26.587   4.228  13.026
58959W        W31219   8.899   4.367  12.412
58960W        W31220  12.600  44.715   1.209
58961W        W31221  22.822  11.653   2.158
58962W        W31222  14.355  28.716  12.893
58963W        W31223   9.036  28.174   1.735
58964W        W31224  14.305  24.209  11.555
58965W        W31225  26.027   7.526  11.989
58966W        W31226  31.957  38.013  10.754
58967W        W31227   6.243  25.133  12.553
58968W        W31228  16.081  26.264  11.941
58969W        W31229   6.345  24.123  12.589
58970W        W31230  13.736  22.622  12.923
58971W        W31231  26.374  44.419  13.312
58972W        W31232  19.019  33.504   2.630
58973W        W31233   1.219  16.592  11.073
58974W        W31234  22.294  38.852   1.918
58975W        W31235  18.101  33.146   0.976
58976W        W31236  33.775   2.264   1.895
58977W        W31237  32.590  19.585   3.929
58978W        W31238   4.743  17.368  13.885
58979W        W31239  25.088   8.467  11.650
58980W        W31240  27.157  31.105  11.605
58981W        W31241  25.406  22.054  14.900
58982W        W31242   4.293  32.953  14.570
58983W        W31243  10.709   0.836   0.248
58984W        W31244  34.542  13.736  12.881
58985W        W31245   5.035  32.292  12.179
58986W        W31246  21.695  18.729   2.159
58987W        W31247   0.511   9.623  12.703
58988W        W31248  17.835  15.977  12.987
58989W        W31249  44.260  28.525   4.466
58990W        W31250  13.176  19.724   3.110
58991W        W31251  29.130  42.999  11.515
58992W        W31252  17.802   2.940   4.287
58993W        W31253  26.391  19.191   0.986
58994W        W31254  42.776  44.218   2.245
58995W        W31255  13.575   0.435   4.618
58996W        W31256  27.232  42.956   4.661
58997W        W31257  22.804   7.236  11.415
58998W        W31258   3.213   0.032  10.538
58999W        W31259   4.122  28.781   3.716
59000W        W31260  27.684  12.266   1.890
59001W        W31261  24.343  41.785   5.049
59002W        W31262  30.692  10.313   4.701
59003W        W31263  44.730   7.735  11.101
59004W        W31264  26.611  10.022   1.326
59005W        W31265   1.042   5.975   2.588
59006W        W31266   1.978  15.808  12.598
59007W        W31267  28.467  36.160  11.503
59008W        W31268  13.785  31.208   1.289
59009W        W31269  34.940  29.862  10.620
59010W        W31270  29.007  19.030   3.706
59011W        W31271  14.607  10.860   4.484
59012W        W31272  38.628  16.396  13.783
59013W        W31273  20.678  17.077  14.449
59014W        W31274  25.998  40.181  13.137
59015W        W31275  43.817  31.970  12.914
59016W        W31276  19.703  33.507   3.164
59017W        W31277  15.672  21.538   2.883
59018W        W31278  25.066  29.255   1.509
59019W        W31279  27.616  11.789   2.050
59020W        W31280  40.831  41.078  10.348
59021W        W31281  27.964   3.156   4.068
59022W        W31282  11.155  19.858  10.783
59023W        W31283  40.832  10.806   3.338
59024W        W31284  13.790   2.643  11.126
59025W        W31285  44.918  17.853  13.546
59026W        W31286  32.107  26.132   3.638
59027W        W31287   2.203  33.889  12.507
59028W        W31288  11.724   0.797   0.314
59029W        W31289  35.430  41.051   3.241
59030W        W31290   9.708  26.904  11.419
59031W        W31291  38.116  43.215  11.948
59032W        W31292  33.330  19.378  12.804
59033W        W31293  34.530  32.281  11.093
59034W        W31294  16.363  26.844  13.512
59035W        W31295  30.892   3.304  12.424
59036W        W31296  19.832  26.141   0.356
59037W        W31297   0.513  42.931  14.843
59038W        W31298  13.354  40.933   3.255
59039W        W31299  28.523  39.925  12.814
59040W        W31300  10.085  17.575  12.631
59041W        W31301  39.781  37.989  10.751
59042W        W31302  29.641   0.780   2.429
59043W        W31303  11.396  20.308  10.658
59044W        W31304  33.839   6.554  14.929
59045W        W31305  23.910  23.745  12.560
59046W        W31306  16.814  15.395  12.468
59047W        W31307   9.167   0.193  12.635
59048W        W31308  44.786  40.517   1.476
59049W        W31309  40.927  10.479   1.820
59050W        W31310  27.187  31.365  14.224
59051W        W31311   8.657  10.708   3.107
59052W        W31312  29.176  40.881   4.817
59053W        W31313  42.008  14.433  12.519
59054W        W31314   1.852  14.402  11.180
59055W        W31315  37.137  40.495  14.335
59056W        W31316   8.454  27.035  11.114
59057W        W31317  34.872  42.605   3.725
59058W        W31318  35.006  35.361  11.958
59059W        W31319  12.210  24.740   3.109
59060W        W31320  36.118  31.835   4.096
59061W        W31321  28.269  37.444  12.905
59062W        W31322  21.129   9.697  11.224
59063W        W31323  16.538  30.072  10.720
59064W        W31324  15.541  25.898   3.770
59065W        W31325  13.741   5.245   4.520
59066W        W31326  28.124  26.435  12.616
59067W        W31327  28.038   8.642   1.803
59068W        W31328  13.716   0.943  10.801
59069W        W31329  12.177  16.989  11.170
59070W        W31330   5.701  34.206  14.326
59071W        W31331  18.155  33.050  13.993
59072W        W31332   5.413  36.439  10.643
59073W        W31333  19.602  23.493  14.400
59074W        W31334  17.669  19.599  12.425
59075W        W31335  21.705  40.122  14.124
59076W        W31336  10.136  33.872  14.864
59077W        W31337  40.103   5.178   2.400
59078W        W31338  15.616  31.888   5.051
59079W        W31339  38.824   4.842  10.350
59080W        W31340  38.101  11.462  13.847
59081W        W31341  20.704  37.100  14.476
59082W        W31342  25.719  26.940   4.069
59083W        W31343   2.424   6.563  11.904
59084W        W31344  19.995  40.339  11.778
59085W        W31345   7.499   6.278   2.278
59086W        W31346   1.109  24.671   2.912
59087W        W31347  29.704  43.040  11.143
59088W        W31348   8.505  15.704   3.179
59089W        W31349  38.109  17.382   2.206
59090W        W31350  12.224  41.327  11.546
59091W        W31351  17.895  40.819  11.673
59092W        W31352  30.219  32.495  10.462
59093W        W31353   6.147  36.489  14.517
59094W        W31354  41.582   3.389   0.870
59095W        W31355  15.897  22.581  13.562
59096W        W31356  26.237  28.956   3.232
59097W        W31357  13.810  35.058   3.407
59098W        W31358  13.148  28.840   1.004
59099W        W31359  38.027  42.420   1.278
59100W        W31360  12.263  28.692   3.206
59101W        W31361  41.221  18.388   3.743
59102W        W31362  40.682  21.218   4.558
59103W        W31363  23.566  17.168   0.269
59104W        W31364   6.802  30.187  11.961
59105W        W31365  26.007  24.548   1.059
59106W        W31366  41.009  29.586  13.319
59107W        W31367  19.775  18.722  13.400
59108W        W31368  24.409  15.616  13.334
59109W        W31369  11.826   9.327  14.358
59110W        W31370   7.904  13.708   4.105
59111W        W31371  40.972  13.355  12.316
59112W        W31372  23.315  17.618  11.289
59113W        W31373  33.451   5.751  10.763
59114W        W31374  16.641  12.265   4.102
59115W        W31375   8.886   2.179  12.021
59116W        W31376  30.166  27.561  12.557
59117W        W31377  16.310  19.709  11.076
59118W        W31378  25.635  16.553  13.352
59119W        W31379   0.980  12.798   5.006
59120W        W31380  21.310  29.662   3.277
59121W        W31381  42.880  11.891   2.760
59122W        W31382  16.813  20.601  12.362
59123W        W31383  26.167   4.677  11.096
59124W        W31384  23.675  15.257   1.719
59125W        W31385  15.010  38.941   3.611
59126W        W31386  14.083  35.422  12.482
59127W        W31387   0.314  21.185   0.696
59128W        W31388  31.157   4.684  11.413
59129W        W31389  27.724  40.357  14.764
59130W        W31390  33.551   2.475  13.397
59131W        W31391  41.982   1.815   2.487
59132W        W31392  17.962  40.480  14.634
59133W        W31393   8.147  10.576   0.010
59134W        W31394  36.417  35.599  13.325
59135W        W31395  18.184  26.446  12.173
59136W        W31396  39.019   9.429  12.310
59137W        W31397  28.099  28.022   4.422
59138W        W31398  43.979  42.843   0.854
59139W        W31399  12.152  33.200   0.838
59140W        W31400  16.289  21.049  11.402
59141W        W31401  32.594   7.307  14.902
59142W        W31402  13.828  26.901  12.028
59143W        W31403   6.050  24.794   4.757
59144W        W31404  32.905  13.840   0.850
59145W        W31405  17.601   5.006   3.800
59146W        W31406  41.891  44.994   0.300
59147W        W31407  26.550  17.130  12.532
59148W        W31408  34.385   0.779  14.014
59149W        W31409   6.180  14.876   0.923
59150W        W31410  30.089   6.680  11.139
59151W        W31411  27.219  35.224  14.162
59152W        W31412  18.166  20.019   1.929
59153W        W31413  32.878  13.118   0.382
59154W        W31414  43.295  18.328  12.299
59155W        W31415  25.919  10.599  12.363
59156W        W31416  17.651  31.021   4.405
59157W        W31417  29.934  35.376  10.608
59158W        W31418  19.644   8.938  14.449
59159W        W31419  20.805  33.479   3.225
59160W        W31420  20.413  37.422   3.807
59161W        W31421  38.585   1.216  14.646
59162W        W31422  11.199  38.342   2.611
59163W        W31423  41.294   4.331  11.359
59164W        W31424   3.808  19.827  11.658
59165W        W31425  43.222  34.658   3.351
59166W        W31426  24.055  23.970  14.539
59167W        W31427  14.167   8.630   2.655
59168W        W31428   7.215  16.051   3.383
59169W        W31429  16.527  22.800  12.877
59170W        W31430  37.123  37.065   3.001
59171W        W31431  19.190   4.671   0.311
59172W        W31432  20.126  43.388  11.413
59173W        W31433  17.998  31.468  13.808
59174W        W31434  23.242   0.462   2.610
59175W        W31435  11.134  37.839  10.925
59176W        W31436  16.375  14.680  10.292
59177W        W31437  16.222  18.105   4.536
59178W        W31438   2.724   1.222  12.516
59179W        W31439  12.391  12.855  12.399
59180W        W31440   0.852  40.330   4.527
59181W        W31441  26.187  33.093  12.507
59182W        W31442  39.973  14.819   4.232
59183W        W31443  34.650  28.387   2.902
59184W        W31444  37.070  35.768   1.439
59185W        W31445  25.019  13.826   4.211
59186W        W31446   1.765   0.363  14.970
59187W        W31447  39.765  12.312  12.895
59188W        W31448  39.037  38.913  11.889
59189W        W31449  35.056  44.730  14.194
59190W        W31450  21.106   8.098  12.154
59191W        W31451  16.728   7.853  14.057
59192W        W31452   7.817  16.699   3.876
59193W        W31453  14.228  33.592  11.421
59194W        W31454   0.692  22.168   2.352
59195W        W31455  40.303  16.563   0.327
59196W        W31456  13.701  13.203   3.702
59197W        W31457  11.115   4.227  12.517
59198W        W31458  29.898  34.940  12.472
59199W        W31459   9.807  13.039   0.823
59200W        W31460   4.711  31.828  10.249
59201W        W31461   1.877  36.463   2.292
59202W        W31462  30.863  21.223   3.570
59203W        W31463  12.166  18.784   0.322
59204W        W31464  13.633   4.722   4.432
59205W        W31465  12.240  12.123   4.612
59206W        W31466   9.362  43.066  11.162
59207W        W31467  12.019  31.937   3.823
59208W        W31468  16.311  40.831  14.890
59209W        W31469  34.441  27.916   2.900
59210W        W31470   0.648  37.937  12.089
59211W        W31471  16.016  29.189  12.615
59212W        W31472  29.054  39.139   1.225
59213W        W31473  19.134   9.371   2.766
59214W        W31474   1.052  31.188   2.222
59215W        W31475   7.871  21.560   4.395
59216W        W31476  22.583  33.376  12.415
59217W        W31477   8.806   4.891  11.751
59218W        W31478  31.485  11.643   3.694
59219W        W31479  28.178  38.034   2.527
59220W        W31480  11.852  23.321   9.952
59221W        W31481  26.621  15.185   3.703
59222W        W31482  37.838  17.548   2.652
59223W        W31483  18.835   4.947   3.182
59224W        W31484  34.849  17.278   2.650
59225W        W31485  17.476  14.358   4.845
59226W        W31486  36.174  22.080   1.044
59227W        W31487  32.918  33.042  14.885
59228W        W31488  11.866  10.273  13.061
59229W        W31489  40.298  25.704  12.469
59230W        W31490  37.226  10.389  10.585
59231W        W31491  34.051  28.114  13.745
59232W        W31492  34.351  13.273   4.512
59233W        W31493  10.368  43.821   0.736
59234W        W31494  21.632  35.324  12.379
59235W        W31495  11.267  21.827   4.087
59236W        W31496  10.682  35.764  13.440
59237W        W31497  42.899  14.254  14.822
59238W        W31498  27.270   6.770   4.778
59239W        W31499  15.393   1.501  12.003
59240W        W31500  39.387  38.901   3.740
59241W        W31501  11.154   1.996  13.891
59242W        W31502  37.951   9.769  11.015
59243W        W31503  37.858  44.832   3.245
59244W        W31504  40.882  29.484   1.941
59245W        W31505  37.579  12.236  11.618
59246W        W31506  38.103  17.710  12.021
59247W        W31507  37.002  32.812   0.423
59248W        W31508  27.275  25.241   3.992
59249W        W31509  17.803  19.385  13.009
59250W        W31510  36.519  11.646  12.396
59251W        W31511  27.479  27.418   3.328
59252W        W31512  32.608  22.808  12.975
59253W        W31513  39.612  30.872  13.303
59254W        W31514   9.686   3.308  14.999
59255W        W31515  37.095  13.309  14.588
59256W        W31516   6.754  11.195   4.260
59257W        W31517  14.180  22.292  10.605
59258W        W31518  27.515  30.454  10.266
59259W        W31519  36.568  25.972   2.340
59260W        W31520  39.499  33.515   4.579
59261W        W31521   4.034  18.336   1.247
59262W        W31522  32.922  40.824  12.133
59263W        W31523  27.922  28.373  13.325
59264W        W31524  30.951  13.731  10.647
59265W        W31525   1.460   4.995   0.212
59266W        W31526  27.607  38.814   3.983
59267W        W31527  22.065  19.173  13.675
59268W        W31528  20.670  14.065  12.980
59269W        W31529  11.850  29.297  10.326
59270W        W31530  14.879  31.790  13.452
59271W        W31531  12.288  32.171   2.477
59272W        W31532  39.992  27.674  14.383
59273W        W31533  38.932   0.509  12.123
59274W        W31534  40.365  33.876  13.095
59275W        W31535  39.098  15.275  10.656
59276W        W31536  29.521   3.625   0.012
59277W        W31537  17.783  38.686   0.874
59278W        W31538  30.140   1.824   2.943
59279W        W31539  35.917  39.359   0.702
59280W        W31540  26.551  25.159  14.770
59281W        W31541  25.929   0.305  11.066
59282W        W31542  41.500  40.563   3.184
59283W        W31543  42.219   7.836   1.367
59284W        W31544  23.430   6.302  14.319
59285W        W31545  18.031  29.104  11.950
59286W        W31546  29.121  37.329   1.036
59287W        W31547  39.463   5.016  13.162
59288W        W31548  41.808  43.592   4.109
59289W        W31549   7.184  23.121   3.620
59290W        W31550  18.324  24.051  11.134
59291W        W31551  30.966   5.946  10.775
59292W        W31552  37.237  30.912  14.298
59293W        W31553  17.316  31.253   1.788
59294W        W31554   8.799  41.825  14.995
59295W        W31555  31.188  42.039  10.877
59296W        W31556   0.073  20.642  12.381
59297W        W31557  38.339  42.051   2.274
59298W        W31558   7.910   6.557   2.411
59299W        W31559  30.000  21.606  14.750
59300W        W31560  42.329   3.704   2.119
59301W        W31561  11.702  25.521   3.372
59302W        W31562  11.785   8.236   3.307
59303W        W31563  42.985  15.186   4.762
59304W        W31564  32.184  42.258   1.322
59305W        W31565  15.878  20.047   3.638
59306W        W31566   0.208  28.402   3.259
59307W        W31567  28.187  36.086  14.298
59308W        W31568  28.727  12.104   1.769
59309W        W31569  22.806  36.129  13.068
59310W        W31570  25.901  26.035  12.472
59311W        W31571  19.647  36.992   0.321
59312W        W31572  32.310  31.187  12.957
59313W        W31573  19.568  42.992  12.160
59314W        W31574   9.647   5.746  13.503
59315W        W31575  31.769  24.842   4.538
59316W        W31576  35.870  44.364   2.735
59317W        W31577  39.094  29.674   4.736
59318W        W31578  43.390   2.659   0.062
59319W        W31579  19.466  40.338   2.878
59320W        W31580  32.212  17.572  13.386
59321W        W31581   8.936  22.276   1.219
59322W        W31582   3.285   0.472   4.518
59323W        W31583   1.812  18.158   2.696
59324W        W31584  28.543  34.270  13.045
59325W        W31585  27.107  32.627  10.735
59326W        W31586  23.828  33.290  11.578
59327W        W31587  19.271   8.027  12.088
59328W        W31588  40.267   1.458  11.927
59329W        W31589  21.740   5.145   0.349
59330W        W31590  41.834  32.497   4.575
59331W        W31591  28.726  17.585  12.152
59332W        W31592  16.245  22.985   1.834
59333W        W31593  15.639   2.860   1.274
59334W        W31594  30.167  40.403   2.814
59335W        W31595  11.044  31.355  14.661
59336W        W31596  20.537  17.704  11.634
59337W        W31597  41.331  31.070  13.027
59338W        W31598  18.441  33.325  14.813
59339W        W31599  44.076  30.991   2.421
59340W        W31600  36.939  25.176  13.421
59341W        W31601  29.069  17.151  10.892
59342W        W31602  23.549  36.969  10.409
59343W        W31603  39.388  16.607  13.845
59344W        W31604   0.060  23.654  14.840
59345W        W31605  33.830   9.369   2.899
59346W        W31606   3.078  24.434   5.212
59347W        W31607  12.672   8.907   2.877
59348W        W31608   5.716  15.562  11.019
59349W        W31609  18.171  43.445  10.924
59350W        W31610   8.602   7.890   4.403
59351W        W31611   5.305  11.362  13.881
59352W        W31612  27.086   1.318   1.171
59353W        W31613  40.842   0.086  12.466
59354W        W31614  14.261   2.521  14.989
59355W        W31615  42.916  16.000  11.009
59356W        W31616  13.697  27.094  11.203
59357W        W31617   8.624  20.125   4.063
59358W        W31618  40.065   8.785   4.953
59359W        W31619   9.967  25.721  11.110
59360W        W31620   7.189  40.471  12.284
59361W        W31621  35.130  17.072   2.267
59362W        W31622  32.395   1.440  11.626
59363W        W31623  36.481  16.756  10.729
59364W        W31624  30.080  11.166   4.722
59365W        W31625   0.800  40.910   3.740
59366W        W31626   8.916  20.802  12.058
59367W        W31627   5.411  26.902   0.191
59368W        W31628   7.992  34.653  13.881
59369W        W31629   3.165  25.294  14.953
59370W        W31630  33.399  39.525  11.589
59371W        W31631  44.337  33.219  11.659
59372W        W31632  34.153  20.043   3.408
59373W        W31633  24.906  17.562   1.202
59374W        W31634  23.931   8.625   3.989
59375W        W31635  16.129  20.817  11.957
59376W        W31636  36.076  43.293   4.564
59377W        W31637  23.415   4.580   0.305
59378W        W31638  17.600  24.733  12.100
59379W        W31639  28.282  21.290  14.998
59380W        W31640  10.419   4.433  12.142
59381W        W31641  17.725  12.371  12.912
59382W        W31642   8.193  39.028  12.602
59383W        W31643  35.046   5.570  14.305
59384W        W31644  29.240  12.788   4.340
59385W        W31645  42.975  32.053  14.421
59386W        W31646  39.772  39.016   0.347
59387W        W31647  16.580  37.942   0.307
59388W        W31648   7.392  34.324  13.050
59389W        W31649   5.996  24.573   0.432
59390W        W31650   8.744   8.790  13.047
59391W        W31651  23.499  30.137   0.953
59392W        W31652   8.313  44.334   0.273
59393W        W31653  22.101  38.921  14.520
59394W        W31654   0.833  11.218   1.494
59395W        W31655  44.448  24.608  13.639
59396W        W31656  32.672  35.018  14.924
59397W        W31657  35.015   9.249   2.854
59398W        W31658  19.155  43.112  10.698
59399W        W31659  41.729  18.661  14.872
59400W        W31660  36.621  20.322  13.527
59401W        W31661  21.803  26.026   3.182
59402W        W31662  35.970  43.262   3.662
59403W        W31663  28.440   8.211   0.345
59404W        W31664  34.882  36.613   4.011
59405W        W31665   8.556  28.666   4.998
59406W        W31666  33.896   1.357  13.373
59407W        W31667  24.000   3.950  13.433
59408W        W31668  26.980  32.142  10.857
59409W        W31669   6.050  34.403   1.339
59410W        W31670  40.196  33.234  11.608
59411W        W31671  31.640  13.278   4.112
59412W        W31672  35.507  18.242   4.195
59413W        W31673   7.860  26.692   5.003
59414W        W31674  41.580  40.622   4.056
59415W        W31675  18.280  30.448   1.380
59416W        W31676  30.284  13.307  13.160
59417W        W31677  14.181  17.774  14.001
59418W        W31678   3.976  36.684  13.336
59419W        W31679   0.410   5.899   1.833
59420W        W31680  19.022  27.258  13.518
59421W        W31681   4.288   3.297   0.293
59422W        W31682  31.514  12.562  10.666
59423W        W31683   6.835  39.915  11.543
59424W        W31684   9.465   9.173   3.942
59425W        W31685   1.679   7.363  13.364
59426W        W31686  33.557  38.585  14.007
59427W        W31687  39.638  26.593  12.333
59428W        W31688   6.907   9.836   3.689
59429W        W31689  37.004  18.374  10.231
59430W        W31690   1.330  11.912  13.538
59431W        W31691   7.657  24.330  13.225
59432W        W31692  13.325  38.592  11.020
59433W        W31693  14.264  18.066  10.538
59434W        W31694  26.268  16.694   0.265
59435W        W31695  35.512  20.234  14.410
59436W        W31696  31.126  31.510   1.920
59437W        W31697  30.442  41.945  12.929
59438W        W31698  23.805  39.201  14.438
59439W        W31699   0.940  17.195   3.255
59440W        W31700  24.438  30.942  10.969
59441W        W31701  32.136  13.633   0.008
59442W        W31702  14.607  33.020  10.911
59443W        W31703  19.940  14.208  11.519
59444W        W31704  24.318   3.853   2.752
59445W        W31705  32.173  38.918  13.931
59446W        W31706  11.088  19.742  13.872
59447W        W31707   9.710  11.401  10.606
59448W        W31708  34.308  20.716   3.770
59449W        W31709  11.466  20.077   3.703
59450W        W31710  17.221   0.844   1.418
59451W        W31711   0.972   6.377  12.860
59452W        W31712  10.725  19.580  12.197
59453W        W31713  35.431  11.814   4.081
59454W        W31714  37.536   2.768   0.705
59455W        W31715  22.742  12.265  11.124
59456W        W31716  43.263  10.865  12.416
59457W        W31717  39.754   0.886  11.165
59458W        W31718   1.489  43.193  11.193
59459W        W31719   3.547   5.663  14.225
59460W        W31720  42.455   1.939  14.674
59461W        W31721  27.717  28.951   3.640
59462W        W31722  26.624  37.795  12.514
59463W        W31723  42.315  18.575   3.415
59464W        W31724  34.426   6.614   1.480
59465W        W31725  30.190   6.263  13.024
59466W        W31726  20.791  20.520  10.995
59467W        W31727   7.006  36.669   3.665
59468W        W31728  14.065   4.147   3.650
59469W        W31729   1.856  38.322  10.356
59470W        W31730  22.199  28.225   9.714
59471W        W31731   6.877  30.525   4.620
59472W        W31732  22.747  28.861   2.407
59473W        W31733   8.332  18.286  12.492
59474W        W31734  23.188  42.003   1.287
59475W        W31735  36.347  12.689  14.313
59476W        W31736  30.138   0.853  11.490
59477W        W31737  14.590   8.770   1.228
59478W        W31738  17.735  20.187   1.277
59479W        W31739  35.599  20.715   1.754
59480W        W31740  41.581  11.163   1.865
59481W        W31741  44.114   8.663   2.435
59482W        W31742  25.561  11.447   3.811
59483W        W31743  15.098  33.999   3.390
59484W        W31744   6.156  39.478  11.009
59485W        W31745  11.350   7.941  12.355
59486W        W31746   6.301  33.187  12.437
59487W        W31747  22.216   8.307  13.540
59488W        W31748  18.282  38.379  14.205
59489W        W31749  25.001  34.564  10.456
59490W        W31750  38.864  39.368  10.520
59491W        W31751  16.375  31.844   1.181
59492W        W31752  17.142   0.916  13.889
59493W        W31753  35.431  18.750   4.277
59494W        W31754   5.956  44.332   0.382
59495W        W31755  10.285  17.661  11.686
59496W        W31756  24.615  28.503   4.927
59497W        W31757   2.874  38.727   4.945
59498W        W31758  43.640  19.563  12.717
59499W        W31759   7.744   7.615   4.951
59500W        W31760   6.653   5.192   4.011
59501W        W31761  17.553  23.807  10.967
59502W        W31762  40.477  22.014  11.998
59503W        W31763  37.953  39.471  12.683
59504W        W31764  26.728  15.416  12.579
59505W        W31765  10.787  14.195  10.402
59506W        W31766  24.108  26.891   9.786
59507W        W31767   5.387  10.838   0.509
59508W        W31768   8.351  16.573   3.085
59509W        W31769  25.716   4.413  12.602
59510W        W31770   1.507  15.565   4.181
59511W        W31771  25.080  32.031  13.045
59512W        W31772   3.807  36.936  10.450
59513W        W31773  37.898  40.794   3.773
59514W        W31774  26.762   0.932   2.399
59515W        W31775  42.739  18.304   2.701
59516W        W31776  41.940  12.174   4.900
59517W        W31777  16.704  12.485  12.395
59518W        W31778   2.658  19.252   0.807
59519W        W31779  40.122   4.718  12.788
59520W        W31780  10.905  41.842   1.502
59521W        W31781  19.062  27.464   0.332
59522W        W31782  12.372  23.569  10.698
59523W        W31783  26.733  20.359  12.996
59524W        W31784  39.974  27.965  10.712
59525W        W31785  12.201  14.224   1.579
59526W        W31786  20.242  10.234   4.761
59527W        W31787  11.439   8.206  13.107
59528W        W31788  20.353  20.192  13.534
59529W        W31789  19.024  21.055  10.688
59530W        W31790  22.541   0.524   4.197
59531W        W31791  16.008   1.408  13.386
59532W        W31792  34.462  24.764   1.850
59533W        W31793  36.981  17.224  12.656
59534W        W31794  14.312   8.900  13.094
59535W        W31795  35.526  11.263  13.085
59536W        W31796  19.697   0.821   4.727
59537W        W31797  15.199   9.384  10.642
59538W        W31798  39.439  28.284  14.050
59539W        W31799  10.366   2.831   4.047
59540W        W31800  20.242  10.269   3.719
59541W        W31801  35.111   2.659   2.270
59542W        W31802   1.294  10.603  14.783
59543W        W31803  25.476  26.068  14.248
59544W        W31804  42.824  20.282  14.030
59545W        W31805  18.526  34.033  13.846
59546W        W31806   3.337  16.429   1.483
59547W        W31807  26.984  25.381   0.930
59548W        W31808  27.163  29.187  10.726
59549W        W31809  40.993   9.041   2.737
59550W        W31810  43.266  14.251   4.306
59551W        W31811  41.251  10.218  12.128
59552W        W31812  13.694  13.920  10.653
59553W        W31813   3.158  42.224  14.564
59554W        W31814  10.215  15.309  14.321
59555W        W31815  42.306  40.325  12.122
59556W        W31816  31.658  25.083  12.077
59557W        W31817   1.377   0.333  11.395
59558W        W31818  15.836   4.205  12.414
59559W        W31819  24.642   2.301   3.259
59560W        W31820  14.525  42.762   2.597
59561W        W31821  16.130  26.131  11.019
59562W        W31822  17.821   7.493   4.453
59563W        W31823  23.054  34.974   4.759
59564W        W31824  31.517  26.660   4.150
59565W        W31825  28.665  29.360   3.635
59566W        W31826  37.859  27.898  12.789
59567W        W31827  13.903   7.316   3.169
59568W        W31828  25.240  44.778  10.477
59569W        W31829  42.380  20.233  12.251
59570W        W31830  25.566  20.450   0.396
59571W        W31831  33.560  36.889  11.610
59572W        W31832  16.237  22.766  11.139
59573W        W31833  23.231  19.183   5.349
59574W        W31834  33.002  27.730  11.485
59575W        W31835  22.247  25.046  14.626
59576W        W31836  23.953  18.802   0.718
59577W        W31837  32.476   9.522   5.026
59578W        W31838  29.025  41.965   3.941
59579W        W31839   4.908  29.485   3.947
59580W        W31840  22.793  44.984  14.977
59581W        W31841  23.861  20.988  12.432
59582W        W31842  30.655   9.157   2.453
59583W        W31843  24.096  41.406  10.719
59584W        W31844  30.233  40.768   0.208
59585W        W31845  14.987   4.256  12.161
59586W        W31846  21.085  25.695   0.567
59587W        W31847  10.832  32.875   0.411
59588W        W31848  12.697  18.196   3.810
59589W        W31849  35.898   9.690  14.310
59590W        W31850  17.112   7.741  14.797
59591W        W31851  13.149  31.094   3.432
59592W        W31852   1.873   2.497   4.195
59593W        W31853  19.514  44.414  13.747
59594W        W31854  42.883  37.487  14.024
59595W        W31855  10.849  35.583   1.952
59596W        W31856  36.065  23.574  13.543
59597W        W31857   2.931  41.415  13.322
59598W        W31858  11.923  34.303   5.043
59599W        W31859  21.706  42.776   2.572
59600W        W31860  43.397  29.479   1.108
59601W        W31861  34.314  15.717   0.908
59602W        W31862  19.646   4.335   0.338
59603W        W31863   8.328   1.938   4.076
59604W        W31864  10.533  23.758   2.353
59605W        W31865  30.548  39.381   4.393
59606W        W31866  28.403  19.666   4.516
59607W        W31867   6.988  34.375   1.827
59608W        W31868  20.779  22.671  14.815
59609W        W31869   2.541   6.407   0.424
59610W        W31870  33.081   8.411  14.226
59611W        W31871  26.679   8.319   0.728
59612W        W31872  36.943  21.296   4.646
59613W        W31873  26.447  20.495  11.581
59614W        W31874  41.229  36.607   3.709
59615W        W31875  37.593  21.173  12.923
59616W        W31876  21.800  11.677  14.743
59617W        W31877  31.395  43.389  13.397
59618W        W31878  16.641  23.668   2.588
59619W        W31879  13.583  35.033  11.350
59620W        W31880  36.840   4.832  14.299
59621W        W31881   3.911  13.232  14.145
59622W        W31882  17.246  41.794  12.966
59623W        W31883   7.193   9.586   2.756
59624W        W31884  34.607  15.196  11.633
59625W        W31885   9.512  36.510   2.792
59626W        W31886   3.252   6.243  11.880
59627W        W31887  36.940  16.259  14.504
59628W        W31888  26.669  36.193  12.117
59629W        W31889  43.911   2.741  12.383
59630W        W31890   6.989   2.820  13.425
59631W        W31891  10.585  10.718   2.604
59632W        W31892  16.379  43.587  11.434
59633W        W31893   8.795   6.468   3.940
59634W        W31894  34.818  36.992   2.166
59635W        W31895  23.327  35.872   3.675
59636W        W31896  41.983  42.943   3.343
59637W        W31897  16.908  27.188  11.882
59638W        W31898   9.197   2.428  12.433
59639W        W31899  18.999  12.872  14.995
59640W        W31900   9.175   9.294  12.994
59641W        W31901  18.580   4.455  12.066
59642W        W31902  42.255   8.677   1.205
59643W        W31903  19.757  12.646  14.560
59644W        W31904   8.906  30.934  13.749
59645W        W31905   1.981   3.239   3.676
59646W        W31906   2.245  42.753  11.191
59647W        W31907  35.463  14.652   0.541
59648W        W31908  42.212  19.761  12.031
59649W        W31909  28.967  44.287  14.980
59650W        W31910  27.217   7.428  12.115
59651W        W31911  44.753   0.376   4.083
59652W        W31912   6.139   8.327   4.296
59653W        W31913  30.136  26.887   2.814
59654W        W31914  28.400  25.997   4.199
59655W        W31915   9.317  12.065   4.538
59656W        W31916  23.605   0.713   0.360
59657W        W31917  18.445  41.572   2.358
59658W        W31918  40.557   9.437  12.601
59659W        W31919  44.433   7.360   1.231
59660W        W31920  17.558   3.539  13.464
59661W        W31921  16.664  25.526   0.862
59662W        W31922   5.997  38.025  11.530
59663W        W31923  20.667  21.131  13.744
59664W        W31924  11.663  35.463  10.740
59665W        W31925  21.450  27.984   0.698
59666W        W31926   4.580  26.086  10.348
59667W        W31927  44.584  42.396   0.475
59668W        W31928  12.053  23.677  13.808
59669W        W31929  38.013  18.364   0.338
59670W        W31930  19.215   8.748  11.553
59671W        W31931  26.968  17.328  13.452
59672W        W31932  27.016  40.144   0.771
59673W        W31933  43.017   6.477   2.831
59674W        W31934  18.397  22.660   1.406
59675W        W31935   4.646  16.865  10.707
59676W        W31936  29.989  27.368   0.472
59677W        W31937  38.517   3.815  14.395
59678W        W31938  28.068  33.913  11.712
59679W        W31939  36.978  34.934   0.382
59680W        W31940  20.361  27.082  13.021
59681W        W31941  16.238  36.103  14.829
59682W        W31942  42.419  18.193  11.542
59683W        W31943   8.925   7.915  10.814
59684W        W31944  18.613  42.378  11.658
59685W        W31945  30.087  40.577   1.767
59686W        W31946   2.351  28.232   2.842
59687W        W31947  35.375  41.109  11.683
59688W        W31948  33.575   4.629   0.914
59689W        W31949  29.581   4.942   0.339
59690W        W31950  13.286  27.805   9.759
59691W        W31951  13.619   2.980   3.144
59692W        W31952  15.152  16.722  10.686
59693W        W31953  12.601  20.934   4.294
59694W        W31954  14.624  39.788   2.897
59695W        W31955  19.195  22.073   4.588
59696W        W31956  43.580  37.855   3.748
59697W        W31957   7.624  17.071   4.166
59698W        W31958  35.602  27.223   1.946
59699W        W31959  15.840   2.363  12.458
59700W        W31960  15.268  16.568   3.207
59701W        W31961   2.373   7.300   1.758
59702W        W31962  44.297   3.372   1.850
59703W        W31963   8.122  32.093   5.158
59704W        W31964  39.138  42.827   4.332
59705W        W31965  11.337  14.208   4.186
59706W        W31966  43.946  27.420   1.740
59707W        W31967  43.270  21.006  13.308
59708W        W31968  43.534  28.528  14.523
59709W        W31969  41.141  23.039   3.303
59710W        W31970  34.085   4.518   0.852
59711W        W31971  16.509  10.381  10.935
59712W        W31972  28.630  30.631   0.638
59713W        W31973  36.148  33.159  12.060
59714W        W31974   1.434  38.125   2.568
59715W        W31975  35.831  12.749   2.317
59716W        W31976  18.747  10.239   4.508
59717W        W31977  26.576  10.091   3.593
59718W        W31978  15.875   8.903   3.526
59719W        W31979  34.424   3.836  10.637
59720W        W31980  19.474   7.412  13.450
59721W        W31981  20.984  39.817   1.336
59722W        W31982  17.789  16.364   3.240
59723W        W31983   6.321  34.995  11.321
59724W        W31984  14.226  12.714  12.881
59725W        W31985   0.243  40.296  12.976
59726W        W31986  11.859  24.944   0.428
59727W        W31987  26.659  40.087  12.446
59728W        W31988  23.696  23.792   0.752
59729W        W31989  41.419   4.179  12.363
59730W        W31990  22.665  15.137  10.570
59731W        W31991  16.092   3.488   0.021
59732W        W31992  41.769  16.606  13.771
59733W        W31993   2.706  33.198  13.775
59734W        W31994   5.308  16.089  12.861
59735W        W31995  17.084  16.801   3.347
59736W        W31996  36.182  39.171   1.940
59737W        W31997  38.959  26.642   3.147
59738W        W31998  28.515  15.554   4.367
59739W        W31999  13.571  40.255   4.606
59740W        W32000   8.666  26.310   0.993
59741W        W32001  41.450   0.976   1.331
59742W        W32002  15.070   0.501   2.700
59743W        W32003  27.889  18.777   0.899
59744W        W32004  44.427  41.562  11.520
59745W        W32005  36.549  43.713   4.704
59746W        W32006   6.275   7.952   9.944
59747W        W32007  21.568   4.684   2.627
59748W        W32008  19.066   4.247  11.973
59749W        W32009  26.174   6.802   1.001
59750W        W32010   3.923  39.474  10.879
59751W        W32011  16.718  41.452   3.849
59752W        W32012  31.655  16.615  10.726
59753W        W32013   8.609  21.617  11.915
59754W        W32014  40.628  40.020   0.283
59755W        W32015  42.593  18.829   1.316
59756W        W32016  36.580  22.323   1.257
59757W        W32017  42.963   0.284   0.007
59758W        W32018  16.919  14.395  13.574
59759W        W32019  17.021  27.103  12.392
59760W        W32020  16.387   7.345  13.391
59761W        W32021  30.503  18.137   0.395
59762W        W32022   6.242  33.371   3.127
59763W        W32023  21.218  29.612  10.787
59764W        W32024   3.905  21.156  13.454
59765W        W32025   2.411  13.948   5.051
59766W        W32026  25.678  20.283  12.408
59767W        W32027   2.800  14.628   2.869
59768W        W32028  26.110  13.771   2.753
59769W        W32029  16.810  44.552  12.931
59770W        W32030  10.422  17.130  13.587
59771W        W32031   6.050  39.464   0.755
59772W        W32032  27.513  20.979   0.296
59773W        W32033  35.053  33.992   2.519
59774W        W32034  28.532   1.870   1.711
59775W        W32035  16.591  30.981   1.796
59776W        W32036  22.261   0.506  11.098
59777W        W32037   9.164  21.478   1.147
59778W        W32038   5.042  26.975  11.988
59779W        W32039  18.430   2.073   3.499
59780W        W32040  44.769  31.165  10.840
59781W        W32041  15.707  38.547   2.853
59782W        W32042   5.803  22.043  13.370
59783W        W32043  25.151  43.172  11.605
59784W        W32044  10.080  18.815  12.200
59785W        W32045   3.630  41.232   3.830
59786W        W32046   5.982  11.197   3.691
59787W        W32047  20.628  19.425  13.975
59788W        W32048  13.708  25.739  12.552
59789W        W32049  19.882  12.276  12.717
59790W        W32050  30.645  44.597   3.229
59791W        W32051  35.583  23.172   0.192
59792W        W32052  23.692   6.358  13.435
59793W        W32053  23.122  44.382   0.681
59794W        W32054  14.520  10.255  10.284
59795W        W32055  32.497  44.266   3.282
59796W        W32056   9.445  30.648   3.738
59797W        W32057  27.786  41.452   5.512
59798W        W32058   7.335   6.907  12.802
59799W        W32059  32.965  29.355  12.370
59800W        W32060  18.684  18.697  11.409
59801W        W32061  34.786   5.226   1.147
59802W        W32062  27.396   9.088   2.903
59803W        W32063  14.085  33.099   4.710
59804W        W32064   0.977  18.051  12.632
59805W        W32065  43.810  37.629  10.565
59806W        W32066  33.454  20.261   4.687
59807W        W32067  44.005  36.997   0.227
59808W        W32068  31.163   2.520  14.406
59809W        W32069  32.532  36.951  11.552
59810W        W32070   9.953  26.394  14.431
59811W        W32071   3.685  25.618  13.876
59812W        W32072  21.770  23.578   0.022
59813W        W32073  20.424  35.994  10.788
59814W        W32074  34.893  21.488  12.463
59815W        W32075  18.884  44.530   4.183
59816W        W32076   5.722   9.174   2.594
59817W        W32077   8.923  44.988  14.439
59818W        W32078  38.310   8.972  10.151
59819W        W32079  33.240  36.556  12.713
59820W        W32080   6.524  22.071  13.906
59821W        W32081  35.591  38.332  12.849
59822W        W32082   6.912  37.451  12.414
59823W        W32083  23.187   9.806  14.349
59824W        W32084  32.191  38.031   1.186
59825W        W32085  16.856  21.210   1.671
59826W        W32086  13.509   0.477  14.974
59827W        W32087  18.388  27.343  12.330
59828W        W32088  31.374  25.703  11.228
59829W        W32089  16.442  28.910  13.821
59830W        W32090  41.539  38.307   5.228
59831W        W32091  33.058  12.832   3.693
59832W        W32092  22.101  30.849   3.283
59833W        W32093  33.501  14.708  14.573
59834W        W32094  13.612  34.994   0.494
59835W        W32095  18.500  21.928   2.420
59836W        W32096  32.384  27.612  12.043
59837W        W32097   5.238   0.900   0.855
59838W        W32098  11.266  35.120   3.931
59839W        W32099  28.123  39.598  11.879
59840W        W32100  44.061  43.444  13.594
59841W        W32101  36.967  22.723  12.567
59842W        W32102  27.968   7.677  10.529
59843W        W32103  24.563  19.031   3.797
59844W        W32104   2.471   6.071  11.004
59845W        W32105   9.741  13.639  12.671
59846W        W32106  42.946   5.630   3.657
59847W        W32107   3.119  16.798   3.604
59848W        W32108  40.247  23.980   2.154
59849W        W32109  27.583   0.531   1.489
59850W        W32110  34.202  44.928   4.117
59851W        W32111   7.914  19.003  13.759
59852W        W32112  15.185  33.851  14.964
59853W        W32113  13.705  18.825   1.920
59854W        W32114   2.825  40.754   2.213
59855W        W32115   2.411   8.460  12.100
59856W        W32116   3.482  16.903   0.209
59857W        W32117   6.330  12.867  11.065
59858W        W32118  13.010  15.608  12.071
59859W        W32119  44.751  20.333  12.080
59860W        W32120  43.218  24.977   5.125
59861W        W32121  30.529  26.704  14.429
59862W        W32122  14.301  11.188  13.959
59863W        W32123  11.448  10.450  11.124
59864W        W32124  34.005  40.578   3.168
59865W        W32125   3.726   0.356   2.783
59866W        W32126  25.614  17.221   1.912
59867W        W32127   7.275   2.525  14.953
59868W        W32128   9.158  16.103  13.678
59869W        W32129   9.872  33.201   0.684
59870W        W32130  11.074  28.445   4.973
59871W        W32131  34.089  30.390   2.839
59872W        W32132  40.727  36.948  13.787
59873W        W32133   4.222   1.988  12.994
59874W        W32134   8.375  17.226  12.222
59875W        W32135  34.367   4.972  13.956
59876W        W32136   6.172  18.043   3.127
59877W        W32137  41.464  14.707   0.042
59878W        W32138  37.341  23.952  11.943
59879W        W32139  13.296  20.260   1.933
59880W        W32140   5.487   9.868  12.434
59881W        W32141  20.809  15.606   2.266
59882W        W32142  15.654  26.407   3.677
59883W        W32143  20.254  37.502  13.304
59884W        W32144  25.003  15.392   4.224
59885W        W32145  35.608   5.311   0.525
59886W        W32146  38.687  22.832  11.118
59887W        W32147  35.160  18.225   1.076
59888W        W32148  27.682  18.018   4.050
59889W        W32149  40.928  25.173   4.421
59890W        W32150  39.887  40.857   0.982
59891W        W32151  17.832   9.692  12.114
59892W        W32152   1.561   4.283  13.433
59893W        W32153  15.908  17.295  14.122
59894W        W32154  23.221   9.235  11.072
59895W        W32155  37.792  15.876   1.244
59896W        W32156  44.566  42.244  13.161
59897W        W32157  21.494  36.125  12.002
59898W        W32158  44.347  25.966  14.914
59899W        W32159  16.987  32.224   1.921
59900W        W32160  41.170  12.884   1.454
59901W        W32161  35.641  33.563  11.129
59902W        W32162  18.135   3.987   2.421
59903W        W32163   5.827   1.262   4.119
59904W        W32164   2.255   5.804   4.599
59905W        W32165  27.392  31.654  13.835
59906W        W32166  22.492  29.336  10.079
59907W        W32167  18.269  17.863  11.155
59908W        W32168   3.769  44.944  13.345
59909W        W32169   9.719   0.379   0.929
59910W        W32170   0.769   5.763   0.395
59911W        W32171  41.871  28.210  10.804
59912W        W32172   9.240   6.533  11.483
59913W        W32173  12.680  26.302  12.957
59914W        W32174  23.742  42.798   4.784
59915W        W32175  35.442  21.839   9.784
59916W        W32176  21.780   5.899   2.379
59917W        W32177  43.697  33.447  13.137
59918W        W32178   9.962  41.493   0.843
59919W        W32179  12.767  16.697  11.552
59920W        W32180  16.275  43.480  10.925
59921W        W32181   5.768  23.570  12.921
59922W        W32182  40.900   6.366  12.939
59923W        W32183   8.516   9.588  12.018
59924W        W32184  13.227  20.840  13.218
59925W        W32185  37.394  20.940  13.338
59926W        W32186  15.272  33.502   4.153
59927W        W32187   1.305  14.341  11.641
59928W        W32188  44.381  16.213  14.278
59929W        W32189   1.549  35.358   1.700
59930W        W32190  26.179  15.518  12.786
59931W        W32191  33.961  39.087  13.803
59932W        W32192  20.279  44.984  13.028
59933W        W32193  26.248  39.446   4.519
59934W        W32194   4.344  22.141   3.146
59935W        W32195   4.731   5.958   1.882
59936W        W32196  44.910  26.458  13.794
59937W        W32197   7.757   9.696  13.022
59938W        W32198   5.921  23.480   4.288
59939W        W32199   2.812  32.868  14.375
59940W        W32200  10.895  31.556   4.652
59941W        W32201  24.105  31.627  10.913
59942W        W32202  34.528  25.442  12.055
59943W        W32203  22.974  28.535  13.647
59944W        W32204   7.673  31.373   0.347
59945W        W32205   5.018  30.603  10.054
59946W        W32206  11.203  35.234  10.588
59947W        W32207  10.208  14.153   1.972
59948W        W32208  39.349  38.768  14.106
59949W        W32209  36.994  31.555  10.915
59950W        W32210  15.065  16.571  13.493
59951W        W32211  29.385   3.971   1.457
59952W        W32212  29.837  19.691   4.553
59953W        W32213  16.154  44.829   2.162
59954W        W32214  11.880  28.879   0.492
59955W        W32215   1.307  40.017   0.436
59956W        W32216  25.666  43.723  12.900
59957W        W32217  12.238  23.427   3.555
59958W        W32218  35.166  20.978  13.024
59959W        W32219  18.759  29.825  14.028
59960W        W32220  26.459   3.409   1.758
59961W        W32221  18.793  12.905   2.190
59962W        W32222  12.728   9.020   0.936
59963W        W32223  33.057  40.836   4.530
59964W        W32224  11.008  22.655   0.438
59965W        W32225  18.016  19.644   2.248
59966W        W32226  39.032  29.035  13.166
59967W        W32227   8.408   4.878   1.735
59968W        W32228  19.672  24.413   4.857
59969W        W32229  27.446   9.841  12.341
59970W        W32230  39.088  25.270   1.315
59971W        W32231   0.689  25.813  11.939
59972W        W32232  14.552   1.769   0.039
59973W        W32233  24.479  41.271   4.138
59974W        W32234  39.248  19.188   4.151
59975W        W32235   7.456   0.745  14.309
59976W        W32236  34.540  12.299  12.592
59977W        W32237   4.000  23.978  11.538
59978W        W32238   9.873  17.681   4.666
59979W        W32239   5.642  36.893  12.628
59980W        W32240  43.772  34.665   0.603
59981W        W32241  18.864  10.226  11.479
59982W        W32242   5.396   2.958  14.196
59983W        W32243   8.844  19.362  12.079
59984W        W32244  25.085   2.943   0.810
59985W        W32245   1.819  42.363   2.208
59986W        W32246  33.184  39.955   1.883
59987W        W32247   1.630  13.136   0.650
59988W        W32248  35.915   3.143  12.102
59989W        W32249  38.375  24.108   4.350
59990W        W32250  44.396  40.274  11.296
59991W        W32251  44.253   0.447  13.207
59992W        W32252  13.099  11.294  13.419
59993W        W32253  36.549   8.370   0.280
59994W        W32254  30.783  16.657  14.939
59995W        W32255   3.759  33.491  12.036
59996W        W32256  10.161   5.348   1.263
59997W        W32257  24.148  40.981  11.228
59998W        W32258   1.069  44.398   2.638
59999W        W32259  14.323  15.698  10.480
60000W        W32260  23.028  39.242  11.998
60001W        W32261  34.536  33.576   1.430
60002W        W32262  41.511  12.946  14.240
60003W        W32263   3.636  30.803   0.396
60004W        W32264  31.942   4.650  12.500
60005W        W32265  42.275  10.595  12.845
60006W        W32266  26.382   2.414   0.767
60007W        W32267  34.951   6.420   1.263
60008W        W32268  17.021   3.761   4.212
60009W        W32269  10.914  36.489  12.165
60010W        W32270  24.723   5.408   0.788
60011W        W32271  29.661  41.717   1.931
60012W        W32272   3.162   6.704   2.185
60013W        W32273   6.046  40.061   4.161
60014W        W32274   4.124  31.601  11.052
60015W        W32275  15.795  19.140   3.742
60016W        W32276   3.866   7.392   1.068
60017W        W32277   9.710  19.261  13.008
60018W        W32278  19.638  25.969   0.820
60019W        W32279   7.907  31.030   2.724
60020W        W32280   3.963  29.691  14.793
60021W        W32281   9.313  11.665  13.504
60022W        W32282  42.612  29.011  10.206
60023W        W32283  24.337  18.702  11.186
60024W        W32284  30.178   3.477   4.435
60025W        W32285   6.983  32.197  13.771
60026W        W32286  15.217  41.957   2.141
60027W        W32287  25.913   0.791   1.290
60028W        W32288  30.868  17.184  13.394
60029W        W32289  41.720  21.650  11.688
60030W        W32290  31.569  30.106   0.201
60031W        W32291  30.943  36.017   2.123
60032W        W32292  17.784   8.991   3.016
60033W        W32293  32.720  43.874  12.466
60034W        W32294  43.964  25.671  14.719
60035W        W32295   1.523   5.840   4.049
60036W        W32296  26.555  32.831   0.771
60037W        W32297  17.278   3.223  12.124
60038W        W32298  26.934  43.016   0.725
60039W        W32299  17.336  39.917   3.806
60040W        W32300   9.409  12.805  10.734
60041W        W32301  39.807  40.488  11.610
60042W        W32302  18.398  37.060  14.605
60043W        W32303  42.791   5.493   2.628
60044W        W32304  25.006  23.550   1.005
60045W        W32305  11.894  35.573  14.948
60046W        W32306  26.692  40.501  13.468
60047W        W32307  18.643  30.627   5.198
60048W        W32308   6.704  17.976   3.259
60049W        W32309  38.529  22.471  11.458
60050W        W32310  32.605  13.097   0.814
60051W        W32311   7.868   7.385  11.250
60052W        W32312  21.725  32.541  10.589
60053W        W32313  21.536  23.051   2.331
60054W        W32314   0.555  35.055  12.365
60055W        W32315  20.770  34.999  12.387
60056W        W32316  42.255  19.798  10.321
60057W        W32317  16.065  38.285  10.522
60058W        W32318  12.684  37.966  12.803
60059W        W32319   7.135  15.018  10.779
60060W        W32320  28.201   7.441  11.930
60061W        W32321  34.648   9.129   3.244
60062W        W32322  13.139   1.539  13.111
60063W        W32323   9.438  33.365   0.430
60064W        W32324  33.861  34.095   0.997
60065W        W32325   3.935   4.084   0.475
60066W        W32326  29.901  36.085  12.558
60067W        W32327  14.553  21.150  14.840
60068W        W32328   3.904  33.162   2.791
60069W        W32329  37.508   3.936   2.831
60070W        W32330  29.205  19.028  14.859
60071W        W32331  16.688  22.157   4.625
60072W        W32332  34.166   8.889   1.800
60073W        W32333   9.310  40.328  12.042
60074W        W32334  43.478  28.243   1.773
60075W        W32335  37.656   9.197   5.476
60076W        W32336  27.244  34.656   3.283
60077W        W32337   9.814  28.403   2.383
60078W        W32338   2.522   6.819   4.489
60079W        W32339  29.892  38.961   4.275
60080W        W32340   7.715  44.425   3.646
60081W        W32341  16.781   3.948   4.634
60082W        W32342  31.129  33.724  12.862
60083W        W32343  23.798  11.846   3.029
60084W        W32344  22.631  22.559   3.812
60085W        W32345  27.366  37.049  14.622
60086W        W32346   5.352  30.660   3.222
60087W        W32347  18.592  40.396  11.846
60088W        W32348  27.711  10.954  12.901
60089W        W32349   8.209  36.776   0.504
60090W        W32350   2.659  44.814   2.313
60091W        W32351   2.009   0.739   1.266
60092W        W32352  13.150  24.931  12.652
60093W        W32353   8.134  16.063  13.745
60094W        W32354  23.478  28.522  13.754
60095W        W32355  16.209  37.718   4.442
60096W        W32356  22.896  14.664  11.576
60097W        W32357  40.486  25.490   4.501
60098W        W32358  12.674   3.922  13.153
60099W        W32359  33.064   0.230  14.873
60100W        W32360  33.349  28.494   4.300
60101W        W32361  27.078  41.779   5.112
60102W        W32362  20.303  22.051  14.455
60103W        W32363  35.559  31.070   3.205
60104W        W32364  17.276  40.542  13.869
60105W        W32365   9.741  29.225   2.696
60106W        W32366  36.944   5.132  12.061
60107W        W32367  41.633  29.569   0.377
60108W        W32368   5.930  21.992   1.729
60109W        W32369   8.256   4.009  12.095
60110W        W32370  17.298  17.249  12.412
60111W        W32371   4.943   1.474  12.858
60112W        W32372  15.213   0.242  14.259
60113W        W32373  31.264  28.583   2.182
60114W        W32374  35.053  43.800   2.874
60115W        W32375  31.644  33.684  12.740
60116W        W32376  22.678  13.358   4.726
60117W        W32377  32.447  24.249   2.364
60118W        W32378  22.666   1.773  10.754
60119W        W32379  25.097   1.727   4.384
60120W        W32380  33.419  30.000  11.062
60121W        W32381  15.165  32.949   4.588
60122W        W32382   1.964  13.182   2.590
60123W        W32383  17.763  10.178  10.624
60124W        W32384   4.874  23.598  12.540
60125W        W32385  31.392  18.564  10.714
60126W        W32386  21.166  25.649  11.879
60127W        W32387   2.032  34.493  10.260
60128W        W32388  40.405  17.072   4.745
60129W        W32389   2.762   5.328  14.424
60130W        W32390   3.743  28.684   0.873
60131W        W32391  24.167  15.526  12.011
60132W        W32392  13.818  10.468   4.339
60133W        W32393   5.662   4.927   2.205
60134W        W32394  39.359  33.011   4.596
60135W        W32395   8.767  35.630   0.052
60136W        W32396  34.643  12.113   2.424
60137W        W32397  24.095  20.835  14.031
60138W        W32398   2.929  19.559  14.372
60139W        W32399  21.472  10.146   1.261
60140W        W32400  38.596  31.125   1.766
60141W        W32401  16.354  39.294  10.722
60142W        W32402   1.807  19.970   4.219
60143W        W32403  16.660  24.527  11.385
60144W        W32404  19.166  36.936   2.768
60145W        W32405  12.095   0.365  11.950
60146W        W32406  30.169  23.509   1.919
60147W        W32407  37.354  41.878   0.410
60148W        W32408  40.904  36.323   4.514
60149W        W32409  17.678  10.289   4.799
60150W        W32410  22.035   3.140  14.758
60151W        W32411  22.518  23.562  11.661
60152W        W32412  11.566  22.145   4.916
60153W        W32413  28.567  17.591  14.335
60154W        W32414   2.156  20.057  12.036
60155W        W32415  41.288  20.520  13.894
60156W        W32416  42.376  32.549   4.508
60157W        W32417   8.176  14.579   4.052
60158W        W32418  36.505   4.474  10.728
60159W        W32419  20.567  42.047   2.653
60160W        W32420  44.322  23.832   9.976
60161W        W32421  29.917  44.601   2.836
60162W        W32422  40.036  10.981   3.764
60163W        W32423   7.398  30.383   1.584
60164W        W32424  42.229  17.693   0.991
60165W        W32425   2.483  12.844   1.898
60166W        W32426  40.516   9.740   0.727
60167W        W32427  16.459  35.278  14.904
60168W        W32428  24.686  15.127  14.297
60169W        W32429   3.678   4.779   3.330
60170W        W32430  29.507  25.518  10.668
60171W        W32431  10.501  11.151  14.472
60172W        W32432   5.464   8.899   0.376
60173W        W32433   1.903  20.763   3.734
60174W        W32434  14.639  31.700  11.649
60175W        W32435  24.029  14.693   1.469
60176W        W32436   4.532   6.666   4.584
60177W        W32437  23.961   5.684  13.022
60178W        W32438   6.341  21.128   1.398
60179W        W32439   2.425  10.150   2.349
60180W        W32440   5.636  18.144   2.190
60181W        W32441  31.530   6.427  12.890
60182W        W32442   7.905   7.725  14.037
60183W        W32443  13.982   2.729  14.441
60184W        W32444   5.180  40.334  11.132
60185W        W32445  37.458   7.961  14.493
60186W        W32446  35.674   5.913  13.290
60187W        W32447  40.457  31.020   2.785
60188W        W32448  30.475  23.686   0.419
60189W        W32449   5.160   6.453   2.752
60190W        W32450  27.949   6.343  12.531
60191W        W32451  14.883   5.176  10.763
60192W        W32452  41.382  41.467   0.498
60193W        W32453  34.987  17.806   2.741
60194W        W32454  41.162  40.742  12.031
60195W        W32455  24.976  19.185  11.713
60196W        W32456  13.299  34.459  13.796
60197W        W32457  32.934  27.294  13.940
60198W        W32458   9.442  32.344   1.861
60199W        W32459  27.474  28.018  13.611
60200W        W32460  31.264  44.315  11.583
60201W        W32461  15.675  38.593   4.614
60202W        W32462   9.879   1.540   0.327
60203W        W32463  24.424  19.591  11.055
60204W        W32464  29.579  29.802  14.767
60205W        W32465  38.099   5.368  14.859
60206W        W32466  31.653   9.212   2.384
60207W        W32467  33.577  41.278   0.390
60208W        W32468  36.711   9.435  14.321
60209W        W32469  12.267  40.458   0.046
60210W        W32470  38.417   3.413  13.473
60211W        W32471   5.707  34.460  11.143
60212W        W32472  26.006  25.027  12.510
60213W        W32473   8.688   7.658  13.578
60214W        W32474  11.553  36.493  10.775
60215W        W32475  24.468  39.080  13.948
60216W        W32476  33.683  30.555  12.261
60217W        W32477   6.989  28.684   0.687
60218W        W32478  22.800  21.732   2.127
60219W        W32479  34.555  29.637   1.686
60220W        W32480  30.544  19.502  11.496
60221W        W32481  43.709  33.896   1.301
60222W        W32482  36.359  12.685   0.240
60223W        W32483  16.243  10.310   3.892
60224W        W32484   6.282   5.905  14.419
60225W        W32485   2.332   6.908   2.732
60226W        W32486  40.365  43.574  11.140
60227W        W32487  43.030  38.964   5.399
60228W        W32488  10.908  11.100   1.637
60229W        W32489  43.829  14.764   0.376
60230W        W32490  30.591  14.123   3.819
60231W        W32491  16.074   9.511  12.067
60232W        W32492  27.129   5.292  14.395
60233W        W32493  40.320  40.881   2.396
60234W        W32494  37.558   0.960   0.706
60235W        W32495  19.798  11.709   2.245
60236W        W32496  41.868  25.977   1.344
60237W        W32497  40.828  39.857   2.130
60238W        W32498   2.282  12.058  13.057
60239W        W32499   3.415  30.982   3.705
60240W        W32500   8.139  24.138  13.342
60241W        W32501  38.606   7.758  13.489
60242W        W32502  30.804  32.681   9.636
60243W        W32503   1.165  33.514   4.176
60244W        W32504  38.438  38.277  13.368
60245W        W32505   4.958  28.200  14.323
60246W        W32506   0.254  23.570   0.328
60247W        W32507  17.461  17.727   1.569
60248W        W32508  42.793   3.641  11.301
60249W        W32509   6.208  19.128  12.031
60250W        W32510  25.170  42.128  14.900
60251W        W32511  32.992   1.306  14.206
60252W        W32512   9.621  36.512   0.890
60253W        W32513   9.671  37.234   0.081
60254W        W32514  23.961   6.597   0.794
60255W        W32515   9.258  30.931   2.382
60256W        W32516  35.059  16.447   4.128
60257W        W32517  18.237  21.232   4.581
60258W        W32518   5.958   1.331   2.779
60259W        W32519  23.240  25.768   1.873
60260W        W32520  27.721  28.504   2.430
60261W        W32521  24.916  43.666   4.232
60262W        W32522  30.598  28.762   3.681
60263W        W32523  11.696  17.257  13.821
60264W        W32524  12.751  13.148  14.939
60265W        W32525   6.896  32.626  14.717
60266W        W32526  29.494  31.596  10.325
60267W        W32527   3.196  27.054  14.766
60268W        W32528  19.189  22.447  14.892
60269W        W32529  29.026  28.704  11.375
60270W        W32530  21.162  28.271  10.925
60271W        W32531  21.100  23.072  14.572
60272W        W32532   9.681  34.482   3.272
60273W        W32533  28.577  28.920   1.855
60274W        W32534   2.195   1.260   3.994
60275W        W32535   4.353  44.094  13.279
60276W        W32536  11.121  38.345  11.613
60277W        W32537  12.161  24.052   2.115
60278W        W32538  23.246  43.882   0.848
60279W        W32539  39.828   2.882  10.765
60280W        W32540  38.058  24.913   3.728
60281W        W32541  14.910  31.692   3.249
60282W        W32542  38.309  42.329   4.859
60283W        W32543  37.456   1.164  13.929
60284W        W32544  30.605  28.376   0.804
60285W        W32545  40.845  33.542   0.318
60286W        W32546   4.161  41.029   4.679
60287W        W32547   0.955  28.633  11.987
60288W        W32548  11.964  35.910   0.856
60289W        W32549  20.097  26.078   1.024
60290W        W32550  21.537   1.854  13.212
60291W        W32551   5.795  33.977  14.816
60292W        W32552   0.308  26.613   3.726
60293W        W32553  16.134   3.328   5.077
60294W        W32554  29.946  16.963   1.522
60295W        W32555  23.384   0.467   3.225
60296W        W32556  25.997  38.504  10.654
60297W        W32557  18.118  15.499   0.431
60298W        W32558  34.732  33.497   3.809
60299W        W32559   2.005   4.319   4.363
60300W        W32560   2.370  30.278   4.173
60301W        W32561  28.941  15.152   0.250
60302W        W32562  18.751  40.369  13.748
60303W        W32563  42.724  14.714   4.727
60304W        W32564  32.107  42.543   2.406
60305W        W32565  18.626   9.415   2.774
60306W        W32566   0.327   5.604   3.520
60307W        W32567  44.427  41.975   4.477
60308W        W32568  41.702  12.057  11.120
60309W        W32569   6.838  15.737   3.818
60310W        W32570  22.534  23.159  12.071
60311W        W32571  23.785  33.478   2.191
60312W        W32572  39.094  17.738   2.313
60313W        W32573  32.185  32.541   0.942
60314W        W32574  18.174  40.577  13.674
60315W        W32575  23.479  42.496   1.818
60316W        W32576  34.170  17.510   0.862
60317W        W32577  29.640  43.557  13.295
60318W        W32578  18.776  19.274  14.845
60319W        W32579   0.913  39.068   5.103
60320W        W32580  22.416   7.118   0.914
60321W        W32581  18.635   3.193   2.163
60322W        W32582   7.686  32.331  11.198
60323W        W32583  13.413  36.991   1.269
60324W        W32584   5.678  13.227   4.412
60325W        W32585   2.900  14.319   3.291
60326W        W32586  13.136   5.107  10.823
60327W        W32587   9.290   0.670   0.937
60328W        W32588  15.751  10.708  14.426
60329W        W32589  11.268  33.368  12.363
60330W        W32590  30.518  18.613  13.865
60331W        W32591  19.121   7.589   2.840
60332W        W32592  42.534  30.221   3.229
60333W        W32593  33.619  13.352   0.397
60334W        W32594  19.530  14.211   1.928
60335W        W32595  42.733   9.231  11.534
60336W        W32596  12.779  26.066   4.349
60337W        W32597  12.997   4.246  11.374
60338W        W32598  25.521  40.586  10.848
60339W        W32599  29.611  43.844  11.777
60340W        W32600  26.369  30.617  11.550
60341W        W32601  27.613  15.508  10.057
60342W        W32602  22.242  24.593  14.397
60343W        W32603  10.399  21.749  11.159
60344W        W32604  30.413  31.503  13.423
60345W        W32605  15.237  12.390   0.931
60346W        W32606   6.308  20.389  11.599
60347W        W32607  38.800  24.973   4.183
60348W        W32608   6.273   9.402   4.240
60349W        W32609   2.383  34.386  12.588
60350W        W32610  18.911  27.524  12.395
60351W        W32611  26.903  26.718   2.813
60352W        W32612   9.280   5.754  10.975
60353W        W32613   4.812   9.230   4.175
60354W        W32614  37.364  15.248   4.172
60355W        W32615  24.278  32.091   2.380
60356W        W32616  24.137  28.701  13.072
60357W        W32617  19.005   8.009   5.007
60358W        W32618  28.639  16.152  12.557
60359W        W32619  24.650   1.142  11.011
60360W        W32620  16.595  24.570  10.509
60361W        W32621  25.528  24.811  12.488
60362W        W32622  35.081   5.339   1.868
60363W        W32623   3.317  28.505   0.067
60364W        W32624  20.939  36.796   4.192
60365W        W32625  20.004  22.517  13.564
60366W        W32626  19.867  36.654   4.016
60367W        W32627  19.631   5.779   0.788
60368W        W32628  16.698  35.078  11.162
60369W        W32629   2.462  28.633   1.038
60370W        W32630  37.365  16.572  11.148
60371W        W32631  19.163  39.871   1.832
60372W        W32632  41.999   9.347   1.831
60373W        W32633   3.758  25.928   2.872
60374W        W32634   2.705  12.064   3.857
60375W        W32635  15.338   4.810  10.099
60376W        W32636  25.807   3.921  12.430
60377W        W32637  16.665  19.323   2.344
60378W        W32638  37.964   4.271   3.259
60379W        W32639  10.928  42.841   0.539
60380W        W32640  18.467  31.409  11.705
60381W        W32641  34.630  40.699  12.223
60382W        W32642  25.889   3.411   2.539
60383W        W32643  39.782   3.371   0.552
60384W        W32644  42.835  18.881  12.937
60385W        W32645  22.361  12.490   9.977
60386W        W32646  41.964  26.633   1.439
60387W        W32647  30.639   7.129   3.080
60388W        W32648  20.609  27.494  14.303
60389W        W32649  14.717  16.294  12.016
60390W        W32650  26.699  15.206   2.250
60391W        W32651  12.303  24.867  12.009
60392W        W32652  29.948  38.890  14.956
60393W        W32653  43.868   6.827   4.139
60394W        W32654   8.488  14.990  11.606
60395W        W32655  11.882  35.558   2.743
60396W        W32656   7.752  26.046  11.522
60397W        W32657  25.634  42.340   0.755
60398W        W32658   4.149  19.174   4.694
60399W        W32659   9.089  20.306  12.036
60400W        W32660  23.779  23.378  12.227
60401W        W32661  23.919  27.041   1.834
60402W        W32662   4.843  37.261   9.733
60403W        W32663  11.070  43.811   0.437
60404W        W32664  26.483  30.069   3.961
60405W        W32665  26.612  28.223  11.582
60406W        W32666  37.935  10.654   1.284
60407W        W32667  19.807  19.196   2.903
60408W        W32668  27.939  34.761   2.278
60409W        W32669  23.221  15.459  11.660
60410W        W32670  41.979   4.415   2.419
60411W        W32671  33.667  28.532  14.843
60412W        W32672  11.491  41.052   2.719
60413W        W32673  17.753   7.633  13.573
60414W        W32674  19.759  17.109   1.911
60415W        W32675  16.534  12.052   1.792
60416W        W32676  30.952  12.122   3.357
60417W        W32677   0.689  19.169  10.797
60418W        W32678  12.269  42.466  12.403
60419W        W32679  29.383  20.126   2.468
60420W        W32680  34.112  39.797   1.862
60421W        W32681  13.417  14.221  13.515
60422W        W32682  12.682  19.541   3.363
60423W        W32683   8.817   0.683  10.638
60424W        W32684  17.363  30.108  12.542
60425W        W32685  26.587  25.437   4.799
60426W        W32686  18.528  29.100   0.357
60427W        W32687  41.876  28.191  11.320
60428W        W32688  13.288  13.189   1.832
60429W        W32689  29.462   3.415  10.979
60430W        W32690  39.094  37.410   2.368
60431W        W32691  19.670  10.277  14.587
60432W        W32692  15.919  40.937   2.778
60433W        W32693  25.175   1.800  14.329
60434W        W32694   6.929  25.062  12.003
60435W        W32695  41.989  35.013  13.673
60436W        W32696   1.853  30.890   3.612
60437W        W32697  37.041  29.371   4.553
60438W        W32698  44.765  36.878   4.161
60439W        W32699  40.533  12.121   3.710
60440W        W32700  43.199   3.927  12.459
60441W        W32701  33.343  25.663   1.073
60442W        W32702  30.210  22.441   2.571
60443W        W32703  36.414  21.797   2.867
60444W        W32704  43.832  36.421  14.375
60445W        W32705  19.518  29.053  11.462
60446W        W32706  25.253  42.925  12.979
60447W        W32707  17.334  26.047   4.011
60448W        W32708  32.009  24.691  13.280
60449W        W32709  40.275   6.933  14.555
60450W        W32710  24.791  39.655   2.823
60451W        W32711  16.715  16.960   5.076
60452W        W32712  14.294   6.790  10.495
60453W        W32713  18.084  25.016   1.779
60454W        W32714  34.316  43.014   2.635
60455W        W32715  38.046  13.541   4.737
60456W        W32716  18.394  43.303   2.680
60457W        W32717  24.128   4.929   3.188
60458W        W32718  24.877   2.379  10.682
60459W        W32719   4.423   9.744   4.755
60460W        W32720  15.306  20.087   0.982
60461W        W32721  15.379  44.995   0.952
60462W        W32722  33.446  29.678   2.744
60463W        W32723  22.740   6.885  13.349
60464W        W32724  22.749  44.504   1.816
60465W        W32725  22.679   7.189   2.668
60466W        W32726  10.650  44.273  13.772
60467W        W32727  10.286   2.383  10.877
60468W        W32728   8.470   7.752  13.101
60469W        W32729  23.921  13.118   2.172
60470W        W32730  10.359   7.257   3.165
60471W        W32731  34.559  21.573   1.007
60472W        W32732  41.198  26.040   0.504
60473W        W32733  27.355  20.624   1.700
60474W        W32734  29.536   9.420   1.589
60475W        W32735  40.390   7.853  14.566
60476W        W32736  26.961   7.883  10.469
60477W        W32737  29.027  30.170  11.435
60478W        W32738  36.900  11.293   1.231
60479W        W32739   9.734   1.352   2.616
60480W        W32740  26.919  24.641  11.956
60481W        W32741  37.155  22.646   3.724
60482W        W32742  38.170  25.748  13.861
60483W        W32743   5.955  33.905   1.361
60484W        W32744  13.658  12.284   4.546
60485W        W32745  43.370  33.628  11.864
60486W        W32746   5.209  19.750  12.535
60487W        W32747   7.375  20.261  10.481
60488W        W32748  15.326  22.609  12.927
60489W        W32749  10.355   7.122   4.629
60490W        W32750   7.319   6.899   4.364
60491W        W32751  30.153  39.441  12.456
60492W        W32752  38.250  32.113  11.136
60493W        W32753  41.260  44.938   4.175
60494W        W32754   7.617  14.368  13.904
60495W        W32755  35.402   8.544  11.198
60496W        W32756  19.221   0.274  14.863
60497W        W32757  20.052  11.708  11.959
60498W        W32758  20.367  41.763  12.524
60499W        W32759  28.659  23.089  14.409
60500W        W32760  14.814  37.018   3.600
60501W        W32761  44.810  43.736   3.683
60502W        W32762  11.855  31.607  10.834
60503W        W32763   9.641  33.552   4.318
60504W        W32764  15.075  41.413   1.832
60505W        W32765  30.333  24.001   1.912
60506W        W32766   5.649   6.273   1.861
60507W        W32767  29.114  26.167   4.516
60508W        W32768  13.246  28.335   9.801
60509W        W32769   6.264  21.283  11.996
60510W        W32770  11.735   9.694   3.682
60511W        W32771  34.642  12.110   4.204
60512W        W32772  18.714  34.359   2.859
60513W        W32773  13.305  27.072  10.305
60514W        W32774   5.277  35.932  14.389
60515W        W32775   6.940   0.393  12.813
60516W        W32776  15.050  32.005  12.814
60517W        W32777  35.075  27.199   1.764
60518W        W32778  36.742   1.264  10.722
60519W        W32779  41.328  43.743  14.409
60520W        W32780  35.518  20.249   1.351
60521W        W32781  40.025   6.527  11.657
60522W        W32782  43.728  31.113   4.364
60523W        W32783   6.978  43.550   3.368
60524W        W32784   1.691  32.642  14.448
60525W        W32785  39.957  28.593   2.094
60526W        W32786  26.522  16.120   1.933
60527W        W32787  38.483   5.166  12.582
60528W        W32788  28.421  28.174  11.641
60529W        W32789  36.468  39.684  11.918
60530W        W32790   0.962  16.258  13.995
60531W        W32791   2.725  10.126   2.809
60532W        W32792  15.637  35.104   2.914
60533W        W32793  44.338   9.657   2.721
60534W        W32794  13.429  37.337  11.593
60535W        W32795  25.300  43.070   2.726
60536W        W32796  10.757  20.496   4.058
60537W        W32797  41.409  20.499   1.642
60538W        W32798   4.777  20.073   2.886
60539W        W32799   0.260  20.814   0.314
60540W        W32800  41.484   6.964   2.926
60541W        W32801  31.887   0.321  14.885
60542W        W32802   1.772  29.821  11.438
60543W        W32803   3.360  11.393  11.643
60544W        W32804   2.037  31.902  10.183
60545W        W32805  37.548  15.725   1.991
60546W        W32806   7.420  35.444   4.594
60547W        W32807  30.581  34.737   0.997
60548W        W32808  29.575  10.272   5.146
60549W        W32809  19.068  23.117  10.599
60550W        W32810  17.248   6.761   1.079
60551W        W32811  23.583  25.105   0.092
60552W        W32812  17.587  28.113  11.116
60553W        W32813  42.958  28.268   0.004
60554W        W32814  28.582  17.741   0.621
60555W        W32815  39.375  25.775  12.059
60556W        W32816  10.030  16.910   1.419
60557W        W32817  30.556  38.375   2.656
60558W        W32818  24.754   8.845  11.491
60559W        W32819  20.071  39.405  10.780
60560W        W32820   5.660  34.262   1.671
60561W        W32821   8.160   7.924   3.658
60562W        W32822   7.447  33.792   3.622
60563W        W32823  42.812  19.155   3.740
60564W        W32824  44.768  39.037   0.851
60565W        W32825  22.417  37.425   1.446
60566W        W32826   0.430  16.790   1.686
60567W        W32827  14.895   1.350  12.056
60568W        W32828  43.002  38.242   1.246
60569W        W32829   2.299  10.340   1.872
60570W        W32830  25.141  36.463  10.518
60571W        W32831  30.813   2.517  12.946
60572W        W32832  33.870  24.664  12.231
60573W        W32833  17.309  37.970  11.277
60574W        W32834  19.922  19.064   4.559
60575W        W32835  37.954  22.722  11.575
60576W        W32836  41.934  26.595  12.522
60577W        W32837   8.379   3.721  11.624
60578W        W32838   8.817  10.663  14.454
60579W        W32839  32.051  21.257   2.358
60580W        W32840  26.941  23.676  14.276
60581W        W32841  39.979  35.404   4.629
60582W        W32842  37.244  22.037  14.395
60583W        W32843  11.898   3.720   1.851
60584W        W32844  30.429  29.044  12.428
60585W        W32845  11.694  14.266   0.808
60586W        W32846  28.173   7.767   3.392
60587W        W32847  35.152  24.755  12.041
60588W        W32848  14.705  37.527   2.671
60589W        W32849   0.799  11.912  12.801
60590W        W32850  13.073  17.738   4.975
60591W        W32851  23.027  27.613   3.880
60592W        W32852  13.093  19.231   3.187
60593W        W32853   6.415   3.482   5.043
60594W        W32854  14.262  37.008   3.561
60595W        W32855  39.793   7.875  10.351
60596W        W32856  13.090  36.543  11.915
60597W        W32857  15.872  42.749   0.519
60598W        W32858  38.974  18.619  13.349
60599W        W32859  31.859  28.666  13.783
60600W        W32860  14.174  41.241  14.778
60601W        W32861  42.360  35.724   3.142
60602W        W32862   8.226  30.285  12.825
60603W        W32863  25.521  20.831  11.566
60604W        W32864  21.021  23.559  14.407
60605W        W32865  41.840   8.111   4.341
60606W        W32866  36.224   9.277  14.400
60607W        W32867  16.534  11.879  14.538
60608W        W32868  11.277  23.565  12.112
60609W        W32869   9.863  27.219   3.781
60610W        W32870  20.019  33.101   3.643
60611W        W32871   6.843  11.741   0.155
60612W        W32872  38.588  41.217   0.482
60613W        W32873   3.720  38.572  14.539
60614W        W32874  34.971  35.869  11.953
60615W        W32875  27.015  20.770  11.948
60616W        W32876  39.950  37.320  14.808
60617W        W32877  11.751  38.451   4.836
60618W        W32878  13.193  29.201   3.261
60619W        W32879  27.707  10.934  12.019
60620W        W32880  30.112  25.196  11.135
60621W        W32881   8.687  20.393   1.894
60622W        W32882   4.856  34.852  11.079
60623W        W32883  29.162  12.718   0.887
60624W        W32884  12.142  11.221  12.106
60625W        W32885  38.710  23.375   0.847
60626W        W32886   9.586  38.025  11.931
60627W        W32887  20.661  20.638  12.684
60628W        W32888  19.520   5.724   2.912
60629W        W32889   7.324  27.456  12.994
60630W        W32890   5.298   6.427   0.870
60631W        W32891  39.492  25.554   1.453
60632W        W32892  44.808  26.773  11.062
60633W        W32893  32.544  15.816   1.157
60634W        W32894  31.107  26.128  11.118
60635W        W32895  38.151  21.044  12.900
60636W        W32896  36.410  26.347  11.854
60637W        W32897  39.548   5.464   1.548
60638W        W32898  29.753  34.135  14.539
60639W        W32899  30.983  18.049   3.401
60640W        W32900  35.412  35.927   1.802
60641W        W32901  13.967  27.395  12.149
60642W        W32902  26.282  30.570   2.749
60643W        W32903  42.377  15.259   3.127
60644W        W32904  29.135  10.678   1.665
60645W        W32905   9.236  11.804   4.095
60646W        W32906  32.086  29.473  13.450
60647W        W32907  36.131  37.113  12.610
60648W        W32908  10.647  14.271   2.263
60649W        W32909  42.619  16.084   1.438
60650W        W32910   3.946  31.007   3.721
60651W        W32911  20.119  41.962  14.736
60652W        W32912  24.608   4.911   0.897
60653W        W32913  20.852  20.314   5.127
60654W        W32914  12.088  27.436   1.469
60655W        W32915  38.123  28.067   1.703
60656W        W32916  43.761  16.214   0.059
60657W        W32917  31.245  25.589  14.748
60658W        W32918  23.137  21.632   3.782
60659W        W32919   3.840  16.041   2.775
60660W        W32920   9.768   6.719   4.153
60661W        W32921  25.602  41.088   3.821
60662W        W32922  33.579  18.057   4.175
60663W        W32923  36.635  41.892  10.503
60664W        W32924  29.504  23.001   2.167
60665W        W32925  26.681  35.875  12.564
60666W        W32926  19.085   6.267   2.482
60667W        W32927   1.859  19.561   2.518
60668W        W32928   0.580  38.009   2.335
60669W        W32929   7.125   8.181   2.678
60670W        W32930  21.289   8.226  10.507
60671W        W32931   4.660  42.491   1.470
60672W        W32932  23.151  11.251   1.744
60673W        W32933  24.350   1.940   2.674
60674W        W32934   5.318  41.112   1.398
60675W        W32935  42.374   5.381   1.447
60676W        W32936  44.544   1.146  13.531
60677W        W32937  40.305  35.639  10.656
60678W        W32938  15.615  41.197   3.167
60679W        W32939  27.701  20.076  11.618
60680W        W32940  38.084  12.229  14.244
60681W        W32941  36.311  25.995  14.021
60682W        W32942  41.437  26.559   4.071
60683W        W32943  32.487  19.094   4.191
60684W        W32944   8.988   7.028   1.600
60685W        W32945   7.330  11.606   2.775
60686W        W32946  11.634  14.640  14.320
60687W        W32947   7.116  32.701  13.864
60688W        W32948   8.138  31.088   1.744
60689W        W32949   0.781  35.313  14.091
60690W        W32950  14.760  42.442   1.343
60691W        W32951  29.992  29.579  10.446
60692W        W32952  18.652  34.875  13.998
60693W        W32953  25.169  42.304   0.482
60694W        W32954   2.453  43.170   1.876
60695W        W32955  40.878  17.129  12.212
60696W        W32956  21.966  26.727  14.457
60697W        W32957   3.293  13.626  10.760
60698W        W32958  28.095   9.731   2.444
60699W        W32959   3.010   5.758  13.335
60700W        W32960   1.463   9.882  13.596
60701W        W32961  35.839  19.024   4.120
60702W        W32962   2.479   2.765   2.580
60703W        W32963  36.721  40.952  10.510
60704W        W32964  31.351  19.865  14.844
60705W        W32965   5.982  30.008  14.417
60706W        W32966  25.140   7.289   3.278
60707W        W32967  36.417   6.396   0.288
60708W        W32968  35.356  28.933  11.143
60709W        W32969  30.976  16.011  11.996
60710W        W32970   3.349  14.118  10.920
60711W        W32971  39.072  26.931   0.359
60712W        W32972   4.750  28.248   4.240
60713W        W32973   5.405   1.765  10.470
60714W        W32974   1.768  29.696   3.748
60715W        W32975  15.460  28.491  14.884
60716W        W32976  35.442  11.835   3.162
60717W        W32977  43.934  37.703  11.055
60718W        W32978   3.031  27.819  11.580
60719W        W32979   8.119  36.050  12.856
60720W        W32980  12.910  43.595   3.635
60721W        W32981  44.170  38.979   3.777
60722W        W32982  16.308  28.480  13.093
60723W        W32983  28.995  39.040   1.725
60724W        W32984  23.594   2.992  13.316
60725W        W32985  20.768  35.025   3.087
60726W        W32986  29.242  14.172   2.317
60727W        W32987  34.813  25.625  11.624
60728W        W32988  31.494  13.320   3.009
60729W        W32989  27.145  41.764   1.422
60730W        W32990  38.957   9.170  10.013
60731W        W32991  39.365   9.820   3.233
60732W        W32992  19.358  41.490   2.811
60733W        W32993  30.845  23.540   3.028
60734W        W32994  33.019  22.905  11.100
60735W        W32995  11.765  14.653  10.687
60736W        W32996   1.356  44.840   2.627
60737W        W32997  29.594  31.528   4.996
60738W        W32998  10.788  18.591   5.001
60739W        W32999  13.630  38.603   0.538
60740W        W33000  43.029  33.251  11.042
60741W        W33001   8.181  29.666   4.161
60742W        W33002  36.059   3.366  12.541
60743W        W33003   2.911  40.840   2.754
60744W        W33004  28.583  24.397  13.099
60745W        W33005   0.750  31.982   1.988
60746W        W33006  28.985  23.012  11.753
60747W        W33007  35.599  36.328  13.996
60748W        W33008  38.794  25.649  10.705
60749W        W33009  30.084  28.434   2.775
60750W        W33010  13.867   9.153  14.418
60751W        W33011  14.210  12.663   0.193
60752W        W33012   7.975  25.910   4.555
60753W        W33013  30.731  37.870   2.646
60754W        W33014  30.056  38.587   3.879
60755W        W33015   7.172   9.324  12.863
60756W        W33016   6.849   1.721  12.951
60757W        W33017  28.859  20.661   0.287
60758W        W33018  28.417  41.314   0.330
60759W        W33019   3.821  41.906  10.765
60760W        W33020  39.414  43.026   1.308
60761W        W33021  17.256  21.372   2.707
60762W        W33022  29.085  34.878  14.192
60763W        W33023  19.017  29.261   0.367
60764W        W33024  41.935   2.501   3.360
60765W        W33025  23.532  35.618   3.049
60766W        W33026   5.929  44.489   4.577
60767W        W33027  36.048  41.763  13.464
60768W        W33028  13.674  36.829  14.911
60769W        W33029   5.377  13.761  13.547
60770W        W33030   4.471  42.146  13.760
60771W        W33031   2.528  24.737   1.831
60772W        W33032  29.405  27.151  13.406
60773W        W33033  17.678  43.957  11.497
60774W        W33034  43.098  17.567   5.081
60775W        W33035  10.611  11.083  12.055
60776W        W33036  18.373  25.118  12.518
60777W        W33037  14.814  35.974   1.374
60778W        W33038  42.774  22.756   4.376
60779W        W33039  43.552  35.141  12.990
60780W        W33040  26.154  18.820  11.103
60781W        W33041  26.732  34.777   3.182
60782W        W33042  17.198  32.565   4.496
60783W        W33043  26.211  26.132  14.431
60784W        W33044   2.645  30.062   2.157
60785W        W33045  15.562   6.191   1.795
60786W        W33046  41.190  34.639  12.518
60787W        W33047  44.638   6.669  12.409
60788W        W33048  22.577  26.719  13.487
60789W        W33049  35.118   9.440  12.015
60790W        W33050  33.363  30.827  11.867
60791W        W33051   1.883   1.528  11.068
60792W        W33052   8.079  10.869  12.082
60793W        W33053  21.816   3.397   2.740
60794W        W33054  30.413   7.807   5.143
60795W        W33055  21.111  15.626  11.637
60796W        W33056  28.706  30.626   3.121
60797W        W33057  13.635   6.300   3.659
60798W        W33058  29.431  18.061   4.640
60799W        W33059  28.438   0.898   1.185
60800W        W33060  31.932  14.279  11.367
60801W        W33061   6.785  11.227   3.261
60802W        W33062  41.926  27.004  14.285
60803W        W33063  25.081  32.978   0.220
60804W        W33064  12.278  26.691  13.333
60805W        W33065   4.617  36.075  14.879
60806W        W33066  12.157  38.113   0.269
60807W        W33067  16.791  10.680  14.640
60808W        W33068  14.513  11.690   1.031
60809W        W33069  35.661  44.357  11.058
60810W        W33070  19.465  30.452  14.008
60811W        W33071  23.072  20.307  14.464
60812W        W33072  42.578  33.534   1.969
60813W        W33073  41.846  24.593   0.857
60814W        W33074  30.133  30.892  13.983
60815W        W33075  10.732  24.552   4.851
60816W        W33076  10.724   8.949   4.120
60817W        W33077  30.231  24.279   1.023
60818W        W33078  25.721   0.813   1.782
60819W        W33079  32.932  41.667  10.960
60820W        W33080  14.025   0.515   2.354
60821W        W33081  43.211  14.883   2.174
60822W        W33082  40.008  43.992   0.911
60823W        W33083  26.426  24.301   1.326
60824W        W33084  37.044  39.570  13.789
60825W        W33085  41.464  22.534   3.918
60826W        W33086   9.299  14.773  11.443
60827W        W33087  40.630   8.665   4.983
60828W        W33088  27.117  41.477  11.349
60829W        W33089   6.750  43.115   3.153
60830W        W33090  30.694   5.748   2.296
60831W        W33091  31.982  28.311  14.548
60832W        W33092  13.422  42.789  10.174
60833W        W33093  14.608  26.267  12.892
60834W        W33094  23.119  24.491   3.781
60835W        W33095  35.415  16.258   2.849
60836W        W33096  35.826  28.268  10.753
60837W        W33097  11.566  25.773  12.147
60838W        W33098   8.611   2.761  10.797
60839W        W33099  24.697  11.611  12.119
60840W        W33100  10.387  12.587  13.333
60841W        W33101   1.382  18.232   4.757
60842W        W33102  12.141  36.335  13.346
60843W        W33103   8.917  35.600   2.789
60844W        W33104  10.651  34.342   0.662
60845W        W33105  13.635  37.434   3.069
60846W        W33106   6.345   2.768  11.100
60847W        W33107  19.159  34.172   4.461
60848W        W33108  44.555  31.588   2.578
60849W        W33109  16.055  35.976   3.229
60850W        W33110  32.343  37.611  10.820
60851W        W33111  30.672  40.281   3.542
60852W        W33112   3.144  15.947  12.644
60853W        W33113   8.420   5.754  10.597
60854W        W33114  16.799  10.844  12.659
60855W        W33115   5.236  42.504  13.835
60856W        W33116   0.791  21.112  12.887
60857W        W33117  22.667  23.560   2.734
60858W        W33118  30.001  42.306   2.607
60859W        W33119   1.087   8.807   3.799
60860W        W33120  24.234  26.209   3.080
60861W        W33121  20.166  42.468   4.770
60862W        W33122   7.990  25.134   3.063
60863W        W33123  44.020  14.733  12.396
60864W        W33124  16.733  27.167  11.020
60865W        W33125  26.845  11.554  14.394
60866W        W33126   7.930  32.395  12.004
60867W        W33127  12.676  11.061  12.729
60868W        W33128   7.613  41.540  14.546
60869W        W33129  39.069  41.038  10.725
60870W        W33130  24.203  42.226  10.609
60871W        W33131  42.478  31.229   3.662
60872W        W33132  35.498  44.763   1.965
60873W        W33133  27.022  33.550   1.178
60874W        W33134  17.026  38.848  14.835
60875W        W33135  27.986  30.120   0.278
60876W        W33136  21.717  33.998   0.737
60877W        W33137  32.558   4.348  10.497
60878W        W33138   4.810  10.044  12.958
60879W        W33139  25.022   3.736   4.336
60880W        W33140   6.633  44.554   4.039
60881W        W33141  15.764  33.183   0.081
60882W        W33142  28.268  33.481   3.366
60883W        W33143  13.439   2.354  13.790
60884W        W33144   0.741  42.884   0.315
60885W        W33145  34.031   8.760  14.358
60886W        W33146  16.128  23.123  12.900
60887W        W33147  19.310  28.483  11.129
60888W        W33148   9.870  15.711   1.743
60889W        W33149  20.409   1.946  14.084
60890W        W33150  12.336  22.108  10.485
60891W        W33151  21.469  13.767   2.833
60892W        W33152  16.497   9.427  12.854
60893W        W33153  14.277  36.159  11.622
60894W        W33154  35.971   2.651  10.746
60895W        W33155  24.107  29.688   0.310
60896W        W33156  31.247  26.434  11.902
60897W        W33157   1.029  29.225  13.099
60898W        W33158   5.936   9.806   2.357
60899W        W33159  14.629   3.665   4.176
60900W        W33160  37.665  19.922   5.074
60901W        W33161  28.942   1.032   1.684
60902W        W33162   2.335  32.025   4.570
60903W        W33163   1.342  41.256  11.067
60904W        W33164   4.868  43.537   2.812
60905W        W33165  15.871  34.111  10.959
60906W        W33166  37.876  18.144   2.704
60907W        W33167  38.531  41.333   2.723
60908W        W33168   1.275   4.444   3.649
60909W        W33169   2.596   5.810   2.135
60910W        W33170  28.971  41.744   3.468
60911W        W33171  21.643  21.792   1.278
60912W        W33172  27.059  19.873  14.955
60913W        W33173   6.610  31.055   0.475
60914W        W33174  36.182   8.418  10.107
60915W        W33175  15.200  36.594  11.667
60916W        W33176  12.860  27.545   3.090
60917W        W33177  41.438  26.964   3.325
60918W        W33178  14.525  16.794  11.952
60919W        W33179  43.853  17.582  13.378
60920W        W33180  11.711  11.889   0.351
60921W        W33181  36.082  30.907  11.651
60922W        W33182  14.723  44.970   1.783
60923W        W33183   4.939  43.038   2.688
60924W        W33184   7.898  42.371  12.930
60925W        W33185  36.103  37.930  14.650
60926W        W33186  24.016  11.413   4.271
60927W        W33187  33.454  44.077  14.412
60928W        W33188  15.298  25.464  14.691
60929W        W33189  30.954  17.994  14.798
60930W        W33190   6.068  21.508   1.619
60931W        W33191  36.524  22.635  10.794
60932W        W33192   8.990  13.552  11.583
60933W        W33193  39.567  18.533  11.713
60934W        W33194  41.870  35.589  14.855
60935W        W33195  14.897  39.944  13.498
60936W        W33196  15.909  24.715  11.189
60937W        W33197  17.538  21.430  14.510
60938W        W33198   8.206  22.404   3.957
60939W        W33199  35.875  34.952  10.566
60940W        W33200  21.419  43.926  13.465
60941W        W33201   2.460  29.142  10.679
60942W        W33202   3.267   9.672  12.055
60943W        W33203  26.970  26.657  13.809
60944W        W33204  42.395  24.288  14.053
60945W        W33205  23.693  21.260   2.253
60946W        W33206  29.757   1.532   2.688
60947W        W33207   7.225  35.996   2.821
60948W        W33208  23.450  42.348  11.138
60949W        W33209   2.187  29.195  13.470
60950W        W33210  40.032  21.134   0.740
60951W        W33211  11.871  36.930  14.212
60952W        W33212  16.152  30.007  13.004
60953W        W33213   2.397   9.847  14.827
60954W        W33214   1.953  26.274  10.484
60955W        W33215  29.146  25.144   0.915
60956W        W33216  15.249  37.937  10.935
60957W        W33217  34.098  26.226  14.895
60958W        W33218   3.864   5.068   3.712
60959W        W33219  11.479  13.842  14.210
60960W        W33220  41.509  15.675  10.248
60961W        W33221  21.102  16.577   0.583
60962W        W33222   6.423  32.831   0.392
60963W        W33223  13.077  11.567  13.843
60964W        W33224   8.153  25.789   1.273
60965W        W33225  36.863  10.869   0.829
60966W        W33226   3.833  13.144   2.310
60967W        W33227  29.539  37.030   1.348
60968W        W33228  26.707  28.409  11.106
60969W        W33229  33.790  24.956   1.761
60970W        W33230  34.469   6.022  13.217
60971W        W33231   4.348  17.299   1.942
60972W        W33232  18.032  24.596  13.952
60973W        W33233   5.504  43.869   3.348
60974W        W33234  33.930  23.239   4.050
60975W        W33235   1.859  30.682   3.102
60976W        W33236   4.762  11.902   1.282
60977W        W33237  36.575   3.714  12.514
60978W        W33238  44.382   1.484   4.421
60979W        W33239  27.088  13.855   3.083
60980W        W33240  38.501   9.729   1.943
60981W        W33241  26.393   7.806  11.723
60982W        W33242  44.236  35.410  12.439
60983W        W33243  15.755  28.265   2.603
60984W        W33244   2.306  17.778  11.848
60985W        W33245  12.965   4.830   1.342
60986W        W33246   5.851  36.637   2.316
60987W        W33247   5.936  22.504  14.273
60988W        W33248  38.798   8.681   4.627
60989W        W33249   9.699  42.821  13.877
60990W        W33250  15.917  30.469   0.213
60991W        W33251   4.860   4.173   4.607
60992W        W33252   6.136  32.107   4.147
60993W        W33253  44.354  30.354  11.397
60994W        W33254  10.895   6.428  13.048
60995W        W33255  30.736  21.274  11.144
60996W        W33256  38.485  13.597   3.795
60997W        W33257  41.096  33.063   4.211
60998W        W33258  23.639  25.654   4.657
60999W        W33259   9.261  37.298   3.270
61000W        W33260  36.430   5.768  14.347
61001W        W33261  44.419   4.925   4.896
61002W        W33262  34.895  17.019  12.082
61003W        W33263   8.017   3.459  13.091
61004W        W33264   3.432  29.472  13.031
61005W        W33265   7.946  26.016  14.904
61006W        W33266  18.246  24.611  14.868
61007W        W33267  37.596   8.684  13.415
61008W        W33268   7.471  35.439   1.067
61009W        W33269  14.098  24.980  14.114
61010W        W33270  33.338  26.846   0.377
61011W        W33271  34.054  43.871   4.297
61012W        W33272  33.364   5.344   3.123
61013W        W33273  34.382  38.487   4.869
61014W        W33274   3.597  39.588  12.451
61015W        W33275  34.331  34.930   1.875
61016W        W33276  19.777   2.962  11.958
61017W        W33277  27.426  33.122  11.955
61018W        W33278   1.575  20.851  14.268
61019W        W33279  35.995  35.126   4.165
61020W        W33280  36.025  37.139   1.988
61021W        W33281  40.485  12.177   0.793
61022W        W33282   4.933  29.235  11.682
61023W        W33283  35.066  24.191   3.587
61024W        W33284   7.337  24.211  14.006
61025W        W33285   9.214   4.924   2.332
61026W        W33286  32.650  40.470   1.429
61027W        W33287  23.961   3.761   0.839
61028W        W33288  29.543   2.470  13.450
61029W        W33289  27.378  42.482   1.275
61030W        W33290  43.030  32.883  13.209
61031W        W33291  28.963  21.772  13.060
61032W        W33292  24.745  11.794   3.231
61033W        W33293   9.439  33.387  12.900
61034W        W33294   0.925  42.273   4.577
61035W        W33295  28.750  17.871   1.821
61036W        W33296  35.630  19.232   1.785
61037W        W33297  40.319   0.899   1.523
61038W        W33298  39.684  35.465   2.665
61039W        W33299  26.035  10.794  13.804
61040W        W33300  11.096  28.555  14.931
61041W        W33301  25.256  33.137   4.175
61042W        W33302  10.767  39.553   1.442
61043W        W33303  18.945   4.951   2.666
61044W        W33304  26.333  44.682  13.820
61045W        W33305  42.969   7.556   1.635
61046W        W33306  11.935  10.819  14.655
61047W        W33307  39.308  44.338   4.651
61048W        W33308  15.582  19.676   1.743
61049W        W33309   0.744  21.617   4.818
61050W        W33310  16.619   6.667   3.388
61051W        W33311  42.994  12.418  10.638
61052W        W33312   2.476  21.000   1.600
61053W        W33313  42.472   1.507  14.382
61054W        W33314  26.654   9.956  14.794
61055W        W33315  41.546  10.849   2.854
61056W        W33316   0.548  23.204   4.950
61057W        W33317  38.945  23.671  10.674
61058W        W33318  16.270  30.160   1.864
61059W        W33319  36.575  42.333   2.870
61060W        W33320   0.808  11.159  13.717
61061W        W33321  34.534   4.598   1.813
61062W        W33322  12.282  37.027   4.171
61063W        W33323  43.784   2.805  14.290
61064W        W33324  27.692   2.866  11.025
61065W        W33325  38.503  16.517  10.717
61066W        W33326  37.900  30.956   2.360
61067W        W33327  35.120   5.788   1.122
61068W        W33328  30.623   1.920   3.234
61069W        W33329  20.099  27.594   3.939
61070W        W33330   7.142   7.660   2.682
61071W        W33331  36.418  16.050   3.812
61072W        W33332  38.129  13.128   3.279
61073W        W33333   3.651  18.515  12.028
61074W        W33334  37.290  40.949   1.564
61075W        W33335  38.947  15.242  14.498
61076W        W33336  41.901  39.248   2.366
61077W        W33337  44.571  20.773  12.507
61078W        W33338   5.383  20.556  14.685
61079W        W33339  29.183  34.451  12.485
61080W        W33340  15.785  37.218   1.920
61081W        W33341  37.679   7.722   4.893
61082W        W33342  37.206   0.304  14.522
61083W        W33343  10.127  38.518  13.581
61084W        W33344  16.418  20.833  12.608
61085W        W33345  19.640  11.023   1.482
61086W        W33346  15.934   7.128  11.213
61087W        W33347  17.645   3.815   2.145
61088W        W33348  38.564  20.886   2.232
61089W        W33349   2.722  43.626   1.000
61090W        W33350   7.895  39.856  13.434
61091W        W33351   0.363  24.490  14.555
61092W        W33352  15.194  20.545   1.188
61093W        W33353  31.946   1.139   3.383
61094W        W33354  39.969  35.811  12.373
61095W        W33355  10.759  23.948   1.935
61096W        W33356   2.280  30.932  14.030
61097W        W33357  29.379  17.027   4.135
61098W        W33358  43.841  43.413  13.139
61099W        W33359  43.947  31.466  12.850
61100W        W33360  26.189  33.435   1.816
61101W        W33361  41.877  25.204   2.349
61102W        W33362  29.991  24.166  12.534
61103W        W33363  26.982  34.193  14.851
61104W        W33364  19.520  36.595   3.592
61105W        W33365  44.228   6.937  12.638
61106W        W33366  36.916  25.489   0.328
61107W        W33367  14.053   4.430   3.214
61108W        W33368  10.040  12.827  13.004
61109W        W33369  40.962  10.666  14.016
61110W        W33370  14.699   9.670  11.528
61111W        W33371  25.141  41.971   4.004
61112W        W33372  33.161  21.610  14.558
61113W        W33373  15.179  35.804  13.328
61114W        W33374  35.620  26.163  12.270
61115W        W33375  41.976  33.799  10.184
61116W        W33376  21.717  33.176  12.039
61117W        W33377  22.036  17.981   3.797
61118W        W33378  34.192  35.911   0.370
61119W        W33379   4.093  29.418  11.098
61120W        W33380  14.601  15.769  12.073
61121W        W33381  15.126  26.794   3.166
61122W        W33382   6.520  31.896  10.708
61123W        W33383   1.435  19.829   3.313
61124W        W33384  12.183  41.916  12.425
61125W        W33385  17.129  38.001  12.772
61126W        W33386  40.068   9.040   5.402
61127W        W33387  14.915  32.120  11.815
61128W        W33388   3.593  10.977   0.766
61129W        W33389  25.402  34.505   1.446
61130W        W33390  18.082  13.543  10.437
61131W        W33391  19.947  15.546   1.830
61132W        W33392  29.990  14.004   1.259
61133W        W33393  22.089  11.116  12.930
61134W        W33394  27.915  31.402   0.765
61135W        W33395   5.412  37.228   1.629
61136W        W33396  39.660  24.075   1.184
61137W        W33397   6.785   1.998   0.480
61138W        W33398  27.053  42.434  14.294
61139W        W33399   7.323   7.910   0.500
61140W        W33400  16.097  10.616  14.031
61141W        W33401  29.214  12.284   1.618
61142W        W33402  17.743  32.672   1.726
61143W        W33403  12.184  12.213   3.138
61144W        W33404  37.808  17.688  12.481
61145W        W33405   6.751  43.659  13.851
61146W        W33406  39.312   8.941  13.855
61147W        W33407  40.359   1.831   3.377
61148W        W33408  34.832  27.123  14.347
61149W        W33409  30.013  34.775   5.108
61150W        W33410  18.530   3.969   4.238
61151W        W33411  25.690  22.124  13.043
61152W        W33412  39.901   0.733  14.843
61153W        W33413  33.532  28.982   0.780
61154W        W33414  17.255   4.057   0.821
61155W        W33415   4.021  33.487  12.479
61156W        W33416  18.107  21.251   3.264
61157W        W33417  27.042  32.881   0.384
61158W        W33418  44.255   5.820  14.527
61159W        W33419   5.705   8.408   0.414
61160W        W33420  42.847  21.740   3.292
61161W        W33421  21.663  29.941  12.397
61162W        W33422  21.273  24.776  14.054
61163W        W33423  37.917   1.814  12.477
61164W        W33424  35.689  18.474   0.539
61165W        W33425  13.809   8.249  13.886
61166W        W33426   3.455  43.846   4.510
61167W        W33427  30.867  24.740  11.132
61168W        W33428   4.678  38.508  14.223
61169W        W33429  13.368  22.592   1.377
61170W        W33430  31.490  38.984  11.656
61171W        W33431  15.037  30.349  14.824
61172W        W33432  17.121  37.750  14.461
61173W        W33433  35.783  37.961  13.279
61174W        W33434  39.994  39.357   4.603
61175W        W33435  21.037  21.588   4.655
61176W        W33436   7.698  37.789   3.202
61177W        W33437   1.952  26.105   2.365
61178W        W33438  39.999  10.820   2.812
61179W        W33439   8.851   9.973  13.906
61180W        W33440  36.114  22.162   2.645
61181W        W33441  34.631  32.876  14.483
61182W        W33442  30.820  37.183  11.102
61183W        W33443  27.447  12.692  14.538
61184W        W33444   4.640  17.850   3.673
61185W        W33445  21.782   1.796   0.156
61186W        W33446  19.127  17.498   1.459
61187W        W33447  22.087  21.060  14.716
61188W        W33448   7.654  39.036   1.765
61189W        W33449  35.261  31.469   0.048
61190W        W33450   1.720  19.598  13.729
61191W        W33451  10.680  41.474   4.852
61192W        W33452   7.629  38.134  11.898
61193W        W33453   6.339  33.187  11.922
61194W        W33454  38.084   3.525  14.428
61195W        W33455  42.532  38.537  12.824
61196W        W33456  19.348  36.633   4.068
61197W        W33457  32.373  42.556   4.728
61198W        W33458  43.431   9.651   1.247
61199W        W33459  25.591   9.739   0.578
61200W        W33460  13.466  12.822  13.281
61201W        W33461  42.550  11.107   1.337
61202W        W33462  16.519  38.929   0.859
61203W        W33463  10.751  35.489  10.707
61204W        W33464  18.576   1.137  12.534
61205W        W33465  35.451  39.342   1.001
61206W        W33466  17.401  21.829  13.249
61207W        W33467   1.695  34.841   2.798
61208W        W33468  18.848  28.219   0.243
61209W        W33469  26.856  14.681   3.627
61210W        W33470  14.552   8.839   2.979
61211W        W33471  43.800  19.640   3.687
61212W        W33472  10.286   3.439   1.295
61213W        W33473   2.449  42.047   1.279
61214W        W33474  35.053  25.370   4.955
61215W        W33475  23.056  26.146  11.442
61216W        W33476  39.299  27.071  13.411
61217W        W33477  17.462  20.276   4.504
61218W        W33478  41.145  23.515   3.505
61219W        W33479  21.111  17.379  14.330
61220W        W33480  15.064   3.843   3.926
61221W        W33481   2.202  14.674   1.844
61222W        W33482   7.385   4.813   1.002
61223W        W33483  35.539  37.556   0.688
61224W        W33484  39.003   9.801   1.899
61225W        W33485  19.132   7.691   0.097
61226W        W33486   0.950  24.263   1.678
61227W        W33487  38.426   0.901  11.500
61228W        W33488  22.221   2.410  12.166
61229W        W33489  35.824   7.500   2.718
61230W        W33490  43.015  42.900  14.688
61231W        W33491  38.892  16.222   4.121
61232W        W33492   2.253  42.429   4.309
61233W        W33493   2.963   4.030   4.092
61234W        W33494  39.835   8.434   4.609
61235W        W33495  18.738  20.724  11.583
61236W        W33496  25.605  24.268   1.893
61237W        W33497  36.831  41.719   1.695
61238W        W33498   0.116  35.216   1.837
61239W        W33499  15.356  20.208   3.765
61240W        W33500  33.070  14.642  13.090
61241W        W33501  16.828  31.429   1.798
61242W        W33502  44.799   5.516   0.642
61243W        W33503  26.728  13.170  14.700
61244W        W33504  36.092  11.623  13.813
61245W        W33505  42.988  41.440  12.984
61246W        W33506  12.558  10.727   4.678
61247W        W33507  28.080  12.041  10.569
61248W        W33508   7.641  42.415   1.672
61249W        W33509   4.443   4.611   0.869
61250W        W33510  34.234  15.206  14.358
61251W        W33511  42.027  17.932   1.439
61252W        W33512   2.436  38.176  11.963
61253W        W33513  20.937   6.892   0.801
61254W        W33514   4.954  20.443  11.817
61255W        W33515  44.999  28.582   1.253
61256W        W33516  20.060  13.966  11.951
61257W        W33517  13.140  21.619  10.710
61258W        W33518   0.434  38.614  11.643
61259W        W33519   4.737   0.295   1.178
61260W        W33520  23.763  35.577  13.837
61261W        W33521  34.140  25.859   2.205
61262W        W33522  19.441  30.991  11.626
61263W        W33523  20.449  14.813  13.528
61264W        W33524   4.637  24.737  12.019
61265W        W33525  43.347  14.630   3.118
61266W        W33526   9.743  31.952   4.758
61267W        W33527  14.871  13.615   3.325
61268W        W33528  26.736   9.880  10.419
61269W        W33529  24.710  19.261  13.076
61270W        W33530  40.949  38.377   3.095
61271W        W33531  25.956  26.512   1.721
61272W        W33532   4.390  39.831   1.397
61273W        W33533   4.863  31.658   1.752
61274W        W33534  32.986  11.320   3.289
61275W        W33535  15.115  40.484   1.831
61276W        W33536  29.498  30.501   4.572
61277W        W33537  11.241  10.364  10.595
61278W        W33538  39.337  22.861  10.714
61279W        W33539   2.499  27.651  13.964
61280W        W33540  44.408  23.265   4.293
61281W        W33541   4.727  35.645   4.084
61282W        W33542  13.441   3.890   0.219
61283W        W33543   6.344  26.691  13.083
61284W        W33544  30.954  42.903   0.429
61285W        W33545  15.329   5.382   4.250
61286W        W33546   8.654  11.597   1.297
61287W        W33547  29.419  12.823  11.509
61288W        W33548  38.248  25.022  13.326
61289W        W33549  35.768  18.412  12.451
61290W        W33550   1.105  40.343   0.842
61291W        W33551  24.929   4.984   2.711
61292W        W33552  35.265  17.097  12.528
61293W        W33553  27.621  29.510  11.122
61294W        W33554   6.771  34.267  10.410
61295W        W33555  36.172  14.314   2.751
61296W        W33556  33.634  42.995  12.468
61297W        W33557  34.398  43.211  12.045
61298W        W33558  11.523   6.123   1.841
61299W        W33559  16.093  41.365   4.838
61300W        W33560  22.614  44.525   5.066
61301W        W33561  33.167  12.359   2.326
61302W        W33562  44.671  36.488   0.488
61303W        W33563  44.202  24.721   4.283
61304W        W33564  10.217  21.249   2.422
61305W        W33565  27.065   9.602  14.630
61306W        W33566  37.024  44.764  10.720
61307W        W33567  39.028  13.085   4.777
61308W        W33568  27.445   7.809  10.699
61309W        W33569  37.867  17.796  10.653
61310W        W33570  41.587  44.477  13.875
61311W        W33571  42.387  35.219   3.210
61312W        W33572  35.395   5.328   2.484
61313W        W33573  31.201  42.502   2.169
61314W        W33574  22.351  33.900  11.606
61315W        W33575  30.024  32.295  14.234
61316W        W33576  43.838   4.396   3.139
61317W        W33577  40.719  20.004   1.889
61318W        W33578  22.783  41.912   0.959
61319W        W33579   0.176  22.119   2.412
61320W        W33580   2.320   9.109   2.323
61321W        W33581   5.426   4.931  14.340
61322W        W33582  40.664  25.692   2.472
61323W        W33583   5.293  36.616   0.977
61324W        W33584  35.016  31.040   2.942
61325W        W33585   7.661  13.146   1.408
61326W        W33586  28.114   9.857  13.733
61327W        W33587  37.954  44.675  12.258
61328W        W33588   6.089  44.469   1.880
61329W        W33589  23.465   2.871   2.864
61330W        W33590  12.095   8.943   3.623
61331W        W33591   0.479  12.042  10.663
61332W        W33592  28.437  14.696   3.786
61333W        W33593  25.241  12.712  10.767
61334W        W33594   2.374  10.682   4.914
61335W        W33595   1.607   4.205  11.171
61336W        W33596  42.585   0.953  10.734
61337W        W33597  11.704  43.025   3.826
61338W        W33598  29.409  37.277   4.232
61339W        W33599   6.410  38.025  14.477
61340W        W33600  10.055   9.228  13.407
61341W        W33601  23.236  11.216  14.850
61342W        W33602   7.657  14.335  12.271
61343W        W33603   4.914  32.911  13.341
61344W        W33604  42.526  43.911  11.165
61345W        W33605  37.064   6.297   2.976
61346W        W33606  32.168  13.823   4.656
61347W        W33607  19.245  34.684  12.522
61348W        W33608  40.671  40.575  12.062
61349W        W33609  14.169  38.181   2.630
61350W        W33610  32.650  22.101   2.483
61351W        W33611  14.659  14.104   3.284
61352W        W33612   0.189  24.186  14.949
61353W        W33613  22.773  34.404   3.617
61354W        W33614  24.982  32.608   1.348
61355W        W33615  32.465  22.511  11.595
61356W        W33616  34.016  11.256  14.508
61357W        W33617   9.111  19.187   3.428
61358W        W33618  20.769  35.841   3.420
61359W        W33619  44.896  17.824  11.187
61360W        W33620  35.836  40.367  14.883
61361W        W33621  31.341   7.319  14.511
61362W        W33622  17.091  42.831  13.145
61363W        W33623   0.892  43.504   4.099
61364W        W33624  16.036  23.717   3.372
61365W        W33625  43.904  37.526   3.413
61366W        W33626  20.069  43.324  14.813
61367W        W33627  34.111   7.980  11.124
61368W        W33628  24.228  27.531  13.555
61369W        W33629  31.098  25.098   1.166
61370W        W33630  12.766  19.946  13.130
61371W        W33631  16.214  27.948   4.176
61372W        W33632  42.140  36.111   4.090
61373W        W33633  20.650  40.863  12.868
61374W        W33634  12.738  25.088   4.760
61375W        W33635  38.457  11.454  11.224
61376W        W33636  35.493  16.476  11.765
61377W        W33637   5.230  13.814   4.214
61378W        W33638  32.602  21.464   1.903
61379W        W33639  35.098  40.380  14.277
61380W        W33640  19.734  35.835   0.821
61381W        W33641  28.551   1.377   3.381
61382W        W33642  14.801  44.231  13.998
61383W        W33643  13.350  30.690   3.700
61384W        W33644  31.430  36.040   1.648
61385W        W33645  29.403  22.458   3.920
61386W        W33646   2.566  37.947  11.489
61387W        W33647  27.146  30.086   4.713
61388W        W33648  23.110   4.518   3.157
61389W        W33649   0.048  17.117   3.559
61390W        W33650   7.902  39.450  12.483
61391W        W33651  28.180   5.121   2.410
61392W        W33652   9.161  34.938  10.527
61393W        W33653   3.672   3.349  13.320
61394W        W33654  16.248  16.442   1.880
61395W        W33655  38.455  30.981   0.041
61396W        W33656  19.735  11.135   4.605
61397W        W33657  38.476   3.012   0.790
61398W        W33658  31.163  43.914   3.933
61399W        W33659   3.927   4.953   2.768
61400W        W33660  35.649  40.865  10.705
61401W        W33661  39.463  25.996   3.152
61402W        W33662   6.336   6.953   4.501
61403W        W33663   5.386  18.653  13.023
61404W        W33664  38.472   7.841   4.257
61405W        W33665  31.695   9.696  12.955
61406W        W33666  43.812  44.929  12.398
61407W        W33667  34.578  31.071   4.539
61408W        W33668  33.905  12.733  13.837
61409W        W33669   5.966  38.582  12.948
61410W        W33670  39.775   8.192   1.860
61411W        W33671   0.373  34.980   4.865
61412W        W33672  34.469  20.138   2.152
61413W        W33673  35.024   1.191  13.559
61414W        W33674  44.280   8.268   4.703
61415W        W33675   0.920  20.285  11.599
61416W        W33676   5.242  17.733  12.929
61417W        W33677  39.614  14.830   3.291
61418W        W33678  12.159  40.029   2.296
61419W        W33679  43.483   3.202   3.799
61420W        W33680  12.878   8.039  13.755
61421W        W33681  36.226  19.460  14.494
61422W        W33682   9.885  26.460   0.317
61423W        W33683  41.821  33.836   1.270
61424W        W33684   2.595  37.570   3.972
61425W        W33685  15.747  43.854  10.877
61426W        W33686   4.711  13.608  14.136
61427W        W33687  36.130  15.695   0.618
61428W        W33688  38.285  28.439   4.616
61429W        W33689  26.116   3.949  11.550
61430W        W33690  29.098  21.087   0.517
61431W        W33691  24.304  19.922   4.165
61432W        W33692  33.682  40.810   0.544
61433W        W33693  27.436  40.222  10.610
61434W        W33694  18.195   9.873  10.651
61435W        W33695  34.765   1.539   4.125
61436W        W33696  35.572  30.641  10.844
61437W        W33697  31.709  19.263   1.221
61438W        W33698  23.611  31.726  10.765
61439W        W33699  24.032  25.930   4.955
61440W        W33700  14.192  14.246  12.070
61441W        W33701  23.532  14.610  14.058
61442W        W33702   4.320  26.588  14.377
61443W        W33703  42.498   6.147  14.995
61444W        W33704  11.641   1.735  11.926
61445W        W33705  25.546  37.593   2.855
61446W        W33706   0.718  31.906  10.439
61447W        W33707   9.650  12.801   3.234
61448W        W33708  33.343  20.039   3.806
61449W        W33709  17.781   8.282   1.772
61450W        W33710   4.265   7.177   1.861
61451W        W33711  37.030  25.228  11.209
61452W        W33712  30.079  26.074   2.361
61453W        W33713  33.743  41.465  12.243
61454W        W33714  17.030  39.501   3.709
61455W        W33715  20.514  26.920  11.875
61456W        W33716  43.062  12.885  10.411
61457W        W33717   8.679  30.065   0.427
61458W        W33718   1.314  30.563  10.379
61459W        W33719  15.670  19.292  12.429
61460W        W33720  32.538  13.067  14.958
61461W        W33721  16.016   1.398  12.874
61462W        W33722  41.364  23.249   4.275
61463W        W33723  43.528   8.616   4.494
61464W        W33724  16.829  44.448  13.780
61465W        W33725  19.998   8.278   5.054
61466W        W33726  26.980  17.358  14.846
61467W        W33727  31.008   4.678   0.343
61468W        W33728   4.689   7.086   0.545
61469W        W33729  42.804  12.311  14.016
61470W        W33730  44.885  33.393  10.273
61471W        W33731   4.982  36.947  11.202
61472W        W33732  35.480  42.247  10.603
61473W        W33733  34.226  18.430   2.920
61474W        W33734  12.691  29.477  12.022
61475W        W33735  25.491  23.768  10.813
61476W        W33736   8.148  21.784  11.164
61477W        W33737  14.308  22.130  11.472
61478W        W33738   6.203  18.848  10.672
61479W        W33739   1.376  36.539   2.222
61480W        W33740  21.006  27.050   4.207
61481W        W33741   2.805   9.091   4.288
61482W        W33742  37.736  28.816  12.148
61483W        W33743  18.457  24.771  10.794
61484W        W33744  19.144  21.164  12.609
61485W        W33745  24.841  29.524  11.649
61486W        W33746  14.010  42.361   1.910
61487W        W33747  38.930   2.769   1.403
61488W        W33748  30.738  11.206   1.031
61489W        W33749  17.054  37.368   1.369
61490W        W33750  27.371  40.515  12.973
61491W        W33751  36.842  30.372   1.822
61492W        W33752  23.821   2.509  10.651
61493W        W33753  26.061   6.930   3.798
61494W        W33754  21.638  14.660   3.573
61495W        W33755  25.633  11.447   1.343
61496W        W33756  28.202  12.657   4.451
61497W        W33757  40.180  34.005   2.733
61498W        W33758  15.650  35.980  12.056
61499W        W33759  39.235  24.129   2.103
61500W        W33760   4.705  24.263   2.774
61501W        W33761  20.773  44.710   1.868
61502W        W33762  37.058  17.831  14.047
61503W        W33763  13.192  11.703   4.707
61504W        W33764  23.954   4.165  11.929
61505W        W33765  34.161  17.751  14.418
61506W        W33766  28.021  41.054  11.590
61507W        W33767  35.607  39.577  12.464
61508W        W33768  15.613  28.956   3.284
61509W        W33769  33.939  29.816  13.305
61510W        W33770   2.849  44.370  10.588
61511W        W33771  22.479  27.937   5.040
61512W        W33772   2.351  15.378   2.838
61513W        W33773  35.603  17.301  12.894
61514W        W33774  20.568   4.755  12.952
61515W        W33775   3.299  42.819  10.409
61516W        W33776   8.661   6.963   3.952
61517W        W33777   0.500   0.278   3.699
61518W        W33778  18.957   9.253   4.638
61519W        W33779  14.888   0.506  13.910
61520W        W33780  33.260  36.684   9.946
61521W        W33781  35.539  35.777  13.017
61522W        W33782  37.965  24.993  14.628
61523W        W33783   2.725  40.884  13.997
61524W        W33784  31.647   9.624  11.653
61525W        W33785   5.152  43.788  12.359
61526W        W33786   2.720  24.462   2.231
61527W        W33787  26.360  20.843   1.943
61528W        W33788  25.121  20.030   1.480
61529W        W33789  24.665  25.192  14.908
61530W        W33790  16.812  44.300   1.727
61531W        W33791  28.419   4.856  10.617
61532W        W33792  31.202   1.518  13.417
61533W        W33793  16.784  21.973   2.312
61534W        W33794   6.725  16.246   2.017
61535W        W33795   3.190   4.951   2.147
61536W        W33796  33.877  34.727   1.012
61537W        W33797  29.136  35.483   4.075
61538W        W33798  11.843  36.825   3.973
61539W        W33799  21.998  32.591   3.694
61540W        W33800   7.630  20.633   2.665
61541W        W33801  27.698  16.646   4.557
61542W        W33802  36.922  15.539  10.655
61543W        W33803  42.575  11.852  14.940
61544W        W33804  21.449  41.789   3.729
61545W        W33805  25.762  33.894  12.610
61546W        W33806  19.146  42.339  14.344
61547W        W33807  13.109   9.814  14.448
61548W        W33808  21.069  43.236   3.972
61549W        W33809  24.707  14.704   0.974
61550W        W33810  13.883  21.081  12.624
61551W        W33811  25.145  42.877   0.374
61552W        W33812  27.067  36.605   4.638
61553W        W33813  15.807  16.223   1.624
61554W        W33814  18.601  29.933  11.752
61555W        W33815  17.511  43.484   1.136
61556W        W33816   6.245  18.529   4.240
61557W        W33817   8.360  26.458   1.875
61558W        W33818  32.969  44.080   2.258
61559W        W33819   7.446   0.400   3.609
61560W        W33820  10.254  38.553   5.002
61561W        W33821  44.286  27.014  11.903
61562W        W33822   8.429   6.167  14.448
61563W        W33823  27.181  10.693   1.714
61564W        W33824  31.482  43.312  10.742
61565W        W33825  21.089  40.289  12.917
61566W        W33826  27.888  19.547  11.112
61567W        W33827  31.434  18.466   2.758
61568W        W33828  22.932  24.134  14.016
61569W        W33829   5.012  20.970  11.194
61570W        W33830  42.631   6.224   1.859
61571W        W33831   3.783  42.974  12.046
61572W        W33832  38.492  31.746   0.940
61573W        W33833  10.795   8.447  10.673
61574W        W33834  42.068   6.389  14.739
61575W        W33835  12.739  18.510   3.092
61576W        W33836  31.031  38.415  13.958
61577W        W33837  44.933   0.267  11.540
61578W        W33838  15.694  29.359  11.143
61579W        W33839  41.232  16.350  11.071
61580W        W33840  24.417  41.699  14.437
61581W        W33841  20.569   6.455  12.554
61582W        W33842  32.203  28.932  13.471
61583W        W33843  36.591  40.586   2.485
61584W        W33844  36.029  12.243  14.298
61585W        W33845   5.549  41.361  12.500
61586W        W33846   6.930   5.154   3.576
61587W        W33847   7.897   9.424  14.012
61588W        W33848  29.893  26.748   4.522
61589W        W33849  36.750  35.418   0.498
61590W        W33850   1.006  30.734  11.163
61591W        W33851   4.290  11.651   1.320
61592W        W33852  33.964  15.841  10.718
61593W        W33853  32.378   5.619  13.573
61594W        W33854  21.106  12.287  11.533
61595W        W33855  31.869  22.052   2.914
61596W        W33856  34.250  10.178   1.919
61597W        W33857  25.474  16.598  12.531
61598W        W33858  22.743  41.252   3.649
61599W        W33859  33.214  33.304   4.984
61600W        W33860  20.875  22.541   2.282
61601W        W33861  23.013  33.535   1.799
61602W        W33862   7.188  12.077  12.110
61603W        W33863   3.446  10.963   4.914
61604W        W33864   9.700  44.697  11.116
61605W        W33865  33.333  23.588  11.564
61606W        W33866  33.060  17.598   2.791
61607W        W33867  23.205   7.119  10.513
61608W        W33868   1.802  37.464  11.613
61609W        W33869  10.280   6.314   1.305
61610W        W33870   4.994  26.500   3.963
61611W        W33871  39.430   2.707  11.631
61612W        W33872  20.003  21.516   4.779
61613W        W33873  29.113  15.152  14.222
61614W        W33874  39.335  25.055   4.169
61615W        W33875  28.410  13.365  12.230
61616W        W33876   1.533  17.408  10.740
61617W        W33877  33.543  13.066  11.622
61618W        W33878  12.418  30.514  11.018
61619W        W33879  34.332  35.394   0.669
61620W        W33880  26.090   2.932  11.602
61621W        W33881  24.114   9.102  12.638
61622W        W33882  32.602  40.265   0.957
61623W        W33883   8.711  16.689  10.628
61624W        W33884  19.670  28.740   2.325
61625W        W33885   8.690   9.392   1.167
61626W        W33886  11.051  23.723   2.344
61627W        W33887  11.723   8.963  13.955
61628W        W33888   2.340   8.352  13.862
61629W        W33889  41.935  29.143  12.469
61630W        W33890  30.464  40.603  11.437
61631W        W33891   4.566  35.792   4.787
61632W        W33892  18.532  37.855  10.702
61633W        W33893   0.815   4.277  12.114
61634W        W33894  20.562  10.027  14.726
61635W        W33895   4.341  11.276  11.376
61636W        W33896  24.002  28.179   2.242
61637W        W33897   1.634  17.501   0.525
61638W        W33898   0.410  12.436  11.592
61639W        W33899  15.850  30.159   2.256
61640W        W33900  14.352  23.122   1.920
61641W        W33901  39.766  10.642   2.379
61642W        W33902  39.998  12.379   0.835
61643W        W33903  11.239   6.174  10.335
61644W        W33904  41.808  36.113  14.137
61645W        W33905  12.376  17.769   2.071
61646W        W33906  22.464   4.850   1.668
61647W        W33907   4.457  10.305   2.876
61648W        W33908  21.457   2.226  12.025
61649W        W33909  39.316   5.268   3.580
61650W        W33910   9.299  32.679  10.993
61651W        W33911  42.222  24.968  13.426
61652W        W33912  15.196  41.408  12.798
61653W        W33913   7.934   0.489   0.371
61654W        W33914   7.003  44.505   1.835
61655W        W33915  36.488  37.958  10.624
61656W        W33916   6.907  20.633   4.847
61657W        W33917   6.166  26.484   3.803
61658W        W33918   6.556  37.121   2.775
61659W        W33919  19.849  24.071  11.138
61660W        W33920  27.281   2.968   2.865
61661W        W33921  42.265  18.936  12.283
61662W        W33922  12.320  23.889   2.580
61663W        W33923  37.560  24.986   3.653
61664W        W33924  18.765  34.500  12.401
61665W        W33925  12.811  10.938   4.285
61666W        W33926  24.940  41.453  12.063
61667W        W33927   7.653  23.393  11.226
61668W        W33928  10.896  14.933  11.190
61669W        W33929   6.323   8.141   3.416
61670W        W33930  14.116   7.093  11.834
61671W        W33931  27.920  14.770   3.783
61672W        W33932  27.682  38.520  13.377
61673W        W33933  14.993  43.785  11.278
61674W        W33934  43.287  21.504   3.141
61675W        W33935  35.882  35.564  13.350
61676W        W33936  16.021  33.548  10.600
61677W        W33937  39.338  41.538   1.789
61678W        W33938  27.066  37.564   2.271
61679W        W33939  44.171  15.208   3.751
61680W        W33940  29.647  10.297   2.810
61681W        W33941  41.053  39.533  12.963
61682W        W33942  16.357   9.432  13.376
61683W        W33943  29.063  39.481  14.167
61684W        W33944  34.427  37.310   3.806
61685W        W33945  40.943  30.240  11.105
61686W        W33946  25.628  26.131  13.250
61687W        W33947  41.914  36.853   4.679
61688W        W33948  42.370  42.810   2.407
61689W        W33949  12.589   9.206   3.906
61690W        W33950  14.021  17.059   0.309
61691W        W33951  24.083  35.412  10.736
61692W        W33952  43.539   5.332   4.150
61693W        W33953  41.841  33.225   0.292
61694W        W33954  27.917   2.417  14.376
61695W        W33955   0.241  33.664  13.023
61696W        W33956   2.438  17.315  11.632
61697W        W33957  37.390  16.757   0.270
61698W        W33958   7.795  27.677   1.675
61699W        W33959  10.752   2.706  10.728
61700W        W33960   5.348   2.936  11.080
61701W        W33961   1.518  31.479   0.687
61702W        W33962  32.935  23.905   3.184
61703W        W33963  29.666  44.840   4.679
61704W        W33964  21.172  36.420  12.610
61705W        W33965  42.299   8.743   2.422
61706W        W33966  35.093  13.786  14.703
61707W        W33967  25.013  17.108   3.742
61708W        W33968   8.162  39.643   3.778
61709W        W33969  36.517   7.167  11.318
61710W        W33970  14.152   2.536   1.249
61711W        W33971  32.096  11.201  14.843
61712W        W33972   3.378  40.607   2.788
61713W        W33973  13.527  44.049   3.238
61714W        W33974  42.417  19.598  11.101
61715W        W33975   4.272  44.524   3.669
61716W        W33976  28.165  28.698   2.095
61717W        W33977  13.714  15.774  12.168
61718W        W33978  19.087  22.812   0.253
61719W        W33979  29.893  23.313   2.337
61720W        W33980   8.140  10.163  14.705
61721W        W33981  15.316   0.983  14.773
61722W        W33982  21.133   7.818   4.539
61723W        W33983  42.252  41.006   1.779
61724W        W33984  22.386   5.280   4.481
61725W        W33985  27.529  11.930  13.055
61726W        W33986  43.444   7.654  12.099
61727W        W33987  37.473  36.810  11.572
61728W        W33988  44.867  16.284  13.480
61729W        W33989  21.671  38.026  12.818
61730W        W33990  28.424  24.981  13.401
61731W        W33991  34.029  15.005  12.867
61732W        W33992   1.228  11.408  13.467
61733W        W33993  42.768  40.916  14.217
61734W        W33994   0.434   6.754  10.900
61735W        W33995  14.877  18.501   3.625
61736W        W33996  35.953  32.560   0.178
61737W        W33997  13.552  24.709  10.576
61738W        W33998   7.059   0.943   4.183
61739W        W33999  30.957  25.425  12.888
61740W        W34000  23.930  14.157  12.069
61741W        W34001  24.684  32.637  12.440
61742W        W34002  33.175  16.247  13.832
61743W        W34003   8.877  38.492   1.428
61744W        W34004  43.531  15.219  14.408
61745W        W34005  16.220  15.701   2.799
61746W        W34006  15.040  19.576  14.419
61747W        W34007  20.504  37.951   4.635
61748W        W34008  13.029  42.575   0.809
61749W        W34009  30.095  17.661   1.479
61750W        W34010  37.845  36.708  12.241
61751W        W34011  26.527  43.312   2.784
61752W        W34012   1.750  26.476   4.331
61753W        W34013   5.840  14.932   2.763
61754W        W34014  32.410   3.201  11.375
61755W        W34015  38.534  16.232   3.382
61756W        W34016   2.026   4.925   0.533
61757W        W34017  39.690  27.435   1.730
61758W        W34018  38.640   0.534  12.547
61759W        W34019  42.589  13.595   0.446
61760W        W34020  30.666  19.276   4.062
61761W        W34021  26.742  30.479   0.880
61762W        W34022  27.646   8.231   3.746
61763W        W34023   2.506  29.070   0.409
61764W        W34024  27.599   0.009   1.437
61765W        W34025   4.751   1.478  11.030
61766W        W34026  32.361  27.954   3.591
61767W        W34027  26.185  40.767   0.408
61768W        W34028  10.003  12.144  12.482
61769W        W34029  30.519  31.026   0.799
61770W        W34030   3.502   9.752   0.305
61771W        W34031   2.007  28.598  12.886
61772W        W34032  10.603  31.149  12.796
61773W        W34033  32.317  22.300   2.822
61774W        W34034   7.803  42.612  13.811
61775W        W34035   4.656  12.700   0.732
61776W        W34036   7.765  24.197  13.722
61777W        W34037  25.782  44.131  11.097
61778W        W34038   4.610   0.403   2.161
61779W        W34039  14.419  24.668  14.953
61780W        W34040  21.575  26.151  12.320
61781W        W34041  35.748   1.771  10.656
61782W        W34042  17.019  36.331   2.434
61783W        W34043  29.612  17.960  10.355
61784W        W34044  38.351   1.956  11.183
61785W        W34045  41.479  37.402   4.180
61786W        W34046   1.485  36.896   4.591
61787W        W34047  23.346  23.596  14.780
61788W        W34048  12.373  37.873  14.399
61789W        W34049  20.933   5.457   3.598
61790W        W34050   2.435   4.159  13.373
61791W        W34051  38.565  25.007   3.052
61792W        W34052  30.527  33.162  14.095
61793W        W34053  35.113   8.774  14.511
61794W        W34054  12.864  28.864   0.169
61795W        W34055  28.636   0.809  12.857
61796W        W34056  30.161   6.891   1.796
61797W        W34057  12.521  32.132  14.676
61798W        W34058  17.000  13.881  13.495
61799W        W34059  44.686  44.285  10.748
61800W        W34060  17.600  39.069   2.129
61801W        W34061  25.912   4.925   3.511
61802W        W34062   1.756   4.532   2.754
61803W        W34063  27.554  44.771   1.930
61804W        W34064  28.482  29.321   4.516
61805W        W34065  11.643  42.282  14.914
61806W        W34066  39.444   5.417  13.533
61807W        W34067  13.804  11.241  12.052
61808W        W34068  25.535  18.377  12.983
61809W        W34069   0.440   6.970  13.548
61810W        W34070  43.534  28.541   2.691
61811W        W34071  18.390  13.744  14.960
61812W        W34072   9.164  26.121  11.112
61813W        W34073  41.541  29.645  13.311
61814W        W34074  23.644  35.073  12.965
61815W        W34075  30.351  37.341   4.987
61816W        W34076  21.426  34.450   2.225
61817W        W34077  37.878  23.987   1.795
61818W        W34078  39.743   4.582   4.173
61819W        W34079   9.105  28.051   3.861
61820W        W34080  27.558  18.879  13.969
61821W        W34081  44.490  15.709   3.275
61822W        W34082   5.482  14.856  14.293
61823W        W34083  44.567  32.058   4.165
61824W        W34084  10.407  13.185  12.373
61825W        W34085  23.637  30.085  14.206
61826W        W34086  23.144  13.646  14.793
61827W        W34087  29.211  33.675   3.058
61828W        W34088  17.487  10.818   4.599
61829W        W34089  18.279   7.179   3.101
61830W        W34090  26.717  44.395  11.118
61831W        W34091  37.913  33.471   3.749
61832W        W34092   0.792  41.845  13.034
61833W        W34093  12.122   4.015   0.092
61834W        W34094  37.257  32.561  10.601
61835W        W34095   8.379   8.230   0.840
61836W        W34096  23.149  36.331  13.866
61837W        W34097  38.238   3.937   0.680
61838W        W34098  40.935  14.859  11.355
61839W        W34099  39.799  19.729  14.514
61840W        W34100   4.490  24.146  12.540
61841W        W34101  44.960   1.341  11.189
61842W        W34102   0.595  31.952  14.966
61843W        W34103  34.465  40.399   1.314
61844W        W34104  40.578  30.335   1.700
61845W        W34105  16.540   4.956  13.646
61846W        W34106  41.984   7.688   2.487
61847W        W34107  17.443  12.957  11.034
61848W        W34108  14.867   9.866  12.954
61849W        W34109   4.226  43.571  13.296
61850W        W34110   0.778   7.915  13.406
61851W        W34111  31.328  16.839  12.114
61852W        W34112   6.469  43.291   4.691
61853W        W34113  42.387   6.446   1.431
61854W        W34114   8.893  42.318  11.935
61855W        W34115  19.027  13.849  10.697
61856W        W34116   5.737  39.127  11.239
61857W        W34117  12.355   0.729  13.346
61858W        W34118  33.637   0.399   4.720
61859W        W34119   2.787  28.506   2.645
61860W        W34120  25.256  38.628   4.439
61861W        W34121   7.769  31.480  13.943
61862W        W34122  31.060  10.367  10.732
61863W        W34123  30.009  13.204   4.569
61864W        W34124  36.456  35.155  12.554
61865W        W34125  28.889   2.173   0.990
61866W        W34126   9.448   6.579   4.553
61867W        W34127  41.482  43.971  12.096
61868W        W34128  13.657  23.755  12.620
61869W        W34129  26.267  38.361  12.969
61870W        W34130  27.623  40.931   3.445
61871W        W34131  41.915  15.567   3.227
61872W        W34132  24.801  37.079   2.790
61873W        W34133  23.807  37.989  12.133
61874W        W34134  11.003  13.617  12.836
61875W        W34135   3.339   4.086  12.385
61876W        W34136  23.938  15.752   2.301
61877W        W34137  27.579  43.947   0.977
61878W        W34138   5.239   9.210   2.408
61879W        W34139  19.796  43.286   4.960
61880W        W34140  26.541  35.066  12.861
61881W        W34141  17.521  17.662   0.558
61882W        W34142  10.331   2.003   1.413
61883W        W34143  14.878  21.401  11.548
61884W        W34144   9.660  20.259   1.852
61885W        W34145  16.139   8.623  13.834
61886W        W34146  23.100  32.092   2.391
61887W        W34147  41.444  12.149   2.353
61888W        W34148  16.507  25.024   0.718
61889W        W34149  23.716   8.230  11.903
61890W        W34150  38.542  44.719   1.964
61891W        W34151   9.389  22.457   1.403
61892W        W34152  31.545   8.229  11.679
61893W        W34153  29.533  32.573   3.660
61894W        W34154  37.464  38.409  11.214
61895W        W34155  28.108   9.908   0.228
61896W        W34156  31.487  37.529   2.928
61897W        W34157  15.577  19.642   3.653
61898W        W34158  36.981  10.397  11.492
61899W        W34159  13.808  36.585  10.650
61900W        W34160  14.362  21.994  14.595
61901W        W34161   9.429  44.840  14.451
61902W        W34162   6.691  19.210  13.969
61903W        W34163  13.899  12.304   3.080
61904W        W34164  36.503  11.273  12.771
61905W        W34165  34.837  33.991   3.616
61906W        W34166  10.868  12.433   0.302
61907W        W34167  32.359  37.837  12.491
61908W        W34168  42.429  14.553  10.964
61909W        W34169  31.060  33.297   3.051
61910W        W34170   9.832  37.320   3.685
61911W        W34171  31.124  42.229  11.484
61912W        W34172   9.228  14.285  12.610
61913W        W34173  16.454  26.121  14.852
61914W        W34174  43.724  17.246   1.144
61915W        W34175  29.110  37.565   3.939
61916W        W34176  29.519  39.558   2.416
61917W        W34177  39.430   2.197   1.934
61918W        W34178   7.830  18.325  13.119
61919W        W34179  22.667  28.105  13.805
61920W        W34180  22.827  23.640   0.673
61921W        W34181  21.849  30.701  13.136
61922W        W34182  37.428  34.686   2.384
61923W        W34183   8.284  31.396  12.092
61924W        W34184  19.073  33.859   4.063
61925W        W34185   2.444  16.533   4.585
61926W        W34186  12.212  20.557   2.289
61927W        W34187  44.276  26.752   4.032
61928W        W34188  44.184  43.927  11.135
61929W        W34189   2.986  29.289  12.378
61930W        W34190  44.258  24.029   3.632
61931W        W34191   4.794  33.044   2.098
61932W        W34192  29.111  20.612   0.748
61933W        W34193   2.756   9.148  13.902
61934W        W34194   7.473  41.408   3.658
61935W        W34195  11.308   9.112  14.722
61936W        W34196  38.614  40.000  14.887
61937W        W34197  14.951  29.276   3.165
61938W        W34198  24.310  16.058   0.931
61939W        W34199  29.088  13.620   0.880
61940W        W34200   9.706  13.430   4.082
61941W        W34201  13.761  11.900  14.896
61942W        W34202  34.390   7.451  12.667
61943W        W34203  22.313  39.156   1.060
61944W        W34204   6.799  18.798  13.035
61945W        W34205  24.175  42.487  11.527
61946W        W34206  34.432  21.217  12.554
61947W        W34207  21.164  36.968   1.770
61948W        W34208  23.468  43.740   1.318
61949W        W34209  31.686  38.946  14.140
61950W        W34210  43.805  19.467   3.195
61951W        W34211  35.390   4.392   0.476
61952W        W34212   6.396  25.905  14.730
61953W        W34213   3.478  44.195   4.131
61954W        W34214   4.153  40.495   3.447
61955W        W34215  43.706   0.282   2.314
61956W        W34216  25.004   3.187   4.350
61957W        W34217  18.950  36.351   1.760
61958W        W34218  36.031  23.445   0.308
61959W        W34219  24.528  10.087  13.181
61960W        W34220   4.911  33.358   0.696
61961W        W34221  12.247   8.178  13.415
61962W        W34222  30.564  43.465  13.875
61963W        W34223  16.353  14.191  11.026
61964W        W34224  35.607  40.779  13.132
61965W        W34225  25.043  13.673   3.317
61966W        W34226   8.859  27.294   0.678
61967W        W34227   5.940  27.448  12.515
61968W        W34228  15.991  24.434   0.842
61969W        W34229  35.481   6.230   0.223
61970W        W34230  13.121  20.288  13.800
61971W        W34231  43.484  39.040  13.001
61972W        W34232  10.722  31.395   0.074
61973W        W34233   2.038  10.788  11.589
61974W        W34234  42.738   1.021   3.759
61975W        W34235  34.751  32.015   4.542
61976W        W34236  24.227  36.944   1.383
61977W        W34237  25.005  40.345   0.342
61978W        W34238  14.210  12.656  14.678
61979W        W34239  18.563  12.602  10.236
61980W        W34240  34.108   3.409   3.816
61981W        W34241  30.515  18.264   3.358
61982W        W34242  15.967   0.200   1.359
61983W        W34243  35.815  30.103   0.310
61984W        W34244  41.896   1.384   1.662
61985W        W34245   8.442  22.013   4.208
61986W        W34246  30.147  37.979  13.978
61987W        W34247  19.557   8.748  12.754
61988W        W34248   2.838  25.387   3.327
61989W        W34249  33.753   0.803  12.645
61990W        W34250  23.229   1.831  12.928
61991W        W34251  16.824  27.922   0.254
61992W        W34252  18.781  42.905   2.855
61993W        W34253   9.225  14.846  13.259
61994W        W34254  31.466  27.027  13.580
61995W        W34255  40.495   7.745  13.071
61996W        W34256  25.992  31.928   4.121
61997W        W34257   4.237  17.734  11.111
61998W        W34258  35.453  41.076  12.182
61999W        W34259  34.568  41.408   3.022
62000W        W34260   5.531  19.252   3.300
62001W        W34261  19.283   7.577  14.192
62002W        W34262  38.937  29.124  14.179
62003W        W34263  25.262   8.034   2.423
62004W        W34264  42.250  29.332  12.110
62005W        W34265   3.804  36.928   2.805
62006W        W34266   7.937  30.286  12.403
62007W        W34267   1.376  20.748  13.394
62008W        W34268  22.532  16.352  12.357
62009W        W34269  33.926  18.569   4.682
62010W        W34270  34.969  44.288   1.637
62011W        W34271  35.091  17.466   0.014
62012W        W34272  24.552  36.112  12.943
62013W        W34273  41.931   2.893  14.100
62014W        W34274  14.608  12.991   3.421
62015W        W34275   2.309   5.368   0.480
62016W        W34276  37.818  11.161  14.356
62017W        W34277  31.853  34.297   2.849
62018W        W34278  13.890  15.740   0.934
62019W        W34279  12.625  43.014   2.251
62020W        W34280  11.157  19.216  12.647
62021W        W34281  25.058  11.808   2.129
62022W        W34282  43.880  30.441   3.222
62023W        W34283  18.276  21.982  13.530
62024W        W34284  44.948  27.775  14.202
62025W        W34285  23.922  21.632   2.929
62026W        W34286  25.145  39.449   1.724
62027W        W34287  21.693   3.954   1.170
62028W        W34288  15.029  16.761  11.907
62029W        W34289  34.079  38.255  10.664
62030W        W34290   9.288   0.339  10.711
62031W        W34291  14.360   2.774   3.743
62032W        W34292  33.598  20.299  12.818
62033W        W34293  22.816  40.924  11.645
62034W        W34294  11.881  19.848   4.632
62035W        W34295   2.662  21.145  13.374
62036W        W34296  14.166  18.737  11.012
62037W        W34297  42.283  16.498  11.037
62038W        W34298  12.231  14.622   0.320
62039W        W34299  32.649  40.998  12.965
62040W        W34300  12.749   8.990  12.339
62041W        W34301  36.078  43.014   4.110
62042W        W34302   9.347  39.163   1.065
62043W        W34303  22.735   9.703  10.676
62044W        W34304  41.926   6.678   1.808
62045W        W34305  38.122  29.065   0.840
62046W        W34306  21.114  29.473  14.061
62047W        W34307   0.033  39.873  11.945
62048W        W34308  36.088   7.768  14.611
62049W        W34309  31.948  21.399   2.858
62050W        W34310  25.602   2.537  12.443
62051W        W34311  22.091   0.517  12.301
62052W        W34312  24.155  15.035   1.832
62053W        W34313  34.951   9.667   1.353
62054W        W34314  36.366  38.680  11.807
62055W        W34315  44.400  41.018  11.574
62056W        W34316   4.947  29.515   0.814
62057W        W34317  12.796  37.950   2.901
62058W        W34318  13.129  29.979   9.862
62059W        W34319  25.028  15.886  11.614
62060W        W34320   1.793  28.120   3.968
62061W        W34321  12.117  23.650  14.345
62062W        W34322   6.320  28.378  13.814
62063W        W34323   9.234  36.604  13.391
62064W        W34324  42.572  18.705   3.837
62065W        W34325   0.901  26.168  14.478
62066W        W34326   3.791  29.065   1.219
62067W        W34327  24.717  22.567   1.184
62068W        W34328   7.114  32.154  14.810
62069W        W34329  19.832  39.866   3.632
62070W        W34330   5.995  21.642  12.924
62071W        W34331  36.028  23.575  13.020
62072W        W34332  29.194  13.702   4.142
62073W        W34333  31.968   8.180   1.338
62074W        W34334  41.886   3.403  10.575
62075W        W34335  27.032  42.317  14.990
62076W        W34336   1.333   5.185   4.536
62077W        W34337  19.024  28.906  11.210
62078W        W34338  15.689  23.951  13.020
62079W        W34339  31.165   4.370  13.873
62080W        W34340  18.058   7.493   1.758
62081W        W34341   8.203   2.655  14.773
62082W        W34342  22.521  36.441   4.909
62083W        W34343  20.069  44.724  11.591
62084W        W34344  23.900  16.489  11.968
62085W        W34345  20.583  38.928   4.681
62086W        W34346  11.973  19.768  12.533
62087W        W34347  31.296   4.211   3.779
62088W        W34348  21.728   3.687   1.670
62089W        W34349  43.556   4.310  12.557
62090W        W34350  32.312  42.021  13.847
62091W        W34351   0.684  41.119   0.013
62092W        W34352  28.232  38.530  12.127
62093W        W34353  21.496   8.946  12.060
62094W        W34354  14.772  21.458  12.601
62095W        W34355  11.584  35.156  14.900
62096W        W34356   5.348   6.732   1.756
62097W        W34357   9.584  32.496   1.386
62098W        W34358   5.745   4.186   4.563
62099W        W34359  42.746  32.348   2.275
62100W        W34360  37.524   7.253   2.189
62101W        W34361  29.760  32.591  10.745
62102W        W34362  13.636   2.747   0.336
62103W        W34363   2.837   2.892  14.292
62104W        W34364   8.860  32.014   2.922
62105W        W34365  30.038  39.049   2.850
62106W        W34366   6.652  41.894  11.177
62107W        W34367  38.001   0.352   3.139
62108W        W34368  31.918  39.025   1.810
62109W        W34369   5.232  22.090  14.552
62110W        W34370  23.447  21.769  13.239
62111W        W34371  39.367  36.541   1.916
62112W        W34372  38.498   2.709   4.459
62113W        W34373  18.025   1.278   0.513
62114W        W34374  33.295  29.730   5.108
62115W        W34375  31.863   7.807  11.705
62116W        W34376  37.302  18.381  11.187
62117W        W34377  34.169   0.120  10.471
62118W        W34378  38.671  33.434   4.969
62119W        W34379  16.485  27.228   1.795
62120W        W34380  26.402   3.325   2.638
62121W        W34381  15.571  11.137  13.460
62122W        W34382  31.668   8.211  11.193
62123W        W34383  23.563  38.752   2.762
62124W        W34384  17.218  40.711   3.205
62125W        W34385  32.632   3.893  10.707
62126W        W34386  37.120  24.247  11.544
62127W        W34387  30.408  23.170  11.846
62128W        W34388   6.618  31.000   2.707
62129W        W34389   0.652  41.403   0.464
62130W        W34390  12.250   7.848  14.300
62131W        W34391  22.109  39.968   0.638
62132W        W34392   3.766  11.136   3.097
62133W        W34393  33.152  44.276   1.798
62134W        W34394  12.866  29.181  14.741
62135W        W34395  38.458  13.748  13.089
62136W        W34396  32.704  25.572  13.432
62137W        W34397  40.435  22.490   4.961
62138W        W34398   0.497   9.384  13.545
62139W        W34399  40.563   0.065   2.376
62140W        W34400  30.618  40.319   3.035
62141W        W34401  26.554  41.363   3.339
62142W        W34402  42.549  24.108   2.785
62143W        W34403  30.931  28.275  13.860
62144W        W34404  21.101  21.278  14.844
62145W        W34405  13.818  26.157   2.342
62146W        W34406   2.872  38.873  11.417
62147W        W34407  19.780   5.900   1.420
62148W        W34408  18.747  40.186  11.399
62149W        W34409  34.581  34.994  10.973
62150W        W34410  32.547  24.312   1.489
62151W        W34411  24.649  41.329   5.027
62152W        W34412  11.155  34.438   1.403
62153W        W34413  11.273  13.354  10.902
62154W        W34414   2.979  17.595  10.617
62155W        W34415   9.101   0.365  13.842
62156W        W34416  16.244  18.769   2.833
62157W        W34417  24.184  25.705   0.419
62158W        W34418  11.892  18.069  12.164
62159W        W34419  18.574  34.018  10.627
62160W        W34420  16.271  30.067  14.005
62161W        W34421  11.194  19.666   0.283
62162W        W34422   4.941  44.250   0.871
62163W        W34423  26.211  12.237  13.857
62164W        W34424  22.595  26.438  14.869
62165W        W34425  41.257  22.137  10.684
62166W        W34426   6.977  10.201  13.051
62167W        W34427  34.110  41.670  14.560
62168W        W34428  20.648  22.782   0.714
62169W        W34429  24.240  37.035  14.574
62170W        W34430  24.577  38.690   4.981
62171W        W34431  39.517  17.462   2.203
62172W        W34432  21.850  30.892   0.137
62173W        W34433  18.904  35.434   4.128
62174W        W34434  31.434   7.424   1.962
62175W        W34435  30.395  13.069   0.882
62176W        W34436  11.686  13.101  12.631
62177W        W34437  25.672  23.470  13.161
62178W        W34438  42.059   6.688  13.059
62179W        W34439  12.856  27.064  10.549
62180W        W34440  34.825  44.548  12.009
62181W        W34441   7.335   4.010   4.566
62182W        W34442  39.580  39.495  12.673
62183W        W34443  18.474  43.755  11.638
62184W        W34444   5.898  25.733  14.952
62185W        W34445  34.427  35.674   2.300
62186W        W34446  41.406   0.175   3.401
62187W        W34447   4.822  23.442   0.700
62188W        W34448  34.362  44.028  14.483
62189W        W34449  19.818  24.798  14.085
62190W        W34450  14.682  17.586   1.355
62191W        W34451  41.638   6.956  13.957
62192W        W34452   1.996  40.975   1.930
62193W        W34453  16.134   3.960  10.926
62194W        W34454  23.274  35.599  12.038
62195W        W34455  44.054  24.531  13.322
62196W        W34456  25.198  44.761   3.700
62197W        W34457   8.687  31.187   1.721
62198W        W34458  21.817   0.501   4.138
62199W        W34459  22.940  18.504  11.088
62200W        W34460   4.386  18.784  13.887
62201W        W34461  29.646  29.642  13.374
62202W        W34462  22.981  36.356   2.957
62203W        W34463  35.076  38.567   2.185
62204W        W34464  34.825  15.088   3.250
62205W        W34465  23.189  31.131   1.797
62206W        W34466  43.690   2.506   4.072
62207W        W34467  43.903   2.733  13.764
62208W        W34468  11.394  25.431  11.132
62209W        W34469  30.091  20.140  11.788
62210W        W34470   9.125   0.244  11.734
62211W        W34471   2.310  21.240   1.159
62212W        W34472   0.425  43.004   1.839
62213W        W34473   2.958  43.997  11.551
62214W        W34474  44.318  40.831   2.805
62215W        W34475  28.380   4.259  11.309
62216W        W34476  40.448  11.112   2.786
62217W        W34477  14.799   8.406  13.551
62218W        W34478  31.520  30.925   9.814
62219W        W34479   6.998  20.535  12.109
62220W        W34480  29.656   8.827  13.401
62221W        W34481  38.851  22.617  10.668
62222W        W34482  10.857  28.531   3.533
62223W        W34483  16.399  17.583   9.794
62224W        W34484  12.893   7.372   5.055
62225W        W34485  22.712  26.444   2.077
62226W        W34486  34.744  40.735  14.278
62227W        W34487   6.623  32.245   2.706
62228W        W34488  37.743   8.692   2.066
62229W        W34489  37.910  37.728   3.310
62230W        W34490   2.186  22.442  10.638
62231W        W34491   3.222  34.055  13.867
62232W        W34492   4.525   8.625   2.656
62233W        W34493  29.440  36.858  11.979
62234W        W34494  26.423   0.776  10.469
62235W        W34495  37.739  11.483   4.108
62236W        W34496  14.789  25.521   0.306
62237W        W34497  30.992  22.160   3.164
62238W        W34498  33.107  24.219   4.636
62239W        W34499  28.615  19.862   0.845
62240W        W34500  19.005  24.047   4.639
62241W        W34501  38.697  34.589  11.608
62242W        W34502  22.201  18.776   4.200
62243W        W34503  11.878  28.316   9.928
62244W        W34504  24.018  37.503  12.030
62245W        W34505  12.367  13.043  12.910
62246W        W34506  29.938   5.122  14.438
62247W        W34507  27.502   0.047   2.385
62248W        W34508  43.921  23.869   0.322
62249W        W34509   7.977   0.939   5.008
62250W        W34510  20.196  13.748  14.525
62251W        W34511  22.770  36.094  13.585
62252W        W34512   5.660  34.374  12.608
62253W        W34513  40.391  13.634   0.236
62254W        W34514  30.095  28.818  13.304
62255W        W34515  29.378  25.638   0.932
62256W        W34516  22.035  41.336  13.020
62257W        W34517  12.557  23.418  13.498
62258W        W34518  44.391  21.255   0.769
62259W        W34519  22.623  25.657   3.153
62260W        W34520   5.887   3.684  11.112
62261W        W34521   1.654  26.997  13.120
62262W        W34522  14.946   0.565   0.386
62263W        W34523  24.839   8.737   0.697
62264W        W34524  43.006   4.592   3.848
62265W        W34525   2.665  25.945  12.545
62266W        W34526  37.007  34.649  14.344
62267W        W34527  38.380  19.994  13.098
62268W        W34528  25.744  33.890  13.113
62269W        W34529   2.388  32.832   0.901
62270W        W34530  35.412  15.173   0.422
62271W        W34531  14.052  22.571   0.734
62272W        W34532   4.304  41.154  10.620
62273W        W34533  29.170  38.818   0.351
62274W        W34534  29.502  35.422   3.124
62275W        W34535  27.189  18.920   1.318
62276W        W34536  22.294  42.847  10.712
62277W        W34537   7.438   8.394   4.101
62278W        W34538   6.158  32.572  13.648
62279W        W34539  14.879  20.825   0.836
62280W        W34540  38.144  26.797  11.050
62281W        W34541  24.525  35.470  13.302
62282W        W34542  35.344  23.013  11.981
62283W        W34543  29.921  11.394  13.088
62284W        W34544  16.820  27.649   1.925
62285W        W34545  21.137  40.429   4.042
62286W        W34546  34.941  24.707   4.779
62287W        W34547  41.123  16.200   4.951
62288W        W34548  18.952  44.255   4.649
62289W        W34549   8.397  23.946   1.744
62290W        W34550  10.885  42.396  13.538
62291W        W34551  44.877  11.097  13.382
62292W        W34552  25.203  10.294  12.014
62293W        W34553  35.270   8.786  10.745
62294W        W34554  40.590  44.776  14.994
62295W        W34555  12.818  13.842  14.046
62296W        W34556  11.323  41.553   4.069
62297W        W34557   5.150  24.873  13.392
62298W        W34558  28.958  38.179   1.327
62299W        W34559  26.407  28.570  13.472
62300W        W34560  19.065  21.946  14.852
62301W        W34561   3.160   9.049   0.940
62302W        W34562  31.876  15.371   1.152
62303W        W34563  37.822  13.485   3.567
62304W        W34564  33.478  13.597  13.986
62305W        W34565  38.075   8.316   1.944
62306W        W34566  41.310  10.984   4.187
62307W        W34567  17.766  20.705  12.500
62308W        W34568   8.881  42.769  11.012
62309W        W34569  10.895  26.558  13.143
62310W        W34570  13.643  40.412   2.656
62311W        W34571  27.507  28.418  12.797
62312W        W34572   7.950   3.372   2.009
62313W        W34573   3.557   4.922  12.155
62314W        W34574  41.431  21.010  12.424
62315W        W34575  33.646  40.397  14.254
62316W        W34576  36.107   1.293  12.108
62317W        W34577  20.164  19.871   9.875
62318W        W34578  30.838  31.495  14.958
62319W        W34579   6.900   0.495   4.462
62320W        W34580   2.346  27.604  10.480
62321W        W34581  31.700  30.679   1.506
62322W        W34582  26.782  34.982  13.860
62323W        W34583  13.682  33.399  11.359
62324W        W34584  33.929  17.543  13.990
62325W        W34585  29.052  27.559   2.881
62326W        W34586  28.061  38.557   3.938
62327W        W34587  43.555   9.631  12.139
62328W        W34588  29.980  25.422   3.735
62329W        W34589  31.131  41.413   5.246
62330W        W34590   5.008  37.064   0.294
62331W        W34591  32.528   3.651  11.629
62332W        W34592  36.043  44.522  10.477
62333W        W34593  30.004  20.122  13.508
62334W        W34594  35.022  13.765  13.100
62335W        W34595  15.147  24.064   3.705
62336W        W34596   0.711  23.937   3.737
62337W        W34597  20.043  11.370   3.259
62338W        W34598  41.057  41.649   1.639
62339W        W34599  24.138  41.735  11.926
62340W        W34600   3.956  18.760  11.688
62341W        W34601  40.948   6.333  12.032
62342W        W34602  18.165   3.635   2.810
62343W        W34603   1.918   2.936   3.263
62344W        W34604  17.299  29.421   4.577
62345W        W34605  17.586  28.576  13.437
62346W        W34606  39.545   5.793   2.374
62347W        W34607  18.230  41.515   0.747
62348W        W34608   6.823   4.246   2.262
62349W        W34609   8.986  30.885   3.745
62350W        W34610  32.114  31.093  14.185
62351W        W34611   5.703  42.993   1.992
62352W        W34612  24.110  31.728  11.409
62353W        W34613  23.832  38.467   4.114
62354W        W34614   3.749  39.211  13.781
62355W        W34615  39.427  41.475  14.797
62356W        W34616   4.518  32.456   0.270
62357W        W34617  11.383  34.954   4.939
62358W        W34618  24.497   8.362  14.743
62359W        W34619  29.024  26.033  10.886
62360W        W34620  28.937   6.249  11.676
62361W        W34621  36.529  24.233   2.784
62362W        W34622  17.624  10.205  12.360
62363W        W34623  43.260  23.123  14.230
62364W        W34624  31.939   8.308   3.699
62365W        W34625  17.563  22.029  12.501
62366W        W34626  12.827   2.654   1.803
62367W        W34627  12.073   9.657   1.967
62368W        W34628   0.577  26.076   1.886
62369W        W34629  41.979  14.560  11.229
62370W        W34630  23.323  39.079   0.648
62371W        W34631  13.165  13.177  11.887
62372W        W34632  23.588  43.292  11.070
62373W        W34633  17.790   8.112  10.146
62374W        W34634  39.790  25.125   0.335
62375W        W34635  15.722  17.048   0.796
62376W        W34636   8.906  39.340  12.153
62377W        W34637   0.292  19.553  10.833
62378W        W34638  20.429  19.084   4.596
62379W        W34639  38.777  33.367  12.294
62380W        W34640  26.547   1.906   4.437
62381W        W34641   1.720   3.351   4.115
62382W        W34642   2.838  34.948   3.228
62383W        W34643  21.199   3.201   4.965
62384W        W34644  11.966  22.632   4.048
62385W        W34645   9.442   0.479   2.730
62386W        W34646  29.973   7.216   3.342
62387W        W34647   6.779  14.228  14.178
62388W        W34648  38.315  21.085  13.600
62389W        W34649  29.624   3.344   3.213
62390W        W34650  24.498  43.898  12.306
62391W        W34651  30.102  11.919   3.283
62392W        W34652  20.954  30.017   3.650
62393W        W34653  26.650   0.697   0.918
62394W        W34654   1.508  23.062   3.214
62395W        W34655  28.610   7.222  13.729
62396W        W34656  13.670   8.258   1.353
62397W        W34657   2.680  17.491   2.237
62398W        W34658  17.145  14.708  13.937
62399W        W34659  22.235   1.721   3.214
62400W        W34660  37.521   0.664  13.807
62401W        W34661  30.089  29.000  13.804
62402W        W34662  37.429   2.982   3.796
62403W        W34663  17.347  40.460   2.310
62404W        W34664  20.091  40.989   2.280
62405W        W34665  10.006  16.564  11.804
62406W        W34666  37.638  34.456  10.690
62407W        W34667   2.006  41.212   0.916
62408W        W34668  36.526  32.824   3.666
62409W        W34669   0.382  39.499  11.723
62410W        W34670  33.864  27.417   3.142
62411W        W34671  12.789  14.050   3.321
62412W        W34672  34.116   8.146  11.619
62413W        W34673  30.737  17.132  13.920
62414W        W34674  42.845  33.645  12.126
62415W        W34675  36.095  26.424  14.476
62416W        W34676  17.674  20.971  10.623
62417W        W34677   4.174  14.171  13.487
62418W        W34678  19.763  31.885  12.866
62419W        W34679   1.832  15.340   5.025
62420W        W34680  32.255  12.846  13.976
62421W        W34681  16.843  13.661   4.606
62422W        W34682  21.545  23.203   1.847
62423W        W34683  18.821  36.940   3.162
62424W        W34684  21.482  24.071   3.722
62425W        W34685  15.207  21.509   4.101
62426W        W34686  22.212  24.486   1.521
62427W        W34687  12.688   6.734   1.783
62428W        W34688  18.099  36.768  14.291
62429W        W34689  42.412   2.774  13.929
62430W        W34690  33.693  41.771   2.199
62431W        W34691  27.942  17.171  11.567
62432W        W34692  44.911  15.774  13.695
62433W        W34693  18.139  26.221  13.717
62434W        W34694  39.419   9.787   9.760
62435W        W34695  38.001  30.424  10.615
62436W        W34696  30.545   7.024   4.070
62437W        W34697  19.589  25.042   3.793
62438W        W34698   3.696   9.445  14.027
62439W        W34699  36.047  36.254   4.944
62440W        W34700  31.588  15.507  11.486
62441W        W34701   0.208  43.886   4.673
62442W        W34702   3.340  22.108   1.255
62443W        W34703  32.799   2.513  13.765
62444W        W34704  41.012  19.530  14.356
62445W        W34705  21.773  11.991   0.687
62446W        W34706   7.773  39.104  14.035
62447W        W34707  31.708  43.300   0.204
62448W        W34708  30.985  13.352  12.914
62449W        W34709  33.986  22.891  14.390
62450W        W34710  41.082   2.045  11.568
62451W        W34711  44.759  25.091  14.717
62452W        W34712  31.485  15.119   3.719
62453W        W34713  42.274  12.063   0.352
62454W        W34714  22.229  26.542   2.125
62455W        W34715  21.555  24.001   4.584
62456W        W34716  40.083   7.228   1.804
62457W        W34717   6.726   2.621   3.194
62458W        W34718   1.497  32.629   2.298
62459W        W34719  31.843  21.247   1.443
62460W        W34720  41.816   2.229  12.048
62461W        W34721  23.004   6.657  10.682
62462W        W34722  28.006  10.882  14.025
62463W        W34723   1.975   9.411  14.293
62464W        W34724  12.711  28.231   3.810
62465W        W34725  44.891  26.552   0.043
62466W        W34726  38.879  43.371   2.047
62467W        W34727   5.933   7.214   4.712
62468W        W34728   9.144  11.301   4.191
62469W        W34729  36.331  42.725   5.045
62470W        W34730  28.413  42.466   4.283
62471W        W34731  33.428  29.276  12.558
62472W        W34732  13.696  38.272  12.870
62473W        W34733  33.898  14.609  12.125
62474W        W34734  12.509   8.676   3.402
62475W        W34735  26.686  23.133   0.408
62476W        W34736  31.667  24.021  11.018
62477W        W34737  32.509  43.200   1.329
62478W        W34738  41.272   9.212   4.535
62479W        W34739  26.513  26.044  11.032
62480W        W34740  44.913  36.035  12.584
62481W        W34741   5.161  16.661   2.866
62482W        W34742  17.366  23.744  11.441
62483W        W34743  24.652  34.747  14.916
62484W        W34744  25.170  39.560   4.455
62485W        W34745  34.075   6.926   0.694
62486W        W34746  26.449  38.954   4.572
62487W        W34747   9.864  28.570  11.065
62488W        W34748  15.157   2.905   1.905
62489W        W34749  22.701  20.242  14.823
62490W        W34750  26.239  32.932  14.839
62491W        W34751  41.838  15.814  11.546
62492W        W34752  22.333   6.405   1.887
62493W        W34753   4.010  10.160  14.231
62494W        W34754   5.500   2.451   0.020
62495W        W34755  28.939  33.587  12.020
62496W        W34756  27.386  25.062   0.902
62497W        W34757  16.802   3.875  13.001
62498W        W34758  26.408  39.907   0.170
62499W        W34759  35.924  31.915  13.433
62500W        W34760  39.777  44.311  14.827
62501W        W34761  24.274  43.361   1.635
62502W        W34762  36.916   6.301   0.416
62503W        W34763  14.074  39.828  14.641
62504W        W34764  31.909  31.240  13.726
62505W        W34765  22.615  13.131  11.643
62506W        W34766  27.368  44.356   4.740
62507W        W34767  19.088   2.819   3.611
62508W        W34768  30.662  24.181   2.300
62509W        W34769   0.451  28.166   4.324
62510W        W34770  29.519  37.396  13.593
62511W        W34771   7.965  14.567  13.584
62512W        W34772  13.247  26.762   2.876
62513W        W34773  11.651  13.459   9.995
62514W        W34774  29.203  10.828   3.043
62515W        W34775  25.663  16.130  10.471
62516W        W34776   1.118  10.651  13.684
62517W        W34777  23.400  36.792   0.814
62518W        W34778   7.483   5.777  11.457
62519W        W34779  30.520  44.894   4.410
62520W        W34780  16.805  21.005   2.690
62521W        W34781  24.692  36.005  14.377
62522W        W34782  15.780  25.493  14.992
62523W        W34783   4.985   1.871   3.104
62524W        W34784  33.902  44.709  10.673
62525W        W34785  33.968   3.100  13.864
62526W        W34786  13.556  25.675   1.955
62527W        W34787  24.494  41.499   1.926
62528W        W34788   4.894  12.160   2.256
62529W        W34789  25.681  24.243  13.428
62530W        W34790  15.606  44.571  11.430
62531W        W34791  25.564  29.171  14.141
62532W        W34792  16.560   5.316  10.825
62533W        W34793  25.226  36.859  14.238
62534W        W34794  36.482  20.380   9.830
62535W        W34795  29.370  11.431   4.182
62536W        W34796   1.204  20.299  14.817
62537W        W34797  17.609  38.899  12.093
62538W        W34798  24.125   9.439  13.034
62539W        W34799  11.791  16.549   0.843
62540W        W34800  38.610  25.171   1.546
62541W        W34801  11.894  43.045  13.770
62542W        W34802  13.860  12.346   0.906
62543W        W34803  17.965  32.260   1.470
62544W        W34804  19.021   9.840  13.426
62545W        W34805  22.304   2.311  11.077
62546W        W34806  12.195   3.950   1.506
62547W        W34807  21.802  39.012  11.606
62548W        W34808  12.094  17.492   2.448
62549W        W34809  40.943  11.877   2.619
62550W        W34810   6.800  25.936  12.104
62551W        W34811   6.980  11.630  11.955
62552W        W34812  20.005  24.303  14.395
62553W        W34813  13.768  22.854  12.430
62554W        W34814  33.502  32.645   2.850
62555W        W34815  33.386  16.073  10.671
62556W        W34816  36.785  23.027   1.976
62557W        W34817  32.894  26.871   4.898
62558W        W34818  38.331  23.723   4.692
62559W        W34819  10.786  20.846  14.705
62560W        W34820   7.968  40.564   1.821
62561W        W34821   3.526   4.951   4.076
62562W        W34822  38.923  23.254  14.069
62563W        W34823  23.086  13.128  10.924
62564W        W34824  40.283  42.531   0.333
62565W        W34825  20.228  11.850  12.417
62566W        W34826  26.182  22.672   4.181
62567W        W34827   9.086  24.629   0.446
62568W        W34828  16.666  16.739   1.994
62569W        W34829  28.445   2.814   1.349
62570W        W34830  35.454  13.225   0.145
62571W        W34831  24.713  42.442   4.907
62572W        W34832  21.758  26.203  11.840
62573W        W34833   0.459  28.046  10.832
62574W        W34834  43.904  34.000  14.911
62575W        W34835  28.481  31.512  14.664
62576W        W34836   1.490   3.232   0.897
62577W        W34837   9.557  38.612   0.259
62578W        W34838  25.044  26.566  14.596
62579W        W34839  44.331  32.286  14.494
62580W        W34840  17.613  42.276   1.866
62581W        W34841  19.288  26.309   1.443
62582W        W34842  39.571  41.294  13.906
62583W        W34843  17.859   0.753  11.882
62584W        W34844  14.292  28.927  14.417
62585W        W34845  20.672  31.824  12.109
62586W        W34846  35.529  21.355   0.752
62587W        W34847  12.810  39.835  11.007
62588W        W34848  11.668  27.659   4.976
62589W        W34849  24.589  34.313   4.459
62590W        W34850  42.780  17.598  11.458
62591W        W34851  40.854   0.985   1.279
62592W        W34852  32.971   0.778  14.986
62593W        W34853  43.235  22.497   3.810
62594W        W34854  26.214  39.467  14.969
62595W        W34855  42.935  29.228  13.788
62596W        W34856  42.632  25.078   0.825
62597W        W34857  39.797  10.713   4.144
62598W        W34858   6.197  28.594   4.708
62599W        W34859  20.057  28.647   4.156
62600W        W34860  16.202   9.000  12.024
62601W        W34861  17.115  42.525  10.721
62602W        W34862  23.542  25.120   4.458
62603W        W34863  11.681  11.212  12.833
62604W        W34864  41.028  25.705   3.634
62605W        W34865  18.649  16.852  12.489
62606W        W34866   4.014  32.577   2.414
62607W        W34867  31.007  25.126   4.181
62608W        W34868  34.831  33.048  12.461
62609W        W34869  17.082   5.699   4.295
62610W        W34870   8.299  17.762   1.890
62611W        W34871  34.465  23.029  11.172
62612W        W34872  33.410  17.620  14.353
62613W        W34873  40.530  26.985   0.317
62614W        W34874   1.280  24.425  14.791
62615W        W34875  40.081  28.945  14.131
62616W        W34876   0.731  12.488   3.113
62617W        W34877   8.766   7.131  13.606
62618W        W34878  38.269  44.827  13.919
62619W        W34879   3.820  12.331   1.767
62620W        W34880  20.953  30.891   1.355
62621W        W34881  33.029  37.491  12.116
62622W        W34882  32.484  22.563   1.721
62623W        W34883  19.120  27.578   4.672
62624W        W34884  32.417  16.176  14.893
62625W        W34885  43.046  34.482   2.894
62626W        W34886   1.237  29.795  13.938
62627W        W34887  39.928  17.287  12.079
62628W        W34888  41.609  33.874  14.937
62629W        W34889   8.734  18.869  10.746
62630W        W34890  26.012   0.425   4.412
62631W        W34891  25.982  31.046   0.317
62632W        W34892  24.891  22.053  14.881
62633W        W34893  32.577  25.960   2.803
62634W        W34894  35.336  43.854  14.745
62635W        W34895  20.268  39.511  12.100
62636W        W34896   2.908  41.789   0.487
62637W        W34897  21.095  25.156  10.619
62638W        W34898  38.725  23.052   2.751
62639W        W34899   7.960   0.873  11.571
62640W        W34900  31.027  23.550  14.469
62641W        W34901  12.407  22.044   3.754
62642W        W34902  37.491  36.793   0.956
62643W        W34903   6.424  32.677  12.100
62644W        W34904  33.767  28.529  11.200
62645W        W34905  11.155   7.801   3.275
62646W        W34906   8.438  21.747  12.428
62647W        W34907  41.994  16.164   4.495
62648W        W34908  29.944  21.791   2.389
62649W        W34909  23.539  29.873  11.935
62650W        W34910  22.856   6.167  10.640
62651W        W34911  10.197  30.065  11.648
62652W        W34912  20.567  10.393   1.218
62653W        W34913  28.608  35.001   0.583
62654W        W34914   1.911  26.652   1.721
62655W        W34915  17.510  10.294   1.295
62656W        W34916  40.047  36.544   3.286
62657W        W34917  21.456   6.990  13.781
62658W        W34918   5.282  43.850   4.194
62659W        W34919  10.370  33.983   0.372
62660W        W34920  17.709  36.058   0.961
62661W        W34921  15.158  34.872   0.054
62662W        W34922  26.939  37.076   2.374
62663W        W34923  17.197  38.334  14.887
62664W        W34924  21.649  41.712   4.212
62665W        W34925  12.323  27.179   4.784
62666W        W34926  40.936  14.212  14.949
62667W        W34927   3.263  11.681  12.694
62668W        W34928  27.465   7.954   0.777
62669W        W34929  38.124   7.794  11.890
62670W        W34930  20.445  13.205   4.576
62671W        W34931  24.966  21.037  14.950
62672W        W34932   5.129  36.976  12.556
62673W        W34933  25.478  29.490   2.250
62674W        W34934  11.995  33.687  10.193
62675W        W34935  33.136  38.076   2.381
62676W        W34936  13.231  34.240   4.151
62677W        W34937  42.529  35.026  11.612
62678W        W34938   1.403  18.538   3.755
62679W        W34939  41.200   2.833  12.522
62680W        W34940  35.129  16.671   2.742
62681W        W34941   9.867   7.874   4.788
62682W        W34942  24.432   4.163  12.089
62683W        W34943  37.498  44.496  12.399
62684W        W34944  29.089  40.881   2.742
62685W        W34945  39.961   3.196  13.651
62686W        W34946  37.606  20.350  12.055
62687W        W34947  14.356  26.574   1.267
62688W        W34948  13.668  21.306  13.916
62689W        W34949  44.825  32.385  14.893
62690W        W34950   7.999  31.999   0.828
62691W        W34951   5.961  30.023   3.851
62692W        W34952  14.198  39.910  12.825
62693W        W34953   0.230  38.884  13.918
62694W        W34954  20.639  43.448  11.471
62695W        W34955  23.903  36.903   0.971
62696W        W34956  17.324  28.061   0.398
62697W        W34957   9.764  26.707  14.041
62698W        W34958  25.208  23.270  13.969
62699W        W34959  33.950   4.119  13.888
62700W        W34960  12.406   5.355   2.724
62701W        W34961  43.408  23.741  12.472
62702W        W34962  39.555  43.468  11.898
62703W        W34963  22.192  31.145  13.918
62704W        W34964  29.784  24.362   0.727
62705W        W34965  27.709  36.427  10.630
62706W        W34966  27.971   5.788   1.223
62707W        W34967  38.906  24.698   0.012
62708W        W34968   6.805  16.876  10.298
62709W        W34969   3.579  39.115  10.103
62710W        W34970  18.049  15.993  14.309
62711W        W34971   7.490  28.755   0.713
62712W        W34972  28.957  19.624   1.773
62713W        W34973  24.873  41.774   1.644
62714W        W34974   0.746   1.205  14.843
62715W        W34975   1.921  24.507  12.500
62716W        W34976   9.166  44.931   4.532
62717W        W34977  13.678  43.160  10.620
62718W        W34978   2.282  13.953  10.687
62719W        W34979  19.782  31.425   0.685
62720W        W34980  27.725  32.468  12.445
62721W        W34981  12.615  13.187  13.430
62722W        W34982  42.292  38.555  13.841
62723W        W34983  35.743  29.123  11.630
62724W        W34984  24.329  11.791   0.808
62725W        W34985  14.157  12.209  12.954
62726W        W34986  39.995  18.312   1.945
62727W        W34987  28.408  16.577   0.466
62728W        W34988  26.008  10.206  13.061
62729W        W34989  11.671  35.086   2.604
62730W        W34990  44.498  34.905   0.944
62731W        W34991  39.488   1.303  12.230
62732W        W34992  29.202  31.899   4.606
62733W        W34993  42.979  41.779  11.695
62734W        W34994  10.732  13.102  14.209
62735W        W34995   3.986  43.097  11.161
62736W        W34996  39.357  36.891  14.309
62737W        W34997   5.150   4.610  10.653
62738W        W34998  14.391  23.252   1.409
62739W        W34999  38.551  44.697  14.335
62740W        W35000  42.097  17.713  13.956
62741W        W35001  15.832   2.805   3.081
62742W        W35002  20.054  41.055   0.341
62743W        W35003  32.506  11.885  12.822
62744W        W35004   6.735  26.280   2.702
62745W        W35005  10.462  27.601  11.505
62746W        W35006   1.305  26.619  12.214
62747W        W35007   8.306  29.036   2.853
62748W        W35008  44.136  15.409   1.188
62749W        W35009  35.476   3.301   0.050
62750W        W35010  12.829   6.844   3.154
62751W        W35011  16.257   1.967  14.610
62752W        W35012  13.359  36.758  12.323
62753W        W35013  41.404  15.039  13.570
62754W        W35014  10.862  23.660  11.156
62755W        W35015   1.133  39.315   4.646
62756W        W35016   9.962  10.177  10.961
62757W        W35017  42.446  42.877   3.583
62758W        W35018  42.409  28.376   2.205
62759W        W35019   6.235  37.935  12.579
62760W        W35020  43.522   1.041  11.143
62761W        W35021  19.836   4.635   2.297
62762W        W35022  33.107  32.483   1.470
62763W        W35023  24.451  30.962   3.825
62764W        W35024   6.706   4.622  12.940
62765W        W35025  27.649  27.045  14.464
62766W        W35026  34.027  14.095   3.436
62767W        W35027  39.627  24.781  11.089
62768W        W35028  38.491   3.006  14.881
62769W        W35029   2.022  35.479  14.083
62770W        W35030  13.035  36.299   2.428
62771W        W35031  41.065   4.786  11.101
62772W        W35032  14.101  20.769   0.531
62773W        W35033   1.048  41.702   2.256
62774W        W35034  10.947  17.473  11.199
62775W        W35035   8.873  13.216   2.112
62776W        W35036  10.312  24.899  12.032
62777W        W35037  15.588  26.417  14.833
62778W        W35038  27.092  37.544  12.350
62779W        W35039  12.343  43.401  13.570
62780W        W35040  41.838   2.888   0.991
62781W        W35041  21.179   8.326   4.594
62782W        W35042  26.288  24.622  11.155
62783W        W35043  16.448  31.296   0.287
62784W        W35044  19.759  36.047  14.005
62785W        W35045  24.954  20.262  11.214
62786W        W35046  32.254  30.388   5.007
62787W        W35047  38.792  44.934   2.829
62788W        W35048  29.100  26.087  12.537
62789W        W35049  27.590  36.139  12.160
62790W        W35050  26.643  27.449  11.129
62791W        W35051  27.434  27.608   4.478
62792W        W35052  43.841  44.176   0.351
62793W        W35053  31.174  12.561   3.525
62794W        W35054  16.632  16.210   9.790
62795W        W35055  37.126   9.078   5.526
62796W        W35056  31.973  30.499   4.594
62797W        W35057  38.066  10.115  14.991
62798W        W35058   5.434  37.889   4.136
62799W        W35059   2.898   4.732   1.791
62800W        W35060  43.205  28.387   3.743
62801W        W35061  38.726  31.438   3.361
62802W        W35062  19.248   2.788   0.243
62803W        W35063   6.331  40.310   2.857
62804W        W35064  32.069  25.512  14.271
62805W        W35065  37.816  27.953  14.440
62806W        W35066  35.259  32.646   2.196
62807W        W35067  15.844  43.961   5.003
62808W        W35068  24.753  10.574  11.563
62809W        W35069   4.015  41.314   5.091
62810W        W35070   0.032   1.389  12.995
62811W        W35071  12.594  40.763  10.691
62812W        W35072   1.496  41.289   0.836
62813W        W35073  17.993  13.287   2.914
62814W        W35074  24.951  33.600  12.438
62815W        W35075   6.782  34.868   1.622
62816W        W35076  11.367  31.600   4.431
62817W        W35077  18.147  29.600   3.266
62818W        W35078  21.770  16.180  12.943
62819W        W35079   3.455  41.993  12.007
62820W        W35080  32.372   4.795  10.646
62821W        W35081   3.259  28.906   0.897
62822W        W35082  10.215  18.105  13.945
62823W        W35083  16.373   5.765  12.939
62824W        W35084  17.532  39.581  10.995
62825W        W35085  15.517  11.109  12.554
62826W        W35086  10.152  10.045  13.533
62827W        W35087  15.631  17.328   2.712
62828W        W35088   7.250   7.330  14.127
62829W        W35089  23.891  15.085   0.313
62830W        W35090  32.942  31.134  11.982
62831W        W35091   8.852  14.024   1.658
62832W        W35092  39.212  23.518   0.841
62833W        W35093   0.769   7.150  13.944
62834W        W35094  30.577  44.314  14.866
62835W        W35095  14.667  14.041  14.353
62836W        W35096  18.205  31.469  10.754
62837W        W35097   6.663   9.783  14.444
62838W        W35098  19.744  36.159   2.662
62839W        W35099  29.384  10.084  11.157
62840W        W35100  36.359   7.338   1.427
62841W        W35101  14.412  13.896  11.781
62842W        W35102  18.573  18.057   2.278
62843W        W35103  44.780   4.322   3.598
62844W        W35104  41.448  19.253  14.370
62845W        W35105   8.854  26.753   2.738
62846W        W35106  29.663   7.514   4.368
62847W        W35107  43.800  35.357  13.426
62848W        W35108  29.966   1.064   0.168
62849W        W35109  26.095  15.627   0.757
62850W        W35110  31.061  22.799  13.906
62851W        W35111   0.290   8.646   0.303
62852W        W35112  13.784  16.553  10.494
62853W        W35113  20.919   2.945  12.466
62854W        W35114  25.175   4.755  12.037
62855W        W35115  25.241  15.214  13.405
62856W        W35116  21.915  23.979   1.300
62857W        W35117  41.275  20.127   0.497
62858W        W35118  13.618   3.368  10.687
62859W        W35119  16.425  15.615   5.246
62860W        W35120  41.149  31.877   4.632
62861W        W35121  34.655  22.543  12.085
62862W        W35122  37.912  27.634  13.550
62863W        W35123  11.592   2.312  10.503
62864W        W35124  17.024  25.310  10.037
62865W        W35125  34.776  11.977   0.649
62866W        W35126  16.280   7.818  14.355
62867W        W35127  32.939   7.724  12.501
62868W        W35128   5.572  31.076   1.782
62869W        W35129  29.484  42.640  10.272
62870W        W35130   1.458  23.716   2.943
62871W        W35131  17.977  33.097  11.009
62872W        W35132  43.765  18.692   0.709
62873W        W35133  30.152  28.028   4.709
62874W        W35134  40.380  42.470   3.169
62875W        W35135  23.591  24.148  10.747
62876W        W35136  23.228  25.502   4.278
62877W        W35137   2.167  37.124  11.196
62878W        W35138  19.032  22.775   3.331
62879W        W35139  27.815   2.190  13.263
62880W        W35140  34.913  14.928   1.727
62881W        W35141   3.016   2.991  13.767
62882W        W35142  26.115  30.971   1.668
62883W        W35143  13.196  33.986  12.283
62884W        W35144  36.018  10.454   2.299
62885W        W35145  19.654   3.182  11.056
62886W        W35146  15.600  40.481   3.695
62887W        W35147  39.245  27.607  11.954
62888W        W35148   6.261  17.832  14.448
62889W        W35149  30.973  35.150   4.186
62890W        W35150  16.254   1.232   3.006
62891W        W35151  35.941  23.083  13.418
62892W        W35152  44.104   9.361   3.462
62893W        W35153  39.892   3.294  13.134
62894W        W35154   4.703  36.267  14.395
62895W        W35155  36.363   6.369   1.247
62896W        W35156   1.826  42.377  12.521
62897W        W35157  32.852  41.295  11.699
62898W        W35158  42.701  15.618   1.204
62899W        W35159   2.908  40.311  14.724
62900W        W35160  26.625  41.541  11.093
62901W        W35161   5.213   0.944  14.402
62902W        W35162  42.464  36.881   4.381
62903W        W35163  17.329   9.168  12.546
62904W        W35164  25.008  36.866  11.617
62905W        W35165  40.489  34.404  11.111
62906W        W35166  14.279  39.600   3.360
62907W        W35167  15.509  44.911  12.067
62908W        W35168  38.931  30.385   1.940
62909W        W35169  41.500   3.830  13.157
62910W        W35170  20.576  42.540  14.501
62911W        W35171  21.756  20.785  10.149
62912W        W35172   4.762  19.633   1.161
62913W        W35173   6.772   1.338   2.184
62914W        W35174   6.167   8.815  14.403
62915W        W35175  25.687  40.985   0.867
62916W        W35176  37.002  30.549   0.420
62917W        W35177  15.546  16.324  10.894
62918W        W35178  39.850  27.491  10.552
62919W        W35179  20.069  35.442  14.893
62920W        W35180  27.228  22.245  11.104
62921W        W35181  38.977  22.577  14.359
62922W        W35182  29.628   4.286  13.893
62923W        W35183  39.124   8.045  12.931
62924W        W35184  41.835  25.107   1.320
62925W        W35185  22.630   6.183   4.131
62926W        W35186  11.841  41.384  13.444
62927W        W35187  28.496  14.329  11.338
62928W        W35188  44.021  27.320   3.133
62929W        W35189   7.186  10.646   3.700
62930W        W35190   0.251  36.274   1.890
62931W        W35191  11.158  20.828   0.322
62932W        W35192  44.675  42.458  11.217
62933W        W35193  44.347  24.502  12.805
62934W        W35194  28.230  14.188  10.088
62935W        W35195  38.251  28.704  12.886
62936W        W35196  23.711  11.212  12.106
62937W        W35197  15.438  29.651  13.577
62938W        W35198  37.114  31.626  10.410
62939W        W35199  13.885  40.383  13.444
62940W        W35200  38.916   0.021  11.888
62941W        W35201  27.187  32.321   3.711
62942W        W35202  26.676  34.174   3.795
62943W        W35203  15.180  21.637  12.872
62944W        W35204  18.740   3.110   1.362
62945W        W35205  30.662  10.750  10.674
62946W        W35206  10.473   5.162  14.423
62947W        W35207  42.638  31.547   1.335
62948W        W35208   7.881  41.015  14.372
62949W        W35209  30.849  24.600  12.053
62950W        W35210   8.822  23.589  12.850
62951W        W35211   9.185  31.389   1.628
62952W        W35212   9.802  14.108  11.841
62953W        W35213  30.353  24.444   3.682
62954W        W35214  14.367  27.094  14.413
62955W        W35215  44.321  40.269   1.389
62956W        W35216  41.852  38.661  13.590
62957W        W35217  29.999  22.230   0.937
62958W        W35218   3.311  14.454   2.952
62959W        W35219   8.433   0.066  13.139
62960W        W35220  12.059  23.553   2.217
62961W        W35221  23.169  30.871   3.312
62962W        W35222  16.243  28.130  11.505
62963W        W35223  41.377  28.509   0.733
62964W        W35224   3.919  15.217  11.890
62965W        W35225  32.929  43.352  11.427
62966W        W35226  18.011  41.282   2.353
62967W        W35227  29.804  16.560  12.470
62968W        W35228   0.353  28.497  11.391
62969W        W35229   4.268  23.921  10.947
62970W        W35230  12.293  36.411   4.355
62971W        W35231  43.358  20.833  14.796
62972W        W35232  35.764  24.673  11.495
62973W        W35233  36.675  26.037  12.273
62974W        W35234  37.740   6.193  14.285
62975W        W35235  17.126  36.442  12.341
62976W        W35236  25.165  24.732  13.947
62977W        W35237   1.800  11.767   0.254
62978W        W35238  12.668  20.574   2.062
62979W        W35239  29.378  14.220  11.284
62980W        W35240  37.302  29.099   0.274
62981W        W35241  35.381   3.950  13.863
62982W        W35242  11.266   4.159  10.735
62983W        W35243  12.110   0.535   4.693
62984W        W35244   9.272  41.977  14.833
62985W        W35245  29.510  23.586   1.388
62986W        W35246   0.246  19.144  12.950
62987W        W35247  15.200  40.750   4.115
62988W        W35248  22.812   6.196   1.869
62989W        W35249   0.026   2.797   3.328
62990W        W35250  29.429  24.706  11.006
62991W        W35251  12.245  17.041   0.027
62992W        W35252  43.284  17.450   1.749
62993W        W35253  34.086   4.948   2.657
62994W        W35254  33.655  35.046  13.589
62995W        W35255  18.090  21.818  13.094
62996W        W35256  43.801   3.240  10.914
62997W        W35257  40.890  16.733   1.756
62998W        W35258  41.271  10.755  10.926
62999W        W35259  26.237  20.441   2.222
63000W        W35260  32.493  25.167  14.491
63001W        W35261  18.124  32.622  13.025
63002W        W35262  39.058   9.707   1.381
63003W        W35263  17.566  32.174  10.968
63004W        W35264  25.135  42.980  10.530
63005W        W35265  24.085  12.587   4.493
63006W        W35266  34.878  26.210   1.665
63007W        W35267  44.699  15.835  10.167
63008W        W35268   2.388   9.151   0.975
63009W        W35269   4.466   6.478   3.349
63010W        W35270   9.245  33.481   1.292
63011W        W35271   2.696  27.066  14.880
63012W        W35272  14.174  25.375  13.726
63013W        W35273  33.915  29.408   0.590
63014W        W35274   6.285   9.735   1.458
63015W        W35275  17.137   2.411  10.085
63016W        W35276  40.953  16.883   0.857
63017W        W35277  17.486   3.060  11.008
63018W        W35278  23.829  18.289  13.900
63019W        W35279  31.989   6.874  12.091
63020W        W35280  12.771   4.435   2.855
63021W        W35281   5.300   5.679  14.776
63022W        W35282  26.860  20.491   0.115
63023W        W35283  21.137  41.081  12.112
63024W        W35284  29.537  27.211   0.240
63025W        W35285   5.436   3.953   1.412
63026W        W35286  17.268  20.773  11.479
63027W        W35287  25.423  11.926   5.009
63028W        W35288   2.606   4.907   1.376
63029W        W35289   7.943  27.746   5.020
63030W        W35290  27.566   1.885   2.839
63031W        W35291   5.750  35.033   3.208
63032W        W35292   6.486  13.846  12.791
63033W        W35293  29.272   8.275   0.016
63034W        W35294  30.849  29.151   1.856
63035W        W35295  36.628  40.384  14.288
63036W        W35296  34.132   4.720   4.633
63037W        W35297  10.682  25.183   4.084
63038W        W35298  22.169  33.831   3.234
63039W        W35299   7.278  19.240   2.999
63040W        W35300   8.305  31.582  14.536
63041W        W35301   2.005   2.388  12.983
63042W        W35302   1.352  35.615  12.408
63043W        W35303  35.878   7.251   4.573
63044W        W35304  14.414  34.479  12.885
63045W        W35305  26.400  38.794  12.271
63046W        W35306   0.649  28.767   3.287
63047W        W35307  40.361  32.571  12.305
63048W        W35308  11.762   8.837   2.378
63049W        W35309  41.263  28.590   3.603
63050W        W35310  30.617   6.354  14.713
63051W        W35311  31.336  39.694   3.370
63052W        W35312  38.602  32.073  11.552
63053W        W35313  17.411  21.046  10.038
63054W        W35314  33.851   3.620   2.406
63055W        W35315   0.351  16.088   3.356
63056W        W35316  11.250   6.867   2.703
63057W        W35317  34.210  43.867   1.337
63058W        W35318  13.694  11.225   3.190
63059W        W35319  32.652  14.371  11.054
63060W        W35320  20.232  16.867  11.663
63061W        W35321  12.481  42.545  14.418
63062W        W35322   1.697   2.529  11.477
63063W        W35323   0.532  34.539   0.377
63064W        W35324  10.252  36.052  13.336
63065W        W35325  20.662  23.762   3.311
63066W        W35326   5.362  25.046   4.563
63067W        W35327   4.224  35.346  12.336
63068W        W35328   6.439  41.735   0.526
63069W        W35329  15.665  15.404  12.520
63070W        W35330  15.716  13.635  12.883
63071W        W35331  26.009  31.380   0.703
63072W        W35332  17.112  16.256  12.051
63073W        W35333  44.919  16.056   2.450
63074W        W35334  42.569  36.373  10.642
63075W        W35335  37.907  13.358   0.065
63076W        W35336  15.803  37.300   4.167
63077W        W35337  43.263  20.321  14.789
63078W        W35338  43.740  21.778  10.703
63079W        W35339  35.945  17.751  11.527
63080W        W35340  10.365   5.706   1.929
63081W        W35341  18.778   1.583  11.224
63082W        W35342  25.268   8.332   1.967
63083W        W35343   9.377  26.225   4.399
63084W        W35344  42.538   7.443   1.318
63085W        W35345  25.045  19.173  12.215
63086W        W35346  14.676  34.816  10.637
63087W        W35347  18.731  11.798  11.752
63088W        W35348   0.398  35.247  11.907
63089W        W35349  22.496   4.853   2.649
63090W        W35350  18.795   3.462   1.754
63091W        W35351  42.943  31.388   0.642
63092W        W35352  20.710   4.221  12.918
63093W        W35353  29.833  21.676  10.503
63094W        W35354  20.975   2.129   0.346
63095W        W35355   1.762  41.863  12.668
63096W        W35356  38.513  21.540   1.472
63097W        W35357  12.744  18.241  12.446
63098W        W35358   0.780  34.373  13.958
63099W        W35359  11.942  17.461  14.299
63100W        W35360  25.149  38.420  10.450
63101W        W35361   2.054  28.404  13.489
63102W        W35362  44.337  12.129  11.675
63103W        W35363   9.935  35.003  11.101
63104W        W35364  44.800  34.479   3.671
63105W        W35365  27.261   0.430  10.759
63106W        W35366  42.834  31.077  14.228
63107W        W35367  29.059   8.814  13.097
63108W        W35368  19.787  41.255  13.120
63109W        W35369   7.881  26.534  11.646
63110W        W35370  28.436  16.624   3.324
63111W        W35371  21.108  39.444   2.748
63112W        W35372  18.306  42.035  14.835
63113W        W35373  33.930  38.801   1.754
63114W        W35374  20.349  32.616  12.731
63115W        W35375  39.997  21.093  13.549
63116W        W35376  22.540  23.515  12.523
63117W        W35377   9.261  11.220   0.194
63118W        W35378  11.377  42.771   2.006
63119W        W35379  21.754  35.984   0.821
63120W        W35380  31.165   3.372  11.991
63121W        W35381   3.737  39.918  12.087
63122W        W35382  28.569  17.845  10.996
63123W        W35383  13.643  25.944   1.188
63124W        W35384   8.853  38.034  11.621
63125W        W35385  10.688   5.389   1.213
63126W        W35386  25.682  31.345   3.400
63127W        W35387   9.630  15.881  13.566
63128W        W35388  27.038   1.719   3.286
63129W        W35389  11.418  11.774  11.142
63130W        W35390   9.246  22.578  14.267
63131W        W35391  28.127   3.233   4.558
63132W        W35392  40.203  18.732  11.926
63133W        W35393  19.758  11.395   0.475
63134W        W35394  10.028  30.897  12.079
63135W        W35395  32.962  30.942  14.520
63136W        W35396  26.463  39.852  10.293
63137W        W35397   5.704  42.468  14.002
63138W        W35398  32.517  40.066   4.576
63139W        W35399  21.050   8.904  11.638
63140W        W35400  20.289   1.225  10.623
63141W        W35401  15.933  23.322   2.087
63142W        W35402  32.439  38.127  14.858
63143W        W35403   7.281   2.931  11.035
63144W        W35404   7.993  29.992  14.359
63145W        W35405  28.740  25.621   4.112
63146W        W35406  16.253  35.977   4.533
63147W        W35407  40.778   0.292  11.970
63148W        W35408  20.007  37.354  12.871
63149W        W35409  38.530  24.978   3.546
63150W        W35410  27.533  33.901  12.367
63151W        W35411   5.653  15.131   3.595
63152W        W35412  12.693  13.851  11.526
63153W        W35413  39.090  33.837  13.703
63154W        W35414  20.735  16.560   4.132
63155W        W35415   1.241  24.056  12.552
63156W        W35416  17.643  26.547  14.952
63157W        W35417  39.988  11.643  11.617
63158W        W35418   5.351  41.269   3.649
63159W        W35419  32.962  25.618  12.955
63160W        W35420  34.481  33.410  13.560
63161W        W35421   9.473   1.808   2.609
63162W        W35422   6.345   7.815   4.265
63163W        W35423  24.654  31.489   0.987
63164W        W35424  38.166  16.600  13.820
63165W        W35425  32.079  15.163  11.823
63166W        W35426   8.310  35.647  11.125
63167W        W35427  27.476  40.997   4.648
63168W        W35428  44.718  26.310  14.536
63169W        W35429  39.882  37.047   0.271
63170W        W35430  14.819  30.262   5.485
63171W        W35431  29.280  27.407  10.994
63172W        W35432  39.732  24.252  11.041
63173W        W35433   0.911  37.459  12.163
63174W        W35434   2.385   9.197   0.447
63175W        W35435  24.211  39.420  14.713
63176W        W35436  19.196   6.167   4.657
63177W        W35437   4.877  15.729  10.976
63178W        W35438  10.258  33.551  11.408
63179W        W35439   4.520  11.342  14.535
63180W        W35440  42.532  15.726  13.596
63181W        W35441  38.340  19.638   2.745
63182W        W35442  33.606  18.189  10.493
63183W        W35443  36.638  12.299   4.212
63184W        W35444  38.979  37.837   2.062
63185W        W35445  39.771   7.343  10.203
63186W        W35446   1.557  17.709   2.726
63187W        W35447  23.034  17.795   0.877
63188W        W35448  40.235  28.684  14.576
63189W        W35449  40.583  21.539   4.146
63190W        W35450  17.042  28.095  14.068
63191W        W35451  41.637   7.352  11.920
63192W        W35452  11.896  32.947   3.123
63193W        W35453  42.802  11.272   4.130
63194W        W35454  43.239  18.128  13.333
63195W        W35455  33.086  17.684   0.029
63196W        W35456  17.635  11.778   1.325
63197W        W35457  12.377  12.655  11.402
63198W        W35458  40.960  14.702   3.983
63199W        W35459  28.964  16.115  12.960
63200W        W35460  15.254  25.654   4.730
63201W        W35461   9.091  12.042  14.973
63202W        W35462  35.973   8.639   4.384
63203W        W35463  33.456  22.956   1.317
63204W        W35464  15.271   7.606  14.547
63205W        W35465   9.255  41.578  11.864
63206W        W35466  27.563   0.329   1.005
63207W        W35467  24.661  44.313   2.817
63208W        W35468  41.046  15.922  10.300
63209W        W35469  24.682  41.054   3.706
63210W        W35470  24.255   9.840   0.357
63211W        W35471   4.397   3.312  13.922
63212W        W35472  19.835  15.297   4.091
63213W        W35473  15.612  23.700  12.525
63214W        W35474   4.443  13.236   3.348
63215W        W35475  40.010  29.871   0.936
63216W        W35476  35.189  20.666  10.201
63217W        W35477  27.500  35.083   3.037
63218W        W35478   3.426  14.118  13.997
63219W        W35479  15.583   9.191   4.887
63220W        W35480   3.309  44.443   4.570
63221W        W35481  15.001   0.874   3.259
63222W        W35482  37.546  16.380   3.713
63223W        W35483  41.126  33.992  13.500
63224W        W35484  16.144  40.071   1.099
63225W        W35485  17.593  41.721  12.088
63226W        W35486  19.367   1.053   3.360
63227W        W35487  38.876   0.877  11.752
63228W        W35488  16.170  43.729   0.367
63229W        W35489  24.571  14.726  12.602
63230W        W35490  23.790  34.471   3.739
63231W        W35491  18.497  18.536   4.150
63232W        W35492  14.722  12.584  11.714
63233W        W35493  36.249   7.934  11.207
63234W        W35494  31.107  18.037  11.588
63235W        W35495   4.211  24.058  12.999
63236W        W35496  42.417  39.330   3.733
63237W        W35497  21.550  32.869   1.221
63238W        W35498   3.688  41.543  13.841
63239W        W35499   1.328   2.012   4.696
63240W        W35500   2.681  17.582   4.105
63241W        W35501   6.379  16.580  11.136
63242W        W35502   1.772  17.713  12.943
63243W        W35503  31.718  18.915   1.723
63244W        W35504  10.318   4.129  14.874
63245W        W35505   5.134  14.427   3.630
63246W        W35506   7.210  13.877   2.919
63247W        W35507  14.614  10.615   4.944
63248W        W35508  43.411   6.276   3.115
63249W        W35509  14.686  24.618  14.126
63250W        W35510   3.070  38.490   1.866
63251W        W35511  10.766  11.246  14.931
63252W        W35512  42.399  15.710   3.362
63253W        W35513  16.355  32.257  13.570
63254W        W35514   6.195  35.015  13.800
63255W        W35515   9.190  36.918   0.163
63256W        W35516  18.351  23.592  14.847
63257W        W35517  25.005  36.623   4.600
63258W        W35518   7.673  35.138   3.057
63259W        W35519   6.917   3.333   1.376
63260W        W35520  21.681  28.296   9.699
63261W        W35521   9.653  25.112   3.801
63262W        W35522  19.669  32.475  10.639
63263W        W35523  38.891  21.740  14.799
63264W        W35524   1.729   0.484   4.191
63265W        W35525  43.225  10.542  13.349
63266W        W35526   8.214  30.968  13.580
63267W        W35527   9.874  26.909  14.524
63268W        W35528  38.329  25.452   2.848
63269W        W35529   1.038  36.514  11.532
63270W        W35530  44.514  20.229   3.093
63271W        W35531  12.669  35.185   1.744
63272W        W35532  33.596  19.008  13.636
63273W        W35533  31.698  17.598   4.604
63274W        W35534  10.152  26.580  14.868
63275W        W35535  38.007   0.917   3.399
63276W        W35536  26.890  37.977   0.394
63277W        W35537  21.158  11.372  12.904
63278W        W35538  33.388  15.824   3.173
63279W        W35539  41.915  38.692   3.246
63280W        W35540  14.804  38.088   1.522
63281W        W35541  39.116  35.023  11.784
63282W        W35542  42.034  43.129   1.272
63283W        W35543  40.106  22.278  10.145
63284W        W35544  35.499  43.955   0.772
63285W        W35545  30.901  19.577  12.595
63286W        W35546  34.368  31.946  12.500
63287W        W35547  21.274   1.296   1.103
63288W        W35548  13.633  15.798   0.472
63289W        W35549  11.409  26.266  11.475
63290W        W35550  42.868  43.231  12.994
63291W        W35551  36.278  27.989   0.992
63292W        W35552  21.308  10.528   4.145
63293W        W35553  41.260   8.903  12.834
63294W        W35554  24.505   9.352   2.245
63295W        W35555   5.759  34.944   0.998
63296W        W35556  15.174  30.037  11.840
63297W        W35557   3.187  17.256   0.463
63298W        W35558  18.271  37.113   2.884
63299W        W35559  11.211  26.407   1.780
63300W        W35560  17.625  26.131   4.778
63301W        W35561  21.518  31.004   0.526
63302W        W35562  17.817   8.376  11.569
63303W        W35563  37.896  29.395   9.800
63304W        W35564  10.656  13.793   3.899
63305W        W35565   5.407  35.063   3.791
63306W        W35566   7.922  23.594  10.823
63307W        W35567  27.013   0.751  12.626
63308W        W35568  31.637   9.037  14.287
63309W        W35569  23.550  33.652   4.053
63310W        W35570  30.829  32.642   5.724
63311W        W35571   2.604  36.383  10.679
63312W        W35572  23.963  32.163  10.115
63313W        W35573   7.760  22.597  13.331
63314W        W35574  44.900   4.162  11.973
63315W        W35575   8.843  28.172   4.465
63316W        W35576  28.562  26.585   1.170
63317W        W35577  11.140  21.593   3.632
63318W        W35578   8.104   3.739  13.502
63319W        W35579  24.323  15.716  10.702
63320W        W35580   4.706   7.362   2.866
63321W        W35581  42.780  22.507   0.409
63322W        W35582   2.863   0.741   4.694
63323W        W35583   7.792  40.282  13.111
63324W        W35584  17.023  36.919  12.553
63325W        W35585  43.347  32.744   3.139
63326W        W35586  20.982  10.263  10.581
63327W        W35587  42.577   4.843  11.143
63328W        W35588  42.352  15.010  11.194
63329W        W35589  10.603  14.508  11.229
63330W        W35590  38.046  40.802   1.274
63331W        W35591   2.579  30.063  13.569
63332W        W35592  21.741   5.773  12.072
63333W        W35593  44.587   0.937   0.215
63334W        W35594  23.696  21.984  12.412
63335W        W35595  16.026  31.659  10.983
63336W        W35596  34.076  44.272  11.558
63337W        W35597  29.413  37.955  11.963
63338W        W35598  11.933  32.088  11.020
63339W        W35599  10.811   4.885  10.127
63340W        W35600  34.381  18.343   4.653
63341W        W35601  37.867   3.951  13.943
63342W        W35602   2.321  29.969  11.114
63343W        W35603   9.233  25.930   3.069
63344W        W35604  25.225  31.379   3.157
63345W        W35605  20.202  38.494   1.298
63346W        W35606   6.778  22.218   0.264
63347W        W35607  26.091  17.745  13.095
63348W        W35608   8.274  28.176   2.778
63349W        W35609  36.908  18.885   0.725
63350W        W35610  41.142  44.907  13.456
63351W        W35611  41.924  25.896  13.479
63352W        W35612  28.952   9.242  12.247
63353W        W35613  44.259  16.635  11.187
63354W        W35614   2.561  34.833  12.379
63355W        W35615  23.498  16.298   3.632
63356W        W35616  29.862  36.048  13.434
63357W        W35617  11.602  24.088  12.033
63358W        W35618  24.659  34.132   2.813
63359W        W35619   0.468  44.367  10.190
63360W        W35620  12.226   6.911   4.624
63361W        W35621   8.809  27.531   3.673
63362W        W35622  27.081   6.179  11.553
63363W        W35623  22.359   3.187  12.940
63364W        W35624  13.826  41.572  12.417
63365W        W35625  36.803   7.155   1.842
63366W        W35626  42.406  27.324   0.983
63367W        W35627   8.113  16.239  12.487
63368W        W35628   2.250  15.769  10.963
63369W        W35629  22.019  43.548  11.233
63370W        W35630  38.907  22.512   1.231
63371W        W35631  42.040  25.224  10.350
63372W        W35632  24.647  27.748   5.917
63373W        W35633   3.357   9.387  11.581
63374W        W35634  27.087  18.038  13.976
63375W        W35635  41.570   9.642   1.832
63376W        W35636  42.020  12.079  13.584
63377W        W35637  37.395  41.360   0.370
63378W        W35638   6.949   0.281   2.756
63379W        W35639  33.446   0.905   2.915
63380W        W35640   7.860  44.073   0.352
63381W        W35641  25.139   9.855   4.479
63382W        W35642  19.578  26.132  13.898
63383W        W35643  13.763  39.862   3.371
63384W        W35644   5.335  33.847  14.528
63385W        W35645   8.891  29.065  14.325
63386W        W35646  17.360  44.300  12.927
63387W        W35647  21.523   5.424  13.791
63388W        W35648  23.546  16.407   1.630
63389W        W35649  15.797  13.319   1.315
63390W        W35650   0.863  14.014  10.619
63391W        W35651  18.239  24.807   1.300
63392W        W35652  19.511  13.659   2.700
63393W        W35653  20.578  26.829   4.053
63394W        W35654   8.339   4.077  13.841
63395W        W35655  25.409  30.965   0.934
63396W        W35656  44.507   7.716   2.740
63397W        W35657  14.287  27.393  10.645
63398W        W35658  42.990   7.202   1.285
63399W        W35659   1.773   4.594   3.591
63400W        W35660  27.710  36.061   1.754
63401W        W35661  15.176  37.964  11.859
63402W        W35662  34.663  43.446   2.781
63403W        W35663  19.251  29.030  13.633
63404W        W35664  21.513  18.646   3.118
63405W        W35665   7.270  29.885   3.298
63406W        W35666  32.203  42.120  10.763
63407W        W35667   4.429  18.858   1.619
63408W        W35668  28.266  35.568  14.378
63409W        W35669  23.652  41.403  13.322
63410W        W35670  42.347  43.460  10.872
63411W        W35671  15.244   9.721   4.274
63412W        W35672  43.086  38.979   3.017
63413W        W35673  26.213   9.718  13.538
63414W        W35674   6.673  33.641   2.936
63415W        W35675  27.451  36.153  11.683
63416W        W35676  11.865  29.910  13.864
63417W        W35677   0.463  31.426  14.088
63418W        W35678  33.566   2.236  12.920
63419W        W35679   4.250   4.987  10.206
63420W        W35680  23.072  30.386   4.250
63421W        W35681  27.986  19.026  12.960
63422W        W35682   4.917  40.893  14.294
63423W        W35683   7.784  40.785   2.250
63424W        W35684  37.614  43.283   5.062
63425W        W35685  43.168  14.832  12.737
63426W        W35686   2.800   8.198  10.842
63427W        W35687  26.894  13.459  11.559
63428W        W35688  21.763  13.407   1.953
63429W        W35689  24.459  20.540   3.114
63430W        W35690  15.178  37.539  11.573
63431W        W35691   6.441  12.857  12.906
63432W        W35692   1.247  10.950  11.944
63433W        W35693  19.158  18.489  12.604
63434W        W35694  44.151  36.543   0.502
63435W        W35695  19.205  33.920   1.629
63436W        W35696  34.402  20.249   2.652
63437W        W35697   5.000  17.032   4.919
63438W        W35698  11.216  38.105  14.335
63439W        W35699  16.943  17.619   1.718
63440W        W35700  10.750  18.225   4.604
63441W        W35701  21.569  39.058  12.975
63442W        W35702  34.621   2.442  13.841
63443W        W35703   1.990  12.654  13.421
63444W        W35704  42.001  40.364  12.578
63445W        W35705  11.605  14.647  13.394
63446W        W35706  31.545   9.673   2.701
63447W        W35707  31.433   6.998  12.177
63448W        W35708  18.434  37.088  10.485
63449W        W35709   1.293  11.745  14.980
63450W        W35710  34.530  22.511  11.165
63451W        W35711   3.924  22.723  14.155
63452W        W35712  32.407  22.168   0.911
63453W        W35713   6.156   4.940   2.395
63454W        W35714   2.414   0.942   3.651
63455W        W35715   6.818  40.546   2.279
63456W        W35716  26.397   6.838   2.372
63457W        W35717   3.163  35.194  14.925
63458W        W35718  30.097   7.709  11.105
63459W        W35719  34.168  12.251  11.651
63460W        W35720  29.275  19.017   4.483
63461W        W35721  33.041  17.091   4.150
63462W        W35722  43.413  13.623  10.564
63463W        W35723  29.004   3.800   4.430
63464W        W35724  22.625  32.695  10.769
63465W        W35725  38.058   4.425  14.064
63466W        W35726  35.274  42.207  13.798
63467W        W35727  17.433   0.804   2.306
63468W        W35728  25.195  39.905  13.016
63469W        W35729   9.996  10.806   0.730
63470W        W35730  41.407  10.658   1.715
63471W        W35731   0.111  15.749  12.653
63472W        W35732  17.765  26.974  13.950
63473W        W35733   5.316  12.541   1.557
63474W        W35734  34.531  44.980  14.790
63475W        W35735  23.208  42.919  10.398
63476W        W35736  32.021  26.640   2.794
63477W        W35737  24.968  43.840   1.461
63478W        W35738  22.161  16.997  12.915
63479W        W35739   5.919   6.633  11.930
63480W        W35740   4.526  33.480  12.496
63481W        W35741  20.214  35.487  13.108
63482W        W35742  25.450  25.013   3.212
63483W        W35743   0.889   7.584   3.203
63484W        W35744  18.081  14.713  13.551
63485W        W35745  38.088  31.694  13.851
63486W        W35746  28.866   9.287  14.329
63487W        W35747  29.391  33.189   1.775
63488W        W35748  28.114  13.292   0.717
63489W        W35749  41.917  39.262  12.465
63490W        W35750  23.475  10.795   2.306
63491W        W35751  39.265  26.709  14.829
63492W        W35752  18.739  35.385  12.063
63493W        W35753  44.096  42.724  10.295
63494W        W35754   0.317   7.116   2.702
63495W        W35755  36.468  44.244  12.949
63496W        W35756  23.473  13.624  13.050
63497W        W35757  38.430  34.332   0.324
63498W        W35758  35.165  41.066   2.343
63499W        W35759   3.843   2.139   1.336
63500W        W35760  24.944  12.908   4.694
63501W        W35761   0.268   0.481  12.057
63502W        W35762  24.993  42.081   3.538
63503W        W35763  13.604   4.349  12.897
63504W        W35764  26.374  23.394   0.065
63505W        W35765  25.110  38.454   3.478
63506W        W35766  28.404  29.459   1.764
63507W        W35767  16.221  13.611   1.274
63508W        W35768   1.415   9.808   3.813
63509W        W35769  30.227  11.826  12.402
63510W        W35770   4.717  30.695  11.389
63511W        W35771  18.712  42.273   1.446
63512W        W35772   0.195  29.895   0.294
63513W        W35773  32.377  31.095  11.108
63514W        W35774  17.341  16.780  11.177
63515W        W35775  21.858  21.120   9.712
63516W        W35776   0.249  31.934   0.818
63517W        W35777  17.540  37.404   3.621
63518W        W35778  37.833  30.526  11.137
63519W        W35779  36.049  31.181   2.445
63520W        W35780  24.838  44.154  11.172
63521W        W35781   1.684  42.760  13.883
63522W        W35782   4.348  33.881  14.881
63523W        W35783  14.982   9.595   0.886
63524W        W35784  23.038  35.121   0.525
63525W        W35785  14.142  30.983  14.274
63526W        W35786   5.904  14.822   4.588
63527W        W35787   3.247  33.455  12.066
63528W        W35788  20.159  15.553  12.061
63529W        W35789  43.270   2.850   4.780
63530W        W35790  43.843  16.543   2.432
63531W        W35791  22.645  36.305   2.157
63532W        W35792   9.874   6.982  14.956
63533W        W35793  25.936  24.101   4.088
63534W        W35794  27.087  21.518  10.607
63535W        W35795  22.472   0.830   4.600
63536W        W35796  41.623  13.795   2.357
63537W        W35797  15.511  35.921  10.720
63538W        W35798  13.761  37.362   3.574
63539W        W35799   7.300   4.765  12.969
63540W        W35800  44.434  14.752   0.241
63541W        W35801  15.824  19.205  12.924
63542W        W35802   4.596  38.108   0.324
63543W        W35803   4.334   1.332  12.558
63544W        W35804  31.137  16.143  13.870
63545W        W35805  33.023  15.773  13.938
63546W        W35806  12.011  41.051   4.538
63547W        W35807  43.240  43.305  14.466
63548W        W35808  24.279  37.967  14.487
63549W        W35809   3.127  14.781   3.314
63550W        W35810  34.180   8.621  12.814
63551W        W35811  40.411   5.696  13.936
63552W        W35812  36.409  25.478  10.757
63553W        W35813  39.355   5.828  11.599
63554W        W35814  26.202   8.847   2.370
63555W        W35815   0.159   2.529   4.347
63556W        W35816   1.506  28.525   4.131
63557W        W35817  41.483   8.718  14.300
63558W        W35818  33.633  22.558  12.074
63559W        W35819  39.252  30.120   4.981
63560W        W35820   8.833  34.659  13.145
63561W        W35821  27.598  29.408  14.876
63562W        W35822  20.250   2.872  13.038
63563W        W35823   5.640  10.212  13.839
63564W        W35824  27.499  11.199   2.738
63565W        W35825  44.873  27.115  11.503
63566W        W35826   3.502  23.088   3.970
63567W        W35827  29.585  15.100   2.377
63568W        W35828  22.262  41.781  11.529
63569W        W35829  15.307   4.447  10.634
63570W        W35830  12.881  19.782  14.965
63571W        W35831  15.388  16.397  13.123
63572W        W35832  13.350  14.780  11.095
63573W        W35833   7.303  27.212   5.056
63574W        W35834   1.851  24.629   0.202
63575W        W35835  30.931  19.010   2.170
63576W        W35836  28.374  32.671   3.218
63577W        W35837   4.415   4.239   1.243
63578W        W35838   5.309  35.129  13.571
63579W        W35839  28.979   9.205  10.760
63580W        W35840  12.851  19.083   4.173
63581W        W35841  37.952  14.410   2.766
63582W        W35842   4.504  43.298  12.854
63583W        W35843  17.116  19.098   4.244
63584W        W35844  12.829  28.276  12.863
63585W        W35845  30.962  33.521  13.351
63586W        W35846  40.296  11.861  10.378
63587W        W35847  16.841  11.686   2.706
63588W        W35848  36.483   5.277   4.897
63589W        W35849   6.593  16.489  11.695
63590W        W35850  39.325  32.914  11.165
63591W        W35851  19.771  12.268  13.900
63592W        W35852  40.013   8.287   2.854
63593W        W35853  14.080  19.819   2.678
63594W        W35854  22.036   7.631  10.997
63595W        W35855  11.780   8.270   0.308
63596W        W35856  22.035  32.919   3.141
63597W        W35857  37.379  29.510  14.905
63598W        W35858   4.760  38.791  14.718
63599W        W35859  38.005  17.184   3.133
63600W        W35860   2.854  11.277   4.524
63601W        W35861   2.666  43.881  10.541
63602W        W35862   6.119  29.750  13.550
63603W        W35863  15.597   6.817  10.597
63604W        W35864  30.549   9.954  11.247
63605W        W35865  36.894   4.201   2.427
63606W        W35866  28.888  38.895  12.892
63607W        W35867  16.728  40.323   0.494
63608W        W35868  31.375  37.528  14.908
63609W        W35869  17.739   7.990   4.581
63610W        W35870  42.794   9.960  11.051
63611W        W35871   5.913   6.722   4.154
63612W        W35872  20.241  40.626  13.402
63613W        W35873  18.905  25.216  12.455
63614W        W35874  38.904  27.531   1.185
63615W        W35875  27.918  10.432  10.936
63616W        W35876  35.519  31.809  12.122
63617W        W35877  29.627  34.396   3.239
63618W        W35878   1.400   4.731   4.287
63619W        W35879  24.388  41.488   5.470
63620W        W35880  14.758  19.953  12.088
63621W        W35881  29.951   6.624  13.322
63622W        W35882  32.996   6.655  10.482
63623W        W35883   0.003  38.049   4.529
63624W        W35884  18.100  37.626  13.927
63625W        W35885  38.945  12.268   4.092
63626W        W35886  32.403   9.224  14.978
63627W        W35887  18.380   7.341   3.714
63628W        W35888  18.132   4.797  13.193
63629W        W35889  12.588  30.438   0.749
63630W        W35890  26.484  12.645   1.265
63631W        W35891   1.940  10.631  13.454
63632W        W35892  28.216  36.564  10.656
63633W        W35893  39.698  13.338  12.951
63634W        W35894  36.610  34.133   0.483
63635W        W35895  29.331  21.261  10.674
63636W        W35896  23.809   9.126   0.324
63637W        W35897   2.010   0.021   1.051
63638W        W35898  26.104  36.128   1.455
63639W        W35899   7.135   8.716   1.791
63640W        W35900  38.121  26.270  13.833
63641W        W35901  27.449  30.429   1.431
63642W        W35902  40.225  38.659  14.764
63643W        W35903  21.518  21.817   2.609
63644W        W35904   8.237  33.305  14.782
63645W        W35905  41.985   2.320   0.261
63646W        W35906  22.504  31.104  14.537
63647W        W35907   8.158  24.463  10.707
63648W        W35908  20.054   0.464   2.601
63649W        W35909  37.594  23.573   4.134
63650W        W35910  26.712  11.062  13.812
63651W        W35911   2.756   2.343   3.709
63652W        W35912  18.684  26.700   3.726
63653W        W35913  10.812   4.338   0.023
63654W        W35914  22.959  38.901   5.104
63655W        W35915  19.742  26.682  11.671
63656W        W35916   9.213  25.610   2.677
63657W        W35917  25.076  36.573   3.694
63658W        W35918  16.847  16.185  12.896
63659W        W35919   8.837  37.878   5.026
63660W        W35920  32.610   2.416   1.021
63661W        W35921   8.581  13.708   2.845
63662W        W35922  17.189  22.783   2.077
63663W        W35923   7.250  24.542  11.628
63664W        W35924   7.893   5.963   2.704
63665W        W35925   2.706  10.885  13.960
63666W        W35926  31.584  24.468   3.203
63667W        W35927  38.654  38.474   0.439
63668W        W35928  26.198  35.926   3.724
63669W        W35929  28.943  29.739  10.201
63670W        W35930   4.407  33.380  10.992
63671W        W35931  16.114  13.910   4.692
63672W        W35932  36.294  19.656   4.673
63673W        W35933   5.275  33.996   1.959
63674W        W35934  14.366  25.489  11.975
63675W        W35935  23.923  44.974   3.935
63676W        W35936  18.800   7.663   5.355
63677W        W35937   2.241  31.417  10.596
63678W        W35938  15.595   4.782   1.922
63679W        W35939  27.001  33.831  14.000
63680W        W35940  14.111  18.578  13.948
63681W        W35941  14.223  43.455   4.052
63682W        W35942   6.490  19.718   5.114
63683W        W35943  35.986  32.921  13.357
63684W        W35944  17.023  31.896   3.643
63685W        W35945  35.002   9.983  12.871
63686W        W35946  10.839  13.756   0.986
63687W        W35947  19.725   7.685   3.614
63688W        W35948   4.643  25.613  14.293
63689W        W35949  34.172  40.859  12.028
63690W        W35950  37.443  26.048  10.517
63691W        W35951  40.746  26.110   3.790
63692W        W35952  33.066   9.227   3.386
63693W        W35953  29.233  28.518  12.652
63694W        W35954  27.925  11.293  11.725
63695W        W35955  11.054  22.115  13.303
63696W        W35956  32.066  18.674   3.579
63697W        W35957  22.523  10.210  13.193
63698W        W35958  33.901  40.840  14.153
63699W        W35959   9.947  38.976  11.952
63700W        W35960   0.366  33.428   2.211
63701W        W35961   5.912  39.390   4.868
63702W        W35962   7.901  11.414  11.188
63703W        W35963  35.735   0.969  10.618
63704W        W35964  10.314  31.938   3.572
63705W        W35965  10.575  15.243   0.801
63706W        W35966  13.060  25.195  13.959
63707W        W35967  12.016   2.488  10.824
63708W        W35968  27.470  42.496   0.747
63709W        W35969  36.649  11.156   4.719
63710W        W35970  30.224  19.288   1.435
63711W        W35971  37.342  43.031  11.642
63712W        W35972   2.446  35.869  12.411
63713W        W35973   3.204  19.405  13.922
63714W        W35974  27.574  14.946  14.123
63715W        W35975   4.278   7.451  10.968
63716W        W35976  37.947  40.307   3.899
63717W        W35977  11.145   9.741   4.360
63718W        W35978  15.390  19.208   1.018
63719W        W35979  32.702   5.521  12.046
63720W        W35980  35.483  23.503   4.519
63721W        W35981  19.374  14.374   3.327
63722W        W35982   2.835  41.475  11.954
63723W        W35983   5.816  44.230  13.910
63724W        W35984  33.949  17.528   4.643
63725W        W35985  38.046  16.832   2.200
63726W        W35986   1.539  10.720   4.305
63727W        W35987  13.128  43.720  14.745
63728W        W35988  31.820  42.614  13.028
63729W        W35989   6.230  15.795   4.531
63730W        W35990   7.273  15.549   0.501
63731W        W35991  29.616  41.587  11.173
63732W        W35992   6.692  17.110  12.177
63733W        W35993  14.719  16.828   2.707
63734W        W35994   3.194  15.303   3.958
63735W        W35995   0.701  35.584  14.529
63736W        W35996  29.082  21.684   4.696
63737W        W35997  32.380  40.508   4.117
63738W        W35998  35.312   4.999  11.877
63739W        W35999  23.764  12.732  11.953
63740W        W36000  43.804  28.127   2.580
63741W        W36001  43.587  17.577  14.805
63742W        W36002  27.883  30.993   1.779
63743W        W36003  31.648   0.202   0.335
63744W        W36004  17.722  15.234   1.779
63745W        W36005  31.528  10.174  12.935
63746W        W36006   1.911   1.532  12.569
63747W        W36007  37.308  17.663  14.483
63748W        W36008  41.970  41.070   2.690
63749W        W36009  23.492  20.809   1.494
63750W        W36010  27.723   9.346   0.825
63751W        W36011   6.855   3.345   3.431
63752W        W36012   4.824   6.983   0.048
63753W        W36013  34.888  41.313  11.564
63754W        W36014  22.757  14.229  13.081
63755W        W36015  17.282  43.991   1.927
63756W        W36016  20.687  16.039  14.397
63757W        W36017  35.042  34.354   1.266
63758W        W36018  25.560  16.117  10.976
63759W        W36019  39.256  33.761   2.857
63760W        W36020  16.232  24.397   4.050
63761W        W36021  34.419  30.914  11.087
63762W        W36022  15.156   9.595  13.920
63763W        W36023  28.550  43.317  10.669
63764W        W36024   4.537  28.451   1.447
63765W        W36025   0.997   1.849   2.116
63766W        W36026  10.294  20.179  13.565
63767W        W36027  33.568  26.142   1.437
63768W        W36028  31.703  42.036  10.746
63769W        W36029   3.216   4.595  12.360
63770W        W36030  20.155  33.205   0.270
63771W        W36031  35.522  10.830   0.320
63772W        W36032   1.140   5.331  12.821
63773W        W36033   2.711   0.787  13.914
63774W        W36034   3.860  30.168   1.217
63775W        W36035  17.583  19.179   1.284
63776W        W36036  29.999   4.519  12.556
63777W        W36037   3.666  10.335  10.676
63778W        W36038  42.557   9.673   4.575
63779W        W36039  34.649  24.814  13.817
63780W        W36040  20.195   1.529   4.189
63781W        W36041  33.607  31.611   4.077
63782W        W36042  15.534   6.269   3.844
63783W        W36043  13.895  40.308  14.820
63784W        W36044  30.055  43.631  11.608
63785W        W36045  13.178  35.330   1.952
63786W        W36046  22.296  15.924  10.403
63787W        W36047  27.273  14.347   2.270
63788W        W36048  32.780  12.120  14.535
63789W        W36049  38.295  33.651  12.563
63790W        W36050  39.911  44.769   0.255
63791W        W36051  36.451  14.489  13.139
63792W        W36052  43.211  44.817   0.548
63793W        W36053  14.022   6.320  14.344
63794W        W36054  17.231  18.689  14.582
63795W        W36055   9.638  20.802  12.765
63796W        W36056   4.845  33.392   3.288
63797W        W36057  11.416  15.187  12.144
63798W        W36058  22.105  19.064   5.022
63799W        W36059  39.987  36.709  11.164
63800W        W36060   7.793  28.683   0.143
63801W        W36061   3.273  13.752  13.076
63802W        W36062   2.257  35.837   4.185
63803W        W36063  21.283   4.010   3.709
63804W        W36064   6.480   8.172   3.924
63805W        W36065   7.743   8.314  13.250
63806W        W36066  44.983  17.130  13.961
63807W        W36067  31.971  33.044  11.595
63808W        W36068  43.736  41.307  12.494
63809W        W36069   6.616  11.087   2.794
63810W        W36070  35.322  38.561   2.871
63811W        W36071  11.323  14.302   2.782
63812W        W36072  10.787  14.166   1.339
63813W        W36073  43.327  30.009   3.637
63814W        W36074  22.471  44.839  14.577
63815W        W36075  11.623  37.837  11.179
63816W        W36076   4.880  25.521   2.328
63817W        W36077  25.317  34.775  13.939
63818W        W36078  42.264  42.405   3.593
63819W        W36079   1.716  35.756  13.737
63820W        W36080  24.656  20.780   1.338
63821W        W36081  34.582   9.110  11.075
63822W        W36082  33.098  42.310   1.040
63823W        W36083  18.060  13.665  14.485
63824W        W36084  30.647  35.234   2.193
63825W        W36085  30.146  32.012  10.249
63826W        W36086  16.175  34.139  11.539
63827W        W36087  16.755  11.045   4.363
63828W        W36088  16.801  43.407  11.640
63829W        W36089   7.817  27.236   5.008
63830W        W36090  16.140  25.696   4.602
63831W        W36091  10.259  41.002  14.902
63832W        W36092  28.609  41.523   4.579
63833W        W36093  29.632  19.614   1.262
63834W        W36094  10.866  19.812  11.213
63835W        W36095   4.773  33.525   5.605
63836W        W36096  36.146   3.918   1.889
63837W        W36097  44.820   5.352   1.513
63838W        W36098   6.182   8.323   2.459
63839W        W36099  18.220  33.802   0.584
63840W        W36100  10.388   0.395   3.125
63841W        W36101  21.317  11.856   2.323
63842W        W36102   0.918  25.703   4.061
63843W        W36103  30.681  36.098  13.890
63844W        W36104  30.135  10.879   4.305
63845W        W36105   1.488   9.238   4.582
63846W        W36106  15.029  38.009   1.972
63847W        W36107  15.306  12.373  12.024
63848W        W36108  31.077  14.268  12.358
63849W        W36109  32.894   0.827   0.528
63850W        W36110   7.105  35.658  11.173
63851W        W36111  18.005  28.648   3.163
63852W        W36112  29.895  15.126  11.152
63853W        W36113  29.463   4.210  14.384
63854W        W36114  25.169   9.166   0.942
63855W        W36115  17.270  23.364   1.324
63856W        W36116   5.860  43.040   0.962
63857W        W36117   1.816  32.593   4.172
63858W        W36118  21.108  34.999  11.540
63859W        W36119  11.180  36.176   3.805
63860W        W36120  13.216  23.706  10.341
63861W        W36121   8.958   9.200   0.745
63862W        W36122  20.123  28.277   0.761
63863W        W36123   4.074   7.530   1.510
63864W        W36124  14.950   8.277   4.207
63865W        W36125  24.248  10.290   0.841
63866W        W36126  34.355  19.834   4.428
63867W        W36127   8.502  28.037   2.311
63868W        W36128  27.116  25.202  12.604
63869W        W36129  22.231   3.636  14.848
63870W        W36130  18.271  43.803  14.422
63871W        W36131  35.629  28.004   3.693
63872W        W36132  28.798  39.521   0.048
63873W        W36133  39.787   4.169  13.362
63874W        W36134  35.372   1.382  12.891
63875W        W36135   1.325  15.099  14.678
63876W        W36136   4.216  13.315   1.918
63877W        W36137  16.125  40.965   2.199
63878W        W36138  44.570  19.180   0.732
63879W        W36139   4.419  21.575   0.420
63880W        W36140   1.353  33.589   1.300
63881W        W36141   5.503  18.199   1.666
63882W        W36142  27.104  43.531  10.910
63883W        W36143  38.034   2.780   1.714
63884W        W36144  16.972  26.225  14.984
63885W        W36145  21.298   4.959  11.827
63886W        W36146  21.498   6.222   4.547
63887W        W36147  31.657  10.918   4.144
63888W        W36148  16.518  12.864   0.542
63889W        W36149  30.403  23.699  14.485
63890W        W36150  27.506  26.645  12.080
63891W        W36151  23.059  34.057  13.462
63892W        W36152  30.457  27.976  12.965
63893W        W36153  19.227  11.142   4.619
63894W        W36154  31.691  19.587   3.691
63895W        W36155   7.857  36.990   4.693
63896W        W36156  33.377  24.698  12.170
63897W        W36157   2.375  36.957  12.134
63898W        W36158   4.828   1.195   0.803
63899W        W36159  35.797  40.299   1.139
63900W        W36160  26.119  13.369   2.369
63901W        W36161  26.092   9.954  11.692
63902W        W36162  28.649  25.734  11.742
63903W        W36163  18.755   9.182   1.401
63904W        W36164  34.063  30.638  14.021
63905W        W36165  15.577  26.239   2.678
63906W        W36166  25.665  22.729   4.224
63907W        W36167  22.681   6.690   2.881
63908W        W36168  43.541  27.983  11.185
63909W        W36169   4.616  33.901  12.785
63910W        W36170  24.716  28.047  11.221
63911W        W36171  40.454  10.833  11.653
63912W        W36172  16.728  22.712   3.734
63913W        W36173  20.088  30.854   3.694
63914W        W36174  30.666  18.306  11.932
63915W        W36175  26.580  25.475  13.955
63916W        W36176   9.750  38.928  12.419
63917W        W36177  13.132  26.594  10.713
63918W        W36178  29.151  40.623  13.289
63919W        W36179   6.207  39.894  12.805
63920W        W36180  42.375  21.088   3.159
63921W        W36181  29.623  37.451   0.975
63922W        W36182  32.876  26.125   0.334
63923W        W36183  29.502  30.965  11.144
63924W        W36184   7.145   2.249  14.171
63925W        W36185  31.473  31.284  10.172
63926W        W36186   8.221  37.036  13.910
63927W        W36187   2.609  13.096  10.796
63928W        W36188  23.995  42.313  11.087
63929W        W36189  11.870  41.576  10.714
63930W        W36190   0.037  28.064  11.128
63931W        W36191   3.400  16.280   2.950
63932W        W36192  23.088  19.256   3.393
63933W        W36193   7.685  29.579   3.251
63934W        W36194  33.525   4.502   2.531
63935W        W36195  29.720   2.970   2.823
63936W        W36196  36.236  37.791  11.028
63937W        W36197  36.403  30.055   1.927
63938W        W36198  21.982  15.836  13.510
63939W        W36199   1.046   6.323   5.252
63940W        W36200   7.449  14.259  12.737
63941W        W36201  37.379   3.794  14.712
63942W        W36202  13.076  41.503   3.907
63943W        W36203  39.355  40.317  13.024
63944W        W36204  38.791  14.162   0.630
63945W        W36205  25.077  22.235  11.375
63946W        W36206  13.393  20.980   0.775
63947W        W36207   0.657  21.927   3.880
63948W        W36208  37.540  37.000   2.701
63949W        W36209  32.710  32.397  10.936
63950W        W36210  31.889  13.306   0.683
63951W        W36211  22.745  44.080   0.874
63952W        W36212  27.388  17.050  13.559
63953W        W36213   2.295  26.846   5.156
63954W        W36214  38.429  14.332   4.567
63955W        W36215  34.123   1.220  11.163
63956W        W36216  41.158  22.327   1.334
63957W        W36217  26.721   3.366   2.232
63958W        W36218  15.035  35.236  12.389
63959W        W36219  38.803  16.531   1.297
63960W        W36220  27.160   1.227  14.413
63961W        W36221  30.677   6.200   3.053
63962W        W36222  37.289  13.283   1.597
63963W        W36223  12.174  35.073   3.664
63964W        W36224  36.548  28.904  12.030
63965W        W36225  38.441   9.184   2.466
63966W        W36226  25.624  29.508  11.147
63967W        W36227  32.746  40.240   1.883
63968W        W36228   0.033  21.712  13.951
63969W        W36229   5.347  40.069   1.010
63970W        W36230  43.867   0.759   2.279
63971W        W36231  41.370  14.245   3.560
63972W        W36232  40.847  11.167  10.771
63973W        W36233  29.859   7.386  14.435
63974W        W36234   5.190  22.610   2.004
63975W        W36235  30.436  30.828  10.792
63976W        W36236  28.083  20.686   1.694
63977W        W36237  23.464  38.997  14.764
63978W        W36238   6.711  26.579  12.019
63979W        W36239   9.851  34.420   3.777
63980W        W36240  31.122  35.493  13.337
63981W        W36241  12.874  15.602  10.691
63982W        W36242   8.650  29.690   3.242
63983W        W36243  42.490  11.853   0.788
63984W        W36244   0.024  16.642   0.839
63985W        W36245  24.638   1.731  12.858
63986W        W36246   7.303   9.342   4.119
63987W        W36247   6.930  39.477  14.112
63988W        W36248  20.290   0.070  14.370
63989W        W36249  22.790  35.014  14.723
63990W        W36250  34.116  10.690   3.285
63991W        W36251  23.272  23.615   3.899
63992W        W36252   2.376  19.663  14.426
63993W        W36253   3.242  25.040  14.040
63994W        W36254   6.293  31.396   3.688
63995W        W36255  20.743  41.388  12.561
63996W        W36256  21.007  11.453  10.325
63997W        W36257  24.083  13.897  13.893
63998W        W36258  24.648  28.445   0.893
63999W        W36259  29.708   9.308   0.685
64000W        W36260  17.947  18.773  13.968
64001W        W36261  23.575  30.379   3.693
64002W        W36262  33.086  17.262   2.371
64003W        W36263  42.511   8.730   0.233
64004W        W36264  31.920   4.670  11.980
64005W        W36265  25.002  41.978  13.931
64006W        W36266  11.002  32.641  11.258
64007W        W36267  17.606   0.711  10.412
64008W        W36268  17.299   9.949   3.620
64009W        W36269   9.896  26.152  12.373
64010W        W36270  29.733  35.321  14.555
64011W        W36271   4.846  36.431  11.874
64012W        W36272  12.762  34.528  11.708
64013W        W36273  21.500  24.602   3.786
64014W        W36274  39.773  25.617  12.524
64015W        W36275  13.247  28.007  12.737
64016W        W36276   3.619  37.933   4.640
64017W        W36277   3.772   5.383  12.088
64018W        W36278  14.581  43.967  10.634
64019W        W36279  38.925  31.698   4.997
64020W        W36280  43.234   8.354  13.946
64021W        W36281  11.425  38.336  12.196
64022W        W36282  28.881   3.598  13.945
64023W        W36283  42.190   9.228   2.302
64024W        W36284  42.723  17.999   4.044
64025W        W36285  13.171  15.379   1.844
64026W        W36286   9.824  13.041   2.341
64027W        W36287  10.699  15.181   3.876
64028W        W36288  43.050  27.544   0.739
64029W        W36289  12.650  37.584  13.643
64030W        W36290  11.961  18.826   4.743
64031W        W36291  17.654  29.107  14.834
64032W        W36292   7.802  27.923   3.715
64033W        W36293  10.653  40.448   1.566
64034W        W36294   7.697  22.602   1.426
64035W        W36295   6.689  26.276  10.279
64036W        W36296  39.024   6.302  10.967
64037W        W36297  37.751  27.127  12.641
64038W        W36298  11.177  33.751   3.234
64039W        W36299  35.543  20.912   2.619
64040W        W36300  23.061  28.475  11.542
64041W        W36301  36.661  39.334  13.512
64042W        W36302   2.761   3.070   3.393
64043W        W36303   4.425   1.275   2.265
64044W        W36304  11.662  32.408  14.936
64045W        W36305   9.194  30.452  11.638
64046W        W36306   6.302  33.833  13.773
64047W        W36307  28.426  39.483  11.159
64048W        W36308   8.687  17.856  10.674
64049W        W36309  14.688  26.173  10.905
64050W        W36310  24.767  36.967  12.069
64051W        W36311  42.813  20.245   0.385
64052W        W36312  31.684  18.081   0.790
64053W        W36313  12.791  16.064   4.863
64054W        W36314  18.817  27.042   4.616
64055W        W36315   1.769  12.072   4.160
64056W        W36316  41.097  25.395  13.096
64057W        W36317  32.517  18.563   2.681
64058W        W36318  22.158  24.267  12.708
64059W        W36319  40.485  31.336   1.835
64060W        W36320  22.192  35.181   0.791
64061W        W36321   8.183  36.046  10.851
64062W        W36322   3.176  42.122  12.436
64063W        W36323  38.123  41.865  14.888
64064W        W36324  40.375  13.541   0.757
64065W        W36325  30.273   1.797  11.593
64066W        W36326  31.924   9.359  14.027
64067W        W36327  25.531   6.730  11.629
64068W        W36328  41.590  31.576   0.315
64069W        W36329  22.169  11.576   4.158
64070W        W36330  20.783  14.650  13.893
64071W        W36331   7.902  20.335  11.051
64072W        W36332  44.821  17.083  12.536
64073W        W36333  10.680  21.524  14.866
64074W        W36334  17.892  19.543  11.959
64075W        W36335  44.457  21.602  11.058
64076W        W36336  44.939   2.264  12.213
64077W        W36337  19.733   9.332   0.067
64078W        W36338  32.391  16.305  13.524
64079W        W36339  27.594  14.871  12.358
64080W        W36340  31.048  19.834  14.372
64081W        W36341  18.458  37.793   4.576
64082W        W36342  43.411  39.235   1.262
64083W        W36343  14.885  25.027  10.748
64084W        W36344  35.912   0.927  11.559
64085W        W36345  11.340  23.696  13.518
64086W        W36346  10.650  36.479   0.883
64087W        W36347  14.424   9.458   2.316
64088W        W36348  15.745   4.918  13.086
64089W        W36349   1.655   8.220  12.579
64090W        W36350  37.096  10.874  14.443
64091W        W36351  23.225  30.583   1.048
64092W        W36352   0.931  43.414  14.379
64093W        W36353   5.774   9.671  10.747
64094W        W36354  13.690   5.800   4.344
64095W        W36355  39.526  25.438   2.400
64096W        W36356  38.604  35.821  12.801
64097W        W36357  15.258  40.354   2.785
64098W        W36358  14.764  19.118  14.395
64099W        W36359  34.868  19.581   4.870
64100W        W36360  38.422  11.652   3.738
64101W        W36361  37.048  18.763   1.221
64102W        W36362  23.590  29.376  13.483
64103W        W36363  22.324  44.247   0.016
64104W        W36364  42.535  31.731   3.543
64105W        W36365  20.135   0.814   4.018
64106W        W36366  41.897  27.847  10.436
64107W        W36367  32.651  14.596  11.538
64108W        W36368  34.012   3.644  14.818
64109W        W36369  34.828  11.623  10.768
64110W        W36370  40.013  41.712   4.112
64111W        W36371  12.362  39.982  14.298
64112W        W36372   6.143  41.394   0.283
64113W        W36373  34.977  25.686   1.651
64114W        W36374  35.150  39.073   2.236
64115W        W36375   8.953  33.047   4.070
64116W        W36376  21.371  14.346  10.653
64117W        W36377  35.527  21.313   0.232
64118W        W36378  38.777  42.375   1.768
64119W        W36379  26.510  34.863  12.378
64120W        W36380  11.230   2.157  12.656
64121W        W36381  13.605  44.909   4.739
64122W        W36382  42.527  21.659   1.359
64123W        W36383  25.948  36.584   1.296
64124W        W36384  35.953   8.385  12.622
64125W        W36385  24.237  28.868  11.460
64126W        W36386  40.911  20.267   2.345
64127W        W36387  43.160  26.558   1.019
64128W        W36388  21.096  44.300  11.966
64129W        W36389  29.318  16.029  11.980
64130W        W36390  17.176   2.310   2.904
64131W        W36391  22.710  31.660  10.415
64132W        W36392  40.900  34.830   3.919
64133W        W36393  12.364   5.913   4.608
64134W        W36394  19.518  22.984   3.310
64135W        W36395  15.091  11.864   0.384
64136W        W36396  31.593   0.592  13.489
64137W        W36397  22.589  37.945   4.572
64138W        W36398  20.255   3.182   1.420
64139W        W36399   6.422   0.838  10.684
64140W        W36400  29.616  36.911   3.450
64141W        W36401  17.148  22.125   4.869
64142W        W36402  44.290   1.676  12.480
64143W        W36403  35.560  14.902  10.515
64144W        W36404  17.708  21.051   1.025
64145W        W36405  28.012  36.660   0.303
64146W        W36406  38.337   2.798  14.388
64147W        W36407  43.883  18.203  12.904
64148W        W36408  41.992  25.712  14.829
64149W        W36409  10.658   1.839  11.580
64150W        W36410   0.931  40.035   3.640
64151W        W36411  21.138  28.865  10.335
64152W        W36412  29.312   7.850   4.065
64153W        W36413  24.403  36.031   0.184
64154W        W36414   9.352   8.255   3.274
64155W        W36415   5.995  10.732  11.474
64156W        W36416  30.537  44.404   1.471
64157W        W36417   6.896   6.398  11.131
64158W        W36418  41.501  21.213  14.909
64159W        W36419   8.826  12.485   0.027
64160W        W36420   4.464  10.832  11.657
64161W        W36421  41.528  15.089   0.766
64162W        W36422  43.405  18.177   1.447
64163W        W36423  19.184   2.939   1.166
64164W        W36424  24.031  41.954  13.826
64165W        W36425  42.648  33.260  13.459
64166W        W36426   6.618   7.840  12.394
64167W        W36427  38.331  27.476   1.974
64168W        W36428   1.392  34.475  13.216
64169W        W36429  12.299   2.393   3.140
64170W        W36430  40.541   6.899   2.385
64171W        W36431   5.744  32.547  10.387
64172W        W36432  36.463  44.897  11.809
64173W        W36433  10.900   0.877  11.480
64174W        W36434  39.987  11.314   2.908
64175W        W36435  28.542  40.871   1.464
64176W        W36436   5.812   5.408   1.527
64177W        W36437   4.157  24.320   1.475
64178W        W36438  39.970  40.393   0.768
64179W        W36439  42.018   6.622  14.035
64180W        W36440   1.318   7.268   1.560
64181W        W36441  19.608  18.995  11.996
64182W        W36442  41.857   3.901   2.414
64183W        W36443   6.373   1.318   9.727
64184W        W36444  30.797  41.275   3.260
64185W        W36445  36.877  25.632   2.850
64186W        W36446  26.208  22.684  10.687
64187W        W36447   6.903  22.648  12.732
64188W        W36448  43.915  33.958  11.860
64189W        W36449  22.660   4.644  12.776
64190W        W36450   9.371  41.538  13.451
64191W        W36451  39.840  34.910  10.740
64192W        W36452  10.355  44.586  11.970
64193W        W36453   5.382   4.166  10.678
64194W        W36454   2.450   9.965   4.315
64195W        W36455  38.922  14.316  12.464
64196W        W36456  20.248  30.909  10.657
64197W        W36457  40.031   7.749  14.917
64198W        W36458  44.715  38.529   0.816
64199W        W36459  11.593  34.109   3.573
64200W        W36460   6.216   4.721  13.047
64201W        W36461  19.111  25.911   2.939
64202W        W36462  18.629  26.736  11.013
64203W        W36463  16.754  22.189   3.633
64204W        W36464   9.590  21.517   0.802
64205W        W36465  18.217  34.222  13.137
64206W        W36466   6.347  31.300   1.934
64207W        W36467  14.238  39.490  11.970
64208W        W36468  29.417  11.276  10.741
64209W        W36469  27.494   0.216  12.147
64210W        W36470   2.249   6.777   1.640
64211W        W36471  18.331  19.763  13.918
64212W        W36472  22.478  31.919   4.106
64213W        W36473  26.182  20.818  11.228
64214W        W36474  11.835  35.112  13.032
64215W        W36475  44.413  37.704  13.821
64216W        W36476  16.842  16.684  11.083
64217W        W36477  32.816  10.690   2.799
64218W        W36478  30.382  43.849  14.699
64219W        W36479  20.547   2.863  14.383
64220W        W36480  38.009  28.507  12.432
64221W        W36481  41.227  12.480  12.482
64222W        W36482  12.359  16.208   4.563
64223W        W36483  16.124   6.331   0.486
64224W        W36484   4.907  22.688  12.606
64225W        W36485   0.731   2.928   1.304
64226W        W36486  36.540  26.833  12.850
64227W        W36487  24.073  34.052  13.475
64228W        W36488  15.310  13.068  14.704
64229W        W36489  14.145   3.473   4.840
64230W        W36490   6.306  42.880   1.262
64231W        W36491  25.976  22.085  13.965
64232W        W36492  44.807  38.188   0.431
64233W        W36493  11.849   5.135   2.723
64234W        W36494   5.919   7.443  13.795
64235W        W36495  36.465  20.774   4.175
64236W        W36496  37.374  30.456  14.553
64237W        W36497  29.866  34.998   0.310
64238W        W36498  22.695  43.139  14.665
64239W        W36499   3.858   2.208   2.174
64240W        W36500  33.547  20.406   2.509
64241W        W36501   4.187  29.579   2.279
64242W        W36502  28.207  41.332  11.092
64243W        W36503  28.290  39.259   3.291
64244W        W36504   5.159  40.534  13.456
64245W        W36505  12.100  11.341   3.469
64246W        W36506  10.020  12.723   4.765
64247W        W36507  41.759  31.499   3.227
64248W        W36508  31.181  24.674  12.453
64249W        W36509  21.676  40.990   2.295
64250W        W36510  24.736  38.089   2.697
64251W        W36511  19.590  17.717   1.317
64252W        W36512  22.464  31.641   3.647
64253W        W36513  27.502  25.005  14.865
64254W        W36514  30.513   0.349  14.834
64255W        W36515  24.635   6.127  11.150
64256W        W36516  17.134  16.348   2.668
64257W        W36517  42.772   0.469   1.423
64258W        W36518   1.664  43.887   0.050
64259W        W36519   3.408  13.210  12.397
64260W        W36520  44.435  38.900  14.448
64261W        W36521  22.921  27.765  12.145
64262W        W36522  41.942  10.964  14.969
64263W        W36523  18.486  44.961   0.958
64264W        W36524  44.991  41.852  12.425
64265W        W36525  27.212  22.776  11.113
64266W        W36526  25.261   5.854   2.304
64267W        W36527  37.333  44.746   1.348
64268W        W36528  39.484   6.909  14.916
64269W        W36529   0.209  13.195  13.016
64270W        W36530  12.577  37.489   2.139
64271W        W36531  23.442  36.671  12.266
64272W        W36532  15.250  10.070   4.697
64273W        W36533  18.530  21.207  10.571
64274W        W36534  37.818  33.002   1.857
64275W        W36535  30.643  14.278   3.305
64276W        W36536   1.171  18.523  11.240
64277W        W36537   4.449  25.009   0.359
64278W        W36538   7.739  19.175  10.604
64279W        W36539  19.507  30.712   9.574
64280W        W36540  44.988  30.121  11.562
64281W        W36541   1.807  22.058   1.355
64282W        W36542  36.331   4.010  13.062
64283W        W36543  41.345   4.400  11.904
64284W        W36544  26.952  13.274  12.401
64285W        W36545  30.883  20.609  13.337
64286W        W36546  19.429  31.473  13.401
64287W        W36547  11.227  29.718   1.236
64288W        W36548  31.898  23.222  11.504
64289W        W36549   6.213  42.844  11.318
64290W        W36550  16.133  11.793  13.845
64291W        W36551  18.662  19.736  11.576
64292W        W36552  19.004  28.655  13.404
64293W        W36553  28.252   5.374   1.504
64294W        W36554  12.718  19.116  13.860
64295W        W36555   8.220   5.382  12.363
64296W        W36556  42.784  42.163  11.011
64297W        W36557  30.268   1.689  11.082
64298W        W36558  41.608   2.734  12.864
64299W        W36559  38.832  27.621   4.735
64300W        W36560  24.300  37.335   1.849
64301W        W36561  36.147  27.338  10.686
64302W        W36562  22.094   6.939  12.981
64303W        W36563  33.883  32.854   2.189
64304W        W36564   6.906  39.551  12.587
64305W        W36565  12.805  31.155  13.908
64306W        W36566  30.549   9.330   0.978
64307W        W36567   2.943  17.646  12.431
64308W        W36568  39.669   1.817  11.443
64309W        W36569  36.361  21.094   2.202
64310W        W36570   7.764  22.227  14.277
64311W        W36571  12.341  20.010  12.831
64312W        W36572   0.517  25.987  13.297
64313W        W36573  30.190  16.077  13.732
64314W        W36574  11.391  37.899   1.377
64315W        W36575  18.536  43.478   4.369
64316W        W36576  16.845  25.177   1.328
64317W        W36577  38.325  35.475   2.818
64318W        W36578  37.404  30.564  13.641
64319W        W36579  18.546   4.473  12.987
64320W        W36580  38.618   3.500   3.152
64321W        W36581  22.673  25.100  14.961
64322W        W36582  11.426  29.185   2.735
64323W        W36583  37.342  10.406  11.848
64324W        W36584  35.628  32.767  12.453
64325W        W36585  36.736   9.204   4.318
64326W        W36586  30.628  21.466  12.425
64327W        W36587  41.424  14.363  14.183
64328W        W36588  43.400  28.967  14.732
64329W        W36589  41.265  31.569   3.143
64330W        W36590   3.917  43.178   1.998
64331W        W36591   6.648  35.608  14.484
64332W        W36592  14.177   3.325  14.755
64333W        W36593  10.565  42.838  14.518
64334W        W36594  22.028   3.548  13.905
64335W        W36595   7.987  33.254   1.893
64336W        W36596  40.899  19.667   1.454
64337W        W36597  23.656  13.708   1.290
64338W        W36598   2.337  26.204  14.021
64339W        W36599  39.793  40.692   1.793
64340W        W36600  38.894  16.598  14.897
64341W        W36601  38.007   0.684  10.677
64342W        W36602  23.605  28.609   1.326
64343W        W36603  13.068  28.583   1.862
64344W        W36604  40.573   8.128   5.029
64345W        W36605   9.688   2.268  12.198
64346W        W36606  25.712  31.837  14.368
64347W        W36607  18.790  22.622   1.086
64348W        W36608  38.060  37.984   2.868
64349W        W36609  37.053  17.517   3.312
64350W        W36610   5.656  18.189   3.192
64351W        W36611   1.871   9.176   4.228
64352W        W36612  29.533   7.194   5.090
64353W        W36613  19.303  40.768   3.143
64354W        W36614  38.478  37.981   2.138
64355W        W36615  28.628  29.002  11.565
64356W        W36616  26.178   3.173   0.325
64357W        W36617  40.946  37.229   4.821
64358W        W36618  41.140  41.379  10.794
64359W        W36619  35.980  44.215  13.264
64360W        W36620  11.931  32.325   0.367
64361W        W36621  18.437  18.124  14.928
64362W        W36622   0.383  41.049  11.612
64363W        W36623  40.353  15.696  10.702
64364W        W36624  27.486  19.619   2.165
64365W        W36625   7.225  25.141  12.845
64366W        W36626  10.808   6.361  14.908
64367W        W36627  35.808  30.473   0.783
64368W        W36628   9.706  29.095   3.594
64369W        W36629  22.707  41.107   2.297
64370W        W36630  16.375  36.090  13.842
64371W        W36631   7.886  29.120  14.231
64372W        W36632  17.840  15.624  13.369
64373W        W36633   5.210  43.454   3.209
64374W        W36634  26.047  28.545   2.951
64375W        W36635  43.109  32.523  10.697
64376W        W36636  34.572  34.592  11.598
64377W        W36637  34.595  32.937  13.943
64378W        W36638  10.871  22.989   2.798
64379W        W36639  35.519  44.533   3.843
64380W        W36640  16.665  19.298  13.945
64381W        W36641  19.800  43.758   1.295
64382W        W36642  16.137   6.226   0.994
64383W        W36643  37.301  14.577  13.185
64384W        W36644   8.211  38.033   4.118
64385W        W36645  14.627  18.683   2.755
64386W        W36646   4.431  10.765   2.619
64387W        W36647   3.928   3.854  14.465
64388W        W36648   0.967  41.564   2.735
64389W        W36649  43.114  27.381  14.480
64390W        W36650  32.353   8.624  12.430
64391W        W36651  30.591   0.855  12.391
64392W        W36652   7.379  28.243   0.761
64393W        W36653  16.858  24.107  10.612
64394W        W36654   3.948   9.169  14.398
64395W        W36655  41.022   1.541  12.525
64396W        W36656  33.047  12.371  13.871
64397W        W36657  24.290  22.658  12.063
64398W        W36658  34.577  28.848   0.666
64399W        W36659   8.759  23.127   0.883
64400W        W36660  36.373  39.019  11.294
64401W        W36661  35.988  36.027   2.436
64402W        W36662  14.812   4.265  14.310
64403W        W36663  20.468  10.664   2.916
64404W        W36664  12.633   8.488  12.514
64405W        W36665  41.686  38.690  10.704
64406W        W36666  12.807   5.645   1.917
64407W        W36667  22.707  33.892  14.930
64408W        W36668  16.747  11.394   0.422
64409W        W36669   1.228  36.438  12.050
64410W        W36670  14.257  36.954  10.860
64411W        W36671  34.174  31.135   3.284
64412W        W36672  42.084  33.364  12.907
64413W        W36673  13.253  17.788   3.473
64414W        W36674  36.115  15.194   1.620
64415W        W36675   7.676  21.115   4.658
64416W        W36676   7.719  28.699  13.908
64417W        W36677  38.442  16.975   0.500
64418W        W36678   4.670  36.936  14.915
64419W        W36679  16.233  18.000   2.339
64420W        W36680  24.809  35.249   0.011
64421W        W36681  13.914  36.111   0.985
64422W        W36682  10.793  15.971   3.720
64423W        W36683  38.748  24.011   3.365
64424W        W36684  35.022   4.953   3.568
64425W        W36685  11.397  27.703  12.570
64426W        W36686  10.696   9.442  14.019
64427W        W36687  34.932  24.275   3.087
64428W        W36688  33.850  17.101   0.402
64429W        W36689  10.199  25.818   3.212
64430W        W36690  24.666  43.997  13.764
64431W        W36691   3.803  11.585   2.851
64432W        W36692  42.212  44.865  11.718
64433W        W36693   9.363  13.747  13.391
64434W        W36694   3.149   0.916   4.297
64435W        W36695  31.360  44.912   3.307
64436W        W36696  43.019  27.429  11.834
64437W        W36697  11.658  33.952   4.054
64438W        W36698  16.278  27.035  14.989
64439W        W36699  26.715  21.622  12.082
64440W        W36700  21.805  11.060   2.698
64441W        W36701   2.471  32.957   0.028
64442W        W36702  21.477   9.818  13.477
64443W        W36703  38.096  35.520   1.438
64444W        W36704  23.444   7.880   3.542
64445W        W36705  36.415  42.489  13.909
64446W        W36706   3.228  11.549   0.205
64447W        W36707  31.374  10.091  11.528
64448W        W36708   7.854  28.459  13.450
64449W        W36709   3.642  25.841   1.761
64450W        W36710  20.599  27.594  11.522
64451W        W36711  35.499  25.153  11.950
64452W        W36712  32.974  32.359  11.426
64453W        W36713  21.584  13.177   1.265
64454W        W36714   7.975  39.953   4.179
64455W        W36715  40.277   8.920  10.335
64456W        W36716  23.963  19.147   1.718
64457W        W36717  15.652   5.470   2.500
64458W        W36718  27.747   9.411   2.716
64459W        W36719  15.611  28.544  14.365
64460W        W36720  33.520  26.976   0.859
64461W        W36721   7.930   1.057  11.098
64462W        W36722  19.010  32.814   0.777
64463W        W36723   0.414  39.076  11.406
64464W        W36724  13.111  23.470  12.538
64465W        W36725   9.633  39.816  13.945
64466W        W36726   4.692  36.917   1.256
64467W        W36727  36.363   5.880   0.338
64468W        W36728  14.793  43.045   3.518
64469W        W36729  37.943  15.829  14.393
64470W        W36730  14.152   4.438   1.866
64471W        W36731  21.468  40.693   1.921
64472W        W36732  42.431   4.635   2.144
64473W        W36733  20.555  10.548  14.867
64474W        W36734  23.044  21.561   3.262
64475W        W36735   2.784  27.905   2.966
64476W        W36736   4.143   1.065   4.168
64477W        W36737  29.193   0.811   2.152
64478W        W36738  12.835  34.986  14.325
64479W        W36739  12.806  26.192  14.273
64480W        W36740   9.622  13.212  11.958
64481W        W36741  17.234  27.727  14.971
64482W        W36742  30.451  17.177   1.732
64483W        W36743  20.799  32.629   0.908
64484W        W36744  36.834   2.715  10.525
64485W        W36745   2.053  21.292   4.570
64486W        W36746  42.801  19.674  14.407
64487W        W36747  23.188  21.811  10.567
64488W        W36748  25.082  29.998   2.671
64489W        W36749   3.293  21.255   3.312
64490W        W36750  22.706   8.684  13.997
64491W        W36751  30.550  27.622   2.689
64492W        W36752  18.274  19.515   1.811
64493W        W36753  34.035  26.998   0.837
64494W        W36754   4.854  33.939  14.732
64495W        W36755  30.582  37.880   4.381
64496W        W36756  22.797  15.914  14.324
64497W        W36757  23.964  40.815  14.874
64498W        W36758  35.115  17.462   3.114
64499W        W36759   7.150   5.881   3.257
64500W        W36760  17.011  10.337   1.208
64501W        W36761  14.420  26.726  10.005
64502W        W36762   8.453  10.290  10.528
64503W        W36763  20.455  24.875   1.275
64504W        W36764  36.346  26.489  10.723
64505W        W36765  26.099  11.306   1.170
64506W        W36766  38.477  14.779  10.815
64507W        W36767  20.231  36.316   3.833
64508W        W36768   2.651  11.160  10.610
64509W        W36769  35.643  12.413  13.930
64510W        W36770  20.005  26.062   3.209
64511W        W36771  20.228  41.580  13.044
64512W        W36772  43.742  39.773   3.793
64513W        W36773  13.145  36.217  14.270
64514W        W36774  39.000  11.664  10.553
64515W        W36775  18.328   5.804   5.009
64516W        W36776   6.415  24.500  10.696
64517W        W36777   7.905   9.738  11.194
64518W        W36778   4.741  23.296   3.715
64519W        W36779  26.220  15.051   3.329
64520W        W36780  16.600  34.140   1.846
64521W        W36781  21.729   2.716  12.984
64522W        W36782  18.553  36.603   2.188
64523W        W36783  26.630  33.826  11.080
64524W        W36784  10.918  29.443   0.129
64525W        W36785  29.428  39.065  14.915
64526W        W36786  41.574  44.288  11.149
64527W        W36787   4.275  25.280   3.675
64528W        W36788   0.701  13.706   1.808
64529W        W36789  11.799  43.009   3.286
64530W        W36790   1.482   9.346  13.449
64531W        W36791  37.231  39.025   1.222
64532W        W36792   0.386  29.134   3.026
64533W        W36793  37.282  19.742  11.103
64534W        W36794  12.360  31.465  13.392
64535W        W36795  37.586  42.213  14.284
64536W        W36796   2.912   5.732  10.865
64537W        W36797  17.279  11.234  12.010
64538W        W36798  28.962  29.479  10.642
64539W        W36799  36.254  16.270  12.013
64540W        W36800  33.177   2.714   3.828
64541W        W36801  15.057  27.614   0.020
64542W        W36802   3.833  23.458   3.827
64543W        W36803   7.826  11.199   4.694
64544W        W36804  38.209  39.051   4.655
64545W        W36805  24.064  44.025  12.540
64546W        W36806  15.036   2.382   4.567
64547W        W36807  36.579  15.603  13.925
64548W        W36808  33.113  17.714  13.472
64549W        W36809  12.615  36.433  14.891
64550W        W36810  29.266  33.438  12.383
64551W        W36811   2.793  16.645   0.795
64552W        W36812  19.490  39.813   0.312
64553W        W36813  25.103  31.277   4.157
64554W        W36814  33.095  14.444  11.772
64555W        W36815   4.933  36.473  14.885
64556W        W36816  35.534   6.087  14.732
64557W        W36817  34.903   0.838  11.732
64558W        W36818  33.239  41.199  13.063
64559W        W36819  11.170   3.422   2.454
64560W        W36820   6.289  23.799  11.142
64561W        W36821  11.054  41.537  14.991
64562W        W36822  35.380  28.002  10.743
64563W        W36823  33.517  30.288   1.271
64564W        W36824  26.105  43.878  14.006
64565W        W36825  31.855  12.915   3.073
64566W        W36826   4.867  17.265   4.477
64567W        W36827  26.819  11.425   3.254
64568W        W36828  34.094  38.556  11.072
64569W        W36829  16.998  12.077  11.511
64570W        W36830  20.159   1.014  14.422
64571W        W36831  13.255   7.032   2.653
64572W        W36832  42.859  23.066  13.832
64573W        W36833  13.238  17.040  12.012
64574W        W36834  36.405  38.897  10.788
64575W        W36835  13.311  42.050   1.639
64576W        W36836   4.671  19.707  10.273
64577W        W36837  16.859  25.952  12.060
64578W        W36838  25.737  20.005  12.834
64579W        W36839  38.916  19.883  14.211
64580W        W36840  12.030  37.585   0.367
64581W        W36841  36.893  43.795   2.824
64582W        W36842  19.797  28.208   1.465
64583W        W36843  23.782   5.846   1.694
64584W        W36844  39.949  21.813   3.253
64585W        W36845  10.383   1.529   0.483
64586W        W36846  25.164  24.958  14.403
64587W        W36847  36.048  18.103   1.420
64588W        W36848  16.958  28.847  13.790
64589W        W36849  18.823  31.585   3.687
64590W        W36850  24.737  15.711   3.836
64591W        W36851  16.071  22.223   0.040
64592W        W36852  26.762  31.918   2.319
64593W        W36853  34.164  33.099  14.761
64594W        W36854   8.686  40.296  11.234
64595W        W36855   1.214  31.915  12.928
64596W        W36856  35.532  22.164   1.787
64597W        W36857  18.757  22.030   1.932
64598W        W36858  22.519  19.148  11.426
64599W        W36859  31.063  26.621   1.194
64600W        W36860  22.460  16.633  10.591
64601W        W36861  15.196  36.932  10.882
64602W        W36862  37.443  15.205   0.535
64603W        W36863   1.330  42.516   3.317
64604W        W36864  34.635  19.155  14.450
64605W        W36865  43.904  39.613   2.160
64606W        W36866  24.705  38.303  11.963
64607W        W36867  17.688  35.595  14.780
64608W        W36868   7.333  27.862   2.815
64609W        W36869  36.049  25.174  13.620
64610W        W36870  24.586  33.492   1.701
64611W        W36871  39.539  37.061   4.456
64612W        W36872  26.205   4.829  11.896
64613W        W36873   3.975  12.535  12.018
64614W        W36874  13.248  21.735  12.203
64615W        W36875   5.864  40.557  12.991
64616W        W36876   8.674  40.993   4.035
64617W        W36877  38.663  13.838  11.710
64618W        W36878  36.221  20.496   5.514
64619W        W36879  13.020  26.513   1.278
64620W        W36880  34.191  32.159  14.886
64621W        W36881  14.211  23.225  14.874
64622W        W36882   4.734  17.659  11.940
64623W        W36883  36.823  33.045   0.914
64624W        W36884  29.661  21.031   4.521
64625W        W36885   2.458  41.519   3.345
64626W        W36886  13.170  39.812   2.734
64627W        W36887   7.284  42.803   3.417
64628W        W36888   8.919  20.993   5.142
64629W        W36889   8.210  42.236   1.372
64630W        W36890  11.026  38.824   2.558
64631W        W36891   8.682   5.153  13.111
64632W        W36892  18.065   4.832   4.367
64633W        W36893  34.757  30.698  12.055
64634W        W36894  29.168   9.323   2.429
64635W        W36895   6.868  44.260   1.387
64636W        W36896  21.670   6.703  11.546
64637W        W36897  16.620  29.460   2.154
64638W        W36898  29.872  17.205  14.412
64639W        W36899  44.847   8.120  10.742
64640W        W36900   5.656   0.832  13.605
64641W        W36901  16.198   1.875   3.670
64642W        W36902   9.110  39.770  11.248
64643W        W36903  16.325  40.062   4.531
64644W        W36904  17.130   8.730   0.990
64645W        W36905   3.923  11.885  13.932
64646W        W36906   3.907  33.755  13.326
64647W        W36907  15.805  13.814   2.654
64648W        W36908  11.826  31.529  13.405
64649W        W36909   9.209  15.868   4.864
64650W        W36910  31.026  11.332   1.931
64651W        W36911  20.123   6.840   0.309
64652W        W36912  27.037  35.887   1.217
64653W        W36913  34.831  16.855   1.424
64654W        W36914   3.934  39.432  11.928
64655W        W36915  22.207  16.761  12.452
64656W        W36916  29.421  44.757   2.146
64657W        W36917   6.595   7.313  12.446
64658W        W36918  16.615  43.931  13.886
64659W        W36919  43.292  36.980   2.708
64660W        W36920  12.120  31.164   4.484
64661W        W36921  32.510  43.883  14.322
64662W        W36922   0.464  37.330   1.831
64663W        W36923  32.026  25.554   3.756
64664W        W36924  19.281  25.462  12.178
64665W        W36925  34.294  41.285   0.902
64666W        W36926  21.530   4.579   0.290
64667W        W36927  15.312  30.105   5.528
64668W        W36928  24.122  28.363  12.693
64669W        W36929  10.031  26.734  13.560
64670W        W36930  31.697   6.317  13.803
64671W        W36931  32.656  30.644  11.231
64672W        W36932   5.860  30.251  12.003
64673W        W36933  43.980  23.053   3.704
64674W        W36934  22.910  35.914   0.974
64675W        W36935  20.700  24.241  14.911
64676W        W36936  29.433  15.559   2.134
64677W        W36937   9.729  37.841   1.830
64678W        W36938  40.097  44.825  13.364
64679W        W36939  11.965  25.135  10.468
64680W        W36940  15.789  23.165  10.729
64681W        W36941  14.345  31.864   4.054
64682W        W36942   5.630   8.742   0.850
64683W        W36943   3.213  35.321   3.268
64684W        W36944  20.537  13.879   4.941
64685W        W36945  31.836  26.725  14.275
64686W        W36946  20.229  40.379  10.816
64687W        W36947  40.443   0.492  11.003
64688W        W36948  43.790  41.869   2.093
64689W        W36949  43.330   8.817  14.679
64690W        W36950  27.031  15.758  13.613
64691W        W36951  28.756  37.897   4.161
64692W        W36952  24.280   4.479  10.504
64693W        W36953  31.193   6.416  10.741
64694W        W36954   8.800  39.096  14.857
64695W        W36955   8.448   6.303  11.961
64696W        W36956  16.043   0.876  14.343
64697W        W36957  18.711   3.419  12.031
64698W        W36958   8.373   7.369   3.692
64699W        W36959  12.629  26.880  12.028
64700W        W36960  44.864  30.890   2.722
64701W        W36961   1.723  23.622  10.950
64702W        W36962  14.112   8.413  11.430
64703W        W36963  37.623  29.416   2.317
64704W        W36964  13.333  26.568   0.242
64705W        W36965   9.002  23.973  11.118
64706W        W36966  12.733   4.959   0.854
64707W        W36967  25.309  35.645  11.999
64708W        W36968  11.573  43.530  14.993
64709W        W36969  31.232  32.056   1.442
64710W        W36970  37.360  29.794  13.216
64711W        W36971   5.657   6.432  11.526
64712W        W36972  23.121  25.742  12.762
64713W        W36973  12.321  43.975  10.671
64714W        W36974  30.436  25.150  13.412
64715W        W36975  22.230   2.432  14.556
64716W        W36976   5.615  35.355  10.732
64717W        W36977   7.650  39.963  10.882
64718W        W36978  44.288  24.016   5.036
64719W        W36979  44.400  32.149   4.653
64720W        W36980   9.252   0.824  10.881
64721W        W36981  18.241   4.188  11.294
64722W        W36982   4.488   3.978  12.289
64723W        W36983   9.914  27.199  11.035
64724W        W36984   7.924  17.846   3.565
64725W        W36985  19.266  31.361  14.365
64726W        W36986  19.473  37.188  11.053
64727W        W36987  42.842  22.723   3.425
64728W        W36988  11.251  24.811   0.499
64729W        W36989  29.042  42.908   0.966
64730W        W36990  28.736  15.253  13.018
64731W        W36991   5.696   1.324  11.085
64732W        W36992  27.082   7.240   4.414
64733W        W36993   6.679  41.733  13.026
64734W        W36994  13.671   8.333   3.733
64735W        W36995  31.200  15.527  11.111
64736W        W36996  20.961  44.811  10.622
64737W        W36997  13.765  33.498  10.847
64738W        W36998   1.736  25.943   2.807
64739W        W36999  28.351  39.804   3.139
64740W        W37000  31.637   4.497   1.877
64741W        W37001  16.815   5.263   2.730
64742W        W37002  44.604  11.814   2.879
64743W        W37003  25.544   6.085  11.103
64744W        W37004  20.126  40.462   4.576
64745W        W37005  44.240  31.342   4.033
64746W        W37006  29.844  13.471   3.813
64747W        W37007  22.521   6.189   2.851
64748W        W37008  17.791  11.679   4.317
64749W        W37009  34.632  15.312   0.734
64750W        W37010  23.908   1.350   3.684
64751W        W37011  35.491   1.407   1.748
64752W        W37012   0.998  37.672   0.252
64753W        W37013  40.006  24.153  11.914
64754W        W37014  30.487  26.549   3.188
64755W        W37015  23.571  31.181   3.217
64756W        W37016   3.046  24.558   2.725
64757W        W37017   1.513  29.452  11.130
64758W        W37018  20.539   0.759   1.797
64759W        W37019  24.975  11.566  13.372
64760W        W37020  17.362  11.761   2.664
64761W        W37021  12.063  18.208   0.291
64762W        W37022   6.207  38.687  13.512
64763W        W37023   7.431  25.232  10.999
64764W        W37024   4.508  31.398   4.134
64765W        W37025  15.385  17.385  10.248
64766W        W37026  17.065  20.949  13.552
64767W        W37027   9.938  30.207   4.126
64768W        W37028  10.918  31.738   1.329
64769W        W37029  41.454  10.186   1.299
64770W        W37030  30.939  37.588  14.581
64771W        W37031  42.323  10.740  13.351
64772W        W37032  33.191  18.465  10.977
64773W        W37033  36.462  15.297   0.480
64774W        W37034  44.053  11.630  13.809
64775W        W37035  25.078  21.747  11.881
64776W        W37036   1.884   3.834   3.115
64777W        W37037  33.172  12.151  11.483
64778W        W37038   5.483   4.616  11.059
64779W        W37039  41.924  33.156  11.524
64780W        W37040  21.039  10.710   3.746
64781W        W37041   5.971  18.571  13.929
64782W        W37042  16.165   8.376  10.748
64783W        W37043  29.393   2.246  11.179
64784W        W37044  19.710  32.997  14.990
64785W        W37045  35.548  22.216  11.191
64786W        W37046  11.441  18.751  14.790
64787W        W37047  32.159   6.098  13.524
64788W        W37048  13.285   5.390  11.977
64789W        W37049  39.850  15.098  11.165
64790W        W37050  40.123  26.429   1.855
64791W        W37051   7.952  42.197  14.796
64792W        W37052  24.309  37.850  13.997
64793W        W37053  39.377  36.577   2.784
64794W        W37054  23.995  13.199  13.036
64795W        W37055  10.636  29.178   1.854
64796W        W37056  15.699   1.788  14.942
64797W        W37057  32.141  39.682  14.170
64798W        W37058  21.427   2.838  12.570
64799W        W37059   3.754  43.991  12.147
64800W        W37060  30.199  33.110  11.931
64801W        W37061   3.089  31.972  14.307
64802W        W37062   0.677  13.708  11.957
64803W        W37063   2.033   4.462  13.534
64804W        W37064   2.937   7.816   4.333
64805W        W37065   9.767  17.199   4.456
64806W        W37066  37.836  15.133   4.628
64807W        W37067  36.092  17.232  14.385
64808W        W37068  43.896  13.378   1.943
64809W        W37069  42.980  25.645  11.643
64810W        W37070  25.969  32.355  14.208
64811W        W37071  20.743  42.778  14.940
64812W        W37072  22.796  24.300   3.412
64813W        W37073  14.775   7.338  13.558
64814W        W37074  41.433  29.122   3.621
64815W        W37075  15.651  20.580  11.959
64816W        W37076  35.153  34.533  10.597
64817W        W37077  32.182  44.668  11.755
64818W        W37078  38.087  40.526  10.736
64819W        W37079   0.885  30.638  12.107
64820W        W37080   4.496  19.593  13.586
64821W        W37081  26.175   1.713   3.696
64822W        W37082   1.440  36.009  13.372
64823W        W37083  43.210  42.924   4.651
64824W        W37084  23.979  13.291   3.955
64825W        W37085  42.082  29.515  11.662
64826W        W37086  13.861  32.667  13.692
64827W        W37087  32.590  11.570  10.351
64828W        W37088   6.408   5.938   3.661
64829W        W37089  14.297  38.279  13.960
64830W        W37090  28.987   1.788  10.809
64831W        W37091  21.752   0.290  13.399
64832W        W37092  21.690  24.458  10.627
64833W        W37093   5.231  32.161  13.953
64834W        W37094  20.177  18.667  13.893
64835W        W37095  16.343  42.992   0.990
64836W        W37096  11.309  39.155   1.610
64837W        W37097  25.146  11.848  13.822
64838W        W37098  18.558  41.503  13.113
64839W        W37099  30.621   3.024  13.780
64840W        W37100  35.039  19.050   0.772
64841W        W37101  33.748  30.439  10.372
64842W        W37102  40.292  35.428   2.484
64843W        W37103  18.055   5.894   4.580
64844W        W37104   8.195  16.607  14.403
64845W        W37105  44.441  36.305   0.062
64846W        W37106   2.787  24.219  11.665
64847W        W37107  10.370  42.089  12.698
64848W        W37108  40.811  16.380  11.692
64849W        W37109   7.800  29.664  12.482
64850W        W37110   8.230  23.289  10.537
64851W        W37111  35.463  32.301  14.469
64852W        W37112  41.695  42.779  14.347
64853W        W37113  11.736  28.487   4.624
64854W        W37114  14.591   7.861   2.694
64855W        W37115  20.032  16.197  11.474
64856W        W37116  34.577  26.817   0.252
64857W        W37117  20.038  38.118  13.955
64858W        W37118   4.863   5.117   4.451
64859W        W37119  31.716  19.702  11.108
64860W        W37120  20.003   3.805   1.705
64861W        W37121  29.016  23.859   2.262
64862W        W37122  40.095  23.111  14.442
64863W        W37123  15.753  38.584  11.290
64864W        W37124  20.054  17.560  13.954
64865W        W37125  24.207  36.518   0.808
64866W        W37126  42.982  40.775  12.544
64867W        W37127  25.635  29.476   4.739
64868W        W37128  24.594  22.326   0.247
64869W        W37129   5.218  14.027   3.310
64870W        W37130  16.870   5.008   1.350
64871W        W37131  14.215  26.704   0.768
64872W        W37132   2.756   5.908  12.355
64873W        W37133  38.173   9.481  10.238
64874W        W37134  12.184  40.882  14.716
64875W        W37135  42.167  18.256   1.907
64876W        W37136  38.784  23.207   3.653
64877W        W37137   6.415  18.472   1.119
64878W        W37138  41.107   4.313   2.280
64879W        W37139  14.014  15.648   1.415
64880W        W37140  30.265  26.253  14.336
64881W        W37141  41.552  30.897   0.956
64882W        W37142  38.631  21.736   1.937
64883W        W37143  31.549  40.551   5.042
64884W        W37144  34.971   9.777   4.435
64885W        W37145  44.407  31.374  13.040
64886W        W37146  43.080  29.593   0.715
64887W        W37147   2.283  17.560   4.608
64888W        W37148  42.972  39.899  10.949
64889W        W37149  18.704  37.891   2.591
64890W        W37150  42.707  21.280   1.838
64891W        W37151  15.288  42.306  13.087
64892W        W37152  26.023  29.011   1.714
64893W        W37153  21.182  36.384   0.980
64894W        W37154  27.234  33.023   4.231
64895W        W37155  16.752   2.289   0.892
64896W        W37156  22.036  14.255  11.492
64897W        W37157  34.121  43.289   3.546
64898W        W37158   8.602  28.584   2.669
64899W        W37159  17.049   7.728   4.809
64900W        W37160  15.608   1.772  13.367
64901W        W37161   7.413  25.928   2.246
64902W        W37162  31.482   9.441  12.585
64903W        W37163  25.036  39.928   0.003
64904W        W37164  22.557  44.736   4.594
64905W        W37165  14.683  19.519  13.468
64906W        W37166  20.013  22.563   1.201
64907W        W37167  29.957   5.782  13.059
64908W        W37168  35.896   7.279   2.214
64909W        W37169  26.497  40.497   2.355
64910W        W37170  23.061  21.145  11.195
64911W        W37171  16.640  43.506   4.616
64912W        W37172  30.490  13.906  14.460
64913W        W37173   3.699  34.536  13.538
64914W        W37174  10.173   4.829  12.398
64915W        W37175  20.456  27.946  11.187
64916W        W37176  40.277  10.678   0.679
64917W        W37177  42.959  30.977  12.288
64918W        W37178  20.991   7.572  12.099
64919W        W37179  19.453  13.155   3.587
64920W        W37180   0.285  21.597  12.557
64921W        W37181   9.835  31.437   0.215
64922W        W37182   1.921  38.758  13.064
64923W        W37183  12.285  34.947  13.192
64924W        W37184  44.642  24.737  11.529
64925W        W37185  16.605   9.298   3.949
64926W        W37186  33.172  21.600   1.266
64927W        W37187  44.331   8.810   5.071
64928W        W37188  29.326  30.123  12.886
64929W        W37189   8.228  37.036   1.488
64930W        W37190  24.226  25.558  13.540
64931W        W37191  10.533  25.524  12.422
64932W        W37192  11.431  24.028   0.321
64933W        W37193  31.077  36.970   1.835
64934W        W37194  31.022  41.962   1.760
64935W        W37195  37.863  16.659   4.870
64936W        W37196  29.812  17.301   1.896
64937W        W37197   5.814  23.493   3.780
64938W        W37198   4.328  35.848  12.392
64939W        W37199   3.219  43.270  11.702
64940W        W37200  13.326  24.208  13.952
64941W        W37201   6.715  37.871   0.914
64942W        W37202  18.363   3.825  13.401
64943W        W37203  36.939  39.398   4.567
64944W        W37204   3.403  30.662  13.504
64945W        W37205  17.188  38.516   1.752
64946W        W37206   6.506  26.994  12.214
64947W        W37207  13.533  42.298  11.926
64948W        W37208  26.711  43.298   4.473
64949W        W37209   1.727  41.470   1.263
64950W        W37210   4.915  21.687   4.303
64951W        W37211  13.804  28.900  13.455
64952W        W37212   6.823  21.190  12.512
64953W        W37213  39.005  25.207  10.416
64954W        W37214  22.004  28.787   1.886
64955W        W37215  16.989  19.601   0.393
64956W        W37216  21.159  27.021  11.158
64957W        W37217  18.426   2.948  12.587
64958W        W37218  42.105  13.625  12.623
64959W        W37219  41.816   6.995  13.424
64960W        W37220  24.083   1.209   4.289
64961W        W37221  26.853  44.393  12.131
64962W        W37222  28.560  18.010   1.221
64963W        W37223   5.258  28.403  14.899
64964W        W37224  34.831  32.929  10.680
64965W        W37225   3.297  27.518   1.287
64966W        W37226  16.218  27.613  11.589
64967W        W37227   9.584  36.899   0.518
64968W        W37228  16.351   8.808   2.182
64969W        W37229  43.271  14.863  11.475
64970W        W37230   0.711  35.026  13.352
64971W        W37231   7.715  25.551  14.771
64972W        W37232  43.690   8.717  12.860
64973W        W37233  20.671   8.639   1.871
64974W        W37234   4.632  24.595   2.317
64975W        W37235   9.391   6.270  13.457
64976W        W37236  26.925  39.065   0.961
64977W        W37237  15.380  14.752  10.633
64978W        W37238  24.637  14.821   2.732
64979W        W37239  30.540   0.351  13.921
64980W        W37240  16.126  37.971  14.452
64981W        W37241   7.405  30.424   1.061
64982W        W37242  13.210  25.300   3.536
64983W        W37243  42.021  42.798   3.834
64984W        W37244  42.213  12.662  12.345
64985W        W37245   1.808  16.819  13.093
64986W        W37246  18.441  27.855   0.966
64987W        W37247   1.157   5.989  11.258
64988W        W37248   7.678   7.393   0.523
64989W        W37249  38.322  40.060   2.138
64990W        W37250  14.692  39.340   4.035
64991W        W37251  34.688   8.943   5.038
64992W        W37252  29.208  18.239  10.542
64993W        W37253   2.313  32.542   4.359
64994W        W37254  38.572  40.480  14.471
64995W        W37255  39.443  19.520  14.816
64996W        W37256  32.670   2.052   2.892
64997W        W37257  33.685  12.803  12.072
64998W        W37258  42.986  44.218  12.863
64999W        W37259   2.352  10.128  10.461
65000W        W37260  18.503  35.666   2.388
65001W        W37261  31.031   5.201  14.448
65002W        W37262  29.220  23.689  13.013
65003W        W37263  39.611  19.628   0.814
65004W        W37264  19.492  29.478   0.405
65005W        W37265  21.121  44.722  13.869
65006W        W37266  26.734  37.514  11.568
65007W        W37267  31.204  42.035   3.174
65008W        W37268  33.741   2.223   0.047
65009W        W37269  16.078  29.383   4.541
65010W        W37270  27.061  40.814  10.036
65011W        W37271  31.539   5.927   1.808
65012W        W37272  32.382  26.307   0.256
65013W        W37273   2.455   5.836  11.454
65014W        W37274  39.101   9.681  10.159
65015W        W37275  41.299  29.697  12.846
65016W        W37276  19.226  12.945   3.184
65017W        W37277  27.855  13.424  12.257
65018W        W37278  19.267  37.102   5.289
65019W        W37279   1.739  35.965  11.631
65020W        W37280  39.865  35.657   2.186
65021W        W37281  21.690  29.866  11.548
65022W        W37282  40.143  42.294  12.328
65023W        W37283   2.730  18.333  11.589
65024W        W37284  33.460  18.308   4.624
65025W        W37285   9.337  21.810   0.274
65026W        W37286  19.670  14.814   2.410
65027W        W37287   6.650  40.359   3.262
65028W        W37288  15.105  10.951   1.300
65029W        W37289  17.574  29.696  12.087
65030W        W37290  39.313  28.186   1.517
65031W        W37291  18.747  26.908  10.089
65032W        W37292  38.378  42.312   0.002
65033W        W37293  34.804  33.103   2.784
65034W        W37294  23.454  10.112   0.358
65035W        W37295  38.904  29.647   0.918
65036W        W37296  12.232  26.193   0.005
65037W        W37297  38.372  31.232   2.222
65038W        W37298  43.249   1.168  11.896
65039W        W37299  38.931  27.906   0.256
65040W        W37300  38.484   5.180   4.493
65041W        W37301  39.190  27.918  14.324
65042W        W37302  22.543  41.473   0.836
65043W        W37303   7.449   6.298   3.195
65044W        W37304   7.399   3.466   1.301
65045W        W37305  42.315   7.682   0.860
65046W        W37306  28.093  35.071  14.262
65047W        W37307   1.411  24.789  11.201
65048W        W37308  12.690  14.258   0.888
65049W        W37309  44.638  14.816   4.426
65050W        W37310   2.945  33.459  13.392
65051W        W37311  16.296  15.847   4.779
65052W        W37312  12.878  33.559  10.848
65053W        W37313  38.372  14.085  14.749
65054W        W37314  23.834  43.207   0.204
65055W        W37315  39.505  33.344   1.754
65056W        W37316  23.109   8.351   4.456
65057W        W37317  29.175  38.054  11.507
65058W        W37318  32.755  37.130  12.963
65059W        W37319  18.951  20.160  14.954
65060W        W37320  22.468  29.004  11.976
65061W        W37321  23.292  34.782   1.495
65062W        W37322   7.243  27.218  11.549
65063W        W37323   6.695   4.728   3.772
65064W        W37324   4.732  34.469   1.875
65065W        W37325   4.944   4.190  12.174
65066W        W37326   8.550  18.952  14.901
65067W        W37327   3.977  31.413   4.142
65068W        W37328  16.159  10.249  14.770
65069W        W37329   7.152  24.148  12.435
65070W        W37330  33.957  32.209  14.413
65071W        W37331  23.984  34.847   4.049
65072W        W37332  44.411  36.342  11.932
65073W        W37333  29.480   9.333  10.929
65074W        W37334   6.960   9.794   4.602
65075W        W37335  14.505  32.752  12.868
65076W        W37336  30.440  13.569  10.670
65077W        W37337   5.002  34.078   4.234
65078W        W37338   6.078  41.487  14.766
65079W        W37339   5.247  30.351   2.800
65080W        W37340  41.177  23.774  14.092
65081W        W37341  18.055   8.758   0.718
65082W        W37342  41.399  42.864   2.556
65083W        W37343   7.795  35.941   4.065
65084W        W37344  44.921   4.819  12.615
65085W        W37345  44.986  15.523   0.259
65086W        W37346   3.086   1.873  11.485
65087W        W37347  34.893  20.190   0.197
65088W        W37348  21.460  21.491   3.243
65089W        W37349  40.857  19.134  11.831
65090W        W37350  38.728   1.533  12.354
65091W        W37351  23.189  33.673  14.990
65092W        W37352   8.418  38.974  11.317
65093W        W37353   5.149  38.934   3.784
65094W        W37354  21.644   4.142  11.003
65095W        W37355   7.146  23.284  14.906
65096W        W37356  13.349   6.634  10.462
65097W        W37357  25.712  38.760   4.223
65098W        W37358  31.569  13.624  12.916
65099W        W37359   9.233  15.611   3.459
65100W        W37360   4.468  25.818  14.749
65101W        W37361  42.883  21.200  13.009
65102W        W37362  15.252   9.386   1.465
65103W        W37363  10.966  35.049  13.950
65104W        W37364  14.553  24.759   2.397
65105W        W37365  24.678  39.147   2.748
65106W        W37366   3.763  10.861  13.995
65107W        W37367  28.514  30.394  13.341
65108W        W37368  30.476  15.132   1.330
65109W        W37369   6.942   0.707  11.845
65110W        W37370   1.803  32.128  13.744
65111W        W37371  15.179  18.609  12.985
65112W        W37372  23.069  16.392  14.644
65113W        W37373  35.040  31.120  13.847
65114W        W37374  37.644  34.407  11.570
65115W        W37375  29.441  44.764   0.910
65116W        W37376  33.615  20.036   4.258
65117W        W37377   6.894  34.928  14.274
65118W        W37378  19.660  40.515   1.496
65119W        W37379  42.464  37.033   3.878
65120W        W37380  20.791  28.231   3.226
65121W        W37381  26.600  21.112  12.030
65122W        W37382   6.300  31.805   1.863
65123W        W37383  36.867   2.409   0.504
65124W        W37384  41.873  29.488   3.985
65125W        W37385  17.507  36.055   0.484
65126W        W37386  29.827   0.827  11.082
65127W        W37387  27.357  41.026  13.010
65128W        W37388  44.883   3.140   5.018
65129W        W37389  44.303   3.895   1.762
65130W        W37390  10.811  35.224  11.151
65131W        W37391  21.018   9.971  11.663
65132W        W37392  17.371   4.496  13.841
65133W        W37393  17.724   8.065   3.368
65134W        W37394  36.481   0.196   0.322
65135W        W37395  40.605  27.484  11.141
65136W        W37396  13.766  35.789  10.258
65137W        W37397  16.254  10.290  12.846
65138W        W37398   8.286  16.109   1.179
65139W        W37399  10.558  38.295  12.108
65140W        W37400  44.421   0.129  11.363
65141W        W37401  32.127  39.875   0.348
65142W        W37402  13.713  31.608   3.045
65143W        W37403  40.039  39.921   3.240
65144W        W37404  21.536  18.981   0.808
65145W        W37405  37.767   6.928   2.874
65146W        W37406  25.759  21.646   0.020
65147W        W37407  14.567   7.840   0.893
65148W        W37408  31.641  41.156  12.975
65149W        W37409   1.507  35.498   2.220
65150W        W37410  16.783   0.893  11.376
65151W        W37411  33.138  32.005   1.249
65152W        W37412  30.566  11.607   1.811
65153W        W37413  26.864  18.723   4.182
65154W        W37414   8.898  26.677   5.086
65155W        W37415   3.683  22.074  12.482
65156W        W37416  13.707   4.953   3.998
65157W        W37417  20.086  10.671   0.759
65158W        W37418   6.629  24.536  14.906
65159W        W37419   8.904  14.253   3.133
65160W        W37420  19.136   3.794  11.019
65161W        W37421  19.366   7.273  11.428
65162W        W37422  37.112  38.905  13.377
65163W        W37423   8.826  40.853  13.407
65164W        W37424  23.006  17.265  10.456
65165W        W37425  17.816  25.198  14.986
65166W        W37426  14.333  43.999   0.845
65167W        W37427   9.688   5.461   1.945
65168W        W37428  20.453  32.479  14.063
65169W        W37429  26.467  39.049   0.226
65170W        W37430  23.545  10.200  14.370
65171W        W37431  28.036  16.257  14.895
65172W        W37432  43.351  32.618  13.790
65173W        W37433  29.073  17.072   3.729
65174W        W37434  25.227  27.309  14.435
65175W        W37435  19.546  21.276   1.817
65176W        W37436  33.182   5.955   5.071
65177W        W37437  29.506  33.125  13.466
65178W        W37438  14.110  27.919  11.939
65179W        W37439  18.587   4.201   3.759
65180W        W37440  17.364  26.646   2.758
65181W        W37441  25.497   9.894   3.611
65182W        W37442  22.842  32.446   4.129
65183W        W37443  22.021  30.038   0.637
65184W        W37444   8.207  36.060  11.394
65185W        W37445  12.279  31.342   2.763
65186W        W37446  27.974  11.360  12.240
65187W        W37447  37.471  20.639  12.918
65188W        W37448  32.944  31.515   1.250
65189W        W37449  43.701  37.884  14.715
65190W        W37450   7.794  25.759  10.489
65191W        W37451  39.471   4.201   1.650
65192W        W37452  26.717   8.599   9.937
65193W        W37453  22.800  40.477   0.823
65194W        W37454  31.935   7.882   0.242
65195W        W37455  29.091  18.618  13.149
65196W        W37456  12.800  30.812   2.212
65197W        W37457  20.311   8.356   1.254
65198W        W37458  16.066  26.385   1.244
65199W        W37459   1.294   4.041  10.800
65200W        W37460  34.611  40.836  13.048
65201W        W37461   9.351  20.937  14.410
65202W        W37462   3.506  28.071   0.273
65203W        W37463  39.680   0.403  11.463
65204W        W37464  39.592   8.814  13.430
65205W        W37465  29.752  28.697  11.968
65206W        W37466  19.192   3.204   4.804
65207W        W37467  39.701  12.682   5.043
65208W        W37468  26.068  28.984   2.682
65209W        W37469  19.845  42.295   4.333
65210W        W37470  39.851  11.469   3.790
65211W        W37471  37.404  38.095  13.520
65212W        W37472  13.261  21.740  12.724
65213W        W37473  35.161  16.204   2.399
65214W        W37474   2.973  35.099  12.550
65215W        W37475  36.710   0.817  11.003
65216W        W37476   4.255   5.596   3.214
65217W        W37477  13.204  20.240   0.425
65218W        W37478  28.189  14.599   4.246
65219W        W37479  14.367  21.604   2.854
65220W        W37480  18.017  24.633   4.285
65221W        W37481  13.708   0.521  14.068
65222W        W37482  29.655  36.345   4.154
65223W        W37483  33.462  43.989   3.085
65224W        W37484  19.510  18.029  11.571
65225W        W37485   7.423  30.611   2.049
65226W        W37486  40.518   7.289  13.378
65227W        W37487  23.645   4.981   4.114
65228W        W37488  37.515  18.556  13.809
65229W        W37489   4.640  24.163  14.290
65230W        W37490   1.807   1.295   0.553
65231W        W37491   2.422   6.021   5.043
65232W        W37492  16.619  30.148   4.877
65233W        W37493   9.906  15.763  10.756
65234W        W37494  38.612  19.016   0.443
65235W        W37495  38.504  16.016   0.409
65236W        W37496  14.506  43.831   2.217
65237W        W37497  21.602  44.329   0.282
65238W        W37498  22.182  18.109   3.331
65239W        W37499  14.310  42.760  11.210
65240W        W37500   7.712  36.381  13.033
65241W        W37501  26.219  13.845  14.142
65242W        W37502  32.957   6.719  12.854
65243W        W37503  41.081  22.518  14.808
65244W        W37504   8.175  41.482   0.320
65245W        W37505  24.184  21.287  14.264
65246W        W37506  31.308  33.088  13.339
65247W        W37507  28.922  32.947   2.301
65248W        W37508  30.238  10.986  10.459
65249W        W37509  40.029  19.602   0.517
65250W        W37510   3.427  40.387  14.887
65251W        W37511   7.423  41.818  14.968
65252W        W37512  24.811  17.697  11.502
65253W        W37513   2.750  43.309   4.322
65254W        W37514  33.940  17.270   1.353
65255W        W37515   7.697   7.393  14.387
65256W        W37516  27.972  21.020   3.742
65257W        W37517  19.033  33.187  12.938
65258W        W37518  41.459  28.422  11.070
65259W        W37519  42.090  29.960   3.359
65260W        W37520  27.811  44.586  13.773
65261W        W37521  27.529   5.900  11.562
65262W        W37522  14.296  44.722   2.376
65263W        W37523  29.252  22.177  10.868
65264W        W37524  35.606  29.674  12.906
65265W        W37525  36.129  22.581   2.336
65266W        W37526  11.185  23.502   3.607
65267W        W37527  24.417  44.304   2.362
65268W        W37528  10.725  21.211  13.875
65269W        W37529  44.685   9.572  14.042
65270W        W37530  30.054  25.452   4.649
65271W        W37531  39.289  20.630   3.249
65272W        W37532   0.511  10.787   4.519
65273W        W37533  27.536  40.687   9.887
65274W        W37534  20.540  28.018  12.929
65275W        W37535   1.308  16.664   3.540
65276W        W37536  24.118  32.454  14.268
65277W        W37537  23.194  22.168   0.420
65278W        W37538  30.369  29.500  13.775
65279W        W37539  13.033  35.330   4.408
65280W        W37540  25.552  24.131   0.588
65281W        W37541  17.192  29.130  14.147
65282W        W37542   9.134  34.876  11.465
65283W        W37543  40.784  34.514   0.846
65284W        W37544  33.209  30.982  13.036
65285W        W37545  41.997   0.946   1.949
65286W        W37546   0.706  36.496   1.935
65287W        W37547  35.283   5.483  11.663
65288W        W37548   5.826  20.523  14.412
65289W        W37549  10.265  40.668  12.971
65290W        W37550  27.144  11.220  14.125
65291W        W37551  14.773  29.448  11.535
65292W        W37552   2.256   6.510  13.480
65293W        W37553  32.981  42.349  14.444
65294W        W37554   3.406  33.183  11.650
65295W        W37555  11.633  42.013   0.423
65296W        W37556  42.408   4.037  14.083
65297W        W37557  32.032  44.141  13.949
65298W        W37558   9.736  24.526  11.696
65299W        W37559  15.571   1.032  12.940
65300W        W37560   7.173  35.624  14.512
65301W        W37561   7.502  15.942  14.718
65302W        W37562  43.850  25.901   2.914
65303W        W37563  41.791   4.166  11.989
65304W        W37564  23.492  27.202  13.954
65305W        W37565  23.284  37.165  13.484
65306W        W37566  23.164   0.374  10.813
65307W        W37567  23.046  25.484   2.278
65308W        W37568  22.704  41.811   4.730
65309W        W37569   1.816  32.649  13.051
65310W        W37570   6.809  13.574   1.521
65311W        W37571   3.689   0.118   3.283
65312W        W37572  29.445   7.690  14.283
65313W        W37573  40.866  37.446  13.853
65314W        W37574  33.024   8.321   3.743
65315W        W37575  16.737  31.047   2.862
65316W        W37576  26.696  32.932   1.263
65317W        W37577  43.334  17.592  13.466
65318W        W37578  28.849   7.170   1.380
65319W        W37579  28.151  23.220   0.858
65320W        W37580  16.337  33.328   1.128
65321W        W37581   9.781  18.500  11.867
65322W        W37582  17.366   1.880  13.094
65323W        W37583  39.465   9.087   2.755
65324W        W37584   2.307   9.283   1.463
65325W        W37585  24.159  28.613  10.158
65326W        W37586  40.406   2.940  13.807
65327W        W37587   2.412  33.801  10.149
65328W        W37588  24.334  35.542   1.652
65329W        W37589  27.138  16.146  12.107
65330W        W37590  25.456  41.581   1.522
65331W        W37591  13.479  35.143   4.189
65332W        W37592  32.006  16.062   3.885
65333W        W37593  25.236   5.407  14.475
65334W        W37594  43.480  32.599   1.808
65335W        W37595  22.782   9.237  14.951
65336W        W37596  15.276   1.755   3.707
65337W        W37597  29.120  19.071   1.757
65338W        W37598  26.790  28.035  14.259
65339W        W37599  32.326  36.413   4.096
65340W        W37600   4.266  34.364   2.824
65341W        W37601  44.475   2.552  13.055
65342W        W37602  25.484  21.819   3.997
65343W        W37603  33.184  30.912   4.462
65344W        W37604  37.403  16.737   1.213
65345W        W37605  13.810  10.065  14.453
65346W        W37606  33.562  43.973   4.109
65347W        W37607   1.698   2.141  14.921
65348W        W37608   1.926  20.762  11.168
65349W        W37609  44.876  13.354  14.340
65350W        W37610  35.294  23.663  14.061
65351W        W37611  40.377  17.819   2.073
65352W        W37612   2.290  27.216   2.675
65353W        W37613  23.611  28.867  13.331
65354W        W37614  28.415  15.331  11.141
65355W        W37615  39.901   8.664   1.269
65356W        W37616   8.317  31.570   1.697
65357W        W37617   8.846  15.231  14.873
65358W        W37618  37.873  43.279   4.325
65359W        W37619  27.529  43.501  10.629
65360W        W37620  29.755  14.488   4.152
65361W        W37621  14.610   0.202   2.637
65362W        W37622  41.337  36.096  14.343
65363W        W37623   4.411  40.837   0.216
65364W        W37624  35.472  41.229  14.008
65365W        W37625  18.582  20.253  13.940
65366W        W37626  40.686  21.391  11.606
65367W        W37627  37.036   5.935  12.475
65368W        W37628   7.356   5.357   2.189
65369W        W37629  41.021  34.546  11.556
65370W        W37630   5.629  24.692  11.570
65371W        W37631  35.096  13.691  13.627
65372W        W37632  10.763  37.473  10.215
65373W        W37633  15.725  17.332   1.229
65374W        W37634  10.600  36.571  11.608
65375W        W37635  35.355   2.934  12.984
65376W        W37636  38.275  13.597   4.273
65377W        W37637  33.626   1.466  11.171
65378W        W37638  32.106   4.254   0.114
65379W        W37639  44.888   1.987   3.059
65380W        W37640   0.452  43.705   4.261
65381W        W37641  15.889   0.774   2.356
65382W        W37642   5.435  11.339   2.289
65383W        W37643  42.898  27.011   4.624
65384W        W37644  38.858  42.251  11.111
65385W        W37645  11.796   4.803  12.538
65386W        W37646  28.210  33.947   3.745
65387W        W37647  33.950  38.648  14.967
65388W        W37648  38.118  39.987   2.605
65389W        W37649  19.515  34.362  14.868
65390W        W37650  24.902  33.342  14.394
65391W        W37651  26.933  29.778   3.186
65392W        W37652  39.105  34.988  14.056
65393W        W37653  24.166  40.833   5.312
65394W        W37654  43.867  27.184   2.221
65395W        W37655  36.080  33.808  11.571
65396W        W37656  21.109  32.645   4.586
65397W        W37657  38.836  32.901   0.197
65398W        W37658  34.452   0.841   1.332
65399W        W37659  31.514  13.079   0.353
65400W        W37660   0.426   3.528  14.759
65401W        W37661  12.276   2.515  12.084
65402W        W37662   5.399  43.905   2.462
65403W        W37663  18.789  20.013   4.978
65404W        W37664  11.177  42.459  13.018
65405W        W37665  23.157  23.936   3.330
65406W        W37666   0.462   0.778  14.898
65407W        W37667  27.742  38.270   0.261
65408W        W37668  12.727  11.823   1.048
65409W        W37669   7.930   5.764  12.612
65410W        W37670  32.185  44.350   0.649
65411W        W37671   4.938  11.944  11.951
65412W        W37672   4.905  38.314   1.201
65413W        W37673  25.993  16.726   3.124
65414W        W37674   6.673  28.394   2.316
65415W        W37675  35.941  42.756  12.471
65416W        W37676   6.933  11.621  11.142
65417W        W37677  29.990  22.485  12.917
65418W        W37678  24.452  41.389  11.136
65419W        W37679  26.554  25.117   0.751
65420W        W37680   0.676  18.172  10.034
65421W        W37681  16.765  41.600  13.068
65422W        W37682   2.345   9.637   2.289
65423W        W37683  14.631  33.624   1.788
65424W        W37684  13.839   1.934   4.136
65425W        W37685  26.991  36.250  11.219
65426W        W37686  34.513  24.213  10.469
65427W        W37687  34.036   9.572  12.926
65428W        W37688  18.175  28.972  14.426
65429W        W37689  29.624  18.259   2.815
65430W        W37690  14.779  40.923  14.304
65431W        W37691   9.775  10.642   2.267
65432W        W37692  27.038  38.067  12.416
65433W        W37693   8.377  19.077  12.057
65434W        W37694  28.391  19.395  11.077
65435W        W37695  27.555  39.784  14.634
65436W        W37696  19.210  32.129  12.026
65437W        W37697   9.302  15.843  12.944
65438W        W37698  11.289  15.656   1.852
65439W        W37699  17.613  43.542   3.635
65440W        W37700   2.276  39.823   0.889
65441W        W37701  25.054  18.529  10.717
65442W        W37702  18.225  30.999  10.972
65443W        W37703  20.185   2.812   3.798
65444W        W37704  21.897  22.180  12.977
65445W        W37705  44.717   2.772  14.391
65446W        W37706  41.722  28.904  13.089
65447W        W37707  13.628   6.672   4.801
65448W        W37708  18.796  14.329   0.536
65449W        W37709   0.803  27.529   3.314
65450W        W37710  12.246  26.977   1.303
65451W        W37711   7.127  39.449  12.060
65452W        W37712  36.371  37.962   1.426
65453W        W37713   7.898  29.550   3.722
65454W        W37714  25.546   9.345   3.657
65455W        W37715  21.312  30.551   0.351
65456W        W37716  34.678  15.776   1.879
65457W        W37717  12.138  40.871   0.735
65458W        W37718  19.085   5.647  10.585
65459W        W37719  42.369  40.821  12.020
65460W        W37720  35.391  43.472   4.655
65461W        W37721  20.823  16.737  12.820
65462W        W37722  40.387   3.899   1.707
65463W        W37723  23.062   9.458   2.714
65464W        W37724  35.631  20.707   0.800
65465W        W37725  24.185  41.180  10.274
65466W        W37726   2.681   8.817   4.773
65467W        W37727  18.277  20.870  13.055
65468W        W37728  42.940   8.432   2.578
65469W        W37729   7.914  13.729   0.267
65470W        W37730  28.675   4.397   2.915
65471W        W37731   0.329   3.390   4.231
65472W        W37732  27.144  12.626   0.893
65473W        W37733  39.654  14.467   1.754
65474W        W37734  28.641  40.385   3.182
65475W        W37735  44.239  14.653   0.718
65476W        W37736  14.805  41.015   3.285
65477W        W37737  16.048  44.701   1.272
65478W        W37738  19.268   7.729  11.625
65479W        W37739   8.827  29.985  13.912
65480W        W37740   6.690  15.409   1.646
65481W        W37741  44.540   0.904  13.082
65482W        W37742  36.275   2.270  14.235
65483W        W37743  10.608  34.109  13.912
65484W        W37744  18.589  10.481  11.857
65485W        W37745  27.443  19.315  11.111
65486W        W37746  12.584  41.668   4.001
65487W        W37747  43.431  26.376   5.038
65488W        W37748   9.303  35.326  13.828
65489W        W37749  40.312  44.596   3.114
65490W        W37750  10.268  11.573  13.419
65491W        W37751  39.424  16.654  12.857
65492W        W37752   7.221  31.677  12.652
65493W        W37753  23.622   1.350   3.179
65494W        W37754  11.734   4.776   1.713
65495W        W37755  10.452  17.535   2.534
65496W        W37756  24.262  26.747  11.066
65497W        W37757   5.318  20.835   1.736
65498W        W37758   6.048  44.009   4.481
65499W        W37759  18.202  40.947  14.892
65500W        W37760  34.572  34.646   2.224
65501W        W37761  25.159  21.082   4.122
65502W        W37762  44.497  30.033  12.883
65503W        W37763  16.635   4.517  11.993
65504W        W37764  22.026  25.218  13.143
65505W        W37765   8.140  43.418  14.315
65506W        W37766  22.841  11.830  12.020
65507W        W37767  33.121  31.929  13.767
65508W        W37768  34.506   6.312  11.151
65509W        W37769  31.601  39.401   1.976
65510W        W37770  27.889   6.624   2.278
65511W        W37771  37.593   9.307   3.653
65512W        W37772  34.023  34.657   4.680
65513W        W37773  24.987  33.048   2.219
65514W        W37774  40.398   2.440   0.517
65515W        W37775   5.471   8.439   4.714
65516W        W37776   6.466  32.430   4.398
65517W        W37777   4.514  42.950   3.206
65518W        W37778  21.168   8.240  14.509
65519W        W37779  30.480   6.280   4.689
65520W        W37780  11.331   2.131  14.387
65521W        W37781   9.582  20.636   0.937
65522W        W37782  27.389   2.484   1.003
65523W        W37783  16.982  11.608  11.844
65524W        W37784  21.101   5.479   1.618
65525W        W37785   6.246  34.944   2.757
65526W        W37786   8.196  13.382   3.258
65527W        W37787   8.618  43.908   3.203
65528W        W37788   7.489  34.609  13.915
65529W        W37789  16.464  23.124   0.881
65530W        W37790  22.346  20.881  11.129
65531W        W37791   9.694  16.854  13.957
65532W        W37792   3.358  44.041   1.080
65533W        W37793  17.251  44.975   2.088
65534W        W37794  15.793  32.744  10.784
65535W        W37795  34.113   1.912   0.842
65536W        W37796   8.966  14.284  14.971
65537W        W37797  33.478   1.495   1.809
65538W        W37798  13.738  14.400  14.780
65539W        W37799  27.864   8.135  13.124
65540W        W37800  18.951  44.200   2.459
65541W        W37801  25.674  19.365   1.674
65542W        W37802  13.465  41.778  12.029
65543W        W37803  13.163  21.695   0.783
65544W        W37804   0.338  44.956   2.755
65545W        W37805   7.702  28.083   9.480
65546W        W37806  30.945   0.319  10.623
65547W        W37807  22.457   8.392  12.917
65548W        W37808  27.340  26.561  13.471
65549W        W37809  19.455  12.783   0.843
65550W        W37810  10.637  44.929   0.855
65551W        W37811  21.199  43.826  12.606
65552W        W37812  28.982  22.936  14.046
65553W        W37813  43.443  29.307  11.611
65554W        W37814  40.525  41.416   0.380
65555W        W37815  24.340   0.316   0.733
65556W        W37816  31.471   4.883  14.518
65557W        W37817  33.190  10.590  12.803
65558W        W37818   0.970  19.056   0.113
65559W        W37819  33.940   3.145  11.131
65560W        W37820  42.343  36.989   1.359
65561W        W37821   0.666   6.624  14.609
65562W        W37822  39.831  25.186  13.535
65563W        W37823  44.970  23.705  12.118
65564W        W37824  38.833  28.770  11.515
65565W        W37825  33.438  39.981  14.038
65566W        W37826  29.899  17.537  12.892
65567W        W37827  15.170  24.496  13.982
65568W        W37828  30.429  21.534  13.309
65569W        W37829  27.303  44.865  14.467
65570W        W37830  11.465  10.077   5.129
65571W        W37831  18.566  19.110   4.370
65572W        W37832   2.181  24.251  14.927
65573W        W37833   6.405  21.546   4.775
65574W        W37834   6.374  42.364  11.472
65575W        W37835  33.213  44.292   2.658
65576W        W37836  20.345  42.939   1.761
65577W        W37837  21.852  22.267   1.193
65578W        W37838  20.977  42.536  13.559
65579W        W37839   5.850   2.280   4.106
65580W        W37840  31.030  40.314  13.830
65581W        W37841   3.215  38.426   2.369
65582W        W37842  41.361  40.838   3.629
65583W        W37843  35.939   1.782   3.743
65584W        W37844  26.618  34.465   1.440
65585W        W37845   0.391  12.984   3.656
65586W        W37846  13.638  34.337   2.282
65587W        W37847   4.976  42.461   0.483
65588W        W37848  27.116  27.177  14.523
65589W        W37849  19.651  39.768   4.109
65590W        W37850  35.409  42.001   0.879
65591W        W37851  19.770  23.165  13.427
65592W        W37852  39.973  30.259  13.843
65593W        W37853   2.541  42.893   3.255
65594W        W37854  13.288  42.258   2.714
65595W        W37855  43.369   4.439   2.188
65596W        W37856  39.008  20.024   4.972
65597W        W37857   6.968  13.757   4.365
65598W        W37858  44.901  35.531   3.793
65599W        W37859  17.131  35.317  11.656
65600W        W37860  11.068  43.882  12.197
65601W        W37861  36.374  31.881  11.503
65602W        W37862  40.731  38.958  14.792
65603W        W37863  10.869  33.477  13.025
65604W        W37864  33.585  37.525  10.406
65605W        W37865   5.120  25.741   9.482
65606W        W37866   1.260  20.675   2.211
65607W        W37867   6.235  15.690  10.690
65608W        W37868  25.121  41.728  11.660
65609W        W37869   2.496  25.148  13.583
65610W        W37870  32.452  41.975   2.636
65611W        W37871  33.122   1.020  11.979
65612W        W37872  11.912   7.207   1.136
65613W        W37873   7.787   4.830   4.300
65614W        W37874  22.688  29.368  10.842
65615W        W37875   2.249   2.467  11.061
65616W        W37876  10.936  37.849   4.159
65617W        W37877  37.665  43.708   2.297
65618W        W37878   8.028  36.471  11.625
65619W        W37879  44.571  14.277   3.628
65620W        W37880  23.101  22.310  10.617
65621W        W37881  25.565  44.778  12.878
65622W        W37882  40.286  35.830  11.955
65623W        W37883  23.086  22.667  13.673
65624W        W37884  13.160  23.292   4.141
65625W        W37885  35.286  18.704  10.528
65626W        W37886  28.173  19.698   2.684
65627W        W37887  23.597  25.065  14.556
65628W        W37888  43.164   1.902   1.125
65629W        W37889  20.667  16.546  14.367
65630W        W37890   2.303  30.048  12.517
65631W        W37891   4.850  40.473   1.877
65632W        W37892  16.404  37.510  11.997
65633W        W37893  41.126  36.594   3.206
65634W        W37894  31.765  18.567   2.130
65635W        W37895  14.637  18.663  13.031
65636W        W37896   8.187  40.428  11.304
65637W        W37897  17.077   1.367  10.323
65638W        W37898   4.359  40.192   1.018
65639W        W37899  31.156  40.456   0.843
65640W        W37900  33.896   9.722   0.269
65641W        W37901  26.461  10.519   1.292
65642W        W37902  44.247  35.028   1.402
65643W        W37903  31.595  41.527  13.444
65644W        W37904  11.224  21.118  11.165
65645W        W37905   7.632  31.987  12.172
65646W        W37906  33.040   4.762  12.162
65647W        W37907  24.693  40.993   0.907
65648W        W37908  42.810   8.688  10.656
65649W        W37909   3.813  29.651  13.333
65650W        W37910  40.064  15.068   2.460
65651W        W37911  33.449  25.093  12.905
65652W        W37912  36.833  21.022  10.568
65653W        W37913  23.955  20.296   4.614
65654W        W37914  40.907  31.279  14.864
65655W        W37915   1.893  14.650   4.626
65656W        W37916  39.809  27.670   2.601
65657W        W37917   3.041  38.138   2.789
65658W        W37918  26.077  19.151  13.741
65659W        W37919  40.791   1.006  13.020
65660W        W37920   8.812   6.790  13.991
65661W        W37921  28.537  26.954   3.321
65662W        W37922  20.871  18.292   4.266
65663W        W37923  28.957  20.631  14.257
65664W        W37924   4.266  37.800   1.918
65665W        W37925  18.547  38.891  11.209
65666W        W37926  29.524  22.729  11.648
65667W        W37927  35.422   3.213  11.174
65668W        W37928  26.559  42.790   1.897
65669W        W37929  40.552  36.060  11.569
65670W        W37930   7.659   3.903  13.248
65671W        W37931   3.329  18.462  12.413
65672W        W37932   3.021  39.449  14.467
65673W        W37933  37.173  18.749   3.656
65674W        W37934  36.499  33.334   3.626
65675W        W37935   5.998   9.778  12.521
65676W        W37936  29.054  42.221  14.068
65677W        W37937  27.989  18.920  13.679
65678W        W37938   3.476  34.056   0.268
65679W        W37939  28.690  26.688  11.523
65680W        W37940  23.645  35.074   1.738
65681W        W37941   5.378  35.319  13.070
65682W        W37942  23.818   4.670   1.394
65683W        W37943   3.884  23.563  10.976
65684W        W37944  19.399  17.053  11.380
65685W        W37945  21.801  18.180  13.621
65686W        W37946  23.035  13.931  11.228
65687W        W37947   6.461   0.925  11.186
65688W        W37948   1.980  24.018  10.746
65689W        W37949  15.351  11.142  14.939
65690W        W37950  38.464  19.868  12.019
65691W        W37951   3.902  40.140   4.817
65692W        W37952  20.554  39.066  13.951
65693W        W37953  33.379  14.959  13.804
65694W        W37954  29.251  29.705   4.241
65695W        W37955  25.039   6.862  14.605
65696W        W37956  14.417  22.690   2.212
65697W        W37957   3.273  44.450   2.839
65698W        W37958  43.255  41.573   1.202
65699W        W37959  38.820  28.012   5.082
65700W        W37960   8.369  37.799   0.501
65701W        W37961  28.399  35.531   0.758
65702W        W37962  38.895  21.021  11.627
65703W        W37963  27.906  41.091   1.354
65704W        W37964  35.321  34.143   3.759
65705W        W37965   3.813  20.953   0.019
65706W        W37966  27.934  16.010   2.303
65707W        W37967  22.255   8.302   2.944
65708W        W37968  28.253  44.729  14.272
65709W        W37969  42.817   1.223   2.718
65710W        W37970  12.214  42.444   1.253
65711W        W37971   7.296   9.043   3.707
65712W        W37972   8.921  41.979   1.381
65713W        W37973  27.476  32.716  12.871
65714W        W37974   4.665   5.171   4.931
65715W        W37975  35.865  35.398   4.584
65716W        W37976   0.755  43.902   0.382
65717W        W37977  28.442  30.409  10.745
65718W        W37978  27.490  36.822   3.278
65719W        W37979   7.723  30.113   3.195
65720W        W37980  27.133  18.324  13.542
65721W        W37981  20.536   8.177   1.673
65722W        W37982   0.190  38.951   4.589
65723W        W37983   5.690  20.816  13.430
65724W        W37984  14.010   0.794   3.399
65725W        W37985  18.113  37.983   0.439
65726W        W37986  33.166  30.982  13.553
65727W        W37987  31.234  36.185   4.582
65728W        W37988   1.385  17.220  14.266
65729W        W37989   7.791  30.869   4.498
65730W        W37990  16.827  14.430  10.168
65731W        W37991  26.184  24.465   0.184
65732W        W37992  13.752  38.925  10.917
65733W        W37993   4.793  16.220  13.735
65734W        W37994  28.073  13.018  12.041
65735W        W37995  35.598  33.494   3.968
65736W        W37996  37.064   5.115  10.181
65737W        W37997  27.560  18.192  14.472
65738W        W37998  28.855   9.871   4.699
65739W        W37999   3.706   6.746   0.470
65740W        W38000   9.294  11.267  13.839
65741W        W38001  24.098  11.568  12.512
65742W        W38002  13.738  33.104  10.474
65743W        W38003  32.924  31.366  12.841
65744W        W38004  28.579  19.201   1.675
65745W        W38005  30.920  15.957   0.739
65746W        W38006   9.284  25.464   3.983
65747W        W38007  17.545  14.231  10.694
65748W        W38008  17.503  44.695   0.791
65749W        W38009  41.880  20.613   1.858
65750W        W38010  43.375  13.745   4.133
65751W        W38011  40.137   3.895   3.606
65752W        W38012   1.321  36.793  11.205
65753W        W38013   2.425  43.689   3.567
65754W        W38014  25.753  17.528  14.274
65755W        W38015   6.871  11.755   1.190
65756W        W38016   4.146   9.669  14.040
65757W        W38017  24.275  10.232  14.933
65758W        W38018  13.895  37.861  10.979
65759W        W38019  34.679  38.966   4.162
65760W        W38020  32.631  29.912   3.280
65761W        W38021  10.281   1.590   4.300
65762W        W38022  29.722  12.176   3.759
65763W        W38023  23.563  19.201  10.247
65764W        W38024   5.607  40.288  13.401
65765W        W38025  10.222  37.060   1.746
65766W        W38026   6.890  20.760  13.886
65767W        W38027   7.847  19.316  11.891
65768W        W38028  16.340  36.834   1.168
65769W        W38029   0.546  30.180  11.762
65770W        W38030  17.641   4.479  12.430
65771W        W38031  44.251  32.904   1.750
65772W        W38032  29.069  33.387   0.814
65773W        W38033  13.314  41.476   0.427
65774W        W38034  27.171   6.070  12.046
65775W        W38035  26.864  21.930  11.539
65776W        W38036  26.776   3.420  14.431
65777W        W38037  39.551   3.656   1.677
65778W        W38038   3.956  17.574   4.202
65779W        W38039  15.691  10.387   3.183
65780W        W38040  27.383   3.276  13.078
65781W        W38041   7.455  29.685  13.214
65782W        W38042   7.745  17.773  11.690
65783W        W38043  10.573  25.070  10.611
65784W        W38044  39.335  23.485  11.957
65785W        W38045  25.090   0.446  12.605
65786W        W38046  11.031   3.342  10.244
65787W        W38047  33.133   4.427  13.332
65788W        W38048  14.607  38.131  13.565
65789W        W38049  44.490  27.413   4.779
65790W        W38050   6.358  34.072  11.376
65791W        W38051  39.448  12.223  12.474
65792W        W38052   9.646  17.870   3.327
65793W        W38053  22.770  32.462   0.850
65794W        W38054   9.086   7.093   2.678
65795W        W38055  24.685  35.260  12.448
65796W        W38056  27.612  25.212  11.783
65797W        W38057  44.009  36.406   1.246
65798W        W38058  11.106   3.857  13.425
65799W        W38059  33.029  37.586   2.317
65800W        W38060  17.407   2.404   2.154
65801W        W38061   8.105  22.062   2.106
65802W        W38062  15.585  37.789   4.226
65803W        W38063  42.604   9.862  11.844
65804W        W38064  20.045  23.768  14.363
65805W        W38065  20.660   8.627   2.420
65806W        W38066  34.043  42.172  14.438
65807W        W38067  29.350   3.284  12.580
65808W        W38068  12.364  43.083  12.046
65809W        W38069  19.060   1.305  12.560
65810W        W38070  42.281  22.175   3.968
65811W        W38071  37.559  25.080  14.964
65812W        W38072  21.870  39.739   4.277
65813W        W38073  14.163  21.762   4.655
65814W        W38074  12.268  28.982  12.463
65815W        W38075  43.222  35.389  11.392
65816W        W38076  32.362  15.305  12.674
65817W        W38077  19.855  41.597   2.951
65818W        W38078  37.467  37.388  13.149
65819W        W38079  35.519  25.575   3.201
65820W        W38080  11.834  13.298   1.288
65821W        W38081  40.998  23.935  11.614
65822W        W38082  12.073  25.518   1.287
65823W        W38083   0.320  44.326   3.282
65824W        W38084   6.662  38.753   4.128
65825W        W38085  41.073   3.369   0.879
65826W        W38086  12.283  32.032   0.139
65827W        W38087   4.086   2.485  12.885
65828W        W38088  40.494  35.067   0.897
65829W        W38089  29.603  20.193  11.581
65830W        W38090  44.159   4.382   2.667
65831W        W38091   2.748  14.982  12.902
65832W        W38092  29.403  40.383  14.093
65833W        W38093  39.987  32.849  14.085
65834W        W38094   2.714   1.414  12.028
65835W        W38095  18.003  26.685   4.463
65836W        W38096   0.628  38.924   1.723
65837W        W38097  13.893  22.317   3.833
65838W        W38098  35.132  34.134  14.487
65839W        W38099  25.188  23.109   4.364
65840W        W38100   8.159  22.972   1.718
65841W        W38101  22.295  24.115   4.576
65842W        W38102   0.001  12.242  14.242
65843W        W38103   4.027  28.581   1.310
65844W        W38104  42.220   6.541   4.041
65845W        W38105  38.015  42.748  11.178
65846W        W38106  32.237  31.226   2.680
65847W        W38107   3.514  32.158   1.669
65848W        W38108  41.563  24.023  11.509
65849W        W38109  20.734  21.682   1.344
65850W        W38110  32.144   6.202   1.234
65851W        W38111   0.308  36.960   1.430
65852W        W38112  10.207   9.193  12.901
65853W        W38113   9.623   8.174  13.921
65854W        W38114  21.217  23.953   2.125
65855W        W38115  36.548  43.338   0.113
65856W        W38116  29.474  40.870   3.101
65857W        W38117  40.079   6.530  12.358
65858W        W38118  42.026  39.507  10.688
65859W        W38119  44.225  20.033  11.196
65860W        W38120  33.334  34.449  11.097
65861W        W38121   2.695  17.488   0.409
65862W        W38122  29.962   0.332   2.393
65863W        W38123  38.415  29.158  12.347
65864W        W38124  44.210  10.009   1.866
65865W        W38125  30.710  32.479  11.438
65866W        W38126   0.323  24.599   2.480
65867W        W38127  18.659  35.581   1.902
65868W        W38128  15.931  41.982   0.027
65869W        W38129  12.784  12.905  11.652
65870W        W38130  14.141  42.508   2.808
65871W        W38131  38.357  41.014   3.882
65872W        W38132  25.748  43.871   2.683
65873W        W38133  37.568   9.250  11.661
65874W        W38134  14.898  26.989   3.592
65875W        W38135   1.221  35.439  14.462
65876W        W38136  26.701  22.136   4.472
65877W        W38137   3.579  11.303   3.886
65878W        W38138  15.598  37.639  11.264
65879W        W38139   3.926   1.982  13.417
65880W        W38140   8.282   0.689  11.180
65881W        W38141  24.733  39.143   1.662
65882W        W38142  36.541  27.525   3.063
65883W        W38143  43.142   6.780   2.437
65884W        W38144  21.504  14.608  12.614
65885W        W38145   7.414  10.227  14.293
65886W        W38146   4.172   1.459   3.137
65887W        W38147   7.948  20.425  12.829
65888W        W38148   8.356   0.240   0.948
65889W        W38149  10.868  27.405   3.117
65890W        W38150  43.028  17.559  11.014
65891W        W38151   7.896  30.590  11.976
65892W        W38152  32.630   1.140  12.011
65893W        W38153   9.159  33.812  13.924
65894W        W38154   9.224  20.607  11.636
65895W        W38155  26.141   8.184   4.069
65896W        W38156  35.755  19.472   1.210
65897W        W38157  25.276  17.173  12.125
65898W        W38158  30.005  24.130   4.775
65899W        W38159  20.607  23.986   4.605
65900W        W38160  35.823  29.452  11.208
65901W        W38161  10.141  36.519   0.853
65902W        W38162  20.978   5.483   4.557
65903W        W38163  32.110  22.971  13.332
65904W        W38164  17.201  11.136   0.518
65905W        W38165  34.521  34.082  10.494
65906W        W38166   2.225   5.655  13.379
65907W        W38167  10.937   4.428  12.070
65908W        W38168   4.831  28.578  10.395
65909W        W38169   9.872  17.152  12.333
65910W        W38170  30.573  32.180   2.614
65911W        W38171  35.290  32.415   3.041
65912W        W38172  38.250  27.690  14.031
65913W        W38173  15.834  32.840  13.059
65914W        W38174  30.609  32.677   1.750
65915W        W38175  28.550  30.092  12.058
65916W        W38176  38.964  10.265   2.562
65917W        W38177  13.091  16.100   0.789
65918W        W38178   5.376   2.768   1.665
65919W        W38179  26.910  17.260   2.405
65920W        W38180  34.665  44.526   3.803
65921W        W38181  13.079  41.863   3.336
65922W        W38182  30.218   8.224   2.256
65923W        W38183  35.356  17.157   2.729
65924W        W38184  24.622  22.122  10.680
65925W        W38185  17.650   5.912  11.416
65926W        W38186  26.693   1.476  14.472
65927W        W38187  28.405   7.092  11.586
65928W        W38188  44.376  16.039   1.838
65929W        W38189  37.899  37.116   4.535
65930W        W38190  29.413  40.319   4.968
65931W        W38191  42.025  31.112   2.883
65932W        W38192  25.704  43.455  10.949
65933W        W38193  31.307  34.142   3.225
65934W        W38194  27.199  32.517  12.480
65935W        W38195  19.884  34.421   0.778
65936W        W38196  36.600  14.799   1.275
65937W        W38197  10.624  33.061  14.563
65938W        W38198   2.454  32.055  13.455
65939W        W38199  35.527  35.372  11.152
65940W        W38200  28.440  30.340   0.198
65941W        W38201  32.695  22.467  11.145
65942W        W38202  18.162  17.771   3.450
65943W        W38203  30.901  20.085   2.714
65944W        W38204  26.112  22.579  12.513
65945W        W38205  38.367   2.468   4.014
65946W        W38206  28.021  22.154   0.862
65947W        W38207  17.702  21.140   0.529
65948W        W38208   4.630  14.522   0.853
65949W        W38209  23.605  23.121  14.853
65950W        W38210  26.732  42.639  13.943
65951W        W38211  25.584  10.396   3.799
65952W        W38212  42.112  20.130   1.748
65953W        W38213  29.366  26.802   2.365
65954W        W38214  18.801   9.753   4.656
65955W        W38215  38.404  17.703   4.818
65956W        W38216  27.064   3.151  12.686
65957W        W38217  18.511  16.605   3.828
65958W        W38218  36.335  29.981   0.227
65959W        W38219  10.155  17.604  14.039
65960W        W38220   9.915  42.804   3.306
65961W        W38221  34.910  38.106  14.933
65962W        W38222  25.414  22.705   3.752
65963W        W38223  43.877  10.443   2.904
65964W        W38224  44.368   5.669  10.706
65965W        W38225  44.096  19.734   4.925
65966W        W38226  40.711  10.819   0.474
65967W        W38227  22.750  42.959  12.045
65968W        W38228  29.535  43.330  12.851
65969W        W38229  11.349  25.935  14.879
65970W        W38230  27.677  23.197  14.463
65971W        W38231  42.557   8.641   2.868
65972W        W38232  34.140  12.656  10.753
65973W        W38233  14.200   1.287   3.274
65974W        W38234  43.881   2.831  11.849
65975W        W38235  27.735  27.221   2.915
65976W        W38236  23.432  41.274  13.802
65977W        W38237  25.434   7.123   1.296
65978W        W38238  39.129  44.523   0.730
65979W        W38239  22.152  40.023   2.165
65980W        W38240  21.663   7.235  13.357
65981W        W38241   0.457  29.896   4.140
65982W        W38242   7.393  20.998  13.003
65983W        W38243  31.923  30.601   3.314
65984W        W38244  36.471   4.318   1.648
65985W        W38245   3.929  14.246  12.172
65986W        W38246   2.665  27.918  14.407
65987W        W38247   4.737   3.417   0.681
65988W        W38248  11.389  19.818   3.160
65989W        W38249  37.142  30.430   2.266
65990W        W38250  20.117  10.178   0.959
65991W        W38251  44.004   4.703   3.721
65992W        W38252  32.482  26.562   1.644
65993W        W38253  29.904  21.416  11.987
65994W        W38254  35.827  28.066   1.221
65995W        W38255  11.179   9.866   2.842
65996W        W38256  25.915  41.321   1.234
65997W        W38257  39.301  39.856  14.449
65998W        W38258   0.843  11.453   3.249
65999W        W38259  21.719  44.345  13.532
66000W        W38260  24.690  25.004   0.775
66001W        W38261  35.202   9.742   4.945
66002W        W38262  44.698   4.182  10.777
66003W        W38263   9.727  26.255  12.837
66004W        W38264  41.602  30.866  12.114
66005W        W38265  10.054  26.015  10.610
66006W        W38266  12.610  13.334   2.199
66007W        W38267  27.946  29.097  11.131
66008W        W38268   3.764  21.259  14.424
66009W        W38269  34.885  18.101   4.685
66010W        W38270   9.933  14.892   3.742
66011W        W38271  13.306  38.994   4.561
66012W        W38272  24.083   6.881  14.317
66013W        W38273  18.658  44.276  11.818
66014W        W38274  16.279  33.696   0.175
66015W        W38275  38.348   6.869  13.121
66016W        W38276  25.503  41.334   5.125
66017W        W38277  38.358  22.411  10.723
66018W        W38278  42.594  13.390   1.678
66019W        W38279  33.896   0.741   2.716
66020W        W38280  13.309  37.325   3.919
66021W        W38281  14.772  27.259  12.826
66022W        W38282  31.439  28.325  13.086
66023W        W38283  44.465   8.835  13.938
66024W        W38284  37.354  32.187  13.165
66025W        W38285   3.312  12.540  14.386
66026W        W38286   8.196  28.179  13.182
66027W        W38287  40.482  23.960  12.087
66028W        W38288  38.322  42.321   4.347
66029W        W38289  13.864   7.910  11.501
66030W        W38290  12.403   9.297   2.659
66031W        W38291  22.604  13.760   2.855
66032W        W38292  38.273  20.860   0.057
66033W        W38293  20.110   3.443   2.921
66034W        W38294  38.422  26.782  13.960
66035W        W38295  26.016  10.590  14.824
66036W        W38296  11.829  19.186   2.081
66037W        W38297  30.609  21.721   2.716
66038W        W38298  33.676   8.749  12.891
66039W        W38299  41.078  31.581  14.411
66040W        W38300  43.548  36.130   1.041
66041W        W38301   6.951   8.854  13.001
66042W        W38302  19.288  15.904  10.805
66043W        W38303  44.843  41.899   4.176
66044W        W38304  18.893  23.106  14.878
66045W        W38305  31.568  19.977   2.328
66046W        W38306  39.351  40.787  11.556
66047W        W38307  20.351  16.819   3.221
66048W        W38308  11.403   5.200  11.194
66049W        W38309  23.784  44.789  13.081
66050W        W38310  30.583  39.368   0.250
66051W        W38311  43.244  24.572   4.807
66052W        W38312   8.931   0.378   4.367
66053W        W38313  12.055  20.725   0.301
66054W        W38314  39.860  40.570  12.957
66055W        W38315  41.708  40.651  10.435
66056W        W38316  22.012  37.483   4.613
66057W        W38317  37.690  31.281   3.300
66058W        W38318  30.581  42.289   0.823
66059W        W38319   2.704   8.442   1.878
66060W        W38320  44.283  37.194   3.541
66061W        W38321  14.221  11.765  14.680
66062W        W38322   0.270   3.685   1.786
66063W        W38323  35.524  25.720   1.764
66064W        W38324   1.965  10.071   0.334
66065W        W38325  38.142  41.753   3.250
66066W        W38326  34.501   0.335   4.073
66067W        W38327  22.264  12.797  14.381
66068W        W38328   2.363  22.161  12.017
66069W        W38329   8.948   5.664   3.674
66070W        W38330  38.174  34.899  14.223
66071W        W38331  25.751  31.887   1.315
66072W        W38332  19.726  16.325  11.088
66073W        W38333  11.289  18.174   3.877
66074W        W38334  22.831  23.337   4.012
66075W        W38335  21.399   7.708  13.369
66076W        W38336  21.940  13.684  14.125
66077W        W38337   9.904  40.190   1.808
66078W        W38338  12.573  44.982   3.109
66079W        W38339   7.850  30.066  14.864
66080W        W38340  28.411  25.158   1.595
66081W        W38341  17.200  38.985   3.696
66082W        W38342  42.371   1.867   2.154
66083W        W38343  38.572  14.777   0.844
66084W        W38344  14.580   8.088   0.189
66085W        W38345  18.255   4.785   0.204
66086W        W38346  18.649  23.994   2.226
66087W        W38347  18.209   7.177  10.741
66088W        W38348  33.418   9.153   0.960
66089W        W38349  27.992  42.915  13.452
66090W        W38350  37.382  25.781   4.550
66091W        W38351  28.414  36.465  13.273
66092W        W38352  21.661  37.583  11.678
66093W        W38353  26.231   0.260  11.580
66094W        W38354  32.486  12.273  12.067
66095W        W38355  31.944  24.548   4.151
66096W        W38356  19.117  27.970  11.049
66097W        W38357  13.785  17.856   0.688
66098W        W38358   9.664   9.469  10.562
66099W        W38359  12.865  17.661   0.266
66100W        W38360  43.917  39.777   0.264
66101W        W38361  14.709   9.106   2.013
66102W        W38362  33.546   9.132  13.245
66103W        W38363  40.278   8.609   3.697
66104W        W38364   6.730  26.643  14.003
66105W        W38365   4.351  28.271  11.040
66106W        W38366  39.679  27.583  12.875
66107W        W38367   9.147  32.158  13.443
66108W        W38368  26.933  44.238  12.610
66109W        W38369  18.795   6.453   3.450
66110W        W38370  18.191   5.333  14.461
66111W        W38371  21.084   4.234   3.218
66112W        W38372  20.058  29.575   4.194
66113W        W38373  44.788   7.002   2.700
66114W        W38374  22.910  37.438  12.950
66115W        W38375  20.365  10.686   1.612
66116W        W38376  26.577  40.945   2.143
66117W        W38377  27.711   0.316   3.753
66118W        W38378   2.259  34.067   4.603
66119W        W38379  21.330   5.785  11.051
66120W        W38380  10.800  11.626  10.784
66121W        W38381  24.534   3.875   4.617
66122W        W38382   3.979   9.698   3.702
66123W        W38383  28.173   9.129   1.789
66124W        W38384  38.919   2.152   3.109
66125W        W38385  14.623  13.169   4.221
66126W        W38386  11.627  16.083   1.805
66127W        W38387  11.316   2.783  14.471
66128W        W38388  25.809  11.099   0.328
66129W        W38389  21.281  30.266   3.998
66130W        W38390   5.764  41.264   4.791
66131W        W38391  18.000  39.752   0.308
66132W        W38392  21.714   5.249  13.335
66133W        W38393  27.853  10.137   4.671
66134W        W38394  12.284  13.217   4.740
66135W        W38395   1.821  21.271   3.724
66136W        W38396   8.194  21.256  14.824
66137W        W38397   3.714  34.006  10.698
66138W        W38398  22.053   1.692   3.705
66139W        W38399   9.154   8.875  12.060
66140W        W38400  14.073  16.604   0.740
66141W        W38401  35.397   0.400  11.904
66142W        W38402  39.518   9.604   2.755
66143W        W38403  34.677  24.580   3.391
66144W        W38404  32.151  33.804  10.918
66145W        W38405  34.143  38.928   0.429
66146W        W38406  25.277  12.333  14.902
66147W        W38407  20.721  33.443   2.267
66148W        W38408  44.463  34.559   1.321
66149W        W38409   3.018  23.587  12.576
66150W        W38410  44.245  16.694  12.070
66151W        W38411  27.742   7.747  13.979
66152W        W38412   5.873  13.849   1.541
66153W        W38413   0.253  26.220   0.226
66154W        W38414  38.787  34.934  12.176
66155W        W38415   6.642  20.755   2.837
66156W        W38416  33.377  43.734  12.943
66157W        W38417  42.317  14.759  12.930
66158W        W38418  43.716   2.808  12.852
66159W        W38419  31.797   0.911   0.402
66160W        W38420  17.533  21.529   4.170
66161W        W38421  15.827  32.575   3.220
66162W        W38422  37.453  18.768  14.272
66163W        W38423  13.145  28.168  13.716
66164W        W38424  13.585  36.574  14.013
66165W        W38425   9.599  39.304   1.808
66166W        W38426  33.511  43.581   4.744
66167W        W38427  15.791   3.294   3.773
66168W        W38428  19.206   4.419  13.839
66169W        W38429  10.181  14.331   3.390
66170W        W38430   2.997   5.326  11.620
66171W        W38431  10.900  39.088  11.079
66172W        W38432  33.907  43.431  13.525
66173W        W38433  36.966  33.724   2.321
66174W        W38434   6.414  19.111  12.531
66175W        W38435  24.529  41.245   2.767
66176W        W38436  14.961  15.695  10.653
66177W        W38437   2.094  33.096  13.764
66178W        W38438   9.644  17.323  11.378
66179W        W38439  34.871  23.834  10.419
66180W        W38440  44.181  11.525   0.656
66181W        W38441  18.803  25.598  10.910
66182W        W38442   6.655  33.576   3.452
66183W        W38443  24.117  24.981  13.409
66184W        W38444  37.593  13.619  12.081
66185W        W38445  14.250   4.725  14.409
66186W        W38446  44.061  11.103  14.340
66187W        W38447  39.375   7.331   5.561
66188W        W38448   1.886  25.791  12.191
66189W        W38449  15.113   2.099  13.384
66190W        W38450  11.635  40.035   2.631
66191W        W38451  42.818  26.407  13.426
66192W        W38452  27.604  30.369   4.686
66193W        W38453   4.987  10.574  10.746
66194W        W38454  43.999  33.550  14.115
66195W        W38455  36.838   2.684  11.065
66196W        W38456  26.588  32.655   1.987
66197W        W38457  21.210  23.266   1.441
66198W        W38458  13.565  27.384   0.491
66199W        W38459  16.204  27.021   4.152
66200W        W38460  18.681  22.717  12.310
66201W        W38461  19.154  21.050   4.569
66202W        W38462  10.863  26.549  14.406
66203W        W38463  34.787  43.779   2.416
66204W        W38464  20.072  23.238   0.218
66205W        W38465  35.960  20.189   2.241
66206W        W38466  31.835  10.722  14.965
66207W        W38467  29.457  42.283  11.675
66208W        W38468  29.626  10.825   1.663
66209W        W38469  26.650   8.430   2.295
66210W        W38470  18.694  35.759  12.447
66211W        W38471  30.287  31.490  14.237
66212W        W38472  44.716  27.570   0.283
66213W        W38473  41.094  37.577   2.280
66214W        W38474   1.353  15.869   4.591
66215W        W38475  17.722  11.479  14.508
66216W        W38476   6.830  41.007   4.331
66217W        W38477  25.615  19.940  13.754
66218W        W38478  21.800  27.114   5.086
66219W        W38479  11.118   9.354  13.741
66220W        W38480  27.667  15.796  11.624
66221W        W38481  43.404  12.731   0.776
66222W        W38482   4.376   4.233  11.511
66223W        W38483  37.823  28.900  13.072
66224W        W38484   2.600  20.501   1.294
66225W        W38485  41.908  25.898  11.003
66226W        W38486  44.899  24.457  13.850
66227W        W38487  43.066  39.853   0.672
66228W        W38488  25.486  11.693  13.445
66229W        W38489  26.555  19.627   0.765
66230W        W38490  35.762  19.664   4.661
66231W        W38491   3.923  39.649  13.964
66232W        W38492  17.082  16.747   1.367
66233W        W38493   2.043   7.337  13.004
66234W        W38494  22.532  18.577  10.744
66235W        W38495   1.384  28.822   4.617
66236W        W38496  21.000  18.278  13.349
66237W        W38497  37.962   6.459  13.905
66238W        W38498  36.507  21.875  13.688
66239W        W38499  29.135   9.358   1.928
66240W        W38500  41.101  12.589   0.399
66241W        W38501  24.726  19.705   1.456
66242W        W38502   6.320  40.319   3.779
66243W        W38503  27.910  23.672  14.580
66244W        W38504  41.529  19.030   2.640
66245W        W38505  35.933   5.935   0.045
66246W        W38506   6.729  40.791  10.564
66247W        W38507  36.360  25.671   2.728
66248W        W38508  23.028  12.619   2.816
66249W        W38509  15.381  13.855  10.280
66250W        W38510  18.124  43.370   1.835
66251W        W38511  23.548  17.105  12.397
66252W        W38512  37.617   1.823  12.894
66253W        W38513  23.575  27.230  14.856
66254W        W38514  42.350  18.225  13.550
66255W        W38515  36.895  24.952   1.627
66256W        W38516  11.892   1.004   0.767
66257W        W38517  25.235  43.265  11.093
66258W        W38518   3.946  24.487   0.771
66259W        W38519  18.603  32.586  11.892
66260W        W38520  32.126  14.174  11.865
66261W        W38521   2.835  18.674   3.310
66262W        W38522   1.824  15.219   2.845
66263W        W38523  24.087  12.380  11.582
66264W        W38524  31.409  30.637   3.486
66265W        W38525   6.302  28.042   2.086
66266W        W38526   5.552  38.773   2.850
66267W        W38527  37.049  42.501  11.198
66268W        W38528   4.941  19.562  12.909
66269W        W38529  10.171  26.071   0.507
66270W        W38530  37.095  27.743  14.948
66271W        W38531   1.457  23.586  12.419
66272W        W38532   2.678  32.516   1.725
66273W        W38533   9.607  11.298  12.871
66274W        W38534  10.081  30.490  13.388
66275W        W38535   5.947  16.273   3.812
66276W        W38536  19.655  41.259   2.131
66277W        W38537   0.236  14.335   2.748
66278W        W38538  33.288  18.657   1.870
66279W        W38539  35.141   7.683   0.978
66280W        W38540   0.752  13.390   3.708
66281W        W38541  22.277  10.836   1.208
66282W        W38542  42.920  17.083  11.199
66283W        W38543  30.959   6.785  12.073
66284W        W38544  24.516  11.860   3.691
66285W        W38545  15.924   7.489   4.183
66286W        W38546  28.259  17.785   5.095
66287W        W38547  26.946  14.223  12.371
66288W        W38548   6.948  12.023   4.792
66289W        W38549  35.283  19.867   4.654
66290W        W38550   5.457  17.165   2.282
66291W        W38551  41.793  20.258  13.924
66292W        W38552   1.446  20.303  11.589
66293W        W38553  26.742   8.658  11.583
66294W        W38554  30.569  12.669   0.218
66295W        W38555  19.621   1.459   3.561
66296W        W38556   4.373  16.789   1.928
66297W        W38557  30.777  30.859  11.176
66298W        W38558  35.437  32.477  14.953
66299W        W38559  26.739   4.408   1.849
66300W        W38560  14.127  10.641  11.497
66301W        W38561  25.749  41.927   9.847
66302W        W38562   8.646  44.720   0.392
66303W        W38563   5.687   9.648   2.794
66304W        W38564  41.998   8.579   3.370
66305W        W38565  30.570  32.646  12.351
66306W        W38566  19.745   1.474  13.615
66307W        W38567   8.813  37.778   2.339
66308W        W38568  25.069  30.642   1.305
66309W        W38569  41.342  21.965   1.718
66310W        W38570  13.906  35.254  14.728
66311W        W38571  22.217  22.976  13.474
66312W        W38572  20.028   8.175  14.433
66313W        W38573   1.528   3.592   2.784
66314W        W38574  25.472   8.823   1.212
66315W        W38575  16.482  10.640   3.565
66316W        W38576  16.769  20.689  13.935
66317W        W38577  35.237  29.174  11.578
66318W        W38578  37.281  24.279   3.169
66319W        W38579  27.607   1.016   3.642
66320W        W38580  28.687  18.772  14.009
66321W        W38581  28.545   6.229  13.879
66322W        W38582  23.511  21.538   4.786
66323W        W38583   9.890  24.408  10.791
66324W        W38584  25.523  32.551  12.702
66325W        W38585  30.192  28.007  11.040
66326W        W38586  25.416   5.193  13.171
66327W        W38587  30.125  24.671   2.899
66328W        W38588  16.744  32.928   0.383
66329W        W38589  10.885  25.477  11.526
66330W        W38590   4.697  37.136   4.289
66331W        W38591  32.895  41.793   1.667
66332W        W38592  38.205  15.323   4.940
66333W        W38593  24.632  18.568   2.976
66334W        W38594  14.011   1.078  11.210
66335W        W38595   0.462   7.775  14.097
66336W        W38596  37.461  34.523  12.024
66337W        W38597  16.456  26.653   4.679
66338W        W38598   8.413  40.756  12.661
66339W        W38599   5.767  43.247  14.673
66340W        W38600  21.642   7.404  14.669
66341W        W38601  43.431  39.098  14.458
66342W        W38602   4.551  28.890  11.637
66343W        W38603  30.639  31.451   0.445
66344W        W38604  14.752  42.777   1.735
66345W        W38605  26.837   3.877   2.168
66346W        W38606   6.325   1.326   4.384
66347W        W38607   0.716  30.482   1.882
66348W        W38608   7.459  41.978  14.299
66349W        W38609   1.740   0.410   0.787
66350W        W38610   2.199   0.189  12.910
66351W        W38611  23.960   9.382   3.054
66352W        W38612  13.237   0.105   1.957
66353W        W38613  32.505  37.596  13.998
66354W        W38614  18.174  24.632   0.825
66355W        W38615  38.416  37.439  12.875
66356W        W38616   8.160  20.722   1.020
66357W        W38617  20.161  12.744  13.385
66358W        W38618  22.472   8.738   4.218
66359W        W38619   6.907  28.269   0.398
66360W        W38620  23.208  29.522   0.265
66361W        W38621  24.582  20.657  12.322
66362W        W38622  18.081  22.149   2.200
66363W        W38623   6.331  36.936   0.882
66364W        W38624  25.635  25.162   5.026
66365W        W38625  11.317  32.258   2.843
66366W        W38626  31.941  44.286   1.694
66367W        W38627  28.474  24.578   4.686
66368W        W38628  29.245  40.986  14.327
66369W        W38629   3.763  16.810   3.621
66370W        W38630  29.936  37.052  11.259
66371W        W38631  32.394  38.260   0.735
66372W        W38632  14.339  19.562  13.863
66373W        W38633   1.830  24.046  11.245
66374W        W38634  16.276  38.792   3.775
66375W        W38635  22.203   9.166  14.432
66376W        W38636  43.904  26.069  10.682
66377W        W38637  39.491  26.061  10.759
66378W        W38638  34.108  15.672  14.498
66379W        W38639  36.034  41.715   1.267
66380W        W38640  23.693   3.509  13.400
66381W        W38641  40.898  11.908  12.959
66382W        W38642   5.427  19.320  10.667
66383W        W38643   4.517  36.125   0.683
66384W        W38644  42.748  12.241   0.302
66385W        W38645   4.990  13.035   4.189
66386W        W38646  13.265  14.587   1.329
66387W        W38647  24.259  19.693  12.404
66388W        W38648  12.120   9.877  12.872
66389W        W38649  38.799  35.873  11.225
66390W        W38650  31.317  21.622  14.411
66391W        W38651  16.945  18.073  14.982
66392W        W38652  43.770  38.873   1.891
66393W        W38653  38.951  40.013  11.590
66394W        W38654  26.932  16.253  11.587
66395W        W38655   2.288  39.652  12.099
66396W        W38656  29.722  16.241   0.331
66397W        W38657  14.833  18.006   2.231
66398W        W38658  43.473  27.987   3.449
66399W        W38659   6.234   1.504  13.371
66400W        W38660   9.434  30.017  14.358
66401W        W38661  28.123  37.067  10.701
66402W        W38662   6.882  12.402   3.393
66403W        W38663  40.851  35.712   1.507
66404W        W38664  33.421   9.275   4.671
66405W        W38665   2.205  41.365  11.201
66406W        W38666  41.100  12.934   2.296
66407W        W38667  20.659   8.877   3.439
66408W        W38668  29.044  15.818  11.450
66409W        W38669  21.271  12.238  13.925
66410W        W38670  35.683   7.185  11.105
66411W        W38671  11.712  18.704   1.901
66412W        W38672  41.290  28.675  13.266
66413W        W38673  34.680  34.221   0.446
66414W        W38674  30.722  42.634  14.259
66415W        W38675  37.486  40.138  14.455
66416W        W38676  24.008  12.320   4.047
66417W        W38677  37.526   7.815   2.948
66418W        W38678  10.847  28.924   0.203
66419W        W38679  33.934  13.513   1.868
66420W        W38680  17.123  34.286  10.856
66421W        W38681   5.730   5.934  13.087
66422W        W38682  30.720  33.505  12.587
66423W        W38683  30.899  43.191   2.281
66424W        W38684   1.505  12.580  12.188
66425W        W38685  30.987  31.415   2.413
66426W        W38686  18.045  24.119  13.392
66427W        W38687  24.779  15.978  13.369
66428W        W38688  11.655  13.309   0.762
66429W        W38689  39.428  33.867  11.687
66430W        W38690   9.835   9.093  13.860
66431W        W38691  33.497  28.443   3.790
66432W        W38692  17.243  28.969   1.705
66433W        W38693  43.916  18.269   4.176
66434W        W38694  16.579  29.070  10.858
66435W        W38695  11.316   2.251   2.309
66436W        W38696   6.188  21.107   4.623
66437W        W38697  23.800  18.148  13.408
66438W        W38698  39.515  42.993  12.057
66439W        W38699  29.542  11.188   2.862
66440W        W38700  41.789  35.179   5.095
66441W        W38701  13.737   4.517  14.349
66442W        W38702   9.399  38.902  11.953
66443W        W38703  14.964   5.373  12.057
66444W        W38704  27.481  28.179   2.777
66445W        W38705   9.298  21.982  14.440
66446W        W38706  22.712  35.263   0.159
66447W        W38707   5.793  17.700  10.680
66448W        W38708  22.008  40.321  12.019
66449W        W38709  14.360   8.282  13.845
66450W        W38710  31.264  19.632   3.408
66451W        W38711  29.491  28.110   9.904
66452W        W38712  36.432  29.396  13.964
66453W        W38713  19.126  23.607   3.892
66454W        W38714  19.314  27.627  14.848
66455W        W38715   8.765  18.699   3.861
66456W        W38716  43.524  33.547   2.765
66457W        W38717   5.471  37.477   4.465
66458W        W38718  26.899   3.166  13.204
66459W        W38719  21.594   1.374   2.377
66460W        W38720  17.520   5.496  11.706
66461W        W38721  24.583  10.160  14.501
66462W        W38722  26.754  31.987   1.396
66463W        W38723  24.520  17.988   1.898
66464W        W38724  42.302  22.190  12.968
66465W        W38725  33.336  40.758  12.473
66466W        W38726  14.231  28.940   2.393
66467W        W38727  12.631  38.494   1.882
66468W        W38728  20.321   7.686  13.349
66469W        W38729  30.168   6.375  14.061
66470W        W38730  41.856  23.625  11.097
66471W        W38731  40.705   1.919  12.400
66472W        W38732  15.573  24.301  13.435
66473W        W38733   6.274  32.845   3.183
66474W        W38734  22.637  22.490  10.626
66475W        W38735  21.339  34.593   0.655
66476W        W38736  37.322  13.258   0.096
66477W        W38737  10.779  23.228  11.386
66478W        W38738  39.866   0.471  11.974
66479W        W38739  12.123  18.354  14.457
66480W        W38740   5.057  19.640  14.371
66481W        W38741  41.800  31.161  11.340
66482W        W38742  23.802  35.549   1.617
66483W        W38743  26.376   7.719   3.656
66484W        W38744   3.358   2.892  13.310
66485W        W38745  28.267  26.701   0.246
66486W        W38746  42.914   7.668   2.133
66487W        W38747  39.512   8.317  14.507
66488W        W38748  19.248  34.564  10.620
66489W        W38749   9.062  43.359  11.845
66490W        W38750   2.132  20.750   1.273
66491W        W38751  29.165  44.471  13.304
66492W        W38752   4.367  19.273   1.018
66493W        W38753  33.564  27.086   3.851
66494W        W38754  26.265   6.519  14.958
66495W        W38755  37.548  18.399  12.879
66496W        W38756   2.022   2.832  12.699
66497W        W38757  10.896   2.615  12.018
66498W        W38758  25.514  13.972   5.005
66499W        W38759   7.164   9.601   1.857
66500W        W38760   2.355  36.167  11.095
66501W        W38761   2.122  41.580   0.406
66502W        W38762  38.127   2.338  12.207
66503W        W38763  34.011  44.035   3.785
66504W        W38764  20.769  40.679   4.306
66505W        W38765  28.542  24.228   0.267
66506W        W38766  40.318  25.983  12.013
66507W        W38767  11.771   6.344   2.230
66508W        W38768  35.935  17.371  13.916
66509W        W38769  18.310   0.127  12.492
66510W        W38770   8.142  32.728  12.415
66511W        W38771   1.404  12.433   1.348
66512W        W38772  17.807   3.950   3.838
66513W        W38773  33.047  38.982  12.836
66514W        W38774  25.563  16.130   1.451
66515W        W38775   3.714  37.946  14.985
66516W        W38776  14.050  28.601   1.740
66517W        W38777   8.817  19.110  11.190
66518W        W38778  23.796  31.420  11.686
66519W        W38779   0.889   4.132   2.467
66520W        W38780  22.622   9.928  11.935
66521W        W38781   9.625   0.656   3.202
66522W        W38782  17.612  17.653  12.217
66523W        W38783  32.815  23.252  11.430
66524W        W38784   8.111   7.212   1.225
66525W        W38785  31.411  31.980   1.956
66526W        W38786  20.913  43.930  13.602
66527W        W38787  27.055  22.576   1.217
66528W        W38788  27.323  14.307   3.143
66529W        W38789  16.060  23.006   2.652
66530W        W38790  16.645  44.966  14.378
66531W        W38791  18.279  42.597  10.400
66532W        W38792  31.715   7.336  13.959
66533W        W38793  28.646   9.318   1.802
66534W        W38794   4.365  38.407   1.254
66535W        W38795  25.658  16.027  13.381
66536W        W38796  18.865   6.040  11.480
66537W        W38797  26.233  34.545   4.558
66538W        W38798   6.965  40.849  13.553
66539W        W38799  40.057  14.795  14.939
66540W        W38800  28.604  23.454  11.094
66541W        W38801   1.378  43.905  11.591
66542W        W38802   7.958   6.681   1.313
66543W        W38803   0.711  43.553  13.608
66544W        W38804  34.846  25.721  13.917
66545W        W38805  12.334  20.631  11.648
66546W        W38806  14.765  37.544   1.367
66547W        W38807   8.093  20.133  10.619
66548W        W38808  12.483   4.693   1.233
66549W        W38809  39.547  40.365  10.124
66550W        W38810  36.494  30.944   2.617
66551W        W38811   8.105  10.566   0.828
66552W        W38812  23.126  14.223  14.507
66553W        W38813   0.774  11.396  12.754
66554W        W38814  29.863   3.244   5.010
66555W        W38815  34.990   9.518   3.338
66556W        W38816  12.092  39.785   2.738
66557W        W38817  12.337  42.665   4.074
66558W        W38818  39.108   3.510   3.456
66559W        W38819  30.401  30.552  12.638
66560W        W38820  15.352  40.277  12.177
66561W        W38821  30.074   4.771   0.386
66562W        W38822   5.720   9.309  14.931
66563W        W38823  44.095   8.165   0.827
66564W        W38824  22.755  20.145   3.360
66565W        W38825   5.195  22.156  12.123
66566W        W38826  27.157  30.838   3.305
66567W        W38827  14.926  33.192   1.857
66568W        W38828  12.833   6.104   4.752
66569W        W38829  24.209  39.914  11.588
66570W        W38830  21.056  10.475   5.186
66571W        W38831  14.538  13.627  12.976
66572W        W38832  13.186  19.120   0.314
66573W        W38833  24.639   6.166   1.581
66574W        W38834   0.327  24.668  14.078
66575W        W38835  39.336   5.232  12.088
66576W        W38836   2.649  16.310  11.468
66577W        W38837  42.463  25.623  12.330
66578W        W38838  30.934  41.006  13.026
66579W        W38839  25.140  39.192  10.081
66580W        W38840   6.831  17.201  11.236
66581W        W38841  23.281  27.167   3.731
66582W        W38842  38.013  10.899  11.277
66583W        W38843  22.615   7.120  12.839
66584W        W38844  22.746  22.506  12.692
66585W        W38845   2.285  32.552   1.342
66586W        W38846  31.049  41.282  12.186
66587W        W38847  42.456  39.001  13.631
66588W        W38848  36.799  12.235   0.986
66589W        W38849  10.806  36.009   1.625
66590W        W38850  14.234  12.131   2.678
66591W        W38851  21.307  26.228   3.652
66592W        W38852   8.256   2.682   0.656
66593W        W38853  35.654   2.308   3.402
66594W        W38854  33.018  17.004  11.221
66595W        W38855   3.681   8.820  12.856
66596W        W38856  20.695  38.601  11.159
66597W        W38857   6.691  15.424   4.459
66598W        W38858  32.467   9.851   3.991
66599W        W38859  10.698   1.311   0.007
66600W        W38860   0.940   9.168   0.788
66601W        W38861  27.927  28.822   4.098
66602W        W38862  32.362  35.978   0.662
66603W        W38863  21.425   5.239  12.360
66604W        W38864  19.541  38.988   1.838
66605W        W38865  15.575   8.687   4.492
66606W        W38866  37.552  41.349  11.974
66607W        W38867  19.306  18.090   4.193
66608W        W38868  18.069  27.175  10.446
66609W        W38869   4.692  18.339   2.347
66610W        W38870  17.711  24.030   1.213
66611W        W38871  27.143   1.654  12.379
66612W        W38872  43.329  20.817   0.725
66613W        W38873  26.607   8.181  11.423
66614W        W38874  14.056  30.648   0.750
66615W        W38875  34.339  22.618   3.267
66616W        W38876  40.761   0.462  14.610
66617W        W38877   9.251  40.365   3.900
66618W        W38878  27.134  42.098  10.480
66619W        W38879  30.506  40.241  14.914
66620W        W38880  21.229  20.141   2.238
66621W        W38881  44.755  37.989  14.808
66622W        W38882  35.331   0.155  14.535
66623W        W38883  40.943  39.332   2.041
66624W        W38884   7.880  29.632   0.531
66625W        W38885  31.973   4.136  12.134
66626W        W38886  34.417  31.277   3.698
66627W        W38887  22.180   1.113   0.870
66628W        W38888  25.755   4.875  12.895
66629W        W38889  33.841   2.095  11.157
66630W        W38890   0.022   6.263   3.084
66631W        W38891  14.901  25.755  11.141
66632W        W38892  43.277  18.281   2.736
66633W        W38893  33.587   7.621   0.006
66634W        W38894  32.899  32.406  12.334
66635W        W38895  29.121  38.862   3.409
66636W        W38896   7.476   3.464   2.241
66637W        W38897  10.318  24.336  11.107
66638W        W38898  41.582  17.841   0.514
66639W        W38899  33.138  14.105  10.991
66640W        W38900  10.810   8.819  11.374
66641W        W38901  40.309  24.752   5.125
66642W        W38902   7.839  19.507   5.043
66643W        W38903  28.098  20.923   2.344
66644W        W38904   5.441   1.876  12.444
66645W        W38905  36.542  13.807  11.904
66646W        W38906  10.340  12.315   4.727
66647W        W38907  40.007  13.606  11.225
66648W        W38908  33.497  43.990   3.600
66649W        W38909   9.344   0.342   4.001
66650W        W38910  12.068  30.179   3.496
66651W        W38911  37.210  16.229   1.158
66652W        W38912  30.654   8.643   2.439
66653W        W38913  21.507  40.866  14.824
66654W        W38914   1.947  23.235  14.020
66655W        W38915  14.367   7.821   1.856
66656W        W38916   1.552  32.673  11.588
66657W        W38917  26.150  12.207   4.675
66658W        W38918  10.363  20.227   2.308
66659W        W38919  27.579   9.064   3.947
66660W        W38920  43.526  36.417   3.897
66661W        W38921  33.424  19.423   2.317
66662W        W38922  34.514  25.661   1.898
66663W        W38923  27.667  19.188   0.073
66664W        W38924  26.648   5.268   2.383
66665W        W38925   2.942  23.495  11.151
66666W        W38926  18.047  39.124  14.524
66667W        W38927  28.957  28.050   1.020
66668W        W38928  37.822   8.754  13.906
66669W        W38929   4.285   1.247  10.796
66670W        W38930  38.958  30.778   1.452
66671W        W38931  30.077   1.212   3.605
66672W        W38932  34.434  43.390   1.345
66673W        W38933  21.172  28.444   4.511
66674W        W38934  34.938  44.754   2.846
66675W        W38935  18.806   8.315  11.254
66676W        W38936  12.159  21.954   3.277
66677W        W38937  41.900  14.728  12.077
66678W        W38938  32.938  41.828  14.727
66679W        W38939  43.541  41.440   4.575
66680W        W38940   4.109  23.694   2.287
66681W        W38941  26.580  18.017   1.209
66682W        W38942  36.865  29.032   9.863
66683W        W38943  13.216  27.365   4.126
66684W        W38944   0.326  15.726  14.021
66685W        W38945  31.321  36.327   2.329
66686W        W38946  10.345  14.102   5.112
66687W        W38947  17.135   8.712  12.437
66688W        W38948  35.555   3.643  11.908
66689W        W38949  22.696   4.468  11.530
66690W        W38950  21.634  41.593   2.336
66691W        W38951  44.492  36.559  10.504
66692W        W38952  23.236   0.743  11.626
66693W        W38953  13.358  10.608  14.976
66694W        W38954   9.112  13.624   0.821
66695W        W38955  38.554  22.990   1.917
66696W        W38956  27.147  28.874   3.234
66697W        W38957  25.524  41.585   2.885
66698W        W38958  43.283  36.203   1.759
66699W        W38959  38.340   1.267   0.509
66700W        W38960  31.807   9.452   4.230
66701W        W38961  33.434  19.873  13.814
66702W        W38962   2.829  24.528  12.088
66703W        W38963  13.362   4.778  12.419
66704W        W38964  38.898  38.091  11.190
66705W        W38965   3.879   8.240   3.154
66706W        W38966  21.447  30.108   3.491
66707W        W38967   2.230  11.641  14.627
66708W        W38968   8.622  21.814  14.077
66709W        W38969  33.265  22.946  14.045
66710W        W38970  12.152  20.932  13.735
66711W        W38971  37.883  19.969   3.290
66712W        W38972  41.062   7.775   0.254
66713W        W38973  38.913   8.179  13.424
66714W        W38974   4.311  28.158  10.488
66715W        W38975   3.453  16.554   2.129
66716W        W38976  30.007   4.370   3.977
66717W        W38977  44.998  14.551  12.579
66718W        W38978  41.442   6.144  13.555
66719W        W38979  40.244  36.932  14.013
66720W        W38980   4.350  28.229   1.920
66721W        W38981  17.058  38.929   2.722
66722W        W38982   5.867  41.745   4.581
66723W        W38983  34.010  13.263   2.408
66724W        W38984  35.827  19.230   3.150
66725W        W38985   4.280   4.743  11.615
66726W        W38986  18.992  38.547   4.141
66727W        W38987   7.435  38.950  12.077
66728W        W38988  20.009  20.776  11.053
66729W        W38989   6.957  29.976  12.401
66730W        W38990  17.381  39.550   1.938
66731W        W38991  37.477   6.758   0.302
66732W        W38992  33.759   6.249  10.733
66733W        W38993  12.678   5.231  13.413
66734W        W38994  12.808  25.627  13.798
66735W        W38995  15.111  28.130  12.956
66736W        W38996  30.425  27.875   0.801
66737W        W38997  24.835  37.434   1.796
66738W        W38998  44.482  41.586   5.065
66739W        W38999  19.747  22.891   3.767
66740W        W39000  43.089   6.096  12.141
66741W        W39001  25.105  29.554  13.090
66742W        W39002  33.385   9.869  11.027
66743W        W39003  22.498  10.148  13.740
66744W        W39004  12.539  26.576  11.621
66745W        W39005  22.159  34.829   4.356
66746W        W39006  44.859  32.537  13.814
66747W        W39007  15.836  30.105  14.296
66748W        W39008  11.262  23.313  12.619
66749W        W39009  29.684  16.066  10.259
66750W        W39010  18.422  21.778   0.349
66751W        W39011  30.401  28.890  11.542
66752W        W39012  22.208  42.898  12.908
66753W        W39013  26.474  18.423   4.702
66754W        W39014  29.716  33.552  12.613
66755W        W39015   4.048  24.928  14.435
66756W        W39016   1.937  40.135   3.710
66757W        W39017  41.794  13.068   3.265
66758W        W39018  34.068  18.338   4.226
66759W        W39019   6.341  34.535  12.054
66760W        W39020  30.949  41.908  13.012
66761W        W39021  12.577  26.661  10.714
66762W        W39022  27.725  22.498  11.935
66763W        W39023  36.625   4.991  13.873
66764W        W39024   5.247   9.799  11.088
66765W        W39025   7.887  38.812   3.315
66766W        W39026  41.781  14.570  12.961
66767W        W39027  11.120  27.630   4.524
66768W        W39028  12.768   2.328   4.580
66769W        W39029  33.220  21.878   0.791
66770W        W39030  32.725  11.181   4.620
66771W        W39031  22.991  24.771  13.874
66772W        W39032  44.418   0.329  10.685
66773W        W39033  32.040  15.601  13.565
66774W        W39034  15.216  13.986   3.323
66775W        W39035  27.049  42.873   1.697
66776W        W39036  31.493  23.067  12.534
66777W        W39037  29.600  10.350  14.871
66778W        W39038   7.254  32.161   1.255
66779W        W39039   0.473  37.675   0.168
66780W        W39040  37.928  32.486   1.906
66781W        W39041  22.933  12.916  13.602
66782W        W39042  43.840   7.354  11.407
66783W        W39043  27.327  25.794   2.817
66784W        W39044  16.347  35.829   2.292
66785W        W39045  14.289   6.577   2.728
66786W        W39046  41.802  25.245  11.618
66787W        W39047  20.473   8.475   4.305
66788W        W39048  26.648  40.027   2.126
66789W        W39049  31.010  30.674   5.049
66790W        W39050  42.962  44.955   1.354
66791W        W39051  35.894   5.129  14.274
66792W        W39052   0.032   2.259   3.933
66793W        W39053  26.979   1.857   4.153
66794W        W39054   9.976   7.422   1.867
66795W        W39055  12.608  16.059   1.734
66796W        W39056  28.813  17.799  13.935
66797W        W39057  18.691  14.562  10.403
66798W        W39058  43.222  42.739   3.779
66799W        W39059  32.026  19.685  10.676
66800W        W39060  40.423  33.496  10.786
66801W        W39061   1.736   4.055   0.272
66802W        W39062   5.110  37.487  13.322
66803W        W39063  16.840   5.292  13.354
66804W        W39064   2.314  35.062   3.343
66805W        W39065  26.012   1.750  11.132
66806W        W39066   5.394  42.771  11.536
66807W        W39067  12.752  13.377   1.313
66808W        W39068   0.430  20.735   3.930
66809W        W39069   3.851  14.269   5.158
66810W        W39070   4.340  19.057  13.418
66811W        W39071  44.925  31.347   1.189
66812W        W39072  43.415   4.815  14.889
66813W        W39073  44.846  10.028  12.039
66814W        W39074  44.322   1.516  11.459
66815W        W39075  29.865  33.033   9.969
66816W        W39076   2.729  23.672  11.822
66817W        W39077   9.144  35.383   2.367
66818W        W39078  31.233   2.615   4.690
66819W        W39079   4.745  19.118  11.945
66820W        W39080  28.540  35.455   2.383
66821W        W39081  33.845  16.583   2.292
66822W        W39082  22.801  35.990  14.887
66823W        W39083  16.687  33.968  13.227
66824W        W39084  29.082   4.826   3.797
66825W        W39085  33.724  28.265   1.406
66826W        W39086  44.317  20.765   3.328
66827W        W39087  22.997   8.384  12.848
66828W        W39088  44.369  39.513   0.429
66829W        W39089  31.119  24.068   3.757
66830W        W39090  40.992  27.516   4.118
66831W        W39091  18.692   0.309  14.850
66832W        W39092  42.963  30.038  11.932
66833W        W39093   5.218  14.635  14.704
66834W        W39094  10.260  34.601  12.870
66835W        W39095  37.360  27.984   2.174
66836W        W39096  18.659   0.275  10.679
66837W        W39097  24.029  29.760  11.456
66838W        W39098  25.952  30.246  11.555
66839W        W39099  10.457   8.290   0.866
66840W        W39100  36.162  19.341   1.931
66841W        W39101  30.468   5.472   3.742
66842W        W39102  34.341   2.179  14.492
66843W        W39103  19.297  18.880   4.873
66844W        W39104   1.440  11.379  12.114
66845W        W39105  37.934   4.306  13.545
66846W        W39106  41.962  40.303   3.195
66847W        W39107  40.399  38.094   0.885
66848W        W39108  39.937  23.619  12.424
66849W        W39109  21.842  39.413   3.272
66850W        W39110  36.889  21.738  12.623
66851W        W39111  18.162   8.294   5.480
66852W        W39112  30.125  11.922   1.926
66853W        W39113  34.039  14.478   1.995
66854W        W39114  28.203   7.791  14.704
66855W        W39115  21.886  26.959   3.232
66856W        W39116   8.236  33.223   4.490
66857W        W39117  25.840   5.194  13.440
66858W        W39118  25.583  26.645  13.106
66859W        W39119  14.196  14.667  11.432
66860W        W39120  34.552  21.767   3.502
66861W        W39121  17.621  10.688  14.110
66862W        W39122  42.404  24.721   2.650
66863W        W39123  33.160  42.942  13.284
66864W        W39124  43.348  12.631   4.053
66865W        W39125  11.798  12.749   2.181
66866W        W39126  22.624  12.714   3.688
66867W        W39127   5.176  15.053   3.985
66868W        W39128  40.463  40.929  13.844
66869W        W39129  11.669  26.969   3.211
66870W        W39130   0.387  15.304  11.689
66871W        W39131  36.801  37.077  13.933
66872W        W39132   8.654  26.706  13.980
66873W        W39133  20.265  14.280   0.345
66874W        W39134  40.789  20.676  13.854
66875W        W39135  41.974  39.586   1.279
66876W        W39136  31.532   6.371   4.366
66877W        W39137  17.165  23.248  12.025
66878W        W39138  16.741   4.730   2.364
66879W        W39139  34.877  41.897  13.872
66880W        W39140   7.896  27.947  12.373
66881W        W39141  10.765   0.708  11.929
66882W        W39142   6.154   0.300  12.112
66883W        W39143   8.307   6.267   2.630
66884W        W39144  31.895  25.680  11.184
66885W        W39145   5.655  26.947  10.155
66886W        W39146  30.896  39.436  13.768
66887W        W39147  31.612  25.217   0.398
66888W        W39148   9.607   5.135   3.333
66889W        W39149  35.560  43.231   3.327
66890W        W39150   8.389   3.216  11.638
66891W        W39151   1.315   9.706   4.357
66892W        W39152   0.346  18.452  13.823
66893W        W39153  39.893   7.372   2.710
66894W        W39154  27.063  35.120   3.350
66895W        W39155  27.561  40.854   2.434
66896W        W39156  35.127  24.062  14.429
66897W        W39157  36.440  10.808  12.972
66898W        W39158  23.096  26.135  14.375
66899W        W39159  16.956  38.634   0.766
66900W        W39160   0.421  22.415  14.394
66901W        W39161  35.535   7.954   0.808
66902W        W39162  24.097  13.202   3.463
66903W        W39163  38.617  30.867  10.436
66904W        W39164  40.247  17.561   3.386
66905W        W39165   5.736  36.493   4.100
66906W        W39166   8.097  26.477   5.416
66907W        W39167  38.076   5.910   1.495
66908W        W39168  35.815  24.697   3.522
66909W        W39169   6.150  21.663  13.791
66910W        W39170  18.640   5.500  14.177
66911W        W39171  26.581  27.448  13.647
66912W        W39172  21.213  26.014   2.345
66913W        W39173  16.733  20.671   3.770
66914W        W39174  38.445   1.766   0.389
66915W        W39175   2.280  30.991  11.692
66916W        W39176  10.152  44.518  13.801
66917W        W39177  44.609  39.827   1.393
66918W        W39178  24.626  14.687  14.071
66919W        W39179  13.091   1.209   3.273
66920W        W39180  44.296  40.911  14.375
66921W        W39181  28.348  28.008   1.378
66922W        W39182  23.030  24.605  10.362
66923W        W39183  40.198  31.330  11.146
66924W        W39184   4.865  13.780   2.737
66925W        W39185  31.948   9.432   2.907
66926W        W39186  38.816   6.834  12.450
66927W        W39187  39.829   2.146  14.913
66928W        W39188  42.537  20.584   3.669
66929W        W39189  13.841  22.378   1.355
66930W        W39190   2.827  15.899   3.320
66931W        W39191   6.858   1.267   4.673
66932W        W39192   8.266  21.953  10.616
66933W        W39193  17.854  37.981  11.450
66934W        W39194  38.530  21.232  11.183
66935W        W39195  29.647  32.489  12.434
66936W        W39196  32.855  31.545  12.354
66937W        W39197  29.660  10.317   1.437
66938W        W39198  28.212   4.071  10.773
66939W        W39199  30.019  38.969   2.305
66940W        W39200  10.290  21.248  14.419
66941W        W39201  12.617  36.905  13.908
66942W        W39202  13.616  29.698   1.436
66943W        W39203  13.337  27.709   3.294
66944W        W39204  42.203  31.174   4.512
66945W        W39205   4.297  38.982  12.575
66946W        W39206  10.247   7.385  13.946
66947W        W39207  34.100  20.244   4.183
66948W        W39208  26.075   3.183  11.140
66949W        W39209  18.963   2.903  14.281
66950W        W39210  28.608  41.015   4.446
66951W        W39211   9.864  33.463  13.579
66952W        W39212  37.884  10.623  13.792
66953W        W39213   6.700  37.931  12.361
66954W        W39214  13.736  15.433  11.640
66955W        W39215   0.690  24.472   4.531
66956W        W39216  29.412  27.904   2.283
66957W        W39217  17.557  35.935  12.526
66958W        W39218  14.582  24.516   3.175
66959W        W39219  29.932  40.608  12.642
66960W        W39220  27.101   8.848   1.230
66961W        W39221  29.933  44.737   3.834
66962W        W39222   8.251   0.530  14.058
66963W        W39223  16.728  15.858  13.269
66964W        W39224  22.823  19.768   2.009
66965W        W39225   9.858  39.421  12.222
66966W        W39226  23.558   7.825  13.491
66967W        W39227  27.639  32.031  11.546
66968W        W39228   0.975  22.473   1.395
66969W        W39229  31.120  10.503  11.215
66970W        W39230   5.879  21.434   3.148
66971W        W39231  13.884  17.859   0.187
66972W        W39232   1.003   4.838   1.456
66973W        W39233  39.217  23.601   4.130
66974W        W39234   2.674   4.472  11.917
66975W        W39235   1.475  13.171  14.767
66976W        W39236  35.326   8.285  14.326
66977W        W39237   7.924  27.849  14.825
66978W        W39238  20.716  40.279  10.689
66979W        W39239  32.467   3.996  13.818
66980W        W39240  40.879   8.255   0.111
66981W        W39241   6.496  14.308   3.117
66982W        W39242   6.912  34.989   0.137
66983W        W39243  10.292  41.942   3.548
66984W        W39244  27.834  37.072   1.023
66985W        W39245  25.284  42.881  12.099
66986W        W39246  34.668   4.213  14.278
66987W        W39247  42.214  30.914  11.670
66988W        W39248  26.677  33.326  12.434
66989W        W39249  19.797   7.932  12.346
66990W        W39250  19.627   8.034   2.740
66991W        W39251  21.788  32.838  11.043
66992W        W39252  17.957  20.878   9.925
66993W        W39253  16.199  19.204  11.152
66994W        W39254  22.213  24.799  11.343
66995W        W39255  22.008   9.826  13.314
66996W        W39256  13.845  13.741  13.844
66997W        W39257   5.513  39.886   2.344
66998W        W39258  14.579  33.368   2.240
66999W        W39259   4.971   6.988   3.318
67000W        W39260  32.832  44.061  11.163
67001W        W39261  21.902  21.685  13.060
67002W        W39262  19.324  23.305  13.125
67003W        W39263  38.650  17.767   0.883
67004W        W39264  18.531  35.365  14.873
67005W        W39265  43.732  29.605  10.455
67006W        W39266  41.484  38.972   2.622
67007W        W39267  39.025  30.297   2.847
67008W        W39268  30.986  34.934   4.663
67009W        W39269   7.394  17.423   2.257
67010W        W39270   7.282   0.011  13.609
67011W        W39271  34.544  39.375   1.277
67012W        W39272  15.688   2.714  14.090
67013W        W39273  17.105  13.141   1.565
67014W        W39274  33.394  16.203   2.802
67015W        W39275   6.524  29.491  12.849
67016W        W39276  38.421  41.969   3.670
67017W        W39277  11.693  43.332   0.876
67018W        W39278   5.153   3.269   0.359
67019W        W39279  20.257  22.982  14.790
67020W        W39280  26.557  23.663   3.599
67021W        W39281  13.638  20.261  13.917
67022W        W39282  18.580  41.373   3.182
67023W        W39283  34.623  19.564   3.576
67024W        W39284  26.773   3.348  11.902
67025W        W39285   4.505  14.652  12.504
67026W        W39286  28.703   3.653   0.844
67027W        W39287  26.925  10.162   4.774
67028W        W39288  36.969  11.981  12.820
67029W        W39289  28.618  36.433   0.807
67030W        W39290  19.179   9.949   3.266
67031W        W39291  44.718  14.060  14.946
67032W        W39292  20.117   7.046  11.994
67033W        W39293   3.499  44.508  11.157
67034W        W39294  32.950  44.808   4.777
67035W        W39295  16.295  15.026  12.069
67036W        W39296  25.716  42.527  11.472
67037W        W39297  41.869  17.995  12.409
67038W        W39298  11.145   8.751   1.696
67039W        W39299   2.475  25.914   3.226
67040W        W39300  40.140  32.596  11.236
67041W        W39301   3.740  33.703  14.762
67042W        W39302  15.720  15.789  14.591
67043W        W39303  35.114  35.967  13.315
67044W        W39304  41.450   7.768  13.570
67045W        W39305  35.590  28.209  11.556
67046W        W39306   8.728  44.228  11.965
67047W        W39307  43.971  25.147  11.838
67048W        W39308  44.981  23.821  12.644
67049W        W39309  27.002  30.504   5.017
67050W        W39310  37.148  15.687  11.522
67051W        W39311   9.170  17.657  12.521
67052W        W39312  13.702   8.359   0.777
67053W        W39313   7.042  18.788  11.668
67054W        W39314   6.308  34.456   0.481
67055W        W39315  11.267  24.485  12.004
67056W        W39316  28.041  15.272   2.964
67057W        W39317  22.132  35.398  10.653
67058W        W39318   6.971  35.423   0.900
67059W        W39319  38.300  25.056   0.428
67060W        W39320   1.222   8.192  10.669
67061W        W39321   5.035   8.359   3.385
67062W        W39322  37.135  22.692   2.149
67063W        W39323  14.324  26.587   0.268
67064W        W39324  20.062  29.751  11.133
67065W        W39325  12.628  37.460  14.135
67066W        W39326  37.030  16.782   1.771
67067W        W39327  44.226  44.290  14.986
67068W        W39328  18.175   7.082  12.860
67069W        W39329   0.517  35.608   1.026
67070W        W39330  35.179  33.690  14.214
67071W        W39331  14.214  41.921  11.713
67072W        W39332  42.810  35.328   3.730
67073W        W39333  33.873   8.148   0.956
67074W        W39334  29.657  37.054  12.873
67075W        W39335  23.264  19.480  11.640
67076W        W39336  37.074  32.146  13.884
67077W        W39337  23.094   6.423   0.830
67078W        W39338   5.785  42.299  11.128
67079W        W39339   6.998  42.373   0.397
67080W        W39340   4.793  17.928  12.893
67081W        W39341  13.730  17.209  14.866
67082W        W39342  15.331  31.497   2.233
67083W        W39343   4.201  42.134   3.456
67084W        W39344  30.450  22.005   4.557
67085W        W39345  37.417  19.256   4.887
67086W        W39346  28.661   8.298  12.834
67087W        W39347   9.934  29.119   0.280
67088W        W39348  25.188  23.441  14.472
67089W        W39349  11.249  12.128   3.086
67090W        W39350  14.913  28.908   5.036
67091W        W39351  14.024  12.343   4.139
67092W        W39352  13.671  26.688  14.018
67093W        W39353   6.342  31.113   1.030
67094W        W39354  29.530  21.560   1.995
67095W        W39355  36.970  32.002   4.616
67096W        W39356  30.538   9.227  11.597
67097W        W39357  21.436  23.311   0.352
67098W        W39358  34.450  31.699   2.738
67099W        W39359  38.409   2.633  13.900
67100W        W39360  29.434  18.946  13.903
67101W        W39361  35.888  43.772  13.530
67102W        W39362  39.566  31.082  11.872
67103W        W39363  29.892  11.592   1.252
67104W        W39364  11.464   4.823   0.169
67105W        W39365  15.146  37.442  11.061
67106W        W39366  37.467  14.090  12.273
67107W        W39367  11.833  44.386   4.112
67108W        W39368   4.442  21.720  14.927
67109W        W39369  40.477   2.890   0.216
67110W        W39370   9.224  20.585   1.888
67111W        W39371  42.314   9.948  10.883
67112W        W39372   1.073  22.776  11.549
67113W        W39373   3.894  31.786   0.381
67114W        W39374  10.207  20.512   4.171
67115W        W39375  13.011   5.663  12.336
67116W        W39376  26.789  22.418  13.737
67117W        W39377   4.810  16.118   3.306
67118W        W39378  21.705  14.819   2.686
67119W        W39379   2.822  22.502   2.270
67120W        W39380  16.193  29.665  12.556
67121W        W39381  32.982  17.627   4.157
67122W        W39382  44.006  44.997  10.571
67123W        W39383  41.290  14.851  14.033
67124W        W39384  14.348   1.316  12.055
67125W        W39385   4.389  16.584  14.076
67126W        W39386  19.163  32.283   3.277
67127W        W39387  34.337  15.676   4.216
67128W        W39388   7.465  34.517   0.952
67129W        W39389  32.002  29.423   4.626
67130W        W39390   1.197  42.490   4.194
67131W        W39391  28.857  19.287   2.164
67132W        W39392  22.855  27.762  10.771
67133W        W39393  40.334  38.447  12.006
67134W        W39394   4.357  16.280   1.972
67135W        W39395  35.052  42.371  10.872
67136W        W39396  25.241  31.373  12.364
67137W        W39397  22.599  23.296   3.163
67138W        W39398  38.109   6.321   3.767
67139W        W39399   1.420  33.894  11.141
67140W        W39400  15.487  17.691   3.625
67141W        W39401  44.534  37.845  10.164
67142W        W39402  37.178  30.009  10.742
67143W        W39403  43.014  31.445  12.529
67144W        W39404  44.214  15.331  14.856
67145W        W39405  25.264  20.084   4.288
67146W        W39406  19.486  38.875   1.327
67147W        W39407  20.044  18.989   1.599
67148W        W39408  30.125  27.108  10.690
67149W        W39409  15.715  44.516  13.625
67150W        W39410  11.648  33.876   3.091
67151W        W39411  38.959  13.619   1.312
67152W        W39412   0.898  37.331   1.083
67153W        W39413  18.698  43.436  14.955
67154W        W39414   9.370  31.901   2.159
67155W        W39415  28.359  28.607  11.393
67156W        W39416  40.423  15.094  11.934
67157W        W39417  19.712  28.761  13.993
67158W        W39418  22.543  10.093   3.309
67159W        W39419  13.095   9.681   3.352
67160W        W39420  13.855  30.660   4.987
67161W        W39421  17.268  32.861   0.218
67162W        W39422  29.144   6.395   2.918
67163W        W39423  11.151  32.659  13.034
67164W        W39424   2.500  20.710  12.435
67165W        W39425  24.189   5.259   5.042
67166W        W39426   0.555  10.249   4.415
67167W        W39427  13.719  15.304   0.721
67168W        W39428  13.309  31.539  11.868
67169W        W39429   0.462  16.646  11.535
67170W        W39430   8.941  33.944   0.497
67171W        W39431  15.785   1.290  14.823
67172W        W39432  23.973  11.221   3.297
67173W        W39433  35.152  43.333   1.710
67174W        W39434  29.735  24.633   2.584
67175W        W39435  37.829  22.989   0.275
67176W        W39436  26.859  42.761   4.961
67177W        W39437  41.077  24.480  12.626
67178W        W39438   4.905  11.335   4.731
67179W        W39439  16.317  17.638  11.235
67180W        W39440  22.388   0.992  11.165
67181W        W39441  11.799  41.342  10.262
67182W        W39442  13.204  14.123  10.709
67183W        W39443  43.524  34.079   1.850
67184W        W39444   0.299  32.050  11.255
67185W        W39445  28.967  22.547  10.494
67186W        W39446  26.132   9.828   1.467
67187W        W39447  13.641  33.044  13.961
67188W        W39448   3.763   3.808   0.878
67189W        W39449  22.458  23.009   0.317
67190W        W39450  33.641   8.211   1.831
67191W        W39451  19.592  38.139   2.835
67192W        W39452  21.796  22.562  14.984
67193W        W39453  44.687  15.330  13.925
67194W        W39454  41.211  28.633  11.547
67195W        W39455  12.344  22.066  11.912
67196W        W39456  40.928  30.996  11.568
67197W        W39457  36.436  28.591  11.468
67198W        W39458   6.244  36.142  12.060
67199W        W39459   7.386  41.058  13.350
67200W        W39460   3.490  41.128   2.571
67201W        W39461  14.032  28.027  10.181
67202W        W39462   4.475  43.026  13.307
67203W        W39463  35.460   0.871   0.405
67204W        W39464   4.354  17.104   4.689
67205W        W39465  23.630  39.771   4.067
67206W        W39466  31.572  39.324  10.756
67207W        W39467   6.476  22.275   0.715
67208W        W39468  14.606  39.054  10.648
67209W        W39469  10.056  41.993   3.995
67210W        W39470  41.458  42.319  14.371
67211W        W39471  34.376  25.470   1.387
67212W        W39472  27.301  33.987   1.308
67213W        W39473  42.037   4.874  14.274
67214W        W39474  20.211  28.492   3.678
67215W        W39475  23.949   0.762  13.134
67216W        W39476  10.210   2.345  12.437
67217W        W39477  18.015   2.473   1.474
67218W        W39478  14.096  44.858   1.249
67219W        W39479  30.894  38.516   3.612
67220W        W39480  16.604  33.656   3.058
67221W        W39481  15.182  12.750  11.010
67222W        W39482  44.226  16.165  12.101
67223W        W39483   2.595  37.984  10.705
67224W        W39484   5.869   0.754   3.194
67225W        W39485   6.150  11.822  11.585
67226W        W39486   0.218  41.883   3.570
67227W        W39487  21.752  21.703  10.650
67228W        W39488  11.440   0.523   1.365
67229W        W39489  22.112  13.845   3.624
67230W        W39490   3.419  41.101   0.314
67231W        W39491  39.016  14.230  13.892
67232W        W39492  10.115  15.564  11.892
67233W        W39493  32.981   1.296   0.757
67234W        W39494  24.786   9.028   1.793
67235W        W39495   5.600  36.785   2.758
67236W        W39496  41.836  21.913   3.364
67237W        W39497  21.478  14.523  12.098
67238W        W39498  25.049  38.446  14.946
67239W        W39499  34.658  34.581   0.075
67240W        W39500  17.050   6.335   1.257
67241W        W39501   4.462  21.675   0.974
67242W        W39502  38.760  43.502  13.372
67243W        W39503  22.244  37.066   4.885
67244W        W39504  38.029  22.728   3.237
67245W        W39505  42.043  28.136  13.709
67246W        W39506  20.160  32.192  12.937
67247W        W39507  37.878   8.829   3.045
67248W        W39508  43.075  13.999  13.008
67249W        W39509  14.208  31.973  11.615
67250W        W39510  23.668   5.751   4.672
67251W        W39511  20.024  17.264   4.236
67252W        W39512  42.843   4.873  12.415
67253W        W39513  13.547  31.510   0.307
67254W        W39514  36.894   5.928  11.591
67255W        W39515  13.209   4.396   1.664
67256W        W39516   7.941  17.183  12.525
67257W        W39517  33.043  43.665   0.977
67258W        W39518  39.114   0.332   9.905
67259W        W39519  25.600  34.902  12.411
67260W        W39520   3.749  37.502  14.243
67261W        W39521  28.746   0.114   1.249
67262W        W39522  32.156  43.205  11.905
67263W        W39523  15.475   2.279   4.341
67264W        W39524   5.819  14.646  12.028
67265W        W39525  31.402   2.847   1.173
67266W        W39526  20.053  21.234  11.620
67267W        W39527  33.966  29.448   0.086
67268W        W39528  41.087  10.352  13.487
67269W        W39529   7.476  16.222   4.649
67270W        W39530   2.866  44.796   2.836
67271W        W39531  42.841  15.030  13.966
67272W        W39532  32.622  10.098  10.076
67273W        W39533  28.678   6.309  12.992
67274W        W39534   9.756  16.048  13.097
67275W        W39535  41.769   6.377   3.188
67276W        W39536  20.882  29.060   2.725
67277W        W39537   3.703  16.684  14.312
67278W        W39538  39.179  15.644  13.014
67279W        W39539  16.728  22.961  12.029
67280W        W39540  41.486  12.371  13.442
67281W        W39541  35.792  36.819  13.912
67282W        W39542  26.779  24.151  13.291
67283W        W39543  29.536  16.468   4.652
67284W        W39544   9.664  37.583   4.489
67285W        W39545   1.974   4.718  13.984
67286W        W39546  32.169  19.803   9.999
67287W        W39547  33.118  39.238   0.530
67288W        W39548  44.932   4.778   0.023
67289W        W39549  19.633  22.613  11.676
67290W        W39550  14.365   5.221  12.893
67291W        W39551  25.190  42.643  14.917
67292W        W39552  24.873  29.462  14.308
67293W        W39553  26.166  43.458   3.621
67294W        W39554  42.271   4.161  12.699
67295W        W39555  23.876   6.418   3.280
67296W        W39556  22.986  26.741   3.821
67297W        W39557   4.451  39.327  14.931
67298W        W39558  11.047   0.474  13.969
67299W        W39559   1.969   5.051   3.681
67300W        W39560  15.191   5.850   4.443
67301W        W39561   5.808   4.506  11.637
67302W        W39562   1.347   6.826  10.722
67303W        W39563   2.808  14.090   1.284
67304W        W39564  23.617  24.531  12.082
67305W        W39565  26.814   2.470   3.549
67306W        W39566  10.826  14.749  12.939
67307W        W39567  31.525  24.527   2.705
67308W        W39568   2.015  15.054  13.356
67309W        W39569   9.774  15.068  14.466
67310W        W39570  16.115  10.201  11.644
67311W        W39571  12.161  39.703   1.461
67312W        W39572  19.992  38.356   3.828
67313W        W39573  13.626   3.153  11.574
67314W        W39574  43.129  20.755   2.746
67315W        W39575   4.203  31.163  12.146
67316W        W39576  42.864   2.843   1.773
67317W        W39577  42.798  20.520   1.785
67318W        W39578  24.391   7.693   0.953
67319W        W39579  37.474  11.719   0.808
67320W        W39580   5.432  42.746   0.900
67321W        W39581  37.024   5.930  13.506
67322W        W39582  33.823  25.696   5.084
67323W        W39583  14.308   1.929  13.504
67324W        W39584  25.561  38.609  11.901
67325W        W39585  37.461  20.126  13.832
67326W        W39586   0.214  35.571  14.771
67327W        W39587  37.325  15.017   2.377
67328W        W39588  21.001  30.978  11.970
67329W        W39589  44.699  27.015   0.189
67330W        W39590  28.647  19.605  14.054
67331W        W39591  19.511  33.674   2.719
67332W        W39592  41.850  37.551  12.144
67333W        W39593   4.961   3.402   2.185
67334W        W39594  13.743  36.960  12.607
67335W        W39595  40.404   8.474  11.540
67336W        W39596  13.825   2.129  11.042
67337W        W39597  22.144  27.023  13.490
67338W        W39598  19.053   5.835  14.007
67339W        W39599  25.650  43.796   0.276
67340W        W39600   1.620  26.241   0.096
67341W        W39601  22.325  24.590   4.299
67342W        W39602  37.809  24.097  13.093
67343W        W39603  20.259  42.140  11.628
67344W        W39604  27.431  19.987   4.785
67345W        W39605  31.720  14.722   4.211
67346W        W39606   6.258  42.918   0.304
67347W        W39607  42.531  39.793   1.422
67348W        W39608  10.563  16.120  14.930
67349W        W39609   9.064  23.192   4.259
67350W        W39610   5.550  12.282  11.358
67351W        W39611  44.049  16.265   3.657
67352W        W39612  37.767  33.540   0.625
67353W        W39613  32.082   5.968   1.712
67354W        W39614  19.238  39.118  11.558
67355W        W39615  36.858  13.096   2.873
67356W        W39616  16.723  15.574  14.829
67357W        W39617  40.112  42.900   0.827
67358W        W39618  32.069  13.297   5.056
67359W        W39619  11.066  22.670   1.891
67360W        W39620   1.700  36.265  14.431
67361W        W39621  42.924   1.359  14.150
67362W        W39622  25.468   3.526  12.458
67363W        W39623  28.671  39.433   1.926
67364W        W39624  24.273  35.922  10.842
67365W        W39625   8.379  11.652   1.809
67366W        W39626  29.459  41.576   0.939
67367W        W39627  34.824  17.217   4.453
67368W        W39628  18.317  40.167  13.959
67369W        W39629  35.786  11.241   0.436
67370W        W39630  36.070   6.764   2.181
67371W        W39631  20.799  39.937   3.914
67372W        W39632   0.798  22.921   3.689
67373W        W39633   8.872  22.971  12.050
67374W        W39634  20.709  28.947  11.168
67375W        W39635  39.782  14.110   3.798
67376W        W39636  14.195   5.471   1.758
67377W        W39637  31.901  15.873   2.490
67378W        W39638  15.608  32.056  10.275
67379W        W39639  13.447  11.604  12.955
67380W        W39640  32.273   4.787  11.557
67381W        W39641  40.825  19.060   2.771
67382W        W39642  23.017  20.072   4.261
67383W        W39643  15.772  15.405   2.676
67384W        W39644   8.405   0.378   2.958
67385W        W39645  26.646  15.959  10.106
67386W        W39646  23.247  16.290   4.417
67387W        W39647  35.677  37.344  12.506
67388W        W39648  22.765  13.760  13.793
67389W        W39649  23.118  42.819  12.403
67390W        W39650  21.257  27.510   4.613
67391W        W39651  25.433   7.617  14.457
67392W        W39652  33.474  25.589  12.028
67393W        W39653  36.016  33.051  14.255
67394W        W39654   2.913  30.484   0.760
67395W        W39655   1.985  18.585  12.500
67396W        W39656  20.151  22.628   3.088
67397W        W39657  31.780  32.592   0.429
67398W        W39658  23.534   7.341  13.303
67399W        W39659  27.469   0.370  14.498
67400W        W39660  20.784   2.651   0.330
67401W        W39661  36.376   8.446   2.228
67402W        W39662  31.559   2.416  12.466
67403W        W39663  39.616  10.155   0.916
67404W        W39664  27.798  21.534  11.457
67405W        W39665  28.896  13.668   0.402
67406W        W39666  33.528  22.777   2.277
67407W        W39667  13.542  24.171  12.202
67408W        W39668   5.662  20.125  14.105
67409W        W39669   3.317  37.380  12.389
67410W        W39670  33.488   3.176   1.201
67411W        W39671  32.957   3.208   2.415
67412W        W39672   5.374   2.443  14.504
67413W        W39673  44.805  31.047   1.893
67414W        W39674   8.178  20.150   3.821
67415W        W39675  39.893   0.668  13.525
67416W        W39676  31.886  14.766  12.091
67417W        W39677  39.114  29.436   4.257
67418W        W39678  27.110   5.954  14.846
67419W        W39679  40.248  20.841  13.941
67420W        W39680  36.501  12.757   4.532
67421W        W39681  44.070  27.058  14.633
67422W        W39682  21.577  39.481   3.710
67423W        W39683  16.063   4.421  14.801
67424W        W39684  40.660   5.331  10.387
67425W        W39685   4.793  16.533   1.769
67426W        W39686  28.521  18.532   4.347
67427W        W39687  12.286   3.406   3.173
67428W        W39688   0.448  19.169  14.365
67429W        W39689   5.293  43.893  12.874
67430W        W39690  15.121  32.904   1.353
67431W        W39691  44.439  21.173   1.290
67432W        W39692  36.082   9.616  10.645
67433W        W39693   1.014  36.950  12.142
67434W        W39694   0.877  34.254   2.763
67435W        W39695   2.934  20.562  12.714
67436W        W39696  21.525  15.727   1.793
67437W        W39697  12.301  27.569  12.821
67438W        W39698  25.807  27.760  12.617
67439W        W39699  14.234  20.735   4.761
67440W        W39700   0.811  43.275  10.641
67441W        W39701  38.411   4.416  12.813
67442W        W39702  20.112  19.503   4.714
67443W        W39703  42.556  41.544  14.324
67444W        W39704  39.803  11.156  10.704
67445W        W39705  42.288   9.640  13.316
67446W        W39706  38.032   1.204  13.574
67447W        W39707  33.710  34.446  14.757
67448W        W39708   0.774  15.348  13.446
67449W        W39709  22.395  14.638   4.092
67450W        W39710  19.964   6.971  11.486
67451W        W39711   2.969  19.553  10.540
67452W        W39712  34.580  24.022   4.515
67453W        W39713  35.520  31.107  13.266
67454W        W39714  27.714   8.177   0.383
67455W        W39715  33.019  12.872  14.941
67456W        W39716  19.591  41.943  11.952
67457W        W39717  33.924  15.054   3.209
67458W        W39718   6.145  42.491  13.755
67459W        W39719  28.121  42.247   4.645
67460W        W39720   2.103  17.619  10.891
67461W        W39721  31.662  41.552   2.325
67462W        W39722  32.813  31.023   1.062
67463W        W39723  38.158  13.191  13.765
67464W        W39724  14.333  44.283  13.770
67465W        W39725  28.297  28.111  10.729
67466W        W39726  17.205  41.429  13.765
67467W        W39727  29.306   0.390  14.446
67468W        W39728   9.305  16.907   5.045
67469W        W39729   3.269  37.027  12.776
67470W        W39730  31.637  14.529  11.693
67471W        W39731  37.771  11.692  13.390
67472W        W39732   7.375  22.292  12.057
67473W        W39733  32.629  23.591   4.251
67474W        W39734  19.597  30.692   3.782
67475W        W39735   8.312   4.777   4.272
67476W        W39736  39.524  20.217  10.612
67477W        W39737  12.296  12.794  14.777
67478W        W39738  24.580  28.343   3.728
67479W        W39739  15.843  24.586  14.729
67480W        W39740  33.816  35.871  12.910
67481W        W39741  14.349  37.631  14.840
67482W        W39742  36.356   3.854   4.844
67483W        W39743   2.169  42.281  11.948
67484W        W39744  36.450   5.306   4.368
67485W        W39745  13.516   2.147  12.438
67486W        W39746   9.967   2.743  12.160
67487W        W39747   6.317  33.081  14.945
67488W        W39748   8.662  14.281  13.555
67489W        W39749  12.422  40.127   1.432
67490W        W39750   2.221  10.731  13.016
67491W        W39751  26.928  16.717  14.272
67492W        W39752  33.243   0.955   3.574
67493W        W39753  32.737  38.568  12.086
67494W        W39754  30.854  23.078   3.267
67495W        W39755  33.216   0.411   1.262
67496W        W39756  13.430   7.932   1.686
67497W        W39757  24.176   2.734  13.046
67498W        W39758  17.781  27.497  13.914
67499W        W39759  40.353  36.390  14.807
67500W        W39760  15.799  15.124  12.102
67501W        W39761  24.764  10.918  12.848
67502W        W39762  23.802  10.722   1.874
67503W        W39763  14.577  23.633  14.942
67504W        W39764  41.971  33.786   4.390
67505W        W39765  14.073  19.588   3.575
67506W        W39766  32.031  12.477   3.912
67507W        W39767  14.759   4.816  14.461
67508W        W39768  19.277  33.362   4.077
67509W        W39769  42.997   6.445  11.527
67510W        W39770  18.800  34.058  12.045
67511W        W39771   2.601  24.223  14.104
67512W        W39772  13.317   2.161  13.317
67513W        W39773  41.896   3.485   3.308
67514W        W39774  43.333  44.490   4.331
67515W        W39775  33.382  10.648   3.683
67516W        W39776  13.167  26.509   3.869
67517W        W39777  22.822  44.966  12.034
67518W        W39778  32.462   4.791   4.135
67519W        W39779   0.740  14.436   1.268
67520W        W39780   2.851   7.144  14.897
67521W        W39781  18.032  44.138   4.546
67522W        W39782   9.953  19.263   5.082
67523W        W39783  10.332  20.019  14.091
67524W        W39784  14.274  26.177   0.590
67525W        W39785   2.034   0.269   2.968
67526W        W39786  12.071   1.018   4.489
67527W        W39787  36.554  11.683  10.611
67528W        W39788  14.757  16.550   3.147
67529W        W39789   2.063  28.592   1.444
67530W        W39790   5.287  27.114  13.852
67531W        W39791  16.592  26.827   0.770
67532W        W39792  39.373  28.908   4.084
67533W        W39793  34.879  23.749  10.933
67534W        W39794  39.749  44.404  11.952
67535W        W39795   4.253   8.193  13.591
67536W        W39796  31.126  10.623   4.609
67537W        W39797  17.765   5.166   1.056
67538W        W39798  15.499  29.739   4.217
67539W        W39799  38.311   2.903  13.465
67540W        W39800   7.943  23.952   2.117
67541W        W39801  13.179   4.784   4.646
67542W        W39802  17.210  32.314   0.414
67543W        W39803   7.983  35.617   3.714
67544W        W39804  18.291  44.426  12.146
67545W        W39805  30.158  20.257   0.401
67546W        W39806  41.501   0.844   1.862
67547W        W39807   7.171  32.678  12.518
67548W        W39808  25.139  30.587   3.716
67549W        W39809   7.117  42.302  11.901
67550W        W39810  27.885  22.226   1.371
67551W        W39811   6.706  11.687  12.368
67552W        W39812   3.212   9.863  12.906
67553W        W39813  31.192  12.132  11.613
67554W        W39814   7.923   6.297  14.500
67555W        W39815  39.903  25.725   3.200
67556W        W39816  40.530  41.595   4.047
67557W        W39817  22.626  32.764  13.450
67558W        W39818  39.432  44.296  12.984
67559W        W39819  24.515  27.165  13.778
67560W        W39820  10.867  15.105  13.630
67561W        W39821  32.462  31.792   0.326
67562W        W39822  12.303  34.238   2.618
67563W        W39823  28.942  24.990   0.464
67564W        W39824   8.656  27.726   2.701
67565W        W39825  39.706  19.740  10.668
67566W        W39826  20.806  44.652  11.073
67567W        W39827   1.088  31.711  13.423
67568W        W39828  14.520  43.759  13.853
67569W        W39829  42.830  20.823  10.544
67570W        W39830  12.664   5.450   0.809
67571W        W39831  12.848  26.568   2.576
67572W        W39832  10.905  31.501   3.152
67573W        W39833   6.805  40.493   0.778
67574W        W39834   5.480  34.631   0.696
67575W        W39835  20.036   1.333  12.905
67576W        W39836  33.573  15.841  11.080
67577W        W39837  43.333  33.561   4.594
67578W        W39838  21.787  11.782  10.673
67579W        W39839  26.109  26.798  13.845
67580W        W39840  39.921  28.127   2.293
67581W        W39841   0.154  41.853  14.031
67582W        W39842  30.982   9.210   0.302
67583W        W39843  29.404  42.245   4.141
67584W        W39844  44.335  36.406  11.021
67585W        W39845  39.197  28.987   2.243
67586W        W39846   7.771  43.728  14.877
67587W        W39847  41.505  29.075  13.528
67588W        W39848  29.079  13.302   4.959
67589W        W39849  35.094  14.188  13.959
67590W        W39850   5.244  26.542   3.516
67591W        W39851  34.507   6.204   1.098
67592W        W39852  17.760  26.182   3.293
67593W        W39853  32.941  38.256  11.633
67594W        W39854  36.985   8.730   5.156
67595W        W39855  20.114  27.274   4.856
67596W        W39856  22.765  16.238   2.600
67597W        W39857  29.529  31.692   1.959
67598W        W39858  24.224  28.108  13.890
67599W        W39859   2.851  35.363  13.018
67600W        W39860  43.276  18.552  10.745
67601W        W39861   4.496  23.693  14.492
67602W        W39862  38.866  35.364  14.863
67603W        W39863  34.225  34.695  12.486
67604W        W39864   7.889  23.942  12.931
67605W        W39865  19.666  32.461  13.469
67606W        W39866  33.437  22.816   0.811
67607W        W39867   0.457  19.192   2.693
67608W        W39868  36.901  21.677  13.430
67609W        W39869  38.113  10.288  10.184
67610W        W39870  34.514   9.612  14.980
67611W        W39871   1.877  31.752   4.614
67612W        W39872  37.005  16.257   1.665
67613W        W39873  20.332  14.099   4.492
67614W        W39874  14.265  39.327   0.344
67615W        W39875  14.693  26.070   3.098
67616W        W39876  23.634  24.632   3.592
67617W        W39877   5.401  35.598   4.173
67618W        W39878   0.433  27.890  13.958
67619W        W39879  13.290  14.742  13.122
67620W        W39880  25.639   3.087   3.342
67621W        W39881  23.941  28.530   3.307
67622W        W39882  33.471   3.963  14.931
67623W        W39883  18.793  16.706   1.299
67624W        W39884  33.947  18.517   0.894
67625W        W39885  31.878  35.427   4.274
67626W        W39886  20.898   5.176  11.568
67627W        W39887   5.481  25.040  11.921
67628W        W39888  28.887  44.208   3.123
67629W        W39889  39.430  23.619   1.369
67630W        W39890  15.089  14.484   3.375
67631W        W39891  18.035   5.387   4.643
67632W        W39892  36.617  28.634  10.600
67633W        W39893   0.142  24.171   0.790
67634W        W39894  44.073  22.855   4.174
67635W        W39895  32.546   0.481  11.337
67636W        W39896   1.899  10.379   2.212
67637W        W39897   2.488  26.921   3.350
67638W        W39898  14.804  26.221  11.431
67639W        W39899  10.128  27.917   3.284
67640W        W39900  38.452  14.698  11.828
67641W        W39901  33.475  12.320   1.470
67642W        W39902  19.121  26.497   0.052
67643W        W39903  32.329  35.358  11.169
67644W        W39904  35.981  44.535   0.719
67645W        W39905  10.115  20.012   4.135
67646W        W39906   7.426   5.472  14.810
67647W        W39907  44.817  14.746   2.152
67648W        W39908  27.928  19.252   4.320
67649W        W39909   0.068   0.820   4.797
67650W        W39910  14.848   2.393   0.789
67651W        W39911  41.762  12.567   3.301
67652W        W39912  12.175  23.396   4.075
67653W        W39913  26.956  17.616   2.778
67654W        W39914  24.770   7.140   2.328
67655W        W39915  39.265  36.871  12.955
67656W        W39916  18.090  18.518   2.920
67657W        W39917   8.541  36.600  11.553
67658W        W39918  21.879  22.483  11.585
67659W        W39919   5.485  21.106   3.224
67660W        W39920  22.245   7.111  13.451
67661W        W39921  43.983   1.982   1.240
67662W        W39922   0.482  16.489   3.063
67663W        W39923   8.150  14.247   4.886
67664W        W39924  36.189   6.052   1.966
67665W        W39925   8.172  10.620   9.824
67666W        W39926  33.555  18.504   2.678
67667W        W39927  20.513  17.593   0.258
67668W        W39928  22.438  21.036   9.694
67669W        W39929  27.820  26.803   0.454
67670W        W39930  11.890  44.527  11.203
67671W        W39931  28.363   8.083  13.215
67672W        W39932  17.677   2.263  10.910
67673W        W39933   0.894   8.868   4.251
67674W        W39934  20.103  30.762  12.289
67675W        W39935  37.350   7.726  12.990
67676W        W39936  10.616  30.944   0.335
67677W        W39937   7.590  28.383  14.766
67678W        W39938  23.867  23.679  13.891
67679W        W39939  16.673  30.340  11.134
67680W        W39940   9.914  21.953   0.796
67681W        W39941  15.262  32.904  13.833
67682W        W39942   8.638  25.011  12.629
67683W        W39943   5.903  20.294   2.231
67684W        W39944  35.198  10.155  10.841
67685W        W39945  18.034  31.228  11.945
67686W        W39946  38.344  25.989  13.457
67687W        W39947  36.458   2.658  13.308
67688W        W39948  24.513  40.561   3.665
67689W        W39949   7.844  13.128  13.349
67690W        W39950   7.321  26.299  11.473
67691W        W39951  22.852  43.249  12.485
67692W        W39952   7.145  13.882   1.270
67693W        W39953   5.422  21.474   0.011
67694W        W39954   3.455  20.280  12.430
67695W        W39955  32.161  42.985  12.895
67696W        W39956  34.958  36.254   1.696
67697W        W39957  40.569  14.160   1.716
67698W        W39958  12.337  22.817   2.708
67699W        W39959  36.749  14.853  11.946
67700W        W39960  40.640  42.131  14.777
67701W        W39961   5.358  22.539  11.245
67702W        W39962  43.501  23.028   4.603
67703W        W39963  35.298  15.023   2.258
67704W        W39964  38.882  19.443   1.481
67705W        W39965  36.692  10.318   4.181
67706W        W39966   2.673  15.604   1.548
67707W        W39967  21.797  42.097   2.460
67708W        W39968  10.993  11.853  12.947
67709W        W39969  33.885  20.141   2.892
67710W        W39970  25.488  17.054  11.017
67711W        W39971   6.183   5.417  11.037
67712W        W39972   8.819   2.634   0.464
67713W        W39973   2.525  17.250   1.376
67714W        W39974  15.864  31.822  12.051
67715W        W39975   4.584  11.895   0.786
67716W        W39976  34.391  29.377  13.435
67717W        W39977  23.394  42.906   3.684
67718W        W39978  19.484  35.385   0.793
67719W        W39979   2.470  21.134   2.626
67720W        W39980  23.815   6.355  11.637
67721W        W39981  30.420   0.084   3.189
67722W        W39982  17.775  44.362  10.606
67723W        W39983  32.263  41.586  12.930
67724W        W39984   4.382  12.258  14.982
67725W        W39985   9.848   7.683  11.767
67726W        W39986  34.890  11.841  13.743
67727W        W39987  41.257  36.101  11.027
67728W        W39988   5.496  32.506  12.124
67729W        W39989   5.464  17.341  11.033
67730W        W39990   4.822  44.956  14.348
67731W        W39991  23.686  31.521  13.841
67732W        W39992  43.977  10.248  13.769
67733W        W39993  43.889  43.383   0.033
67734W        W39994  27.116  32.982  13.133
67735W        W39995  25.630  30.695  14.923
67736W        W39996  21.003  28.014   4.858
67737W        W39997  20.544  21.296  13.273
67738W        W39998  34.195  44.942  12.430
67739W        W39999  24.655  23.522  13.307
67740W        W40000  12.718  27.680   1.689
67741W        W40001  29.902   4.172   3.126
67742W        W40002  27.006  38.800  12.908
67743W        W40003  21.072   7.355   1.960
67744W        W40004  33.059  11.230   0.843
67745W        W40005  15.742  18.983  11.041
67746W        W40006  38.054  23.132   1.978
67747W        W40007  13.998  38.381   0.232
67748W        W40008  33.174  16.583  11.525
67749W        W40009  26.572   0.833  12.875
67750W        W40010  18.072  11.351   4.034
67751W        W40011  39.040   7.679   1.170
67752W        W40012  23.693  10.150  11.091
67753W        W40013  39.432  26.902   3.115
67754W        W40014  15.389  10.644  13.415
67755W        W40015   8.928  13.865   0.358
67756W        W40016  39.347   2.381  14.204
67757W        W40017   0.354  44.810   1.674
67758W        W40018  42.998  12.186  14.866
67759W        W40019  44.472  13.701  13.284
67760W        W40020  34.060  29.024   0.918
67761W        W40021  38.890   4.966  13.984
67762W        W40022  23.258  17.543  13.175
67763W        W40023  16.226  33.457   1.831
67764W        W40024  16.948   2.791   4.397
67765W        W40025  24.169  29.692   3.884
67766W        W40026  26.703  12.597  11.947
67767W        W40027  12.647  23.717   3.531
67768W        W40028  40.951  16.254   1.488
67769W        W40029  27.986  28.987   1.692
67770W        W40030  11.630  16.613   1.770
67771W        W40031  36.839  42.870   4.558
67772W        W40032  12.178  38.883   3.708
67773W        W40033   4.176  40.919   0.761
67774W        W40034  38.411  29.053  14.300
67775W        W40035  39.147  24.159  13.454
67776W        W40036  37.778  32.125  12.894
67777W        W40037  38.584  18.595  11.463
67778W        W40038  26.623  43.680  13.934
67779W        W40039  20.464   4.692  11.621
67780W        W40040  44.826   8.950   5.018
67781W        W40041  31.166  26.659   5.001
67782W        W40042   3.941  38.347  11.527
67783W        W40043   2.939  29.518  12.850
67784W        W40044   8.326  16.120  14.715
67785W        W40045  34.075  42.771   3.639
67786W        W40046  44.251  34.569  10.771
67787W        W40047  19.009  41.998   0.819
67788W        W40048  16.190  15.699  11.251
67789W        W40049   8.882  10.034   0.238
67790W        W40050  43.487  34.967  10.628
67791W        W40051  10.601  16.326   0.415
67792W        W40052  38.340  43.337   4.551
67793W        W40053   7.122  33.447   1.507
67794W        W40054  33.868  29.000  14.813
67795W        W40055  30.398  38.827   1.739
67796W        W40056  20.509  22.242   3.220
67797W        W40057   4.144  17.993   3.262
67798W        W40058   4.428   8.423  11.133
67799W        W40059  44.524   2.787  10.691
67800W        W40060  27.538  25.475   1.794
67801W        W40061  24.479  31.319  12.084
67802W        W40062  25.013  23.940   3.640
67803W        W40063   2.320  39.478   1.765
67804W        W40064   7.406  39.559  12.471
67805W        W40065  20.754  27.718   1.148
67806W        W40066  26.182  20.548   3.591
67807W        W40067  19.014   9.056   1.851
67808W        W40068  30.945  29.947   1.944
67809W        W40069  42.508  12.291  10.724
67810W        W40070  13.323   6.941   0.217
67811W        W40071  43.197  30.508   5.202
67812W        W40072  33.508   6.650  10.500
67813W        W40073  15.171  19.152   0.546
67814W        W40074  40.298  28.726  10.613
67815W        W40075  27.919  40.065  11.515
67816W        W40076  38.631  33.189  13.333
67817W        W40077  41.057   1.822  12.048
67818W        W40078  43.295  33.903   0.438
67819W        W40079  25.013  10.239  14.069
67820W        W40080   0.371  39.922   4.436
67821W        W40081  34.386  10.348  13.774
67822W        W40082  10.778  16.982  14.763
67823W        W40083   8.193  19.984  13.801
67824W        W40084  33.484   4.855   0.458
67825W        W40085  39.272   0.416   3.582
67826W        W40086  37.552  31.713   2.363
67827W        W40087  12.642  36.557   0.789
67828W        W40088  16.054  34.185  13.944
67829W        W40089  12.181  42.208  14.712
67830W        W40090   8.775  39.290   2.303
67831W        W40091  12.871  15.676  12.946
67832W        W40092  22.208  43.350  13.199
67833W        W40093  29.658  10.541  13.419
67834W        W40094  33.283  44.760  14.919
67835W        W40095   4.446   5.375  13.752
67836W        W40096  12.592  16.039  10.678
67837W        W40097  36.171  28.627  10.882
67838W        W40098  22.794  27.034  14.279
67839W        W40099   3.921  22.541  11.279
67840W        W40100  25.197  40.601  12.482
67841W        W40101   8.654  16.871   0.283
67842W        W40102  10.201  22.530  10.417
67843W        W40103  28.534  21.330   4.546
67844W        W40104  27.922  18.464   2.675
67845W        W40105  41.935  32.160  11.621
67846W        W40106  29.490  27.474  12.128
67847W        W40107  28.522   4.727   4.553
67848W        W40108  15.215  28.865  10.377
67849W        W40109   1.424  14.091   3.632
67850W        W40110  29.587  20.510   3.083
67851W        W40111  17.140   8.889  11.972
67852W        W40112  40.284   4.711   3.220
67853W        W40113  13.668   7.990  12.432
67854W        W40114  34.528  19.799   3.117
67855W        W40115  44.243   4.623  10.671
67856W        W40116   5.442  34.406   4.676
67857W        W40117  21.801   2.583  11.936
67858W        W40118  11.866  38.303  14.893
67859W        W40119  38.034  25.314   0.043
67860W        W40120  20.563   5.205   3.329
67861W        W40121  19.709  37.817   0.738
67862W        W40122  21.220  24.400   0.813
67863W        W40123  24.863  18.855   0.004
67864W        W40124  16.133   3.371   4.128
67865W        W40125  23.304  34.586  14.228
67866W        W40126  41.194   7.871  11.165
67867W        W40127  25.691  31.046  11.661
67868W        W40128  27.818  34.637  14.486
67869W        W40129  43.227  31.023  10.805
67870W        W40130  41.945  17.998  13.308
67871W        W40131  41.815  28.712  12.216
67872W        W40132  27.177   8.261   1.885
67873W        W40133   1.365   6.188  13.488
67874W        W40134  23.234  26.454   2.874
67875W        W40135  26.345  23.063   2.688
67876W        W40136  19.645  40.290   1.031
67877W        W40137  10.509  28.266  13.007
67878W        W40138   2.863  31.446   3.346
67879W        W40139  34.400  23.514  13.546
67880W        W40140  26.203  12.823  11.651
67881W        W40141  22.466  31.046   2.959
67882W        W40142   1.698  22.666   0.053
67883W        W40143  34.865  22.537   2.036
67884W        W40144  27.182   3.997  14.946
67885W        W40145  43.343   9.196   0.975
67886W        W40146  42.799   2.740   0.807
67887W        W40147  25.872  41.876  10.760
67888W        W40148  36.602  28.874   3.209
67889W        W40149  39.543  17.794  10.700
67890W        W40150  40.116  29.270  11.161
67891W        W40151  18.190  44.851   1.965
67892W        W40152  43.827  13.897   3.887
67893W        W40153  44.287  13.102  12.878
67894W        W40154  30.110  24.471   1.871
67895W        W40155  36.456  27.964  13.950
67896W        W40156  33.487  42.200  12.146
67897W        W40157  37.662   5.238   1.705
67898W        W40158  23.008  10.720  14.834
67899W        W40159  39.945  33.125  12.976
67900W        W40160  42.855  43.728   2.118
67901W        W40161  17.183  40.182  14.249
67902W        W40162  16.613   8.289   0.417
67903W        W40163   6.938  37.489   1.246
67904W        W40164   1.149  37.720   4.054
67905W        W40165  23.729  37.016  12.015
67906W        W40166   2.562   7.164  14.464
67907W        W40167  34.829   1.894   4.609
67908W        W40168  19.376  40.937   1.363
67909W        W40169   9.190   8.136   1.198
67910W        W40170  19.526   2.912   0.773
67911W        W40171  24.305   3.667  13.047
67912W        W40172  13.413  12.556   3.107
67913W        W40173   8.087   4.249   1.710
67914W        W40174  15.325  13.753   0.887
67915W        W40175  40.700  44.006  13.545
67916W        W40176  26.737  10.146  12.647
67917W        W40177  29.106  18.813   2.210
67918W        W40178  33.911  32.637  11.558
67919W        W40179  15.579   7.532   3.755
67920W        W40180   4.583  37.524  13.439
67921W        W40181  31.677  17.633  13.379
67922W        W40182  21.334  11.145   3.670
67923W        W40183  14.261   6.246  11.593
67924W        W40184  38.310   8.177   2.930
67925W        W40185  24.162  20.969  12.013
67926W        W40186  31.446  11.899  13.343
67927W        W40187  27.103  16.074  11.118
67928W        W40188   3.481  34.376  12.764
67929W        W40189  31.179  10.527  14.320
67930W        W40190  28.917  23.719   3.637
67931W        W40191  32.973  10.172   3.478
67932W        W40192  26.223  17.718  14.088
67933W        W40193  21.733   8.903  11.197
67934W        W40194  40.417  43.723   0.759
67935W        W40195   1.049  36.839  13.971
67936W        W40196   0.522  29.642  11.099
67937W        W40197  16.788  18.690  12.118
67938W        W40198  20.128  43.081   0.710
67939W        W40199   0.982   6.803  13.610
67940W        W40200  20.661  24.592  11.570
67941W        W40201   6.264  39.912  12.276
67942W        W40202  14.301  21.795   1.937
67943W        W40203   9.153  39.099  13.894
67944W        W40204   9.715   3.277   4.324
67945W        W40205  33.007   8.788   2.689
67946W        W40206  42.308  13.655  10.467
67947W        W40207   0.445  20.633  12.916
67948W        W40208  10.445  31.350   2.692
67949W        W40209   6.235  36.088  11.170
67950W        W40210   5.626  17.698   1.829
67951W        W40211  36.173   5.619   2.258
67952W        W40212   2.255  10.323  11.500
67953W        W40213   4.119   8.442   4.172
67954W        W40214   0.959   3.155  11.569
67955W        W40215  13.892  11.645   1.800
67956W        W40216  19.247   8.556   3.774
67957W        W40217  31.481  41.511  12.429
67958W        W40218   9.510  11.318  14.714
67959W        W40219  12.154  14.250   3.083
67960W        W40220  15.857  22.040  14.274
67961W        W40221   3.535   3.161  12.462
67962W        W40222   4.453  21.455  12.888
67963W        W40223  28.708  35.169   4.140
67964W        W40224  12.578  36.081  13.048
67965W        W40225  12.415   8.691  13.300
67966W        W40226  28.897  32.136  12.923
67967W        W40227  29.451  37.751   3.089
67968W        W40228  25.080  11.622  14.794
67969W        W40229  27.736  14.770   1.386
67970W        W40230  36.656  21.462   1.956
67971W        W40231  28.110  25.218  13.023
67972W        W40232  20.257  13.797   0.040
67973W        W40233   3.499  22.591   0.414
67974W        W40234  25.114  18.013   3.723
67975W        W40235  27.660  17.083   3.619
67976W        W40236   8.071   4.744   4.721
67977W        W40237  24.489   7.395  13.600
67978W        W40238  15.323  28.351  10.239
67979W        W40239  42.373  32.400   4.034
67980W        W40240  16.734  27.901  11.513
67981W        W40241  38.425  31.682   5.126
67982W        W40242   9.282   6.468   0.416
67983W        W40243  23.596  26.152   1.778
67984W        W40244  33.920   7.374   1.557
67985W        W40245  17.300  20.599  10.631
67986W        W40246  42.231  42.345  13.087
67987W        W40247  39.523  10.280  12.533
67988W        W40248  36.412  44.690   0.451
67989W        W40249  40.835  29.043   4.242
67990W        W40250  41.229  41.857   3.654
67991W        W40251  22.626  31.874   2.719
67992W        W40252  39.402  36.508   4.521
67993W        W40253  29.077  30.006   1.339
67994W        W40254  28.915  19.122  12.576
67995W        W40255  18.072   5.833  11.096
67996W        W40256  14.217   0.577  11.197
67997W        W40257  28.221  24.550   2.417
67998W        W40258  30.756   5.514  14.756
67999W        W40259  26.042  11.807   1.258
68000W        W40260   5.116  19.766   2.638
68001W        W40261  33.315  33.466  14.923
68002W        W40262  33.210   3.463  11.988
68003W        W40263  36.080   2.003   3.296
68004W        W40264  28.371   8.646  12.019
68005W        W40265  39.815  20.245  11.913
68006W        W40266  33.463   5.218   0.839
68007W        W40267   4.009  23.561   4.283
68008W        W40268  17.144  44.741   3.073
68009W        W40269  39.051  41.231   1.392
68010W        W40270  21.613  18.639   1.267
68011W        W40271  28.500  38.354   3.710
68012W        W40272  10.570   6.676  10.556
68013W        W40273  16.253  20.591   4.632
68014W        W40274   5.629  23.765   4.635
68015W        W40275  34.363  15.622  10.432
68016W        W40276  34.154  26.222  11.066
68017W        W40277  44.223   3.875   0.567
68018W        W40278  29.708  31.780   4.551
68019W        W40279   0.843   5.462  13.302
68020W        W40280  28.556   2.388   0.061
68021W        W40281  27.564   8.393  14.880
68022W        W40282  31.717  42.737  13.847
68023W        W40283  19.712  23.060  12.877
68024W        W40284  39.171   7.882   0.287
68025W        W40285   0.707  23.095  12.816
68026W        W40286   7.846  14.464  13.077
68027W        W40287  13.558  30.208   5.056
68028W        W40288  40.508  26.982  11.969
68029W        W40289  41.386  21.472  13.854
68030W        W40290  18.624   9.466   0.986
68031W        W40291   0.262  15.261  14.890
68032W        W40292  13.845  39.722  12.442
68033W        W40293   4.451  13.181  14.026
68034W        W40294  29.944   8.433  12.583
68035W        W40295  16.881  38.281  14.463
68036W        W40296  26.282  32.733  14.367
68037W        W40297  28.653  23.992  11.054
68038W        W40298   5.432  10.079   2.768
68039W        W40299  26.987  17.114   2.905
68040W        W40300  13.248   2.413   3.842
68041W        W40301  42.511  14.849  10.558
68042W        W40302  38.552   0.774   2.676
68043W        W40303  40.898  16.272   2.011
68044W        W40304  32.092  31.698   5.132
68045W        W40305  37.344  42.395  10.808
68046W        W40306  16.075  32.843  14.832
68047W        W40307  34.632  43.732   4.241
68048W        W40308   0.955  39.792  12.659
68049W        W40309  30.473  30.996   3.252
68050W        W40310  24.118   0.360  11.723
68051W        W40311  37.002   2.242  12.549
68052W        W40312  38.813  26.635  10.689
68053W        W40313  23.755   6.636  11.147
68054W        W40314  20.769  38.575  13.963
68055W        W40315  41.453  34.481  11.286
68056W        W40316  22.237  16.292   4.658
68057W        W40317  27.365  26.231  11.373
68058W        W40318  39.398   3.882   2.614
68059W        W40319  16.497   6.266  14.922
68060W        W40320  31.544  19.714   4.187
68061W        W40321  30.578  24.518   2.695
68062W        W40322  15.112   5.389   3.331
68063W        W40323  32.488  25.021   4.935
68064W        W40324  36.089  18.853  10.081
68065W        W40325   9.128   2.798  13.258
68066W        W40326   0.792   0.026   4.238
68067W        W40327  11.525   5.345  10.725
68068W        W40328   9.855  30.081  11.264
68069W        W40329  13.669  21.533   4.646
68070W        W40330  41.326  37.958  13.552
68071W        W40331  10.208   7.061  10.091
68072W        W40332   4.198  43.975  11.012
68073W        W40333  13.356  40.403  14.469
68074W        W40334  43.472  43.754  13.458
68075W        W40335   4.747   4.790   0.403
68076W        W40336  28.597  33.354  14.069
68077W        W40337  14.592  18.338   3.169
68078W        W40338  37.552  24.532  14.919
68079W        W40339  24.231  44.573   3.799
68080W        W40340  35.831  15.213   4.252
68081W        W40341  21.354  26.965   0.843
68082W        W40342  38.428  29.178   3.341
68083W        W40343   2.820  35.512  10.666
68084W        W40344  21.681  36.469  10.718
68085W        W40345  19.217  33.096   1.238
68086W        W40346   4.703  23.955  10.649
68087W        W40347   8.348   5.428   1.613
68088W        W40348  30.607  11.866  10.973
68089W        W40349  14.113  11.608   3.605
68090W        W40350  13.383   7.879  12.868
68091W        W40351  29.188  44.537  11.548
68092W        W40352  22.684  33.416  14.702
68093W        W40353  31.902  40.362   3.206
68094W        W40354  20.319  29.547  10.727
68095W        W40355   9.187  25.676   0.753
68096W        W40356  27.212   5.907   4.526
68097W        W40357  24.527  29.194   2.789
68098W        W40358  24.555  32.400  13.979
68099W        W40359   8.846  37.633  14.172
68100W        W40360  28.573  32.482  10.650
68101W        W40361  43.910  27.723   4.083
68102W        W40362  22.501  19.060   1.850
68103W        W40363   1.806   2.337  13.622
68104W        W40364  27.417  14.585  14.461
68105W        W40365   0.462  14.349  13.799
68106W        W40366  23.148  17.763  10.367
68107W        W40367  35.132   7.210   4.168
68108W        W40368  30.090  15.354  13.122
68109W        W40369  40.047  43.307   4.877
68110W        W40370  19.811  32.348  12.043
68111W        W40371  39.485   9.289  11.459
68112W        W40372  33.328  30.453   2.166
68113W        W40373  34.106   0.908   3.678
68114W        W40374  33.379  41.369  11.696
68115W        W40375  43.212  12.876  12.399
68116W        W40376  12.817  20.658   2.572
68117W        W40377  37.209  10.185   5.083
68118W        W40378  42.800  36.325  14.368
68119W        W40379  27.725   1.463   3.865
68120W        W40380  39.329  40.670   3.109
68121W        W40381   3.385  36.181  14.051
68122W        W40382  23.424  13.780  14.382
68123W        W40383   4.209  20.000   4.130
68124W        W40384  35.669   5.816   2.367
68125W        W40385  31.489  20.586  11.001
68126W        W40386  19.128  37.054   4.244
68127W        W40387   9.349  15.518  12.525
68128W        W40388  13.628  31.091  14.451
68129W        W40389  34.447  20.117  13.507
68130W        W40390   1.813  11.139   1.427
68131W        W40391   8.944   8.828   2.346
68132W        W40392   5.289  44.716  14.262
68133W        W40393  11.641  44.978  14.186
68134W        W40394  19.546  19.577   2.308
68135W        W40395  26.895  22.914   9.926
68136W        W40396  30.240  25.533  14.993
68137W        W40397  36.692  39.789   3.641
68138W        W40398  42.871  17.139  13.167
68139W        W40399  19.626  12.687   3.429
68140W        W40400  31.555  30.330  14.527
68141W        W40401  41.575   0.208  13.527
68142W        W40402  14.748   0.515  11.228
68143W        W40403  11.295  40.891   3.208
68144W        W40404   1.934  33.373   3.854
68145W        W40405  19.228   8.234  11.593
68146W        W40406  31.591  44.183  12.049
68147W        W40407   3.238  39.842   0.482
68148W        W40408   3.873   0.936   4.916
68149W        W40409  37.580  33.245   2.254
68150W        W40410   4.766   9.840  13.798
68151W        W40411  42.506  20.073   3.832
68152W        W40412  42.787  14.773  14.877
68153W        W40413  34.318  33.468   3.329
68154W        W40414   1.217  34.011  11.603
68155W        W40415  40.108  10.360   3.255
68156W        W40416  19.696  27.193  11.368
68157W        W40417  14.666  43.037  13.350
68158W        W40418  42.007  30.855  14.001
68159W        W40419  34.402  18.032   1.616
68160W        W40420   5.973  20.959   3.395
68161W        W40421  23.289  44.327  10.972
68162W        W40422  35.394  20.229   1.871
68163W        W40423  13.034   5.334   3.069
68164W        W40424   1.741  37.894   4.614
68165W        W40425  31.536  37.827  13.409
68166W        W40426  12.801   8.254   3.243
68167W        W40427   9.240  36.038   3.687
68168W        W40428  38.866  35.556   4.215
68169W        W40429   0.912  24.482   1.191
68170W        W40430  19.206  15.628   0.454
68171W        W40431  36.561  34.415   1.907
68172W        W40432  16.539  41.547   1.901
68173W        W40433  23.199  13.549  12.470
68174W        W40434  44.937  32.333   1.637
68175W        W40435   5.363   5.059   2.631
68176W        W40436  38.913   1.387  14.248
68177W        W40437   5.895  17.586  11.166
68178W        W40438  20.030  18.856  11.550
68179W        W40439   2.483  15.873   2.916
68180W        W40440  13.855  20.090   2.303
68181W        W40441  36.981   8.692  11.159
68182W        W40442  24.201  28.914   1.486
68183W        W40443  38.871  35.654  13.317
68184W        W40444   7.713   5.392  12.180
68185W        W40445   0.484  27.550   0.033
68186W        W40446  16.788  31.822   1.476
68187W        W40447   1.315  37.805   3.566
68188W        W40448  43.757  38.957  13.842
68189W        W40449  31.700   6.980  14.347
68190W        W40450  44.068  25.342   3.232
68191W        W40451   5.797  18.570   1.870
68192W        W40452  39.217  42.621  11.019
68193W        W40453  15.817  22.261  11.488
68194W        W40454  13.533  35.891   4.887
68195W        W40455  36.161  30.003  14.355
68196W        W40456  18.567  20.994   3.326
68197W        W40457   6.966  19.803  11.981
68198W        W40458  29.743  25.932   4.051
68199W        W40459  16.258  10.563  11.978
68200W        W40460   4.118  16.976  11.561
68201W        W40461  34.231  25.415  11.130
68202W        W40462   8.267  28.629   0.358
68203W        W40463   6.724  37.662   2.520
68204W        W40464  30.701  12.626   0.756
68205W        W40465  41.679   0.947   0.379
68206W        W40466  33.902  20.690  12.026
68207W        W40467  31.507  22.142  13.183
68208W        W40468   3.158  37.544  11.933
68209W        W40469  14.283  18.870  10.297
68210W        W40470  41.656   7.466  13.920
68211W        W40471   4.178  25.818   3.704
68212W        W40472  18.805  23.598  10.725
68213W        W40473  35.155  16.677   3.636
68214W        W40474  36.434  21.657   0.888
68215W        W40475   7.741  40.409  12.216
68216W        W40476  29.092  16.119   1.792
68217W        W40477   7.101  13.828  11.491
68218W        W40478   9.624   9.866   0.987
68219W        W40479   6.582   0.121  13.042
68220W        W40480  25.746  43.418  10.367
68221W        W40481  17.780  35.894  10.644
68222W        W40482  25.466  34.615  10.204
68223W        W40483  17.821  25.089  14.021
68224W        W40484  35.163   3.031  12.470
68225W        W40485  18.748  24.225  13.266
68226W        W40486  42.555  12.585  11.552
68227W        W40487  32.149  11.112   0.809
68228W        W40488   5.710  23.242   1.342
68229W        W40489  12.159   9.806   0.939
68230W        W40490  23.280  35.448   1.694
68231W        W40491  30.376  13.388  13.696
68232W        W40492   3.389  33.354  14.937
68233W        W40493  11.102  22.153   0.271
68234W        W40494  21.171  22.962  11.980
68235W        W40495  13.619   8.241   4.707
68236W        W40496  17.153  21.272  11.396
68237W        W40497  22.307  41.821  12.488
68238W        W40498  38.873  31.524   0.692
68239W        W40499  11.735  11.065   3.802
68240W        W40500  14.657  18.547   1.342
68241W        W40501  27.985  35.860  11.960
68242W        W40502   0.956   7.637   1.814
68243W        W40503  39.973  15.187   3.470
68244W        W40504   2.965  20.709   0.831
68245W        W40505   6.402  28.354  11.964
68246W        W40506   3.838   6.358   0.820
68247W        W40507  32.164   1.009  10.417
68248W        W40508  26.984   4.877   1.728
68249W        W40509  10.430   1.922  11.096
68250W        W40510  17.329  18.602  10.381
68251W        W40511  17.202  32.292  11.547
68252W        W40512   3.709  14.796  11.598
68253W        W40513  44.950  15.359  12.953
68254W        W40514  24.452  17.107  11.889
68255W        W40515   1.442  35.098  14.865
68256W        W40516  44.627  15.763  12.836
68257W        W40517   8.213  26.665   2.472
68258W        W40518  29.872  18.742   3.723
68259W        W40519  38.847  12.819  14.440
68260W        W40520   1.375  17.990  12.093
68261W        W40521   9.713  10.355   3.025
68262W        W40522   3.845   4.767  11.200
68263W        W40523  41.362  28.129  11.476
68264W        W40524  44.763  39.808   3.722
68265W        W40525  14.776  44.935   3.612
68266W        W40526  25.093   4.760   3.167
68267W        W40527   2.806  31.695  14.947
68268W        W40528  22.723  20.230  10.364
68269W        W40529   3.809  30.900   2.339
68270W        W40530  36.006  31.685   4.719
68271W        W40531  36.470   1.404  14.964
68272W        W40532  41.441  23.072   4.755
68273W        W40533   2.027  14.584  12.515
68274W        W40534   7.361  20.685  14.961
68275W        W40535  38.089  42.769  14.969
68276W        W40536  31.016   6.128   0.442
68277W        W40537  30.427  27.543  13.927
68278W        W40538  42.758  22.354   3.944
68279W        W40539   4.421  15.260   1.368
68280W        W40540  35.869  35.444  10.767
68281W        W40541   3.726  35.621   2.724
68282W        W40542  43.289   4.710   0.817
68283W        W40543  22.945   4.769  10.609
68284W        W40544  13.225  25.044  10.796
68285W        W40545  40.952  14.276  12.414
68286W        W40546  28.511  34.350  13.932
68287W        W40547  19.597  37.925  14.220
68288W        W40548  21.281  25.030  14.756
68289W        W40549  37.503   5.869   4.638
68290W        W40550  21.760  15.756   2.251
68291W        W40551  20.965  42.411   0.776
68292W        W40552  38.863  27.165  10.671
68293W        W40553   3.950   9.594  13.484
68294W        W40554  36.876  11.811   2.217
68295W        W40555  36.109  23.912  14.418
68296W        W40556  27.463  34.896   0.427
68297W        W40557  25.739  27.067  12.116
68298W        W40558  18.061  30.139  11.084
68299W        W40559  29.679  38.236   3.172
68300W        W40560   6.123  10.753  12.426
68301W        W40561   6.654  30.001   1.825
68302W        W40562  29.212  21.054  13.879
68303W        W40563  30.575  30.415   2.193
68304W        W40564  20.538   8.845  10.657
68305W        W40565  35.642  10.155  13.631
68306W        W40566  29.372   9.239  13.058
68307W        W40567  10.165  30.996   4.583
68308W        W40568  12.756  27.920   4.803
68309W        W40569  13.272  44.393   2.844
68310W        W40570  27.122   3.688  12.669
68311W        W40571  11.007  21.164  12.788
68312W        W40572  21.343   9.592   1.758
68313W        W40573   5.763  28.184  14.879
68314W        W40574  32.388  18.616  10.679
68315W        W40575  39.854  32.102   0.448
68316W        W40576  31.516  18.343  13.995
68317W        W40577  39.031  40.666   2.256
68318W        W40578   7.320   0.212   4.391
68319W        W40579  37.027  26.939   0.397
68320W        W40580  43.373  44.943   0.083
68321W        W40581  22.166  12.307   0.731
68322W        W40582   2.928   2.663  12.580
68323W        W40583  30.851  28.573   0.268
68324W        W40584  32.712   3.532  12.094
68325W        W40585  21.146  41.420  11.143
68326W        W40586  40.104   4.260   4.368
68327W        W40587   3.665  11.123   2.546
68328W        W40588   4.603  37.226  14.474
68329W        W40589  41.404   9.414  10.755
68330W        W40590  36.919  36.472  10.456
68331W        W40591  15.935   2.828  11.670
68332W        W40592  30.826  35.628   3.268
68333W        W40593  16.664  16.200  14.361
68334W        W40594  42.413  27.518  10.780
68335W        W40595  40.760  10.176  13.859
68336W        W40596  22.713  44.218   3.662
68337W        W40597   4.242  39.440   3.214
68338W        W40598  43.262  11.226  13.894
68339W        W40599  20.961  18.277  12.374
68340W        W40600   7.135   7.711  12.404
68341W        W40601  32.304  38.598   0.265
68342W        W40602  17.484  11.711  11.900
68343W        W40603   3.225  23.644   1.800
68344W        W40604  34.974  17.642  11.261
68345W        W40605  34.999  31.707  12.116
68346W        W40606   7.722   9.216   2.296
68347W        W40607  28.501  18.045   4.673
68348W        W40608  42.330  11.714   3.972
68349W        W40609  21.032  22.923   1.096
68350W        W40610  41.590  37.692   2.206
68351W        W40611   5.616  24.543  12.078
68352W        W40612  25.610  41.096  14.566
68353W        W40613  17.697   8.376   4.232
68354W        W40614  27.462  17.093   4.432
68355W        W40615  38.938  16.502  13.061
68356W        W40616  42.015   1.920   4.822
68357W        W40617  30.621  18.665  14.365
68358W        W40618  29.961  30.151  13.028
68359W        W40619  42.912  18.436  10.391
68360W        W40620  20.098  22.545  12.063
68361W        W40621   0.038  12.160   3.573
68362W        W40622  37.349  38.415   1.898
68363W        W40623  12.851  15.558   2.626
68364W        W40624  31.998  15.658   4.995
68365W        W40625  22.689  27.448   5.054
68366W        W40626  10.359   5.772   1.011
68367W        W40627  22.869  14.820   2.264
68368W        W40628  38.024  10.163   3.308
68369W        W40629  35.102   7.764   1.474
68370W        W40630  40.720   7.790  14.189
68371W        W40631  30.140   8.122  13.974
68372W        W40632  14.647  38.500  14.883
68373W        W40633  24.056  22.942   3.233
68374W        W40634  18.741   2.455   2.696
68375W        W40635  39.135   2.531  13.431
68376W        W40636  20.322  20.150  10.687
68377W        W40637  26.490   2.868  13.364
68378W        W40638  28.643   4.683   0.294
68379W        W40639   0.393   9.963   0.924
68380W        W40640  17.260  22.540   0.259
68381W        W40641  30.523  10.929   0.220
68382W        W40642  19.318  42.233  13.458
68383W        W40643  40.415  16.787   4.266
68384W        W40644  13.326   0.438   4.126
68385W        W40645   2.493  11.713   3.236
68386W        W40646  34.243  19.343  13.138
68387W        W40647  31.038  14.754  10.661
68388W        W40648  11.397  23.088  14.154
68389W        W40649  31.035  17.111   2.902
68390W        W40650  14.943  42.815   5.034
68391W        W40651  19.588  39.821  14.166
68392W        W40652   3.988  12.654  12.851
68393W        W40653   5.309  30.115   1.930
68394W        W40654  19.304  36.223  13.825
68395W        W40655   3.702  25.594   4.897
68396W        W40656  36.850  44.450   4.225
68397W        W40657   8.629  23.409  12.229
68398W        W40658  35.260  36.042   1.305
68399W        W40659   1.982   8.865  12.143
68400W        W40660  18.705  38.830  13.933
68401W        W40661   6.931   7.430   2.194
68402W        W40662  36.410  34.224  14.963
68403W        W40663  41.974   2.740  14.576
68404W        W40664   3.418  39.513   2.741
68405W        W40665  20.390   1.275   3.221
68406W        W40666   5.727  22.202  10.531
68407W        W40667  14.197  30.027  11.935
68408W        W40668   9.095  12.760   2.853
68409W        W40669  18.509  10.698   4.561
68410W        W40670   1.642  18.714  12.043
68411W        W40671   9.924  44.592   2.881
68412W        W40672   4.934   8.246  14.879
68413W        W40673  11.711  16.930  11.496
68414W        W40674  27.816   1.184  10.328
68415W        W40675  36.819  10.197   1.845
68416W        W40676  25.108  33.660   4.931
68417W        W40677  19.467   8.062   0.200
68418W        W40678   3.435  44.030   1.593
68419W        W40679  12.128   3.364   0.440
68420W        W40680  20.441  32.117  12.484
68421W        W40681   9.924   9.309   3.200
68422W        W40682  29.184  37.071  14.938
68423W        W40683  10.185   9.875  11.619
68424W        W40684  17.175   8.703  14.785
68425W        W40685  14.622  28.019  11.890
68426W        W40686  41.572  25.104   1.803
68427W        W40687  21.730  17.249  13.029
68428W        W40688  17.362  20.274  11.612
68429W        W40689  28.554  15.614   1.193
68430W        W40690  16.311  22.025  13.322
68431W        W40691  10.138   1.829  13.012
68432W        W40692  13.197  20.788  11.962
68433W        W40693  27.915  18.934  11.940
68434W        W40694  28.888  18.185  13.357
68435W        W40695  23.978   7.987   4.747
68436W        W40696  27.376  44.925  12.574
68437W        W40697  40.876  38.328   0.881
68438W        W40698  41.351  30.886   2.657
68439W        W40699  43.548  44.821  11.950
68440W        W40700  31.175  43.242  12.099
68441W        W40701  27.959  38.921   0.061
68442W        W40702  40.670  20.623   3.279
68443W        W40703   4.763   2.710   4.843
68444W        W40704  25.475  22.540  11.473
68445W        W40705   7.399  15.314   1.357
68446W        W40706  22.761  39.469   1.221
68447W        W40707   1.418  40.442   1.263
68448W        W40708  11.190  30.996   0.731
68449W        W40709  31.114  25.451  11.610
68450W        W40710  41.486  30.111   4.618
68451W        W40711   6.722  24.467  12.907
68452W        W40712   0.905  31.121  11.901
68453W        W40713   3.553  23.187   3.076
68454W        W40714  23.028   7.285  11.870
68455W        W40715  34.666  30.126   3.624
68456W        W40716  24.922  37.112  13.896
68457W        W40717  25.070  27.897   0.744
68458W        W40718   9.812   6.173  12.496
68459W        W40719  34.482  41.879   4.147
68460W        W40720  32.658  18.463   3.401
68461W        W40721   9.403   7.816  11.996
68462W        W40722  31.935  35.889   1.990
68463W        W40723  28.481  25.575  13.303
68464W        W40724  20.994  10.648   2.849
68465W        W40725  40.422  20.073  13.456
68466W        W40726  19.778  14.044  14.476
68467W        W40727  18.181   2.726   4.042
68468W        W40728  11.157  40.968  12.050
68469W        W40729   1.226   8.724  13.349
68470W        W40730   3.336  28.573  13.499
68471W        W40731   8.443  39.439  11.639
68472W        W40732  22.817  30.828   2.569
68473W        W40733  20.653  26.212  14.887
68474W        W40734  23.186  40.047   3.353
68475W        W40735  17.229  44.887   1.583
68476W        W40736  30.994   4.982  12.409
68477W        W40737   9.144  34.772   3.287
68478W        W40738   7.000  23.832  14.121
68479W        W40739   7.893  21.643  12.632
68480W        W40740  27.550   8.716   1.983
68481W        W40741  21.542  20.664   1.909
68482W        W40742  31.434  33.475  13.763
68483W        W40743  32.086   5.332  13.210
68484W        W40744  38.893   7.444   0.264
68485W        W40745   3.485  26.429   0.762
68486W        W40746  34.392  44.227  11.982
68487W        W40747  33.875   4.327  10.989
68488W        W40748   2.839  13.204  14.761
68489W        W40749   4.756  15.133  14.998
68490W        W40750  28.556  10.219  12.986
68491W        W40751  30.049  36.421   1.004
68492W        W40752   8.799   7.280  14.847
68493W        W40753  20.202  10.585  14.445
68494W        W40754   6.393   8.898  11.961
68495W        W40755  29.902  43.111  14.953
68496W        W40756  14.770  31.589   5.090
68497W        W40757  29.220  33.281   4.631
68498W        W40758  39.774  25.147   4.917
68499W        W40759  39.436  27.506  12.426
68500W        W40760  12.097  22.833   1.692
68501W        W40761  15.046  11.182  10.728
68502W        W40762  21.214  31.093   4.538
68503W        W40763  42.837  14.196  11.282
68504W        W40764  44.369   7.005  13.116
68505W        W40765  41.992  29.411  14.204
68506W        W40766  18.963  35.385   0.746
68507W        W40767   9.616   1.747  12.988
68508W        W40768  15.051  24.029  12.043
68509W        W40769  38.927  43.932   0.952
68510W        W40770  17.769  40.095  13.189
68511W        W40771  26.569  18.275  12.875
68512W        W40772   6.272  27.141   3.110
68513W        W40773  37.862  20.757  13.595
68514W        W40774  27.224  40.319  10.137
68515W        W40775  17.744  10.656  13.562
68516W        W40776  24.134  23.724  12.065
68517W        W40777  22.343  31.029   2.460
68518W        W40778  13.584  28.558   0.945
68519W        W40779  39.495  27.478  14.315
68520W        W40780   0.291  40.873   4.386
68521W        W40781  41.268  27.888   3.895
68522W        W40782  28.052   4.559   3.634
68523W        W40783   1.859  37.802   0.264
68524W        W40784  20.547  32.487   0.018
68525W        W40785  20.552  41.052  10.920
68526W        W40786   7.237  23.696   4.413
68527W        W40787  30.327  10.403   4.342
68528W        W40788  42.414   7.270  12.673
68529W        W40789  35.220  39.236  11.880
68530W        W40790  33.430  34.118  13.941
68531W        W40791  14.268  26.590   3.051
68532W        W40792  18.265  27.505  14.763
68533W        W40793   1.730  25.804  14.845
68534W        W40794  22.279  32.915  13.876
68535W        W40795   4.367  11.231   3.965
68536W        W40796   4.464  32.927   0.065
68537W        W40797   8.375  14.635  13.307
68538W        W40798  36.401  14.264   0.465
68539W        W40799  30.896  41.434  14.059
68540W        W40800  34.547  27.782  12.568
68541W        W40801   6.959  35.477  11.640
68542W        W40802  18.227  36.281   3.256
68543W        W40803  39.979  14.740  10.668
68544W        W40804   1.948   8.282   2.895
68545W        W40805  30.082  37.086  14.532
68546W        W40806  23.713   3.294  10.923
68547W        W40807  22.178  17.417   2.515
68548W        W40808  19.508  11.281  14.475
68549W        W40809  21.494  32.450   3.649
68550W        W40810   4.996  31.586   4.647
68551W        W40811  32.358  33.845  14.810
68552W        W40812  21.194  32.089  13.005
68553W        W40813  34.090  18.742   2.541
68554W        W40814   5.728  22.261   1.319
68555W        W40815  18.820  16.196  10.776
68556W        W40816  32.022  34.684  14.500
68557W        W40817   4.836  11.340   9.897
68558W        W40818  13.136  26.751  13.972
68559W        W40819  14.165   1.232  12.931
68560W        W40820  40.209  11.885  14.694
68561W        W40821  24.292  27.806   2.657
68562W        W40822  17.912  44.762   0.032
68563W        W40823  39.334  36.967   1.189
68564W        W40824  22.686  36.871   4.601
68565W        W40825  37.619  14.010  10.306
68566W        W40826  24.738  38.927  14.359
68567W        W40827  17.240   3.938   0.301
68568W        W40828   9.081   6.672  10.524
68569W        W40829   7.157   5.308   2.720
68570W        W40830  20.014   0.449   3.501
68571W        W40831  41.069   6.863  12.903
68572W        W40832  19.306  43.443   4.230
68573W        W40833  16.990  44.793  12.090
68574W        W40834  13.094  30.494   9.898
68575W        W40835   5.343   6.935   0.807
68576W        W40836  42.044  41.466   1.931
68577W        W40837  40.496   3.891   2.641
68578W        W40838  27.457  12.755   1.776
68579W        W40839  41.047   1.056  11.499
68580W        W40840  11.650  37.641   0.824
68581W        W40841   1.570  19.898  12.816
68582W        W40842  11.626  16.527  13.411
68583W        W40843  11.678   0.951  13.449
68584W        W40844  41.003  19.166  14.820
68585W        W40845   6.199  10.853  13.939
68586W        W40846  41.507   2.809   4.596
68587W        W40847  19.586   5.314   0.519
68588W        W40848  30.926   6.199   2.265
68589W        W40849   7.384  29.858  14.833
68590W        W40850  14.831  30.760  11.311
68591W        W40851  17.173  27.513  12.689
68592W        W40852   9.216  27.191   4.339
68593W        W40853  26.033  31.480  12.605
68594W        W40854  23.340  32.296   3.268
68595W        W40855  23.868  38.327   1.734
68596W        W40856  41.474  17.630  12.736
68597W        W40857  32.146  17.276   1.946
68598W        W40858  30.094  15.234   4.862
68599W        W40859  38.508  20.143   5.003
68600W        W40860   6.948  24.163   4.420
68601W        W40861  28.579  16.133   3.137
68602W        W40862  21.668  18.109  12.080
68603W        W40863  38.882  33.513   1.204
68604W        W40864   1.008   0.780  14.682
68605W        W40865   3.189   3.414  11.168
68606W        W40866  25.164  41.130  12.378
68607W        W40867  28.164  20.223   3.146
68608W        W40868   8.389   2.660  11.636
68609W        W40869  19.229  24.097   2.203
68610W        W40870   3.930  22.713  12.889
68611W        W40871  35.168  36.072   2.795
68612W        W40872  35.194  31.990   0.015
68613W        W40873  39.374  15.882  12.118
68614W        W40874  24.496  26.371   1.743
68615W        W40875  35.045   6.247  14.807
68616W        W40876  22.121  20.463  14.423
68617W        W40877  34.549   4.471  14.932
68618W        W40878  12.189   8.944  11.034
68619W        W40879   8.835  17.230  11.458
68620W        W40880   5.228  25.512   1.448
68621W        W40881  31.505  25.469   0.880
68622W        W40882  26.554  25.647   1.586
68623W        W40883  39.392   0.582   3.100
68624W        W40884  35.407  29.683   3.236
68625W        W40885  14.124  12.351   2.211
68626W        W40886  13.189  44.947  11.618
68627W        W40887  23.228  42.034   0.752
68628W        W40888  10.344  18.614  11.069
68629W        W40889  35.456   0.075   0.882
68630W        W40890  41.949  24.476   4.115
68631W        W40891   9.203  38.570  13.887
68632W        W40892   4.419  33.964  13.262
68633W        W40893   6.373  10.082  13.490
68634W        W40894   9.826  32.571  11.655
68635W        W40895  44.455   3.887   4.686
68636W        W40896  23.088  36.809  11.124
68637W        W40897  28.726  37.031  12.674
68638W        W40898  27.134  31.524   1.621
68639W        W40899  40.548  26.389   3.138
68640W        W40900  12.892  43.510   2.342
68641W        W40901  32.325  39.949  10.257
68642W        W40902  20.746  11.798  12.328
68643W        W40903  27.776  16.775  11.187
68644W        W40904  31.082  32.042   2.379
68645W        W40905   9.704   8.636  14.369
68646W        W40906  18.348   6.871   4.751
68647W        W40907  31.955   5.351   3.057
68648W        W40908  33.082  26.910  13.438
68649W        W40909   4.530  33.947  13.841
68650W        W40910  43.872  13.778   4.843
68651W        W40911  33.043  40.502   1.072
68652W        W40912  13.393  11.777   4.221
68653W        W40913  37.936  35.362   1.917
68654W        W40914  16.089   0.768  11.090
68655W        W40915  39.516  39.883   2.505
68656W        W40916  31.970  29.927  14.346
68657W        W40917  21.263  27.599  13.561
68658W        W40918  23.086   5.272  10.529
68659W        W40919  39.539  35.937  13.803
68660W        W40920  14.109  13.159  11.433
68661W        W40921  28.850  24.858   1.519
68662W        W40922  19.086   4.951   2.160
68663W        W40923  27.476   0.546   3.374
68664W        W40924  25.052  32.779   3.813
68665W        W40925  11.003  31.617  11.178
68666W        W40926  21.922  28.841  10.542
68667W        W40927  28.891  10.319  12.489
68668W        W40928   5.367  21.514   1.012
68669W        W40929  34.459  41.895   3.207
68670W        W40930   6.430  37.572   1.262
68671W        W40931  18.961  38.378  12.123
68672W        W40932   4.866   1.734  11.491
68673W        W40933  42.420  37.380  11.440
68674W        W40934  30.453   3.258  14.417
68675W        W40935  18.684  25.488   2.265
68676W        W40936   9.817  29.869   1.786
68677W        W40937  17.593  35.321  11.960
68678W        W40938  20.929  39.481  12.415
68679W        W40939  27.895  24.049  13.080
68680W        W40940   0.819  21.483   1.407
68681W        W40941  18.243  41.958  13.940
68682W        W40942  16.804  19.849   4.578
68683W        W40943  41.272  17.142  11.520
68684W        W40944  19.856  31.504  11.592
68685W        W40945  13.878   9.250   2.332
68686W        W40946  42.253   0.240   2.040
68687W        W40947  14.785  29.085  14.584
68688W        W40948  38.324  10.748   4.208
68689W        W40949  13.827  17.207   1.419
68690W        W40950   0.722   5.280   3.924
68691W        W40951  39.805  12.578   2.708
68692W        W40952  36.524   3.951   3.845
68693W        W40953  41.804  16.376   2.710
68694W        W40954  12.275  33.815   2.922
68695W        W40955  30.140  18.182  10.530
68696W        W40956  30.911   0.615   4.722
68697W        W40957   0.647  32.496  12.930
68698W        W40958  20.535  38.138  13.792
68699W        W40959  21.326   7.194   2.475
68700W        W40960   0.485  16.189  13.818
68701W        W40961  18.364  35.968  14.504
68702W        W40962  22.140  12.324  11.498
68703W        W40963  32.404  22.755   2.577
68704W        W40964  22.202   5.662   3.239
68705W        W40965  15.239  26.231  11.135
68706W        W40966  29.702  27.102  11.196
68707W        W40967  26.679  37.637  11.059
68708W        W40968  29.137  18.571  14.133
68709W        W40969  39.322   1.676  11.109
68710W        W40970   1.889  33.348   4.666
68711W        W40971   9.597   3.695  10.568
68712W        W40972  14.028  12.409  12.482
68713W        W40973   9.285   9.846  11.692
68714W        W40974   3.955  21.662  12.664
68715W        W40975  28.182  29.566   3.683
68716W        W40976  26.695  15.243  14.576
68717W        W40977  41.484  22.639  14.508
68718W        W40978  35.949  13.798  13.088
68719W        W40979   3.911  29.424  14.349
68720W        W40980   5.822  25.514  13.147
68721W        W40981  22.906  15.876  11.606
68722W        W40982  17.683   1.947   4.048
68723W        W40983  39.263  12.396   0.285
68724W        W40984  39.868   2.340   0.440
68725W        W40985  15.127  33.441  12.531
68726W        W40986  10.930   3.423   4.569
68727W        W40987  11.498   1.462   3.192
68728W        W40988  26.271  25.059  13.298
68729W        W40989  36.240  13.609  14.460
68730W        W40990   7.722  44.918  13.309
68731W        W40991  44.793  41.493   3.123
68732W        W40992  20.862  12.684   0.385
68733W        W40993   3.181  25.010  10.733
68734W        W40994   4.146  37.199  13.355
68735W        W40995  27.772  36.936   1.935
68736W        W40996  17.041  28.553  12.559
68737W        W40997  21.215  36.018  10.146
68738W        W40998  36.438  28.311  13.034
68739W        W40999   0.533  29.579   2.355
68740W        W41000  21.951  41.849   3.683
68741W        W41001  23.522  38.163   0.837
68742W        W41002  32.437  19.927   2.695
68743W        W41003  28.297  11.309   3.201
68744W        W41004  17.600  16.303   1.740
68745W        W41005  33.659  13.616   3.590
68746W        W41006  36.172  17.166   2.295
68747W        W41007  18.257  18.374  11.437
68748W        W41008  40.914  14.826   2.197
68749W        W41009  25.462  44.394   4.384
68750W        W41010  17.267   7.870  11.191
68751W        W41011  36.910  24.074  14.536
68752W        W41012   8.023  34.067  10.414
68753W        W41013  37.329  22.154   1.748
68754W        W41014  18.064  15.280  10.395
68755W        W41015   9.382   3.945   1.914
68756W        W41016   2.404  12.991  12.011
68757W        W41017  24.057   1.965   0.201
68758W        W41018   3.158  30.488   3.613
68759W        W41019  11.196  34.950  11.732
68760W        W41020  25.037  34.206  12.001
68761W        W41021  41.245  27.539   1.286
68762W        W41022  39.620  21.085  10.542
68763W        W41023  25.088   0.945   3.296
68764W        W41024  35.526  17.227   4.571
68765W        W41025   3.939  20.259  10.719
68766W        W41026   9.356  12.523  11.180
68767W        W41027  19.467  17.289  12.160
68768W        W41028   5.362   9.965  14.504
68769W        W41029  23.633   5.496  11.250
68770W        W41030  39.360   1.421   3.330
68771W        W41031   0.963  17.866   5.040
68772W        W41032   2.904  40.820  14.508
68773W        W41033  31.719  24.930  12.856
68774W        W41034  36.902  25.697  13.497
68775W        W41035  31.224  41.456  13.071
68776W        W41036   8.968  39.864   0.250
68777W        W41037   2.786  26.484  13.046
68778W        W41038  24.984  42.351   1.884
68779W        W41039  14.284  25.313   3.964
68780W        W41040   2.708   1.149   0.234
68781W        W41041   1.421  21.200  12.010
68782W        W41042  30.779  41.050   1.498
68783W        W41043  35.007   7.960   0.586
68784W        W41044   5.376  38.486  12.180
68785W        W41045  28.607  13.036  13.335
68786W        W41046  35.065   2.670  13.994
68787W        W41047  25.837   3.023  10.711
68788W        W41048  41.246  20.643  12.065
68789W        W41049  36.125   0.040   1.912
68790W        W41050  17.190  36.954   0.883
68791W        W41051   1.763   8.724   0.939
68792W        W41052  41.088   8.948  13.327
68793W        W41053  39.886  13.052  13.366
68794W        W41054  20.658   0.566  13.800
68795W        W41055  28.796  34.083  10.580
68796W        W41056   2.963  34.682  14.747
68797W        W41057   4.863  40.585   0.236
68798W        W41058  32.557  37.224   1.656
68799W        W41059  26.617  13.849   2.851
68800W        W41060   9.107  41.329  12.954
68801W        W41061  27.531  10.318   3.607
68802W        W41062  15.576  16.830   1.248
68803W        W41063  39.534  37.037  14.770
68804W        W41064   1.695  34.334  11.117
68805W        W41065  28.280  21.999  10.625
68806W        W41066  18.984  30.529  13.860
68807W        W41067  37.097  24.550   4.087
68808W        W41068  32.414  11.820  13.310
68809W        W41069   6.039  30.904   4.612
68810W        W41070   9.173  36.017  11.094
68811W        W41071  27.914  16.359   3.739
68812W        W41072  13.618  16.647   4.310
68813W        W41073  35.027   9.597   0.364
68814W        W41074  22.303  30.377   3.281
68815W        W41075   5.321  18.344   4.075
68816W        W41076  13.630  15.339   4.590
68817W        W41077  40.771  39.303   0.543
68818W        W41078  22.179  36.610  11.518
68819W        W41079  44.812  36.397  11.266
68820W        W41080   6.641  32.950   4.498
68821W        W41081  11.171  34.986   2.656
68822W        W41082  22.696  29.156  13.472
68823W        W41083  26.154  21.276   4.062
68824W        W41084  16.502  33.518  10.788
68825W        W41085  14.195  42.906   4.006
68826W        W41086  15.028  39.403   4.414
68827W        W41087   5.617  44.907   2.761
68828W        W41088   4.173  30.926   0.502
68829W        W41089  22.523  43.408  11.085
68830W        W41090  37.335   1.935   3.714
68831W        W41091  20.114  26.208  12.089
68832W        W41092  22.200  22.644  13.975
68833W        W41093  17.277  31.676  12.932
68834W        W41094  21.384  39.126  14.039
68835W        W41095   6.250  43.307   3.143
68836W        W41096   4.477  22.336   3.769
68837W        W41097  34.414  24.496   0.064
68838W        W41098  22.745  15.374   4.518
68839W        W41099  12.644   1.281  10.895
68840W        W41100  13.608  16.645  12.950
68841W        W41101  38.630  11.401   0.264
68842W        W41102  11.085  40.732   1.671
68843W        W41103  16.673   3.394   3.844
68844W        W41104  12.680  24.684  12.564
68845W        W41105  10.295   3.961  13.960
68846W        W41106  15.115   7.040   3.825
68847W        W41107  40.589  43.748   1.708
68848W        W41108  44.469   1.798  13.743
68849W        W41109  15.777   7.721  11.962
68850W        W41110  21.229  43.874  11.682
68851W        W41111  40.770  39.412  11.138
68852W        W41112  39.845  19.123  12.015
68853W        W41113  35.928  35.029  11.078
68854W        W41114  11.426  28.328  14.466
68855W        W41115  21.178  20.269  13.926
68856W        W41116  40.006  10.672  10.724
68857W        W41117  41.201   9.765  12.925
68858W        W41118  20.635  13.149  10.394
68859W        W41119   7.980  25.612  11.405
68860W        W41120  29.854  22.983  11.194
68861W        W41121  32.163  20.442  10.242
68862W        W41122  24.047  20.783  13.503
68863W        W41123  35.280  17.540   1.290
68864W        W41124  22.203  43.993  13.854
68865W        W41125  35.078  26.674   1.770
68866W        W41126  17.047   2.443  11.518
68867W        W41127  39.935  16.693  11.648
68868W        W41128  36.678  33.895   1.881
68869W        W41129  43.577  17.512  12.373
68870W        W41130   2.637  21.778  14.938
68871W        W41131  42.050  20.164   0.940
68872W        W41132  33.586   2.779   4.129
68873W        W41133   4.427  44.983  11.269
68874W        W41134  15.562  19.550   0.306
68875W        W41135  36.007  31.515   1.649
68876W        W41136   4.886  40.293   0.870
68877W        W41137   1.014  32.943  11.085
68878W        W41138   9.011  27.229  13.478
68879W        W41139  33.553  32.883  12.803
68880W        W41140   3.796   7.140  12.168
68881W        W41141   8.905   6.146  13.334
68882W        W41142   3.799  14.069   2.165
68883W        W41143  32.667  12.135  13.612
68884W        W41144   9.863  20.176  13.927
68885W        W41145  17.917  27.855  13.544
68886W        W41146   0.828   9.662   0.997
68887W        W41147  41.538   5.626   0.384
68888W        W41148  11.911  43.347  12.007
68889W        W41149   3.637  14.802  12.916
68890W        W41150   6.995  43.158  11.125
68891W        W41151   5.361  40.877  11.940
68892W        W41152  35.395  42.389   2.199
68893W        W41153  21.981  16.340  13.393
68894W        W41154  23.605  41.584   2.854
68895W        W41155  17.650  42.338   0.764
68896W        W41156  10.416  25.998  12.551
68897W        W41157   2.225   6.792  14.384
68898W        W41158  20.738   8.405  13.672
68899W        W41159  16.549  21.278  12.854
68900W        W41160  13.107  17.301   5.261
68901W        W41161  12.927   9.273  10.698
68902W        W41162   5.494  35.813   4.669
68903W        W41163  37.034  34.986  12.144
68904W        W41164  34.974   4.223   4.567
68905W        W41165   9.616  15.222  10.706
68906W        W41166  38.830  27.396   0.324
68907W        W41167   1.287  20.234   4.196
68908W        W41168  25.686   9.475   0.096
68909W        W41169  35.370  16.732   0.302
68910W        W41170  25.449  35.310  13.743
68911W        W41171  39.093  13.821   0.866
68912W        W41172  18.739  15.477  14.811
68913W        W41173  19.134  35.416   1.256
68914W        W41174  14.263   9.730   1.907
68915W        W41175  36.389  19.252  11.791
68916W        W41176  12.413  28.169   5.109
68917W        W41177  26.670  42.924   1.323
68918W        W41178  30.177  10.512  10.655
68919W        W41179  18.528   8.984   9.657
68920W        W41180  29.975  11.002   0.423
68921W        W41181  20.990  26.846  14.343
68922W        W41182  20.498  26.255  11.089
68923W        W41183   5.253  17.655   2.624
68924W        W41184  11.665  37.402   2.887
68925W        W41185  38.189   5.334   1.756
68926W        W41186  13.367   3.889   1.551
68927W        W41187  24.868  16.829  12.052
68928W        W41188  30.099  19.990  12.281
68929W        W41189  35.778  25.196  11.520
68930W        W41190  24.686   0.416   4.267
68931W        W41191  33.467  14.936  13.283
68932W        W41192  26.034  38.473  11.659
68933W        W41193   9.597  44.944   4.252
68934W        W41194  19.048   6.292  11.893
68935W        W41195   0.387  14.764  10.685
68936W        W41196  11.743  20.914  14.061
68937W        W41197  44.409  28.155  12.862
68938W        W41198   0.738  10.360  12.046
68939W        W41199  36.645  11.627   1.745
68940W        W41200  34.124  14.787  14.078
68941W        W41201  32.112  30.457  13.403
68942W        W41202   8.220  11.861   3.152
68943W        W41203  41.285  24.685   1.751
68944W        W41204  17.808  26.359   2.775
68945W        W41205  32.416   5.453   0.411
68946W        W41206  12.946  34.082  10.951
68947W        W41207   9.709  29.620   0.355
68948W        W41208  28.086   4.968   3.932
68949W        W41209  35.612  39.782   0.714
68950W        W41210  28.927  31.433   4.253
68951W        W41211  27.365  24.225  13.133
68952W        W41212  33.160  40.741   4.025
68953W        W41213   0.989  39.015  14.532
68954W        W41214  44.761  18.988  14.317
68955W        W41215  30.000  41.326  13.777
68956W        W41216  39.335  38.813  14.608
68957W        W41217  32.437  30.654  10.741
68958W        W41218  15.772  18.732   4.619
68959W        W41219  21.068  17.480   0.350
68960W        W41220   7.834  24.273   0.385
68961W        W41221  14.215   0.793   1.348
68962W        W41222  16.297  20.081  12.885
68963W        W41223  35.122  10.376   3.182
68964W        W41224  17.744  38.849  11.521
68965W        W41225  38.869  27.489   3.130
68966W        W41226  31.429  32.210   5.146
68967W        W41227  31.879  23.925   3.965
68968W        W41228  30.018  41.295   2.830
68969W        W41229  17.706  40.807  14.966
68970W        W41230  30.414  16.071   3.642
68971W        W41231   5.317   2.968   3.206
68972W        W41232  18.076  16.288   3.671
68973W        W41233  18.356  31.090  13.908
68974W        W41234  24.747  39.058   3.666
68975W        W41235  25.158  23.493  13.055
68976W        W41236  44.861  41.736   4.716
68977W        W41237  14.513  16.640   3.588
68978W        W41238  19.349  35.950   2.960
68979W        W41239  19.506  10.598  10.797
68980W        W41240  37.419  17.775   0.380
68981W        W41241   1.172  31.502   4.415
68982W        W41242  18.968   9.727  11.569
68983W        W41243   1.881   1.238   1.065
68984W        W41244  17.619  32.606   0.578
68985W        W41245  15.094  12.377   0.401
68986W        W41246  43.002  24.893  14.547
68987W        W41247  23.019   0.433   1.189
68988W        W41248  19.869  15.070   0.188
68989W        W41249   1.765  14.047   0.775
68990W        W41250   4.405  23.279  12.144
68991W        W41251  37.336  21.531   2.830
68992W        W41252  17.125  19.885   2.723
68993W        W41253  18.825  33.491  11.039
68994W        W41254  21.717   9.465   0.773
68995W        W41255  28.080  11.657  10.901
68996W        W41256  14.873  40.805  11.185
68997W        W41257  34.558   8.362   4.561
68998W        W41258  30.301   3.066  10.573
68999W        W41259  41.645   9.323  14.568
69000W        W41260  28.656  27.665  12.876
69001W        W41261  43.971   9.782   3.743
69002W        W41262   3.097  20.281   2.797
69003W        W41263   3.975  44.206  12.890
69004W        W41264   2.927  39.360  11.264
69005W        W41265  30.433  26.416   0.307
69006W        W41266  16.122  43.254  12.373
69007W        W41267  11.601   5.748   4.706
69008W        W41268  24.592  24.498   3.430
69009W        W41269  15.667  42.237  12.683
69010W        W41270   5.934   2.245  11.130
69011W        W41271  34.852  12.251   1.799
69012W        W41272   6.378  41.865  11.615
69013W        W41273  25.045  29.741   4.096
69014W        W41274  27.272   2.324  13.366
69015W        W41275  24.981  41.400   0.706
69016W        W41276   2.960  29.778  14.453
69017W        W41277  37.077  43.791   0.007
69018W        W41278  41.884  19.033   4.352
69019W        W41279  42.747  24.637  13.042
69020W        W41280  25.108   6.739  10.722
69021W        W41281   3.835  36.065   3.034
69022W        W41282  12.715  25.953  10.978
69023W        W41283  14.571  40.540  11.653
69024W        W41284  28.023  14.618  12.263
69025W        W41285   3.255  43.369   4.371
69026W        W41286  40.360  14.908  12.431
69027W        W41287  11.828  36.405   2.215
69028W        W41288  15.316   3.942  10.757
69029W        W41289   1.348   0.011  12.214
69030W        W41290  17.034  12.171   2.806
69031W        W41291   5.465  34.976   4.332
69032W        W41292   1.325  29.423   1.949
69033W        W41293  38.409  43.120  11.109
69034W        W41294  20.560  24.003   3.744
69035W        W41295  25.603  17.233   0.013
69036W        W41296   7.593   3.865  14.319
69037W        W41297  16.188  10.929  11.452
69038W        W41298  32.785  23.162  14.957
69039W        W41299  34.402   6.854  14.346
69040W        W41300  20.982  23.133  14.068
69041W        W41301  32.553   0.045  14.286
69042W        W41302  43.314  13.146  13.035
69043W        W41303  30.832  13.004   2.239
69044W        W41304  13.711   0.627  11.210
69045W        W41305   2.997  12.863   1.930
69046W        W41306  39.563  17.271  11.158
69047W        W41307  16.931  30.462   3.504
69048W        W41308  19.773  27.196  13.875
69049W        W41309  34.906  29.214  13.407
69050W        W41310  37.549   5.461   4.925
69051W        W41311  16.255  43.421  12.913
69052W        W41312  18.353  43.075  10.608
69053W        W41313   6.391  34.537   3.761
69054W        W41314  17.695  35.172   3.748
69055W        W41315  11.846   0.388  14.439
69056W        W41316   8.398  18.556  12.055
69057W        W41317   7.128   8.753   0.898
69058W        W41318  18.739  14.252  13.601
69059W        W41319  36.504  18.519   3.316
69060W        W41320  32.796  21.620   2.557
69061W        W41321   2.235  42.011   4.642
69062W        W41322  43.975   1.400   0.113
69063W        W41323  27.936  42.375   0.287
69064W        W41324  43.360   6.937  11.090
69065W        W41325  37.355  32.991   2.667
69066W        W41326  39.729   0.211  13.338
69067W        W41327   3.879  15.034   2.678
69068W        W41328  13.893   0.025   2.285
69069W        W41329  10.800  15.615  13.040
69070W        W41330  25.601   2.033  12.390
69071W        W41331  42.969  26.725   5.069
69072W        W41332  17.609  22.867   4.670
69073W        W41333  14.389  43.982   3.583
69074W        W41334   0.880   8.098  14.052
69075W        W41335  33.723   2.760   2.062
69076W        W41336   5.776  16.213   1.893
69077W        W41337   1.254  26.498  11.710
69078W        W41338  44.041  15.100  14.419
69079W        W41339  42.950   4.597  10.876
69080W        W41340   8.512  10.078  13.086
69081W        W41341  21.056  32.631  11.171
69082W        W41342   8.469  38.690  11.778
69083W        W41343   3.408  14.143   3.356
69084W        W41344   7.162  35.968  13.767
69085W        W41345   0.168  17.789   0.636
69086W        W41346  21.033  32.865   1.299
69087W        W41347  33.949   6.430  10.289
69088W        W41348   5.897  39.044   1.041
69089W        W41349  36.517  10.003  11.044
69090W        W41350  29.434  40.027   3.167
69091W        W41351  27.558  24.697  13.820
69092W        W41352  37.469  30.287  10.403
69093W        W41353  43.925  36.581   3.608
69094W        W41354   2.828  20.736   2.642
69095W        W41355   5.206  36.915  14.822
69096W        W41356  26.564   1.372  11.062
69097W        W41357  29.520  40.591   4.566
69098W        W41358  36.009  40.954   0.472
69099W        W41359  29.925  42.638   4.883
69100W        W41360  19.966  17.574  13.015
69101W        W41361  16.539  33.357  14.453
69102W        W41362  31.030  13.816   3.767
69103W        W41363  19.731  10.823   2.328
69104W        W41364   3.764  33.632   4.356
69105W        W41365  23.497  44.145   3.402
69106W        W41366   0.338  16.239   0.719
69107W        W41367   7.488  20.694  12.103
69108W        W41368   8.519  30.055   4.056
69109W        W41369  31.153  16.384  12.906
69110W        W41370  38.987  37.894  14.077
69111W        W41371  24.338  22.086   2.301
69112W        W41372  19.066  18.302   3.761
69113W        W41373  17.463  19.668  14.261
69114W        W41374  31.227   1.015   2.553
69115W        W41375  35.420   4.217  14.971
69116W        W41376  27.122  18.221   2.047
69117W        W41377  13.682   3.891   4.169
69118W        W41378  26.676   8.587   1.163
69119W        W41379  32.000  21.707   3.266
69120W        W41380  25.158   2.829   2.736
69121W        W41381   8.914  39.937   0.767
69122W        W41382   8.006   9.501  12.114
69123W        W41383  36.894  21.173  11.484
69124W        W41384  31.685  30.134  10.435
69125W        W41385  21.737  16.256   0.970
69126W        W41386  23.121  19.871  14.171
69127W        W41387   2.016  26.683   3.362
69128W        W41388  27.846  24.430  12.394
69129W        W41389   9.225  39.008   1.596
69130W        W41390  15.798   0.792  14.799
69131W        W41391  17.252  44.701  11.581
69132W        W41392   7.715  34.934   4.091
69133W        W41393  42.329  24.097   4.346
69134W        W41394  13.172   8.888  12.050
69135W        W41395  11.291  42.707   0.172
69136W        W41396  39.764  14.328   4.278
69137W        W41397  35.555  15.129   2.700
69138W        W41398  35.134   3.409  13.337
69139W        W41399   4.239  33.473  14.588
69140W        W41400  15.091   3.352  11.625
69141W        W41401  16.876   1.364  11.183
69142W        W41402  16.103   1.389  11.567
69143W        W41403   5.947   8.341  13.446
69144W        W41404  23.508  30.989   0.328
69145W        W41405  34.011  12.485  12.483
69146W        W41406  11.857  20.338   4.809
69147W        W41407  23.216  39.905   3.829
69148W        W41408  38.472   8.217   3.605
69149W        W41409  20.631  43.828   2.314
69150W        W41410  17.848  36.017   2.294
69151W        W41411  36.937  21.701  11.726
69152W        W41412  17.387  23.235  11.560
69153W        W41413  24.569  20.218  14.992
69154W        W41414  31.954  24.761   1.790
69155W        W41415  31.881  42.275  14.002
69156W        W41416  15.060  14.332  10.667
69157W        W41417  21.495  12.881  12.633
69158W        W41418  15.518  21.705  10.666
69159W        W41419  16.918  38.990   3.228
69160W        W41420  18.843   7.259  14.142
69161W        W41421  40.478  11.608   3.690
69162W        W41422   6.788  23.267   4.459
69163W        W41423   7.751  38.741  13.028
69164W        W41424  12.837  30.630   1.637
69165W        W41425  18.532   1.379  13.069
69166W        W41426  27.098  20.073  12.713
69167W        W41427  43.497  40.855  12.511
69168W        W41428  16.594  28.194  11.113
69169W        W41429  32.886  16.189  10.646
69170W        W41430  19.347  40.596  10.675
69171W        W41431  25.139  25.663  14.110
69172W        W41432  38.066   6.144   2.795
69173W        W41433  43.765  36.991  14.765
69174W        W41434   1.234   7.305  11.418
69175W        W41435   8.279   2.796   2.812
69176W        W41436   8.255  13.656   3.712
69177W        W41437  41.037  17.916  13.217
69178W        W41438  13.048  25.635   1.672
69179W        W41439   8.621  37.177   0.775
69180W        W41440  36.006  21.134   1.466
69181W        W41441  44.991  24.951  11.205
69182W        W41442  12.658  38.267   3.298
69183W        W41443  32.028  23.218  13.777
69184W        W41444   6.883   2.264   4.895
69185W        W41445  16.152  40.817  11.682
69186W        W41446  12.130  18.362   1.776
69187W        W41447   4.688   7.620  10.231
69188W        W41448  29.696  40.909   2.640
69189W        W41449  43.485  17.786  11.112
69190W        W41450  31.959  11.674  11.542
69191W        W41451  10.596  25.004   2.647
69192W        W41452  42.975  20.117   4.556
69193W        W41453  15.382  44.265   3.693
69194W        W41454  17.149  30.603  11.119
69195W        W41455  13.170  11.277  11.857
69196W        W41456  35.357  34.382   1.736
69197W        W41457  36.966  34.905   4.163
69198W        W41458  44.369  36.548  14.562
69199W        W41459  33.094  13.594  11.093
69200W        W41460  13.820  30.711   4.269
69201W        W41461  19.502   2.390   0.008
69202W        W41462  32.482  16.673   2.018
69203W        W41463   8.075  24.728   0.490
69204W        W41464  15.296  42.411  13.937
69205W        W41465   0.885  34.436   1.381
69206W        W41466  18.935  41.961   1.804
69207W        W41467  12.867  17.317   4.097
69208W        W41468  19.366  24.912  13.786
69209W        W41469  28.103  38.935  10.068
69210W        W41470   3.698  19.584   1.323
69211W        W41471  26.577  30.010   2.400
69212W        W41472  23.686  10.291  14.883
69213W        W41473   8.140  42.621   2.313
69214W        W41474   3.432  15.062  12.081
69215W        W41475  10.668  26.709  14.860
69216W        W41476  34.927  35.760   1.872
69217W        W41477  17.305  39.957   1.644
69218W        W41478  18.377  44.514  13.029
69219W        W41479  28.017  29.538  10.807
69220W        W41480  31.386   9.529  12.100
69221W        W41481   3.339  31.827  10.756
69222W        W41482  11.621  39.529   2.882
69223W        W41483  44.400  38.937  12.775
69224W        W41484  41.306  36.171   0.251
69225W        W41485  18.559  23.721   2.791
69226W        W41486  21.241  13.856   1.136
69227W        W41487  11.039  24.099  13.436
69228W        W41488  35.493  14.672  14.522
69229W        W41489   4.090  26.524   4.042
69230W        W41490  36.020  21.417  14.350
69231W        W41491  14.717  35.363  14.507
69232W        W41492   9.650  38.487  11.174
69233W        W41493  16.678  20.588   2.948
69234W        W41494  25.304  23.409   2.707
69235W        W41495  22.534  32.878  11.609
69236W        W41496  33.877  36.960  11.193
69237W        W41497   8.824  41.814  12.040
69238W        W41498   5.919   5.423  11.463
69239W        W41499  21.146  44.867  12.021
69240W        W41500  34.770  32.443   3.089
69241W        W41501  41.289  40.966  11.177
69242W        W41502  44.056   0.844   3.326
69243W        W41503  31.728  42.915  12.589
69244W        W41504  33.839  13.384  13.408
69245W        W41505  28.848  36.914   0.863
69246W        W41506  15.128   1.855   2.234
69247W        W41507  43.043  29.085  14.342
69248W        W41508   9.745  13.642  12.162
69249W        W41509  34.575  20.190  10.641
69250W        W41510  18.903  22.446  10.230
69251W        W41511  41.389  21.480   1.906
69252W        W41512  24.295   1.422   2.744
69253W        W41513  40.470  42.551  12.002
69254W        W41514  44.031  29.192   2.935
69255W        W41515  36.640  37.884   3.648
69256W        W41516  24.704  23.446  14.288
69257W        W41517  37.518  19.599   1.643
69258W        W41518  37.500   8.807   1.638
69259W        W41519  37.461  39.841  10.781
69260W        W41520  41.676   2.962  12.391
69261W        W41521  34.988   4.233   0.741
69262W        W41522  19.674  40.317   0.512
69263W        W41523  17.997  13.062   2.440
69264W        W41524  44.798   4.351  14.735
69265W        W41525  12.574  39.746   4.789
69266W        W41526  13.039   5.690  14.847
69267W        W41527  29.603  20.009  14.505
69268W        W41528  14.765   4.957   3.725
69269W        W41529  42.017  20.270  10.415
69270W        W41530   7.559  42.839  12.885
69271W        W41531  17.871  14.469  11.040
69272W        W41532  22.480  36.927  12.526
69273W        W41533  12.602  40.636   3.880
69274W        W41534  15.859  36.015   3.720
69275W        W41535  31.077   1.833   2.964
69276W        W41536   7.872   2.945   1.738
69277W        W41537  23.572  27.089   2.764
69278W        W41538  19.531  27.608  12.169
69279W        W41539  22.006   5.843  13.815
69280W        W41540  40.221  44.421   1.475
69281W        W41541  25.854   9.169  10.634
69282W        W41542  32.081   8.464   2.372
69283W        W41543  34.056  37.495   5.050
69284W        W41544  29.052   3.202   4.506
69285W        W41545  31.560   7.218   0.904
69286W        W41546  32.159   2.438  12.525
69287W        W41547  43.218  10.609  14.368
69288W        W41548  44.792  37.837   4.126
69289W        W41549  19.546  13.300   0.872
69290W        W41550  18.749  17.264  10.708
69291W        W41551  13.000  30.218   4.299
69292W        W41552   7.347  42.870  13.787
69293W        W41553  14.065  41.252   2.368
69294W        W41554  15.428  20.057   3.298
69295W        W41555  32.770  33.124   2.754
69296W        W41556  39.060   7.475  13.932
69297W        W41557  32.456  13.561  10.664
69298W        W41558  22.041  38.391  12.687
69299W        W41559  23.050  27.508  11.727
69300W        W41560  43.923   2.171  12.517
69301W        W41561  13.325   0.512  13.017
69302W        W41562  28.474  21.451  10.832
69303W        W41563  20.687   4.522   0.828
69304W        W41564  31.156  41.983   0.853
69305W        W41565  19.443  33.224  14.572
69306W        W41566  22.011  42.047   0.314
69307W        W41567  24.562   8.477  13.792
69308W        W41568  16.090   1.866  13.634
69309W        W41569   7.359  37.360  14.256
69310W        W41570   9.797  19.298   1.658
69311W        W41571  40.262  31.382   0.765
69312W        W41572  36.606  29.082   4.655
69313W        W41573  10.523  12.807   0.347
69314W        W41574  15.110  24.609  11.606
69315W        W41575  25.031  22.265  11.902
69316W        W41576  33.090  17.105  13.731
69317W        W41577   3.858   3.401   4.716
69318W        W41578  31.394  39.961  12.111
69319W        W41579  21.429  44.585  10.707
69320W        W41580   9.951   1.011   2.950
69321W        W41581  19.297  23.116   2.868
69322W        W41582  37.981  23.075  12.970
69323W        W41583  24.937  13.720  14.469
69324W        W41584  16.644  16.961  10.231
69325W        W41585  19.260  23.737   3.409
69326W        W41586  12.795   0.415   2.891
69327W        W41587  26.751  27.499   1.650
69328W        W41588  41.862  33.051  14.752
69329W        W41589  19.146  12.537   4.792
69330W        W41590  11.689  10.540  11.610
69331W        W41591  22.223  15.979  13.063
69332W        W41592  16.442  32.855   2.118
69333W        W41593  29.235   8.414  11.998
69334W        W41594  43.982  27.494   0.817
69335W        W41595  21.855  11.109   3.594
69336W        W41596   3.905  16.192  11.088
69337W        W41597  31.011  21.967  12.992
69338W        W41598  39.684   7.768   0.302
69339W        W41599  25.040   0.088  14.980
69340W        W41600  33.594   4.809  13.483
69341W        W41601  21.749   3.385   0.676
69342W        W41602  28.362  30.506   2.704
69343W        W41603  44.441  41.058   4.895
69344W        W41604   0.910  28.687   2.210
69345W        W41605  19.802  18.064  11.125
69346W        W41606  21.128  14.781  14.524
69347W        W41607   3.908  12.366  13.725
69348W        W41608   0.513  12.417   2.311
69349W        W41609  37.460  19.630  10.111
69350W        W41610  38.479  36.053  11.650
69351W        W41611  18.507   0.850   4.267
69352W        W41612   8.871  23.119  12.578
69353W        W41613  26.096   0.787   4.038
69354W        W41614   7.650  34.000   1.846
69355W        W41615  28.647  40.033   2.747
69356W        W41616   0.011   3.667   2.254
69357W        W41617  19.162  43.183   3.205
69358W        W41618  42.410  34.944   0.310
69359W        W41619  21.952  41.960   1.091
69360W        W41620  39.530  34.895  13.060
69361W        W41621   0.193  24.080   3.682
69362W        W41622  20.846   7.689  13.385
69363W        W41623   1.856  39.621   2.016
69364W        W41624   8.142   2.339  13.988
69365W        W41625  17.310  25.286   2.743
69366W        W41626   9.237  28.138   0.903
69367W        W41627  30.919  31.606   4.348
69368W        W41628  37.225   2.214  13.838
69369W        W41629  19.749   0.172   0.841
69370W        W41630   0.226   7.468  14.914
69371W        W41631  34.617   7.355   3.687
69372W        W41632  36.384  41.733   3.479
69373W        W41633  39.850  35.341  13.850
69374W        W41634   4.183  16.964  13.748
69375W        W41635  35.665  31.550  10.985
69376W        W41636  24.684  11.088  12.018
69377W        W41637  30.343  41.370   0.880
69378W        W41638   3.825  30.053   0.667
69379W        W41639  42.044  35.845  11.145
69380W        W41640  38.209  29.170  14.770
69381W        W41641   7.436  30.380  14.982
69382W        W41642  12.653   2.875   4.427
69383W        W41643  27.692  13.333  13.365
69384W        W41644  11.100  13.736   4.400
69385W        W41645  16.772  10.377  12.835
69386W        W41646  27.674  31.144   4.194
69387W        W41647  27.627  12.244  10.722
69388W        W41648   5.889  18.585  13.040
69389W        W41649  44.482   2.899  13.450
69390W        W41650  40.486  42.691  10.216
69391W        W41651  11.687  12.346  13.596
69392W        W41652  17.680  19.320   4.720
69393W        W41653   2.515  38.119  14.307
69394W        W41654  29.306  12.559  14.873
69395W        W41655  10.228  13.066  13.996
69396W        W41656  30.105  29.851  13.488
69397W        W41657  28.976   7.999   2.732
69398W        W41658  11.705  14.399  14.790
69399W        W41659  15.601   3.730   1.740
69400W        W41660  42.817  32.298  13.024
69401W        W41661  17.997  40.347  11.121
69402W        W41662  11.748  28.383   1.431
69403W        W41663  33.310  35.980   1.290
69404W        W41664  20.957  27.206  11.958
69405W        W41665  36.101  20.996   3.852
69406W        W41666  16.779  42.869  11.187
69407W        W41667  24.960  15.455  12.480
69408W        W41668  27.482  36.966  11.730
69409W        W41669   1.313  13.343   0.214
69410W        W41670  12.142  35.064  14.897
69411W        W41671  40.978  18.156   2.959
69412W        W41672   7.655  22.776  10.077
69413W        W41673  36.037  19.147  10.496
69414W        W41674  30.736   3.112  14.876
69415W        W41675  31.204   3.710   3.026
69416W        W41676   9.575  19.650   2.294
69417W        W41677  25.458   8.402   4.867
69418W        W41678   7.621  37.406   1.672
69419W        W41679   4.078  28.502  13.932
69420W        W41680  25.719  26.418   4.148
69421W        W41681  34.436  13.695  13.963
69422W        W41682  31.426  25.026   2.849
69423W        W41683  32.216  37.520   3.078
69424W        W41684  44.833  42.952  10.657
69425W        W41685  12.329  35.976   1.656
69426W        W41686  24.524  35.963  13.435
69427W        W41687  13.151  34.990   0.212
69428W        W41688  40.373   4.532  10.584
69429W        W41689  31.130  21.716  12.528
69430W        W41690  35.328  16.759  14.353
69431W        W41691  17.531  23.710   1.644
69432W        W41692  33.152   6.223   0.424
69433W        W41693  12.334  32.951   1.772
69434W        W41694   1.894  36.928   0.822
69435W        W41695  11.730  34.924   4.021
69436W        W41696  11.613  27.641  12.101
69437W        W41697   4.997  24.790   3.653
69438W        W41698  40.338   9.442  11.739
69439W        W41699  28.225  21.192   1.608
69440W        W41700   0.862  27.428   2.797
69441W        W41701  11.839  33.822   0.254
69442W        W41702   0.447  31.604  10.790
69443W        W41703  39.161  14.167  12.887
69444W        W41704  30.170  32.592   9.942
69445W        W41705  21.799  15.689   3.171
69446W        W41706  33.779  23.363  12.860
69447W        W41707   7.764  38.145  12.394
69448W        W41708  29.914  32.018   1.841
69449W        W41709  42.863  10.339   1.751
69450W        W41710  13.740  41.077  12.616
69451W        W41711  35.191  19.268  14.365
69452W        W41712   8.015   2.788  12.547
69453W        W41713   4.349  16.120   4.589
69454W        W41714  33.046  21.148   2.519
69455W        W41715  40.683  39.798  10.358
69456W        W41716   9.177  30.474   2.021
69457W        W41717  21.987  44.800  13.305
69458W        W41718   3.489   2.433  11.124
69459W        W41719  37.407  29.963  11.209
69460W        W41720  26.004  36.416  10.416
69461W        W41721  43.570  19.202  13.967
69462W        W41722  33.708  31.283   3.118
69463W        W41723  39.492  20.132  14.081
69464W        W41724  25.252  44.048  12.534
69465W        W41725  13.917  35.579  13.410
69466W        W41726  44.791  44.901  12.512
69467W        W41727  10.751   7.117   0.782
69468W        W41728  43.560   0.357  12.571
69469W        W41729  24.992  13.854   2.130
69470W        W41730  29.516   2.954  14.227
69471W        W41731   3.923  17.671  13.345
69472W        W41732  14.891  41.890   3.659
69473W        W41733  23.067  15.685  13.909
69474W        W41734  13.801   8.841  13.013
69475W        W41735  16.251  15.826   0.361
69476W        W41736  25.724  13.299  13.151
69477W        W41737  23.617  31.868  11.454
69478W        W41738   2.064   0.323   0.404
69479W        W41739  37.523  42.550  11.620
69480W        W41740  20.344  23.783  10.635
69481W        W41741  23.612  21.811   3.845
69482W        W41742  44.004  37.307   2.936
69483W        W41743   6.641  29.052   0.810
69484W        W41744   5.510   8.703   2.551
69485W        W41745   5.662   9.160   1.250
69486W        W41746   9.593  13.894  10.911
69487W        W41747  33.319   9.800   3.737
69488W        W41748  19.157  40.039  13.025
69489W        W41749  22.782  18.012   4.175
69490W        W41750  30.446  30.323  11.563
69491W        W41751  40.480  17.019  11.300
69492W        W41752  31.578  43.925   2.681
69493W        W41753  40.772   5.992   4.140
69494W        W41754   5.022  26.618  14.920
69495W        W41755  29.822  43.274   2.897
69496W        W41756  40.047  20.421   3.705
69497W        W41757  17.216   1.444   1.613
69498W        W41758  23.458  41.934   3.795
69499W        W41759  27.031   6.688   3.772
69500W        W41760  37.396  36.083  13.429
69501W        W41761  22.633  40.786   0.445
69502W        W41762  38.352  22.075  12.232
69503W        W41763  15.105  39.843   3.167
69504W        W41764  19.370  28.524   1.733
69505W        W41765   7.993   5.830  11.509
69506W        W41766  20.561  39.453   3.858
69507W        W41767  36.206  10.675  14.703
69508W        W41768  16.986  25.742   2.700
69509W        W41769  17.654  33.096   4.950
69510W        W41770  43.350  40.703  11.605
69511W        W41771  12.791  26.811  13.041
69512W        W41772  10.169  34.668  12.369
69513W        W41773  30.941   4.447  13.387
69514W        W41774  41.860  27.143  12.836
69515W        W41775  37.063  22.397  11.020
69516W        W41776  43.453  23.568  13.519
69517W        W41777  43.160   3.097   0.202
69518W        W41778  17.667   3.882  13.894
69519W        W41779  38.533   1.259  11.944
69520W        W41780  35.817  18.724   3.331
69521W        W41781   2.553  33.402  11.567
69522W        W41782  28.782  25.504   1.537
69523W        W41783  40.045  41.218  12.098
69524W        W41784   9.395  14.259  12.104
69525W        W41785  30.619  11.177  11.222
69526W        W41786  29.089  40.706  11.998
69527W        W41787  12.328   4.968  11.481
69528W        W41788  26.987  38.834   2.810
69529W        W41789   5.458  31.621  11.468
69530W        W41790  22.511  16.740   4.652
69531W        W41791  18.493   5.802  10.723
69532W        W41792   1.954   3.449   0.366
69533W        W41793  41.475  21.205  10.618
69534W        W41794  16.402  28.599  10.879
69535W        W41795  16.350  28.552   1.751
69536W        W41796   9.606  17.608  14.751
69537W        W41797  43.207  23.493  11.497
69538W        W41798  28.965  18.801   3.236
69539W        W41799  30.386   2.790  14.658
69540W        W41800  16.348  22.558   4.721
69541W        W41801   1.931  12.813  11.196
69542W        W41802  21.935  21.975   0.781
69543W        W41803  38.689  38.090  11.694
69544W        W41804   7.819  31.131  11.689
69545W        W41805  22.245  27.236  11.673
69546W        W41806   2.778  36.968   4.839
69547W        W41807   5.460  23.842  14.058
69548W        W41808  13.435   3.474  13.420
69549W        W41809  32.443  42.686   1.227
69550W        W41810  36.529  17.638   3.203
69551W        W41811  42.188  44.356   1.177
69552W        W41812   1.781  10.243   4.970
69553W        W41813   5.868  27.613   4.146
69554W        W41814  23.288  13.384   3.420
69555W        W41815  34.592  14.343  10.572
69556W        W41816  12.085  11.253  11.200
69557W        W41817   1.087  39.453  13.347
69558W        W41818   6.841   4.239  12.534
69559W        W41819   6.156  18.060  12.033
69560W        W41820  24.024  41.349   1.188
69561W        W41821  11.758  43.623  11.543
69562W        W41822   9.636  30.591   1.232
69563W        W41823   4.532   0.728  10.667
69564W        W41824  24.996   0.958  11.942
69565W        W41825  28.953  11.929  13.279
69566W        W41826  19.311  32.733   3.062
69567W        W41827   0.486  34.906   3.317
69568W        W41828   4.396  19.271  12.446
69569W        W41829  26.229  32.926   4.319
69570W        W41830  15.293  12.504   2.442
69571W        W41831  32.095   2.702   0.456
69572W        W41832  44.751   9.774   4.746
69573W        W41833  34.956  13.538  11.994
69574W        W41834  35.470   5.336  14.072
69575W        W41835  38.878  23.122  11.626
69576W        W41836   7.329  12.679   4.520
69577W        W41837  39.517  29.770   3.625
69578W        W41838  39.787  31.670  12.563
69579W        W41839  11.792   0.961   1.330
69580W        W41840  19.931  39.486  13.455
69581W        W41841  19.143  28.775  14.460
69582W        W41842   7.788  26.916   0.029
69583W        W41843   8.515   8.381  14.842
69584W        W41844  13.254  30.164   0.516
69585W        W41845   3.210  32.022  14.822
69586W        W41846  31.880  38.729  12.435
69587W        W41847  42.970  42.619  10.766
69588W        W41848   9.236  34.109   2.276
69589W        W41849  43.346   2.958  12.522
69590W        W41850  26.956  13.623  12.784
69591W        W41851   3.451  37.129  11.940
69592W        W41852  34.956  14.011  12.408
69593W        W41853  32.075  42.991   3.348
69594W        W41854  37.621  25.113  12.551
69595W        W41855  17.213  22.765  12.131
69596W        W41856  37.813  29.941   1.859
69597W        W41857  28.554  26.704  14.840
69598W        W41858  42.413  34.529  14.380
69599W        W41859  11.861  20.726  11.800
69600W        W41860  40.944  13.972  11.096
69601W        W41861  36.781   9.314   1.950
69602W        W41862  31.660  34.473  14.809
69603W        W41863  42.787   6.772   3.973
69604W        W41864  40.771   3.345   4.183
69605W        W41865  29.360  19.106  11.233
69606W        W41866  29.138  27.498   3.942
69607W        W41867  33.554   2.928   4.653
69608W        W41868  22.875   1.973  14.333
69609W        W41869  21.061  22.701   2.781
69610W        W41870   9.281  43.776   0.512
69611W        W41871  11.885  13.838  12.413
69612W        W41872  21.065  18.703   3.337
69613W        W41873  24.202  22.079   2.821
69614W        W41874  23.259   7.722  13.050
69615W        W41875  32.655  43.030  12.186
69616W        W41876  23.203   9.643   0.273
69617W        W41877  24.556  20.996  10.114
69618W        W41878  35.447  16.910   0.784
69619W        W41879  33.062   4.717   2.847
69620W        W41880  23.028  25.102   1.803
69621W        W41881   0.043  19.801   4.171
69622W        W41882  31.177  30.428  11.902
69623W        W41883  41.510  21.299   3.224
69624W        W41884  20.130  34.134   0.384
69625W        W41885  31.877  25.489  13.785
69626W        W41886   5.277  33.139  10.464
69627W        W41887  12.616  14.830   0.027
69628W        W41888  23.872  15.712  12.413
69629W        W41889   3.452  16.759   0.727
69630W        W41890  35.085  13.096  10.796
69631W        W41891  35.359  42.561  12.353
69632W        W41892  40.601  38.522   1.646
69633W        W41893  17.428  40.972   2.807
69634W        W41894  27.992  24.573   4.861
69635W        W41895  24.489  41.485   0.872
69636W        W41896   5.736  11.602   3.449
69637W        W41897  27.151   6.510   0.770
69638W        W41898   3.249  43.119   1.543
69639W        W41899   2.118  19.356   3.247
69640W        W41900  21.009  28.118   0.935
69641W        W41901  34.410  21.772   5.649
69642W        W41902   5.712  36.838   3.740
69643W        W41903   4.620  41.871   3.553
69644W        W41904  38.079  23.289  12.491
69645W        W41905   6.269  22.737  14.817
69646W        W41906   5.739  25.025  12.376
69647W        W41907  24.489  44.392  10.656
69648W        W41908  35.530  25.211  13.419
69649W        W41909  29.104  43.893  13.840
69650W        W41910  32.188  42.584  14.962
69651W        W41911   4.651   9.717   1.938
69652W        W41912   2.348  11.578  10.635
69653W        W41913  31.874  22.623  10.660
69654W        W41914  28.923   8.111   4.302
69655W        W41915  23.314  23.939   4.680
69656W        W41916  10.882  36.533  13.052
69657W        W41917  31.436  25.919   3.110
69658W        W41918  43.071  31.986   0.455
69659W        W41919  34.646  20.154   4.104
69660W        W41920  40.470  27.806   4.162
69661W        W41921  31.839  20.241   3.768
69662W        W41922  42.515  32.932   4.170
69663W        W41923  34.858  39.007  13.033
69664W        W41924   3.368  41.437  11.954
69665W        W41925   2.787  19.180   3.169
69666W        W41926   0.504  23.157  14.060
69667W        W41927   0.194  40.822  12.967
69668W        W41928   4.340   5.805   0.366
69669W        W41929   9.628  27.595  14.471
69670W        W41930  32.096  37.385  11.201
69671W        W41931  18.859   1.806  13.130
69672W        W41932  41.527   0.555   4.855
69673W        W41933  30.646  21.064  13.309
69674W        W41934   7.415  12.174  14.339
69675W        W41935   0.969  28.155   2.214
69676W        W41936  27.602  39.600   9.791
69677W        W41937  12.864  33.057  12.589
69678W        W41938  34.591  18.481   5.089
69679W        W41939   4.263  30.559   3.620
69680W        W41940  26.067  37.364   0.246
69681W        W41941  21.765  38.978  14.946
69682W        W41942  40.885  14.580   1.738
69683W        W41943  15.845  36.122  13.898
69684W        W41944  44.332  35.354  14.689
69685W        W41945  36.440  40.038   4.016
69686W        W41946   0.743  40.579  14.999
69687W        W41947  43.832  34.545  11.088
69688W        W41948   3.292   2.530  13.676
69689W        W41949   2.365  17.237  11.140
69690W        W41950  14.664  14.817   9.906
69691W        W41951   1.800  25.695  13.114
69692W        W41952  10.394  31.456   4.494
69693W        W41953  40.963   8.113   1.525
69694W        W41954   2.450   6.421   2.595
69695W        W41955   4.863   1.505   0.393
69696W        W41956  31.149  14.744  12.559
69697W        W41957   8.256  14.130  13.176
69698W        W41958  21.521  36.778   2.775
69699W        W41959  43.212  42.906  13.590
69700W        W41960  44.790  25.782   1.691
69701W        W41961  41.669  22.214   1.356
69702W        W41962  21.570  41.182  12.826
69703W        W41963  20.572  15.215   0.027
69704W        W41964   6.403  11.431   4.899
69705W        W41965  19.325  44.026  12.021
69706W        W41966  36.132  33.956   0.297
69707W        W41967  22.138   6.752   2.266
69708W        W41968  27.549  15.738  13.887
69709W        W41969  16.037   9.359  14.830
69710W        W41970  18.741  38.549  14.382
69711W        W41971   6.441  29.569  13.930
69712W        W41972  39.284  25.201  14.621
69713W        W41973  12.418   9.281  12.008
69714W        W41974  25.207  10.838   4.661
69715W        W41975  24.381  42.821   3.612
69716W        W41976  19.738  36.173   3.757
69717W        W41977  44.731   3.735  12.517
69718W        W41978  28.713  43.784   0.314
69719W        W41979  25.911  11.666   1.734
69720W        W41980  16.010   8.283  11.478
69721W        W41981  43.038  33.044   1.410
69722W        W41982  23.724  39.423  14.886
69723W        W41983   2.433  28.909   1.906
69724W        W41984  40.608  14.438  10.251
69725W        W41985  42.463  23.548  12.211
69726W        W41986  39.924  18.905  11.541
69727W        W41987  27.560  24.472   3.627
69728W        W41988  11.425  20.121   4.592
69729W        W41989   4.268  25.868  10.717
69730W        W41990  38.380  26.663   2.225
69731W        W41991  12.682   5.159  12.788
69732W        W41992  23.547  12.650  14.888
69733W        W41993  42.985   5.083  11.417
69734W        W41994  18.853  26.612   1.432
69735W        W41995   2.316  16.294   4.125
69736W        W41996  40.791  44.590   2.347
69737W        W41997  13.376  39.844  12.654
69738W        W41998  13.670   2.429   4.177
69739W        W41999  33.963  10.876  13.315
69740W        W42000   4.530  42.538   3.562
69741W        W42001  10.757  36.666  11.139
69742W        W42002  36.851  37.786   4.179
69743W        W42003   3.133   5.395   0.774
69744W        W42004  16.092  25.074  14.885
69745W        W42005  14.362  41.408   2.789
69746W        W42006  38.519  14.694   4.924
69747W        W42007  36.619  17.258   4.302
69748W        W42008  18.648  22.279   3.880
69749W        W42009  26.401  27.609   1.301
69750W        W42010  13.729  42.565  11.481
69751W        W42011  36.618  32.929  13.800
69752W        W42012  31.516  33.217  12.863
69753W        W42013  40.627  22.695  11.005
69754W        W42014  33.424  24.308   0.963
69755W        W42015  14.802  11.191   3.611
69756W        W42016   8.247   2.774  14.265
69757W        W42017   5.833  29.551  10.247
69758W        W42018  15.055  28.484  10.684
69759W        W42019  29.921   0.855  13.611
69760W        W42020  24.018  25.297   4.623
69761W        W42021  14.975  29.926   4.206
69762W        W42022  39.546  14.232  11.635
69763W        W42023  32.036   1.763   0.473
69764W        W42024  14.481  43.753  14.863
69765W        W42025  23.219  44.796   0.370
69766W        W42026  11.382  16.557  11.749
69767W        W42027  40.300  41.349   5.009
69768W        W42028  12.797  23.986   1.816
69769W        W42029   3.483   7.169  13.478
69770W        W42030  22.719  20.162  11.877
69771W        W42031  30.106  10.087   0.884
69772W        W42032  31.022   4.932   1.377
69773W        W42033  38.030  35.246  11.967
69774W        W42034  25.920   7.354  13.034
69775W        W42035   2.705   9.875   0.884
69776W        W42036   5.749   0.198   2.341
69777W        W42037  27.085  13.873  11.798
69778W        W42038  41.269  12.583   3.355
69779W        W42039   7.639   6.764  10.643
69780W        W42040  34.699  44.932  10.526
69781W        W42041  33.151   0.516  11.153
69782W        W42042  18.074  41.487   4.179
69783W        W42043  13.639  29.119  14.419
69784W        W42044   9.879   4.948   3.745
69785W        W42045   3.399   2.151  14.637
69786W        W42046   1.221  19.425  12.556
69787W        W42047  28.667  39.910  13.919
69788W        W42048   7.796   3.795  10.568
69789W        W42049   0.766  17.295  11.119
69790W        W42050  23.724  13.855  11.534
69791W        W42051  31.565  18.079  10.789
69792W        W42052   8.462   6.428   0.671
69793W        W42053  16.200   1.560  14.928
69794W        W42054  39.272  17.259  12.047
69795W        W42055  32.439  21.229  14.390
69796W        W42056  31.943   4.098   0.589
69797W        W42057  30.738  28.201  14.423
69798W        W42058  32.692   6.882   1.878
69799W        W42059  23.925  11.241  13.492
69800W        W42060  21.498  22.659   1.250
69801W        W42061   9.168  12.981   3.312
69802W        W42062  34.117  43.137   4.052
69803W        W42063  25.222   9.727   1.583
69804W        W42064  27.683  24.018   2.765
69805W        W42065  16.743  25.514  13.372
69806W        W42066  35.032  26.268   4.815
69807W        W42067  40.116   0.536   4.589
69808W        W42068  11.784  26.302  10.765
69809W        W42069  28.581  28.474   0.810
69810W        W42070  36.456  13.683   4.318
69811W        W42071  30.430  18.045   1.269
69812W        W42072  23.731  16.802   3.763
69813W        W42073   5.820  35.268   4.062
69814W        W42074  10.827  44.277  11.115
69815W        W42075  22.215   9.872  11.605
69816W        W42076  17.470   9.738  11.746
69817W        W42077  22.286  43.498  12.005
69818W        W42078  19.827  38.501   4.306
69819W        W42079  31.150  10.303   2.700
69820W        W42080  13.646   7.250  11.959
69821W        W42081  38.191   2.632  13.060
69822W        W42082  44.546  28.065   0.412
69823W        W42083  31.049  15.608  13.831
69824W        W42084  21.502   2.171   0.368
69825W        W42085   6.235  11.244   1.435
69826W        W42086  10.785  44.229   1.682
69827W        W42087   7.441  25.041  14.274
69828W        W42088  21.599  13.368   0.395
69829W        W42089  34.381  35.334   4.196
69830W        W42090  12.323  23.746   1.729
69831W        W42091   7.104   6.917   0.340
69832W        W42092  37.515   3.861  12.008
69833W        W42093  38.306  36.015   3.160
69834W        W42094  37.918  39.424   4.933
69835W        W42095  11.754  31.053  13.608
69836W        W42096  25.487  23.390  14.890
69837W        W42097   5.368  30.972  11.101
69838W        W42098  23.595  34.154  10.616
69839W        W42099  31.559  41.198  10.775
69840W        W42100  24.732  20.461   2.299
69841W        W42101  25.468  32.325  11.573
69842W        W42102  42.049  18.741   3.874
69843W        W42103   0.482  39.585   2.950
69844W        W42104  10.718  36.264  14.411
69845W        W42105   4.245   4.692  14.782
69846W        W42106  23.659   9.169  12.860
69847W        W42107  43.229   8.915  12.875
69848W        W42108  35.062  36.449   3.119
69849W        W42109   2.800  24.277   0.432
69850W        W42110  11.161  26.886   0.052
69851W        W42111  31.541  23.305  14.442
69852W        W42112  28.388  42.315   1.223
69853W        W42113  10.713  16.002  13.734
69854W        W42114  18.630  17.563   0.812
69855W        W42115  36.633  38.456  10.646
69856W        W42116  39.120  22.787   3.676
69857W        W42117   7.426   5.710   0.783
69858W        W42118   2.040  43.460   0.259
69859W        W42119  41.777  33.405  13.363
69860W        W42120   7.093  26.984   0.495
69861W        W42121  31.437  39.632  12.518
69862W        W42122  25.976  34.665   0.140
69863W        W42123  11.063   6.751  11.457
69864W        W42124  16.084  24.729   3.156
69865W        W42125  16.131  32.861   4.527
69866W        W42126   8.371  16.361  13.380
69867W        W42127  39.478  10.749   1.761
69868W        W42128  44.681  19.450   4.108
69869W        W42129  16.983   1.375  13.045
69870W        W42130   1.941  20.456  10.715
69871W        W42131  43.709   9.416  11.701
69872W        W42132  13.140  23.202  12.081
69873W        W42133   7.072  23.175  11.084
69874W        W42134  20.568  26.333   4.057
69875W        W42135   2.834  28.332  12.486
69876W        W42136  20.574  27.945   4.560
69877W        W42137  23.414  41.978  10.720
69878W        W42138  12.323  27.107   2.245
69879W        W42139  14.614  18.759   0.873
69880W        W42140  36.818  16.075  11.650
69881W        W42141  28.242  27.091   2.910
69882W        W42142  12.758   3.525   3.350
69883W        W42143  12.301  15.372   4.453
69884W        W42144  14.273  42.238   0.028
69885W        W42145   7.972  43.246  14.785
69886W        W42146  35.787   5.403   3.258
69887W        W42147   1.017  31.503  11.078
69888W        W42148  38.401  12.220   3.088
69889W        W42149  37.591   3.493   1.471
69890W        W42150  41.849   0.531   2.224
69891W        W42151  13.600  19.116   4.894
69892W        W42152  13.305  32.091  11.132
69893W        W42153  36.514  44.243  10.654
69894W        W42154  16.624  25.890  10.713
69895W        W42155   9.723   6.651  13.545
69896W        W42156  40.356   9.123  13.843
69897W        W42157  25.706  15.524  13.401
69898W        W42158  13.849  42.552   3.252
69899W        W42159  43.945  38.818   0.499
69900W        W42160  29.980  32.070   2.845
69901W        W42161  10.739   6.800   4.490
69902W        W42162  19.549  25.042   3.304
69903W        W42163  31.934  29.911   1.999
69904W        W42164  33.953   7.224  10.586
69905W        W42165  37.702  12.606  14.447
69906W        W42166   2.360  30.082   2.596
69907W        W42167  12.164  30.313  13.983
69908W        W42168   6.449  33.552   0.839
69909W        W42169   2.780  20.029   3.741
69910W        W42170  22.997   2.707   2.912
69911W        W42171  36.335   0.459   3.844
69912W        W42172  14.718  24.149  12.893
69913W        W42173  14.053  42.756  13.144
69914W        W42174  21.516  29.724   3.847
69915W        W42175   7.295  10.336  13.428
69916W        W42176  12.236  20.074  13.343
69917W        W42177  13.275  44.433  10.726
69918W        W42178   7.727   5.774  14.514
69919W        W42179   4.913  10.620   2.374
69920W        W42180  15.829   4.638  10.098
69921W        W42181  42.799  20.474  10.103
69922W        W42182  44.174  35.879  11.832
69923W        W42183  30.472   5.564  11.539
69924W        W42184  33.586  17.139   3.317
69925W        W42185  32.468  13.426  14.615
69926W        W42186  11.619  44.827   3.435
69927W        W42187   6.665  23.081   3.703
69928W        W42188  18.726  22.266  13.451
69929W        W42189  41.072  38.923   3.704
69930W        W42190  19.734  13.902   3.265
69931W        W42191  17.561  31.258  12.964
69932W        W42192  19.979  35.386   0.966
69933W        W42193  17.127  17.655   0.228
69934W        W42194   6.293  26.248  11.104
69935W        W42195  27.202   7.247   2.491
69936W        W42196   8.837  26.028  14.482
69937W        W42197  25.411  32.847  11.415
69938W        W42198  38.116  32.188   0.211
69939W        W42199  33.951  23.767  12.349
69940W        W42200   9.096  35.505   1.840
69941W        W42201  16.732  27.560  12.447
69942W        W42202   8.486  24.066   5.008
69943W        W42203  24.987   0.703   4.628
69944W        W42204  36.000  17.694  12.072
69945W        W42205   2.239  19.596   4.203
69946W        W42206  36.115  10.327  12.425
69947W        W42207  29.134  10.540  13.507
69948W        W42208   6.842  41.036   2.211
69949W        W42209   5.158  39.454   1.803
69950W        W42210   4.212  30.657  11.473
69951W        W42211   3.270  39.894  14.968
69952W        W42212  23.236   6.629  13.400
69953W        W42213  11.494   5.188  13.134
69954W        W42214  23.996  23.229   3.675
69955W        W42215  14.036  19.105   3.317
69956W        W42216  38.330  38.514  12.360
69957W        W42217  28.669  20.862   0.774
69958W        W42218  11.235  17.640   2.447
69959W        W42219  12.935  27.097  14.490
69960W        W42220  19.022  21.765  12.870
69961W        W42221  43.545  18.772  11.119
69962W        W42222  10.740  36.123   5.038
69963W        W42223  27.378  26.873   1.051
69964W        W42224  30.520  29.576  10.423
69965W        W42225  15.043  34.637  10.069
69966W        W42226  42.664  19.769  10.647
69967W        W42227  42.896  24.918   2.610
69968W        W42228  40.793  41.571  12.504
69969W        W42229   1.086  23.966   4.594
69970W        W42230  41.362  14.714   1.987
69971W        W42231  37.848  43.400  13.305
69972W        W42232  14.445   8.486  11.033
69973W        W42233  24.502  31.068   2.902
69974W        W42234  37.090  26.525   1.217
69975W        W42235  13.292  27.869  12.254
69976W        W42236  28.008  43.344  14.080
69977W        W42237  16.421  14.655  14.395
69978W        W42238  43.780  44.961   1.875
69979W        W42239  26.453  27.702  14.090
69980W        W42240  12.599  24.263  12.982
69981W        W42241  27.943  37.885   0.570
69982W        W42242  25.160  13.613  12.552
69983W        W42243  38.812  40.195  11.129
69984W        W42244  40.770  35.037   5.148
69985W        W42245  26.708  13.750   3.838
69986W        W42246  36.372  24.416  11.039
69987W        W42247  40.525  22.039   0.184
69988W        W42248  12.842   0.674  13.125
69989W        W42249  30.893  42.953   3.637
69990W        W42250  25.389  23.675  10.304
69991W        W42251   9.898  23.245   2.913
69992W        W42252   8.961  44.725   1.826
69993W        W42253  19.314  36.261  13.266
69994W        W42254   1.443  14.368   3.173
69995W        W42255   1.691   0.337   1.301
69996W        W42256  25.259  42.945  13.882
69997W        W42257   5.793   3.519  13.360
69998W        W42258  31.098  34.120  12.011
69999W        W42259   5.359  28.963  12.463
70000W        W42260  44.520  44.705   0.086
70001W        W42261   4.795  41.581  12.976
70002W        W42262  13.324  44.969  10.670
70003W        W42263  27.468   5.431   0.341
70004W        W42264   9.570  26.843   2.187
70005W        W42265  42.949   9.236  13.961
70006W        W42266  38.555  10.238  12.360
70007W        W42267  19.652   9.188  13.562
70008W        W42268   5.879  39.003   2.366
70009W        W42269  15.310  23.180  11.655
70010W        W42270  23.431   1.731  11.972
70011W        W42271   1.479  33.540  13.441
70012W        W42272  32.929  44.784  13.952
70013W        W42273  11.218   8.730   2.617
70014W        W42274  35.407   1.295  11.380
70015W        W42275  22.034   2.698  10.908
70016W        W42276   4.327  16.141   4.075
70017W        W42277  17.691   6.243   5.133
70018W        W42278  39.007  42.024  13.305
70019W        W42279  41.527  20.520   2.706
70020W        W42280  19.456  22.555   3.017
70021W        W42281   4.744  27.385  13.034
70022W        W42282  39.891  15.894  10.702
70023W        W42283   3.264  25.922   2.716
70024W        W42284  22.631  27.699   4.615
70025W        W42285  35.035  19.730  10.208
70026W        W42286   6.748  24.967   1.230
70027W        W42287  33.965  35.138   4.500
70028W        W42288  35.423  37.770   4.292
70029W        W42289  29.693  12.223   1.832
70030W        W42290  15.556   1.347   0.730
70031W        W42291   7.889  15.761  14.083
70032W        W42292  37.335  14.178  13.572
70033W        W42293   3.567  18.787   5.098
70034W        W42294  15.774   1.745   0.450
70035W        W42295  33.412  39.559   3.108
70036W        W42296  26.975   4.358   2.310
70037W        W42297  10.219  18.271  14.461
70038W        W42298  33.021  33.567   1.250
70039W        W42299  24.932   6.375   2.935
70040W        W42300  23.031   2.647  11.220
70041W        W42301  30.074   7.119  13.350
70042W        W42302  10.659  17.506  13.898
70043W        W42303  37.892  20.932  14.091
70044W        W42304  43.715  30.109  14.026
70045W        W42305  43.339  19.884  13.016
70046W        W42306   7.202  19.545   4.072
70047W        W42307   8.307   3.194   1.648
70048W        W42308  26.122  27.133   3.843
70049W        W42309   4.415  27.801   3.644
70050W        W42310   0.815  39.214  13.718
70051W        W42311   2.282  38.561  14.209
70052W        W42312  44.555  10.828  12.579
70053W        W42313  13.109  39.499   4.600
70054W        W42314  31.692   7.340  10.978
70055W        W42315  20.061  33.401   1.232
70056W        W42316  25.076  20.041  11.654
70057W        W42317  40.938  22.119   3.251
70058W        W42318  13.820  11.112   0.519
70059W        W42319   7.189  20.646  14.296
70060W        W42320  19.624  21.184  13.888
70061W        W42321  32.678  42.742  14.976
70062W        W42322   6.768   3.113   4.922
70063W        W42323  36.467  36.335  14.431
70064W        W42324  42.346  31.491   4.120
70065W        W42325  17.630  14.123   0.070
70066W        W42326  18.665  13.802   0.427
70067W        W42327   6.401   4.345  11.671
70068W        W42328  33.624  15.601  11.543
70069W        W42329  10.586  34.942  13.615
70070W        W42330  29.428  40.097  13.028
70071W        W42331  37.459   0.927   2.818
70072W        W42332  25.765   9.603   2.605
70073W        W42333  22.467  42.067   0.079
70074W        W42334  24.550   8.238   1.048
70075W        W42335  27.180  38.767   3.667
70076W        W42336  14.300  20.273   2.048
70077W        W42337  43.386  26.825   4.762
70078W        W42338  19.703  29.527  14.393
70079W        W42339  44.524  31.804  13.332
70080W        W42340  20.642  18.840   5.123
70081W        W42341  16.617   4.932   4.293
70082W        W42342  35.603   9.337   4.234
70083W        W42343  14.853   1.259  14.804
70084W        W42344  40.289  18.280   0.660
70085W        W42345  40.512  34.872  14.465
70086W        W42346   6.217  13.133   1.130
70087W        W42347  17.244  25.500   3.601
70088W        W42348   0.941  31.167   3.120
70089W        W42349   0.477  11.604   1.042
70090W        W42350   7.212  18.718   0.563
70091W        W42351  35.931  10.442   3.884
70092W        W42352   8.759  13.779   3.864
70093W        W42353  23.080  41.570   3.054
70094W        W42354   7.704  34.491  13.442
70095W        W42355  42.819  12.707   0.530
70096W        W42356  12.314  19.764  11.594
70097W        W42357   9.622  17.666  13.841
70098W        W42358   0.672  21.240   3.614
70099W        W42359   7.148  30.179  14.029
70100W        W42360   9.364  20.027  13.872
70101W        W42361  19.222  23.972   1.668
70102W        W42362  29.295  37.360  12.044
70103W        W42363  28.710  16.743   2.393
70104W        W42364  11.070   1.301   3.564
70105W        W42365   4.416  36.141  11.994
70106W        W42366  21.792  31.677  11.589
70107W        W42367  37.540   1.686   2.409
70108W        W42368  18.010  13.211  11.188
70109W        W42369  19.087  21.801   0.915
70110W        W42370  19.594   4.885  12.416
70111W        W42371  43.439  24.990  14.825
70112W        W42372  10.940  42.011  14.499
70113W        W42373  29.980  43.610  14.945
70114W        W42374  14.513   4.369   0.695
70115W        W42375  17.758  32.032   2.904
70116W        W42376  27.999  32.760  11.038
70117W        W42377  33.615  39.691   1.716
70118W        W42378  34.370  26.853  14.426
70119W        W42379   3.409  36.377  12.654
70120W        W42380   9.611  40.930  10.854
70121W        W42381  20.080  16.360   1.437
70122W        W42382   1.655   3.327  11.140
70123W        W42383  30.715   6.654   3.258
70124W        W42384  24.003  22.645  11.628
70125W        W42385  22.110  29.692  13.024
70126W        W42386   9.784  43.889   0.730
70127W        W42387  41.823   8.743   1.481
70128W        W42388  13.060  18.041  12.896
70129W        W42389  23.660  13.584  14.836
70130W        W42390  30.434  22.439  14.712
70131W        W42391   3.382   8.283   2.979
70132W        W42392  39.561  26.981   0.184
70133W        W42393  25.878  20.958   3.721
70134W        W42394  41.767  41.096   1.678
70135W        W42395  12.365  19.045   1.288
70136W        W42396  11.913  11.877   1.782
70137W        W42397   2.168  11.142  10.409
70138W        W42398  39.058  25.795  11.642
70139W        W42399  27.367  26.600  14.388
70140W        W42400  25.219  23.573  11.848
70141W        W42401  35.151  32.953  14.859
70142W        W42402   5.881  44.830   0.470
70143W        W42403  36.105  21.046   3.316
70144W        W42404  22.700  19.906   1.537
70145W        W42405  29.473  44.205  12.148
70146W        W42406   1.808  31.790  11.127
70147W        W42407   1.363  36.954  10.533
70148W        W42408  20.304   2.322   1.951
70149W        W42409  34.031  20.527   1.874
70150W        W42410  42.460  16.661  11.522
70151W        W42411  18.554   8.344   5.061
70152W        W42412  41.990  41.831  11.241
70153W        W42413  18.650  34.771   5.155
70154W        W42414  14.194  39.523   2.322
70155W        W42415  37.848  28.381  12.919
70156W        W42416  43.735  31.685  13.810
70157W        W42417  12.973  27.789  10.638
70158W        W42418   5.481  17.627  11.494
70159W        W42419  44.457  34.001   0.799
70160W        W42420   9.798  31.894  14.980
70161W        W42421   2.866  13.197   4.996
70162W        W42422  40.598  38.510   0.135
70163W        W42423   7.282  12.836   1.260
70164W        W42424  21.647  43.777   2.836
70165W        W42425  14.344   5.717   2.809
70166W        W42426  41.552  32.030   0.650
70167W        W42427  33.322  27.557  11.134
70168W        W42428  38.624   7.910  11.796
70169W        W42429  43.465  29.803  11.766
70170W        W42430  40.731   7.760   1.826
70171W        W42431  27.024  41.361  10.063
70172W        W42432  36.822  28.143   4.400
70173W        W42433  22.924  23.978   3.818
70174W        W42434  38.608  35.512   1.272
70175W        W42435  41.303  12.595  11.149
70176W        W42436  42.275  33.521  14.389
70177W        W42437  23.654  35.919   2.331
70178W        W42438  26.627  30.075  13.745
70179W        W42439  12.859  33.618  14.876
70180W        W42440   1.370  31.872  11.999
70181W        W42441  18.537  26.972   4.156
70182W        W42442  38.027   8.407   0.912
70183W        W42443  39.669   9.756   4.982
70184W        W42444  44.960  28.983   0.271
70185W        W42445  11.187  12.383   1.663
70186W        W42446   1.585  26.225  14.538
70187W        W42447   2.211   5.162  11.289
70188W        W42448  25.607   2.747  13.072
70189W        W42449  44.052  14.325   3.712
70190W        W42450  17.523   8.591  10.186
70191W        W42451  20.545  34.505   3.457
70192W        W42452  31.843   4.174  12.666
70193W        W42453  22.642   6.899   3.922
70194W        W42454   1.371   1.737  11.372
70195W        W42455  16.165  23.203  14.977
70196W        W42456  17.104  31.578  14.768
70197W        W42457   4.405  37.352   3.214
70198W        W42458  23.575  11.288   2.477
70199W        W42459  44.245  23.678   3.255
70200W        W42460  23.287  18.749   3.125
70201W        W42461  39.729  38.638   1.796
70202W        W42462  19.101  17.321   0.854
70203W        W42463  17.197   6.260  12.515
70204W        W42464  22.433   3.917   0.934
70205W        W42465   1.673  39.887  11.419
70206W        W42466  20.553  43.282   0.034
70207W        W42467   0.398  26.967  14.110
70208W        W42468   3.911  27.544  11.099
70209W        W42469  23.233  13.116  13.989
70210W        W42470   3.203  20.780   2.104
70211W        W42471  26.737   2.290   5.092
70212W        W42472  37.299  14.828  11.297
70213W        W42473   6.213  17.273   0.785
70214W        W42474  29.339   8.747  11.612
70215W        W42475  17.108  11.758   1.306
70216W        W42476  30.699  21.991  12.384
70217W        W42477  19.930  39.008   2.183
70218W        W42478   8.206   1.631   3.584
70219W        W42479  24.512  21.288  14.905
70220W        W42480   3.825  11.053  12.124
70221W        W42481  13.205  29.052   4.814
70222W        W42482  29.446  36.312   1.843
70223W        W42483  13.814  14.614   4.179
70224W        W42484   2.240  40.994   3.301
70225W        W42485  15.191  41.930  12.743
70226W        W42486  19.114   8.817   0.763
70227W        W42487  12.749   5.765   2.890
70228W        W42488  20.263  43.780  11.711
70229W        W42489  16.882  42.418   1.344
70230W        W42490   5.079  28.571   9.405
70231W        W42491  31.714   7.646   0.655
70232W        W42492  39.786  26.117   4.008
70233W        W42493  25.245   9.328  13.518
70234W        W42494   8.645  14.758  12.446
70235W        W42495  43.556  10.288  14.102
70236W        W42496   7.120  32.414   1.939
70237W        W42497   8.446  41.079  12.293
70238W        W42498  35.848  20.424   5.137
70239W        W42499  23.948  14.132   3.611
70240W        W42500   6.717   5.860   1.374
70241W        W42501  26.927  25.575   3.784
70242W        W42502  34.259  21.739  12.971
70243W        W42503  14.287  26.014  10.472
70244W        W42504  13.500  36.319   0.744
70245W        W42505  17.722  11.659  12.388
70246W        W42506  15.228  15.287   1.875
70247W        W42507  27.005   2.721   1.262
70248W        W42508  44.125  16.898   0.989
70249W        W42509  35.748  20.756   4.761
70250W        W42510  36.481  14.672  13.599
70251W        W42511   5.616   2.944   1.224
70252W        W42512  11.879  11.703   4.944
70253W        W42513  16.542  17.943   0.876
70254W        W42514  22.284  23.750  12.989
70255W        W42515  10.856   7.223  11.433
70256W        W42516  12.876  22.245  12.892
70257W        W42517  27.844  27.063   0.907
70258W        W42518  39.424  31.623  10.664
70259W        W42519  30.648  29.304  11.383
70260W        W42520  14.208  16.839   2.763
70261W        W42521  37.357  19.586  13.700
70262W        W42522  15.653   9.550   1.993
70263W        W42523  35.153  40.016  14.638
70264W        W42524   1.482   6.220   3.360
70265W        W42525  35.485  14.407   3.305
70266W        W42526  34.412   5.843  10.759
70267W        W42527  18.144  22.723   3.424
70268W        W42528  11.238   2.961   0.530
70269W        W42529  33.444  29.576   4.637
70270W        W42530  34.347  10.058  12.507
70271W        W42531  24.902  28.535   4.472
70272W        W42532  31.822   7.933   3.092
70273W        W42533  21.391  35.363   4.916
70274W        W42534  38.825  12.881  13.543
70275W        W42535  14.132  44.287   1.239
70276W        W42536  21.444  18.843   1.721
70277W        W42537   8.895  22.465   2.186
70278W        W42538  10.324   0.443  11.930
70279W        W42539   7.917  23.761  13.986
70280W        W42540  25.988   5.440  12.463
70281W        W42541  31.047  27.615  12.002
70282W        W42542  42.466   8.268   2.521
70283W        W42543   0.436   8.639  11.152
70284W        W42544  37.515   2.913   1.638
70285W        W42545  32.145  29.634  14.744
70286W        W42546   0.214   8.342  11.564
70287W        W42547   1.177  22.162  12.608
70288W        W42548  32.936   0.360   0.349
70289W        W42549  36.302  24.216   4.011
70290W        W42550   9.891   1.740   1.400
70291W        W42551  41.545  35.214  10.817
70292W        W42552  20.269  29.993  14.847
70293W        W42553  38.288   9.774  12.487
70294W        W42554  11.960  30.042   0.683
70295W        W42555  31.715  38.796   3.284
70296W        W42556  23.230  12.279  11.439
70297W        W42557   8.609  41.541   1.273
70298W        W42558  15.029   2.249  11.514
70299W        W42559  27.998  20.734   0.770
70300W        W42560  27.569  33.062   2.815
70301W        W42561  31.196  24.312  11.084
70302W        W42562  26.348  24.825   1.350
70303W        W42563  38.583  19.036  10.566
70304W        W42564   8.368  13.257  13.365
70305W        W42565  29.539  40.445  11.847
70306W        W42566  34.045  27.651  14.035
70307W        W42567   9.740  25.637  12.074
70308W        W42568  10.736  18.235  14.048
70309W        W42569  32.686   2.997  13.955
70310W        W42570  37.369  21.020  10.588
70311W        W42571   7.554  34.324  10.318
70312W        W42572  10.268  19.131   1.791
70313W        W42573  41.517  18.812   0.333
70314W        W42574  44.965  37.540   1.503
70315W        W42575   6.237  35.058   4.572
70316W        W42576  14.464   4.499   3.634
70317W        W42577  13.331  22.175   1.685
70318W        W42578  24.907  22.098   1.419
70319W        W42579   5.644   4.292  13.745
70320W        W42580  36.020  36.936   2.877
70321W        W42581  37.133   9.433   2.344
70322W        W42582  29.581  43.779   0.218
70323W        W42583  20.154  40.937   3.707
70324W        W42584   3.925  42.074   4.149
70325W        W42585  43.022  18.119   3.164
70326W        W42586  17.823  37.955   3.909
70327W        W42587   9.358  44.748  12.805
70328W        W42588  29.529  18.303   3.727
70329W        W42589  12.891   8.444  10.741
70330W        W42590  15.341  24.212   0.485
70331W        W42591   0.537  17.848   2.812
70332W        W42592  11.189  26.195  14.005
70333W        W42593  26.082  34.170  13.424
70334W        W42594  42.166  15.808  14.519
70335W        W42595  25.499   8.538  14.149
70336W        W42596  21.745   2.418  12.446
70337W        W42597  43.787  28.127  14.355
70338W        W42598  28.158  21.997  10.089
70339W        W42599   6.689  38.827  12.398
70340W        W42600  24.907   2.955   5.051
70341W        W42601  17.222   1.199  12.572
70342W        W42602   3.477   8.955   4.220
70343W        W42603  31.318  17.391   0.633
70344W        W42604  22.705  19.249  10.587
70345W        W42605  37.996  31.655  12.942
70346W        W42606  15.438  34.451   0.891
70347W        W42607  21.597  34.525  13.293
70348W        W42608  35.113  34.108  13.402
70349W        W42609  33.146  20.660   2.728
70350W        W42610  12.194   6.387  14.053
70351W        W42611   0.363  11.031  10.703
70352W        W42612  17.173   9.575   2.679
70353W        W42613  25.732   3.225  11.936
70354W        W42614  33.940  35.925  11.993
70355W        W42615   3.682  29.013   4.230
70356W        W42616  24.954  28.733  11.982
70357W        W42617  24.093  19.574  10.643
70358W        W42618  12.794   7.405  11.576
70359W        W42619  35.617  17.298   3.189
70360W        W42620  37.620   6.961  14.411
70361W        W42621   1.884  13.528  14.385
70362W        W42622  21.117   0.547  14.532
70363W        W42623   7.831   0.229  12.007
70364W        W42624   3.275  44.830  14.506
70365W        W42625  34.848  14.539   3.649
70366W        W42626  10.218  13.707  12.316
70367W        W42627  11.198  17.335  13.968
70368W        W42628  21.276   0.687  10.401
70369W        W42629  35.958  19.062   0.271
70370W        W42630  39.911  27.979  11.209
70371W        W42631  14.988   4.868  12.382
70372W        W42632  25.189  12.823   3.689
70373W        W42633   2.258  16.797   4.149
70374W        W42634   8.197  38.317   4.566
70375W        W42635  10.451  34.989   4.920
70376W        W42636  28.695  40.892  13.771
70377W        W42637   8.761   8.770   3.879
70378W        W42638  43.809  37.111  13.890
70379W        W42639  22.221   7.438   2.869
70380W        W42640  25.861  39.509  12.584
70381W        W42641  10.148  41.272   0.372
70382W        W42642  25.020  11.073  12.424
70383W        W42643  11.053  41.968  10.663
70384W        W42644  19.069   7.952   1.066
70385W        W42645  10.347   2.367  11.416
70386W        W42646   5.493  16.250  12.064
70387W        W42647  38.110  40.093  13.593
70388W        W42648   6.006  34.322   3.432
70389W        W42649  24.671   7.471  14.936
70390W        W42650  13.225  24.232  11.246
70391W        W42651   1.858  35.350  12.563
70392W        W42652  38.546  18.389  11.008
70393W        W42653  36.595  14.227  11.641
70394W        W42654  41.540  42.469  13.519
70395W        W42655  40.108  21.601  13.429
70396W        W42656  23.208  37.819  11.230
70397W        W42657  19.173  30.643  10.825
70398W        W42658  23.601  15.790   0.464
70399W        W42659  24.073  11.129   1.702
70400W        W42660  13.360  25.916   2.352
70401W        W42661  27.591  16.358  10.418
70402W        W42662  22.621  34.329   0.885
70403W        W42663  14.146  42.382  10.890
70404W        W42664  37.888  39.707  14.030
70405W        W42665  11.273  30.234  13.388
70406W        W42666  40.532  10.896   1.914
70407W        W42667  33.527  20.370  11.941
70408W        W42668   9.905   4.483  14.513
70409W        W42669   6.221  20.303  13.045
70410W        W42670  35.070  30.918  12.408
70411W        W42671  16.127   5.397  10.566
70412W        W42672   5.717  20.041  11.919
70413W        W42673  26.192  24.061   2.795
70414W        W42674   3.237  19.528  12.503
70415W        W42675  43.446   4.004  13.404
70416W        W42676  21.457  16.003  14.240
70417W        W42677  32.909   3.629   5.038
70418W        W42678  27.744  25.287  11.298
70419W        W42679  25.432  26.679   5.019
70420W        W42680  28.438  17.594   0.143
70421W        W42681  29.980  10.491   0.261
70422W        W42682  41.436   6.140  10.605
70423W        W42683   7.442  39.951   3.241
70424W        W42684   1.474  15.090   1.523
70425W        W42685  38.869   9.793   0.882
70426W        W42686  41.012  17.595  13.610
70427W        W42687  24.130  19.040   5.138
70428W        W42688  16.092  29.180   1.898
70429W        W42689  23.583   5.194   2.244
70430W        W42690   4.461  27.527   9.889
70431W        W42691  11.178  37.519  14.979
70432W        W42692   0.768   2.357  10.930
70433W        W42693  17.192   6.316   0.284
70434W        W42694  39.420   5.321   2.571
70435W        W42695  35.596   8.890   3.138
70436W        W42696   3.924   1.911  12.588
70437W        W42697  15.894  40.516   1.129
70438W        W42698  40.663   5.585   9.853
70439W        W42699  11.830  35.524  14.050
70440W        W42700  42.423   3.583  14.347
70441W        W42701  28.461  44.526   0.012
70442W        W42702   7.794  28.269  12.855
70443W        W42703  25.413   5.708  12.984
70444W        W42704  38.961  34.945  11.323
70445W        W42705   5.479   7.413   3.822
70446W        W42706   6.736  10.757   3.473
70447W        W42707  43.503   6.325  11.652
70448W        W42708  33.982  32.099   3.283
70449W        W42709   6.152  39.082   1.514
70450W        W42710   6.461  26.962  11.683
70451W        W42711   2.256  39.148  12.099
70452W        W42712   5.792  43.076   1.469
70453W        W42713  34.076  32.531   4.368
70454W        W42714  30.095  39.388  12.982
70455W        W42715  37.071  10.194  13.055
70456W        W42716  28.845   0.887  10.966
70457W        W42717  42.311  25.370  11.906
70458W        W42718  41.267  35.060  14.281
70459W        W42719  34.649  17.716  13.499
70460W        W42720  21.047  13.385   1.262
70461W        W42721  33.508  39.512   4.426
70462W        W42722  32.502   0.169   4.877
70463W        W42723  11.142  10.425  12.297
70464W        W42724  26.037  20.054   1.873
70465W        W42725  29.014  14.866   4.534
70466W        W42726  34.794   0.782  13.272
70467W        W42727  17.948  40.863   2.673
70468W        W42728  12.418  18.765  14.468
70469W        W42729  35.593  23.237   2.761
70470W        W42730   2.159  29.138   2.988
70471W        W42731  41.746  14.162   3.157
70472W        W42732  17.817  29.723  11.239
70473W        W42733   3.914   0.170  14.327
70474W        W42734  11.347   2.320  11.332
70475W        W42735  40.979   2.418   3.775
70476W        W42736  33.465  40.013   0.495
70477W        W42737  15.512  40.241  11.650
70478W        W42738  14.499  30.101   4.138
70479W        W42739  21.552   4.873   0.745
70480W        W42740  31.509  34.116  12.974
70481W        W42741   0.941  18.907  12.441
70482W        W42742   3.751  18.118   2.533
70483W        W42743  21.734  30.368   4.592
70484W        W42744   9.946  12.606   3.624
70485W        W42745   2.443  24.238   1.776
70486W        W42746   5.400  25.492  14.977
70487W        W42747  44.507  37.170  11.604
70488W        W42748  13.685  32.915   0.491
70489W        W42749  11.467   2.444   4.107
70490W        W42750  12.644  44.413   1.625
70491W        W42751   6.230  17.243  14.895
70492W        W42752  19.547  29.921   3.307
70493W        W42753  41.532  44.303   2.559
70494W        W42754   0.298  31.136  14.499
70495W        W42755  38.839  18.466   2.850
70496W        W42756  21.325   7.221   4.644
70497W        W42757  23.587  22.541   0.438
70498W        W42758   2.539  36.050   4.556
70499W        W42759   0.841  14.266   0.397
70500W        W42760  13.342   4.722  10.555
70501W        W42761  19.958  30.689  12.769
70502W        W42762  34.369   5.287  13.545
70503W        W42763  28.547   6.302   3.666
70504W        W42764  43.578  25.170   3.324
70505W        W42765  38.672  14.609  14.004
70506W        W42766  41.942  11.062   0.975
70507W        W42767  35.293  25.455   0.274
70508W        W42768  31.628  26.985   0.897
70509W        W42769  19.697  25.495   4.544
70510W        W42770  40.920  10.387   3.623
70511W        W42771  26.442  32.575  13.895
70512W        W42772  12.357  42.767  10.584
70513W        W42773  18.779  34.861   2.827
70514W        W42774  28.239   0.915   0.094
70515W        W42775   9.169  17.681   1.145
70516W        W42776   4.892  30.517  11.848
70517W        W42777  19.847  43.093  11.724
70518W        W42778  10.690  33.594   3.179
70519W        W42779   1.608  40.926   1.186
70520W        W42780  30.975   6.911  10.693
70521W        W42781  18.797   1.847   0.565
70522W        W42782  13.859  40.934   1.938
70523W        W42783  35.290   2.186  11.205
70524W        W42784   4.397   0.966   0.007
70525W        W42785  10.720  44.102  14.260
70526W        W42786  42.828  18.349  13.696
70527W        W42787  22.541  38.135  13.981
70528W        W42788  40.511  44.851  11.615
70529W        W42789   8.461  43.004  11.230
70530W        W42790  20.222   9.096  13.437
70531W        W42791  42.813  38.076   0.777
70532W        W42792  31.230  38.672   3.208
70533W        W42793  37.837   5.727  10.496
70534W        W42794   2.851   1.298  13.981
70535W        W42795  16.141  39.248   3.593
70536W        W42796  17.769  34.291  12.063
70537W        W42797  35.795   8.728  10.928
70538W        W42798  36.193   6.213   3.171
70539W        W42799   2.770  41.306   1.378
70540W        W42800  35.835   8.582   3.905
70541W        W42801   4.400  29.048  12.102
70542W        W42802  12.085  43.934   2.305
70543W        W42803  21.438  18.077   0.575
70544W        W42804   5.929  41.893   3.205
70545W        W42805  22.605  25.896   0.381
70546W        W42806  10.243  37.999   0.785
70547W        W42807   4.037  37.874  13.989
70548W        W42808  30.850   7.225   0.277
70549W        W42809  22.427   0.135   2.948
70550W        W42810   3.983  15.430   0.421
70551W        W42811   6.748  30.495   2.727
70552W        W42812  21.332  38.634   3.156
70553W        W42813   1.612  38.723   1.734
70554W        W42814   6.067  28.583   9.814
70555W        W42815  30.955   9.000   1.846
70556W        W42816  17.252  17.918  12.983
70557W        W42817  39.746  32.397  14.205
70558W        W42818  38.071  37.255   3.205
70559W        W42819  28.384  44.298   4.494
70560W        W42820   2.759  30.562  11.647
70561W        W42821   8.771  24.684  13.820
70562W        W42822  44.297  12.819   0.887
70563W        W42823  24.183  37.469   2.338
70564W        W42824  42.319  29.803  14.331
70565W        W42825  27.393   8.695  11.576
70566W        W42826  25.058  41.227  11.631
70567W        W42827   3.224  17.131   2.754
70568W        W42828  42.925   8.122  14.498
70569W        W42829   3.846  19.742   3.189
70570W        W42830  42.193  39.007  14.104
70571W        W42831  35.181  21.318   9.662
70572W        W42832  34.018  30.038   2.348
70573W        W42833  30.239  40.183  14.467
70574W        W42834  23.997   4.938  10.663
70575W        W42835  23.698  14.345  11.539
70576W        W42836  27.332  29.732  11.520
70577W        W42837  34.106  21.253  13.665
70578W        W42838  35.528  44.025   3.810
70579W        W42839   1.796  37.591  14.788
70580W        W42840   2.440  27.701  13.016
70581W        W42841  16.050  32.527   3.718
70582W        W42842  20.481  39.825   1.342
70583W        W42843  33.990  24.960  14.507
70584W        W42844  17.212  10.769  10.852
70585W        W42845   2.342   7.854  11.442
70586W        W42846  11.829   7.463  14.212
70587W        W42847   6.760   5.727   0.450
70588W        W42848  35.037  39.456  11.428
70589W        W42849  15.551  26.575   2.263
70590W        W42850  44.765  35.603   4.751
70591W        W42851   6.805   2.297   2.282
70592W        W42852  10.665   9.725  11.754
70593W        W42853  16.796   9.655   3.614
70594W        W42854  23.187  40.802  13.818
70595W        W42855  17.002   6.764   9.777
70596W        W42856  30.506  22.354   3.238
70597W        W42857   5.480  43.553  12.005
70598W        W42858   2.230  36.128   1.274
70599W        W42859  13.823  39.833   4.780
70600W        W42860  21.089   5.745  13.769
70601W        W42861  34.336  41.143   2.657
70602W        W42862  20.654   1.805  12.041
70603W        W42863   8.783   0.817  11.138
70604W        W42864  22.181  36.365  11.975
70605W        W42865  40.759  17.571   0.090
70606W        W42866  44.917  35.184  14.497
70607W        W42867  34.413  20.610   1.064
70608W        W42868   9.893  11.749  12.959
70609W        W42869  43.818  29.850  12.690
70610W        W42870  13.454  20.771  12.508
70611W        W42871   3.383   8.832  11.907
70612W        W42872  17.041  38.521  14.028
70613W        W42873  15.826  25.183  12.440
70614W        W42874  20.579   4.878   1.190
70615W        W42875  38.203   0.951   1.359
70616W        W42876   7.815  14.072   1.153
70617W        W42877  41.355   5.282  13.800
70618W        W42878  30.665  34.636  10.720
70619W        W42879  35.793  11.754  13.378
70620W        W42880  23.090  20.752  14.211
70621W        W42881  14.364  24.798  11.166
70622W        W42882  11.460  23.256   3.158
70623W        W42883  33.192  11.655   1.329
70624W        W42884  30.333  13.709   2.424
70625W        W42885  25.828  20.158  14.484
70626W        W42886  10.519  26.197   0.901
70627W        W42887  20.802   0.803   0.504
70628W        W42888  29.489  26.700   0.341
70629W        W42889  39.496  29.433   2.262
70630W        W42890   3.438   3.225  10.458
70631W        W42891  10.810  18.246  12.398
70632W        W42892  20.611  28.886   0.804
70633W        W42893  14.264  29.465  14.807
70634W        W42894  24.550  39.553   0.379
70635W        W42895   3.441  37.907  12.126
70636W        W42896  22.498  33.122   2.112
70637W        W42897  11.430   0.773  11.376
70638W        W42898  13.178  22.676  12.961
70639W        W42899   7.288   7.781  14.938
70640W        W42900  12.251  17.627   4.899
70641W        W42901  37.934  42.406   0.763
70642W        W42902  18.480  20.381   4.712
70643W        W42903  33.997  35.381  12.881
70644W        W42904  10.665  18.229  12.987
70645W        W42905  29.378  32.384   4.659
70646W        W42906  28.720   9.176  14.835
70647W        W42907   9.329  35.473  11.914
70648W        W42908   8.713   7.847   3.398
70649W        W42909  21.131  40.294   4.972
70650W        W42910  27.134  11.897   2.289
70651W        W42911  44.450   4.739  14.511
70652W        W42912   6.120   9.142  13.539
70653W        W42913  13.781  32.551  11.267
70654W        W42914  34.689  36.837   0.445
70655W        W42915  24.425  37.601  10.272
70656W        W42916  23.647  20.570  14.018
70657W        W42917  15.061   7.409   4.204
70658W        W42918   7.606   8.904   4.129
70659W        W42919  42.853  18.065  12.842
70660W        W42920  32.216  38.886   3.424
70661W        W42921  11.714   6.427   0.303
70662W        W42922  23.783  36.651   4.159
70663W        W42923  12.953  11.494  12.949
70664W        W42924  18.652  20.170   1.987
70665W        W42925  37.744   2.630  12.808
70666W        W42926  21.360  38.144   2.452
70667W        W42927   4.757  15.306  11.267
70668W        W42928  41.008  16.550  13.401
70669W        W42929  17.626  31.946   0.275
70670W        W42930   5.909  40.236  12.100
70671W        W42931  23.138  18.573  10.198
70672W        W42932  16.840  25.448  10.944
70673W        W42933  28.930  24.789  12.078
70674W        W42934  34.773   3.441   3.941
70675W        W42935  15.087  26.960  13.829
70676W        W42936  42.378  20.151  11.719
70677W        W42937  16.772   1.475   4.711
70678W        W42938   7.239  22.213  14.337
70679W        W42939  37.348   1.819  12.447
70680W        W42940  16.041  31.026  14.080
70681W        W42941  28.869   0.632   1.264
70682W        W42942  36.403  20.057  11.416
70683W        W42943   2.164  38.409   0.817
70684W        W42944  13.632  34.383  14.761
70685W        W42945  31.143  34.317  13.847
70686W        W42946  18.560  13.227   1.189
70687W        W42947   6.362  21.237  11.001
70688W        W42948  44.572   1.264   2.411
70689W        W42949  25.596  28.615   0.437
70690W        W42950  26.435  25.611   2.553
70691W        W42951   5.524  10.589  13.505
70692W        W42952  27.976  16.788  14.512
70693W        W42953  38.459  19.140   2.875
70694W        W42954   7.395  34.137  12.554
70695W        W42955  43.263  17.092  10.382
70696W        W42956  27.550  41.993  12.010
70697W        W42957  27.304  23.058   1.134
70698W        W42958  40.811   3.883   3.504
70699W        W42959   6.975  19.310  12.156
70700W        W42960  36.093  44.855  12.666
70701W        W42961  15.171  27.568  10.729
70702W        W42962  43.978   4.141   4.637
70703W        W42963   8.087  30.027  13.262
70704W        W42964  28.022   6.276   1.001
70705W        W42965  40.384   8.262  13.428
70706W        W42966  32.937  22.357   0.799
70707W        W42967  41.943  39.074   3.766
70708W        W42968   6.703  28.962   4.629
70709W        W42969  14.392  14.011   2.804
70710W        W42970   1.844   6.501  12.775
70711W        W42971  38.937  30.632   0.882
70712W        W42972  10.786  35.955   2.593
70713W        W42973  12.368   8.736   4.007
70714W        W42974  12.437  10.465  11.118
70715W        W42975  23.824  26.383   5.092
70716W        W42976  31.386  12.223  11.064
70717W        W42977  19.679  11.140   0.955
70718W        W42978  36.912  35.976  14.901
70719W        W42979  10.167  17.079   2.633
70720W        W42980  12.669  30.996   0.806
70721W        W42981  15.629  31.435  14.632
70722W        W42982  30.360   1.295   2.268
70723W        W42983  41.081  36.652   1.204
70724W        W42984  28.244  37.391  14.751
70725W        W42985  10.419  18.830   2.919
70726W        W42986   5.205  33.650  10.305
70727W        W42987  41.565  36.307   2.023
70728W        W42988   1.164  13.259  14.345
70729W        W42989  44.767   0.841   3.812
70730W        W42990  31.023  40.160  11.375
70731W        W42991  26.131   6.421   3.903
70732W        W42992  23.478  11.319  11.667
70733W        W42993  31.623   1.467   0.315
70734W        W42994  13.098  27.637  11.818
70735W        W42995  19.995   1.975   4.351
70736W        W42996  20.284  32.287   1.738
70737W        W42997  20.652  42.322  13.160
70738W        W42998   5.611  19.604  14.521
70739W        W42999  19.127  12.359  14.879
70740W        W43000  40.477  38.142   2.882
70741W        W43001   8.691  17.325   4.065
70742W        W43002  25.872   8.964   3.819
70743W        W43003  18.356  41.016  11.930
70744W        W43004  24.120  25.875   9.846
70745W        W43005  43.950  13.716   2.363
70746W        W43006  37.045  30.895  12.499
70747W        W43007  40.756  17.613   3.325
70748W        W43008   8.817  32.447   4.669
70749W        W43009   4.503  42.731  12.435
70750W        W43010   2.427  35.574   3.749
70751W        W43011  18.730   9.721   2.385
70752W        W43012   6.151  26.070  12.411
70753W        W43013   4.770  15.999   1.859
70754W        W43014  22.902  27.046   3.294
70755W        W43015  40.019  30.161  11.578
70756W        W43016  28.470  38.481   0.908
70757W        W43017   0.211  16.224  11.350
70758W        W43018  32.906  12.251  12.355
70759W        W43019   4.711  25.431   1.389
70760W        W43020  15.276  12.438   3.691
70761W        W43021  39.160  18.126   2.647
70762W        W43022  25.497  24.049   4.387
70763W        W43023   7.314  40.239  10.557
70764W        W43024  26.468  38.026   2.657
70765W        W43025   6.950  28.009   4.555
70766W        W43026  14.779  17.939   5.560
70767W        W43027  24.016  11.424   2.760
70768W        W43028   0.546  19.055   1.905
70769W        W43029   1.770  23.757   1.711
70770W        W43030  16.202  26.767   2.867
70771W        W43031  40.206  19.236  11.230
70772W        W43032   9.763  37.580  13.102
70773W        W43033  36.044  32.628  12.905
70774W        W43034  44.496  35.025  10.746
70775W        W43035   9.477  24.477   4.157
70776W        W43036  16.957  29.661   2.485
70777W        W43037  37.834  20.439   3.036
70778W        W43038  10.542  10.886   4.547
70779W        W43039  40.637  27.974   1.650
70780W        W43040  18.626  39.877  11.773
70781W        W43041  41.876   8.616  10.642
70782W        W43042  17.509  32.578  12.135
70783W        W43043   3.297  18.965   3.182
70784W        W43044  20.216  37.865   0.481
70785W        W43045  38.835   7.621  13.023
70786W        W43046  28.318  21.061  10.245
70787W        W43047  13.416  39.865   0.939
70788W        W43048   9.303  29.160   2.184
70789W        W43049  38.278  11.683   3.231
70790W        W43050  40.018  20.000   0.860
70791W        W43051  28.385  39.039  13.031
70792W        W43052   1.401  43.306   0.668
70793W        W43053  35.525  24.543  10.652
70794W        W43054  15.271  44.722   4.580
70795W        W43055  25.180  17.964   1.393
70796W        W43056  28.261   3.584  10.076
70797W        W43057  15.161  28.924   0.502
70798W        W43058  21.124  13.301  14.776
70799W        W43059  31.141  39.699   1.187
70800W        W43060   9.837  34.125   1.811
70801W        W43061   6.622  40.402  12.269
70802W        W43062  19.652  44.361   2.908
70803W        W43063  39.886   9.599  11.595
70804W        W43064  44.362   3.406   3.895
70805W        W43065  27.713  18.750   1.743
70806W        W43066  43.461  17.373  14.357
70807W        W43067  24.116  42.735   0.903
70808W        W43068  43.340   2.360  11.206
70809W        W43069   3.705  38.994   1.333
70810W        W43070   2.806  18.569  14.009
70811W        W43071  33.192  28.101   1.504
70812W        W43072  39.979  43.086   3.809
70813W        W43073  30.651  20.201  14.394
70814W        W43074  15.233  35.791   2.923
70815W        W43075  13.365  40.832  14.787
70816W        W43076  40.887  30.990   0.335
70817W        W43077  24.978  44.567   3.189
70818W        W43078   4.557  18.126  11.059
70819W        W43079  38.085  17.317  14.344
70820W        W43080  42.299  14.894  14.924
70821W        W43081  31.195  25.977   2.575
70822W        W43082  17.796  31.119   1.633
70823W        W43083  40.275  19.862   2.969
70824W        W43084  11.193  40.108   0.904
70825W        W43085  17.978  12.760   1.082
70826W        W43086  27.709  30.684   3.714
70827W        W43087  36.933   8.214   1.420
70828W        W43088  10.596  42.547  11.609
70829W        W43089  23.532   6.191   2.536
70830W        W43090   6.382  32.959   1.344
70831W        W43091  26.263  21.482  14.972
70832W        W43092   8.220  10.461   3.644
70833W        W43093  42.738  43.430  11.231
70834W        W43094  44.324  37.027  12.494
70835W        W43095  37.500  26.705  12.833
70836W        W43096   6.690  15.052  11.694
70837W        W43097   1.982  29.713   1.498
70838W        W43098   3.255  24.411  11.831
70839W        W43099  21.535   3.828  14.417
70840W        W43100  24.590   4.274  13.649
70841W        W43101  43.422  39.742  10.492
70842W        W43102  24.649  33.468  12.876
70843W        W43103  11.806  44.925  11.838
70844W        W43104   2.745  10.178  13.820
70845W        W43105   2.252   5.963   2.534
70846W        W43106  15.154  40.967  11.588
70847W        W43107  16.353  23.713  11.199
70848W        W43108   0.137  22.136   1.478
70849W        W43109  24.589  37.171  10.703
70850W        W43110  25.063  32.882   0.806
70851W        W43111  16.519  44.438   2.157
70852W        W43112  17.729  42.007  12.988
70853W        W43113  40.987  38.324   4.656
70854W        W43114  21.090  15.336  11.217
70855W        W43115  11.795  26.938   1.554
70856W        W43116  20.613  41.855  14.877
70857W        W43117   1.795  23.913  11.725
70858W        W43118  24.994   7.588  11.110
70859W        W43119  18.591   8.978   4.374
70860W        W43120  44.016  33.925   1.736
70861W        W43121   2.870   1.688   0.944
70862W        W43122  11.668  41.200  12.887
70863W        W43123   1.433  12.799   1.821
70864W        W43124  44.702  42.845  13.850
70865W        W43125   1.507   2.693   0.953
70866W        W43126   9.111  14.674   4.126
70867W        W43127   4.029  31.063  11.171
70868W        W43128  24.166   6.959  13.404
70869W        W43129  23.475   3.911   1.901
70870W        W43130  28.881  32.134   0.353
70871W        W43131   3.999  40.993  10.987
70872W        W43132  40.276  29.041   3.824
70873W        W43133  44.232   9.799   3.219
70874W        W43134  28.542  43.419   3.034
70875W        W43135  26.596  38.150  12.147
70876W        W43136  16.085  31.353  11.939
70877W        W43137  17.974   9.200  11.865
70878W        W43138  28.874  16.617  12.059
70879W        W43139  18.546   7.346   1.738
70880W        W43140  25.935  11.055  14.332
70881W        W43141  19.335  32.350   2.241
70882W        W43142  30.010  37.064   4.741
70883W        W43143  43.294  10.679   4.823
70884W        W43144  14.525  42.333   1.837
70885W        W43145  31.175   8.984   2.331
70886W        W43146  42.582  25.031  14.841
70887W        W43147  30.218  21.858  12.501
70888W        W43148  39.062  11.687  11.603
70889W        W43149  14.756   4.971   2.337
70890W        W43150  18.873   5.755   4.602
70891W        W43151  18.611  21.142   1.483
70892W        W43152  11.275   6.037  13.188
70893W        W43153  31.639  27.730   2.533
70894W        W43154  34.836  35.689   3.701
70895W        W43155  12.173  37.199   3.198
70896W        W43156  22.269  23.817  12.022
70897W        W43157  39.859  23.511  13.733
70898W        W43158  18.194   0.396   2.717
70899W        W43159  12.286  24.620   2.610
70900W        W43160  24.158  31.676  11.920
70901W        W43161  34.480  28.774   2.621
70902W        W43162  30.686  43.820   3.772
70903W        W43163  26.945  28.880  11.105
70904W        W43164  26.025  15.655   4.978
70905W        W43165  19.706  20.608  11.452
70906W        W43166  26.600  11.315   4.876
70907W        W43167  35.778   4.229  12.874
70908W        W43168   5.752   8.353  12.489
70909W        W43169  32.902  11.845  11.982
70910W        W43170  12.452  23.682   3.041
70911W        W43171   4.719  41.524   1.438
70912W        W43172  25.163  31.318  10.987
70913W        W43173  38.941  39.904   3.682
70914W        W43174   7.281  43.079  10.681
70915W        W43175  37.254   4.383  10.835
70916W        W43176   3.541  18.206   1.370
70917W        W43177  23.648   2.193   4.282
70918W        W43178  36.052  25.967   0.826
70919W        W43179  41.570  41.372  11.624
70920W        W43180  16.781  42.570  12.804
70921W        W43181  39.301  25.963   4.184
70922W        W43182  41.817  18.912   3.457
70923W        W43183   6.352  36.451   2.305
70924W        W43184  34.105  26.139   3.175
70925W        W43185  13.094  18.404  13.377
70926W        W43186  28.570  11.605   1.916
70927W        W43187  21.384  23.549  10.606
70928W        W43188  40.102  10.183   0.737
70929W        W43189  40.152  13.120  11.199
70930W        W43190  23.414  15.830  11.387
70931W        W43191  18.858   6.395   1.639
70932W        W43192  31.026  14.248  10.567
70933W        W43193  36.551  44.722  13.878
70934W        W43194   6.138  20.692   2.669
70935W        W43195   3.956  18.552   2.731
70936W        W43196  12.098   1.727   4.159
70937W        W43197  43.839  11.920  11.192
70938W        W43198   3.692  37.928   0.536
70939W        W43199  44.916  19.173  13.492
70940W        W43200  14.527  20.638  13.831
70941W        W43201   1.568  33.017   1.265
70942W        W43202  18.750  36.814   1.266
70943W        W43203  16.316  43.255   2.349
70944W        W43204  39.035   5.111   0.728
70945W        W43205  23.641   4.406  13.516
70946W        W43206  37.541  42.690  14.442
70947W        W43207  27.557  25.022  10.411
70948W        W43208   7.147  31.863   0.837
70949W        W43209  37.473  43.185  14.276
70950W        W43210  28.255  38.322   0.230
70951W        W43211   9.053   4.331   4.079
70952W        W43212  34.779  40.292   4.583
70953W        W43213  33.572  38.063  13.091
70954W        W43214  36.278   4.324   4.147
70955W        W43215   9.602  21.812   2.596
70956W        W43216  30.954  27.230  12.965
70957W        W43217  13.114  20.976   1.284
70958W        W43218   3.955  21.331   1.617
70959W        W43219  19.858  32.504  12.567
70960W        W43220  28.026   6.239   0.491
70961W        W43221  14.963  29.904  11.392
70962W        W43222  34.367  33.510   0.025
70963W        W43223  18.818  35.500  11.517
70964W        W43224  16.676   1.085   3.732
70965W        W43225  26.418  26.441   4.855
70966W        W43226  25.761   7.943  10.772
70967W        W43227  27.182   4.683  10.293
70968W        W43228  11.648  27.062   2.702
70969W        W43229  18.119  31.087   1.034
70970W        W43230   3.416   7.718   4.191
70971W        W43231  23.609  35.315  14.245
70972W        W43232  35.062  37.598  11.120
70973W        W43233   7.642  41.061   4.019
70974W        W43234  43.008  41.823   3.299
70975W        W43235  21.062  17.829   2.851
70976W        W43236  41.012  18.743   0.393
70977W        W43237  34.361  10.774  12.023
70978W        W43238  11.572  16.087  11.635
70979W        W43239  11.598  20.599  12.731
70980W        W43240  21.745  33.369   3.219
70981W        W43241  31.075   2.683   0.325
70982W        W43242  30.948  12.215   4.371
70983W        W43243   7.628  19.070  11.489
70984W        W43244  15.649  16.394  14.881
70985W        W43245  37.089   9.264   3.388
70986W        W43246   6.264   3.316   0.828
70987W        W43247   2.797  24.671  10.745
70988W        W43248  25.216  22.983   3.370
70989W        W43249  30.413  19.512   1.859
70990W        W43250  29.388  32.039   0.337
70991W        W43251  43.938  22.459  12.064
70992W        W43252  35.322   9.327   1.457
70993W        W43253   1.237  20.756  11.738
70994W        W43254   0.473   8.669  12.666
70995W        W43255  35.223   6.187   3.212
70996W        W43256   3.857  32.682   4.140
70997W        W43257  28.094  38.620  13.054
70998W        W43258  17.369  25.201   4.949
70999W        W43259  30.650  42.389   4.767
71000W        W43260  14.317  18.056   5.280
71001W        W43261  21.131  17.800  12.477
71002W        W43262   0.632  15.899   0.441
71003W        W43263  35.068  11.764   3.510
71004W        W43264  12.693  11.161  12.001
71005W        W43265  40.296  27.647  12.013
71006W        W43266  31.432  27.076   4.864
71007W        W43267  26.488  11.380  14.757
71008W        W43268  25.458  27.209  11.705
71009W        W43269  40.975  24.765   4.105
71010W        W43270   2.474  28.672   3.096
71011W        W43271  30.127   7.966  12.698
71012W        W43272   3.006  23.646   4.386
71013W        W43273  10.292  40.099   0.924
71014W        W43274  31.448  10.914  12.095
71015W        W43275   8.192  44.446   2.220
71016W        W43276  40.745  32.474  14.550
71017W        W43277   1.656  12.300  13.606
71018W        W43278   5.385  11.270  12.921
71019W        W43279  43.799  39.225   4.540
71020W        W43280  23.216  36.869   1.277
71021W        W43281  39.319  29.063  10.958
71022W        W43282  27.113  28.499   4.364
71023W        W43283  23.491   7.349  12.788
71024W        W43284  22.178  24.015   1.768
71025W        W43285  36.314  26.492   9.743
71026W        W43286  28.901  17.625   2.813
71027W        W43287   7.437  33.891   0.043
71028W        W43288  38.475  25.758  11.987
71029W        W43289  25.935  38.469  13.498
71030W        W43290  34.696  11.658   1.193
71031W        W43291  11.743  42.975   2.301
71032W        W43292  41.676  43.508   2.297
71033W        W43293  40.502   7.666   4.757
71034W        W43294   7.291  44.403  12.686
71035W        W43295  41.755  41.759   4.866
71036W        W43296  14.081  16.837  13.134
71037W        W43297  28.642  16.776  14.691
71038W        W43298  21.702  44.092   3.651
71039W        W43299  27.600   5.783   4.961
71040W        W43300  20.559  15.499  10.467
71041W        W43301  23.983  19.601   1.075
71042W        W43302  43.385  32.435   0.453
71043W        W43303  11.274  16.758  14.012
71044W        W43304  12.616  22.526   0.825
71045W        W43305  21.248  35.495   0.465
71046W        W43306  14.267   2.440   3.055
71047W        W43307  33.285  38.185  14.514
71048W        W43308  33.956  14.567   3.319
71049W        W43309  37.120  15.611  13.786
71050W        W43310  10.811  12.353  13.568
71051W        W43311  39.435  41.285  11.614
71052W        W43312  44.737  35.093   0.494
71053W        W43313  17.707  38.939   0.348
71054W        W43314   9.863  31.440   4.651
71055W        W43315   3.785  15.905   0.368
71056W        W43316  12.750  31.429   2.996
71057W        W43317  15.780  30.446   0.724
71058W        W43318  16.367  36.456  10.940
71059W        W43319  43.751   7.141  12.445
71060W        W43320  33.878   7.743   1.922
71061W        W43321   4.402  28.077  11.910
71062W        W43322  38.084  37.765   2.400
71063W        W43323  40.494  39.586   4.617
71064W        W43324  38.061  13.711  11.850
71065W        W43325  32.487   0.717   3.367
71066W        W43326  17.811  27.060  11.753
71067W        W43327  19.680  13.532  14.432
71068W        W43328  38.876  36.919   3.242
71069W        W43329  30.004  35.049   3.588
71070W        W43330   7.807   9.795  14.505
71071W        W43331  31.742   4.419   4.585
71072W        W43332  31.901  17.159  13.307
71073W        W43333   9.153  44.504  14.746
71074W        W43334  15.675  24.842  10.354
71075W        W43335  15.885  43.943  14.462
71076W        W43336   7.931  24.932   3.821
71077W        W43337  27.307  15.570  12.675
71078W        W43338  26.007  21.718  14.552
71079W        W43339  30.109  21.062  14.513
71080W        W43340  29.382  42.050   3.571
71081W        W43341  38.293  40.067  14.204
71082W        W43342  15.970   9.749  13.536
71083W        W43343  23.705  40.996  13.008
71084W        W43344  29.918  20.590  11.583
71085W        W43345  23.052   2.487  11.720
71086W        W43346  43.347  15.880  13.978
71087W        W43347   3.403  31.606  12.680
71088W        W43348  25.531   2.079   5.030
71089W        W43349   8.610  21.033   4.188
71090W        W43350  43.443  25.508  14.809
71091W        W43351   6.347  41.046   4.154
71092W        W43352  24.979  32.161  11.555
71093W        W43353  41.754  15.244  10.723
71094W        W43354   8.338  26.169   2.318
71095W        W43355  33.432  30.151   0.319
71096W        W43356  27.689  20.220   1.853
71097W        W43357  36.821  23.470  13.957
71098W        W43358  34.100  36.934  10.737
71099W        W43359  18.108  33.094   2.854
71100W        W43360  32.832   4.231   1.488
71101W        W43361  44.031   5.844  12.211
71102W        W43362  17.755   2.701   3.761
71103W        W43363  18.016   0.492  14.030
71104W        W43364  24.458  20.087  11.190
71105W        W43365  22.547   9.339   2.810
71106W        W43366  12.427  11.613  11.946
71107W        W43367  27.592  41.797  14.317
71108W        W43368  18.216  30.157   3.266
71109W        W43369  17.845  43.778   0.870
71110W        W43370  19.560  25.531  13.007
71111W        W43371  43.823  13.213   2.426
71112W        W43372  32.039  11.710   0.018
71113W        W43373   6.373  31.716  12.538
71114W        W43374  42.977  18.452   4.074
71115W        W43375  17.194   9.864  10.368
71116W        W43376  33.359  23.928   5.040
71117W        W43377  25.199  10.168   2.327
71118W        W43378  40.492  41.962   2.396
71119W        W43379  21.084  37.325  13.411
71120W        W43380  18.184  26.399   3.144
71121W        W43381   7.204  19.457   2.128
71122W        W43382   9.151   3.207   0.839
71123W        W43383  27.052   0.158  11.146
71124W        W43384  23.691  24.211   4.897
71125W        W43385  40.159  40.401  14.193
71126W        W43386   2.017  25.095  10.113
71127W        W43387  23.194   1.477   0.836
71128W        W43388  33.136  22.499   2.462
71129W        W43389  39.226   4.954  13.600
71130W        W43390  22.497   0.102   0.940
71131W        W43391   9.240  33.593  12.018
71132W        W43392  27.752  21.774   2.789
71133W        W43393  16.608  13.904   3.235
71134W        W43394  34.087  40.994  13.697
71135W        W43395  35.338   5.796   1.960
71136W        W43396  30.215   5.268  13.020
71137W        W43397  36.357  32.679  10.790
71138W        W43398  31.363  23.599   1.260
71139W        W43399  36.072   7.248   3.579
71140W        W43400  31.904   4.967  12.906
71141W        W43401   3.811  44.211   3.192
71142W        W43402  22.163   3.460   0.975
71143W        W43403  14.892  42.362   3.344
71144W        W43404  29.116  42.155  13.536
71145W        W43405  10.760  10.165  10.523
71146W        W43406  43.820  25.086   1.288
71147W        W43407  30.616   7.904   1.316
71148W        W43408  30.168  38.433  12.043
71149W        W43409   6.132   2.982  11.533
71150W        W43410   6.386  40.761  14.467
71151W        W43411  11.334  16.872   3.370
71152W        W43412   5.609  29.103   1.957
71153W        W43413  31.662  23.657  11.359
71154W        W43414  21.737  38.448   4.585
71155W        W43415  35.952  39.585   1.670
71156W        W43416   8.875   2.715  12.000
71157W        W43417  10.085  18.947  13.556
71158W        W43418   1.747  43.976  12.451
71159W        W43419  30.783  33.048  13.443
71160W        W43420  17.560  15.669  13.801
71161W        W43421  39.937   8.442  11.065
71162W        W43422   5.970   0.870  11.043
71163W        W43423  40.965  29.302   3.825
71164W        W43424  32.574   8.109   3.569
71165W        W43425  31.549  25.986  10.545
71166W        W43426  17.734  30.235  12.160
71167W        W43427   7.364  39.142  11.110
71168W        W43428   7.494  37.901   0.738
71169W        W43429  42.787  33.445  14.384
71170W        W43430  42.353  19.106  13.303
71171W        W43431  40.032  35.285   1.218
71172W        W43432  29.331  28.307   1.329
71173W        W43433  23.613  19.846   0.148
71174W        W43434  32.099   8.651  13.402
71175W        W43435   2.615  39.019   2.833
71176W        W43436  30.169  10.238   4.824
71177W        W43437  33.002  27.151   0.709
71178W        W43438  25.026   1.988   4.922
71179W        W43439  28.055  14.283  10.567
71180W        W43440  32.324  10.783   2.886
71181W        W43441  42.029  44.120   4.071
71182W        W43442  35.032   7.186  13.419
71183W        W43443   0.245  39.430   4.379
71184W        W43444  26.691   9.143   1.832
71185W        W43445  30.875  26.983   3.318
71186W        W43446  25.903  22.897  11.991
71187W        W43447  32.431   0.463   1.686
71188W        W43448  11.240  43.152  14.941
71189W        W43449  30.902  18.348   2.970
71190W        W43450   1.591  29.432  12.490
71191W        W43451  16.108  15.531  14.354
71192W        W43452  42.340  25.026   1.270
71193W        W43453  18.602  22.755   1.871
71194W        W43454  35.901  18.109   9.855
71195W        W43455  11.563  37.945  10.663
71196W        W43456  40.379  42.833  12.943
71197W        W43457  11.984  30.261   5.052
71198W        W43458  21.118  33.899  11.937
71199W        W43459  42.119   8.311   3.940
71200W        W43460  17.566  34.999   0.184
71201W        W43461   3.447  24.511   0.884
71202W        W43462  26.739  26.988   1.733
71203W        W43463  15.665  29.831  11.971
71204W        W43464  33.629  21.012   5.160
71205W        W43465  31.387  15.155  13.034
71206W        W43466  40.683   9.906  12.813
71207W        W43467  33.024   8.849   3.761
71208W        W43468  18.328   7.461  11.569
71209W        W43469  18.078  29.759   0.302
71210W        W43470   5.040  13.367   1.391
71211W        W43471  38.867  31.122   2.410
71212W        W43472  28.101  14.748   2.936
71213W        W43473  36.066  11.300   0.866
71214W        W43474  14.318  35.157   4.677
71215W        W43475   4.133  20.142   0.625
71216W        W43476   4.240   1.602  11.724
71217W        W43477  11.369  43.381   0.449
71218W        W43478  38.384   8.208  12.140
71219W        W43479  26.135  41.061  13.513
71220W        W43480  24.445   2.890  10.978
71221W        W43481  42.360  20.408   2.594
71222W        W43482   3.459   1.797  14.269
71223W        W43483   7.504   6.215   0.875
71224W        W43484  17.234  21.434  13.521
71225W        W43485  12.225  41.827  13.227
71226W        W43486  15.016  17.128   0.077
71227W        W43487  25.939  35.110  14.409
71228W        W43488  28.952  26.150  11.881
71229W        W43489  35.000  28.923   3.593
71230W        W43490  35.032  26.674   5.144
71231W        W43491   2.014  16.852  14.768
71232W        W43492   4.381  38.713  13.141
71233W        W43493   3.960  42.784   2.920
71234W        W43494  15.624  12.781  12.119
71235W        W43495  28.433  23.199  10.680
71236W        W43496  30.174   3.389  12.193
71237W        W43497  36.873   8.392   2.379
71238W        W43498  39.030  13.130  11.136
71239W        W43499  35.122  23.141  10.702
71240W        W43500  44.955  18.159  13.975
71241W        W43501   4.306  33.545  13.563
71242W        W43502  37.105  34.392   4.103
71243W        W43503   6.444  15.396  11.395
71244W        W43504  44.157   0.032  14.269
71245W        W43505   6.781  37.839   2.020
71246W        W43506  17.599  23.888  13.554
71247W        W43507  35.173  28.419   4.881
71248W        W43508  39.886  23.044   4.521
71249W        W43509   8.291  16.670   4.122
71250W        W43510  30.579  25.550   0.404
71251W        W43511  32.421  12.285   0.371
71252W        W43512   5.716  16.037   4.229
71253W        W43513  43.816  21.178  12.026
71254W        W43514  26.204   9.091   5.048
71255W        W43515  39.025   1.338   3.840
71256W        W43516  18.243  34.020  11.987
71257W        W43517  43.312  15.091   2.876
71258W        W43518  42.508  16.703  12.415
71259W        W43519  38.990  14.700  13.582
71260W        W43520  14.048  12.153  11.584
71261W        W43521  28.745  37.314  14.725
71262W        W43522  41.070   5.389   1.124
71263W        W43523   0.507  23.527   1.361
71264W        W43524  22.159  40.367  12.521
71265W        W43525  11.437  39.449  14.843
71266W        W43526  22.643  34.853  13.459
71267W        W43527   7.721  35.334   0.631
71268W        W43528  11.467  11.695  12.870
71269W        W43529  13.287  40.104   3.169
71270W        W43530   6.189  14.311  10.653
71271W        W43531  13.261  27.065  14.933
71272W        W43532  14.046  11.845   2.260
71273W        W43533  13.545  10.567  11.568
71274W        W43534   9.846  18.744   3.039
71275W        W43535  24.969  25.201   3.293
71276W        W43536   1.579  22.064   3.407
71277W        W43537  16.175  30.653  11.083
71278W        W43538  13.630  16.765   3.405
71279W        W43539  23.095   4.269   1.209
71280W        W43540  15.195  16.866   3.668
71281W        W43541  20.483  16.556   1.722
71282W        W43542  25.480  39.543   0.406
71283W        W43543   9.436  26.384  12.430
71284W        W43544  26.149  26.046  11.966
71285W        W43545  38.325  31.442  14.783
71286W        W43546   7.313  43.197   0.411
71287W        W43547   0.005  37.097  11.885
71288W        W43548  41.774  24.826  14.970
71289W        W43549  27.354  28.557   3.896
71290W        W43550  30.498  39.769  12.213
71291W        W43551  19.322  18.221   0.428
71292W        W43552  29.829  23.994   1.761
71293W        W43553   3.359  13.890   2.857
71294W        W43554  17.231  28.455  13.089
71295W        W43555  33.433  15.518   3.977
71296W        W43556   3.353  33.066  13.612
71297W        W43557  20.058   2.225   3.241
71298W        W43558  30.929  18.051   4.593
71299W        W43559   1.045  32.932   1.256
71300W        W43560   1.654  33.680   3.149
71301W        W43561   1.985  43.726   2.776
71302W        W43562   2.783  22.295   4.782
71303W        W43563  34.961   7.371   2.715
71304W        W43564   7.315  35.515   2.914
71305W        W43565  22.132  10.690  11.984
71306W        W43566  38.851  19.987   3.085
71307W        W43567  20.737   0.918  12.336
71308W        W43568  17.338  40.378  12.004
71309W        W43569  23.462  36.112   4.173
71310W        W43570  20.577  16.058   2.411
71311W        W43571  33.852  35.148   1.922
71312W        W43572  38.491  32.831  14.227
71313W        W43573   4.270  40.347  11.149
71314W        W43574  32.428  20.061  12.205
71315W        W43575   6.212  44.956   0.937
71316W        W43576  19.422  11.786   0.561
71317W        W43577  43.248   2.918   2.149
71318W        W43578  18.342   5.598  10.248
71319W        W43579  37.961  32.370   4.707
71320W        W43580  29.514   4.628  13.156
71321W        W43581  36.521  11.127   2.692
71322W        W43582  12.716   8.572   1.206
71323W        W43583   8.668  22.416   4.500
71324W        W43584  16.661  39.818   0.372
71325W        W43585  25.224  16.764   1.817
71326W        W43586  20.093  28.241  12.196
71327W        W43587  16.447  42.868  12.513
71328W        W43588  21.284   9.648  14.314
71329W        W43589  10.390  35.124   0.901
71330W        W43590  34.792   2.386  14.338
71331W        W43591  34.953   7.241   0.799
71332W        W43592  19.297   1.707  12.882
71333W        W43593  29.097  43.958  12.420
71334W        W43594  15.305  38.922   0.327
71335W        W43595  10.863   2.945   4.292
71336W        W43596  35.561   0.538  12.808
71337W        W43597  26.218  24.076   3.649
71338W        W43598  35.976  11.473   4.210
71339W        W43599   6.377   9.954  11.786
71340W        W43600   2.276  31.031   0.533
71341W        W43601  35.824  29.943   4.086
71342W        W43602  42.026   1.410   1.170
71343W        W43603  12.849  27.835   1.160
71344W        W43604  13.675  25.808  14.444
71345W        W43605  32.191  27.230   1.518
71346W        W43606  15.822   1.904   3.270
71347W        W43607   8.414  36.295   0.483
71348W        W43608  19.283  33.811   0.752
71349W        W43609   9.231  25.196   4.564
71350W        W43610  38.431   3.519  14.824
71351W        W43611  14.097  42.478   3.680
71352W        W43612  27.208  16.658  11.372
71353W        W43613  15.178   6.931  12.885
71354W        W43614   7.410  21.535  12.525
71355W        W43615   6.746   1.748   3.772
71356W        W43616  40.721   3.046   1.483
71357W        W43617  12.814  17.232  14.960
71358W        W43618   9.384  27.225  11.159
71359W        W43619  36.139   4.812  13.967
71360W        W43620  35.943   2.843   0.976
71361W        W43621  33.019  19.963  10.883
71362W        W43622  13.843  14.193  11.057
71363W        W43623  34.886  12.739  14.024
71364W        W43624  41.355  29.397   2.721
71365W        W43625  34.524  26.126   2.410
71366W        W43626  17.702  14.110   2.658
71367W        W43627   4.102   0.321   2.071
71368W        W43628  15.626  23.646  10.600
71369W        W43629  30.088  35.781  13.007
71370W        W43630  36.609  31.720  10.612
71371W        W43631  38.027  16.249   3.571
71372W        W43632   3.920  16.776   2.158
71373W        W43633  21.554  44.265   4.456
71374W        W43634  32.869  32.290   0.923
71375W        W43635  31.758  18.640   3.139
71376W        W43636  37.464  15.623  14.205
71377W        W43637  25.268  37.042  12.054
71378W        W43638  34.077  22.716   4.070
71379W        W43639  15.523  39.075  14.809
71380W        W43640  34.657  18.693   3.701
71381W        W43641   6.276  35.326   3.115
71382W        W43642   5.671   6.447   2.750
71383W        W43643   0.458  13.331  12.563
71384W        W43644  29.236  13.839  13.916
71385W        W43645  21.018  18.604  10.016
71386W        W43646  18.271  20.031   4.212
71387W        W43647  25.692   5.711   1.485
71388W        W43648   6.258  43.361  11.550
71389W        W43649  27.955  31.139  12.032
71390W        W43650  27.109  33.651  11.139
71391W        W43651   5.111   0.022   2.854
71392W        W43652  42.797   1.287   3.303
71393W        W43653   6.475  20.119  12.632
71394W        W43654  11.204  32.199  11.696
71395W        W43655  28.942  30.124   2.209
71396W        W43656   5.437  13.070   3.595
71397W        W43657   9.068  19.022  14.869
71398W        W43658  12.127  11.833   3.739
71399W        W43659  35.930   1.349  11.236
71400W        W43660  36.252   0.717   9.780
71401W        W43661  35.528  25.583   4.119
71402W        W43662  20.776  36.011   0.886
71403W        W43663  21.328  43.760   3.778
71404W        W43664  30.279  38.957  12.624
71405W        W43665  12.321  29.495  14.354
71406W        W43666   1.228  12.364   3.207
71407W        W43667  42.675  24.332   4.034
71408W        W43668   3.224  39.434   4.746
71409W        W43669   8.807   6.306   0.310
71410W        W43670  43.738  20.843   4.097
71411W        W43671  37.533  29.573  12.074
71412W        W43672  15.735   0.249   2.427
71413W        W43673  37.495  42.375  12.906
71414W        W43674  35.069   9.432   0.876
71415W        W43675  27.157  13.793  13.858
71416W        W43676  39.169  44.438  14.813
71417W        W43677  23.523  31.938   9.905
71418W        W43678   5.073  33.503  14.854
71419W        W43679  19.277  38.830  13.394
71420W        W43680   5.928  37.037  13.137
71421W        W43681  40.445  33.603  12.638
71422W        W43682  11.606   4.701   4.561
71423W        W43683   6.628  17.224  12.663
71424W        W43684   3.153   3.360  13.400
71425W        W43685  20.751  31.491  13.273
71426W        W43686  17.892  42.870  10.682
71427W        W43687   0.228   8.621   2.875
71428W        W43688  11.572  29.508   0.897
71429W        W43689  43.898   8.421   2.852
71430W        W43690  13.966  24.793  13.630
71431W        W43691   9.908  33.668   2.711
71432W        W43692  40.639  28.135   4.860
71433W        W43693  19.149  12.123   1.906
71434W        W43694   6.791   5.965  14.041
71435W        W43695   2.784  21.573   3.245
71436W        W43696  41.941   9.764  14.437
71437W        W43697  18.979   4.797   1.153
71438W        W43698  40.215  44.182   3.692
71439W        W43699  35.050  12.793   4.050
71440W        W43700  43.323  30.537  10.558
71441W        W43701  32.088  38.406  13.959
71442W        W43702  32.351  27.967   2.610
71443W        W43703  37.301   6.992  13.699
71444W        W43704  17.558   2.844   1.510
71445W        W43705  27.490  32.949   1.668
71446W        W43706  18.100  39.596  12.202
71447W        W43707  10.668  10.402   4.404
71448W        W43708  27.889  25.368  10.225
71449W        W43709   8.612   5.474   1.027
71450W        W43710   2.982  28.160   0.392
71451W        W43711  31.047  38.128   0.425
71452W        W43712   0.288  36.342  11.451
71453W        W43713  37.078  21.329  13.835
71454W        W43714  20.613  28.090  13.949
71455W        W43715  18.155   0.871  11.137
71456W        W43716  20.143  42.378   3.911
71457W        W43717   2.724  26.677   0.342
71458W        W43718  17.685  28.224  12.903
71459W        W43719  37.841  38.611  12.561
71460W        W43720  31.093  36.369   2.786
71461W        W43721  29.544  34.365  10.740
71462W        W43722  18.516  31.548   4.113
71463W        W43723  26.219  35.260   0.943
71464W        W43724  23.356  32.104   4.579
71465W        W43725  21.928  20.813   1.271
71466W        W43726  44.338  10.991  14.785
71467W        W43727  44.246  18.674   0.994
71468W        W43728   8.725  24.030   3.387
71469W        W43729  20.362  40.635   0.492
71470W        W43730   6.583  14.117  12.364
71471W        W43731  23.111  33.175  14.859
71472W        W43732  17.522  27.600  10.966
71473W        W43733  22.721  34.578   4.814
71474W        W43734   4.858  13.172   0.549
71475W        W43735  28.451  14.515  13.965
71476W        W43736  17.993  30.732  13.887
71477W        W43737  40.926   3.995   1.659
71478W        W43738  19.920   6.946   0.808
71479W        W43739  20.233  28.580  11.856
71480W        W43740  25.638  10.130   2.686
71481W        W43741  18.074  11.584   3.456
71482W        W43742  18.311   6.716  11.943
71483W        W43743  21.131  28.711   3.108
71484W        W43744  25.997  38.937  11.895
71485W        W43745  19.836  29.567  13.310
71486W        W43746  30.115  24.928   3.726
71487W        W43747   9.625  30.120  10.810
71488W        W43748  38.623   2.790   0.343
71489W        W43749  43.945  37.256   4.937
71490W        W43750  34.496  36.470  12.410
71491W        W43751  40.839   8.659   2.386
71492W        W43752  38.890   4.208  11.135
71493W        W43753  23.802  27.918   2.752
71494W        W43754  17.670  42.571  12.429
71495W        W43755  17.127   4.976  12.944
71496W        W43756  18.902  32.480   2.623
71497W        W43757   0.455   7.742   3.410
71498W        W43758  15.106  30.545   1.904
71499W        W43759  35.124  12.345   0.793
71500W        W43760  12.838  31.601   4.034
71501W        W43761   9.150   4.738   0.876
71502W        W43762   8.719  17.213   2.180
71503W        W43763  29.470  10.720   4.527
71504W        W43764  22.717   8.714   3.300
71505W        W43765  20.519   3.578   3.853
71506W        W43766  35.391  12.103  11.210
71507W        W43767   9.814  23.646  13.045
71508W        W43768  17.325   5.302  14.075
71509W        W43769  19.250  18.281   1.951
71510W        W43770   3.676  10.266   3.676
71511W        W43771   7.463   2.312   3.835
71512W        W43772  34.113  11.876   3.157
71513W        W43773  16.077  12.684  11.458
71514W        W43774  32.394  19.697  11.851
71515W        W43775  25.208  10.289   4.145
71516W        W43776  43.047   0.501  12.527
71517W        W43777  21.002  14.314  12.030
71518W        W43778  43.304  26.560  11.854
71519W        W43779   8.229   5.682  14.554
71520W        W43780  18.595   8.335   9.796
71521W        W43781  34.126  28.074   0.429
71522W        W43782  26.713   3.804  14.837
71523W        W43783   3.189  18.023   3.722
71524W        W43784   5.908  30.836   0.964
71525W        W43785  40.364  20.086   2.276
71526W        W43786   6.955  32.460  12.947
71527W        W43787  35.071  30.818   2.083
71528W        W43788  12.857  38.925  10.974
71529W        W43789  26.289  23.459   1.841
71530W        W43790  22.895   5.357   4.419
71531W        W43791  29.879  38.992  10.691
71532W        W43792   9.692  27.572   4.250
71533W        W43793  38.469   7.123   2.730
71534W        W43794  38.805   2.232  11.140
71535W        W43795  35.363   8.644  14.952
71536W        W43796  20.162  24.708  13.125
71537W        W43797  25.507  39.923   4.836
71538W        W43798   4.816  19.265  13.326
71539W        W43799  15.493   1.833  12.422
71540W        W43800   2.770   6.196  11.676
71541W        W43801  33.568  35.864  14.335
71542W        W43802  16.129  20.152   2.358
71543W        W43803  28.617  43.348   3.533
71544W        W43804  41.098  31.010  13.527
71545W        W43805  25.202  42.776   2.316
71546W        W43806  26.927  43.200  11.231
71547W        W43807  32.400  19.488  10.371
71548W        W43808   6.302  28.954   2.754
71549W        W43809   1.442  14.090  11.157
71550W        W43810  18.424  33.766  12.388
71551W        W43811  28.474  41.776  11.520
71552W        W43812   1.256  22.304  14.274
71553W        W43813  40.083  17.578  13.431
71554W        W43814  12.125  22.078   1.349
71555W        W43815   3.872  21.548   4.725
71556W        W43816  34.010  27.160   0.339
71557W        W43817  39.013   0.570   2.222
71558W        W43818  14.574   6.910   3.799
71559W        W43819  30.539  20.145  13.481
71560W        W43820  13.186  20.806  13.757
71561W        W43821  25.638  43.021  10.680
71562W        W43822  19.295  16.366   2.410
71563W        W43823  42.059   0.530   4.166
71564W        W43824  34.309  19.725  10.692
71565W        W43825  20.616  39.477  12.922
71566W        W43826  26.320  36.933   2.822
71567W        W43827  14.536  21.454  13.429
71568W        W43828  19.506   5.397  12.640
71569W        W43829  11.742   8.476   5.251
71570W        W43830   4.345   1.332  11.302
71571W        W43831  16.094  19.559   3.613
71572W        W43832  23.066  21.338   5.512
71573W        W43833  35.198  27.873  11.214
71574W        W43834  41.446  35.585   4.348
71575W        W43835  22.159   2.979   3.726
71576W        W43836  19.005   0.965   1.920
71577W        W43837  15.169  30.379  11.454
71578W        W43838  44.040  11.832   2.708
71579W        W43839  33.490  42.893  11.628
71580W        W43840  18.442   8.946  11.828
71581W        W43841  39.290  42.536  11.981
71582W        W43842   2.821  31.173  14.913
71583W        W43843  43.441  25.479  13.381
71584W        W43844  35.766  11.468   2.847
71585W        W43845  36.565  32.742  12.065
71586W        W43846  31.070  29.148  12.016
71587W        W43847  15.784   3.658  10.696
71588W        W43848  34.850  23.537  13.802
71589W        W43849  10.698  37.946   3.707
71590W        W43850   1.386   5.343  14.181
71591W        W43851  43.040  31.808   4.227
71592W        W43852   2.016  32.551   2.292
71593W        W43853  11.268  25.458   1.923
71594W        W43854  26.649  25.549   2.072
71595W        W43855   7.453  28.056   4.479
71596W        W43856   3.775   7.240   0.611
71597W        W43857  39.228  17.392   0.268
71598W        W43858  16.983   1.262   0.228
71599W        W43859   9.575  12.756   1.971
71600W        W43860  33.388  16.603  10.667
71601W        W43861   5.140  24.273  10.734
71602W        W43862  28.166   6.638  11.616
71603W        W43863  36.345  19.303   1.036
71604W        W43864   7.853  37.886  14.192
71605W        W43865  44.325  44.396   4.079
71606W        W43866  25.653  38.360  10.288
71607W        W43867  36.420   7.400   3.201
71608W        W43868  20.585  38.401  11.613
71609W        W43869  42.443   3.933  10.648
71610W        W43870  36.457  36.032   2.738
71611W        W43871   1.424  12.150  10.969
71612W        W43872  12.669  15.323   4.091
71613W        W43873  37.446  37.130   3.841
71614W        W43874   5.290  16.673  13.962
71615W        W43875  20.574  10.670  11.450
71616W        W43876  34.126  44.863   0.417
71617W        W43877  18.028  20.516  14.384
71618W        W43878  35.587   9.877  10.628
71619W        W43879  21.512  10.649   2.857
71620W        W43880  21.553  14.701  11.617
71621W        W43881   6.765   5.685  14.498
71622W        W43882  32.841  34.013   4.277
71623W        W43883  27.015  36.776  11.063
71624W        W43884  15.706  39.294   3.242
71625W        W43885  15.233   3.363   2.127
71626W        W43886  14.728  33.383  12.153
71627W        W43887  11.192  24.136  10.651
71628W        W43888  16.682   4.372  14.044
71629W        W43889  21.981  18.084  14.507
71630W        W43890  12.635  35.417   3.570
71631W        W43891  26.008  38.899   2.742
71632W        W43892  23.436  14.636  10.777
71633W        W43893  14.347  43.279   2.270
71634W        W43894  22.334  35.561  13.881
71635W        W43895   5.092  29.141   2.041
71636W        W43896   9.943  14.626   4.742
71637W        W43897  10.749   2.985   0.286
71638W        W43898  11.083  24.025  11.985
71639W        W43899  37.338  29.953   2.332
71640W        W43900  19.565  24.657  12.025
71641W        W43901   7.614  35.848   1.365
71642W        W43902  33.467  16.168   4.584
71643W        W43903  35.831  26.271   0.351
71644W        W43904  21.012  24.262   3.724
71645W        W43905  34.636  11.216  12.029
71646W        W43906   0.885  38.492  11.396
71647W        W43907  10.675  29.099  14.772
71648W        W43908  40.451   4.265   3.442
71649W        W43909  15.845  20.575  13.463
71650W        W43910   6.301   6.324   3.344
71651W        W43911  40.968  38.962   2.412
71652W        W43912  17.135   1.716  12.633
71653W        W43913  27.134  17.205  14.351
71654W        W43914  32.486  25.788   0.391
71655W        W43915  22.313  38.833  10.678
71656W        W43916   1.172  17.742   1.435
71657W        W43917  10.771  21.607   1.922
71658W        W43918   9.366  17.787   3.785
71659W        W43919  23.065  26.240   1.780
71660W        W43920  38.414   1.891  12.544
71661W        W43921  16.524  13.817   0.309
71662W        W43922  30.063  39.339   0.162
71663W        W43923  20.740   7.868   4.910
71664W        W43924   0.514  18.928  11.208
71665W        W43925   3.824  28.919   2.515
71666W        W43926  23.639  36.542   0.023
71667W        W43927   0.871  27.392  13.396
71668W        W43928  30.681  10.539  14.144
71669W        W43929  16.066  21.267   4.094
71670W        W43930  37.255  25.053   4.105
71671W        W43931  31.049   2.482  12.412
71672W        W43932  25.015  42.443  10.702
71673W        W43933  31.131  20.225   0.147
71674W        W43934  42.523  28.534  12.473
71675W        W43935  23.500  29.249  12.016
71676W        W43936  29.617  23.793  12.676
71677W        W43937  17.663  32.518  11.551
71678W        W43938  42.243  34.417   3.306
71679W        W43939  28.097  41.928   1.094
71680W        W43940  44.234  38.429  14.235
71681W        W43941  16.773   0.346   4.084
71682W        W43942  11.927  30.811   1.372
71683W        W43943   4.204  43.143  12.426
71684W        W43944  26.115  10.645   4.633
71685W        W43945  37.016   7.906  10.614
71686W        W43946  33.529  27.205  13.404
71687W        W43947  18.060   3.393  13.314
71688W        W43948  44.796  35.029   1.388
71689W        W43949  38.176   1.266  10.455
71690W        W43950  38.721  44.187  14.836
71691W        W43951  33.556  32.695  14.363
71692W        W43952  43.106  10.775   1.523
71693W        W43953  26.705  28.688  13.889
71694W        W43954   7.909  22.436   2.417
71695W        W43955  21.130  28.509   0.278
71696W        W43956  16.629  41.228  14.893
71697W        W43957  34.408  42.718  13.802
71698W        W43958   3.907  44.006  13.555
71699W        W43959  28.010   6.733   3.236
71700W        W43960  23.579  39.751  12.382
71701W        W43961  12.816  32.953  14.385
71702W        W43962  41.540  20.138   3.962
71703W        W43963  42.281  31.143  14.853
71704W        W43964  35.897   4.975  14.784
71705W        W43965  27.466  20.345  12.391
71706W        W43966  24.943  21.559  14.732
71707W        W43967  20.644  29.560   1.427
71708W        W43968  10.220  23.489   3.815
71709W        W43969  43.374  40.277  13.688
71710W        W43970  15.658  32.228   3.573
71711W        W43971  39.603  26.015   0.341
71712W        W43972  31.108   2.181   0.091
71713W        W43973  11.260  28.029  11.037
71714W        W43974  36.620  10.165   2.733
71715W        W43975  12.782  23.487   1.670
71716W        W43976  34.981  40.070   2.326
71717W        W43977  34.978  12.910   4.553
71718W        W43978  29.117  35.774   3.046
71719W        W43979  14.679  17.778   9.610
71720W        W43980  38.103  29.605  10.830
71721W        W43981  21.717  15.242  10.617
71722W        W43982   8.220   3.174   0.835
71723W        W43983  15.209  14.727  11.530
71724W        W43984   2.825  32.629   4.237
71725W        W43985   9.591  29.626  11.120
71726W        W43986  38.016  14.677   2.293
71727W        W43987   3.917  38.201   4.287
71728W        W43988  18.751  22.708  12.818
71729W        W43989  43.932   1.783   3.666
71730W        W43990  43.221  14.726   4.131
71731W        W43991  24.556  12.866  11.423
71732W        W43992  43.243  39.846  11.917
71733W        W43993  26.723  35.577   4.436
71734W        W43994  18.275  26.231   2.276
71735W        W43995   3.209  29.065  12.778
71736W        W43996  28.845  30.182   0.468
71737W        W43997  14.056  32.071   1.289
71738W        W43998  28.025   8.685  14.809
71739W        W43999  31.335   8.507  14.875
71740W        W44000  22.876  32.586  14.375
71741W        W44001  15.127  18.097  14.292
71742W        W44002   7.186  15.887   2.830
71743W        W44003  38.382  37.458  13.766
71744W        W44004  43.548  40.914   3.907
71745W        W44005  23.598  24.224  13.129
71746W        W44006  36.604  39.629  14.042
71747W        W44007  43.469  34.094  11.620
71748W        W44008  10.939  43.115   1.404
71749W        W44009  19.151  31.924   2.462
71750W        W44010   4.692  36.887   2.737
71751W        W44011  21.481  39.394   4.227
71752W        W44012  24.690   5.918   3.013
71753W        W44013  32.946  28.178  12.834
71754W        W44014  15.830  23.538  12.069
71755W        W44015  12.309  10.302  11.622
71756W        W44016   8.085  17.796  13.835
71757W        W44017  18.808  10.277   3.704
71758W        W44018   6.154  19.737   2.695
71759W        W44019   4.322  40.484   1.967
71760W        W44020  23.623   2.791   0.689
71761W        W44021   6.791  35.115  13.318
71762W        W44022   3.321  13.749   2.343
71763W        W44023  10.180  33.090  10.675
71764W        W44024  11.724   5.700  13.957
71765W        W44025  19.999  28.201  14.600
71766W        W44026  42.444  11.608   2.948
71767W        W44027   6.149  29.097   4.632
71768W        W44028  42.985  28.822   0.037
71769W        W44029  34.491  25.112  11.640
71770W        W44030  37.526  28.929   2.545
71771W        W44031  33.078  28.706  10.666
71772W        W44032   8.818  42.305   0.212
71773W        W44033  36.661   2.865   2.275
71774W        W44034  11.797   7.808   0.066
71775W        W44035   2.459  28.598  14.686
71776W        W44036  24.781  40.331  14.809
71777W        W44037  16.658  19.580  12.531
71778W        W44038  19.600  23.527   2.869
71779W        W44039  33.063   8.147  13.318
71780W        W44040  10.676  26.078   0.328
71781W        W44041  17.901   7.270   3.902
71782W        W44042  44.739  30.511  12.850
71783W        W44043  30.525  25.677   4.582
71784W        W44044  38.884  14.163   4.858
71785W        W44045   1.235  44.257   1.699
71786W        W44046  10.183  26.750  11.176
71787W        W44047  32.712  33.367   3.263
71788W        W44048  26.860  22.726  14.384
71789W        W44049  18.601  12.386  12.875
71790W        W44050   5.789   3.085  12.102
71791W        W44051  26.899   8.212   1.434
71792W        W44052   8.557  42.704   3.870
71793W        W44053   9.382  42.929   1.615
71794W        W44054  34.437  12.816  12.495
71795W        W44055  40.424  33.497  12.137
71796W        W44056  24.930   9.753  13.392
71797W        W44057  31.177  19.340   1.207
71798W        W44058  25.841  40.659   2.990
71799W        W44059  34.517  41.768  10.712
71800W        W44060  31.637  42.290   0.899
71801W        W44061  37.323  30.484  12.444
71802W        W44062  14.167   8.982  14.828
71803W        W44063  25.880  27.735   1.187
71804W        W44064  22.481  40.752   4.505
71805W        W44065  35.575  41.562  11.680
71806W        W44066   6.813   1.758   0.925
71807W        W44067  18.101  28.695  11.642
71808W        W44068   7.664  17.872  10.838
71809W        W44069  31.622  42.360  11.734
71810W        W44070  16.649  19.056   3.381
71811W        W44071  37.843  36.772  12.749
71812W        W44072  30.236   4.963  11.636
71813W        W44073  24.630  26.712  11.924
71814W        W44074  22.201  19.513  10.225
71815W        W44075  24.276  12.818  12.110
71816W        W44076  15.878  32.327  13.015
71817W        W44077  30.171  14.669   2.340
71818W        W44078  18.218  42.899  14.841
71819W        W44079  35.872  10.827  11.030
71820W        W44080  23.524  27.675  12.836
71821W        W44081  31.692   2.610  11.676
71822W        W44082  43.536   5.270  12.962
71823W        W44083  16.177   9.400   4.248
71824W        W44084  13.839   2.709   3.763
71825W        W44085  44.843  39.599  12.880
71826W        W44086  24.121   9.244  11.324
71827W        W44087  26.461   8.183  14.032
71828W        W44088  28.337   8.914  11.587
71829W        W44089   9.073  38.320   0.155
71830W        W44090  15.086  38.788  10.658
71831W        W44091  32.159   6.412  13.991
71832W        W44092   4.326  35.277   2.002
71833W        W44093  15.365  16.687   0.767
71834W        W44094  37.405  43.525   1.853
71835W        W44095  35.158  21.072   3.701
71836W        W44096  26.957   1.435   5.047
71837W        W44097  26.170  31.831   4.611
71838W        W44098  30.007   6.211   4.393
71839W        W44099  21.958   7.134  11.104
71840W        W44100  34.394  38.856   3.339
71841W        W44101  26.446  10.696   3.014
71842W        W44102   2.949  36.100   2.416
71843W        W44103  24.252  10.747  14.203
71844W        W44104  19.335  27.117  14.727
71845W        W44105  12.807  16.294   2.186
71846W        W44106  22.581  35.550  12.489
71847W        W44107  10.977  15.461   0.566
71848W        W44108  28.224   5.988  11.029
71849W        W44109  23.767  25.362  13.351
71850W        W44110  41.367  43.876   2.824
71851W        W44111  40.426   0.313   1.940
71852W        W44112  25.978  15.282   1.670
71853W        W44113   1.200  17.804  10.625
71854W        W44114  24.262   5.906  13.393
71855W        W44115   8.731  14.251   3.639
71856W        W44116   0.371  15.213  12.682
71857W        W44117  16.689  44.060   2.643
71858W        W44118  16.824  10.764  13.675
71859W        W44119  14.851  37.639  12.864
71860W        W44120   5.810  21.263   0.300
71861W        W44121   0.357  43.448   2.236
71862W        W44122  18.127  33.909  10.914
71863W        W44123   4.449  37.442  11.481
71864W        W44124  40.554  36.237  13.325
71865W        W44125  11.818  18.265   1.359
71866W        W44126  14.510   4.839   0.953
71867W        W44127   7.252  25.940   4.108
71868W        W44128  22.768  12.670  10.744
71869W        W44129  44.760  44.991   3.738
71870W        W44130  31.671  17.052  12.506
71871W        W44131  14.789  34.805  12.531
71872W        W44132   0.592   6.319  10.684
71873W        W44133  34.588   4.942   0.275
71874W        W44134  12.697  13.187   3.882
71875W        W44135  14.161   5.569   3.633
71876W        W44136  15.846  37.679  14.064
71877W        W44137  15.174   9.073   2.762
71878W        W44138  22.732  16.180   1.563
71879W        W44139  26.504  24.643  14.812
71880W        W44140  31.626  37.976  11.165
71881W        W44141  18.139  40.485  12.623
71882W        W44142  38.501  32.319  14.416
71883W        W44143  11.184  39.525  11.276
71884W        W44144  41.404  18.753   1.864
71885W        W44145  18.379  26.818   1.277
71886W        W44146  17.603  36.412  13.446
71887W        W44147   3.978  20.252  13.324
71888W        W44148   8.189  39.527   0.677
71889W        W44149  34.132   3.495   4.330
71890W        W44150  13.323  38.805  13.871
71891W        W44151  40.358  21.800   0.643
71892W        W44152  30.629  13.186   0.365
71893W        W44153  15.160  30.562  11.931
71894W        W44154  42.256  18.260   3.866
71895W        W44155   3.130  32.008   1.164
71896W        W44156  36.401   2.923  12.083
71897W        W44157  41.633  25.775   3.951
71898W        W44158  19.742  33.894  14.834
71899W        W44159  26.574  15.817   4.496
71900W        W44160  30.463  21.601  10.711
71901W        W44161   3.652  36.373   1.789
71902W        W44162  27.647  25.350   2.696
71903W        W44163  13.544  34.017  11.685
71904W        W44164   1.688  17.908  10.756
71905W        W44165  34.021  30.700  13.198
71906W        W44166  15.030  33.027   3.574
71907W        W44167   8.795  19.216   1.721
71908W        W44168  37.070  29.182   0.792
71909W        W44169  15.553  25.029  12.871
71910W        W44170   4.806  12.655   4.548
71911W        W44171  39.856  12.070  10.635
71912W        W44172  17.386  41.558   1.207
71913W        W44173  17.990  43.285   0.915
71914W        W44174  12.397  42.176  12.847
71915W        W44175  31.427  10.328   3.192
71916W        W44176  34.335  31.426  12.649
71917W        W44177  28.227  40.298  14.921
71918W        W44178  38.919  19.169  12.025
71919W        W44179  30.714   3.358  10.569
71920W        W44180   0.515  41.357  11.209
71921W        W44181  25.140   2.333   3.183
71922W        W44182  21.556   4.299   2.957
71923W        W44183   1.510  38.509  14.852
71924W        W44184  41.464   6.473   2.770
71925W        W44185   2.263  32.334  14.526
71926W        W44186  29.221   4.824   0.944
71927W        W44187  35.537  21.611  13.369
71928W        W44188  17.603   0.698  13.822
71929W        W44189   2.452  31.642  12.363
71930W        W44190  28.367  31.644   0.908
71931W        W44191   4.761  28.287  11.465
71932W        W44192  22.136  44.543   4.866
71933W        W44193  20.641   8.351  14.206
71934W        W44194  10.442  22.994  12.098
71935W        W44195  43.550  38.022  13.838
71936W        W44196   1.215  36.380  13.043
71937W        W44197  17.963   5.295  10.421
71938W        W44198   7.459  35.556  11.623
71939W        W44199  16.694  36.318   3.273
71940W        W44200  31.885   0.901  10.849
71941W        W44201   7.447  24.636   2.944
71942W        W44202  24.479  40.913   1.375
71943W        W44203   4.574   1.473  14.960
71944W        W44204  43.837  28.992  12.476
71945W        W44205  29.672  44.357   2.389
71946W        W44206   2.519  18.608   2.892
71947W        W44207  18.836   6.452   0.806
71948W        W44208   3.024  15.631   5.130
71949W        W44209   6.391  13.082  10.604
71950W        W44210  24.593  43.432  12.105
71951W        W44211  27.061  32.819   3.759
71952W        W44212  31.576  28.162   4.854
71953W        W44213  41.318  15.199  14.770
71954W        W44214  23.725  26.164  12.950
71955W        W44215  38.461  31.403  12.846
71956W        W44216   6.700  34.536  12.412
71957W        W44217  18.381  44.899   3.543
71958W        W44218  39.922  24.471  11.512
71959W        W44219  43.426  22.063  11.875
71960W        W44220  23.245  35.343  13.855
71961W        W44221  29.108  40.338   2.869
71962W        W44222  21.081   1.848   1.735
71963W        W44223  12.629  19.556   3.942
71964W        W44224  35.843  13.009   0.913
71965W        W44225   2.449  33.975  12.042
71966W        W44226  12.723  13.580   2.694
71967W        W44227  29.161  10.733  12.616
71968W        W44228  14.370  32.567   2.458
71969W        W44229  36.183   7.839   2.828
71970W        W44230  27.892  13.802  11.650
71971W        W44231   1.426   8.100   2.679
71972W        W44232  24.032   6.286  10.325
71973W        W44233  40.885  10.912   4.920
71974W        W44234   5.719  19.488  13.632
71975W        W44235  33.899   9.156  10.561
71976W        W44236  15.934  41.979   3.744
71977W        W44237   5.511  42.928   3.379
71978W        W44238   6.300  15.205  10.493
71979W        W44239  20.781   1.435   2.133
71980W        W44240  20.106   0.193   3.033
71981W        W44241  16.804   8.393  14.181
71982W        W44242  29.540  25.851   4.544
71983W        W44243   1.258  15.846  10.639
71984W        W44244   3.231  23.478  10.269
71985W        W44245  39.904  13.294  13.813
71986W        W44246  35.548  14.433  13.733
71987W        W44247  27.011   2.221   3.166
71988W        W44248  27.730  37.600   0.969
71989W        W44249  12.755   7.704   4.656
71990W        W44250  11.150   6.136  10.832
71991W        W44251   3.921  40.772   3.816
71992W        W44252   8.901  31.603  11.470
71993W        W44253  29.924  19.732  14.211
71994W        W44254   6.673   0.840   0.505
71995W        W44255  37.378  10.184   1.959
71996W        W44256  19.639  31.591   1.183
71997W        W44257  40.856  41.422   0.770
71998W        W44258  26.857   7.878   3.620
71999W        W44259  13.623  19.430   0.444
72000W        W44260  39.105  11.114  14.860
72001W        W44261   5.212   5.399   3.128
72002W        W44262  12.557  43.393   4.568
72003W        W44263  37.841  44.711   0.075
72004W        W44264  28.386  17.535   2.836
72005W        W44265  37.533  35.067  12.077
72006W        W44266  32.663  32.414  11.834
72007W        W44267  34.771  15.133   0.256
72008W        W44268  19.801  20.584  13.756
72009W        W44269  24.637  10.403   1.719
72010W        W44270   3.265  21.779   3.089
72011W        W44271  39.097  42.022   0.760
72012W        W44272  10.104  40.537  11.565
72013W        W44273   8.473  14.538  11.891
72014W        W44274   1.789   6.408   4.728
72015W        W44275  32.108  23.677   1.773
72016W        W44276  13.869  14.223  13.280
72017W        W44277  29.360  13.861   0.321
72018W        W44278   8.237   8.211  13.904
72019W        W44279   5.985  27.729  11.207
72020W        W44280   4.584   1.192   5.100
72021W        W44281  32.494  28.511   1.809
72022W        W44282  37.845  26.958  14.286
72023W        W44283  14.403  38.313   1.239
72024W        W44284  40.664   1.766  10.402
72025W        W44285  23.506  11.370   4.379
72026W        W44286  33.961  23.985   1.913
72027W        W44287  20.749  27.051  11.454
72028W        W44288  20.359  42.429  12.041
72029W        W44289  41.868   5.448  14.974
72030W        W44290  34.007  19.278  10.895
72031W        W44291  18.040   5.458   1.409
72032W        W44292  11.921  28.210  13.305
72033W        W44293  29.559  34.842   1.907
72034W        W44294   3.742  40.900  10.558
72035W        W44295  27.069  35.843   0.588
72036W        W44296  10.264  29.619   2.348
72037W        W44297  40.069  33.501  11.179
72038W        W44298   0.927  25.721   3.562
72039W        W44299  12.566  17.197  11.460
72040W        W44300  27.452  17.240  10.561
72041W        W44301  39.313  29.021  11.468
72042W        W44302   2.413  24.985   2.271
72043W        W44303  37.969  40.391  13.165
72044W        W44304  36.598   3.665   1.808
72045W        W44305  11.393   5.970  14.239
72046W        W44306  43.414  23.505   0.750
72047W        W44307  44.300  15.771   4.613
72048W        W44308  11.256  19.664  11.528
72049W        W44309   6.293  24.248  13.109
72050W        W44310   0.318  18.248  10.442
72051W        W44311  13.298  29.158   0.276
72052W        W44312  33.629  40.137   1.477
72053W        W44313  38.655  18.644   4.694
72054W        W44314   7.282  34.422  14.945
72055W        W44315  44.468  20.339  14.377
72056W        W44316  28.099   3.014   2.169
72057W        W44317   7.802  16.967   3.447
72058W        W44318  14.797  27.082   4.617
72059W        W44319  34.114  23.954   0.979
72060W        W44320  15.611   1.460  11.531
72061W        W44321  28.170  25.966  13.482
72062W        W44322  20.464  10.293  10.577
72063W        W44323  11.629   6.842   2.236
72064W        W44324   5.830  38.094  13.835
72065W        W44325  11.326  33.600   2.573
72066W        W44326   1.415   2.244  14.017
72067W        W44327  17.027  16.859  14.087
72068W        W44328  19.783  28.949  11.044
72069W        W44329  35.408  28.939   2.216
72070W        W44330  32.811  17.122   2.797
72071W        W44331   1.386  28.290  13.983
72072W        W44332   6.063  38.385   2.342
72073W        W44333  29.123  17.749  13.515
72074W        W44334  15.817  14.888  10.969
72075W        W44335  12.278   0.668   0.672
72076W        W44336  43.124  37.809  14.560
72077W        W44337  11.768  38.910   4.578
72078W        W44338  35.672  30.021  12.496
72079W        W44339   8.902  44.609   2.958
72080W        W44340  12.636  42.105  11.616
72081W        W44341  17.760   1.446   3.979
72082W        W44342  36.172   7.099  10.963
72083W        W44343   3.787   9.194  11.751
72084W        W44344  14.458  24.838   3.745
72085W        W44345   4.713  44.204  13.885
72086W        W44346   5.432   0.495  14.527
72087W        W44347  27.668  42.825   0.309
72088W        W44348   9.681  25.351   4.272
72089W        W44349  40.279  14.798  11.070
72090W        W44350  40.853  28.512   0.697
72091W        W44351   1.807  25.987   4.551
72092W        W44352  28.239  26.113  10.300
72093W        W44353  32.433  24.812   1.442
72094W        W44354  28.638  35.940  14.006
72095W        W44355  34.614   1.209  13.871
72096W        W44356  19.752  20.659   4.223
72097W        W44357  43.980  24.577  11.112
72098W        W44358  33.501  37.299  12.219
72099W        W44359  44.324  34.529  13.970
72100W        W44360  23.222  30.359   3.330
72101W        W44361   0.247  28.196  14.322
72102W        W44362  38.503  30.393   3.660
72103W        W44363  17.184  35.694  12.859
72104W        W44364   0.413   0.604  12.993
72105W        W44365   6.401  17.185  10.448
72106W        W44366  11.839  18.735  13.867
72107W        W44367  26.052  27.243   0.427
72108W        W44368  18.098  37.071  11.264
72109W        W44369   7.342  12.886   2.250
72110W        W44370  10.200   5.807  10.510
72111W        W44371   4.803   6.672   0.851
72112W        W44372  15.052  17.316  13.066
72113W        W44373  24.183  15.063   0.772
72114W        W44374  18.832  24.986  14.907
72115W        W44375  18.437   0.642  12.478
72116W        W44376  39.513  10.869  12.821
72117W        W44377  18.752   5.426   2.139
72118W        W44378  37.482  28.513   3.982
72119W        W44379   5.206  14.533  11.490
72120W        W44380  37.607   6.185   1.501
72121W        W44381  36.645   4.168  12.195
72122W        W44382  28.060  30.605  13.408
72123W        W44383  15.376   8.005  13.941
72124W        W44384  39.011  10.576   4.506
72125W        W44385  42.084  34.287   1.095
72126W        W44386  17.723  44.834   2.289
72127W        W44387  15.361   9.346   3.193
72128W        W44388  34.544   5.791   3.614
72129W        W44389  13.428  20.404   2.418
72130W        W44390  41.850   6.966   0.933
72131W        W44391  37.475   3.973   0.754
72132W        W44392   4.302  11.096   1.345
72133W        W44393  25.945  34.611   4.142
72134W        W44394   8.455  23.606  10.882
72135W        W44395  18.813  15.110  12.622
72136W        W44396  23.183  39.304  13.942
72137W        W44397  16.925   2.163  13.654
72138W        W44398  10.090  40.989   0.787
72139W        W44399  35.451  34.037   4.652
72140W        W44400  39.156   3.865  12.552
72141W        W44401  28.480  21.993  13.083
72142W        W44402  16.692  32.717   4.530
72143W        W44403   1.716  19.533  12.461
72144W        W44404   5.754  39.042  14.521
72145W        W44405   3.668  31.264  12.940
72146W        W44406  30.877  43.413   1.775
72147W        W44407  31.081  32.846  10.043
72148W        W44408  33.478  35.127   0.445
72149W        W44409   7.515  29.525  10.404
72150W        W44410  40.007  16.778  11.140
72151W        W44411  13.136  16.271   2.589
72152W        W44412  30.680   6.823  14.479
72153W        W44413   6.288  17.550  10.815
72154W        W44414   9.854  30.865   3.162
72155W        W44415   5.739   9.359  12.422
72156W        W44416  28.678  25.850   3.240
72157W        W44417  23.507   8.690   3.722
72158W        W44418  13.880  19.773  12.361
72159W        W44419  12.286  12.219   1.699
72160W        W44420  10.899  27.793  12.406
72161W        W44421  38.895  38.021  13.352
72162W        W44422   4.677  44.820  11.716
72163W        W44423  25.160  21.510  13.690
72164W        W44424  37.590  28.726  12.642
72165W        W44425  31.130  13.341  11.956
72166W        W44426   2.533  40.515   2.619
72167W        W44427  21.904  17.521  11.999
72168W        W44428  29.423  20.471  14.427
72169W        W44429  14.029  41.393  12.948
72170W        W44430  13.359  36.894  10.710
72171W        W44431  19.470   2.874  10.655
72172W        W44432  20.772  12.268  13.972
72173W        W44433  38.294  38.871   2.878
72174W        W44434  32.688  35.641   4.513
72175W        W44435  25.094  36.629   2.806
72176W        W44436  33.085  19.595   3.648
72177W        W44437  11.409   1.969   3.135
72178W        W44438  36.528   8.024  12.919
72179W        W44439  33.470  44.279  14.897
72180W        W44440  44.319  21.723  12.316
72181W        W44441  39.350   0.334  11.859
72182W        W44442   5.748   0.227  13.887
72183W        W44443  11.141  10.311  14.319
72184W        W44444  34.393  18.155  13.496
72185W        W44445  38.357  19.000  14.986
72186W        W44446  33.017  40.350   4.750
72187W        W44447  34.540   8.856  12.061
72188W        W44448  22.765   0.831   3.247
72189W        W44449  42.476  38.198   0.309
72190W        W44450  14.076  25.618  11.490
72191W        W44451  38.182  26.936   4.499
72192W        W44452  19.209  42.483   0.737
72193W        W44453  24.642  15.617   0.452
72194W        W44454  20.227  24.297  11.456
72195W        W44455  37.783  41.023   1.685
72196W        W44456  39.988  18.574  10.573
72197W        W44457   2.385  37.863  12.448
72198W        W44458   5.900  19.898   3.564
72199W        W44459  11.616  28.220   2.714
72200W        W44460  30.991  40.752  13.539
72201W        W44461  26.621   5.625   2.892
72202W        W44462  11.408  25.943   0.888
72203W        W44463   7.980  44.800  14.473
72204W        W44464  29.397  40.031  14.780
72205W        W44465   3.207  29.936  13.062
72206W        W44466  39.377  27.443   3.246
72207W        W44467  34.784  39.504  11.895
72208W        W44468  25.211  34.500  14.380
72209W        W44469  18.844  17.057   5.028
72210W        W44470  23.048  22.600   3.491
72211W        W44471  19.472   9.146  13.088
72212W        W44472  29.259   1.051   4.113
72213W        W44473  29.928  34.361  11.984
72214W        W44474   6.209  30.063  13.954
72215W        W44475  31.238  22.251   1.588
72216W        W44476  38.992   2.477   1.993
72217W        W44477  12.825  20.094   3.266
72218W        W44478   3.431   8.440  13.099
72219W        W44479  33.415   8.183   2.736
72220W        W44480  41.854  32.300   4.115
72221W        W44481  41.737   5.687  12.943
72222W        W44482  21.480   8.678  12.938
72223W        W44483  41.296   4.790   0.502
72224W        W44484  34.659   2.052   4.166
72225W        W44485  27.233   2.737  14.060
72226W        W44486   5.396  40.532   0.760
72227W        W44487  41.125  37.941   3.832
72228W        W44488   0.660   2.357   2.759
72229W        W44489  16.756  23.015   1.918
72230W        W44490  26.096  34.635  12.573
72231W        W44491  18.166  27.433  11.856
72232W        W44492  14.338  10.138  13.028
72233W        W44493  31.129   3.212   1.449
72234W        W44494  44.427  34.902   2.267
72235W        W44495  18.635  24.981   2.371
72236W        W44496   5.895  28.204  12.061
72237W        W44497   0.732   2.401   1.812
72238W        W44498  37.474  43.432   2.709
72239W        W44499   4.400  26.534  13.467
72240W        W44500   0.794   1.688  14.661
72241W        W44501  22.576  12.987  10.012
72242W        W44502  10.441  11.940  12.139
72243W        W44503  13.811  12.749   1.435
72244W        W44504   2.511  28.965   4.835
72245W        W44505   3.953  14.137  13.972
72246W        W44506  18.684  41.111   2.335
72247W        W44507  29.166  34.988   3.607
72248W        W44508  37.634   4.046  13.199
72249W        W44509  35.196  30.906  11.443
72250W        W44510  34.290  20.309  13.960
72251W        W44511  42.599  16.729   1.841
72252W        W44512  24.007  22.660  14.043
72253W        W44513  25.418   2.737  11.920
72254W        W44514  18.669  14.879   3.110
72255W        W44515  36.553  33.948  11.128
72256W        W44516  29.005  21.718  10.906
72257W        W44517   7.176  38.559  14.446
72258W        W44518   4.129  40.075   0.539
72259W        W44519  29.114  27.117  14.903
72260W        W44520  37.373  38.358  14.890
72261W        W44521  40.983  30.066  11.647
72262W        W44522  33.478   9.884   3.245
72263W        W44523  42.934  28.917   1.311
72264W        W44524  34.686  11.131   2.200
72265W        W44525  10.231   4.855   1.409
72266W        W44526  36.922  22.491   1.708
72267W        W44527   7.409  16.737  11.869
72268W        W44528   7.481  29.860   4.628
72269W        W44529  25.803  32.811   0.085
72270W        W44530   2.834  30.343   4.923
72271W        W44531   5.111  23.148  12.466
72272W        W44532   3.760  20.463   0.434
72273W        W44533  30.164  18.264  11.815
72274W        W44534  10.641  40.481  12.605
72275W        W44535   3.743   6.244  12.010
72276W        W44536  12.141  12.154  14.395
72277W        W44537  14.612  25.011  12.009
72278W        W44538   3.577   3.684   5.085
72279W        W44539  11.214   8.634   0.049
72280W        W44540  27.670  31.128  11.580
72281W        W44541  14.620  20.453   0.441
72282W        W44542   4.168  24.295   4.615
72283W        W44543  38.533  24.035  12.526
72284W        W44544   2.968   6.790   4.058
72285W        W44545  13.030  40.361  11.111
72286W        W44546  15.162  17.068  12.607
72287W        W44547  10.095  43.310   3.247
72288W        W44548  16.582  41.689   0.608
72289W        W44549  22.285  43.871   2.391
72290W        W44550  42.153  31.424   1.189
72291W        W44551  40.777   8.720   3.668
72292W        W44552   1.269  34.943   4.872
72293W        W44553  44.231   4.761   1.026
72294W        W44554   8.169   8.460   3.634
72295W        W44555  39.522  20.192  12.333
72296W        W44556  42.964  25.409  13.562
72297W        W44557   3.819  35.147  12.710
72298W        W44558  40.062  23.415   4.182
72299W        W44559   6.099  38.843   3.541
72300W        W44560  38.856  22.154   2.443
72301W        W44561  22.182  11.411   2.721
72302W        W44562  21.566   1.947   1.187
72303W        W44563  40.907  28.217   3.243
72304W        W44564  43.319   7.657  13.420
72305W        W44565  21.008  40.998  14.890
72306W        W44566  36.352  14.359  14.562
72307W        W44567  10.339  16.095   2.902
72308W        W44568  26.127  15.799  13.214
72309W        W44569   2.397  27.960   1.843
72310W        W44570  26.023  22.758   2.919
72311W        W44571  38.880  44.767   5.354
72312W        W44572   3.517   8.768  13.484
72313W        W44573  22.106   7.436   1.856
72314W        W44574  33.084  23.752   4.409
72315W        W44575  15.242  38.566  11.129
72316W        W44576  31.649  12.795  14.908
72317W        W44577  17.103   7.246   9.938
72318W        W44578  15.733  35.429  11.380
72319W        W44579  14.784   4.332  10.984
72320W        W44580  11.093  35.964  13.166
72321W        W44581   6.204  14.300  11.546
72322W        W44582  44.652  21.749   0.751
72323W        W44583  16.142  29.967   1.371
72324W        W44584  18.715  30.160   3.737
72325W        W44585  30.648   9.726  11.676
72326W        W44586  24.381  37.235   0.069
72327W        W44587  34.321  43.734   2.166
72328W        W44588   3.704  19.007  12.967
72329W        W44589  31.968  17.024  11.476
72330W        W44590  32.698  36.500  14.334
72331W        W44591  44.272   2.487  14.383
72332W        W44592  42.569   7.893  12.987
72333W        W44593  19.583  44.014  13.373
72334W        W44594  21.705  11.769   2.722
72335W        W44595  21.639  19.526   2.783
72336W        W44596  25.396  29.598   0.542
72337W        W44597  17.558  39.048  14.363
72338W        W44598   0.901   1.653  12.556
72339W        W44599  37.362  39.507   2.089
72340W        W44600  21.867   5.336   0.826
72341W        W44601  39.537  31.001   3.190
72342W        W44602  35.822  38.037   3.297
72343W        W44603  30.897  14.409   5.110
72344W        W44604  15.943  17.938  10.023
72345W        W44605   4.411  43.914  14.961
72346W        W44606  35.055  28.619  14.298
72347W        W44607  43.873  43.890  11.564
72348W        W44608  41.323  36.176  10.497
72349W        W44609  18.025  16.669  11.649
72350W        W44610  36.071  20.709  14.997
72351W        W44611   4.235  14.585   3.683
72352W        W44612  37.960  43.563   4.814
72353W        W44613  13.777  27.741  14.721
72354W        W44614  40.994  14.830  13.317
72355W        W44615  40.694  15.793   3.262
72356W        W44616  27.509  25.714  12.485
72357W        W44617  39.341   8.120  10.226
72358W        W44618  21.153  20.650   2.240
72359W        W44619   9.707  32.824  14.085
72360W        W44620  27.766  32.000   2.374
72361W        W44621  13.614  16.814  12.328
72362W        W44622  28.339  36.946   0.966
72363W        W44623  41.499  37.049  12.484
72364W        W44624  27.949  25.677   2.359
72365W        W44625  36.625   8.929  12.629
72366W        W44626  28.826  28.224  12.998
72367W        W44627   9.945  17.245   3.975
72368W        W44628  41.953  43.727  12.994
72369W        W44629  29.401  36.920   0.855
72370W        W44630  43.726  35.040   1.387
72371W        W44631  28.140  38.490   4.478
72372W        W44632  41.005  33.485  13.752
72373W        W44633   0.813  21.216   0.941
72374W        W44634  16.912   5.948   0.031
72375W        W44635  44.691  33.332  12.085
72376W        W44636   1.323  25.666   2.891
72377W        W44637  39.340  36.565  14.888
72378W        W44638   8.134  12.126   0.038
72379W        W44639  11.133  15.108  11.712
72380W        W44640  40.461  35.572   0.998
72381W        W44641  11.188  11.558   0.598
72382W        W44642   1.546  37.939  10.559
72383W        W44643  13.513  31.786  12.929
72384W        W44644  30.620  26.418  13.979
72385W        W44645  19.038   9.902  11.088
72386W        W44646  26.781   7.368   0.803
72387W        W44647   7.307  34.085  14.551
72388W        W44648   6.266  36.282   2.828
72389W        W44649  39.617  21.169  12.396
72390W        W44650  34.084  30.172  11.594
72391W        W44651   4.832  28.622   2.792
72392W        W44652   0.887  30.251  12.551
72393W        W44653  30.368  36.729  11.134
72394W        W44654  37.885   5.773  11.517
72395W        W44655  13.177  44.846  14.465
72396W        W44656  23.024   4.123   1.713
72397W        W44657  11.145  14.221  12.034
72398W        W44658   2.054  21.172   0.128
72399W        W44659  36.880  21.774   4.863
72400W        W44660  28.868  21.445  10.484
72401W        W44661  28.201  10.859   2.398
72402W        W44662  42.455  15.882  14.931
72403W        W44663  19.576  29.899   4.208
72404W        W44664  10.468   5.153  11.624
72405W        W44665   2.480  41.770   1.717
72406W        W44666  42.102  33.365   1.325
72407W        W44667  20.561  41.378  14.020
72408W        W44668  22.219  27.971   1.391
72409W        W44669  30.617  35.942  12.115
72410W        W44670  38.039  33.443   0.183
72411W        W44671  14.303  19.080   4.327
72412W        W44672  39.354  15.450   2.296
72413W        W44673  12.020  22.833  11.149
72414W        W44674   4.491  36.143  11.128
72415W        W44675  11.796   4.415   4.156
72416W        W44676  33.604  19.535   3.553
72417W        W44677   3.384  15.748   4.177
72418W        W44678  30.758  34.287   3.209
72419W        W44679  10.573  29.304  11.126
72420W        W44680  18.854  33.108   0.315
72421W        W44681  11.942  40.796   2.706
72422W        W44682  29.977   8.377   0.428
72423W        W44683  26.236  39.073  10.112
72424W        W44684  40.129  24.201  13.365
72425W        W44685  33.615  35.962  12.385
72426W        W44686  27.597   2.529   4.572
72427W        W44687  19.686  26.743  12.654
72428W        W44688  14.809   5.367  14.289
72429W        W44689  34.142  22.569   1.480
72430W        W44690   2.316  18.278   0.260
72431W        W44691  17.776   5.435  11.245
72432W        W44692  26.563   1.988   3.892
72433W        W44693  10.161  26.519  10.269
72434W        W44694   7.372  41.561   2.117
72435W        W44695  41.840  19.236   3.873
72436W        W44696   5.313  27.559  14.658
72437W        W44697  36.114  12.275   3.185
72438W        W44698  25.668  15.720   3.700
72439W        W44699   9.870  15.406  12.470
72440W        W44700  11.906  40.382  12.007
72441W        W44701  27.432  28.892   1.313
72442W        W44702  19.580   4.389   2.698
72443W        W44703  44.634  22.171  11.621
72444W        W44704  21.426  15.000  12.307
72445W        W44705  34.616   0.033  11.669
72446W        W44706  14.058  15.253  10.681
72447W        W44707   9.139  24.749  11.579
72448W        W44708  40.136  44.396  14.452
72449W        W44709   0.743  29.042   4.338
72450W        W44710   0.104  19.394   4.516
72451W        W44711  36.932   7.877  14.341
72452W        W44712  44.005  10.866   1.467
72453W        W44713  40.733  39.872   1.624
72454W        W44714  28.571   2.263   0.580
72455W        W44715  27.029  18.167   3.411
72456W        W44716   7.342   8.334  14.007
72457W        W44717  20.747  29.395  14.453
72458W        W44718  31.896  27.729  11.894
72459W        W44719  26.307  15.756  10.935
72460W        W44720  40.519  16.018   0.683
72461W        W44721   2.892  26.992  12.938
72462W        W44722  36.359  26.332  11.214
72463W        W44723  35.499  18.983   0.509
72464W        W44724   4.242   4.761  10.684
72465W        W44725   6.290  24.200  14.029
72466W        W44726  31.432  34.888   0.705
72467W        W44727  32.138  11.815   0.851
72468W        W44728  31.620  34.862  11.583
72469W        W44729  27.369  43.512   3.303
72470W        W44730  30.918  28.890  11.541
72471W        W44731  13.220  14.600  11.570
72472W        W44732  17.558  39.043   2.655
72473W        W44733  38.731   1.227   0.164
72474W        W44734  10.833  23.046   3.649
72475W        W44735  26.258   2.011  11.515
72476W        W44736  44.799  41.879   0.350
72477W        W44737  34.548  26.559   2.692
72478W        W44738  43.546  30.881  11.173
72479W        W44739  22.749  31.202   2.135
72480W        W44740  15.738  20.526   2.740
72481W        W44741  16.820  13.483  12.627
72482W        W44742   6.801  34.850  10.542
72483W        W44743  44.011   0.452   2.731
72484W        W44744   1.338   3.036  10.696
72485W        W44745  38.942   4.466  11.588
72486W        W44746  38.271  35.272   0.489
72487W        W44747  19.082  34.677   0.555
72488W        W44748  18.388  34.111   1.029
72489W        W44749  32.092  40.027  11.465
72490W        W44750  42.866  29.297   2.389
72491W        W44751  22.227   7.351  10.604
72492W        W44752   4.134  31.119  13.942
72493W        W44753   4.518  16.362   3.656
72494W        W44754  41.501  12.833   0.601
72495W        W44755   5.700   2.337  10.683
72496W        W44756  42.892  40.775   4.468
72497W        W44757  37.897  15.663   3.182
72498W        W44758  43.829   9.329   1.159
72499W        W44759  33.958  42.958  13.852
72500W        W44760  38.914   6.913   1.720
72501W        W44761   1.716  11.408  13.621
72502W        W44762  44.344  11.487   5.262
72503W        W44763  13.825  12.144  12.087
72504W        W44764   0.283  14.746   1.936
72505W        W44765  17.570  32.937   2.933
72506W        W44766   1.391  15.634  13.016
72507W        W44767  19.856   4.525   4.667
72508W        W44768  10.769  24.270  14.895
72509W        W44769  20.119   7.831  10.664
72510W        W44770  38.433  15.538  13.490
72511W        W44771   2.303  31.876   2.731
72512W        W44772  26.356   5.186   2.797
72513W        W44773   2.446   1.909  13.621
72514W        W44774  13.516  15.335  14.744
72515W        W44775   1.739  43.344   1.197
72516W        W44776  40.377  37.119   0.531
72517W        W44777  26.107  43.313  11.236
72518W        W44778  25.322  20.351  13.601
72519W        W44779  24.096  10.912   2.903
72520W        W44780  25.414   8.781   3.586
72521W        W44781   0.689  12.247  13.217
72522W        W44782  35.741  39.945   2.793
72523W        W44783  25.904  24.917   2.317
72524W        W44784  13.261  19.756   4.468
72525W        W44785  33.309  42.071   1.968
72526W        W44786   5.215  42.220   1.725
72527W        W44787  19.830  19.488  12.891
72528W        W44788  14.509  30.815   2.289
72529W        W44789  43.748  33.610   0.445
72530W        W44790  15.113  15.996   4.508
72531W        W44791  36.532  32.445   2.317
72532W        W44792   1.259  29.687   2.766
72533W        W44793  11.597  28.978   2.298
72534W        W44794  21.292  40.866  11.634
72535W        W44795  33.289   0.928   1.018
72536W        W44796  28.975  14.515  11.406
72537W        W44797   9.222  31.358  11.131
72538W        W44798  19.469   0.246  13.914
72539W        W44799  38.489  33.308  14.942
72540W        W44800  22.617  18.487  10.245
72541W        W44801  18.622  44.083   0.774
72542W        W44802  11.881  18.657   0.994
72543W        W44803  30.936  30.025   9.765
72544W        W44804  35.671  32.953  13.864
72545W        W44805  38.569  43.368  11.540
72546W        W44806  25.460   8.837  11.875
72547W        W44807  16.317  24.003   0.903
72548W        W44808  41.795  41.896   1.834
72549W        W44809  38.442  40.787   3.013
72550W        W44810  38.978  43.679  11.541
72551W        W44811  22.577  44.959  12.958
72552W        W44812   0.779  20.461   1.477
72553W        W44813  19.331  16.629   4.221
72554W        W44814   0.039  11.929  11.207
72555W        W44815  24.293  24.016   0.857
72556W        W44816  21.492  17.858  13.369
72557W        W44817  31.965  35.094   1.453
72558W        W44818  39.457  32.224  11.910
72559W        W44819   4.029   5.403   1.966
72560W        W44820   0.860  26.774  11.934
72561W        W44821  41.725   9.546  13.453
72562W        W44822  42.576  24.613  14.438
72563W        W44823  14.644  33.271  12.643
72564W        W44824   8.287  20.726  13.513
72565W        W44825  27.454  10.589   1.254
72566W        W44826   9.114   5.264   3.254
72567W        W44827  30.069  27.602  11.507
72568W        W44828  40.523  37.021  12.507
72569W        W44829   9.904  40.038  11.598
72570W        W44830  33.899  31.466   3.588
72571W        W44831  26.942   4.893  13.454
72572W        W44832  12.704   9.238   0.432
72573W        W44833  15.592   7.226   0.393
72574W        W44834  42.508  18.136   3.137
72575W        W44835   5.325   6.797  13.473
72576W        W44836  18.166  34.526   4.095
72577W        W44837  30.298   2.990   1.621
72578W        W44838  11.616  24.477   0.497
72579W        W44839  24.119  40.513  12.496
72580W        W44840  39.574   7.636   4.086
72581W        W44841  26.196  13.055  14.503
72582W        W44842  10.147   3.725   5.155
72583W        W44843  13.484  31.070   4.087
72584W        W44844   0.373  39.963   2.168
72585W        W44845  22.013  44.994   1.807
72586W        W44846  43.893   1.479   2.798
72587W        W44847  21.516  31.067  13.622
72588W        W44848  17.862  16.923  13.000
72589W        W44849  43.921  44.471  10.462
72590W        W44850  44.234   7.217   0.754
72591W        W44851  10.858   5.378  14.757
72592W        W44852   0.437  43.395   4.668
72593W        W44853  16.643  12.116  13.367
72594W        W44854   2.299   7.159   0.327
72595W        W44855  33.557   3.781  11.709
72596W        W44856  35.080   1.739   2.340
72597W        W44857  33.458  36.860   4.545
72598W        W44858  39.007   7.358   2.422
72599W        W44859  25.682  34.934  14.826
72600W        W44860  40.271  41.672  13.455
72601W        W44861   9.450   0.538  13.495
72602W        W44862  19.969  39.228  12.589
72603W        W44863  15.022  31.138  14.222
72604W        W44864  34.185  13.183  10.720
72605W        W44865   9.135  43.497  11.344
72606W        W44866   6.123  40.522   1.345
72607W        W44867  27.292  21.542   2.664
72608W        W44868  39.735   7.316   5.183
72609W        W44869  18.235   4.373   2.089
72610W        W44870  34.668  43.514   1.795
72611W        W44871  29.496  34.429   0.397
72612W        W44872  18.957  19.484   9.983
72613W        W44873  42.302  36.128  12.066
72614W        W44874  41.917  24.588  12.645
72615W        W44875  19.194  10.068   0.299
72616W        W44876  33.137  41.845  14.240
72617W        W44877  16.323  11.179   3.324
72618W        W44878  44.944  34.672  12.281
72619W        W44879   1.687  32.715   3.232
72620W        W44880  32.585  37.508   2.082
72621W        W44881   6.912   0.536  12.324
72622W        W44882  13.985   8.018   3.982
72623W        W44883   2.004   3.417   4.534
72624W        W44884  37.633  22.975  12.016
72625W        W44885  30.251  38.027   3.989
72626W        W44886  24.626   3.403  11.229
72627W        W44887  24.678  14.272  14.355
72628W        W44888  37.545  13.591  14.769
72629W        W44889  14.674  23.103   0.717
72630W        W44890  42.261  43.971   1.498
72631W        W44891  24.002  24.898   1.268
72632W        W44892   4.544   7.175  11.628
72633W        W44893  18.489  17.978  13.604
72634W        W44894  29.672  32.997   0.017
72635W        W44895  44.506  35.571   3.012
72636W        W44896  41.877  36.955  10.741
72637W        W44897  40.331  42.886   2.641
72638W        W44898  23.621  38.997  14.006
72639W        W44899   2.494  35.627   0.459
72640W        W44900  40.027  38.461   3.299
72641W        W44901  12.297  12.164  11.600
72642W        W44902   3.720  20.280  11.966
72643W        W44903  17.038   0.469  13.008
72644W        W44904  18.235   0.330   3.257
72645W        W44905  27.579   9.038  10.127
72646W        W44906  20.478  34.424   2.414
72647W        W44907  35.129  11.964  14.651
72648W        W44908   1.316   5.552   2.606
72649W        W44909  33.975  43.934  13.798
72650W        W44910  42.324  20.575   1.578
72651W        W44911  32.407  23.268   2.450
72652W        W44912  34.697  22.699  12.998
72653W        W44913   5.855   0.982   4.973
72654W        W44914  34.475  35.521  13.053
72655W        W44915  10.669  26.248  11.940
72656W        W44916  26.497  19.834   1.753
72657W        W44917  32.077   8.443  11.017
72658W        W44918  10.837   5.627  12.604
72659W        W44919  20.099  31.554  12.139
72660W        W44920  42.396  31.610  13.545
72661W        W44921   0.329  32.689   1.372
72662W        W44922   9.287  27.996  14.514
72663W        W44923   3.373  10.205  13.247
72664W        W44924  41.886  18.933  13.500
72665W        W44925  29.653  38.558   4.489
72666W        W44926   8.443  10.664   4.074
72667W        W44927   6.207  38.431   3.236
72668W        W44928  28.593   4.437  10.899
72669W        W44929   5.281   7.666  12.293
72670W        W44930  31.185  14.301  14.005
72671W        W44931  21.790  20.282   1.482
72672W        W44932  42.026   7.863  12.112
72673W        W44933  33.364  25.986  10.667
72674W        W44934  31.404  30.662   1.933
72675W        W44935  22.595  23.472  10.322
72676W        W44936  12.646  44.784   4.606
72677W        W44937  44.795  32.055   2.413
72678W        W44938  13.623  24.470   3.300
72679W        W44939   5.277  42.522   2.722
72680W        W44940  34.223  18.720   2.044
72681W        W44941  39.756  16.518   0.329
72682W        W44942  42.756  23.257  11.506
72683W        W44943   2.779  11.104   2.632
72684W        W44944   8.993  31.766   0.780
72685W        W44945  37.456  42.399   4.349
72686W        W44946  17.931  14.520  12.536
72687W        W44947  37.451  36.094   0.076
72688W        W44948   2.307  38.958  10.681
72689W        W44949   6.264  29.923  12.801
72690W        W44950  35.552   6.881  14.372
72691W        W44951  28.640   9.638   0.381
72692W        W44952  10.318   2.951  13.834
72693W        W44953   6.709   5.586  12.154
72694W        W44954  37.343  30.642  12.975
72695W        W44955   7.944  20.207  14.396
72696W        W44956  19.250  23.623   2.448
72697W        W44957  25.676   5.842   2.886
72698W        W44958   1.991  23.678   4.186
72699W        W44959   0.780  35.930  13.042
72700W        W44960   8.745  44.053   3.673
72701W        W44961  35.070  12.074  10.795
72702W        W44962  33.372   9.851  14.415
72703W        W44963  36.963  22.518  14.357
72704W        W44964  24.846  32.730  13.290
72705W        W44965  25.083  26.408   4.713
72706W        W44966  18.744   9.409   4.112
72707W        W44967   9.391  11.796  12.871
72708W        W44968  42.471  40.459  14.727
72709W        W44969   0.870  13.096  10.547
72710W        W44970  13.554  17.339  14.404
72711W        W44971  12.120  22.560  14.054
72712W        W44972  11.961  14.511   4.937
72713W        W44973   5.019  18.029   1.199
72714W        W44974  16.743  14.177   2.776
72715W        W44975  24.527  17.178   4.342
72716W        W44976  39.526   3.854   0.281
72717W        W44977   2.244  28.085  13.851
72718W        W44978   6.251  37.936   3.328
72719W        W44979  15.930  17.060  11.934
72720W        W44980  19.583  44.399   3.417
72721W        W44981  12.441   8.303  12.960
72722W        W44982  16.485   7.185   2.859
72723W        W44983  39.121  15.591  13.850
72724W        W44984  18.337  28.800  10.157
72725W        W44985  22.034  40.881  14.765
72726W        W44986  39.237   2.333   4.583
72727W        W44987  18.864  17.165   3.210
72728W        W44988  20.182  32.600  10.728
72729W        W44989  39.236  28.980  14.578
72730W        W44990  20.748  36.060   2.930
72731W        W44991  16.553  42.861   2.859
72732W        W44992  43.969  21.646  11.943
72733W        W44993  30.991  35.058   0.945
72734W        W44994   9.897  33.905   3.590
72735W        W44995  40.338   2.581  11.903
72736W        W44996  28.948   7.852   0.850
72737W        W44997  24.173  19.348  13.010
72738W        W44998  42.805   1.904  10.524
72739W        W44999  12.309  17.576  12.874
72740W        W45000  38.064  16.811  14.400
72741W        W45001   9.208   8.740   0.820
72742W        W45002   9.259   8.095  11.580
72743W        W45003   3.012  12.316   0.204
72744W        W45004  34.477  22.615  13.503
72745W        W45005  26.797  18.528   1.363
72746W        W45006   8.651   9.270  13.280
72747W        W45007  34.821  35.879  12.859
72748W        W45008  19.594  42.440   4.775
72749W        W45009  35.703   9.757  11.504
72750ION    NA+45010  24.733   8.553   4.155
72751ION    NA+45011   9.913  10.935  10.715
72752ION    NA+45012  19.286  35.583  14.479
72753ION    NA+45013  19.593   3.655  11.244
72754ION    NA+45014  44.442  12.380   0.658
72755ION    NA+45015  28.075  43.285   2.180
72756ION    NA+45016  10.457  10.196  11.112
72757ION    NA+45017  29.580  21.011   3.204
72758ION    NA+45018   2.927  33.284   1.281
72759ION    NA+45019  10.366  36.799   2.574
72760ION    NA+45020   2.437   1.673  14.114
72761ION    NA+45021  18.707  43.035  13.263
72762ION    NA+45022  11.481   3.329  10.502
72763ION    NA+45023   2.169   6.837  12.583
72764ION    NA+45024  35.887   9.398  11.086
72765ION    NA+45025  12.888  23.049   1.918
72766ION    NA+45026  30.237  43.454   4.311
72767ION    NA+45027  39.384  19.499  11.003
72768ION    NA+45028   8.304  30.269   0.056
72769ION    NA+45029  32.476   1.140   4.185
72770ION    NA+45030  22.872  11.755  11.359
72771ION    NA+45031  37.027  42.358   0.321
72772ION    NA+45032  26.734  17.343   3.298
72773ION    NA+45033  20.080  16.882   1.561
72774ION    NA+45034  31.833  17.835  12.821
72775ION    NA+45035   2.069   0.764  12.110
72776ION    NA+45036  10.767  38.810  14.688
72777ION    NA+45037   0.799   3.718  12.535
72778ION    NA+45038  23.668  42.946   1.064
72779ION    NA+45039  25.205  15.628  12.038
72780ION    NA+45040   1.100  36.539   1.607
72781ION    NA+45041  11.639  12.048  11.784
72782ION    NA+45042  17.086  39.281  10.081
72783ION    NA+45043   2.263  38.953   9.852
72784ION    NA+45044   7.444   4.934  13.478
72785ION    NA+45045  14.941   3.239  13.606
72786ION    NA+45046   7.228  33.196  12.463
72787ION    NA+45047   2.274  10.509   0.373
72788ION    NA+45048  39.642  36.637   2.344
72789ION    NA+45049   6.675  20.186   4.541
72790ION    NA+45050  35.167  10.656  12.426
72791ION    NA+45051   7.324  22.734   3.993
72792ION    NA+45052  41.735  41.313   0.933
72793ION    NA+45053  43.790  14.880   2.907
72794ION    NA+45054  38.863  35.875   2.485
72795ION    NA+45055  41.966  21.066  14.370
72796ION    NA+45056  28.537  17.424   1.989
72797ION    NA+45057   1.150  32.258   1.633
72798ION    NA+45058   7.835  41.330  12.279
72799ION    NA+45059  31.112  26.192   4.806
72800ION    NA+45060  31.892  32.893   1.643
72801ION    NA+45061   6.647  20.465   3.558
72802ION    NA+45062   5.490  21.045   2.293
72803ION    NA+45063  15.093  37.592   4.115
72804ION    NA+45064  44.574  28.775   4.120
72805ION    NA+45065  21.969  35.553  13.483
72806ION    NA+45066   3.018  21.068   0.450
72807ION    NA+45067   2.694   0.602   2.407
72808ION    NA+45068  34.448   7.455   2.845
72809ION    NA+45069  40.294  12.927  14.366
72810ION    NA+45070   7.202  40.037  12.559
72811ION    NA+45071  17.794  10.901  13.049
72812ION    NA+45072  20.137   4.196  11.885
72813ION    NA+45073  38.883  28.260  11.501
72814ION    NA+45074  27.764  37.720   1.692
72815ION    NA+45075  40.178  33.034  12.138
72816ION    NA+45076  31.740  35.575   4.758
72817ION    NA+45077   1.303  40.113   4.028
72818ION    NA+45078   3.270   4.497  10.477
72819ION    NA+45079   0.441  29.159  11.628
72820ION    NA+45080  21.358  16.717   2.414
72821ION    NA+45081  21.055  38.547   2.549
72822ION    NA+45082  14.399  28.618  11.840
72823ION    NA+45083  18.865  16.221   2.095
72824ION    NA+45084  36.396  28.159   2.418
72825ION    NA+45085  21.476  36.940  12.334
72826ION    NA+45086  33.003  20.915   0.758
72827ION    NA+45087  31.463  31.035   1.176
72828ION    NA+45088  31.891  40.134   1.532
72829ION    NA+45089  43.755  34.138   0.433
72830ION    NA+45090  30.914  37.525  14.050
72831ION    NA+45091  27.481  16.238   2.621
72832ION    NA+45092  15.593  40.640  13.430
72833ION    NA+45093  13.037  39.913   0.568
72834ION    NA+45094  13.381  40.151   1.477
72835ION    NA+45095  17.776  18.774  14.469
72836ION    NA+45096   0.669  18.425  11.187
72837ION    NA+45097   2.714  17.120  12.331
72838ION    NA+45098  32.829  22.472  12.597
72839ION    NA+45099  18.812   0.255  12.468
72840ION    NA+45100   8.858   7.414   3.135
72841ION    NA+45101   7.849  31.065  12.203
72842ION    NA+45102   3.000  14.845   3.873
72843ION    NA+45103  44.220   0.578  11.093
72844ION    NA+45104  22.789   6.383  13.462
72845ION    NA+45105  16.944  44.972  10.341
72846ION    NA+45106  21.980  30.281  14.658
72847ION    NA+45107   0.826   1.304   3.624
72848ION    NA+45108  42.885  37.739   1.369
72849ION    NA+45109  22.459  23.133  13.918
72850ION    NA+45110  29.731  21.037  13.909
72851ION    NA+45111   5.203  17.070  13.626
72852ION    NA+45112   4.554  37.569   4.665
72853ION    NA+45113  17.445  24.795   3.276
72854ION    NA+45114  29.996   6.041   5.013
72855ION    NA+45115  14.390  11.849   1.843
72856ION    NA+45116  39.919  25.949  13.816
72857ION    NA+45117  22.548   6.460   3.666
72858ION    NA+45118  27.350   4.022   2.148
72859ION    NA+45119  40.568  38.436  11.538
72860ION    NA+45120  28.657  35.725   3.285
72861ION    NA+45121  43.764  16.522  11.306
72862ION    NA+45122  21.261  34.827  14.927
72863ION    NA+45123  23.306   4.691   1.415
72864ION    NA+45124  30.064   7.670  11.987
72865ION    NA+45125  10.484  28.736  12.746
72866ION    NA+45126  15.064  40.299  12.653
72867ION    NA+45127  38.250  44.494   3.239
72868ION    NA+45128   2.079   4.266   3.845
72869ION    NA+45129  33.684   2.485  12.443
72870ION    NA+45130   2.954  30.030   3.420
72871ION    NA+45131   9.573  27.695   1.728
72872ION    NA+45132  35.556   0.371  13.794
72873ION    NA+45133  43.517  13.582   2.611
72874ION    NA+45134   1.211  44.883   3.896
72875ION    NA+45135  26.875  26.412   4.096
72876ION    NA+45136   0.740  20.963   0.471
72877ION    NA+45137   3.443  39.441   1.358
72878ION    NA+45138  12.236   9.880   3.811
72879ION    NA+45139  21.873   0.207   3.533
72880ION    NA+45140  22.853  20.968  10.753
72881ION    NA+45141   9.107   3.760  13.430
72882ION    NA+45142  24.021  31.637   1.882
72883ION    NA+45143  41.497  29.910  10.960
72884ION    NA+45144  15.901  17.763   2.819
72885ION    NA+45145  12.176  17.097   2.131
72886ION    NA+45146  38.480   8.444   0.667
72887ION    NA+45147  37.054   3.877  14.330
72888ION    NA+45148  38.660  14.344   1.632
72889ION    NA+45149  40.798  28.717   2.986
72890ION    NA+45150   8.303  35.979   2.169
72891ION    NA+45151  27.226  14.974   4.807
72892ION    NA+45152  38.916   6.927  13.834
72893ION    NA+45153  30.336  19.339   0.322
72894ION    NA+45154  38.180  34.425   0.919
72895ION    NA+45155  21.956  32.462  11.583
72896ION    NA+45156   0.871   1.525  10.617
72897ION    NA+45157   6.036  43.010   4.733
72898ION    NA+45158  18.911  23.172   5.172
72899ION    NA+45159   5.586  41.840  11.121
72900ION    NA+45160  22.794  38.560   1.098
72901ION    NA+45161  20.832  19.182   3.207
72902ION    NA+45162   7.035  13.158  12.097
72903ION    NA+45163  29.979  26.801  12.785
72904ION    NA+45164  28.221  44.415   1.284
72905ION    NA+45165  21.628  38.553  11.914
72906ION    NA+45166  26.061  27.093  12.950
72907ION    NA+45167  21.849  28.335  10.608
72908ION    NA+45168  18.210  22.339   2.661
72909ION    NA+45169  36.202  30.484  14.018
72910ION    NA+45170  42.449  41.209   0.213
72911ION    NA+45171   1.150  39.375  12.380
72912ION    NA+45172   8.793  32.692   0.305
72913ION    NA+45173  22.834  41.805   9.825
72914ION    NA+45174  19.266   1.247  13.612
72915ION    NA+45175  27.427  31.482  10.060
72916ION    NA+45176  43.347  30.889   3.633
72917ION    NA+45177  33.916  11.806  14.703
72918ION    NA+45178  36.141   3.972  11.375
72919ION    NA+45179  10.711  20.185   0.710
72920ION    NA+45180  29.415  43.117   4.171
72921ION    NA+45181  40.433  40.340   4.526
72922ION    NA+45182   0.345   7.820   4.459
72923ION    NA+45183  22.943   2.764  10.733
72924ION    NA+45184  30.690   6.216  12.892
72925ION    NA+45185   9.519  43.641  14.884
72926ION    NA+45186   6.168  26.160   3.354
72927ION    NA+45187  28.797  12.197   3.770
72928ION    NA+45188  26.625  10.168  11.166
72929ION    NA+45189  33.371  20.084   0.339
72930ION    NA+45190  26.689  30.999   4.339
72931ION    NA+45191   8.748   8.771   2.854
72932ION    NA+45192  33.938  22.358   3.056
72933ION    NA+45193  19.409  35.053  12.868
72934ION    NA+45194  14.106  38.654  14.798
72935ION    NA+45195  37.117  41.135  10.798
72936ION    NA+45196  24.663   9.305   3.736
72937ION    NA+45197   0.585  41.450   4.995
72938ION    NA+45198  32.454   2.352   2.087
72939ION    NA+45199   1.538   6.364   4.257
72940ION    NA+45200  20.236  27.414  13.915
72941ION    NA+45201  20.773  30.449  11.349
72942ION    NA+45202  35.853  28.569   1.064
72943ION    NA+45203  27.737  27.132  13.080
72944ION    NA+45204   4.876  24.576  14.598
72945ION    NA+45205  15.304  33.646   2.553
72946ION    NA+45206  33.456  27.258  10.195
72947ION    NA+45207   5.683   8.567   1.752
72948ION    NA+45208  14.141  42.087  14.055
72949ION    NA+45209  39.066  28.635  14.936
72950ION    NA+45210   1.659  12.914   3.606
72951ION    NA+45211  32.382  31.227   0.831
72952ION    NA+45212  42.963   0.425  14.054
72953ION    NA+45213  28.654  23.899   4.042
72954ION    NA+45214  38.971  31.629   2.162
72955ION    NA+45215  29.933  19.719   3.695
72956ION    NA+45216  20.698  26.960  10.904
72957ION    NA+45217  35.847  15.973   2.005
72958ION    NA+45218  23.520  31.015  10.058
72959ION    NA+45219  40.629  36.797   2.375
72960ION    NA+45220  41.600  44.807  10.966
72961ION    NA+45221  10.732  30.574   4.194
72962ION    NA+45222  35.993  11.941  14.747
72963ION    NA+45223  14.533  12.284   4.265
72964ION    NA+45224  36.326  34.890  13.889
72965ION    NA+45225  16.270   3.474  10.740
72966ION    NA+45226  44.384  28.263   0.870
72967ION    NA+45227   0.772  41.241   0.941
72968ION    NA+45228  16.825  40.868   4.932
72969ION    NA+45229  12.226   9.483  11.139
72970ION    NA+45230  12.524  20.209  10.470
72971ION    NA+45231   1.791  32.884   3.752
72972ION    NA+45232  25.921  22.110  14.882
72973ION    NA+45233  18.436  33.919   5.091
72974ION    NA+45234  37.664  32.877  14.527
72975ION    NA+45235  15.376  38.380  13.257
72976ION    NA+45236   6.301  43.848  12.943
72977ION    NA+45237  26.577  14.380   0.743
72978ION    NA+45238  28.705   5.429  13.244
72979ION    NA+45239  10.816  21.799   0.564
72980ION    NA+45240   6.500   3.571   2.192
72981ION    NA+45241   8.331  13.860  11.109
72982ION    NA+45242  39.062  17.802  11.967
72983ION    NA+45243  29.335   1.743  12.114
72984ION    NA+45244  15.194   9.360  12.215
72985ION    NA+45245  27.464  35.163   2.509
72986ION    NA+45246   4.230   6.730   2.733
72987ION    NA+45247  31.945  18.794   0.456
72988ION    NA+45248  14.715   8.611   2.134
72989ION    NA+45249  38.022   1.849   5.444
72990ION    NA+45250  29.699  20.977  11.225
72991ION    NA+45251  29.232  19.993  13.044
72992ION    NA+45252  40.205  15.807  12.028
72993ION    NA+45253   9.859  17.380  10.302
72994ION    NA+45254  43.007  17.133  14.464
72995ION    NA+45255  11.732  32.411   3.767
72996ION    NA+45256  30.252  20.983   2.464
72997ION    NA+45257  13.185   9.042   0.701
72998ION    NA+45258  33.957  11.902  10.299
72999ION    NA+45259  37.345  29.636   3.233
73000ION    NA+45260  20.314  24.583  10.643
73001ION    NA+45261  20.934   0.346  12.048
73002ION    NA+45262  42.380  14.159   1.316
73003ION    NA+45263   5.169  13.859   2.331
73004ION    NA+45264  11.076   1.650  12.044
73005ION    NA+45265  19.140  22.558  11.498
73006ION    NA+45266  30.175  15.516   1.512
73007ION    NA+45267  18.160  25.742  14.459
73008ION    NA+45268   0.275  41.213  13.295
73009ION    NA+45269  31.636  32.156   1.129
73010ION    NA+45270  13.090   1.990   2.650
73011ION    NA+45271  38.504  40.057   4.624
73012ION    NA+45272  35.173   1.800   1.616
73013ION    NA+45273  17.770  26.216  11.896
73014ION    NA+45274  28.155  31.387  11.061
73015ION    NA+45275  14.102  29.973  14.494
73016ION    NA+45276   3.407  23.759   3.780
73017ION    NA+45277  23.381  43.010  13.677
73018ION    NA+45278  24.325  12.741  14.375
73019ION    NA+45279   7.103   9.700  10.823
73020ION    NA+45280   4.398   5.061  13.317
73021ION    NA+45281  20.916  43.279   2.943
73022ION    NA+45282  11.720  22.499  10.139
73023ION    NA+45283  25.992   5.016   1.660
73024ION    NA+45284  18.031  31.293  13.270
73025ION    NA+45285  12.493  35.633  13.717
73026ION    NA+45286   6.690  24.085   1.716
73027ION    NA+45287  23.096  11.476   2.742
73028ION    NA+45288  19.418  31.995   5.280
73029ION    NA+45289  25.909   1.440  14.169
73030ION    NA+45290  27.950  24.979   1.752
73031ION    NA+45291   8.480  31.837   0.719
73032ION    NA+45292  22.762  18.275   0.736
73033ION    NA+45293   2.967  18.033   4.559
73034ION    NA+45294  41.048   0.571  11.656
73035ION    NA+45295  19.406  24.976  12.431
73036ION    NA+45296  42.784  28.560   5.030
73037ION    NA+45297  18.671  33.896  13.350
73038ION    NA+45298  24.775  12.637   3.910
73039ION    NA+45299   0.351  18.517   4.498
73040ION    NA+45300   7.228  10.666  14.506
73041ION    NA+45301  36.156  17.718  13.604
73042ION    NA+45302  30.887   5.719   4.692
73043ION    NA+45303  14.915  23.107   3.656
73044ION    NA+45304  25.229   1.521  13.440
73045ION    NA+45305  12.627  12.385   3.335
73046ION    NA+45306  23.505   8.091  11.421
73047ION    NA+45307  44.463  26.549  13.550
73048ION    NA+45308   8.895  31.027  12.927
73049ION    NA+45309  19.394  13.016  10.519
73050ION    NA+45310  15.437  43.863  12.705
73051ION    NA+45311  34.188  14.610   0.074
73052ION    NA+45312  21.396  21.333   2.742
73053ION    NA+45313   0.234  12.599   3.248
73054ION    NA+45314  37.867  19.081  11.678
73055ION    NA+45315  28.355  22.026   1.261
73056ION    NA+45316  21.380  15.382   2.258
73057ION    NA+45317   9.498  33.954  10.692
73058ION    NA+45318   2.264  14.253   3.545
73059ION    NA+45319  12.769  21.819   4.655
73060ION    NA+45320  17.230  39.062   1.742
73061ION    NA+45321  15.662  21.725  13.070
73062ION    NA+45322  10.656  42.396   0.757
73063ION    NA+45323  37.189  34.643   1.049
73064ION    NA+45324  17.198  30.938   2.627
73065ION    NA+45325  25.020  25.826   1.219
73066ION    NA+45326   7.672  23.763   2.543
73067ION    NA+45327  38.953  11.575  14.286
73068ION    NA+45328  12.780  42.728   1.821
73069ION    NA+45329  27.068  19.732   0.803
73070ION    NA+45330  39.518  22.417   0.132
73071ION    NA+45331  18.864   5.181  13.367
73072ION    NA+45332  28.851   5.129  10.530
73073ION    NA+45333  34.054  14.824  10.767
73074ION    NA+45334  16.688  29.850  12.047
73075ION    NA+45335   6.696   6.363  13.289
73076ION    NA+45336   4.719  26.260   2.752
73077ION    NA+45337   1.051  32.443   2.512
73078ION    NA+45338  41.045  43.016   2.885
73079ION    NA+45339  40.594  24.473  11.078
73080ION    NA+45340  39.922  25.239   3.390
73081ION    NA+45341  35.424  26.758  10.789
73082ION    NA+45342  22.190  43.836   2.900
73083ION    NA+45343  18.393   3.044  13.104
73084ION    NA+45344  13.297  11.291  14.378
73085ION    NA+45345  44.371   8.229   2.714
73086ION    NA+45346   0.639  14.296  14.721
73087ION    NA+45347   1.239  20.250  13.008
73088ION    NA+45348  38.227  26.853  12.632
73089ION    NA+45349   4.419  10.273   4.267
73090ION    NA+45350  36.082  19.327  12.697
73091ION    NA+45351  10.411  17.554  11.197
73092ION    NA+45352  15.684  27.932   1.828
73093ION    NA+45353  20.323  31.066  12.660
73094ION    NA+45354  14.559  30.411  12.556
73095ION    NA+45355   7.659  41.504   0.325
73096ION    NA+45356   2.082   5.419   1.926
73097ION    NA+45357  39.823  39.089   2.842
73098ION    NA+45358   0.264  44.819   3.655
73099ION    NA+45359  30.492  17.128   3.659
73100ION    NA+45360  25.696  21.344   1.829
73101ION    NA+45361  18.053   4.501  12.781
73102ION    NA+45362  10.939  14.998   2.671
73103ION    NA+45363  13.617  13.377  11.499
73104ION    NA+45364  13.652  35.041   2.919
73105ION    NA+45365  24.327  44.838   2.409
73106ION    NA+45366   2.189  14.621  13.588
73107ION    NA+45367  30.083   7.936   1.828
73108ION    NA+45368  42.905   1.506  12.656
73109ION    NA+45369   1.353  34.875  11.937
73110ION    NA+45370  25.336  44.989   3.266
73111ION    NA+45371  38.423   0.264  12.165
73112ION    NA+45372  25.419  22.309   4.462
73113ION    NA+45373  33.975  24.208  14.970
73114ION    NA+45374  32.414  36.913  12.603
73115ION    NA+45375  15.286  27.736   3.791
73116ION    NA+45376  12.599   0.177   0.278
73117ION    NA+45377  25.005  29.366  12.590
73118ION    NA+45378  28.924  44.802   0.858
73119ION    NA+45379  27.988  12.604   1.672
73120ION    NA+45380  27.579  35.459  13.832
73121ION    NA+45381   1.253  17.658  12.842
73122ION    NA+45382  14.565  44.466  12.371
73123ION    NA+45383   2.326  22.857  14.084
73124ION    NA+45384   5.646  14.292   3.528
73125ION    NA+45385  15.171  28.425  14.051
73126ION    NA+45386  11.176  11.118   0.310
73127ION    NA+45387   2.687  32.261   1.259
73128ION    NA+45388  27.760  36.612   4.020
73129ION    NA+45389  18.324  15.111   4.155
73130ION    NA+45390  34.925  25.769   3.122
73131ION    NA+45391  18.123  24.171   2.125
73132ION    NA+45392  22.263  31.501   2.746
73133ION    NA+45393  34.627  11.498   0.335
73134ION    NA+45394   1.928  35.497   1.300
73135ION    NA+45395  13.658   0.315   2.655
73136ION    NA+45396  24.592  17.366  13.662
73137ION    NA+45397  16.618  34.505  13.931
73138ION    NA+45398   1.726  40.821   0.698
73139ION    NA+45399  41.410  19.991  12.640
73140ION    NA+45400  18.726   4.263   1.172
73141ION    NA+45401  42.914  17.273   3.012
73142ION    NA+45402  30.392  24.931   1.863
73143ION    NA+45403  17.777  38.624  10.776
73144ION    NA+45404   0.455   9.138   3.274
73145ION    NA+45405  44.478  23.121  12.618
73146ION    NA+45406  40.109  31.457  14.360
73147ION    NA+45407  42.528  43.599  14.951
73148ION    NA+45408  22.682  24.682   1.292
73149ION    NA+45409  19.380   5.592   4.579
73150ION    NA+45410  31.399   7.665  13.706
73151ION    NA+45411  34.240  32.493   2.253
73152ION    NA+45412  40.513  13.516  12.071
73153ION    NA+45413  21.236  32.729  13.642
73154ION    NA+45414   2.154  37.549   2.141
73155ION    NA+45415   9.819   2.046  10.381
73156ION    NA+45416  14.525  19.562   2.635
73157ION    NA+45417  19.207  20.822  13.008
73158ION    NA+45418  12.215  31.097   4.973
73159ION    NA+45419  15.328  23.929   0.921
73160ION    NA+45420  41.050  21.542   3.927
73161ION    NA+45421  41.863   6.047   4.456
73162ION    NA+45422  32.362  41.772   1.241
73163ION    NA+45423  15.759   5.092  10.358
73164ION    NA+45424  23.875   1.902  14.054
73165ION    NA+45425  39.064  43.819  12.586
73166ION    NA+45426  37.411  29.587  14.171
73167ION    NA+45427  37.252   9.873   9.805
73168ION    NA+45428  32.045  34.813   0.013
73169ION    NA+45429   8.653  21.516   0.526
73170ION    NA+45430  22.428  42.518  12.067
73171ION    NA+45431  34.315  43.827  11.081
73172ION    NA+45432   2.822  29.330   2.566
73173ION    NA+45433  43.800  15.524  13.217
73174ION    NA+45434  39.129  36.422  12.666
73175ION    NA+45435  28.292  26.483  13.436
73176ION    NA+45436  15.557  28.174   0.561
73177ION    NA+45437  22.239  32.354  10.562
73178ION    NA+45438   3.470  27.450  11.742
73179ION    NA+45439  38.960  16.187   9.823
73180ION    NA+45440  21.929  14.698  11.248
73181ION    NA+45441  41.962  43.538  11.825
73182ION    NA+45442   7.005   3.005   1.749
73183ION    NA+45443  14.582  11.083  12.597
73184ION    NA+45444  30.932   3.938   4.393
73185ION    NA+45445  26.111  29.174   1.209
73186ION    NA+45446  41.973  27.147   1.281
73187ION    NA+45447  38.926  43.769   3.107
73188ION    NA+45448  11.753  38.437   0.409
73189ION    NA+45449  25.051  41.788  10.364
73190ION    NA+45450  24.178  10.801  10.707
73191ION    NA+45451  39.425  10.105   2.768
73192ION    NA+45452  43.160  18.465   4.986
73193ION    NA+45453  29.179  17.263   4.678
73194ION    NA+45454  25.577  18.003  12.054
73195ION    NA+45455  19.393  28.545   4.767
73196ION    NA+45456   2.931  12.697   4.772
73197ION    NA+45457   4.779   1.489   1.940
73198ION    NA+45458  29.737  38.519   1.393
73199ION    NA+45459  43.291  19.098  10.770
73200ION    NA+45460   2.659  12.921   3.595
73201ION    NA+45461  15.488  32.261  14.562
73202ION    NA+45462  43.840  37.297   4.432
73203ION    NA+45463  43.179   9.984   2.020
73204ION    NA+45464   6.707  31.676   2.806
73205ION    NA+45465  39.525  31.914   1.112
73206ION    NA+45466   2.243  18.181   1.886
73207ION    NA+45467  19.203  37.321  13.095
73208ION    NA+45468  17.270  35.094  14.181
73209ION    NA+45469  21.027  14.672  12.416
73210ION    NA+45470   1.304  23.128   1.845
73211ION    NA+45471  10.952   7.712   1.725
73212ION    NA+45472  39.964  28.044   3.316
73213ION    NA+45473  21.231  36.364   0.451
73214ION    NA+45474  29.188  22.570  14.380
73215ION    NA+45475   7.194  17.034   1.843
73216ION    NA+45476   6.870  16.288   2.902
73217ION    NA+45477  21.567  21.639   0.796
73218ION    NA+45478  12.729   5.280  11.983
73219ION    NA+45479   7.611  15.410   0.879
73220ION    NA+45480  13.941  37.223   2.131
73221ION    NA+45481  28.246   5.686  10.573
73222ION    NA+45482   7.139  15.439  14.659
73223ION    NA+45483  29.038  11.826   0.708
73224ION    NA+45484   1.785  11.639  14.238
73225ION    NA+45485  14.095  22.279  13.298
73226ION    NA+45486  26.750   0.408  10.681
73227ION    NA+45487  35.749  38.989   3.314
73228ION    NA+45488   0.221  41.839   2.263
73229ION    NA+45489  27.152   7.838   3.183
73230ION    NA+45490  44.686  20.089   0.757
73231ION    NA+45491   1.532  19.088  11.122
73232ION    NA+45492  44.195   6.014   4.109
73233ION    NA+45493  43.689  24.799  10.731
73234ION    NA+45494   0.046  10.680  11.514
73235ION    NA+45495  12.908  17.869  12.075
73236ION    NA+45496  10.303  39.634  11.551
73237ION    NA+45497  36.490  43.345   3.876
73238ION    NA+45498  24.769  13.796   3.754
73239ION    NA+45499  39.136   6.116  14.795
73240ION    NA+45500   9.555   7.229  11.054
73241ION    NA+45501  15.930  13.099   2.674
73242ION    NA+45502  18.915  29.047  14.053
73243ION    NA+45503  14.739   4.736   0.422
73244ION    NA+45504  22.657   2.405   1.832
73245ION    NA+45505  38.449  33.284  10.323
73246ION    NA+45506   5.430  14.118  11.227
73247ION    NA+45507  20.117  35.503   4.434
73248ION    NA+45508  44.071   8.359  10.229
73249ION    NA+45509   1.058   6.287  13.890
73250ION    NA+45510  43.885  31.764  12.423
73251ION    NA+45511  33.976  16.142   4.631
73252ION    NA+45512  36.324  19.994  14.452
73253ION    NA+45513  20.307  22.000  10.363
73254ION    NA+45514  25.532   2.181  10.360
73255ION    NA+45515  32.545  27.269   0.454
73256ION    NA+45516  40.937  29.675  14.820
73257ION    NA+45517  39.480  42.809  11.562
73258ION    NA+45518  25.996  13.666   4.227
73259ION    NA+45519  21.566   3.614  12.998
73260ION    NA+45520   5.023  23.772  14.345
73261ION    NA+45521   2.165  12.106   0.036
73262ION    NA+45522  36.027  38.296  13.614
73263ION    NA+45523   5.048  35.846   9.670
73264ION    NA+45524  19.815  37.104  12.085
73265ION    NA+45525   1.715   6.635   3.165
73266ION    NA+45526  13.679  14.871   9.777
73267ION    NA+45527  25.136  36.334   0.596
73268ION    NA+45528  21.280   4.724   3.290
73269ION    NA+45529  13.244  11.374  11.346
73270ION    NA+45530  39.947   0.463   4.101
73271ION    NA+45531  41.393  27.667  10.456
73272ION    NA+45532  41.968   7.904  13.662
73273ION    NA+45533  29.768  33.727   2.850
73274ION    NA+45534  11.506  31.693   2.008
73275ION    NA+45535  27.998  36.385  11.949
73276ION    NA+45536  16.818  15.113  14.025
73277ION    NA+45537   4.874  19.151  14.311
73278ION    NA+45538  32.271   3.700   2.050
73279ION    NA+45539  19.452  14.706   1.616
73280ION    NA+45540  19.463  20.870  11.088
73281ION    NA+45541  15.470  16.893  14.881
73282ION    NA+45542  31.075   3.194   0.922
73283ION    NA+45543  41.476   3.712  12.114
73284ION    NA+45544  38.804  18.525  10.590
73285ION    NA+45545  12.535  24.110   4.935
73286ION    NA+45546   3.558  23.871  11.228
73287ION    NA+45547  44.284  44.253   4.575
73288ION    NA+45548  20.228   5.395   4.717
73289ION    NA+45549   1.061  26.663   4.401
73290ION    NA+45550   0.687  15.600   2.327
73291ION    NA+45551   4.691  32.695  13.779
73292ION    NA+45552  21.027  35.230  13.612
73293ION    NA+45553  19.696  19.274   1.883
73294ION    NA+45554  28.871   4.495   0.716
73295ION    NA+45555  10.883   2.044   3.145
73296ION    NA+45556  29.440  14.712  12.095
73297ION    NA+45557   0.915  14.638  13.767
73298ION    NA+45558  28.197  34.310  11.406
73299ION    NA+45559  38.229  28.801  12.030
73300ION    NA+45560  23.494  10.266   1.688
73301ION    NA+45561  11.082  12.759  14.038
73302ION    NA+45562  20.848  35.445   3.752
73303ION    NA+45563   3.107  10.488  13.545
73304ION    NA+45564   4.191  41.117  14.845
73305ION    NA+45565  44.999   3.603   3.476
73306ION    NA+45566  44.575  18.957   4.088
73307ION    NA+45567  16.137  26.470   0.747
73308ION    NA+45568  38.680  40.555   5.336
73309ION    NA+45569  34.150  34.901  11.993
73310ION    NA+45570   0.996   6.461  12.020
73311ION    NA+45571  10.805  17.746   0.730
73312ION    NA+45572  24.485  18.683   2.486
73313ION    NA+45573  15.043  13.180   2.648
73314ION    NA+45574  40.995  12.032  14.338
73315ION    NA+45575  30.978   7.170   2.096
73316ION    NA+45576   5.529  30.831   4.721
73317ION    NA+45577  14.405  12.995  13.983
73318ION    NA+45578   4.854  43.935  13.184
73319ION    NA+45579  39.269  16.820  12.365
73320ION    NA+45580  43.915  26.703  12.689
73321ION    NA+45581   3.793  20.064  11.166
73322ION    NA+45582  10.056  35.437   2.437
73323ION    NA+45583  37.419  24.248   0.383
73324ION    NA+45584   8.693  39.690   3.676
73325ION    NA+45585  37.557  30.400   2.623
73326ION    NA+45586  31.818  30.322   3.736
73327ION    NA+45587  22.892  25.931   9.762
73328ION    NA+45588  32.442  43.821  10.906
73329ION    NA+45589  30.063  30.875   0.985
73330ION    NA+45590   2.862  42.922  12.973
73331ION    NA+45591  38.056  12.612   1.504
73332ION    NA+45592  15.628  10.072  11.577
73333ION    NA+45593  25.505  18.249   1.116
73334ION    NA+45594  19.428   3.248   0.384
73335ION    NA+45595  28.329  20.794   4.485
73336ION    NA+45596   2.476   6.604  13.953
73337ION    NA+45597  32.810  28.947   3.127
73338ION    NA+45598  27.569   8.733  11.003
73339ION    NA+45599  41.552  20.024  14.810
73340ION    NA+45600  25.597  37.829   0.474
73341ION    NA+45601   0.849  23.604  13.626
73342ION    NA+45602   9.169  13.931  14.565
73343ION    NA+45603  42.964  38.118  10.994
73344ION    NA+45604   3.460  44.984  12.628
73345ION    NA+45605  44.473  10.688  10.819
73346ION    NA+45606  32.903  13.253  10.717
73347ION    NA+45607   4.206  13.129  12.642
73348ION    NA+45608  41.541  15.443  13.861
73349ION    NA+45609  32.468  25.776   3.491
73350ION    NA+45610  28.860  26.168   2.856
73351ION    NA+45611   6.439  14.923  14.448
73352ION    NA+45612  19.617  33.425   4.476
73353ION    NA+45613   7.199  29.105   2.759
73354ION    NA+45614  21.656  32.382   0.005
73355ION    NA+45615  37.512  26.172  12.471
73356ION    NA+45616  41.860  22.683  14.049
73357ION    NA+45617  10.771  43.553   1.149
73358ION    NA+45618  44.665  44.276  14.735
73359ION    NA+45619  28.687  31.688   3.143
73360ION    NA+45620   5.980   1.748   4.166
73361ION    NA+45621   9.074  43.281   1.826
73362ION    NA+45622  24.762   5.856   2.494
73363ION    NA+45623  35.456  11.127  11.138
73364ION    NA+45624   7.675  20.788  12.635
73365ION    NA+45625  28.211  13.668   1.140
73366ION    NA+45626  37.297  11.175   3.204
73367ION    NA+45627  14.497  35.328  13.301
73368ION    NA+45628   3.989  27.711  12.570
73369ION    NA+45629  34.618   4.706  12.182
73370ION    NA+45630  32.766  16.385   1.129
73371ION    NA+45631  43.298  19.047   4.533
73372ION    NA+45632   8.795  42.377   0.733
73373ION    NA+45633  24.559   3.493  12.470
73374ION    NA+45634  17.470  30.722  13.870
73375ION    NA+45635  37.389  28.248  14.462
73376ION    NA+45636  12.300   2.032   0.234
73377ION    NA+45637  13.386  33.844  12.874
73378ION    NA+45638  23.217  41.773  11.906
73379ION    NA+45639   6.261   5.823  13.881
73380ION    NA+45640  35.901  36.133   0.026
73381ION    NA+45641  27.984  23.325   4.751
73382ION    NA+45642  11.934  18.219   9.761
73383ION    NA+45643  17.268  25.555  14.970
73384ION    NA+45644  38.923  43.045   1.134
73385ION    NA+45645   2.785  40.753   3.605
73386ION    NA+45646  43.496   2.687   1.743
73387ION    NA+45647  20.524  21.806   2.863
73388ION    NA+45648   2.664  15.060   3.111
73389ION    NA+45649  43.003  24.671  12.595
73390ION    NA+45650   6.018  22.190  13.835
73391ION    NA+45651   9.326   1.923  12.556
73392ION    NA+45652   8.738  22.399   3.961
73393ION    NA+45653   2.514  27.328  12.268
73394ION    NA+45654   9.079  11.075  11.020
73395ION    NA+45655  22.421  19.773   4.033
73396ION    NA+45656  30.944  10.014   5.106
73397ION    NA+45657  38.878  30.526  13.894
73398ION    NA+45658  34.596   7.927   1.533
73399ION    NA+45659   8.245  43.541  11.786
73400ION    NA+45660  33.939  38.227   4.909
73401ION    NA+45661  38.622  40.790  14.032
73402ION    NA+45662  13.553   9.706   3.133
73403ION    NA+45663   2.741  41.260   4.516
73404ION    NA+45664  21.690  13.156  10.699
73405ION    NA+45665  37.106  34.119  14.447
73406ION    NA+45666   2.257  42.683   1.901
73407ION    NA+45667  12.220   0.299   2.910
73408ION    NA+45668  34.050   7.263   2.076
73409ION    NA+45669  17.894  36.334  11.981
73410ION    NA+45670   8.665  13.219  14.428
73411ION    NA+45671   4.411  14.078  11.518
73412ION    NA+45672  27.495  43.025   0.762
73413ION    NA+45673  12.520  17.286  14.503
73414ION    NA+45674  39.469   2.701   2.145
73415ION    NA+45675  14.670  38.638  13.931
73416ION    NA+45676  41.381  18.147  12.550
73417ION    NA+45677  11.716  29.091  14.111
73418ION    NA+45678  31.399  39.658   4.491
73419ION    NA+45679   3.546  42.849  14.924
73420ION    NA+45680  43.150  29.898  13.579
73421ION    NA+45681  34.193  25.722   4.735
73422ION    NA+45682  21.911  27.373   0.981
73423ION    NA+45683  35.887   2.644   1.455
73424ION    NA+45684  35.276  18.826   4.762
73425ION    NA+45685  34.770  26.658  10.513
73426ION    NA+45686  15.869  39.684  13.329
73427ION    NA+45687  28.550  20.523   1.507
73428ION    NA+45688  39.361  30.448   4.128
73429ION    NA+45689  24.206   5.528   1.460
73430ION    NA+45690   7.193  24.233  12.968
73431ION    NA+45691   0.530  22.554   2.652
73432ION    NA+45692  18.089  14.130   1.005
73433ION    NA+45693  32.998   8.440   1.350
73434ION    NA+45694  36.230  42.362   0.764
73435ION    NA+45695   3.334  42.576   1.485
73436ION    NA+45696   0.024  12.764  11.618
73437ION    NA+45697  19.545   7.357   4.230
73438ION    NA+45698  23.630  28.240  14.167
73439ION    NA+45699  31.526  20.180  10.666
73440ION    NA+45700  41.941   8.982  10.200
73441ION    NA+45701  41.400  39.403  14.168
73442ION    NA+45702   5.928   6.251  11.102
73443ION    NA+45703  19.544  13.767   0.333
73444ION    NA+45704  37.706  16.735  13.997
73445ION    NA+45705  44.915  13.952   3.904
73446ION    NA+45706  44.740  19.106  11.636
73447ION    NA+45707  19.752  28.935   3.339
73448ION    NA+45708  42.055  32.355  12.514
73449ION    NA+45709  12.377   4.467   2.518
73450ION    NA+45710   1.544  13.203  10.774
73451ION    NA+45711  27.243  35.301   4.441
73452ION    NA+45712  38.457  31.245   0.860
73453ION    NA+45713  39.129  41.886  14.879
73454ION    NA+45714  18.744   7.723   3.756
73455ION    NA+45715  20.125  21.510  12.083
73456ION    NA+45716  40.756  20.086   0.450
73457ION    NA+45717  18.398   0.646  13.730
73458ION    NA+45718  11.383   2.917   4.424
73459ION    NA+45719  21.152  10.164  11.036
73460ION    NA+45720  36.392  12.037   4.600
73461ION    NA+45721  33.936  42.457  12.072
73462ION    NA+45722  12.731  21.593  14.100
73463ION    NA+45723  22.622  24.145  12.893
73464ION    NA+45724  43.624  16.099   1.236
73465ION    NA+45725  10.636   0.662   1.045
73466ION    NA+45726  16.629  35.291   4.108
73467ION    NA+45727   2.379  44.350   2.358
73468ION    NA+45728   8.995  10.737   1.131
73469ION    NA+45729  26.536  24.041   0.877
73470ION    NA+45730  10.693  13.196   4.543
73471ION    NA+45731  26.997  42.187  13.809
73472ION    NA+45732  40.218   8.703  14.480
73473ION    NA+45733   9.181  44.848   0.464
73474ION    NA+45734  43.374  23.622  11.956
73475ION    NA+45735  39.403   2.094   0.480
73476ION    NA+45736  12.817  22.885   4.160
73477ION    NA+45737  29.429  23.421   0.891
73478ION    NA+45738  41.578  44.191  14.289
73479ION    NA+45739  44.853   9.206   0.838
73480ION    NA+45740  27.020   8.597  13.383
73481ION    NA+45741  44.576  44.623  11.297
73482ION    NA+45742   2.445  18.308  13.755
73483ION    NA+45743  27.126  28.728   0.920
73484ION    NA+45744  44.515   9.200  14.363
73485ION    NA+45745  41.545  14.162  13.698
73486ION    NA+45746  29.701   0.559  12.425
73487ION    NA+45747   0.742   7.895  12.085
73488ION    NA+45748  17.155  32.283   0.951
73489ION    NA+45749  32.279   8.470  14.428
73490ION    NA+45750  17.016  26.546  12.883
73491ION    NA+45751  25.371  31.137  13.075
73492ION    NA+45752  35.891   5.892   3.430
73493ION    NA+45753  22.889   8.626  11.999
73494ION    NA+45754  29.071  32.952   5.636
73495ION    NA+45755  36.059  15.459   1.112
73496ION    NA+45756   0.704  27.500  12.496
73497ION    NA+45757   7.877  40.555   3.712
73498ION    NA+45758  28.492   8.171   2.630
73499ION    NA+45759  16.128  29.028  11.092
73500ION    NA+45760  41.329  38.086   0.759
73501ION    NA+45761  32.033  26.519   4.930
73502ION    NA+45762  39.521  27.680   0.902
73503ION    NA+45763  26.053  38.871   9.685
73504ION    NA+45764  21.429  41.430   1.378
73505ION    NA+45765  34.895  23.848  13.387
73506ION    NA+45766  25.773  38.878   1.777
73507ION    NA+45767  23.157  44.511   3.608
73508ION    NA+45768  28.361  16.867  11.976
73509ION    NA+45769   4.592  32.438  10.689
73510ION    NA+45770  24.150   4.913  13.520
73511ION    NA+45771  21.337  24.648   2.562
73512ION    NA+45772  20.256   0.362  13.528
73513ION    NA+45773  21.989  38.831   0.799
73514ION    NA+45774  12.294  23.761  14.896
73515ION    NA+45775   2.735  16.745   2.955
73516ION    NA+45776  31.424   3.101   4.669
73517ION    NA+45777  40.917   4.486  10.413
73518ION    NA+45778   6.775   2.732   0.032
73519ION    NA+45779  28.235  38.027   0.980
73520ION    NA+45780  17.700   8.453   5.265
73521ION    NA+45781  17.700  43.067   3.823
73522ION    NA+45782  13.904  27.701  11.461
73523ION    NA+45783  39.709  21.685  12.509
73524ION    NA+45784   5.112   0.830  12.715
73525ION    NA+45785  23.174   2.992   3.313
73526ION    NA+45786  26.594  33.828   2.238
73527ION    NA+45787   4.791  34.558  11.496
73528ION    NA+45788  15.982  35.845   9.722
73529ION    NA+45789  22.080  19.114  10.540
73530ION    NA+45790  42.341  36.773   0.882
73531ION    NA+45791  17.136   2.555  12.661
73532ION    NA+45792   3.816  35.809   3.783
73533ION    NA+45793  14.675  14.273  14.815
73534ION    NA+45794  43.660  27.583  14.023
73535ION    NA+45795  10.204  41.726   3.086
73536ION    NA+45796  34.968  26.194   4.316
73537ION    NA+45797  20.384  28.976   2.700
73538ION    NA+45798   6.427  31.462  11.597
73539ION    NA+45799  40.028  44.746  12.867
73540ION    NA+45800  30.112   0.354  10.757
73541ION    NA+45801  36.339  38.793   4.459
73542ION    NA+45802   2.683  22.360  14.760
73543ION    NA+45803  22.192  29.650   2.615
73544ION    NA+45804  39.068  38.841   0.936
73545ION    NA+45805  17.697   9.119  13.548
73546ION    NA+45806   6.144  14.595  13.655
73547ION    NA+45807  14.726   9.206  11.344
73548ION    NA+45808   3.858   5.751  11.731
73549ION    NA+45809  44.508   6.161   0.592
73550ION    NA+45810  23.024  30.396  12.460
73551ION    NA+45811  12.969  22.184  11.425
73552ION    NA+45812  16.662  29.589   3.571
73553ION    NA+45813   4.285   0.327   2.561
73554ION    NA+45814  36.801  41.948   3.134
73555ION    NA+45815   8.339  26.528  11.392
73556ION    NA+45816  41.007  20.766   1.139
73557ION    NA+45817  44.027  31.949  14.230
73558ION    NA+45818   5.059  38.448   3.563
73559ION    NA+45819  26.385  34.983  14.701
73560ION    NA+45820  21.650  28.927  14.504
73561ION    NA+45821  37.534  35.188  14.802
73562ION    NA+45822  44.436  21.473   1.714
73563ION    NA+45823  36.862  21.134   5.118
73564ION    NA+45824  14.714   9.984   2.493
73565ION    NA+45825  34.040   3.981  11.400
73566ION    NA+45826  28.539  12.017   2.264
73567ION    NA+45827   7.758  36.980  14.293
73568ION    NA+45828   6.054   0.796   2.560
73569ION    NA+45829  24.865  29.869  10.798
73570ION    NA+45830  39.518   5.199   0.529
73571ION    NA+45831  15.127  11.671   3.744
73572ION    NA+45832  33.862  23.870  12.857
73573ION    NA+45833  23.226  34.004   1.725
73574ION    NA+45834  28.483  38.473  11.165
73575ION    NA+45835   2.415   5.101   0.928
73576ION    NA+45836  11.904  10.154  12.121
73577ION    NA+45837  41.777  30.650  11.570
73578ION    NA+45838  16.871  14.584  14.754
73579ION    NA+45839  10.638  41.293  12.824
73580ION    NA+45840  43.025  11.777  13.878
73581ION    NA+45841  23.569  22.946  13.876
73582ION    NA+45842  39.780  32.809  10.852
73583ION    NA+45843  20.938  33.347   2.733
73584ION    NA+45844   8.867  36.537   0.380
73585ION    NA+45845   7.516   1.765  10.708
73586ION    NA+45846  10.195  14.644   2.105
73587ION    NA+45847  25.888   9.556  12.620
73588ION    NA+45848  35.861  12.881   0.202
73589ION    NA+45849  34.342  35.816   4.720
73590ION    NA+45850   4.105  11.100   0.564
73591ION    NA+45851  39.915  16.906  13.123
73592ION    NA+45852  31.622  22.360   1.933
73593ION    NA+45853  15.754  20.690   0.328
73594ION    NA+45854   5.000  41.115   3.998
73595ION    NA+45855  35.585  13.147   4.538
73596ION    NA+45856   9.641  27.389  11.589
73597ION    NA+45857  26.608  13.738   3.345
73598ION    NA+45858   8.332  35.861  10.240
73599ION    NA+45859   7.146  25.293  11.499
73600ION    NA+45860   7.652  24.717   0.179
73601ION    NA+45861  19.938  25.381   1.791
73602ION    NA+45862  32.480  23.320  13.154
73603ION    NA+45863  11.463  42.374   4.147
73604ION    NA+45864  26.203   1.526  13.217
73605ION    NA+45865  12.057  13.111  14.410
73606ION    NA+45866  24.517  27.556   5.446
73607ION    NA+45867  28.349  24.183  13.953
73608ION    NA+45868   2.453  43.243  11.276
73609ION    NA+45869   6.863  22.193   1.309
73610ION    NA+45870   1.805  32.655  14.956
73611ION    NA+45871  18.337  17.667  12.584
73612ION    NA+45872   0.685  22.211  12.442
73613ION    NA+45873  23.624  25.624  12.940
73614ION    NA+45874   3.157   5.498  10.227
73615ION    NA+45875  30.463  43.319  10.904
73616ION    NA+45876  15.856  15.930   1.194
73617ION    NA+45877  31.076  20.174  12.152
73618ION    NA+45878   4.330   9.331   3.943
73619ION    NA+45879  39.584  44.799   0.878
73620ION    NA+45880  17.735  42.138   3.456
73621ION    NA+45881   6.462  21.727  14.685
73622ION    NA+45882   3.242  26.901   4.237
73623ION    NA+45883   3.958  10.677  11.561
73624ION    NA+45884  43.529   8.217   1.792
73625ION    NA+45885  43.046   7.061  14.550
73626ION    NA+45886   7.290   1.972  12.848
73627ION    NA+45887  33.989  14.785  11.644
73628ION    NA+45888  31.013  42.501  11.070
73629ION    NA+45889  18.337   6.448   1.724
73630ION    NA+45890  25.055  31.122   2.727
73631ION    NA+45891   9.174  15.669  13.427
73632ION    NA+45892  42.968  14.688  12.197
73633ION    NA+45893  15.341  32.476   4.659
73634ION    NA+45894   2.141  29.595  14.727
73635ION    NA+45895   4.123  43.198   2.480
73636ION    NA+45896   7.633   6.323   9.890
73637ION    NA+45897  15.724   7.746   2.811
73638ION    NA+45898  23.350  29.566  10.233
73639ION    NA+45899   6.356  39.947   3.343
73640ION    NA+45900   1.070  32.137   0.061
73641ION    NA+45901  31.883  29.175  14.621
73642ION    NA+45902  18.301   5.239   0.470
73643ION    NA+45903   3.128  38.698   4.447
73644ION    NA+45904  20.735  41.836  12.925
73645ION    NA+45905  22.117  21.151  12.311
73646ION    NA+45906   5.286  29.726   4.228
73647ION    NA+45907  20.342   4.903   0.695
73648ION    NA+45908  27.616  26.625  13.900
73649ION    NA+45909  21.092   2.912   4.148
73650ION    NA+45910  42.969   4.574  11.395
73651ION    NA+45911  36.863  12.099   2.872
73652ION    NA+45912  39.128  18.623   1.152
73653ION    NA+45913  31.282  33.286  10.184
73654ION    NA+45914  33.372  39.023  11.973
73655ION    NA+45915   4.817  13.229  11.857
73656ION    NA+45916  28.444  33.542  11.997
73657ION    NA+45917  23.706  30.329  13.530
73658ION    NA+45918   2.922  40.774  12.564
73659ION    NA+45919   2.778   2.520  10.190
73660ION    NA+45920  43.969   8.381   4.278
73661ION    NA+45921  36.028  24.410   0.944
73662ION    NA+45922  16.136  12.215   4.341
73663ION    NA+45923   5.175  17.278   0.650
73664ION    NA+45924  40.961   2.346   0.084
73665ION    NA+45925  13.250   3.786  10.761
73666ION    NA+45926  11.697  34.366  11.163
73667ION    NA+45927   2.884  38.138  11.129
73668ION    NA+45928  16.730   9.824  12.331
73669ION    NA+45929  21.668   9.655   1.311
73670ION    NA+45930  11.954  29.823   9.662
73671ION    NA+45931   7.236  19.609   2.639
73672ION    NA+45932   7.865  18.125   0.070
73673ION    NA+45933  27.916  10.012   3.795
73674ION    NA+45934  28.227  34.823   3.252
73675ION    NA+45935  37.380  11.269  14.622
73676ION    NA+45936  41.864  36.695  13.381
73677ION    NA+45937  26.227  37.780  12.846
73678ION    NA+45938  29.661   1.460   0.321
73679ION    NA+45939  16.590  30.283  12.956
73680ION    NA+45940  19.549  22.593   1.464
73681ION    NA+45941  43.118  24.305  11.387
73682ION    NA+45942  26.610  11.902   3.034
73683ION    NA+45943  41.192  12.823  13.356
73684ION    NA+45944   2.732  14.881  11.112
73685ION    NA+45945   4.083   0.553  12.923
73686ION    NA+45946  29.109  17.218  11.412
73687ION    NA+45947  26.834   6.769   0.444
73688ION    NA+45948  36.627  13.144   2.417
73689ION    NA+45949   1.691  30.852   5.073
73690ION    NA+45950  39.350  40.291  11.743
73691ION    NA+45951  22.303  14.694   1.349
73692ION    NA+45952  14.056   9.431   1.001
73693ION    NA+45953   0.428  31.180   0.405
73694ION    NA+45954  12.056  32.720   0.678
73695ION    NA+45955  20.784  22.033   0.317
73696ION    NA+45956  40.366   3.303  12.916
73697ION    NA+45957  16.329   6.271  13.998
73698ION    NA+45958  43.048   5.247   0.307
73699ION    NA+45959  31.993   6.128  11.141
73700ION    NA+45960  31.683  12.816  13.331
73701ION    NA+45961   1.411   3.897  14.855
73702ION    NA+45962   1.906   3.862  12.523
73703ION    NA+45963   6.606  39.306  12.227
73704ION    NA+45964  39.104   7.287   3.744
73705ION    NA+45965   2.965  11.222  14.858
73706ION    NA+45966  30.100  44.394  12.040
73707ION    NA+45967  25.806  41.396  13.701
73708ION    NA+45968  43.139  21.997   3.833
73709ION    NA+45969  28.811  35.502  14.257
73710ION    NA+45970  41.287  14.727   2.557
73711ION    NA+45971  38.035  39.825   3.574
73712ION    NA+45972   8.096  19.828   2.826
73713ION    NA+45973   0.200  23.066   1.409
73714ION    NA+45974  22.967   6.272  11.633
73715ION    NA+45975  15.088  28.901  14.987
73716ION    NA+45976  35.882  26.467   3.949
73717ION    NA+45977  13.839   2.056   0.819
73718ION    NA+45978  20.484  40.458  14.999
73719ION    NA+45979  42.423  16.224  13.704
73720ION    NA+45980  22.281  20.948   5.317
73721ION    NA+45981  27.868  15.034  13.244
73722ION    NA+45982  24.615  41.369  13.432
73723ION    NA+45983   6.465   9.975  12.284
73724ION    NA+45984   4.025  22.089  11.030
73725ION    NA+45985  26.637  42.680   0.381
73726ION    NA+45986   0.316  13.727   0.938
73727ION    NA+45987   7.000  34.061   1.370
73728ION    NA+45988  24.689  28.965   1.291
73729ION    NA+45989  34.866  18.072   1.811
73730ION    NA+45990  35.094  42.870   4.110
73731ION    NA+45991  12.263  34.144   0.371
73732ION    NA+45992   2.241  29.619  10.628
73733ION    NA+45993  28.140  19.437  14.523
73734ION    NA+45994   0.082  41.514   3.895
73735ION    NA+45995   1.969  16.318  14.893
73736ION    NA+45996  22.277  26.896  12.510
73737ION    NA+45997  40.846   4.490  13.052
73738ION    NA+45998  42.739  17.168   1.465
73739ION    NA+45999  25.298  17.232  14.359
73740ION    NA+46000  40.759  27.682   2.382
73741ION    NA+46001  30.367  15.478  11.875
73742ION    NA+46002   5.917   5.019  13.539
73743ION    NA+46003  32.188  40.797  11.787
73744ION    NA+46004  26.551  27.726   2.835
73745ION    NA+46005   8.063  35.156   4.493
73746ION    NA+46006  42.858  29.436   1.170
73747ION    NA+46007  27.197  16.594  11.879
73748ION    NA+46008  10.797  28.492   4.476
73749ION    NA+46009   1.488  25.303  11.116
73750ION    NA+46010  42.796  20.343   2.862
73751ION    NA+46011  33.526  12.666  11.263
73752ION    NA+46012  32.722   6.612  11.625
73753ION    NA+46013  31.643  28.161  11.702
73754ION    NA+46014   1.885  39.318   4.199
73755ION    NA+46015  42.038  17.257  11.686
73756ION    NA+46016   8.710  41.749   3.542
73757ION    NA+46017  18.700  39.950   9.743
73758ION    NA+46018  17.357   9.841   3.091
73759ION    NA+46019  14.871   5.024  12.868
73760ION    NA+46020  44.933  15.372  10.913
73761ION    NA+46021  38.797  43.628   4.088
73762ION    NA+46022  44.676   3.838  14.647
73763ION    NA+46023  23.008  28.681  14.954
73764ION    NA+46024  37.583  24.334  12.682
73765ION    NA+46025  32.719  21.436   4.664
73766ION    NA+46026  25.247   5.466   1.428
73767ION    NA+46027  18.730  13.014   1.665
73768ION    NA+46028  14.043  15.078   4.839
73769ION    NA+46029  38.542  32.553  11.099
73770ION    NA+46030  26.268  10.902   0.180
73771ION    NA+46031   7.211   8.031   3.552
73772ION    NA+46032  38.350  39.395  11.757
73773ION    NA+46033  14.677  28.067  13.234
73774ION    NA+46034   9.017  15.071  12.642
73775ION    NA+46035   2.582  41.565   0.160
73776ION    NA+46036  43.512   4.424  14.505
73777ION    NA+46037  11.352  27.077  11.997
73778ION    NA+46038  41.043  16.916   2.215
73779ION    NA+46039   8.479  26.343  12.736
73780ION    NA+46040   5.405   4.322   3.806
73781ION    NA+46041   7.158  20.807   2.770
73782ION    NA+46042  36.358   8.959   3.365
73783ION    NA+46043  31.426  24.842   1.798
73784ION    NA+46044  21.017  26.396  12.363
73785ION    NA+46045   0.093  14.068  11.173
73786ION    NA+46046   7.894  42.714  14.762
73787ION    NA+46047  13.037  35.035  11.101
73788ION    NA+46048  20.355  20.014   1.746
73789ION    NA+46049   4.825  11.764  12.471
73790ION    NA+46050   9.460  21.310   0.356
73791ION    NA+46051   2.349  25.556  12.337
73792ION    NA+46052  13.861   9.695  10.533
73793ION    NA+46053   6.926  17.411  13.491
73794ION    NA+46054   3.911  18.362   4.589
73795ION    NA+46055  39.058   2.324   9.634
73796ION    NA+46056   7.300   5.599   4.454
73797ION    NA+46057  20.587   3.716  12.733
73798ION    NA+46058  27.596   6.604   1.071
73799ION    NA+46059  21.983  36.681   0.834
73800ION    NA+46060  31.385  12.323  14.918
73801ION    NA+46061  17.710   5.539  14.370
73802ION    NA+46062  30.429  14.442   0.613
73803ION    NA+46063   5.877   3.592  12.024
73804ION    NA+46064   2.407  25.522   1.155
73805ION    NA+46065   2.733  23.162   4.216
73806ION    NA+46066  35.906  37.846  10.652
73807ION    NA+46067  21.431   8.569  14.085
73808ION    NA+46068  17.813   1.265  12.013
73809ION    NA+46069  22.205  25.748  11.000
73810ION    NA+46070  30.111   8.881   3.614
73811ION    NA+46071   8.139  27.163  12.138
73812ION    NA+46072  42.793  27.880  10.998
73813ION    NA+46073   9.758  28.534   1.897
73814ION    NA+46074  33.976  35.289   1.056
73815ION    NA+46075   6.170  22.105  12.471
73816ION    NA+46076  26.967   0.431   4.601
73817ION    NA+46077  18.316   2.455   1.906
73818ION    NA+46078  43.437  37.436   0.216
73819ION    NA+46079  38.712   3.291   2.693
73820ION    NA+46080  35.195   5.372  12.441
73821ION    NA+46081   5.159  33.829   2.484
73822ION    NA+46082  41.936  35.341  11.131
73823ION    NA+46083   8.636  42.612   2.811
73824ION    NA+46084  17.011  14.027   2.250
73825ION    NA+46085  22.100  39.761   1.734
73826ION    NA+46086  44.877  32.530   1.164
73827ION    NA+46087  40.339  15.431  14.311
73828ION    NA+46088   7.733  28.314  10.937
73829ION    NA+46089  25.504  28.660   5.097
73830ION    NA+46090  41.769   6.111   1.396
73831ION    NA+46091  30.777  37.072   0.484
73832ION    NA+46092  22.904  27.243   1.851
73833ION    NA+46093  36.431  31.352  11.592
73834ION    NA+46094   2.463  18.127  11.112
73835ION    NA+46095  27.373  41.742  10.167
73836ION    NA+46096  37.793  13.783   4.328
73837ION    NA+46097   8.763   9.225   4.629
73838ION    NA+46098  42.282  11.651  14.536
73839ION    NA+46099  29.689  19.946  11.140
73840ION    NA+46100  41.416  37.526   4.715
73841ION    NA+46101  22.305  29.557  10.601
73842ION    NA+46102  43.265  26.352  13.692
73843ION    NA+46103  21.570  24.226   1.789
73844ION    NA+46104  11.464  44.504  14.687
73845ION    NA+46105  19.840  36.577   4.649
73846ION    NA+46106  21.973   0.296   2.633
73847ION    NA+46107  27.401  23.573   1.061
73848ION    NA+46108  23.650   5.987   3.524
73849ION    NA+46109  26.697  36.123   0.789
73850ION    NA+46110  28.987  39.914   1.997
73851ION    NA+46111  14.986  27.946  12.291
73852ION    NA+46112  43.926  19.549   2.693
73853ION    NA+46113  33.483  21.409   3.102
73854ION    NA+46114   0.455   4.989   2.068
73855ION    NA+46115  10.280  18.466   0.672
73856ION    NA+46116  22.796  28.426  10.916
73857ION    NA+46117  22.519  33.964   2.431
73858ION    NA+46118  44.252  43.298  14.672
73859ION    NA+46119  40.548  11.176   4.598
73860ION    NA+46120   3.170   0.769  11.491
73861ION    NA+46121   4.459  14.311  14.802
73862ION    NA+46122  24.777  37.823  13.277
73863ION    NA+46123  19.729   6.203  10.368
73864ION    NA+46124  14.292  11.263   4.366
73865ION    NA+46125  14.436   8.720   4.140
73866ION    NA+46126  19.028  44.357   1.484
73867ION    NA+46127  14.513  29.236  13.870
73868ION    NA+46128   5.120  36.579   2.748
73869ION    NA+46129  17.202   1.951  11.618
73870ION    NA+46130  34.218   1.638   3.367
73871ION    NA+46131   2.962  37.539  13.553
73872ION    NA+46132   5.999  16.928  11.240
73873ION    NA+46133  25.670  44.810  12.039
73874ION    NA+46134  27.081  11.459  12.252
73875ION    NA+46135  38.584  34.143  10.824
73876ION    NA+46136   3.042  30.416   2.170
73877ION    NA+46137  39.067  21.278  12.997
73878ION    NA+46138   5.185   5.043  10.938
73879ION    NA+46139   4.826   1.869   1.247
73880ION    NA+46140  25.320  19.101   1.399
73881ION    NA+46141   5.659  37.642  10.302
73882ION    NA+46142  29.299  15.403   5.316
73883ION    NA+46143  15.454   1.052   2.214
73884ION    NA+46144  28.043  29.457   0.400
73885ION    NA+46145  23.999  37.465  14.779
73886ION    NA+46146  25.653  43.247  12.123
73887ION    NA+46147   7.014  43.152  13.023
73888ION    NA+46148  11.615  35.686   1.248
73889ION    NA+46149   0.875  20.549   4.117
73890ION    NA+46150  29.080  32.885  13.672
73891ION    NA+46151   7.806  15.869  11.482
73892ION    NA+46152  35.365  28.945  13.270
73893ION    NA+46153  37.377  33.447  13.757
73894ION    NA+46154  44.345  17.067   5.536
73895ION    NA+46155   5.836  22.338   2.584
73896ION    NA+46156   3.160   7.952   3.329
73897ION    NA+46157  32.459  24.485  10.677
73898ION    NA+46158  25.214  41.042  14.207
73899ION    NA+46159   8.929  38.555  11.626
73900ION    NA+46160   0.242   1.600  11.561
73901ION    NA+46161   4.558  30.601  12.689
73902ION    NA+46162  17.864  15.452  12.538
73903ION    NA+46163  19.366  19.318   3.131
73904ION    NA+46164  44.186  25.546  11.173
73905ION    NA+46165  24.212  38.814   1.516
73906ION    NA+46166   1.745  26.199   1.903
73907ION    NA+46167  26.923  31.448   2.632
73908ION    NA+46168  16.603  13.156   0.958
73909ION    NA+46169   8.484  39.419  12.420
73910ION    NA+46170  32.607  30.765   3.838
73911ION    NA+46171  35.070  10.911  13.925
73912ION    NA+46172   5.274   6.118   0.329
73913ION    NA+46173  10.955  44.515   0.837
73914ION    NA+46174   3.503  33.835   2.402
73915ION    NA+46175   5.189  39.343  11.497
73916ION    NA+46176  36.357  14.199   4.134
73917ION    NA+46177  17.296  28.922  12.846
73918ION    NA+46178  43.807  17.387  11.029
73919ION    NA+46179  39.581  14.127   2.691
73920ION    NA+46180  36.293  34.300  12.448
73921ION    NA+46181  18.809  35.882   3.873
73922ION    NA+46182   1.729  21.373   0.487
73923ION    NA+46183  28.466  25.255   2.966
73924ION    NA+46184   4.681  43.337  12.343
73925ION    NA+46185   1.132  36.654  12.570
73926ION    NA+46186  25.014  17.172   0.220
73927ION    NA+46187  41.274   0.679   2.844
73928ION    NA+46188  32.740  33.622  11.438
73929ION    NA+46189  43.688  20.072   0.696
73930ION    NA+46190  24.554  12.684   2.936
73931ION    NA+46191  35.080  28.998   0.488
73932ION    NA+46192  34.097   5.456  14.256
73933ION    NA+46193  19.534  10.091  10.968
73934ION    NA+46194  13.055  29.041  13.008
73935ION    NA+46195  14.580  16.143   3.809
73936ION    NA+46196  38.774  14.715   2.748
73937ION    NA+46197   9.323   2.897  12.786
73938ION    NA+46198  17.257  43.814   3.328
73939ION    NA+46199  37.006  38.306  12.366
73940ION    NA+46200  36.050  26.991   1.803
73941ION    NA+46201  13.823  34.575  12.548
73942ION    NA+46202  27.218  13.236   1.757
73943ION    NA+46203  37.941  20.644   4.496
73944ION    NA+46204  44.624   4.156   2.724
73945ION    NA+46205  15.667  36.295  10.346
73946ION    NA+46206   0.244  26.450   2.841
73947ION    NA+46207  13.085   3.291  14.056
73948ION    NA+46208  17.851  26.054   1.042
73949ION    NA+46209  13.406  10.859  13.429
73950ION    NA+46210  28.191  34.905  14.765
73951ION    NA+46211  41.048   8.987  14.255
73952ION    NA+46212  31.383  29.638   0.352
73953ION    NA+46213   4.612  38.931   4.338
73954ION    NA+46214  41.284  44.087   1.160
73955ION    NA+46215  32.149   9.186   0.447
73956ION    NA+46216   3.358  11.080   2.112
73957ION    NA+46217  31.984  20.229   0.937
73958ION    NA+46218  13.788  42.137   2.845
73959ION    NA+46219  32.950  19.625  13.736
73960ION    NA+46220  14.476  24.246   1.433
73961ION    NA+46221   3.912  25.774   0.474
73962ION    NA+46222  33.120  15.554  11.036
73963ION    NA+46223  13.220  36.837   4.786
73964ION    NA+46224  41.075  34.542   0.427
73965ION    NA+46225  39.905  30.052  14.443
73966ION    NA+46226  31.836   1.228  12.819
73967ION    NA+46227  17.145  42.685  14.991
73968ION    NA+46228  39.032  32.545  11.990
73969ION    NA+46229   2.309  20.135   4.199
73970ION    NA+46230  18.306  39.715   1.261
73971ION    NA+46231  39.353  17.238   0.758
73972ION    NA+46232  26.398  38.144   0.468
73973ION    NA+46233  26.669  35.478  13.880
73974ION    NA+46234  37.357   8.894   3.860
73975ION    NA+46235  13.703   6.082   0.199
73976ION    NA+46236  38.880  23.983   4.201
73977ION    NA+46237  29.388  42.969  13.627
73978ION    NA+46238  36.172  33.577  11.127
73979ION    NA+46239  36.135   4.268  14.391
73980ION    NA+46240  36.510   0.885  12.821
73981ION    NA+46241  42.413   3.786  11.659
73982ION    NA+46242  38.422  28.555  14.170
73983ION    NA+46243  25.323  24.933  11.998
73984ION    NA+46244  26.581  28.394   4.548
73985ION    NA+46245  27.642  10.295  14.359
73986ION    NA+46246   5.605  22.923  14.376
73987ION    NA+46247  21.826  14.034   4.684
73988ION    NA+46248  18.629  36.496  13.452
73989ION    NA+46249  42.599  35.921  11.606
73990ION    NA+46250  43.711  17.998  12.457
73991ION    NA+46251  22.998  43.572   1.486
73992ION    NA+46252  39.737  43.630   1.838
73993ION    NA+46253  42.564   7.838   1.762
73994ION    NA+46254   6.827  19.494   3.715
73995ION    NA+46255  19.020  38.161   3.369
73996ION    NA+46256  21.811  21.917  14.199
73997ION    NA+46257   1.955  12.953  14.777
73998ION    NA+46258   1.244  40.740   1.667
73999ION    NA+46259  35.172  20.205   4.239
74000ION    NA+46260  36.549  18.630  12.967
74001ION    NA+46261   3.801  44.125  11.333
74002ION    NA+46262  24.387  23.702  13.838
74003ION    NA+46263   7.444  35.547  13.874
74004ION    NA+46264  25.803  19.137  12.852
74005ION    NA+46265  26.001  36.437   0.301
74006ION    NA+46266  23.988  39.018   4.194
74007ION    NA+46267  25.655  37.970  12.048
74008ION    NA+46268  23.386  19.575  13.824
74009ION    NA+46269  34.373  44.835  13.312
74010ION    NA+46270  25.045  21.984  13.869
74011ION    NA+46271   2.962  12.299  13.754
74012ION    NA+46272  16.257  26.384  14.408
74013ION    NA+46273  34.641  24.776  12.862
74014ION    NA+46274  35.073   9.100   2.314
74015ION    NA+46275  11.853  43.610  14.462
74016ION    NA+46276  12.772  14.779   1.292
74017ION    NA+46277  40.582  32.394  11.485
74018ION    NA+46278   3.263   6.325   4.127
74019ION    NA+46279   5.297   3.612   5.091
74020ION    NA+46280   7.409  40.617  10.881
74021ION    NA+46281  36.440  43.703  11.402
74022ION    NA+46282   5.759  19.700  12.592
74023ION    NA+46283   1.941   7.137   1.443
74024ION    NA+46284  35.334  30.759  13.602
74025ION    NA+46285  22.781  33.065   1.666
74026ION    NA+46286  30.192  28.854  14.344
74027ION    NA+46287  41.420   6.657   1.992
74028ION    NA+46288  17.588   5.848  10.899
74029ION    NA+46289  28.018   2.106   2.609
74030ION    NA+46290  27.599   7.708  12.967
74031ION    NA+46291  17.680   2.268  13.290
74032ION    NA+46292   4.796  20.636  14.993
74033ION    NA+46293  16.205  22.230  11.922
74034ION    NA+46294  33.359  26.999  13.858
74035ION    NA+46295   4.446   2.258   1.973
74036ION    NA+46296   1.561   2.834  12.432
74037ION    NA+46297  27.011  39.141  14.024
74038ION    NA+46298  26.080  18.279  13.052
74039ION    NA+46299  13.747  32.107  10.867
74040ION    NA+46300  20.818  35.188  11.125
74041ION    NA+46301   9.669   4.366  13.036
74042ION    NA+46302   9.839  41.676  13.288
74043ION    NA+46303  13.574  39.027  14.258
74044ION    NA+46304  16.030  12.215  11.240
74045ION    NA+46305  13.753  13.886  14.783
74046ION    NA+46306  31.923   1.768   5.307
74047ION    NA+46307  39.420   4.389  14.347
74048ION    NA+46308  13.894  21.488   0.016
74049ION    NA+46309  11.965  37.066   0.194
74050ION    NA+46310  27.312  14.032  12.704
74051ION    NA+46311  26.180  39.285  12.238
74052ION    NA+46312  25.622  11.234   3.337
74053ION    NA+46313  36.234   1.291   2.558
74054ION    NA+46314   5.141  44.884  10.666
74055ION    NA+46315  40.946   6.991   0.725
74056ION    NA+46316  17.607   8.438  14.895
74057ION    NA+46317  35.612  36.393   1.117
74058ION    NA+46318  32.814  26.592   3.622
74059ION    NA+46319   1.898  40.328  14.321
74060ION    NA+46320  33.108  32.850   1.889
74061ION    NA+46321  34.550   3.316  10.836
74062ION    NA+46322  29.144  12.925  14.480
74063ION    NA+46323   7.650   1.777   2.310
74064ION    NA+46324  44.993  29.505  13.582
74065ION    NA+46325  40.060   7.524  13.826
74066ION    NA+46326  19.856  28.188   2.353
74067ION    NA+46327  10.025  12.623   9.769
74068ION    NA+46328  11.867  27.425   2.982
74069ION    NA+46329   4.793  39.483   2.997
74070ION    NA+46330  19.278  37.988  11.455
74071ION    NA+46331  33.284   3.617   0.285
74072ION    NA+46332  35.770   1.496  13.189
74073ION    NA+46333  10.238  14.322  11.619
74074ION    NA+46334  14.638   4.205  12.566
74075ION    NA+46335  40.821  35.745  10.654
74076ION    NA+46336  39.422  33.143   3.629
74077ION    NA+46337  14.352  41.656  12.171
74078ION    NA+46338  16.693  23.654  10.815
74079ION    NA+46339  35.219  36.350  11.033
74080ION    NA+46340  23.566  17.534   2.889
74081ION    NA+46341  38.358  15.192  11.646
74082ION    NA+46342   9.615  38.267   4.179
74083ION    NA+46343  29.900  31.489   2.824
74084ION    NA+46344   0.019  41.750  11.380
74085ION    NA+46345  21.774  12.707  11.838
74086ION    NA+46346   8.505  40.882  11.763
74087ION    NA+46347  26.872  26.935   0.871
74088ION    NA+46348  35.429  38.890   0.711
74089ION    NA+46349   5.257  29.997   2.429
74090ION    NA+46350   2.731  33.491  12.057
74091ION    NA+46351  12.731  12.627   0.069
74092ION    NA+46352  35.167  35.577  11.492
74093ION    NA+46353   7.432   2.127  14.584
74094ION    NA+46354   5.424  32.549   0.620
74095ION    NA+46355  18.029   5.528  12.406
74096ION    NA+46356  31.626  22.958  13.558
74097ION    NA+46357   8.289  30.242  13.969
74098ION    NA+46358  36.141   7.813   1.423
74099ION    NA+46359  30.970   4.565   2.877
74100ION    NA+46360  31.018  17.120  10.366
74101ION    NA+46361  43.042  43.861  11.169
74102ION    NA+46362  37.455  20.550  11.579
74103ION    NA+46363  32.471  38.114  10.804
74104ION    NA+46364   4.824   3.406  10.664
74105ION    NA+46365  42.153   7.612  14.518
74106ION    NA+46366  19.421  13.458   3.174
74107ION    NA+46367   1.931   7.600   3.430
74108ION    NA+46368   4.525   7.311  14.763
74109ION    NA+46369  21.672  27.310   2.940
74110ION    NA+46370   8.416  42.506  12.929
74111ION    NA+46371   9.914   8.243  13.458
74112ION    NA+46372  30.507   4.664   1.327
74113ION    NA+46373  26.205  42.862   4.284
74114ION    NA+46374   2.268  40.173  12.078
74115ION    NA+46375  37.465  10.680   0.483
74116ION    NA+46376  22.639  14.049  10.699
74117ION    NA+46377  13.232  32.736  12.894
74118ION    NA+46378  34.477  17.114  11.727
74119ION    NA+46379   7.170  20.890  11.778
74120ION    NA+46380  38.938  42.004   3.593
74121ION    NA+46381  29.425  34.299  12.055
74122ION    NA+46382   7.787   2.786  11.149
74123ION    NA+46383   8.326  19.598  14.114
74124ION    NA+46384  43.098   1.096   0.247
74125ION    NA+46385  36.351  35.051   1.490
74126ION    NA+46386  44.349   8.185   0.356
74127ION    NA+46387  22.305  22.698  14.896
74128ION    NA+46388   4.633   8.522  10.352
74129ION    NA+46389   2.845  37.654   1.631
74130ION    NA+46390  39.849  36.914   1.175
74131ION    NA+46391  17.711  40.653  10.293
74132ION    NA+46392  38.457  39.770  13.791
74133ION    NA+46393   2.217  15.570   1.300
74134ION    NA+46394  43.997   6.395   1.448
74135ION    NA+46395  31.469  16.012   2.792
74136ION    NA+46396  38.931  28.322   1.846
74137ION    NA+46397  12.316  32.482   4.575
74138ION    NA+46398  40.868  24.064  12.879
74139ION    NA+46399  41.504  13.829  14.497
74140ION    NA+46400  43.312   7.801   3.320
74141ION    NA+46401  35.103  43.852   4.433
74142ION    NA+46402  35.987  37.626   1.369
74143ION    NA+46403  41.548   8.369  11.986
74144ION    NA+46404  23.240  18.065  10.999
74145ION    NA+46405  36.610   5.768   2.020
74146ION    NA+46406  27.492  40.035  13.119
74147ION    NA+46407  35.335  42.490   5.034
74148ION    NA+46408  20.722  21.978   1.898
74149ION    NA+46409   3.251  35.013  12.968
74150ION    NA+46410  34.925  29.864  14.745
74151ION    NA+46411  17.601  33.206   3.707
74152ION    NA+46412   7.961   1.061  13.839
74153ION    NA+46413  33.277   0.475   0.742
74154ION    NA+46414  21.326  27.299  12.663
74155ION    NA+46415  40.906  23.004  14.822
74156ION    NA+46416  11.463  15.331   3.314
74157ION    NA+46417  15.545  29.690   2.590
74158ION    NA+46418  39.735  13.651  10.800
74159ION    NA+46419   1.971  20.537   3.275
74160ION    NA+46420  39.184  36.173   1.586
74161ION    NA+46421  43.339  19.387  13.120
74162ION    NA+46422  40.240  33.343   0.556
74163ION    NA+46423  31.134  43.591   2.482
74164ION    NA+46424  23.980  44.523  12.372
74165ION    NA+46425   2.444  26.226   0.446
74166ION    NA+46426  25.634  19.831   3.129
74167ION    NA+46427  10.458   7.245  11.086
74168ION    NA+46428  29.948  12.363   2.278
74169ION    NA+46429   9.217  18.154   0.378
74170ION    NA+46430  42.783  14.856  13.165
74171ION    NA+46431   2.786   6.113   0.074
74172ION    NA+46432  19.927   1.162   4.417
74173ION    NA+46433   9.550  13.036  14.795
74174ION    NA+46434  33.590  27.123   1.914
74175ION    NA+46435   5.387   4.460  11.944
74176ION    NA+46436   0.210   5.173   3.267
74177ION    NA+46437  28.438  22.251   2.301
74178ION    NA+46438  10.807  10.811   4.107
74179ION    NA+46439   7.848  43.387   2.864
74180ION    NA+46440  11.144   4.799   0.900
74181ION    NA+46441   5.553  44.890  12.896
74182ION    NA+46442  15.812  31.210   3.350
74183ION    NA+46443  16.667  32.572   5.077
74184ION    NA+46444  16.885  29.220   4.342
74185ION    NA+46445   5.882  29.346   1.570
74186ION    NA+46446  40.634   3.356   3.326
74187ION    NA+46447  37.988  27.832   4.414
74188ION    NA+46448  25.202   3.979   2.746
74189ION    NA+46449  29.274  36.794   1.751
74190ION    NA+46450  16.549   6.623   9.586
74191ION    NA+46451  39.734  18.886   4.627
74192ION    NA+46452   6.231  18.015   9.518
74193ION    NA+46453  18.767   9.547  10.627
74194ION    NA+46454  31.695   4.695   2.342
74195ION    NA+46455   7.552  17.784   0.867
74196ION    NA+46456  38.479  21.651  11.992
74197ION    NA+46457  18.055  40.969   4.931
74198ION    NA+46458   8.045  25.729  12.076
74199ION    NA+46459  12.071  21.993  11.462
74200ION    NA+46460  32.317  21.488  13.401
74201ION    NA+46461  43.306  35.222  13.832
74202ION    NA+46462  23.515  27.733  10.971
74203ION    NA+46463  23.704  29.603  12.394
74204ION    NA+46464  28.535  16.567  14.216
74205ION    NA+46465   8.183   1.881   0.229
74206ION    NA+46466   8.797   1.755   3.914
74207ION    NA+46467  28.540  25.765   1.933
74208ION    NA+46468   9.135  41.930  13.951
74209ION    NA+46469  28.997  37.084  11.309
74210ION    NA+46470  14.770  43.504   4.390
74211ION    NA+46471  11.050  34.653   4.112
74212ION    NA+46472   5.677   2.813  10.469
74213ION    NA+46473  10.334  34.010   4.398
74214ION    NA+46474  15.524   6.144  14.405
74215ION    NA+46475  24.421   9.681  12.082
74216ION    NA+46476  11.313  28.074  12.065
74217ION    NA+46477  34.122  15.722   2.706
74218ION    NA+46478  24.296  18.244  14.115
74219ION    NA+46479  28.976   7.171   2.222
74220ION    NA+46480  35.360  28.766   3.258
74221ION    NA+46481  38.647  37.659   0.464
74222ION    NA+46482  17.439  15.333   4.564
74223ION    NA+46483  21.872   0.195   0.794
74224ION    NA+46484   4.846  11.824  11.136
74225ION    NA+46485  36.431  39.502   1.602
74226ION    NA+46486  14.185  17.488   1.935
74227ION    NA+46487  15.324   2.275   1.491
74228ION    NA+46488   0.978  27.051   3.158
74229ION    NA+46489   0.672  33.433  12.172
74230ION    NA+46490  32.278   4.549   4.550
74231ION    NA+46491  37.165  19.504  14.987
74232ION    NA+46492  20.660  40.447  13.171
74233ION    NA+46493  14.243   5.324  11.416
74234ION    NA+46494  14.232  41.193  13.558
74235ION    NA+46495  21.266  16.802  11.149
74236ION    NA+46496   0.527  32.111   4.374
74237ION    NA+46497  28.526  32.081  12.034
74238ION    NA+46498   2.367  24.529  12.829
74239ION    NA+46499  27.687  16.255   4.195
74240ION    NA+46500  14.135  19.653  12.940
74241ION    NA+46501  39.517  34.649   2.287
74242ION    NA+46502  13.614  43.551  11.511
74243ION    NA+46503  21.965  31.516   3.764
74244ION    NA+46504  17.499  31.607   2.941
74245ION    NA+46505   2.078  41.363  13.059
74246ION    NA+46506  38.592  13.091   3.636
74247ION    NA+46507  31.918  33.009  14.722
74248ION    NA+46508   9.935  25.016  13.568
74249ION    NA+46509   1.416  11.919  12.671
74250ION    NA+46510  32.069   8.827  12.014
74251ION    NA+46511  32.014  29.470   1.246
74252ION    NA+46512  26.895  44.554   0.931
74253ION    NA+46513   7.596  25.797   0.215
74254ION    NA+46514  25.877  27.931  13.234
74255ION    NA+46515  31.909   7.146   1.280
74256ION    NA+46516  23.656   3.737  11.979
74257ION    NA+46517  22.108  43.913  10.704
74258ION    NA+46518  14.196  36.511   0.783
74259ION    NA+46519  19.026  16.968  14.929
74260ION    NA+46520  20.214  12.616  14.346
74261ION    NA+46521  12.187   5.957   1.376
74262ION    NA+46522  25.203  39.965   2.719
74263ION    NA+46523  32.578  10.800  10.702
74264ION    NA+46524   9.476  26.702  13.607
74265ION    NA+46525   7.256   0.982   1.807
74266ION    NA+46526  42.730   3.971   0.511
74267ION    NA+46527   6.856   7.842   0.311
74268ION    NA+46528   3.519  17.812   1.702
74269ION    NA+46529  39.122  15.666  14.763
74270ION    NA+46530  43.204  18.860  12.444
74271ION    NA+46531  12.492  17.502   1.273
74272ION    NA+46532  22.906  37.889   2.728
74273ION    NA+46533   1.536   0.889   0.847
74274ION    NA+46534  14.352  32.355   4.570
74275ION    NA+46535  16.130  15.648   2.284
74276ION    NA+46536  15.896   9.906  12.680
74277ION    NA+46537  18.157   8.163  11.997
74278ION    NA+46538  32.312  15.570  11.624
74279ION    NA+46539  19.199   1.149   2.886
74280ION    NA+46540  36.547   4.385   3.130
74281ION    NA+46541  26.253  12.720  10.709
74282ION    NA+46542  39.235  33.533  12.068
74283ION    NA+46543   5.096  39.806  14.557
74284ION    NA+46544  42.292  14.528   4.546
74285ION    NA+46545  36.010  15.409  13.282
74286ION    NA+46546  14.744   7.616  13.133
74287ION    NA+46547   1.089  43.393   1.632
74288ION    NA+46548  15.835  32.837   0.681
74289ION    NA+46549  23.152   9.371  11.553
74290ION    NA+46550  22.787  35.404   2.549
74291ION    NA+46551  43.364  35.554  14.804
74292ION    NA+46552   7.314  10.376  11.530
74293ION    NA+46553   2.782  12.728   1.483
74294ION    NA+46554  10.465  44.262   3.805
74295ION    NA+46555  29.304  32.216  11.388
74296ION    NA+46556   0.777  32.490  11.132
74297ION    NA+46557  21.016   5.933   1.892
74298ION    NA+46558  13.571  22.230   4.223
74299ION    NA+46559  30.146  38.350  11.376
74300ION    NA+46560  19.173  20.031  11.113
74301ION    NA+46561  33.002  42.100  12.255
74302ION    NA+46562  18.785  38.925   3.783
74303ION    NA+46563  25.461  23.924   3.893
74304ION    NA+46564  21.879  26.471   0.828
74305ION    NA+46565  11.205  20.265  12.594
74306ION    NA+46566  42.248   2.416   5.099
74307ION    NA+46567   3.430  18.198   0.485
74308ION    NA+46568  33.097   4.366  11.382
74309ION    NA+46569   7.682  34.874  12.109
74310ION    NA+46570  40.176  19.180   2.317
74311ION    NA+46571  19.832  25.903  11.188
74312ION    NA+46572  15.023  21.043   4.237
74313ION    NA+46573  32.603  29.330   4.207
74314ION    NA+46574  32.161  16.749  13.472
74315ION    NA+46575  39.151  27.220   2.339
74316ION    NA+46576  11.070  17.752   2.928
74317ION    NA+46577  34.024  21.229  12.983
74318ION    NA+46578   7.746   6.658  12.593
74319ION    NA+46579  33.627  28.113   2.398
74320ION    NA+46580  14.145   7.131   3.591
74321ION    NA+46581  29.589   5.238  13.844
74322ION    NA+46582   5.953  30.963   3.697
74323ION    NA+46583  38.384  20.305  11.235
74324ION    NA+46584  24.893   1.909  11.932
74325ION    NA+46585  40.860  16.051   3.947
74326ION    NA+46586  26.911   2.417  12.145
74327ION    NA+46587   1.986   4.979  11.965
74328ION    NA+46588  16.332  24.622   2.204
74329ION    NA+46589  32.410  31.375  13.723
74330ION    NA+46590  28.364  12.652  13.613
74331ION    NA+46591   3.216  39.789  12.849
74332ION    NA+46592  40.923  19.638  11.588
74333ION    NA+46593   8.483  15.660  10.776
74334ION    NA+46594  43.078  36.573  13.818
74335ION    NA+46595  11.938  23.040   4.353
74336ION    NA+46596  24.602  24.530   1.700
74337ION    NA+46597  41.859   4.853  13.341
74338ION    NA+46598   8.234  19.749   4.164
74339ION    NA+46599  34.106   9.342   2.411
74340ION    NA+46600  15.044  21.201  13.479
74341ION    NA+46601   6.439  35.227   1.761
74342ION    NA+46602  19.448  41.641  13.261
74343ION    NA+46603  26.036  18.675  13.545
74344ION    NA+46604  20.970  28.299  14.259
74345ION    NA+46605  32.259  22.189   3.324
74346ION    NA+46606   9.802   2.994  11.294
74347ION    NA+46607  22.690  31.194  10.674
74348ION    NA+46608   4.443   3.528  12.056
74349ION    NA+46609  16.356   1.018  12.015
74350ION    NA+46610  38.690  16.691   2.664
74351ION    NA+46611   9.856  10.761   1.247
74352ION    NA+46612  28.691  28.625  10.979
74353ION    NA+46613  14.065  25.392  12.380
74354ION    NA+46614   1.299  19.322   0.928
74355ION    NA+46615  25.027  40.447  12.986
74356ION    NA+46616  22.278  41.461   3.563
74357ION    NA+46617  43.971  24.132  14.053
74358ION    NA+46618  31.699  30.818  14.364
74359ION    NA+46619  40.574  39.846  11.359
74360ION    NA+46620  30.763  17.570   0.576
74361ION    NA+46621  11.345  26.876  10.311
74362ION    NA+46622  23.582   7.474  10.638
74363ION    NA+46623  41.300  27.994  12.840
74364ION    NA+46624  15.344  15.156   2.870
74365ION    NA+46625   2.429  11.436   1.859
74366ION    NA+46626   8.769   1.715   1.406
74367ION    NA+46627  10.162  27.782   4.173
74368ION    NA+46628  19.519  44.354   4.926
74369ION    NA+46629  38.750   5.262   1.775
74370ION    NA+46630   0.118  34.709  14.505
74371ION    NA+46631  33.661  20.732   1.343
74372ION    NA+46632  11.738  44.286   5.215
74373ION    NA+46633  19.026  31.520   2.778
74374ION    NA+46634   8.845  25.101   3.233
74375ION    NA+46635   4.285  11.399   1.778
74376ION    NA+46636  19.447  20.392   1.949
74377ION    NA+46637  18.961  24.035   2.652
74378ION    NA+46638  22.300  44.676  11.419
74379ION    NA+46639  44.033  23.656   1.375
74380ION    NA+46640  16.293  12.694  14.716
74381ION    NA+46641   5.585  28.219  10.346
74382ION    NA+46642   0.450  30.730  13.576
74383ION    NA+46643  15.293  24.203  14.960
74384ION    NA+46644  23.624  24.179   3.308
74385ION    NA+46645  41.639  14.828  12.527
74386ION    NA+46646  43.110  39.262   0.829
74387ION    NA+46647  30.743  24.663   0.498
74388ION    NA+46648  19.773  23.755  14.829
74389ION    NA+46649  33.651  19.292   3.005
74390ION    NA+46650  43.277  35.123   3.120
74391ION    NA+46651   0.108  44.932   0.346
74392ION    NA+46652   7.082  12.303  13.814
74393ION    NA+46653  12.639  25.136   0.832
74394ION    NA+46654  16.843  36.730  13.599
74395ION    NA+46655  15.317   0.769  12.564
74396ION    NA+46656  27.626  10.936   4.387
74397ION    NA+46657  11.497   7.976  11.837
74398ION    NA+46658  34.195  35.806  11.548
74399ION    NA+46659  33.986  41.516  13.622
74400ION    NA+46660   6.496  42.814  14.845
74401ION    NA+46661  20.905   0.570  10.748
74402ION    NA+46662   9.969  16.689  14.977
74403ION    NA+46663  17.132  41.897  11.152
74404ION    NA+46664  42.948  36.643  10.403
74405ION    NA+46665  40.749  11.398   1.819
74406ION    NA+46666  13.442   5.419  14.630
74407ION    NA+46667  32.623  21.406  11.255
74408ION    NA+46668  27.959   9.271   2.248
74409ION    NA+46669  38.059   8.412   3.335
74410ION    NA+46670  22.659  37.751  14.838
74411ION    NA+46671   5.756  28.439   1.632
74412ION    NA+46672  37.311   6.789   3.799
74413ION    NA+46673  10.058  33.181   2.953
74414ION    NA+46674   8.296  26.141   9.363
74415ION    NA+46675  31.526   3.881   0.321
74416ION    NA+46676  15.287  11.725  13.905
74417ION    NA+46677  34.733  35.744   1.311
74418ION    NA+46678  27.461  30.600  13.785
74419ION    NA+46679  15.318   6.663  12.430
74420ION    NA+46680  34.955  17.114   5.432
74421ION    NA+46681  21.483  16.673   3.802
74422ION    NA+46682   9.611  17.107   3.607
74423ION    NA+46683  42.811  39.006   2.562
74424ION    NA+46684  17.288  38.995  12.562
74425ION    NA+46685  25.205  35.862   2.428
74426ION    NA+46686   4.640  44.530   4.059
74427ION    NA+46687  43.130  28.992   2.076
74428ION    NA+46688   7.753  39.238   0.474
74429ION    NA+46689  25.644  31.393   1.109
74430ION    NA+46690  15.807   5.063   3.127
74431ION    NA+46691  37.949  27.188  10.685
74432ION    NA+46692  26.705   8.932   2.459
74433ION    NA+46693  32.003  13.837   3.872
74434ION    NA+46694  39.913  30.699   0.479
74435ION    NA+46695   5.347  27.049   3.626
74436ION    NA+46696  31.248   5.023   4.071
74437ION    NA+46697  29.398  16.897  12.463
74438ION    NA+46698  42.727  22.209   3.065
74439ION    NA+46699  19.103  40.299   2.244
74440ION    NA+46700   9.675  32.323   2.313
74441ION    NA+46701  17.453  30.960   3.424
74442ION    NA+46702  23.213   9.814   3.346
74443ION    NA+46703  29.339  26.692  13.673
74444ION    NA+46704  37.975  17.002   0.789
74445ION    NA+46705  44.144  12.944  11.179
74446ION    NA+46706  33.497  19.337   4.837
74447ION    NA+46707  12.107  30.192   0.227
74448ION    NA+46708  30.267   7.044   4.891
74449ION    NA+46709  34.016  37.290   2.694
74450ION    NA+46710  32.407  10.070   4.917
74451ION    NA+46711  32.608  20.257   3.168
74452ION    NA+46712   1.610  27.471   4.191
74453ION    NA+46713  10.598   7.194  13.595
74454ION    NA+46714  15.650  37.970   5.023
74455ION    NA+46715  12.852  13.349  13.853
74456ION    NA+46716  18.714   9.607  14.173
74457ION    NA+46717  28.277  27.369  13.897
74458ION    NA+46718  24.636  22.048  11.588
74459ION    NA+46719  11.796   7.258  13.178
74460ION    NA+46720  16.150  44.282   0.394
74461ION    NA+46721   9.867  24.337  12.624
74462ION    NA+46722  41.078  33.202   2.778
74463ION    NA+46723   0.636  18.068   3.665
74464ION    NA+46724  13.629  40.475   3.163
74465ION    NA+46725  21.852  15.984  11.347
74466ION    NA+46726  29.367  17.934  12.137
74467ION    NA+46727   1.059  15.608  12.247
74468ION    NA+46728  42.055  38.526   0.231
74469ION    NA+46729   7.492   0.651   4.098
74470ION    NA+46730   6.400  28.764   5.559
74471ION    NA+46731  17.764   6.482   4.258
74472ION    NA+46732  40.929   2.119  12.845
74473ION    NA+46733  26.508  25.284   0.273
74474ION    NA+46734  36.716  20.381   5.316
74475ION    NA+46735   7.870  29.646   1.030
74476ION    NA+46736  29.829  18.470   4.142
74477ION    NA+46737   0.818  19.507   0.336
74478ION    NA+46738  36.088  25.214   2.175
74479ION    NA+46739  19.882  12.946   0.542
74480ION    NA+46740   9.461  14.251   3.127
74481ION    NA+46741  21.403  20.325  11.408
74482ION    NA+46742  22.175  35.700   3.198
74483ION    NA+46743  23.248  20.139   5.572
74484ION    NA+46744  44.728  37.822   1.897
74485ION    NA+46745  40.859  42.108  14.288
74486ION    NA+46746  33.414  22.127  11.863
74487ION    NA+46747  35.547  25.888   0.161
74488ION    NA+46748   0.160  25.822   4.572
74489ION    NA+46749  31.580  40.883  14.024
74490ION    NA+46750  30.936  35.669   4.171
74491ION    NA+46751  16.081   8.625  12.942
74492ION    NA+46752  23.667  13.863   2.036
74493ION    NA+46753  14.117  24.679   3.386
74494ION    NA+46754  39.749  43.995  13.293
74495ION    NA+46755  32.122  35.519  14.309
74496ION    NA+46756   4.493  14.803  13.428
74497ION    NA+46757  13.272  38.138  14.604
74498ION    NA+46758  13.552  40.562   0.223
74499ION    NA+46759  43.185  28.849   2.926
74500ION    NA+46760  15.070  32.094   1.139
74501ION    NA+46761   0.613  29.533  12.539
74502ION    NA+46762  38.289  11.135   3.320
74503ION    NA+46763   9.045  23.627   2.704
74504ION    NA+46764  14.413  13.418   3.246
74505ION    NA+46765   2.252  27.895   3.707
74506ION    NA+46766   8.328  18.637   3.593
74507ION    NA+46767  32.198  14.801   4.051
74508ION    NA+46768  37.266  43.438  11.286
74509ION    NA+46769  19.945  31.015  11.735
74510ION    NA+46770  15.161  10.674   2.651
74511ION    NA+46771  19.733  29.528   1.903
74512ION    NA+46772  42.910  41.487   3.710
74513ION    NA+46773   1.611  19.856   0.119
74514ION    NA+46774  36.568  41.008   0.726
74515ION    NA+46775  38.997  40.506  10.734
74516ION    NA+46776  21.704  17.671  10.553
74517ION    NA+46777  30.980  30.981   2.707
74518ION    NA+46778  34.774  41.860   2.799
74519ION    NA+46779  28.067   3.689   3.908
74520ION    NA+46780  30.815  12.962   4.737
74521ION    NA+46781  24.641  16.326   1.204
74522ION    NA+46782  31.961   0.521   3.589
74523ION    NA+46783   9.882   6.904   4.622
74524ION    NA+46784  37.494  42.096  13.370
74525ION    NA+46785  29.542  12.658   3.934
74526ION    NA+46786  38.833  37.632  11.523
74527ION    NA+46787  27.445  34.587   3.834
74528ION    NA+46788   3.306  14.561   0.194
74529ION    NA+46789  44.745  10.825   0.887
74530ION    NA+46790  24.342  34.995  11.549
74531ION    NA+46791  27.240   4.702  13.908
74532ION    NA+46792  12.220  31.910  11.991
74533ION    NA+46793  10.477  32.472   1.581
74534ION    NA+46794  30.933  42.948   4.620
74535ION    NA+46795  12.571  27.408   1.273
74536ION    NA+46796   9.267  40.460   3.398
74537ION    NA+46797  32.762  24.538  13.961
74538ION    NA+46798  33.857  19.445  11.376
74539ION    NA+46799  40.789   1.683  13.735
74540ION    NA+46800  10.653  31.364   1.601
74541ION    NA+46801  25.243  13.807  14.038
74542ION    NA+46802   9.280  19.666   4.144
74543ION    NA+46803  11.661   9.716   2.677
74544ION    NA+46804  31.475  32.870   0.734
74545ION    NA+46805  13.009  15.164  11.135
74546ION    NA+46806  41.667  28.936   0.872
74547ION    NA+46807  21.339   2.659  14.627
74548ION    NA+46808  20.566  38.918  12.876
74549ION    NA+46809   9.663  31.435   1.483
74550ION    NA+46810  41.966  36.515   1.772
74551ION    NA+46811  35.832  32.006  14.705
74552ION    NA+46812  40.480  19.261  14.895
74553ION    NA+46813   6.687  44.956  11.558
74554ION    NA+46814  15.485   5.768   3.604
74555ION    NA+46815  13.241  38.956   0.198
74556ION    NA+46816  25.736  33.130   1.793
74557ION    NA+46817  15.559  32.526  13.417
74558ION    NA+46818  15.871   2.302  13.819
74559ION    NA+46819  27.355  33.003  14.096
74560ION    NA+46820  44.727  18.027   4.081
74561ION    NA+46821  38.768   7.941  14.464
74562ION    NA+46822  37.702  20.654   2.476
74563ION    NA+46823  30.523   7.507   4.229
74564ION    NA+46824   4.913  11.064  13.009
74565ION    NA+46825  20.334  23.096   2.925
74566ION    NA+46826  26.943  26.887  12.761
74567ION    NA+46827  14.487  24.960   9.552
74568ION    NA+46828  27.533  18.178   1.679
74569ION    NA+46829  32.812  27.860   1.825
74570ION    NA+46830  23.608  18.132   3.694
74571ION    NA+46831  10.901  24.636  12.730
74572ION    NA+46832  14.318  40.795  14.515
74573ION    NA+46833   2.204  33.613  12.963
74574ION    NA+46834  43.533  13.605  14.851
74575ION    NA+46835  15.652  23.009   0.072
74576ION    NA+46836  32.910  40.777   2.605
74577ION    NA+46837  11.832  12.100  12.648
74578ION    NA+46838   3.750   0.357   1.679
74579ION    NA+46839  15.848  33.082  12.596
74580ION    NA+46840  26.628  25.245   1.265
74581ION    NA+46841  33.628  27.303  11.661
74582ION    NA+46842  20.292  17.741  14.367
74583ION    CL-46843  30.011  28.533  14.075
74584ION    CL-46844  26.807  26.688   3.718
74585ION    CL-46845  25.705  20.829  12.532
74586ION    CL-46846  34.005  22.108   1.720
74587ION    CL-46847   1.212  11.651  12.978
74588ION    CL-46848  24.693   2.497   5.012
74589ION    CL-46849  17.863  29.546   3.734
74590ION    CL-46850  29.782  43.409   4.225
74591ION    CL-46851  43.449   3.144   5.169
74592ION    CL-46852   9.520  11.021  10.930
74593ION    CL-46853  39.804  36.094  11.974
74594ION    CL-46854  28.773  18.314   3.107
74595ION    CL-46855  44.339  30.378   0.246
74596ION    CL-46856  18.140  20.848   4.226
74597ION    CL-46857  27.038  16.257   2.574
74598ION    CL-46858  27.444  28.432   1.024
74599ION    CL-46859  30.871   2.395  10.189
74600ION    CL-46860  13.571   5.730  14.940
74601ION    CL-46861  15.132  16.491  11.149
74602ION    CL-46862   4.456  16.571  11.584
74603ION    CL-46863  25.880  27.507  13.074
74604ION    CL-46864  26.027  33.643  13.443
74605ION    CL-46865  22.490  25.545   2.276
74606ION    CL-46866  15.633   5.426   3.342
74607ION    CL-46867  41.029  44.368   0.920
74608ION    CL-46868   5.191  32.912   0.744
74609ION    CL-46869  16.924  34.814  14.072
74610ION    CL-46870  40.000  39.881   0.936
74611ION    CL-46871   8.468  16.862  13.508
74612ION    CL-46872  37.677  20.108  12.569
74613ION    CL-46873   1.949   0.698   4.715
74614ION    CL-46874  38.767  16.085   1.763
74615ION    CL-46875  37.590  38.808   0.906
74616ION    CL-46876  31.636  28.322   3.193
74617ION    CL-46877  25.921  18.729  13.088
74618ION    CL-46878   7.054  21.800   1.400
74619ION    CL-46879  41.982  44.600  11.066
74620ION    CL-46880  10.532  18.093   0.610
74621ION    CL-46881  21.287  28.606  14.368
74622ION    CL-46882   6.422  14.441  13.325
74623ION    CL-46883   3.409  38.130  14.615
74624ION    CL-46884  36.559  18.607  10.124
74625ION    CL-46885  12.063   0.469  11.446
74626ION    CL-46886  36.130  14.980  13.335
74627ION    CL-46887   4.103  19.757   3.655
74628ION    CL-46888   7.766  37.380   3.575
74629ION    CL-46889   5.803  28.027   1.813
74630ION    CL-46890  12.262   5.752   0.987
74631ION    CL-46891  41.517  12.689   1.096
74632ION    CL-46892  21.001  11.970  13.571
74633ION    CL-46893   1.221  32.475  11.189
74634ION    CL-46894  20.084  43.397   3.562
74635ION    CL-46895  12.075  36.071  11.156
74636ION    CL-46896  21.287  29.301  11.213
74637ION    CL-46897  24.123  15.212   4.454
74638ION    CL-46898  16.319   9.830  12.531
74639ION    CL-46899  38.024   6.432   0.229
74640ION    CL-46900  17.035  24.207  13.375
74641ION    CL-46901  33.286   5.840   3.277
74642ION    CL-46902  39.929   5.168  13.393
74643ION    CL-46903  24.115  35.105   1.491
74644ION    CL-46904  27.384  41.473  10.530
74645ION    CL-46905  43.981  33.128   2.174
74646ION    CL-46906  29.078   3.320  14.934
74647ION    CL-46907  24.812  16.582   1.526
74648ION    CL-46908   3.546  10.469  13.654
74649ION    CL-46909  26.395  36.904   3.647
74650ION    CL-46910  33.488   5.856  12.908
74651ION    CL-46911  38.789  40.830  12.906
74652ION    CL-46912  41.963  11.561  10.905
74653ION    CL-46913   8.264  21.582   0.295
74654ION    CL-46914  30.146  30.483   3.066
74655ION    CL-46915  17.346  33.189   3.331
74656ION    CL-46916   7.359  31.452  13.608
74657ION    CL-46917   5.123  24.205  14.448
74658ION    CL-46918  14.579  36.817   3.182
74659ION    CL-46919  19.493   8.397   4.204
74660ION    CL-46920  42.739  27.481   3.736
74661ION    CL-46921   7.875  41.443   0.713
74662ION    CL-46922  15.135  44.652  14.126
74663ION    CL-46923   0.104   3.937  14.552
74664ION    CL-46924  32.227  24.595   4.754
74665ION    CL-46925  19.788  40.991   4.222
74666ION    CL-46926  18.743  29.095   1.311
74667ION    CL-46927  34.818   1.672   1.372
74668ION    CL-46928  43.967  38.457   3.798
74669ION    CL-46929  12.361  43.091  11.001
74670ION    CL-46930   4.827   0.163   0.676
74671ION    CL-46931  41.979  39.036  10.430
74672ION    CL-46932  22.945  35.420   2.122
74673ION    CL-46933  17.888   6.881  14.010
74674ION    CL-46934  31.663   6.240   3.312
74675ION    CL-46935  37.814  13.406   4.089
74676ION    CL-46936  18.093  14.107   3.259
74677ION    CL-46937  27.766  34.153  11.360
74678ION    CL-46938   2.656  16.819   3.388
74679ION    CL-46939  40.837  17.216   1.957
74680ION    CL-46940   4.662   1.899   1.740
74681ION    CL-46941   0.493  18.623   4.924
74682ION    CL-46942  34.170   7.418   2.487
74683ION    CL-46943  30.563  28.699   1.741
74684ION    CL-46944   0.995   8.143  11.814
74685ION    CL-46945  20.810  42.897   2.719
74686ION    CL-46946   1.992  28.834  11.570
74687ION    CL-46947  41.181  11.480   1.909
74688ION    CL-46948  22.233  30.251   0.025
74689ION    CL-46949  26.775  42.466  12.404
74690ION    CL-46950  40.746  42.333  12.943
74691ION    CL-46951  32.933  42.777   1.347
74692ION    CL-46952  41.994  10.515  11.589
74693ION    CL-46953   4.422  39.505   2.733
74694ION    CL-46954  42.388  13.516  13.406
74695ION    CL-46955   1.248  19.565   0.175
74696ION    CL-46956  40.108   5.711  11.215
74697ION    CL-46957   4.734  16.477  12.540
74698ION    CL-46958  28.967  33.242  10.062
74699ION    CL-46959  35.158  26.651  10.248
74700ION    CL-46960  23.447  27.847  14.046
74701ION    CL-46961  40.120  34.539  14.831
74702ION    CL-46962   9.951  35.420  14.557
74703ION    CL-46963  30.273  27.104   0.824
74704ION    CL-46964  18.763   2.397   1.825
74705ION    CL-46965  38.955  18.749   0.760
74706ION    CL-46966  10.213  12.076   0.825
74707ION    CL-46967  27.927  42.969   2.456
74708ION    CL-46968  13.946  24.969   3.681
74709ION    CL-46969   7.932  36.228   2.148
74710ION    CL-46970  29.625  33.890   3.240
74711ION    CL-46971   6.473  34.048  10.813
74712ION    CL-46972  27.220  39.394   5.086
74713ION    CL-46973  22.904  16.531  14.182
74714ION    CL-46974  43.193  32.002  10.794
74715ION    CL-46975   3.700  43.052   2.557
74716ION    CL-46976   2.421  25.909  12.070
74717ION    CL-46977  20.241  24.786   4.611
74718ION    CL-46978   2.989   2.582  10.602
74719ION    CL-46979   3.353   5.704   2.808
74720ION    CL-46980  21.306  12.026   3.347
74721ION    CL-46981  24.255  33.985  12.254
74722ION    CL-46982  14.897  10.306   2.772
74723ION    CL-46983  35.765  19.420  12.380
74724ION    CL-46984  30.819  17.565  12.481
74725ION    CL-46985  35.495  38.009  10.704
74726ION    CL-46986   3.484   4.328   0.560
74727ION    CL-46987  13.480  43.845  11.206
74728ION    CL-46988  12.441  31.801  12.372
74729ION    CL-46989   1.596  44.700   3.698
74730ION    CL-46990  37.472  17.206  10.381
74731ION    CL-46991   7.673  19.675   2.758
74732ION    CL-46992  10.399  42.434   1.122
74733ION    CL-46993  30.839   1.034   2.136
74734ION    CL-46994  24.442   0.182   5.085
74735ION    CL-46995  15.882   1.255  11.119
74736ION    CL-46996  14.117   8.519   3.893
74737ION    CL-46997  31.057  26.334   0.762
74738ION    CL-46998   4.170  10.399  11.838
74739ION    CL-46999  36.591  10.900   1.387
74740ION    CL-47000   3.971  33.648  11.165
74741ION    CL-47001   8.129  40.973   2.609
74742ION    CL-47002   4.505  17.333  10.938
74743ION    CL-47003  27.359  34.931   1.279
74744ION    CL-47004   9.921  34.922  13.052
74745ION    CL-47005  16.217   6.685  12.903
74746ION    CL-47006   9.008  37.342   1.107
74747ION    CL-47007  21.064   8.860   2.645
74748ION    CL-47008  25.135  26.256   1.164
74749ION    CL-47009  13.070  30.137  12.467
74750ION    CL-47010  15.738  35.627  12.418
74751ION    CL-47011  16.225  18.679  13.381
74752ION    CL-47012   0.451  36.294  13.627
74753ION    CL-47013  27.522  35.103   4.142
74754ION    CL-47014  43.333  12.335   4.935
74755ION    CL-47015   6.198  41.951   1.512
74756ION    CL-47016  29.411  18.454   4.302
74757ION    CL-47017  42.978  12.522   0.995
74758ION    CL-47018   6.129  41.041  11.870
74759ION    CL-47019   1.992  11.623  10.271
74760ION    CL-47020  17.124  11.013  14.235
74761ION    CL-47021  30.280  29.947  11.876
74762ION    CL-47022   5.190  39.526   3.230
74763ION    CL-47023  40.405   4.807   2.104
74764ION    CL-47024  38.456  18.667  13.446
74765ION    CL-47025  26.727  18.061   9.860
74766ION    CL-47026   1.239  14.095  12.089
74767ION    CL-47027  28.847   8.161   1.264
74768ION    CL-47028  26.494  26.312   4.359
74769ION    CL-47029   0.025  20.683   4.916
74770ION    CL-47030  26.691  12.888   0.816
74771ION    CL-47031   6.070  22.370   2.974
74772ION    CL-47032  37.580  15.400   3.700
74773ION    CL-47033   8.622  44.755   2.233
74774ION    CL-47034   0.575  23.671  13.975
74775ION    CL-47035  37.580  14.609  14.939
74776ION    CL-47036  13.641   8.950   0.840
74777ION    CL-47037  32.908  19.217  12.376
74778ION    CL-47038  17.569  20.136  14.069
74779ION    CL-47039  34.075  17.423  13.075
74780ION    CL-47040  30.569  11.990   3.697
74781ION    CL-47041   7.729  17.983   0.496
74782ION    CL-47042  25.847  23.231   2.605
74783ION    CL-47043  40.960  13.976   4.736
74784ION    CL-47044   8.067   5.134   3.983
74785ION    CL-47045  19.401  18.878   3.048
74786ION    CL-47046  43.993  14.705   2.540
74787ION    CL-47047  33.728  15.149   3.713
74788ION    CL-47048   9.811   0.799   2.502
74789ION    CL-47049  12.289  41.294   0.421
74790ION    CL-47050   3.783  17.395  10.249
74791ION    CL-47051  43.396  36.694   3.399
74792ION    CL-47052   4.275   2.348  13.358
74793ION    CL-47053  42.108  41.445  11.559
74794ION    CL-47054   1.788  19.085   3.704
74795ION    CL-47055  39.593  22.486   0.577
74796ION    CL-47056  18.253  36.594  11.931
74797ION    CL-47057  22.599  31.928   9.923
74798ION    CL-47058  13.034  30.101  11.150
74799ION    CL-47059  29.868  42.137   1.347
74800ION    CL-47060  35.748   4.135  11.243
74801ION    CL-47061  18.041  10.876  11.874
74802ION    CL-47062  17.284  31.903   0.729
74803ION    CL-47063  25.241  38.110   0.500
74804ION    CL-47064   9.848  20.697  11.924
74805ION    CL-47065  21.636  10.205   3.342
74806ION    CL-47066  13.895  32.429   4.593
74807ION    CL-47067   8.595  31.413   0.805
74808ION    CL-47068   0.712  44.798   3.787
74809ION    CL-47069  35.385   5.622  12.774
74810ION    CL-47070  20.047  36.247   0.896
74811ION    CL-47071  32.682  22.363   3.320
74812ION    CL-47072  24.992  15.285   3.706
74813ION    CL-47073  12.887  17.710   1.308
74814ION    CL-47074   1.376  24.795   4.031
74815ION    CL-47075  10.212  14.757  11.528
74816ION    CL-47076   2.431  42.978  11.635
74817ION    CL-47077   7.504  20.400  12.491
74818ION    CL-47078   8.288   8.434  14.366
74819ION    CL-47079   5.440  29.613  11.250
74820ION    CL-47080  29.902   3.691   1.705
74821ION    CL-47081  37.302   7.125   4.096
74822ION    CL-47082  36.421  31.013  11.299
74823ION    CL-47083   4.646  30.776  12.288
74824ION    CL-47084  11.369   9.111   0.230
74825ION    CL-47085   1.194  21.199   2.231
74826ION    CL-47086   4.183  41.420  14.519
74827ION    CL-47087  21.440  14.946   2.178
74828ION    CL-47088  39.438  11.903   0.362
74829ION    CL-47089  22.801   1.513  11.544
74830ION    CL-47090  38.653  31.241   4.894
74831ION    CL-47091   2.261  24.152  11.573
74832ION    CL-47092   5.827  28.893   1.552
74833ION    CL-47093  43.231  10.316  11.674
74834ION    CL-47094  29.954  31.629  10.550
74835ION    CL-47095  42.535  38.455   3.957
74836ION    CL-47096   5.999  35.156   1.786
74837ION    CL-47097   1.978   5.826   2.105
74838ION    CL-47098   7.462  36.436  11.553
74839ION    CL-47099   8.927  41.081  11.660
74840ION    CL-47100  41.916  15.732   0.761
74841ION    CL-47101  32.302  34.417   2.644
74842ION    CL-47102  14.363  28.084   1.319
74843ION    CL-47103  40.893   5.170  14.758
74844ION    CL-47104  30.379  29.186  14.598
74845ION    CL-47105   2.288   5.175  13.139
74846ION    CL-47106  11.716  20.002   0.426
74847ION    CL-47107  29.425  32.976  13.952
74848ION    CL-47108  19.241  12.750  14.533
74849ION    CL-47109  44.410  40.054  12.571
74850ION    CL-47110   0.274  41.347   3.529
74851ION    CL-47111   4.656  30.189  11.479
74852ION    CL-47112  14.069   4.724   4.723
74853ION    CL-47113  41.072  41.350  12.943
74854ION    CL-47114  43.785  10.042   5.078
74855ION    CL-47115   5.774   7.409  11.249
74856ION    CL-47116  30.034   9.993   4.336
74857ION    CL-47117  44.274  37.331   4.562
74858ION    CL-47118   9.456  27.429   1.377
74859ION    CL-47119   9.549  28.130   1.897
74860ION    CL-47120  25.690   4.207   4.546
74861ION    CL-47121  37.862  24.626  12.485
74862ION    CL-47122   2.710  16.608   9.925
74863ION    CL-47123  30.362  26.671  10.949
74864ION    CL-47124  32.960  42.594  10.987
74865ION    CL-47125   2.334   2.695  10.045
74866ION    CL-47126   9.680   1.007  13.483
74867ION    CL-47127  33.937  19.007  11.350
74868ION    CL-47128  27.652  40.875   2.937
74869ION    CL-47129  38.776  17.161  13.748
74870ION    CL-47130  33.910  35.986  11.257
74871ION    CL-47131  42.999   7.751   0.468
74872ION    CL-47132   8.106  41.194  11.936
74873ION    CL-47133  23.121   1.249  14.994
74874ION    CL-47134  39.018  24.378   2.824
74875ION    CL-47135  23.703  11.889  12.375
74876ION    CL-47136  11.687   3.002  10.740
74877ION    CL-47137  21.095  13.566   0.253
74878ION    CL-47138  43.080  35.023   2.732
74879ION    CL-47139  29.226   1.529   3.939
74880ION    CL-47140  43.908  25.147   3.734
74881ION    CL-47141  15.214  32.081  14.259
74882ION    CL-47142  36.947   1.689  14.874
74883ION    CL-47143  10.981   7.559   4.503
74884ION    CL-47144  27.116  21.007  11.482
74885ION    CL-47145   7.380  41.089  14.420
74886ION    CL-47146  15.378   0.811   5.112
74887ION    CL-47147  17.239  36.936  13.567
74888ION    CL-47148  20.540  33.806  14.002
74889ION    CL-47149   0.829  37.935   9.715
74890ION    CL-47150  19.986   5.838  10.206
74891ION    CL-47151  29.239   2.537  14.330
74892ION    CL-47152  11.902   3.853  12.481
74893ION    CL-47153  35.884  41.306  14.763
74894ION    CL-47154  24.564  17.537  10.696
74895ION    CL-47155  27.475  17.112   0.951
74896ION    CL-47156  28.664   3.143   0.996
74897ION    CL-47157  43.167  43.040   1.168
74898ION    CL-47158  42.159  26.852   1.000
74899ION    CL-47159  27.099   2.289  11.755
74900ION    CL-47160  36.818  29.689   0.772
74901ION    CL-47161  43.980  26.967  12.331
74902ION    CL-47162  25.708  21.591   2.202
74903ION    CL-47163  19.422   9.987   5.015
74904ION    CL-47164  18.162   6.690   1.391
74905ION    CL-47165  14.493  26.652  12.111
74906ION    CL-47166   5.248  16.878   0.466
74907ION    CL-47167  17.161  27.544  12.161
74908ION    CL-47168  30.568  35.912   4.099
74909ION    CL-47169  32.376  34.635   0.257
74910ION    CL-47170  10.633  42.386  10.688
74911ION    CL-47171  44.409  24.810   2.215
74912ION    CL-47172  29.139   3.232   2.236
74913ION    CL-47173  17.878   5.134   0.366
74914ION    CL-47174  21.801   3.234  12.956
74915ION    CL-47175  16.852  38.609   5.016
74916ION    CL-47176   1.599   2.921   2.494
74917ION    CL-47177  43.037  26.234   0.656
74918ION    CL-47178  24.801  12.829  12.102
74919ION    CL-47179   0.904  24.923  12.062
74920ION    CL-47180   2.789   9.118  12.474
74921ION    CL-47181  36.085  12.810  10.892
74922ION    CL-47182  31.904  17.156   1.479
74923ION    CL-47183  37.349  31.880  14.232
74924ION    CL-47184  35.189  40.871  10.449
74925ION    CL-47185  44.752  10.617  11.172
74926ION    CL-47186  14.327  28.558   2.771
74927ION    CL-47187   7.421  38.543  12.504
74928ION    CL-47188  28.201  12.758  13.210
74929ION    CL-47189   9.441  21.086  14.959
74930ION    CL-47190  19.516  41.547  12.827
74931ION    CL-47191  13.415  25.656  14.891
74932ION    CL-47192  34.093  31.359  11.051
74933ION    CL-47193  33.486  40.382   3.906
74934ION    CL-47194  14.673   3.476  13.873
74935ION    CL-47195  16.748  27.599  13.508
74936ION    CL-47196   4.670   8.234  10.706
74937ION    CL-47197  31.516  31.812   3.760
74938ION    CL-47198   9.082  34.079  10.801
74939ION    CL-47199  23.764  10.745  14.308
74940ION    CL-47200  36.632  19.567   9.852
74941ION    CL-47201  17.284  10.170   5.114
74942ION    CL-47202  29.670  19.699   4.054
74943ION    CL-47203   0.462  21.032  13.280
74944ION    CL-47204  27.111  28.937  12.128
74945ION    CL-47205  14.555  12.045   2.209
74946ION    CL-47206  11.045  44.386  14.585
74947ION    CL-47207  17.646  21.074  12.073
74948ION    CL-47208   8.010   2.453  11.345
74949ION    CL-47209  36.625  42.386   0.536
74950ION    CL-47210  25.229  19.541   1.457
74951ION    CL-47211  35.760   5.946   3.008
74952ION    CL-47212  28.673  14.458   9.986
74953ION    CL-47213  21.062   3.298  14.814
74954ION    CL-47214  33.839   9.568  14.415
74955ION    CL-47215  38.822  38.543  12.549
74956ION    CL-47216  39.230   5.779  14.520
74957ION    CL-47217  26.724  40.335   1.361
74958ION    CL-47218  14.219  37.973   3.680
74959ION    CL-47219   4.351  32.177  10.404
74960ION    CL-47220  26.502  18.823   2.673
74961ION    CL-47221  38.722  15.836  10.015
74962ION    CL-47222  19.359  34.321   0.829
74963ION    CL-47223  30.725  17.714   0.149
74964ION    CL-47224  16.061   5.382  13.588
74965ION    CL-47225   2.297   1.267  14.242
74966ION    CL-47226  11.907  10.079   2.758
74967ION    CL-47227  35.327  13.177  12.064
74968ION    CL-47228  40.884   2.060   1.403
74969ION    CL-47229   5.817   4.608  13.369
74970ION    CL-47230   2.057  19.946   0.083
74971ION    CL-47231  11.421   3.554   9.993
74972ION    CL-47232  13.259  40.129  13.059
74973ION    CL-47233  33.979  39.107   3.679
74974ION    CL-47234  17.983  17.408  12.496
74975ION    CL-47235   5.234  41.604  11.256
74976ION    CL-47236  26.152  39.109   1.722
74977ION    CL-47237  23.793  20.066   4.161
74978ION    CL-47238  14.765   8.942   4.353
74979ION    CL-47239  15.280  33.374   2.185
74980ION    CL-47240   2.842  25.562   1.245
74981ION    CL-47241  21.030   6.755   2.648
74982ION    CL-47242  12.377  22.954   4.256
74983ION    CL-47243  10.198  44.402   2.447
74984ION    CL-47244  13.110   9.503   0.631
74985ION    CL-47245  33.385  34.460   3.677
74986ION    CL-47246  15.302  15.515  11.009
74987ION    CL-47247  32.832  23.566   2.806
74988ION    CL-47248  31.515  28.486   0.822
74989ION    CL-47249   4.789  29.276   1.302
74990ION    CL-47250  18.453   0.738  14.169
74991ION    CL-47251  13.732  44.848  13.516
74992ION    CL-47252  37.233  20.817  11.297
74993ION    CL-47253  10.518  32.611   1.158
74994ION    CL-47254   3.576  19.779   2.295
74995ION    CL-47255  23.117  37.216   0.844
74996ION    CL-47256   8.605   0.503   4.742
74997ION    CL-47257  20.975   7.854  14.837
74998ION    CL-47258  19.193  14.037  13.837
74999ION    CL-47259  23.025  24.826   2.781
75000ION    CL-47260  41.491   4.661   2.251
75001ION    CL-47261  35.158   2.330   3.551
75002ION    CL-47262  30.811  15.510  11.924
75003ION    CL-47263  36.169  25.753  12.754
75004ION    CL-47264   6.936  17.214   2.159
75005ION    CL-47265  31.105  43.257   2.809
75006ION    CL-47266  34.906  20.580   0.972
75007ION    CL-47267   5.888  37.526  14.969
75008ION    CL-47268   9.104  15.113   3.352
75009ION    CL-47269  23.413  21.771   2.972
75010ION    CL-47270   5.892  16.797   3.578
75011ION    CL-47271  33.503  29.941   2.255
75012ION    CL-47272  41.049  43.429   3.063
75013ION    CL-47273  39.574  16.644   2.189
75014ION    CL-47274  11.885   9.773  11.142
75015ION    CL-47275  39.535   2.869  14.276
75016ION    CL-47276  21.078  34.795  13.700
75017ION    CL-47277  34.795  10.660  14.188
75018ION    CL-47278  29.123  34.448   0.029
75019ION    CL-47279  33.205  35.479  14.112
75020ION    CL-47280  38.491  26.045  14.468
75021ION    CL-47281  29.818   8.906  12.387
75022ION    CL-47282  10.461  41.976   2.819
75023ION    CL-47283  16.226   9.773  14.556
75024ION    CL-47284  30.378  14.311   1.037
75025ION    CL-47285   9.169  35.174  12.444
75026ION    CL-47286   6.035   5.427  13.740
75027ION    CL-47287  12.374  43.438  12.444
75028ION    CL-47288  17.246  18.639  12.366
75029ION    CL-47289  23.728  16.734   0.040
75030ION    CL-47290  29.155  39.460   3.144
75031ION    CL-47291  22.917  14.988   2.788
75032ION    CL-47292  16.747  43.535  13.064
75033ION    CL-47293  26.912  24.680  13.274
75034ION    CL-47294  43.364   7.342  11.644
75035ION    CL-47295  23.040  19.755  13.608
75036ION    CL-47296  20.045  27.031   0.354
75037ION    CL-47297  19.308  27.317   1.303
75038ION    CL-47298  11.894  19.753   1.378
75039ION    CL-47299  27.321  26.277   4.191
75040ION    CL-47300  20.699  43.411   4.350
75041ION    CL-47301  20.267  42.900  13.822
75042ION    CL-47302  24.983   8.464   2.421
75043ION    CL-47303  38.823  18.095   4.122
75044ION    CL-47304  24.819  23.781  13.911
75045ION    CL-47305  14.618  21.254   1.212
75046ION    CL-47306  43.579  19.274  10.431
75047ION    CL-47307  26.980  20.791  12.883
75048ION    CL-47308  30.018  23.678  12.355
75049ION    CL-47309  38.988  13.112   3.839
75050ION    CL-47310  13.099  27.035  12.452
75051ION    CL-47311  40.460  25.763  11.549
75052ION    CL-47312  32.056  21.556  13.756
75053ION    CL-47313  41.254  32.783   2.722
75054ION    CL-47314   1.249   0.274   4.141
75055ION    CL-47315  37.783  41.192   4.477
75056ION    CL-47316  25.552  31.375  11.312
75057ION    CL-47317   4.465  44.924   3.938
75058ION    CL-47318  43.952   7.994   0.286
75059ION    CL-47319  35.026  44.371   2.147
75060ION    CL-47320   9.595  33.444   4.934
75061ION    CL-47321  19.773   9.908  11.298
75062ION    CL-47322  35.813  31.975  14.251
75063ION    CL-47323  10.302  28.714  13.155
75064ION    CL-47324  41.060  10.072  10.745
75065ION    CL-47325  41.496  35.576   4.946
75066ION    CL-47326  18.855  25.128  10.697
75067ION    CL-47327  37.821   9.278   1.777
75068ION    CL-47328  10.861  29.220   5.454
75069ION    CL-47329   2.165  22.887  13.660
75070ION    CL-47330  21.415  24.461   2.151
75071ION    CL-47331  43.456  10.808   4.344
75072ION    CL-47332  37.858  19.535  13.895
75073ION    CL-47333  33.841  16.130  14.397
75074ION    CL-47334  15.642  21.118   0.208
75075ION    CL-47335  32.877  21.689   4.327
75076ION    CL-47336  10.532  29.453   3.639
75077ION    CL-47337  35.410   8.578  12.029
75078ION    CL-47338  25.578  44.067  14.293
75079ION    CL-47339   5.690  31.828   2.165
75080ION    CL-47340  16.851  29.346   3.906
75081ION    CL-47341  12.608  31.346   4.963
75082ION    CL-47342  22.936  20.606   3.275
75083ION    CL-47343  37.663  37.080  13.536
75084ION    CL-47344  29.530   5.181  14.871
75085ION    CL-47345  15.949  31.522   3.049
75086ION    CL-47346  42.626   6.783   2.394
75087ION    CL-47347  19.444   8.483   2.900
75088ION    CL-47348  10.544  17.662   4.928
75089ION    CL-47349   1.142  32.316   2.084
75090ION    CL-47350  36.980  14.408   2.309
75091ION    CL-47351  13.834  18.155  13.866
75092ION    CL-47352  18.732  39.913  12.781
75093ION    CL-47353  40.132  15.556  13.932
75094ION    CL-47354  14.804  10.712  10.593
75095ION    CL-47355  26.400  31.856  12.485
75096ION    CL-47356  16.889  28.389  14.483
75097ION    CL-47357  31.665  25.765  14.468
75098ION    CL-47358  33.999  41.620   4.202
75099ION    CL-47359  19.089  40.535   1.241
75100ION    CL-47360  38.843  25.234  14.936
75101ION    CL-47361  33.668  15.739   2.662
75102ION    CL-47362  10.609  17.918  11.031
75103ION    CL-47363  28.753  26.086  10.388
75104ION    CL-47364  10.007   7.174  11.075
75105ION    CL-47365  34.679  17.506   0.933
75106ION    CL-47366   0.850  44.848   2.798
75107ION    CL-47367   4.014  13.292  13.645
75108ION    CL-47368  20.116   4.631  10.746
75109ION    CL-47369  25.082  24.599  11.797
75110ION    CL-47370  24.917  38.023   5.001
75111ION    CL-47371   9.678  24.763   1.875
75112ION    CL-47372  28.175  25.532   4.109
75113ION    CL-47373  21.278  37.092  11.966
75114ION    CL-47374  14.313  17.295  10.801
75115ION    CL-47375  34.857  31.625   3.685
75116ION    CL-47376  44.467   4.925  14.024
75117ION    CL-47377  15.724  30.887   3.658
75118ION    CL-47378  39.499   7.186  12.381
75119ION    CL-47379  18.977  13.408   3.208
75120ION    CL-47380  11.220  15.083   3.019
75121ION    CL-47381  25.470  39.915  14.710
75122ION    CL-47382  42.358  17.401   1.409
75123ION    CL-47383   3.707  12.438  11.160
75124ION    CL-47384  19.817  16.752   4.326
75125ION    CL-47385  27.234  42.421  11.416
75126ION    CL-47386   6.835  15.095  14.635
75127ION    CL-47387  12.731  41.507   3.536
75128ION    CL-47388  12.599  18.624   4.116
75129ION    CL-47389  26.070  18.776   4.853
75130ION    CL-47390  12.878  19.470  12.924
75131ION    CL-47391  24.016  33.059   2.354
75132ION    CL-47392  36.839   4.199   3.413
75133ION    CL-47393  14.955  16.403   9.962
75134ION    CL-47394   4.966   6.214  14.378
75135ION    CL-47395  20.589  29.035  13.505
75136ION    CL-47396  41.324   4.355   0.208
75137ION    CL-47397  33.602  11.828   3.165
75138ION    CL-47398  12.246  37.430  12.846
75139ION    CL-47399  28.653  13.603   1.233
75140ION    CL-47400  38.337  41.764  12.108
75141ION    CL-47401  22.440  21.068  10.609
75142ION    CL-47402   1.507  43.425   0.178
75143ION    CL-47403  12.882   8.735   0.501
75144ION    CL-47404   1.738  33.179   3.424
75145ION    CL-47405  21.993  13.128   3.328
75146ION    CL-47406  31.691  12.369  13.328
75147ION    CL-47407  21.746  14.317   4.347
75148ION    CL-47408  12.402  14.538   1.233
75149ION    CL-47409   0.512  16.434  12.028
75150ION    CL-47410  31.298   4.625   2.552
75151ION    CL-47411  18.652  30.220   9.779
75152ION    CL-47412  28.653  44.308  10.726
75153ION    CL-47413  34.554  15.755   2.843
75154ION    CL-47414  21.464  42.596  10.768
75155ION    CL-47415  17.179   5.820  10.723
75156ION    CL-47416   7.488   3.515  13.533
75157ION    CL-47417  37.791  13.105  10.631
75158ION    CL-47418   3.886  42.601   0.080
75159ION    CL-47419  27.206  41.807  13.926
75160ION    CL-47420  29.113  24.500   1.779
75161ION    CL-47421  26.626   7.352  11.639
75162ION    CL-47422  18.953  38.527   3.631
75163ION    CL-47423  22.185   9.702  14.363
75164ION    CL-47424   3.708  34.036   3.628
75165ION    CL-47425  21.613  36.476   0.667
75166ION    CL-47426  23.526  28.487  12.388
75167ION    CL-47427  39.844  21.322  14.378
75168ION    CL-47428  41.426  36.617  13.330
75169ION    CL-47429  13.045   6.826   2.182
75170ION    CL-47430  28.799  37.539  12.838
75171ION    CL-47431  16.833  24.518   4.884
75172ION    CL-47432  44.955  37.395  11.460
75173ION    CL-47433   1.324  34.089   3.385
75174ION    CL-47434  22.667   6.772   2.361
75175ION    CL-47435  24.190  23.697  11.195
75176ION    CL-47436  29.677  32.351  11.184
75177ION    CL-47437  35.949  10.758   0.618
75178ION    CL-47438  32.130  28.804  14.640
75179ION    CL-47439  17.639  25.730  10.615
75180ION    CL-47440  29.070  42.832   4.090
75181ION    CL-47441  34.033  41.933   1.844
75182ION    CL-47442   0.438  17.778  14.788
75183ION    CL-47443  33.093  12.715   4.645
75184ION    CL-47444   2.978   0.664  11.100
75185ION    CL-47445  34.889  25.228  14.022
75186ION    CL-47446   7.615  10.818  12.389
75187ION    CL-47447  33.809   1.532   3.512
75188ION    CL-47448  27.092  41.916   1.918
75189ION    CL-47449   3.747   0.249  12.884
75190ION    CL-47450  39.492   8.246  11.897
75191ION    CL-47451  34.959  34.109  14.983
75192ION    CL-47452  29.785  23.875   2.760
75193ION    CL-47453  14.262   9.678  13.763
75194ION    CL-47454  37.924  40.212   3.378
75195ION    CL-47455   9.095  34.949   1.364
75196ION    CL-47456  15.318  26.743  11.113
75197ION    CL-47457  36.892  32.800  11.626
75198ION    CL-47458  35.345  11.081  13.601
75199ION    CL-47459  29.013   9.396  12.723
75200ION    CL-47460  36.996  22.635   1.208
75201ION    CL-47461  28.136   3.418   3.543
75202ION    CL-47462   3.779   6.748  12.771
75203ION    CL-47463  24.227  39.198   1.759
75204ION    CL-47464  14.116  25.964  14.070
75205ION    CL-47465  28.945   1.963  12.035
75206ION    CL-47466  10.410  32.091  12.418
75207ION    CL-47467  28.073  37.921  10.031
75208ION    CL-47468   3.311  19.987   5.070
75209ION    CL-47469  19.364  29.709   2.081
75210ION    CL-47470  35.971  28.180  13.875
75211ION    CL-47471  27.571  21.521   1.788
75212ION    CL-47472  32.941   0.737  11.573
75213ION    CL-47473  10.381  29.370   1.422
75214ION    CL-47474  34.407   8.998  11.551
75215ION    CL-47475   0.118  26.127   3.122
75216ION    CL-47476  18.978  44.298  11.090
75217ION    CL-47477  22.037  43.925   3.308
75218ION    CL-47478  27.219  11.053  12.116
75219ION    CL-47479  14.190  13.450   3.640
75220ION    CL-47480  43.291  38.859   0.901
75221ION    CL-47481   0.638   5.263  12.877
75222ION    CL-47482   0.363  22.383   4.828
75223ION    CL-47483  29.887  12.722   3.643
75224ION    CL-47484  37.026  27.678  12.165
75225ION    CL-47485  29.424  27.170   5.068
75226ION    CL-47486  33.088  16.665   2.805
75227ION    CL-47487   5.986  23.031   4.024
75228ION    CL-47488  25.951  24.059  13.836
75229ION    CL-47489  20.626  18.710  10.353
75230ION    CL-47490   1.459  32.371   0.085
75231ION    CL-47491   5.520  29.497  12.312
75232ION    CL-47492   7.164  30.158   4.362
75233ION    CL-47493   4.944  11.375  12.676
75234ION    CL-47494  41.236   2.256  14.743
75235ION    CL-47495  35.649  17.554   4.166
75236ION    CL-47496  16.820   5.545   0.857
75237ION    CL-47497  21.246   9.236   4.919
75238ION    CL-47498   7.285   5.470   4.890
75239ION    CL-47499  17.907  33.081   4.015
75240ION    CL-47500  44.662   2.089  13.258
75241ION    CL-47501   6.646  15.903   2.894
75242ION    CL-47502   3.367  24.250  11.367
75243ION    CL-47503  19.375  43.035   2.742
75244ION    CL-47504  38.662   4.127   2.577
75245ION    CL-47505  15.142  21.984  14.794
75246ION    CL-47506   2.690  34.491   3.930
75247ION    CL-47507  34.907   5.054  12.248
75248ION    CL-47508  41.983   7.929  10.719
75249ION    CL-47509   1.642   6.853   1.613
75250ION    CL-47510  41.130  13.266  13.326
75251ION    CL-47511  13.564  31.857  10.533
75252ION    CL-47512  20.643   9.237   0.777
75253ION    CL-47513  33.520  32.315  11.399
75254ION    CL-47514  39.843   8.671  14.735
75255ION    CL-47515   9.231  34.839  14.935
75256ION    CL-47516   6.772   3.394   1.873
75257ION    CL-47517   2.550  27.301  12.713
75258ION    CL-47518  15.386  21.446  13.305
75259ION    CL-47519   2.779  14.745   1.371
75260ION    CL-47520  19.546  14.571  10.688
75261ION    CL-47521  34.101  28.207   4.160
75262ION    CL-47522  43.473  23.269  12.223
75263ION    CL-47523  35.427   9.108  14.763
75264ION    CL-47524  25.045   9.566   3.650
75265ION    CL-47525  14.683  32.144   4.899
75266ION    CL-47526   0.940  18.082  11.104
75267ION    CL-47527   2.155   5.001   2.092
75268ION    CL-47528  27.047  22.548  10.684
75269ION    CL-47529  15.047  13.316   0.937
75270ION    CL-47530  20.999   9.742  14.746
75271ION    CL-47531  26.640  35.130  14.359
75272ION    CL-47532  41.460   5.911   4.613
75273ION    CL-47533  24.262  38.380   1.393
75274ION    CL-47534  34.363  14.180   1.696
75275ION    CL-47535  41.919  21.787  11.049
75276ION    CL-47536  26.386   6.278   2.410
75277ION    CL-47537  30.163  42.765  12.497
75278ION    CL-47538  19.197   1.792  11.496
75279ION    CL-47539  26.317  35.557  13.581
75280ION    CL-47540  32.858   2.248   1.924
75281ION    CL-47541  14.900  24.417  14.958
75282ION    CL-47542  12.102  16.760  10.375
75283ION    CL-47543  23.306  25.786   2.808
75284ION    CL-47544   6.133   4.665  11.990
75285ION    CL-47545  21.886  26.911   0.930
75286ION    CL-47546  31.436  28.221   1.854
75287ION    CL-47547  33.434  24.730   3.271
75288ION    CL-47548  23.756  32.955   0.427
75289ION    CL-47549  42.883  44.509  12.412
75290ION    CL-47550   3.175  37.179  13.722
75291ION    CL-47551   8.413  22.508   2.376
75292ION    CL-47552   8.238  28.178   3.829
75293ION    CL-47553  43.786  16.947  11.143
75294ION    CL-47554   5.771   1.742  11.384
75295ION    CL-47555   6.477   6.184  13.651
75296ION    CL-47556  34.214  33.910   4.230
75297ION    CL-47557  44.647  12.434   1.053
75298ION    CL-47558  12.551  35.222  12.366
75299ION    CL-47559  23.923  14.527   3.196
75300ION    CL-47560   6.089  11.397  13.879
75301ION    CL-47561  13.508  27.491  11.489
75302ION    CL-47562  39.033   7.747   2.767
75303ION    CL-47563  33.168  38.874  12.342
75304ION    CL-47564  18.614  31.713   1.236
75305ION    CL-47565  33.584  31.779   3.167
75306ION    CL-47566  40.024  13.129  14.658
75307ION    CL-47567  12.282   7.957   1.491
75308ION    CL-47568  22.046  35.685   3.637
75309ION    CL-47569  35.683  39.261   1.957
75310ION    CL-47570  27.793   5.777  10.563
75311ION    CL-47571   3.933   9.698  14.528
75312ION    CL-47572  12.628   3.842   1.258
75313ION    CL-47573  29.259  14.364  12.305
75314ION    CL-47574  34.439  26.116  11.573
75315ION    CL-47575  35.187  38.531   0.828
75316ION    CL-47576  22.701  44.838  11.538
75317ION    CL-47577  15.032  36.349   2.423
75318ION    CL-47578  43.472  18.896   4.984
75319ION    CL-47579   6.514   2.594   5.147
75320ION    CL-47580  43.084  22.289  14.972
75321ION    CL-47581  29.685  18.542  14.170
75322ION    CL-47582  14.602  11.949  10.406
75323ION    CL-47583   0.047  37.223   5.065
75324ION    CL-47584   6.881  43.675  12.082
75325ION    CL-47585  41.808   8.106  13.287
75326ION    CL-47586   7.361   1.692  14.658
75327ION    CL-47587  42.073  32.115  13.559
75328ION    CL-47588  24.674   0.392  13.451
75329ION    CL-47589  13.192  16.855   9.770
75330ION    CL-47590  42.405  11.458  12.626
75331ION    CL-47591  26.061  37.840   0.485
75332ION    CL-47592  39.426  21.477  12.798
75333ION    CL-47593   4.370  25.696  12.112
75334ION    CL-47594  22.007  12.803  14.841
75335ION    CL-47595   3.939  28.411  10.750
75336ION    CL-47596  34.499  38.327  13.445
75337ION    CL-47597  10.124  39.933   2.202
75338ION    CL-47598  20.654  36.407  13.858
75339ION    CL-47599  16.884  38.964  12.754
75340ION    CL-47600   7.345  23.684   0.876
75341ION    CL-47601   7.989  15.630   3.140
75342ION    CL-47602  14.668  25.138  14.185
75343ION    CL-47603  35.841  16.382   2.188
75344ION    CL-47604   9.273  21.024   2.386
75345ION    CL-47605  18.919   3.342  14.002
75346ION    CL-47606  29.761   1.632  12.225
75347ION    CL-47607   7.657  15.608  13.633
75348ION    CL-47608  35.013   9.525  13.830
75349ION    CL-47609  13.842  16.629   9.979
75350ION    CL-47610  24.685   9.003   4.233
75351ION    CL-47611  35.633  33.074  12.033
75352ION    CL-47612  27.822  11.457  14.773
75353ION    CL-47613  44.286  17.919   4.045
75354ION    CL-47614  21.960  22.037   4.620
75355ION    CL-47615  26.358  22.028  14.847
75356ION    CL-47616  27.873  14.928  12.811
75357ION    CL-47617  27.947  24.712  10.554
75358ION    CL-47618  35.589  25.828   0.601
75359ION    CL-47619  43.705  12.761   3.194
75360ION    CL-47620  26.750  12.033   2.631
75361ION    CL-47621  41.977  39.443  11.637
75362ION    CL-47622  38.098  20.487   2.600
75363ION    CL-47623  13.960   9.886   0.991
75364ION    CL-47624  10.668   0.927   1.406
75365ION    CL-47625  30.413   8.584   3.441
75366ION    CL-47626  28.682  32.682  13.595
75367ION    CL-47627  33.338   7.134   4.074
75368ION    CL-47628  17.468  43.492  12.304
75369ION    CL-47629  40.736   5.722   3.699
75370ION    CL-47630  17.688  15.461  11.177
75371ION    CL-47631  23.343  39.069  10.703
75372ION    CL-47632   6.181  14.786  14.083
75373ION    CL-47633  23.039  39.500  11.552
75374ION    CL-47634  24.051   6.115   3.670
75375ION    CL-47635  23.019   8.985  11.752
75376ION    CL-47636  25.555  36.399   0.436
75377ION    CL-47637  14.562  42.990  10.756
75378ION    CL-47638  24.512  19.048   2.743
75379ION    CL-47639  28.678  31.998   1.423
75380ION    CL-47640  19.644  41.159   3.160
75381ION    CL-47641  18.161  31.074  12.904
75382ION    CL-47642  21.750  43.372   0.811
75383ION    CL-47643   1.204   6.069  12.075
75384ION    CL-47644  25.305  20.019  12.103
75385ION    CL-47645  30.750  22.122   3.642
75386ION    CL-47646  14.346  44.468   4.195
75387ION    CL-47647  37.603  26.221   0.361
75388ION    CL-47648  21.953  43.885  13.418
75389ION    CL-47649   9.065  32.972   0.527
75390ION    CL-47650  31.127   9.637  11.477
75391ION    CL-47651  12.912  17.446  12.227
75392ION    CL-47652   8.772   3.696   1.254
75393ION    CL-47653  24.739  35.197  11.565
75394ION    CL-47654  28.942  14.830   2.877
75395ION    CL-47655   8.550   8.131  11.140
75396ION    CL-47656  25.620  27.450  10.942
75397ION    CL-47657  43.205   0.853   0.608
75398ION    CL-47658  21.952  22.590  11.055
75399ION    CL-47659   0.882  30.073   3.795
75400ION    CL-47660  26.721  27.358   0.905
75401ION    CL-47661  43.279  17.129  14.818
75402ION    CL-47662  17.444  13.874   2.259
75403ION    CL-47663  30.256   7.216   4.457
75404ION    CL-47664  17.522  33.502  10.350
75405ION    CL-47665  16.216   4.473   2.315
75406ION    CL-47666  41.864  21.281  13.992
75407ION    CL-47667  15.699  41.899  14.509
75408ION    CL-47668  11.695  18.997   0.193
75409ION    CL-47669   1.719  25.982  14.044
75410ION    CL-47670  41.452   5.243   0.756
75411ION    CL-47671   2.505  22.675  14.480
75412ION    CL-47672  10.927   4.469   1.117
75413ION    CL-47673   6.845  17.728  13.189
75414ION    CL-47674  32.498  10.314   3.667
75415ION    CL-47675  26.406  36.336   0.511
75416ION    CL-47676   0.879  19.403   0.781
75417ION    CL-47677  22.624  14.411   1.226
75418ION    CL-47678  10.272  38.273   1.243
75419ION    CL-47679  19.320  35.977  14.277
75420ION    CL-47680  33.194   3.633   9.936
75421ION    CL-47681  42.859  22.700  10.634
75422ION    CL-47682  18.152   4.116  12.985
75423ION    CL-47683  38.549  36.429  14.379
75424ION    CL-47684  28.258  38.634  14.416
75425ION    CL-47685  30.139  25.208  12.080
75426ION    CL-47686   1.028  29.701   2.300
75427ION    CL-47687   1.720  12.146  12.420
75428ION    CL-47688  11.964  20.511  13.483
75429ION    CL-47689  30.634   4.661   3.168
75430ION    CL-47690  40.325  37.037  10.820
75431ION    CL-47691  15.289  22.984   2.373
75432ION    CL-47692   6.959  15.004   2.590
75433ION    CL-47693  34.975  34.064  10.813
75434ION    CL-47694  36.331  16.774  14.372
75435ION    CL-47695  24.711   2.024  14.285
75436ION    CL-47696  26.006   2.863   3.627
75437ION    CL-47697  20.945  16.765   2.579
75438ION    CL-47698  26.480  26.922  12.823
75439ION    CL-47699  39.173  34.605  13.298
75440ION    CL-47700  22.414  38.687   0.882
75441ION    CL-47701   5.099  30.658   4.792
75442ION    CL-47702   8.469  40.415  11.729
75443ION    CL-47703  23.173   5.461  12.771
75444ION    CL-47704  26.032  13.325   1.427
75445ION    CL-47705  10.235  43.339   4.988
75446ION    CL-47706   9.334  23.733  10.795
75447ION    CL-47707  32.224  30.529   3.757
75448ION    CL-47708   8.521  12.911  14.120
75449ION    CL-47709   9.725  25.512  10.696
75450ION    CL-47710  23.512  34.157   4.033
75451ION    CL-47711  21.535  28.403   3.170
75452ION    CL-47712  23.728   2.150  14.421
75453ION    CL-47713  10.333  19.568   4.281
75454ION    CL-47714   8.467  37.091   1.919
75455ION    CL-47715  41.039  24.651   1.293
75456ION    CL-47716  43.199  19.478   4.400
75457ION    CL-47717  19.165   9.938   1.665
75458ION    CL-47718  39.189   5.177   1.769
75459ION    CL-47719  44.700  19.075   4.516
75460ION    CL-47720  34.061  22.761   0.276
75461ION    CL-47721  36.370   5.667   1.646
75462ION    CL-47722   3.152  32.620  10.691
75463ION    CL-47723  31.874  31.656  10.073
75464ION    CL-47724  42.468  17.593  10.015
75465ION    CL-47725  17.314  38.474   2.724
75466ION    CL-47726  42.948  13.485   4.309
75467ION    CL-47727  10.894  37.333  12.222
75468ION    CL-47728  24.729  23.063   1.917
75469ION    CL-47729  44.110  32.321  13.970
75470ION    CL-47730   5.353  11.366  14.886
75471ION    CL-47731  27.551  10.660  14.114
75472ION    CL-47732   2.756   9.203  14.735
75473ION    CL-47733   6.280  41.258   0.795
75474ION    CL-47734  36.593  12.620  13.860
75475ION    CL-47735  21.647  29.147  14.923
75476ION    CL-47736  43.628  15.006   3.313
75477ION    CL-47737  16.110  15.661  12.591
75478ION    CL-47738  26.649  33.646   1.831
75479ION    CL-47739   7.103   0.463   3.980
75480ION    CL-47740  42.590  20.717   0.220
75481ION    CL-47741  10.917  37.530   1.422
75482ION    CL-47742   7.277  16.642  10.324
75483ION    CL-47743  21.007   4.290   0.147
75484ION    CL-47744  17.980  31.675  11.187
75485ION    CL-47745  14.168  19.993  10.634
75486ION    CL-47746  44.053  19.021  14.859
75487ION    CL-47747   2.879   9.944  10.450
75488ION    CL-47748  32.036  18.450   0.728
75489ION    CL-47749  17.792   9.700   3.097
75490ION    CL-47750  36.839  39.656   1.713
75491ION    CL-47751  19.008  33.689  13.135
75492ION    CL-47752  43.029  28.827   2.496
75493ION    CL-47753  17.233  41.483  14.288
75494ION    CL-47754  12.052  16.096   0.983
75495ION    CL-47755  15.716  34.417   2.194
75496ION    CL-47756   5.797  15.436   2.646
75497ION    CL-47757   5.618  22.365   2.186
75498ION    CL-47758  25.743  15.812  12.872
75499ION    CL-47759  42.779  26.386  12.120
75500ION    CL-47760  26.511  39.222  12.530
75501ION    CL-47761  15.442   2.812   4.346
75502ION    CL-47762  19.620  41.438  11.806
75503ION    CL-47763  23.975   2.018  13.608
75504ION    CL-47764  30.953   3.515  13.372
75505ION    CL-47765  44.738   8.418   2.882
75506ION    CL-47766  27.484  36.983  14.112
75507ION    CL-47767   6.310  38.597   1.488
75508ION    CL-47768  39.580   8.906  12.643
75509ION    CL-47769  21.777   7.145  10.466
75510ION    CL-47770  32.197  17.512   0.286
75511ION    CL-47771  44.039  13.421  13.326
75512ION    CL-47772  33.439   6.256   4.665
75513ION    CL-47773  15.606  27.951   3.565
75514ION    CL-47774   2.666  14.834   3.513
75515ION    CL-47775  20.372  35.262  11.195
75516ION    CL-47776   1.433  43.640   1.487
75517ION    CL-47777  14.489   9.272   1.012
75518ION    CL-47778  40.924  21.144   4.085
75519ION    CL-47779  35.392  32.874   2.746
75520ION    CL-47780   3.670  21.611   3.425
75521ION    CL-47781   8.194  13.443  11.023
75522ION    CL-47782  18.836  23.171  13.006
75523ION    CL-47783   8.905  23.945   2.420
75524ION    CL-47784  32.425  41.025  12.089
75525ION    CL-47785  37.032   7.190   0.910
75526ION    CL-47786  31.123  12.685  14.917
75527ION    CL-47787   2.515  33.303   1.098
75528ION    CL-47788   0.063  41.984  14.893
75529ION    CL-47789   4.529   5.337   0.252
75530ION    CL-47790  40.101  29.584   1.840
75531ION    CL-47791  34.496   8.102  14.689
75532ION    CL-47792  28.266  23.961   3.829
75533ION    CL-47793   1.396  30.428  12.883
75534ION    CL-47794  41.274  13.728  14.881
75535ION    CL-47795  43.243  23.981  11.680
75536ION    CL-47796  19.976  29.293   9.597
75537ION    CL-47797   8.372  11.890   0.433
75538ION    CL-47798  19.392  25.816  11.196
75539ION    CL-47799  33.183  21.364   3.432
75540ION    CL-47800  43.349   5.099  10.594
75541ION    CL-47801  30.085  27.656   3.222
75542ION    CL-47802  36.821  43.463  11.369
75543ION    CL-47803   3.470  27.649  11.343
75544ION    CL-47804  29.220   9.379  14.789
75545ION    CL-47805  25.564  42.516   5.500
75546ION    CL-47806   9.337  29.617   2.448
75547ION    CL-47807  18.626  35.423   1.424
75548ION    CL-47808   4.907  25.283   1.849
75549ION    CL-47809  35.708  32.065   0.140
75550ION    CL-47810  13.974  22.709  13.384
75551ION    CL-47811  42.909  22.196   3.493
75552ION    CL-47812  38.830  43.203   1.551
75553ION    CL-47813  14.783  26.126  10.331
75554ION    CL-47814  17.662  34.459  11.532
75555ION    CL-47815  18.060  19.785  11.540
75556ION    CL-47816  35.325  27.845  14.560
75557ION    CL-47817  21.698   7.743  12.947
75558ION    CL-47818  28.541  10.796  11.420
75559ION    CL-47819  13.699  36.839   2.143
75560ION    CL-47820  42.094   7.704  14.065
75561ION    CL-47821   3.463  44.953   4.610
75562ION    CL-47822  23.401  42.651  13.408
75563ION    CL-47823  10.633  34.568  14.728
75564ION    CL-47824   4.562  24.899  14.656
75565ION    CL-47825  40.000  31.169  14.035
75566ION    CL-47826  42.418   5.305  10.894
75567ION    CL-47827  23.210  35.633  14.305
75568ION    CL-47828  30.108  16.587  13.784
75569ION    CL-47829  39.150  11.144   4.940
75570ION    CL-47830  21.374  29.977   0.457
75571ION    CL-47831  21.115  19.294   0.829
75572ION    CL-47832  27.304  12.595  13.621
75573ION    CL-47833  14.154  21.485  14.653
75574ION    CL-47834   8.732  28.742   1.837
75575ION    CL-47835   5.301  39.802  14.158
75576ION    CL-47836  24.259  37.893   5.045
75577ION    CL-47837  27.285  31.242   2.464
75578ION    CL-47838  41.314   0.740  12.877
75579ION    CL-47839  19.470  34.940  10.898
75580ION    CL-47840   1.055  11.630   2.310
75581ION    CL-47841  11.821  31.651   1.697
75582ION    CL-47842  32.653  20.960  11.187
75583ION    CL-47843   5.492   9.826  11.568
75584ION    CL-47844  34.171  16.169   0.340
75585ION    CL-47845  39.631  25.615  13.736
75586ION    CL-47846  21.743  42.792  14.801
75587ION    CL-47847  41.975  42.064   2.303
75588ION    CL-47848   6.538  44.588   1.647
75589ION    CL-47849  20.265  11.664   5.067
75590ION    CL-47850  26.717   8.940   2.907
75591ION    CL-47851  28.089  20.703   2.859
75592ION    CL-47852  11.708  30.267  12.918
75593ION    CL-47853  12.653  42.261  12.144
75594ION    CL-47854  24.488  39.921  14.994
75595ION    CL-47855  28.905   4.078   0.564
75596ION    CL-47856   6.768  38.308  11.509
75597ION    CL-47857  11.341  19.110   3.958
75598ION    CL-47858  10.296  28.079  14.959
75599ION    CL-47859  28.184  24.716   1.477
75600ION    CL-47860  12.776   6.602  12.879
75601ION    CL-47861  32.375  29.986  13.301
75602ION    CL-47862  32.709  27.012   3.477
75603ION    CL-47863  20.731  16.322  12.059
75604ION    CL-47864   2.283  44.754  11.489
75605ION    CL-47865  21.407   6.078   3.281
75606ION    CL-47866   7.860  22.837  13.771
75607ION    CL-47867   7.285   5.121   0.180
75608ION    CL-47868  41.500  35.779  13.870
75609ION    CL-47869  43.476  30.222  13.581
75610ION    CL-47870  21.767  34.482   3.560
75611ION    CL-47871  21.868   6.353  14.685
75612ION    CL-47872   1.796  17.266   3.696
75613ION    CL-47873  25.687  13.803  14.090
75614ION    CL-47874  40.822   3.465   0.332
75615ION    CL-47875  21.265  35.257  11.122
75616ION    CL-47876   8.915   5.748  12.403
75617ION    CL-47877  28.758  20.824   4.638
75618ION    CL-47878  14.094  31.843  12.102
75619ION    CL-47879  43.994  31.488  14.200
75620ION    CL-47880  27.652  34.182   3.796
75621ION    CL-47881  10.208  12.353  12.899
75622ION    CL-47882  21.084  43.697   3.024
75623ION    CL-47883  17.188  22.568   2.552
75624ION    CL-47884  30.702  17.280   0.917
75625ION    CL-47885  42.109   7.637  14.971
75626ION    CL-47886  34.919  10.902   4.091
75627ION    CL-47887  31.055  19.479   5.189
75628ION    CL-47888  11.653   7.690  13.176
75629ION    CL-47889  36.636  25.213   4.767
75630ION    CL-47890  36.342  37.039  11.363
75631ION    CL-47891  22.581   7.406   1.592
75632ION    CL-47892  19.455  44.234   1.543
75633ION    CL-47893   9.612  44.509  10.429
75634ION    CL-47894  28.963  37.944   3.139
75635ION    CL-47895  28.582  33.826  11.674
75636ION    CL-47896  37.946   7.467  11.518
75637ION    CL-47897  32.848   6.387  11.993
75638ION    CL-47898  33.924  13.813   0.861
75639ION    CL-47899  22.802  38.443   4.791
75640ION    CL-47900  30.108  10.180  11.089
75641ION    CL-47901  17.242  36.670   4.948
75642ION    CL-47902  43.296  12.131  13.918
75643ION    CL-47903  25.599  23.312  11.119
75644ION    CL-47904   0.030  13.597   4.150
75645ION    CL-47905  38.576  24.000   3.877
75646ION    CL-47906  38.262   6.641   2.874
75647ION    CL-47907  27.481  39.805   1.947
75648ION    CL-47908  40.905  22.630   3.111
75649ION    CL-47909  41.676  27.963  11.855
75650ION    CL-47910  19.295  39.024   2.833
75651ION    CL-47911  21.579  38.868  14.462
75652ION    CL-47912  27.697  13.851  12.566
75653ION    CL-47913  21.844  27.825   1.023
75654ION    CL-47914  22.698   3.138  10.742
75655ION    CL-47915  38.717  37.495   0.886
75656ION    CL-47916  23.587  39.874   9.554
75657ION    CL-47917  10.769  19.750   0.625
75658ION    CL-47918  34.217  17.157   3.293
75659ION    CL-47919   8.817  19.310  12.973
75660ION    CL-47920   5.892  38.698   0.325
75661ION    CL-47921  41.194  11.651  14.467
75662ION    CL-47922   2.253  43.194  14.499
75663ION    CL-47923  21.942   0.266   3.087
75664ION    CL-47924   5.015   5.078  10.523
75665ION    CL-47925  21.215  16.281   0.993
75666ION    CL-47926  17.057  32.657   1.197
75667ION    CL-47927  37.407  20.651   1.378
75668ION    CL-47928  19.101  13.346  10.615
75669ION    CL-47929  20.335  24.238  10.360
75670ION    CL-47930  14.694  13.386   2.878
75671ION    CL-47931  13.721  23.005  10.661
75672ION    CL-47932  22.103  22.548   3.264
75673ION    CL-47933  17.609   0.446   2.677
75674ION    CL-47934  34.771  39.490  12.872
75675ION    CL-47935   6.433  30.887  14.673
75676ION    CL-47936  10.797  10.902   2.151
75677ION    CL-47937  36.078   0.902   2.402
75678ION    CL-47938  13.607  19.831   3.611
75679ION    CL-47939  32.653  26.155   3.672
75680ION    CL-47940   3.043   5.111  12.469
75681ION    CL-47941   3.672  31.789  14.915
75682ION    CL-47942   6.425  26.045   3.700
75683ION    CL-47943  17.492   2.356  12.883
75684ION    CL-47944   1.930  27.631   3.894
75685ION    CL-47945  41.000  23.784   1.790
75686ION    CL-47946  15.716  34.424  14.431
75687ION    CL-47947   1.102  29.469   1.330
75688ION    CL-47948  26.037   5.079  13.905
75689ION    CL-47949  27.952  30.188  10.218
75690ION    CL-47950  12.787   2.189  11.486
75691ION    CL-47951  12.800  41.322   2.555
75692ION    CL-47952  36.436  30.861  13.982
75693ION    CL-47953   1.968  23.265   0.855
75694ION    CL-47954  29.494  42.538  13.520
75695ION    CL-47955   2.034  12.510  14.866
75696ION    CL-47956  14.113  32.831  11.947
75697ION    CL-47957  31.565  32.665   3.241
75698ION    CL-47958  16.891  14.830  14.373
75699ION    CL-47959  23.979  41.548  14.214
75700ION    CL-47960   8.670  16.569   4.848
75701ION    CL-47961   2.334  19.086   2.866
75702ION    CL-47962  36.057  34.582  14.073
75703ION    CL-47963  22.368  44.998   4.978
75704ION    CL-47964  41.416  34.850  12.116
75705ION    CL-47965  17.525  17.800   1.060
75706ION    CL-47966  18.322  39.993   0.898
75707ION    CL-47967   3.528  31.868  11.233
75708ION    CL-47968  37.308  11.280  14.181
75709ION    CL-47969  29.208  36.737  11.519
75710ION    CL-47970  28.272  27.750   5.147
75711ION    CL-47971  43.605  15.644  13.602
75712ION    CL-47972   1.080  19.831  13.013
75713ION    CL-47973   7.535  29.138   2.463
75714ION    CL-47974  43.862  32.189   2.496
75715ION    CL-47975  22.652  40.971   0.924
75716ION    CL-47976   0.582   1.910  13.610
75717ION    CL-47977  14.067  31.552   0.997
75718ION    CL-47978  21.304   0.685  10.915
75719ION    CL-47979   0.173  29.102   1.236
75720ION    CL-47980  30.935  12.602  11.695
75721ION    CL-47981  31.106   1.612   4.475
75722ION    CL-47982  20.715  37.167  11.143
75723ION    CL-47983   6.700  10.763   3.984
75724ION    CL-47984  27.385  27.045  12.801
75725ION    CL-47985  30.585   9.863   0.826
75726ION    CL-47986  16.014  20.322   0.397
75727ION    CL-47987  10.922  38.303   4.411
75728ION    CL-47988  18.341  43.053  12.996
75729ION    CL-47989  41.715   0.670   2.772
75730ION    CL-47990  42.446  12.549   2.811
75731ION    CL-47991  30.344  27.876   2.265
75732ION    CL-47992  14.803   8.601   0.210
75733ION    CL-47993   8.413   7.771   1.443
75734ION    CL-47994  36.639  12.359   3.157
75735ION    CL-47995  14.893   9.767  14.534
75736ION    CL-47996  33.389  10.342  13.971
75737ION    CL-47997   3.748   4.845  14.746
75738ION    CL-47998  21.665  29.237   3.706
75739ION    CL-47999  22.036  31.120  11.905
75740ION    CL-48000  43.933  42.863   2.297
75741ION    CL-48001  13.607  40.288  11.274
75742ION    CL-48002  28.682  37.404  11.372
75743ION    CL-48003   3.044  25.288  11.552
75744ION    CL-48004  10.364  43.333  11.176
75745ION    CL-48005   3.820  24.137   2.441
75746ION    CL-48006  35.858  30.632   1.809
75747ION    CL-48007  41.555   0.999  14.317
75748ION    CL-48008  40.227  21.240   9.755
75749ION    CL-48009  25.678  23.626   4.146
75750ION    CL-48010  11.793  11.580   2.793
75751ION    CL-48011  33.555  35.131   0.978
75752ION    CL-48012  30.787   8.701  12.521
75753ION    CL-48013  36.424  24.589   0.844
75754ION    CL-48014  33.272   3.839   0.673
75755ION    CL-48015   4.595  40.981   3.858
75756ION    CL-48016  43.038  42.387  13.463
75757ION    CL-48017   9.442  26.987  13.253
75758ION    CL-48018  12.351  21.811   2.738
75759ION    CL-48019   1.069  26.631   4.859
75760ION    CL-48020   9.041  13.482  14.594
75761ION    CL-48021  30.631  43.239   4.428
75762ION    CL-48022  35.247  35.974  11.282
75763ION    CL-48023   2.447  26.419   3.220
75764ION    CL-48024  11.807  29.006  12.198
75765ION    CL-48025  14.317  35.260   4.141
75766ION    CL-48026   0.563  10.707  12.391
75767ION    CL-48027   9.295  32.600   3.917
75768ION    CL-48028  35.332  18.397   4.649
75769ION    CL-48029  40.567  28.818   2.614
75770ION    CL-48030   3.827   3.333  10.112
75771ION    CL-48031  42.576  39.027   2.943
75772ION    CL-48032  36.108  41.339   2.318
75773ION    CL-48033   2.540  37.714   1.959
75774ION    CL-48034   9.016  17.865   4.248
75775ION    CL-48035  35.322  25.486  11.566
75776ION    CL-48036  35.040  23.600   4.814
75777ION    CL-48037  27.605  37.681  12.070
75778ION    CL-48038  41.328   7.091   2.089
75779ION    CL-48039  41.403  27.724  14.081
75780ION    CL-48040   3.927  26.219   0.525
75781ION    CL-48041  12.094  32.064  11.581
75782ION    CL-48042  22.282  29.593   0.799
75783ION    CL-48043  15.346  10.915   2.314
75784ION    CL-48044  40.870  35.900   0.499
75785ION    CL-48045  24.307   5.720  14.754
75786ION    CL-48046  26.338   0.795   0.292
75787ION    CL-48047   4.374  27.779  12.349
75788ION    CL-48048  22.275  40.101   4.353
75789ION    CL-48049  21.668  18.197   2.192
75790ION    CL-48050  18.224  32.144   4.325
75791ION    CL-48051  25.382  18.665   1.256
75792ION    CL-48052  42.147   1.407   2.127
75793ION    CL-48053  33.985  14.917  11.207
75794ION    CL-48054  43.186  19.210  12.732
75795ION    CL-48055  30.659  41.793   0.800
75796ION    CL-48056  41.613  36.030   4.062
75797ION    CL-48057  19.723   1.287   4.040
75798ION    CL-48058   6.701  12.154  12.079
75799ION    CL-48059  35.146  41.494  11.964
75800ION    CL-48060  38.525   8.453   1.112
75801ION    CL-48061   7.187  29.113  10.306
75802ION    CL-48062   9.915  43.826  14.782
75803ION    CL-48063  23.965  20.839  10.580
75804ION    CL-48064   6.979  40.370  12.758
75805ION    CL-48065  17.307  24.845  10.027
75806ION    CL-48066  43.042  18.661   4.575
75807ION    CL-48067  31.750  10.218   1.230
75808ION    CL-48068  32.989  13.584  13.576
75809ION    CL-48069  22.516   8.727   2.318
75810ION    CL-48070  42.358  27.907  11.121
75811ION    CL-48071  13.271  37.595  11.990
75812ION    CL-48072  35.616  10.195   4.212
75813ION    CL-48073  32.256  35.170  14.060
75814ION    CL-48074  16.520  11.393  11.698
75815ION    CL-48075  29.166   6.293   0.380
75816ION    CL-48076  15.617  37.649  11.812
75817ION    CL-48077  13.354   7.845  10.380
75818ION    CL-48078  25.517   5.353  12.115
75819ION    CL-48079   5.871  16.500  11.257
75820ION    CL-48080  14.706  35.668  13.095
75821ION    CL-48081   7.394  33.850   1.360
75822ION    CL-48082  31.384  28.497  13.939
75823ION    CL-48083  33.165  44.157   0.833
75824ION    CL-48084  16.330  21.861  14.786
75825ION    CL-48085  41.629  43.372  11.581
75826ION    CL-48086  20.793  38.762   4.232
75827ION    CL-48087  39.268  25.244   5.020
75828ION    CL-48088  26.648  30.675   4.647
75829ION    CL-48089  25.789  16.575   1.309
75830ION    CL-48090   5.003   1.686   0.871
75831ION    CL-48091  14.547  23.731  11.612
75832ION    CL-48092  32.284  36.634  12.933
75833ION    CL-48093  28.083  29.333   4.153
75834ION    CL-48094  39.921  36.480   3.832
75835ION    CL-48095  24.660   0.471   1.107
75836ION    CL-48096  39.704  17.335   0.498
75837ION    CL-48097   3.306  14.857   4.223
75838ION    CL-48098  41.373  19.157   4.189
75839ION    CL-48099  31.950  15.158   3.944
75840ION    CL-48100  31.009  44.051   2.565
75841ION    CL-48101   2.557   3.090   3.988
75842ION    CL-48102  29.474  24.133  13.060
75843ION    CL-48103  27.058   6.874   2.849
75844ION    CL-48104  15.158  42.520   0.445
75845ION    CL-48105  15.136  30.008   9.722
75846ION    CL-48106   1.940  19.827   1.574
75847ION    CL-48107  19.919   2.345  11.913
75848ION    CL-48108  30.048  31.164   3.837
75849ION    CL-48109  19.483   6.571  10.238
75850ION    CL-48110  28.517   8.693  14.975
75851ION    CL-48111   4.744  14.467  14.497
75852ION    CL-48112  28.452  16.327  13.849
75853ION    CL-48113  20.080  29.040   3.036
75854ION    CL-48114  11.539  10.082  12.369
75855ION    CL-48115  18.097   9.202   4.258
75856ION    CL-48116  25.512  18.515   2.648
75857ION    CL-48117   9.090   7.040   3.215
75858ION    CL-48118  29.166  43.475  10.507
75859ION    CL-48119  42.895   6.667  11.075
75860ION    CL-48120  14.667  19.956   2.477
75861ION    CL-48121  35.665  23.988  12.445
75862ION    CL-48122  37.557   4.984   5.102
75863ION    CL-48123   9.445  10.758   1.057
75864ION    CL-48124  31.437  38.559   2.369
75865ION    CL-48125   6.924   1.229  11.807
75866ION    CL-48126   2.764  16.714  11.034
75867ION    CL-48127  19.024  42.748  13.418
75868ION    CL-48128  39.210  42.825   0.860
75869ION    CL-48129  31.836  32.869  13.091
75870ION    CL-48130  37.114  26.061  12.643
75871ION    CL-48131   4.491  35.565  12.949
75872ION    CL-48132  43.260  30.855  14.447
75873ION    CL-48133   2.600   8.254  10.343
75874ION    CL-48134  27.902  44.100   1.363
75875ION    CL-48135   9.842  37.815  14.324
75876ION    CL-48136   9.185  11.906   2.276
75877ION    CL-48137  44.998  11.399  12.917
75878ION    CL-48138  38.849  14.340  14.797
75879ION    CL-48139  20.147  44.072  13.034
75880ION    CL-48140  29.098  12.485   3.953
75881ION    CL-48141  16.473  12.388  14.445
75882ION    CL-48142  10.624  18.941  13.491
75883ION    CL-48143  13.094  20.439  12.316
75884ION    CL-48144  34.800  39.907  11.564
75885ION    CL-48145  16.135  32.526   0.833
75886ION    CL-48146  17.333  11.881   0.001
75887ION    CL-48147   4.668  19.391  14.628
75888ION    CL-48148   0.156  19.787  14.008
75889ION    CL-48149  27.998   4.010   4.228
75890ION    CL-48150  18.123  23.152   0.298
75891ION    CL-48151  37.921  26.749  13.810
75892ION    CL-48152   0.755  25.002   0.220
75893ION    CL-48153  14.987   3.210   3.330
75894ION    CL-48154   9.344  26.430  13.951
75895ION    CL-48155   9.183   8.213  14.754
75896ION    CL-48156   5.812  33.662   0.258
75897ION    CL-48157  10.319  36.766   3.017
75898ION    CL-48158  22.432  23.999   3.664
75899ION    CL-48159  38.498  37.750   0.041
75900ION    CL-48160  13.808  39.265  12.190
75901ION    CL-48161  33.288  20.865   1.113
75902ION    CL-48162  16.378   4.080  11.713
75903ION    CL-48163  41.411  12.594   2.086
75904ION    CL-48164  17.623   1.270   1.897
75905ION    CL-48165  25.130  17.219  14.783
75906ION    CL-48166  33.878  19.147   3.363
75907ION    CL-48167  17.628   8.754   1.631
75908ION    CL-48168  37.144  17.126  12.182
75909ION    CL-48169   5.568  26.256  13.027
75910ION    CL-48170   6.770  44.500  14.914
75911ION    CL-48171  13.147   0.780  14.399
75912ION    CL-48172  42.467  42.599   4.038
75913ION    CL-48173  22.565  16.867   0.963
75914ION    CL-48174  43.381  14.021  14.919
75915ION    CL-48175  40.851  33.596   2.760
75916ION    CL-48176  24.260  40.931  12.241
75917ION    CL-48177  43.031   4.419  12.578
75918ION    CL-48178  14.093  15.213   5.269
75919ION    CL-48179  11.828  26.217   0.691
75920ION    CL-48180  10.598  41.481   0.242
75921ION    CL-48181  22.542  25.026  14.046
75922ION    CL-48182  21.354   9.000  14.176
75923ION    CL-48183   2.888  30.832   2.190
75924ION    CL-48184  18.297  19.903   4.737
75925ION    CL-48185  42.711  29.763  13.490
75926ION    CL-48186  20.051  34.897  14.302
75927ION    CL-48187  33.100  24.266  13.860
75928ION    CL-48188  25.948   9.058   1.337
75929ION    CL-48189  26.765  13.132  11.933
75930ION    CL-48190  41.593   6.279   1.781
75931ION    CL-48191  35.214  41.772   2.809
75932ION    CL-48192  36.543  22.012  11.910
75933ION    CL-48193  10.386   4.483   0.276
75934ION    CL-48194  33.038  38.283   1.927
75935ION    CL-48195  16.284  11.389  12.942
75936ION    CL-48196  19.328  14.675   2.045
75937ION    CL-48197  19.044   2.836   3.069
75938ION    CL-48198  10.376  15.900   4.981
75939ION    CL-48199  11.666  43.230   1.833
75940ION    CL-48200  12.601  35.612  13.286
75941ION    CL-48201  39.709   4.845   0.331
75942ION    CL-48202  20.982  38.147  11.091
75943ION    CL-48203  29.645  21.017   1.279
75944ION    CL-48204  13.417  22.134  11.453
75945ION    CL-48205  43.414  11.633  11.916
75946ION    CL-48206  44.221  12.094   1.968
75947ION    CL-48207  17.733  12.521  14.280
75948ION    CL-48208  30.655  17.620   4.866
75949ION    CL-48209  29.652  26.593  13.978
75950ION    CL-48210   5.371  31.915  11.998
75951ION    CL-48211  17.178  33.440  12.538
75952ION    CL-48212  25.603  41.242  14.075
75953ION    CL-48213  11.809   6.822  13.043
75954ION    CL-48214  23.097  44.413  13.679
75955ION    CL-48215  21.820  21.449   2.815
75956ION    CL-48216  27.791  13.850   1.120
75957ION    CL-48217  30.673  41.465  13.013
75958ION    CL-48218  30.143  13.891  12.608
75959ION    CL-48219  43.002  18.869  11.043
75960ION    CL-48220  27.963  37.935   1.331
75961ION    CL-48221   5.576   9.009   1.726
75962ION    CL-48222  39.511  41.516  13.005
75963ION    CL-48223  31.885  14.277  14.185
75964ION    CL-48224  25.053  31.783   4.083
75965ION    CL-48225  44.270  25.109  13.572
75966ION    CL-48226  15.486  13.054   2.582
75967ION    CL-48227  18.751   9.279  14.477
75968ION    CL-48228  37.861  28.114   2.184
75969ION    CL-48229   2.308  24.167  12.572
75970ION    CL-48230   1.828   9.125  13.869
75971ION    CL-48231  16.758   2.787  12.553
75972ION    CL-48232  16.077  42.757  11.543
75973ION    CL-48233   7.995  18.077  14.635
75974ION    CL-48234   6.116  29.147   5.436
75975ION    CL-48235  41.343  42.500   1.376
75976ION    CL-48236  20.027  28.855  11.479
75977ION    CL-48237   6.116  21.066  13.546
75978ION    CL-48238  12.136  31.955  13.336
75979ION    CL-48239  12.984  16.247  10.324
75980ION    CL-48240  30.155  19.248  14.913
75981ION    CL-48241  32.062   4.400   4.183
75982ION    CL-48242  12.507  22.110  11.418
75983ION    CL-48243  21.957  28.994  14.162
75984ION    CL-48244   6.864  26.151  13.851
75985ION    CL-48245   8.416  38.152   3.644
75986ION    CL-48246   2.455   0.925   2.598
75987ION    CL-48247  15.457  22.737   0.372
75988ION    CL-48248  15.714  26.578   0.848
75989ION    CL-48249  43.304  26.323  14.137
75990ION    CL-48250  27.479   4.394   2.357
75991ION    CL-48251   5.641  44.228   4.186
75992ION    CL-48252  43.732  42.371  14.258
75993ION    CL-48253  21.787   2.641  14.690
75994ION    CL-48254   9.698  33.654   0.051
75995ION    CL-48255  21.452  28.538  10.588
75996ION    CL-48256  13.376  15.850   3.432
75997ION    CL-48257  23.794  36.890   2.789
75998ION    CL-48258  17.674  42.030   3.885
75999ION    CL-48259  20.372  28.257   5.036
76000ION    CL-48260   3.925  18.545   4.174
76001ION    CL-48261   1.897  12.719   0.834
76002ION    CL-48262  17.010  10.051   2.883
76003ION    CL-48263  39.098   6.986   3.413
76004ION    CL-48264   0.630  41.666   0.939
76005ION    CL-48265  23.171  44.299   0.168
76006ION    CL-48266   5.513  19.506  12.907
76007ION    CL-48267  38.933  44.605   2.440
76008ION    CL-48268   1.990  20.810   1.749
76009ION    CL-48269   8.776  22.215   3.557
76010ION    CL-48270  24.516  25.455  11.471
76011ION    CL-48271  21.989  18.493   5.101
76012ION    CL-48272  15.595  29.829   3.012
76013ION    CL-48273  11.988  34.492  13.410
76014ION    CL-48274  27.266  23.583  10.161
76015ION    CL-48275   9.099  36.429   0.013
76016ION    CL-48276   7.794  24.122   5.045
76017ION    CL-48277   6.219  10.242  12.549
76018ION    CL-48278  32.460  33.951  11.318
76019ION    CL-48279  42.741  26.477   3.746
76020ION    CL-48280   5.935  15.251  11.445
76021ION    CL-48281   3.160  44.739  12.384
76022ION    CL-48282  22.800  17.585  12.960
76023ION    CL-48283  12.098  39.445  12.917
76024ION    CL-48284  30.910  13.581  14.526
76025ION    CL-48285  44.236  25.680   0.724
76026ION    CL-48286   0.140  12.027   2.366
76027ION    CL-48287  32.370  41.313   4.206
76028ION    CL-48288  14.036   1.823  13.967
76029ION    CL-48289  36.089  11.372  12.470
76030ION    CL-48290  28.362  34.739  11.456
76031ION    CL-48291  27.136  35.557  13.778
76032ION    CL-48292  33.346  26.068   2.425
76033ION    CL-48293  42.400  41.992   5.023
76034ION    CL-48294  41.378   6.973  14.808
76035ION    CL-48295  43.528  30.992  11.667
76036ION    CL-48296   2.818  20.456   2.214
76037ION    CL-48297   2.386   6.173  13.878
76038ION    CL-48298  22.474  35.525   2.877
76039ION    CL-48299  28.850  36.865   1.885
76040ION    CL-48300  15.103  43.664   4.654
76041ION    CL-48301  19.619   4.169   1.629
76042ION    CL-48302   9.334  42.130   1.902
76043ION    CL-48303  15.796   5.718  12.649
76044ION    CL-48304   9.850   2.049  10.834
76045ION    CL-48305   2.999  33.483   0.236
76046ION    CL-48306  36.163  34.729  12.421
76047ION    CL-48307  18.302  14.672  11.210
76048ION    CL-48308   5.446   0.641   5.054
76049ION    CL-48309  12.475   4.053   2.654
76050ION    CL-48310  23.250  22.924   0.828
76051ION    CL-48311  25.938  19.548  12.718
76052ION    CL-48312  13.317  31.104  12.528
76053ION    CL-48313  37.801  42.745  12.007
76054ION    CL-48314  17.063  24.400   0.235
76055ION    CL-48315  42.643  22.182   2.621
76056ION    CL-48316  10.181  41.881  11.678
76057ION    CL-48317  33.146  34.552   2.125
76058ION    CL-48318  28.462  41.902   2.416
76059ION    CL-48319   3.247   2.261  12.619
76060ION    CL-48320  24.851   5.498   2.744
76061ION    CL-48321  14.795  11.179  14.767
76062ION    CL-48322   3.442  15.628   4.845
76063ION    CL-48323  29.187  30.072   2.688
76064ION    CL-48324  33.671  29.070   0.275
76065ION    CL-48325   5.933  18.167   1.258
76066ION    CL-48326  31.822  22.151   3.453
76067ION    CL-48327   3.781  33.410  12.937
76068ION    CL-48328  24.510   0.154  11.976
76069ION    CL-48329  15.390   0.620   2.314
76070ION    CL-48330   2.167   3.646  10.307
76071ION    CL-48331  43.234  22.196  13.941
76072ION    CL-48332  16.857  10.584   0.164
76073ION    CL-48333  27.412  10.203   1.583
76074ION    CL-48334  15.244  33.911   2.916
76075ION    CL-48335  37.800   6.689  10.907
76076ION    CL-48336   2.789  43.316   3.448
76077ION    CL-48337   3.247  18.295   4.813
76078ION    CL-48338  34.232  22.519   2.761
76079ION    CL-48339   1.498  27.328   4.732
76080ION    CL-48340   4.326   7.721   1.929
76081ION    CL-48341  12.861   9.007   1.463
76082ION    CL-48342  14.175  21.831  13.247
76083ION    CL-48343  41.646  13.911  14.061
76084ION    CL-48344   9.111  21.488   0.619
76085ION    CL-48345  24.247   3.909  13.955
76086ION    CL-48346   1.454   9.183   0.431
76087ION    CL-48347  19.434   1.483   3.081
76088ION    CL-48348  13.677  38.766  14.632
76089ION    CL-48349  34.593  23.205   3.776
76090ION    CL-48350  22.332  14.100   2.432
76091ION    CL-48351  33.353  28.525  12.986
76092ION    CL-48352  10.388  17.713   2.051
76093ION    CL-48353  38.179  24.690   3.271
76094ION    CL-48354  25.329  20.313  14.565
76095ION    CL-48355  14.852  34.437  11.910
76096ION    CL-48356  42.404   4.246   0.374
76097ION    CL-48357   0.958  21.224  11.587
76098ION    CL-48358  43.304  30.960   4.071
76099ION    CL-48359  29.894   9.075   3.966
76100ION    CL-48360  14.326  35.461  14.921
76101ION    CL-48361   8.445  39.996  14.319
76102ION    CL-48362   1.798  28.059  14.646
76103ION    CL-48363  11.828  16.832   2.210
76104ION    CL-48364  44.056  32.089  14.907
76105ION    CL-48365  21.198  24.011   4.157
76106ION    CL-48366  31.683  32.612   1.053
76107ION    CL-48367  27.951  26.777  13.597
76108ION    CL-48368  28.939  31.885   2.830
76109ION    CL-48369   7.780  37.957  11.009
76110ION    CL-48370  43.455  28.027  14.913
76111ION    CL-48371  39.966  18.259   0.219
76112ION    CL-48372  26.683  11.032   0.082
76113ION    CL-48373  25.029  11.283   1.933
76114ION    CL-48374  35.027  21.524  13.384
76115ION    CL-48375   6.388   9.845   0.450
76116ION    CL-48376  28.487   5.334  10.339
76117ION    CL-48377  34.368  35.520   1.164
76118ION    CL-48378  19.149  13.971   0.237
76119ION    CL-48379  27.378  35.487  10.594
76120ION    CL-48380  19.208  11.120   1.185
76121ION    CL-48381  28.364  34.622   0.869
76122ION    CL-48382  33.453  36.351   2.573
76123ION    CL-48383  10.922  38.637  13.013
76124ION    CL-48384   6.184  17.701   4.071
76125ION    CL-48385  30.106  28.540   0.866
76126ION    CL-48386  23.103  40.276  12.919
76127ION    CL-48387  31.755  39.708   1.463
76128ION    CL-48388  44.087  12.504  11.258
76129ION    CL-48389  25.246  15.759   2.849
76130ION    CL-48390  20.583  17.624   2.942
76131ION    CL-48391   4.000  21.502   1.144
76132ION    CL-48392  20.471  21.267  11.932
76133ION    CL-48393  28.551  25.972   1.536
76134ION    CL-48394   3.061  23.872   3.524
76135ION    CL-48395  35.848  39.884  13.874
76136ION    CL-48396  18.590  43.194   1.659
76137ION    CL-48397  22.734  39.937  14.093
76138ION    CL-48398   3.737   2.847   3.550
76139ION    CL-48399  15.300  43.466  12.546
76140ION    CL-48400  38.572  37.949  13.779
76141ION    CL-48401  35.949   1.729  14.841
76142ION    CL-48402   4.256   8.052   4.494
76143ION    CL-48403  23.575   1.276  14.101
76144ION    CL-48404  16.798  43.981   2.128
76145ION    CL-48405  25.221  22.559   3.001
76146ION    CL-48406  35.098  23.956   2.698
76147ION    CL-48407  44.920  44.602   3.449
76148ION    CL-48408  30.274   4.986  12.528
76149ION    CL-48409  39.386  22.394  14.700
76150ION    CL-48410  15.659  36.029   5.026
76151ION    CL-48411  16.761  43.103  14.020
76152ION    CL-48412  18.088  15.535  12.914
76153ION    CL-48413  42.330  30.605  14.828
76154ION    CL-48414  17.183  10.750  10.217
76155ION    CL-48415  37.492  26.532   2.749
76156ION    CL-48416  31.041  24.705   0.827
76157ION    CL-48417   2.163  41.393   2.198
76158ION    CL-48418  38.958   9.177   5.462
76159ION    CL-48419  14.403  27.001   3.719
76160ION    CL-48420  28.203  39.615  14.226
76161ION    CL-48421  34.907  11.798   2.985
76162ION    CL-48422  12.143  37.334  14.883
76163ION    CL-48423  33.969  12.120   1.672
76164ION    CL-48424  44.733   4.689   1.030
76165ION    CL-48425  36.963  41.121   0.553
76166ION    CL-48426  11.488  29.738   3.555
76167ION    CL-48427  34.975  26.675  10.920
76168ION    CL-48428  31.121  16.735   4.977
76169ION    CL-48429   6.778  13.196  12.461
76170ION    CL-48430  41.073   9.812  11.879
76171ION    CL-48431  10.747  37.555  11.258
76172ION    CL-48432  37.125  36.934  10.288
76173ION    CL-48433  14.804   4.584  12.756
76174ION    CL-48434  34.654  30.042   4.666
76175ION    CL-48435   3.734  28.124   4.111
76176ION    CL-48436   6.373   6.314  11.098
76177ION    CL-48437  25.577   5.185   1.570
76178ION    CL-48438  16.624  14.261   2.172
76179ION    CL-48439  10.829  19.993   2.427
76180ION    CL-48440  28.633  44.605   1.151
76181ION    CL-48441   3.690   8.771  11.508
76182ION    CL-48442  40.922   5.220   2.854
76183ION    CL-48443  25.489  32.993  13.980
76184ION    CL-48444  37.719  16.325  13.821
76185ION    CL-48445  26.489   5.304  12.374
76186ION    CL-48446  32.963   8.782  14.561
76187ION    CL-48447  20.992  12.957   3.162
76188ION    CL-48448   3.200  29.942   3.780
76189ION    CL-48449  19.299  19.639  10.920
76190ION    CL-48450  13.251  16.026  12.239
76191ION    CL-48451  26.940   9.849  11.172
76192ION    CL-48452   9.222  30.886  10.578
76193ION    CL-48453   2.405  36.270   0.178
76194ION    CL-48454  30.142  20.843   4.530
76195ION    CL-48455  12.797  39.433  10.654
76196ION    CL-48456  29.327  43.414  13.701
76197ION    CL-48457  23.171  29.456  10.643
76198ION    CL-48458   6.089  31.137   0.578
76199ION    CL-48459  26.999  18.499  11.553
76200ION    CL-48460  33.551  11.020   0.873
76201ION    CL-48461  14.036  15.045   4.390
76202ION    CL-48462  18.246  17.315   0.533
76203ION    CL-48463  28.557  29.505  13.789
76204ION    CL-48464   0.154  18.275   4.125
76205ION    CL-48465  27.627  33.826   0.434
76206ION    CL-48466  26.219  18.264  13.489
76207ION    CL-48467  18.563  43.060  11.460
76208ION    CL-48468  14.800  18.710  12.559
76209ION    CL-48469  22.425  20.133   0.799
76210ION    CL-48470   6.134   0.544   2.199
76211ION    CL-48471  18.193   0.707  13.330
76212ION    CL-48472   9.374   4.071  13.231
76213ION    CL-48473  38.991  25.062  11.376
76214ION    CL-48474  41.761  33.863  14.078
76215ION    CL-48475  11.001   1.614   3.099
76216ION    CL-48476   2.477  16.941  11.998
76217ION    CL-48477  15.715  40.036   1.390
76218ION    CL-48478  36.875   5.688  13.008
76219ION    CL-48479  23.997  25.062   2.800
76220ION    CL-48480  44.182   3.630  11.587
76221ION    CL-48481   0.907  15.225  12.419
76222ION    CL-48482  22.477  29.981   2.523
76223ION    CL-48483  40.733  29.320  14.642
76224ION    CL-48484   2.972  34.436   5.004
76225ION    CL-48485  13.980  28.584  10.320
76226ION    CL-48486  27.114  22.958  11.594
76227ION    CL-48487  19.831   5.561   4.563
76228ION    CL-48488   0.526  23.644   4.142
76229ION    CL-48489   1.236   4.681  13.466
76230ION    CL-48490  18.490  12.658   1.824
76231ION    CL-48491   5.314  28.532  10.159
76232ION    CL-48492  18.246  11.282   0.808
76233ION    CL-48493  11.645  12.080  12.237
76234ION    CL-48494   0.126  37.617   0.913
76235ION    CL-48495  17.059  30.777   9.584
76236ION    CL-48496  20.712   8.316   3.879
76237ION    CL-48497  26.762  14.392   1.148
76238ION    CL-48498  44.015  41.280   4.701
76239ION    CL-48499   2.560   2.991   2.124
76240ION    CL-48500   1.767  42.822   3.629
76241ION    CL-48501  29.792  19.579   9.806
76242ION    CL-48502  32.699  16.553   1.542
76243ION    CL-48503  11.586   7.969  10.084
76244ION    CL-48504  24.665  14.698   0.033
76245ION    CL-48505  27.991  38.804   4.849
76246ION    CL-48506  27.908  24.257  13.988
76247ION    CL-48507  35.782  27.019  10.938
76248ION    CL-48508   1.403  26.264   0.581
76249ION    CL-48509  36.665   5.879   2.459
76250ION    CL-48510  28.168  31.685   2.225
76251ION    CL-48511   9.615   3.507   1.756
76252ION    CL-48512  22.680  23.375   1.578
76253ION    CL-48513   3.588  17.658   3.840
76254ION    CL-48514  17.132  18.643   4.981
76255ION    CL-48515  42.293   6.360  12.349
76256ION    CL-48516  32.174  33.689  12.629
76257ION    CL-48517  17.150  11.905  13.630
76258ION    CL-48518  14.527  12.678  14.273
76259ION    CL-48519  20.321  28.453  10.017
76260ION    CL-48520  33.242  38.305   3.668
76261ION    CL-48521   2.098  32.878  14.689
76262ION    CL-48522  13.306  40.268   0.471
76263ION    CL-48523  41.900  22.552   2.063
76264ION    CL-48524  29.204  35.638  14.095
76265ION    CL-48525  19.004  13.328   1.476
76266ION    CL-48526  16.495  10.369  13.800
76267ION    CL-48527  27.197  44.024   3.830
76268ION    CL-48528  12.214  31.855   2.931
76269ION    CL-48529   9.489  17.013   4.027
76270ION    CL-48530  11.697  32.982   0.733
76271ION    CL-48531  12.778   5.606  13.041
76272ION    CL-48532  13.504  34.249  12.697
76273ION    CL-48533  18.220  39.458   1.628
76274ION    CL-48534  18.083  19.338   1.255
76275ION    CL-48535  34.024   7.095  12.534
76276ION    CL-48536  19.252  37.575   1.308
76277ION    CL-48537  31.901  38.850  11.931
76278ION    CL-48538   0.518   5.043   1.628
76279ION    CL-48539  13.583  20.171  11.426
76280ION    CL-48540  18.372  30.920  10.436
76281ION    CL-48541  44.862  28.095  12.493
76282ION    CL-48542  44.358  19.431   9.933
76283ION    CL-48543  39.678   3.929  12.544
76284ION    CL-48544  29.359  18.335  11.936
76285ION    CL-48545  27.571  37.416   1.970
76286ION    CL-48546  42.737   0.312   2.732
76287ION    CL-48547  10.423  21.918   0.745
76288ION    CL-48548   9.914   2.502  13.508
76289ION    CL-48549  23.725  17.769   0.306
76290ION    CL-48550  21.803  21.031  12.605
76291ION    CL-48551  15.462  17.660  11.517
76292ION    CL-48552  11.783   8.318  11.790
76293ION    CL-48553  39.844  14.806   0.429
76294ION    CL-48554  15.551  38.133  13.588
76295ION    CL-48555  24.098  16.288   4.946
76296ION    CL-48556  23.064  43.974   4.577
76297ION    CL-48557  34.129  18.481  13.079
76298ION    CL-48558  35.946  32.986   1.832
76299ION    CL-48559  42.428   2.917  12.779
76300ION    CL-48560   4.440   4.341   0.264
76301ION    CL-48561  34.564   8.067  11.879
76302ION    CL-48562  40.272  19.583   2.514
76303ION    CL-48563   5.681   9.379  13.375
76304ION    CL-48564  44.533  13.312  12.460
76305ION    CL-48565  11.161  29.673  11.592
76306ION    CL-48566  20.583  18.726   4.260
76307ION    CL-48567   4.304  31.531  14.185
76308ION    CL-48568  36.374  19.049  12.938
76309ION    CL-48569  34.371  18.405   0.618
76310ION    CL-48570  25.742  36.122  11.152
76311ION    CL-48571  29.733   7.463  11.768
76312ION    CL-48572  32.948   0.184   0.833
76313ION    CL-48573  17.302  30.599  14.265
76314ION    CL-48574  28.187  20.706  11.940
76315ION    CL-48575   7.806  27.929   0.674
76316ION    CL-48576  33.485  16.847  11.123
76317ION    CL-48577   7.983   9.772   1.347
76318ION    CL-48578  39.496  29.408   2.790
76319ION    CL-48579  10.399  19.596   3.284
76320ION    CL-48580  40.610   8.861  14.272
76321ION    CL-48581  25.791   9.994  12.638
76322ION    CL-48582  11.373   5.060   0.607
76323ION    CL-48583  19.663  23.556  11.251
76324ION    CL-48584   5.046  22.760   4.232
76325ION    CL-48585  39.935  44.342  13.059
76326ION    CL-48586  10.133  16.336   0.191
76327ION    CL-48587  39.010  23.003   3.226
76328ION    CL-48588  34.614  18.427   1.909
76329ION    CL-48589  39.389   7.584  11.098
76330ION    CL-48590  40.156  18.809   2.050
76331ION    CL-48591  28.946   1.296   2.125
76332ION    CL-48592  21.049   6.899   4.206
76333ION    CL-48593  15.695  15.520   1.267
76334ION    CL-48594  20.605  40.747  14.683
76335ION    CL-48595  17.184  39.613  11.633
76336ION    CL-48596  19.258  20.480  11.204
76337ION    CL-48597  41.840  33.582   3.385
76338ION    CL-48598  26.960   7.717   1.659
76339ION    CL-48599  41.331  33.759  11.976
76340ION    CL-48600   9.112   4.590   5.060
76341ION    CL-48601   2.165  24.285   3.688
76342ION    CL-48602  15.035  31.756   0.848
76343ION    CL-48603  30.573  35.781  13.502
76344ION    CL-48604  37.946  27.937   4.861
76345ION    CL-48605  17.749  23.431  14.413
76346ION    CL-48606  17.388  31.155   3.002
76347ION    CL-48607  21.380  21.800  14.262
76348ION    CL-48608  27.174   9.335   4.170
76349ION    CL-48609  40.560  39.938  14.014
76350ION    CL-48610  16.211   8.648   1.146
76351ION    CL-48611  15.523  33.132   0.531
76352ION    CL-48612   7.356   2.714   1.748
76353ION    CL-48613   2.562  29.000   2.716
76354ION    CL-48614   2.305  14.977  13.836
76355ION    CL-48615  13.968  34.926  12.289
76356ION    CL-48616  38.681  13.233  11.478
76357ION    CL-48617  41.681  18.333   1.766
76358ION    CL-48618   9.598   4.971  14.327
76359ION    CL-48619  28.643   6.791   4.528
76360ION    CL-48620   0.447  30.389  13.864
76361ION    CL-48621  10.327   7.645   0.327
76362ION    CL-48622   6.871  12.209   2.467
76363ION    CL-48623   6.894  12.192  14.202
76364ION    CL-48624  42.454  29.750  12.378
76365ION    CL-48625  37.402  26.591   1.602
76366ION    CL-48626  19.777  13.371   0.418
76367ION    CL-48627  25.564  25.245  12.230
76368ION    CL-48628  17.080   3.767   1.872
76369ION    CL-48629   1.942   8.838   1.688
76370ION    CL-48630  40.512  19.348   1.227
76371ION    CL-48631  32.512   0.985  14.830
76372ION    CL-48632   6.257  11.321  11.581
76373ION    CL-48633   7.674  29.193  13.754
76374ION    CL-48634   4.563  43.315   2.433
76375ION    CL-48635  16.316  35.054  13.000
76376ION    CL-48636  24.926  10.904  13.336
76377ION    CL-48637  42.656   9.046  14.391
76378ION    CL-48638  39.750  38.109  13.636
76379ION    CL-48639  40.384  37.044   4.912
76380ION    CL-48640  35.163   6.940   5.158
76381ION    CL-48641  24.990   3.713   4.859
76382ION    CL-48642  30.305  19.493   0.749
76383ION    CL-48643   4.167   5.809   2.237
76384ION    CL-48644   5.736   8.119   1.808
76385ION    CL-48645  38.035  14.037  11.467
76386ION    CL-48646  24.727  19.178  11.202
76387ION    CL-48647  19.118  25.059   0.758
76388ION    CL-48648  10.347   5.395  14.866
76389ION    CL-48649   0.733   9.235  11.536
76390ION    CL-48650  32.563  10.976  14.947
76391ION    CL-48651  32.711  32.048  14.938
76392ION    CL-48652  35.648  19.578   2.666
76393ION    CL-48653  13.322  17.287  10.662
76394ION    CL-48654  15.934   6.217  14.221
76395ION    CL-48655  28.819  19.821   2.257
76396ION    CL-48656  26.128  26.274   1.282
76397ION    CL-48657  20.491  12.280  14.449
76398ION    CL-48658  13.011  27.398   1.366
76399ION    CL-48659  43.207  27.753  10.850
76400ION    CL-48660  14.233  41.900  12.526
76401ION    CL-48661  37.076  28.766  13.505
76402ION    CL-48662  23.770  19.296  11.584
76403ION    CL-48663   8.334   8.190   4.066
76404ION    CL-48664  27.368  27.609   3.835
76405ION    CL-48665  37.545   7.220  12.400
76406ION    CL-48666  31.305  43.443   2.061
76407ION    CL-48667  18.205  18.240   1.981
76408ION    CL-48668  10.349  15.573   1.155
76409ION    CL-48669  24.283   9.257   3.466
76410ION    CL-48670  30.959  14.874   3.612
76411ION    CL-48671  34.262  38.149   3.656
76412ION    CL-48672  17.344  40.190  12.906
76413ION    CL-48673  17.876   2.553   1.967
76414ION    CL-48674  26.990   0.748   4.275
76415ION    CL-48675  34.532  13.822  11.941
  45.00000  45.00000  15.00000
